Converted from moscito
23760
    1SOL     ow    1   2.566   5.832   3.036  0.5236  0.1340 -0.2344
    1SOL     hw    2   2.477   5.868   3.030  0.1032 -1.0449 -1.7625
    1SOL     hw    3   2.568   5.787   3.120 -0.5781 -0.4141 -0.4810
    1SOL     vw    4   2.555   5.831   3.046  0.3229 -0.0939 -0.4686
    2SOL     ow    5   4.780   6.943   5.361  0.3832  0.1309  0.1769
    2SOL     hw    6   4.770   6.887   5.284  2.8918 -0.2184  0.0477
    2SOL     hw    7   4.802   7.029   5.325  1.5334 -0.0281  0.4901
    2SOL     vw    8   4.781   6.947   5.346  0.8659  0.0639  0.2015
    3SOL     ow    9   6.557   4.752   2.391  0.0187 -0.3865 -0.0257
    3SOL     hw   10   6.565   4.822   2.456  0.0644 -0.5589  0.1556
    3SOL     hw   11   6.574   4.795   2.307 -0.5249 -0.0666  0.0289
    3SOL     vw   12   6.560   4.767   2.388 -0.0472 -0.3672  0.0055
    4SOL     ow   13   4.158   2.205   6.266  0.0540 -0.1600  0.0911
    4SOL     hw   14   4.237   2.171   6.223 -0.2743 -0.5822 -0.1894
    4SOL     hw   15   4.184   2.290   6.301  0.6577 -0.3302  0.0699
    4SOL     vw   16   4.172   2.211   6.265  0.0906 -0.2381  0.0510
    5SOL     ow   17   7.021   5.617   4.799 -0.2639 -0.0125  0.3373
    5SOL     hw   18   7.004   5.673   4.723 -2.0693  0.5572  1.1181
    5SOL     hw   19   7.005   5.528   4.767  0.2837  0.1086 -0.2869
    5SOL     vw   20   7.017   5.613   4.785 -0.4299  0.0787  0.3579
    6SOL     ow   21   0.580   0.328   3.376 -0.2561  0.2544 -0.6853
    6SOL     hw   22   0.674   0.342   3.385 -0.4790  0.4844  1.9800
    6SOL     hw   23   0.553   0.390   3.307  0.9292  3.2854  1.3703
    6SOL     vw   24   0.589   0.338   3.368 -0.1291  0.6846 -0.0623
    7SOL     ow   25   3.838   6.958   4.847 -0.2332  0.0303 -0.0036
    7SOL     hw   26   3.808   6.871   4.875 -0.0487  0.1189  0.4713
    7SOL     hw   27   3.787   7.019   4.901 -2.8887  0.3727 -2.6027
    7SOL     vw   28   3.827   6.954   4.858 -0.5592  0.0870 -0.2840
    8SOL     ow   29   6.398   2.445   4.466 -0.7132 -0.7292  0.2181
    8SOL     hw   30   6.398   2.400   4.550 -2.3103  0.4799  0.9250
    8SOL     hw   31   6.328   2.510   4.473 -0.6336 -0.3168 -1.9048
    8SOL     vw   32   6.389   2.448   4.478 -0.9134 -0.5153  0.0315
    9SOL     ow   33   4.229   2.032   4.979 -0.3783 -0.2390  0.0779
    9SOL     hw   34   4.172   2.034   4.902 -1.1030  0.2130  0.6270
    9SOL     hw   35   4.282   1.952   4.966 -2.3033 -1.6419  0.4042
    9SOL     vw   36   4.229   2.021   4.967 -0.7281 -0.3643  0.1934
   10SOL     ow   37   0.051   4.682   2.201  0.1521  0.2284  0.0056
   10SOL     hw   38   0.050   4.734   2.282 -0.7197  1.5536 -0.8148
   10SOL     hw   39  -0.030   4.707   2.156  0.5718 -0.5674 -1.2198
   10SOL     vw   40   0.040   4.692   2.206  0.0925  0.2983 -0.2643
   11SOL     ow   41   3.106   0.932   4.465 -0.4333 -0.3169  0.2069
   11SOL     hw   42   3.082   0.920   4.373  0.0444 -1.9361  0.2575
   11SOL     hw   43   3.041   0.992   4.499 -1.0432 -0.2408 -1.0208
   11SOL     vw   44   3.094   0.938   4.457 -0.4507 -0.5205  0.0517
   12SOL     ow   45   3.034   6.118   5.764  0.3435  0.2232  0.3534
   12SOL     hw   46   3.022   6.151   5.853  0.6137  0.4754  0.2973
   12SOL     hw   47   3.011   6.192   5.707 -0.0434 -0.0058  0.2076
   12SOL     vw   48   3.030   6.132   5.768  0.3281  0.2265  0.3271
   13SOL     ow   49   0.306   1.967   1.023 -0.2443  0.2126  0.4827
   13SOL     hw   50   0.300   1.976   1.119 -1.3936 -0.8811  0.5374
   13SOL     hw   51   0.256   2.041   0.989 -0.4337  0.1989  0.7308
   13SOL     vw   52   0.299   1.978   1.031 -0.4210  0.0665  0.5227
   14SOL     ow   53   4.165   2.767   0.495  0.6035 -0.6972 -0.1249
   14SOL     hw   54   4.216   2.694   0.462  1.2052  0.3885 -1.7029
   14SOL     hw   55   4.224   2.843   0.489 -1.0846  0.5721 -1.8957
   14SOL     vw   56   4.179   2.767   0.490  0.4601 -0.3865 -0.5667
   15SOL     ow   57   2.311   5.966   3.039  0.2924 -0.4969 -0.5760
   15SOL     hw   58   2.312   6.057   3.008 -1.8867  0.2453  1.2322
   15SOL     hw   59   2.225   5.933   3.010  1.2048 -2.1586 -1.5414
   15SOL     vw   60   2.300   5.974   3.031  0.1253 -0.6185 -0.4648
   16SOL     ow   61   0.801   6.256   4.336 -0.1319  0.0991 -0.2022
   16SOL     hw   62   0.745   6.195   4.288 -0.5985 -0.2492  0.7445
   16SOL     hw   63   0.785   6.234   4.428 -3.0820  3.9595  0.4714
   16SOL     vw   64   0.791   6.245   4.342 -0.5827  0.5627  0.0114
   17SOL     ow   65   3.674   0.252   3.932  0.1954 -0.0072  0.2885
   17SOL     hw   66   3.633   0.178   3.887  1.6019 -0.4348 -0.3327
   17SOL     hw   67   3.606   0.285   3.991 -2.0132  1.0452 -2.6248
   17SOL     vw   68   3.659   0.246   3.934  0.0898  0.0753 -0.1777
   18SOL     ow   69   2.569   0.256   3.467 -0.1678 -0.1047 -0.3124
   18SOL     hw   70   2.479   0.269   3.499 -0.3452  0.0285 -0.8598
   18SOL     hw   71   2.559   0.240   3.373  0.2093 -2.0317 -0.0789
   18SOL     vw   72   2.556   0.255   3.459 -0.1416 -0.3414 -0.3536
   19SOL     ow   73   3.444   6.118   1.057 -0.1275 -0.0137  0.7332
   19SOL     hw   74   3.395   6.082   1.131  0.8098  1.0829  1.9345
   19SOL     hw   75   3.535   6.122   1.089  0.4085 -0.1050 -0.7119
   19SOL     vw   76   3.450   6.114   1.071  0.0670  0.1187  0.7010
   20SOL     ow   77   2.973   2.063   7.080 -0.1985 -0.7182 -0.5649
   20SOL     hw   78   2.903   2.019   7.031 -1.3480  1.7379 -1.2624
   20SOL     hw   79   2.928   2.110   7.150  0.5646  1.7978 -1.6744
   20SOL     vw   80   2.958   2.063   7.083 -0.2494 -0.0622 -0.8032
   21SOL     ow   81   5.821   6.597   6.840  0.4522  0.4974 -0.3953
   21SOL     hw   82   5.751   6.554   6.791  1.2781  0.4368 -1.5550
   21SOL     hw   83   5.883   6.527   6.859  0.2679  0.5729  0.5366
   21SOL     vw   84   5.820   6.582   6.836  0.5369  0.4992 -0.4253
   22SOL     ow   85   4.685   5.820   0.761 -0.4465 -0.0042 -0.2454
   22SOL     hw   86   4.701   5.875   0.685  1.8907 -1.4206 -0.8785
   22SOL     hw   87   4.670   5.733   0.725  1.6975 -0.9091  0.8717
   22SOL     vw   88   4.685   5.816   0.747  0.1450 -0.3107 -0.1815
   23SOL     ow   89   3.511   3.317   7.065  0.2689 -0.0486 -0.2881
   23SOL     hw   90   3.605   3.310   7.082  0.3643  1.1748 -0.2471
   23SOL     hw   91   3.504   3.365   6.983 -0.3112  2.3561  1.0654
   23SOL     vw   92   3.523   3.323   7.057  0.2050  0.4300 -0.1042
   24SOL     ow   93   2.501   0.451   6.523  0.3073  0.4770 -0.0533
   24SOL     hw   94   2.450   0.485   6.450  1.3945  1.9482 -0.1890
   24SOL     hw   95   2.490   0.516   6.593  0.8302  0.0855  0.4041
   24SOL     vw   96   2.493   0.464   6.522  0.5198  0.6194 -0.0107
   25SOL     ow   97   1.556   3.187   4.912 -0.0455 -0.0533 -0.1056
   25SOL     hw   98   1.627   3.228   4.864  1.5568  0.6842  2.6914
   25SOL     hw   99   1.555   3.096   4.880 -0.0022  0.6974 -2.4104
   25SOL     vw  100   1.565   3.180   4.901  0.1717  0.1432 -0.0408
   26SOL     ow  101   5.774   6.097   2.136  0.1564 -0.3804 -0.2391
   26SOL     hw  102   5.829   6.032   2.180 -0.4260 -0.2123  0.7750
   26SOL     hw  103   5.735   6.147   2.208  0.0040  0.5996 -0.9861
   26SOL     vw  104   5.776   6.095   2.151  0.0596 -0.2289 -0.2038
   27SOL     ow  105   2.510   1.230   4.244 -0.1852  0.0522 -0.4746
   27SOL     hw  106   2.521   1.234   4.339 -1.3110 -2.0736 -0.1843
   27SOL     hw  107   2.592   1.191   4.212 -0.9783 -2.2345  0.0559
   27SOL     vw  108   2.523   1.225   4.252 -0.4383 -0.5300 -0.3662
   28SOL     ow  109   6.830   3.350   5.251 -0.0366  0.0679 -0.8113
   28SOL     hw  110   6.868   3.438   5.248  3.2602 -1.1640  0.0524
   28SOL     hw  111   6.878   3.301   5.185  0.8766 -1.9431  1.2055
   28SOL     vw  112   6.841   3.355   5.242  0.5188 -0.3600 -0.4311
   29SOL     ow  113   6.054   2.029   1.524 -0.4142 -0.1353  0.0581
   29SOL     hw  114   6.005   2.110   1.530 -0.2591 -0.1055  1.0988
   29SOL     hw  115   5.991   1.960   1.547 -0.2236 -0.1862  0.4376
   29SOL     vw  116   6.040   2.030   1.527 -0.3684 -0.1382  0.2455
   30SOL     ow  117   1.495   2.627   3.351 -0.0863 -0.3320 -0.0579
   30SOL     hw  118   1.508   2.715   3.384  1.4103 -0.4416 -0.3015
   30SOL     hw  119   1.412   2.631   3.304  0.4703  1.2340 -0.9907
   30SOL     vw  120   1.486   2.639   3.349  0.1847 -0.1396 -0.2130
   31SOL     ow  121   6.108   1.985   3.733  0.4210  0.1771  0.4211
   31SOL     hw  122   6.164   1.924   3.686  0.0375  0.0334  0.1485
   31SOL     hw  123   6.019   1.954   3.716  0.2939 -0.1791  1.6427
   31SOL     vw  124   6.103   1.973   3.725  0.3538  0.1112  0.5463
   32SOL     ow  125   2.610   5.913   2.423  0.2589 -0.0554 -0.1661
   32SOL     hw  126   2.687   5.969   2.417  0.4792 -0.4917 -2.4405
   32SOL     hw  127   2.543   5.968   2.463  0.3815  2.0131 -2.5724
   32SOL     vw  128   2.611   5.928   2.427  0.3041  0.1600 -0.7837
   33SOL     ow  129   6.752   0.523   0.727 -0.0988 -0.0505 -0.5830
   33SOL     hw  130   6.803   0.599   0.755 -1.8223  1.2643 -0.8512
   33SOL     hw  131   6.817   0.454   0.716  1.4736  1.2418  0.1205
   33SOL     vw  132   6.768   0.524   0.729 -0.1187  0.2935 -0.5256
   34SOL     ow  133   1.558   1.265   6.625  0.1362  0.9959 -0.3955
   34SOL     hw  134   1.609   1.242   6.702 -3.4679 -2.8159  1.1852
   34SOL     hw  135   1.580   1.198   6.560  0.2202  1.8670 -1.3020
   34SOL     vw  136   1.568   1.253   6.627 -0.3283  0.6079 -0.3066
   35SOL     ow  137   3.140   1.086   0.744 -0.2987 -0.1983  0.0463
   35SOL     hw  138   3.156   1.179   0.758  1.8945 -0.6838  1.2178
   35SOL     hw  139   3.183   1.043   0.818 -1.9703 -2.1146 -0.0343
   35SOL     vw  140   3.148   1.093   0.756 -0.2298 -0.5152  0.1902
   36SOL     ow  141   4.228   6.419   6.441  0.4511  0.1646 -0.5344
   36SOL     hw  142   4.243   6.331   6.407 -1.6928  0.5340 -2.7797
   36SOL     hw  143   4.146   6.412   6.490 -1.1802  1.3084 -2.9189
   36SOL     vw  144   4.219   6.407   6.443 -0.0470  0.3641 -1.1454
   37SOL     ow  145   2.037   2.477   1.571  0.2628 -0.2094  0.2881
   37SOL     hw  146   2.096   2.517   1.636  0.5820  1.1828 -0.8108
   37SOL     hw  147   2.032   2.542   1.501 -0.5097 -1.4518 -0.8354
   37SOL     vw  148   2.044   2.491   1.570  0.2030 -0.1895 -0.0051
   38SOL     ow  149   0.487   0.702   3.556  0.1066 -0.1468 -0.3153
   38SOL     hw  150   0.454   0.705   3.466  0.0071 -1.7250 -0.3536
   38SOL     hw  151   0.567   0.755   3.554 -0.4934  0.7681 -1.0509
   38SOL     vw  152   0.493   0.710   3.544  0.0143 -0.2343 -0.4174
   39SOL     ow  153   3.675   3.087   6.003  0.4225  0.7280 -0.3212
   39SOL     hw  154   3.710   3.036   5.930 -2.6565 -1.1215 -0.6610
   39SOL     hw  155   3.686   3.031   6.080 -0.4145  0.7492 -0.1773
   39SOL     vw  156   3.681   3.073   6.004 -0.0941  0.4869 -0.3469
   40SOL     ow  157   2.060   5.755   6.858 -0.9083 -0.4194  0.4487
   40SOL     hw  158   2.151   5.737   6.883 -0.9033 -0.1427  0.6342
   40SOL     hw  159   2.007   5.701   6.916 -0.9114  0.5037  1.3227
   40SOL     vw  160   2.065   5.745   6.869 -0.9080 -0.2613  0.5882
   41SOL     ow  161   0.947   1.549   3.770 -0.0602 -0.1760 -0.3554
   41SOL     hw  162   0.905   1.465   3.787 -0.9724  0.2595 -0.3958
   41SOL     hw  163   0.932   1.565   3.677 -1.8409  1.0388  0.0825
   41SOL     vw  164   0.939   1.540   3.760 -0.4155  0.0418 -0.3030
   42SOL     ow  165   5.712   4.017   4.137  0.0572  0.6468  0.2980
   42SOL     hw  166   5.779   3.964   4.181  0.9084  2.0845  0.7813
   42SOL     hw  167   5.632   3.965   4.146  0.9707 -0.8432  0.2103
   42SOL     vw  168   5.710   4.003   4.144  0.2899  0.6402  0.3505
   43SOL     ow  169   0.454   1.359   6.419 -0.2445 -0.6746  0.3117
   43SOL     hw  170   0.536   1.320   6.447  1.4356  1.9059 -0.6738
   43SOL     hw  171   0.419   1.299   6.354  0.8107 -1.8354  0.7827
   43SOL     vw  172   0.460   1.346   6.414  0.1164 -0.4873  0.2437
   44SOL     ow  173   1.285   6.915   3.399  0.0977 -0.3452  0.2288
   44SOL     hw  174   1.252   6.831   3.370  0.7252 -0.8903  1.0453
   44SOL     hw  175   1.211   6.975   3.389 -0.6180 -1.1770  0.4628
   44SOL     vw  176   1.271   6.912   3.394  0.0861 -0.5269  0.3675
   45SOL     ow  177   5.342   2.274   5.037  0.2342 -0.2334 -0.0822
   45SOL     hw  178   5.407   2.224   5.086  1.5453  1.5164  0.0746
   45SOL     hw  179   5.333   2.356   5.086 -1.8193 -0.2640 -0.3268
   45SOL     vw  180   5.349   2.278   5.050  0.1364 -0.0067 -0.0939
   46SOL     ow  181   3.078   0.562   2.844  0.8113  0.3732  0.0140
   46SOL     hw  182   3.048   0.506   2.773  0.5071 -2.0577  1.9166
   46SOL     hw  183   2.998   0.589   2.890  1.0755  0.8831  0.1913
   46SOL     vw  184   3.064   0.558   2.841  0.8061  0.1198  0.2884
   47SOL     ow  185   5.064   6.218   6.530 -0.1614  0.3898 -0.2564
   47SOL     hw  186   5.026   6.297   6.492 -1.8176 -0.1652  0.1332
   47SOL     hw  187   5.069   6.157   6.457 -2.9331 -0.5291  0.1819
   47SOL     vw  188   5.060   6.220   6.515 -0.7458  0.1955 -0.1476
   48SOL     ow  189   5.739   4.284   0.733  0.4618  0.5631  0.1511
   48SOL     hw  190   5.796   4.217   0.769  0.2390 -0.0698 -0.6313
   48SOL     hw  191   5.749   4.359   0.792 -0.4620 -0.6583  1.9520
   48SOL     vw  192   5.748   4.285   0.745  0.3107  0.3185  0.2854
   49SOL     ow  193   4.712   0.194   4.307  0.1131 -0.5606 -0.4148
   49SOL     hw  194   4.640   0.240   4.263  1.4808  0.8760 -1.2283
   49SOL     hw  195   4.731   0.120   4.249 -0.4228 -0.7161 -0.4031
   49SOL     vw  196   4.705   0.190   4.294  0.2229 -0.3916 -0.5202
   50SOL     ow  197   1.014   2.649   6.675  0.0882  0.2400  0.5889
   50SOL     hw  198   0.930   2.671   6.714  0.5480  0.9874  1.1930
   50SOL     hw  199   1.021   2.707   6.599  0.9520  1.6976  1.7299
   50SOL     vw  200   1.004   2.659   6.670  0.2628  0.5310  0.8190
   51SOL     ow  201   2.962   5.537   3.372  0.2758  0.6159  0.1018
   51SOL     hw  202   3.046   5.507   3.408 -0.2947 -0.8081  0.3435
   51SOL     hw  203   2.959   5.630   3.393  1.8761  0.7498 -0.0991
   51SOL     vw  204   2.973   5.545   3.380  0.4117  0.4458  0.1073
   52SOL     ow  205   0.603   4.887   1.975 -0.2716  0.1114  0.6039
   52SOL     hw  206   0.613   4.949   1.902  0.9506 -1.8331 -0.9836
   52SOL     hw  207   0.690   4.882   2.014 -0.3936 -0.4810  0.8073
   52SOL     vw  208   0.615   4.895   1.971 -0.1264 -0.2234  0.4213
   53SOL     ow  209   2.540   6.777   4.940 -0.9583 -0.3216 -0.4197
   53SOL     hw  210   2.600   6.850   4.923 -0.5021 -0.5409  0.1860
   53SOL     hw  211   2.459   6.818   4.970 -0.7602 -0.0556 -0.2440
   53SOL     vw  212   2.537   6.792   4.942 -0.8718 -0.3154 -0.3164
   54SOL     ow  213   2.389   0.520   2.853  0.1557 -0.5025  0.7997
   54SOL     hw  214   2.307   0.489   2.816  0.3459  0.4433 -0.4915
   54SOL     hw  215   2.440   0.441   2.869  0.4734 -0.9538 -2.0040
   54SOL     vw  216   2.385   0.506   2.850  0.2227 -0.4372  0.2594
   55SOL     ow  217   1.038   0.490   2.246  0.0496 -0.6028  0.9086
   55SOL     hw  218   1.108   0.528   2.193  0.1699 -1.4748  0.4165
   55SOL     hw  219   1.082   0.419   2.295 -0.2324 -0.3383  1.5605
   55SOL     vw  220   1.053   0.485   2.246  0.0282 -0.6829  0.9297
   56SOL     ow  221   2.522   3.482   5.008 -0.2068 -0.5714 -0.0145
   56SOL     hw  222   2.615   3.464   4.999  0.4881  2.3362  0.4725
   56SOL     hw  223   2.503   3.466   5.100  0.5143  1.5310  0.5293
   56SOL     vw  224   2.531   3.477   5.019 -0.0199  0.0896  0.1216
   57SOL     ow  225   0.418   0.546   5.296  0.3444 -0.5093  0.4110
   57SOL     hw  226   0.508   0.577   5.308  0.2850 -0.9584  2.3808
   57SOL     hw  227   0.426   0.451   5.290 -0.0747 -0.6667  1.9502
   57SOL     vw  228   0.431   0.537   5.297  0.2812 -0.5894  0.8740
   58SOL     ow  229   4.094   6.957   1.444 -0.0250  0.0622  0.2397
   58SOL     hw  230   4.056   6.881   1.400  0.7579 -0.7835  0.9766
   58SOL     hw  231   4.023   6.991   1.499 -1.1626  1.4157 -1.9450
   58SOL     vw  232   4.080   6.951   1.446 -0.0718  0.1292  0.0486
   59SOL     ow  233   0.800   6.488   0.754 -0.1298  0.4394 -0.1396
   59SOL     hw  234   0.750   6.469   0.675 -0.3445  0.1871  0.0566
   59SOL     hw  235   0.752   6.445   0.824 -0.0098  0.7703  0.1497
   59SOL     vw  236   0.787   6.480   0.753 -0.1423  0.4499 -0.0756
   60SOL     ow  237   1.503   1.410   4.401  0.3380 -0.3167 -0.8297
   60SOL     hw  238   1.469   1.322   4.382  1.7103 -1.2037  0.5680
   60SOL     hw  239   1.598   1.403   4.385  1.5820 -0.9242  4.7286
   60SOL     vw  240   1.511   1.397   4.396  0.6832 -0.5139  0.0880
   61SOL     ow  241   1.327   1.187   6.463 -0.0036 -0.3712  0.2930
   61SOL     hw  242   1.264   1.135   6.513 -1.0419  0.1860 -0.4145
   61SOL     hw  243   1.332   1.143   6.378 -2.3933  1.6762 -1.0553
   61SOL     vw  244   1.320   1.174   6.458 -0.4559 -0.0275  0.0222
   62SOL     ow  245   3.303   2.324   4.686  0.5457  0.0651 -0.3179
   62SOL     hw  246   3.289   2.369   4.602  1.0762  0.1065 -0.3862
   62SOL     hw  247   3.281   2.233   4.667  0.5748  0.0906 -0.4804
   62SOL     vw  248   3.298   2.318   4.672  0.6196  0.0739 -0.3481
   63SOL     ow  249   2.444   3.233   5.423  0.1607  0.2159 -0.5431
   63SOL     hw  250   2.363   3.253   5.470  1.7517 -0.2183  2.6223
   63SOL     hw  251   2.458   3.309   5.367 -3.0216 -0.2582 -2.1999
   63SOL     vw  252   2.435   3.246   5.422 -0.0492  0.0960 -0.3440
   64SOL     ow  253   0.158   0.094   2.850  0.5466  0.9238 -0.2869
   64SOL     hw  254   0.065   0.084   2.867  1.1328 -1.8642  2.2418
   64SOL     hw  255   0.177   0.186   2.870 -1.6979  1.7218 -1.5543
   64SOL     vw  256   0.148   0.105   2.855  0.3278  0.6613 -0.1205
   65SOL     ow  257   5.651   4.168   2.545 -0.6894 -0.3473  0.0792
   65SOL     hw  258   5.672   4.185   2.454 -1.7228  0.6477 -0.0006
   65SOL     hw  259   5.651   4.255   2.586  1.9693 -0.9304  1.5604
   65SOL     vw  260   5.654   4.182   2.539 -0.4752 -0.2933  0.2640
   66SOL     ow  261   0.574   4.089   0.315 -0.3003  0.4307  0.4386
   66SOL     hw  262   0.496   4.135   0.345 -0.9827 -0.5991  0.3102
   66SOL     hw  263   0.636   4.158   0.293 -1.4677  1.3024 -0.2390
   66SOL     vw  264   0.572   4.104   0.316 -0.5444  0.4096  0.3323
   67SOL     ow  265   3.394   1.719   5.237 -0.2262  0.5774  0.1528
   67SOL     hw  266   3.335   1.687   5.168  0.1378  1.2162 -0.4645
   67SOL     hw  267   3.354   1.688   5.319 -0.5618 -0.3489 -0.3527
   67SOL     vw  268   3.381   1.711   5.239 -0.2223  0.5395  0.0048
   68SOL     ow  269   6.783   6.304   3.939 -0.3970  0.5084  0.2128
   68SOL     hw  270   6.744   6.319   3.853 -0.1740  1.9243  0.3361
   68SOL     hw  271   6.846   6.233   3.924  0.6086  1.6252 -1.1035
   68SOL     vw  272   6.786   6.296   3.925 -0.2351  0.8426  0.0554
   69SOL     ow  273   0.166   3.668   4.803 -0.0273  0.1520  0.0772
   69SOL     hw  274   0.151   3.718   4.883 -2.8029 -1.3661  0.6641
   69SOL     hw  275   0.250   3.624   4.816 -0.2877  0.1792  2.0417
   69SOL     vw  276   0.175   3.669   4.815 -0.4279 -0.0447  0.4137
   70SOL     ow  277   6.273   1.959   3.994 -0.2767 -0.3548 -0.1302
   70SOL     hw  278   6.279   1.883   4.051  0.2052 -1.0556 -1.0774
   70SOL     hw  279   6.359   1.963   3.951  0.3891  1.8427  1.2621
   70SOL     vw  280   6.286   1.949   3.996 -0.1252 -0.1573 -0.0716
   71SOL     ow  281   2.582   5.187   2.887 -0.5516  0.0055  0.6599
   71SOL     hw  282   2.645   5.170   2.817 -0.6659 -1.7998  0.9450
   71SOL     hw  283   2.628   5.162   2.967 -1.7216 -1.8333  0.8333
   71SOL     vw  284   2.597   5.181   2.888 -0.7209 -0.4752  0.7205
   72SOL     ow  285   4.427   3.812   1.434  0.2440  0.2045  0.3609
   72SOL     hw  286   4.485   3.739   1.456 -0.5214 -0.3769  0.5004
   72SOL     hw  287   4.460   3.885   1.486  0.7064 -0.1776  0.6147
   72SOL     vw  288   4.439   3.812   1.444  0.2041  0.0774  0.4129
   73SOL     ow  289   2.664   5.690   3.876  0.3644 -0.0366  0.4242
   73SOL     hw  290   2.698   5.760   3.931 -1.7958 -0.5797  2.6587
   73SOL     hw  291   2.699   5.610   3.914  0.5917 -0.3408 -0.3911
   73SOL     vw  292   2.673   5.689   3.888  0.1093 -0.1483  0.6115
   74SOL     ow  293   4.767   2.531   6.354 -0.3841  0.0258 -0.2255
   74SOL     hw  294   4.719   2.604   6.316 -1.0408  0.5418  1.4914
   74SOL     hw  295   4.792   2.562   6.441  0.4857 -1.3218  0.0326
   74SOL     vw  296   4.764   2.544   6.361 -0.3557 -0.0838  0.0348
   75SOL     ow  297   2.614   5.630   6.411 -0.3517 -0.5297  0.2633
   75SOL     hw  298   2.536   5.587   6.446  0.0395 -0.0943  1.7768
   75SOL     hw  299   2.641   5.575   6.338 -1.1131 -1.6393  0.7787
   75SOL     vw  300   2.607   5.617   6.406 -0.4005 -0.6187  0.5310
   76SOL     ow  301   5.001   4.265   0.353 -0.5699  0.7153  0.5962
   76SOL     hw  302   5.034   4.212   0.281 -1.2323 -0.7530  1.3288
   76SOL     hw  303   4.920   4.304   0.320 -0.4609  0.6819  0.2935
   76SOL     vw  304   4.995   4.263   0.339 -0.6428  0.5174  0.6529
   77SOL     ow  305   3.051   0.709   0.292 -0.1402  0.2407  0.3125
   77SOL     hw  306   2.989   0.649   0.333  0.3659  0.3835  1.3327
   77SOL     hw  307   3.051   0.685   0.200 -1.6456  0.1900  0.2962
   77SOL     vw  308   3.043   0.698   0.285 -0.2720  0.2529  0.4449
   78SOL     ow  309   2.702   0.221   3.748  0.0793  0.7999  0.0089
   78SOL     hw  310   2.783   0.193   3.791 -0.3120 -0.3381  0.0396
   78SOL     hw  311   2.646   0.251   3.820 -0.0189  0.3206  0.1330
   78SOL     vw  312   2.706   0.221   3.763  0.0149  0.5865  0.0292
   79SOL     ow  313   2.699   2.895   3.158  0.0571  0.0426  0.1379
   79SOL     hw  314   2.775   2.949   3.139 -2.1888  3.4074 -0.2365
   79SOL     hw  315   2.645   2.901   3.079 -0.9249 -1.6230  0.6459
   79SOL     vw  316   2.702   2.903   3.145 -0.3688  0.2668  0.1556
   80SOL     ow  317   2.401   2.916   6.050 -0.0537 -0.0550 -0.0125
   80SOL     hw  318   2.434   3.003   6.072 -2.3899  0.6125  1.1626
   80SOL     hw  319   2.362   2.927   5.964  1.0371 -0.3901 -0.5769
   80SOL     vw  320   2.401   2.929   6.041 -0.2180 -0.0111  0.0684
   81SOL     ow  321   2.811   4.105   2.271 -0.6336  0.0219  0.0609
   81SOL     hw  322   2.846   4.095   2.182 -0.5123 -1.7259  0.2750
   81SOL     hw  323   2.875   4.062   2.327 -1.8518 -0.9529  0.7439
   81SOL     vw  324   2.824   4.098   2.267 -0.7783 -0.3376  0.1793
   82SOL     ow  325   1.377   6.767   3.694  0.0019 -0.1195 -0.0954
   82SOL     hw  326   1.448   6.753   3.755 -0.6978 -0.0304  0.7614
   82SOL     hw  327   1.314   6.697   3.713 -0.3064  0.0181 -0.5786
   82SOL     vw  328   1.378   6.756   3.704 -0.1311 -0.0899 -0.0460
   83SOL     ow  329   3.616   1.732   0.463 -0.0630 -0.0645  0.2474
   83SOL     hw  330   3.694   1.763   0.509 -0.1259  1.1193 -0.4166
   83SOL     hw  331   3.574   1.672   0.525 -1.2533  2.9548  2.6351
   83SOL     vw  332   3.621   1.728   0.477 -0.2284  0.4901  0.4748
   84SOL     ow  333   1.147   4.530   0.548  0.2338  0.3267 -0.0745
   84SOL     hw  334   1.178   4.474   0.618 -2.3502 -2.6283 -1.0663
   84SOL     hw  335   1.083   4.588   0.589  0.6692  0.4745  0.4121
   84SOL     vw  336   1.143   4.530   0.562 -0.0497 -0.0436 -0.1411
   85SOL     ow  337   0.739   3.595   4.216  0.2706  0.3331  0.1235
   85SOL     hw  338   0.771   3.579   4.304 -0.0945  0.0092  0.2006
   85SOL     hw  339   0.697   3.681   4.221  1.4263  0.9227 -0.0674
   85SOL     vw  340   0.737   3.604   4.228  0.3749  0.3681  0.1082
   86SOL     ow  341   3.109   0.243   3.536  0.0745 -0.6776 -0.0327
   86SOL     hw  342   3.154   0.180   3.480  0.4032  0.5169 -1.1560
   86SOL     hw  343   3.161   0.323   3.528 -0.3569 -0.2389  1.3384
   86SOL     vw  344   3.122   0.245   3.527  0.0610 -0.4621  0.0000
   87SOL     ow  345   4.448   5.751   3.832  0.0896  0.0210 -0.2743
   87SOL     hw  346   4.489   5.819   3.779  0.8176  1.2544  1.7850
   87SOL     hw  347   4.506   5.739   3.907 -2.2337  0.3716  1.7187
   87SOL     vw  348   4.461   5.758   3.835 -0.1211  0.2298  0.2604
   88SOL     ow  349   2.244   2.875   1.056 -0.8387  0.2898  0.0748
   88SOL     hw  350   2.165   2.866   1.002 -1.2454  0.1648  0.6710
   88SOL     hw  351   2.211   2.911   1.139 -0.0988  1.3471 -0.0757
   88SOL     vw  352   2.229   2.879   1.060 -0.7948  0.4128  0.1336
   89SOL     ow  353   4.724   1.352   2.496 -0.2161 -0.2589  0.3967
   89SOL     hw  354   4.710   1.423   2.559 -0.9881  0.5079 -0.6088
   89SOL     hw  355   4.819   1.347   2.488 -0.0511 -1.0400  2.3367
   89SOL     vw  356   4.735   1.361   2.503 -0.2959 -0.2607  0.5200
   90SOL     ow  357   5.792   4.182   0.493  0.3291 -0.1660  0.0219
   90SOL     hw  358   5.735   4.224   0.557 -0.7573  0.5129 -1.3415
   90SOL     hw  359   5.742   4.106   0.463  1.2742 -1.0988  0.6966
   90SOL     vw  360   5.778   4.178   0.498  0.3107 -0.1996 -0.0689
   91SOL     ow  361   3.626   2.948   4.380  0.2007 -0.0371  0.7078
   91SOL     hw  362   3.540   2.908   4.372  0.1259  0.3932 -1.1802
   91SOL     hw  363   3.687   2.880   4.351  0.1340  0.8203 -1.7322
   91SOL     vw  364   3.623   2.934   4.375  0.1820  0.1327  0.1369
   92SOL     ow  365   2.769   3.265   4.210 -0.2211 -0.2902 -0.0853
   92SOL     hw  366   2.786   3.359   4.220 -0.0026 -0.4708  1.3872
   92SOL     hw  367   2.826   3.223   4.274  0.7792 -1.5540 -1.7328
   92SOL     vw  368   2.778   3.272   4.220 -0.0603 -0.4808 -0.1082
   93SOL     ow  369   4.816   6.757   5.635 -0.5270 -0.7006 -0.4635
   93SOL     hw  370   4.825   6.680   5.579 -0.7473 -1.7780  0.9341
   93SOL     hw  371   4.889   6.752   5.696  0.3529  1.0592 -1.2930
   93SOL     vw  372   4.827   6.746   5.635 -0.4401 -0.6104 -0.3884
   94SOL     ow  373   2.299   6.294   5.826  0.5755  0.5506  0.1751
   94SOL     hw  374   2.329   6.241   5.752 -0.1877  2.2984 -1.4500
   94SOL     hw  375   2.224   6.245   5.861  1.3137 -0.5950  0.1892
   94SOL     vw  376   2.293   6.280   5.821  0.5722  0.6301 -0.0377
   95SOL     ow  377   3.702   3.265   1.901  0.3921  0.1517  0.1688
   95SOL     hw  378   3.611   3.297   1.908 -0.5059 -1.4354 -2.6354
   95SOL     hw  379   3.753   3.344   1.884 -0.2166  1.2193  2.8407
   95SOL     vw  380   3.697   3.280   1.899  0.1934  0.0832  0.1515
   96SOL     ow  381   2.009   2.152   1.614  0.4413 -0.3703  0.8322
   96SOL     hw  382   2.068   2.140   1.688  1.4754 -2.0986 -0.2180
   96SOL     hw  383   1.955   2.073   1.613 -0.2257  0.0764  0.2909
   96SOL     vw  384   2.009   2.140   1.624  0.4898 -0.5394  0.6222
   97SOL     ow  385   0.761   3.698   1.543 -0.3835  0.6099 -0.7238
   97SOL     hw  386   0.792   3.653   1.622 -4.0768 -1.4856 -0.2574
   97SOL     hw  387   0.788   3.642   1.471 -1.4957 -0.2870 -0.4641
   97SOL     vw  388   0.769   3.685   1.544 -1.0175  0.2151 -0.6281
   98SOL     ow  389   5.717   4.506   6.567 -0.0418 -0.2093  0.2592
   98SOL     hw  390   5.719   4.410   6.565 -0.8416 -0.2287 -0.0828
   98SOL     hw  391   5.708   4.532   6.475  0.8742  0.2238  0.2831
   98SOL     vw  392   5.716   4.497   6.554 -0.0265 -0.1550  0.2177
   99SOL     ow  393   4.103   6.673   6.370  0.2566 -0.1751  0.0057
   99SOL     hw  394   4.012   6.662   6.344  0.0761  0.2942  0.4214
   99SOL     hw  395   4.100   6.689   6.464  0.8080 -0.6575  0.1121
   99SOL     vw  396   4.091   6.674   6.379  0.3054 -0.1769  0.0744
  100SOL     ow  397   4.762   5.882   2.197 -0.4212 -0.1973 -0.2684
  100SOL     hw  398   4.792   5.807   2.146  1.5858  1.1155 -1.1573
  100SOL     hw  399   4.836   5.904   2.253 -2.1447 -0.8345  2.4167
  100SOL     vw  400   4.776   5.875   2.198 -0.3839 -0.1082 -0.0315
  101SOL     ow  401   2.146   6.472   4.656 -0.3191 -0.0838  0.5872
  101SOL     hw  402   2.154   6.442   4.746 -0.9466 -1.2764  0.2763
  101SOL     hw  403   2.126   6.392   4.606  0.0399  0.5438 -0.6062
  101SOL     vw  404   2.145   6.457   4.661 -0.3545 -0.1585  0.3886
  102SOL     ow  405   4.390   0.353   2.550 -0.8725  0.2504 -0.4798
  102SOL     hw  406   4.414   0.262   2.534 -2.3377 -0.3257  0.4413
  102SOL     hw  407   4.343   0.380   2.471 -0.2614  0.2798 -0.8358
  102SOL     vw  408   4.387   0.345   2.537 -0.9847  0.1783 -0.4053
  103SOL     ow  409   2.415   1.882   4.633 -0.2510  0.3542  0.1779
  103SOL     hw  410   2.457   1.955   4.679  0.7425 -0.1696  0.1371
  103SOL     hw  411   2.396   1.818   4.703  1.5407 -0.5753 -0.1343
  103SOL     vw  412   2.418   1.883   4.649  0.1165  0.1624  0.1316
  104SOL     ow  413   7.076   1.425   0.205  0.3857 -0.4024  0.1400
  104SOL     hw  414   7.133   1.349   0.192  2.4365  0.7306  1.8793
  104SOL     hw  415   7.091   1.480   0.128 -0.7026 -1.4241 -0.8613
  104SOL     vw  416   7.085   1.422   0.193  0.5126 -0.3877  0.2374
  105SOL     ow  417   3.066   4.470   7.074  0.1443 -0.3921  0.2964
  105SOL     hw  418   3.146   4.497   7.120 -0.5647  0.4979  1.0429
  105SOL     hw  419   3.068   4.374   7.077 -0.3148 -0.3970  3.0540
  105SOL     vw  420   3.077   4.461   7.080 -0.0100 -0.2751  0.7587
  106SOL     ow  421   2.901   6.909   5.028 -0.6338 -0.2093  0.3858
  106SOL     hw  422   2.934   6.869   4.948 -0.3564 -1.1252  0.9424
  106SOL     hw  423   2.816   6.945   5.004 -0.6068 -0.5832 -0.2818
  106SOL     vw  424   2.894   6.909   5.014 -0.5935 -0.3796  0.3712
  107SOL     ow  425   5.648   5.068   6.175  0.3957  0.2668  0.6061
  107SOL     hw  426   5.561   5.101   6.197 -0.0330  0.7577 -1.5624
  107SOL     hw  427   5.636   4.973   6.162  0.1459  0.3507  0.2082
  107SOL     vw  428   5.635   5.060   6.176  0.3061  0.3428  0.2677
  108SOL     ow  429   2.151   6.847   2.133 -0.7052  0.2340 -0.1717
  108SOL     hw  430   2.136   6.753   2.125 -2.1505 -0.0257  3.6341
  108SOL     hw  431   2.083   6.888   2.080  0.3746 -0.7407 -2.4508
  108SOL     vw  432   2.140   6.840   2.124 -0.7535  0.0710  0.0298
  109SOL     ow  433   4.271   6.695   3.302  0.2222 -0.7695 -0.1589
  109SOL     hw  434   4.314   6.779   3.317 -2.5289  0.2221  3.8797
  109SOL     hw  435   4.309   6.663   3.220  4.7434  2.1921  0.3863
  109SOL     vw  436   4.282   6.702   3.293  0.4559 -0.2480  0.4460
  110SOL     ow  437   1.016   6.402   0.889  0.2879 -0.4318  0.1444
  110SOL     hw  438   0.956   6.428   0.819  1.8704 -0.2387 -1.2214
  110SOL     hw  439   1.019   6.477   0.948  0.2356  0.1135 -0.5373
  110SOL     vw  440   1.009   6.415   0.887  0.4898 -0.3343 -0.1258
  111SOL     ow  441   1.217   6.252   0.734 -0.0658 -0.2145  0.2323
  111SOL     hw  442   1.303   6.291   0.722  0.5223 -1.2885  0.8030
  111SOL     hw  443   1.228   6.161   0.704 -1.3501 -0.0224 -0.9411
  111SOL     vw  444   1.230   6.245   0.728 -0.1577 -0.3309  0.1528
  112SOL     ow  445   6.891   6.114   6.962 -0.3804 -0.4521 -0.0401
  112SOL     hw  446   6.946   6.131   7.039  0.9006  0.1932 -1.0568
  112SOL     hw  447   6.833   6.190   6.956 -0.4017 -0.4477  0.2107
  112SOL     vw  448   6.891   6.126   6.972 -0.2139 -0.3667 -0.1411
  113SOL     ow  449   1.082   2.890   3.324  0.1523 -0.0527 -0.2167
  113SOL     hw  450   1.053   2.875   3.414  0.4429 -1.9649 -0.3953
  113SOL     hw  451   1.153   2.827   3.311 -0.7657 -0.7688 -2.1753
  113SOL     vw  452   1.088   2.880   3.334  0.0695 -0.3996 -0.4988
  114SOL     ow  453   7.076   0.326   4.573 -0.5429  0.3678  0.0658
  114SOL     hw  454   7.162   0.338   4.613 -0.1654  0.3328 -0.7232
  114SOL     hw  455   7.016   0.374   4.631  0.0867  0.8999  0.2889
  114SOL     vw  456   7.079   0.334   4.586 -0.4101  0.4334 -0.0091
  115SOL     ow  457   3.801   0.099   0.580  0.1651  0.0128 -0.0774
  115SOL     hw  458   3.764   0.109   0.667 -2.2819 -0.1827 -1.0024
  115SOL     hw  459   3.745   0.153   0.524  0.2250 -1.6328 -1.8404
  115SOL     vw  460   3.789   0.107   0.584 -0.1498 -0.2301 -0.4320
  116SOL     ow  461   6.631   3.011   3.006  0.6197  0.0243 -0.1718
  116SOL     hw  462   6.710   3.031   3.057  0.1987  0.6788  0.2402
  116SOL     hw  463   6.603   3.096   2.972 -2.1439  0.5407  2.9583
  116SOL     vw  464   6.638   3.025   3.008  0.1996  0.1787  0.2955
  117SOL     ow  465   5.103   4.973   3.284 -0.0175 -0.0601  0.1715
  117SOL     hw  466   5.095   4.900   3.346 -0.1006  1.4140  1.9785
  117SOL     hw  467   5.016   4.979   3.243 -0.1066 -0.7530  0.2403
  117SOL     vw  468   5.090   4.964   3.287 -0.0403  0.0432  0.4189
  118SOL     ow  469   1.644   2.912   2.317 -0.0252 -0.0919 -0.7359
  118SOL     hw  470   1.690   2.975   2.262  0.3248  0.5840  0.3067
  118SOL     hw  471   1.592   2.860   2.255 -0.1130  1.0323 -1.6441
  118SOL     vw  472   1.643   2.913   2.302  0.0094  0.1457 -0.7181
  119SOL     ow  473   6.533   0.722   0.625 -0.3126  0.1457 -0.2015
  119SOL     hw  474   6.475   0.751   0.554  1.8036 -0.9129 -2.5364
  119SOL     hw  475   6.551   0.800   0.676 -1.0617  1.2054 -1.5011
  119SOL     vw  476   6.528   0.736   0.622 -0.1323  0.1458 -0.6810
  120SOL     ow  477   4.736   6.403   2.256  0.2148 -0.0076  0.1113
  120SOL     hw  478   4.670   6.414   2.324 -1.4896  0.5476 -1.5379
  120SOL     hw  479   4.797   6.338   2.291 -0.7977 -0.0112  1.9835
  120SOL     vw  480   4.735   6.396   2.269 -0.1440  0.0651  0.1408
  121SOL     ow  481   3.822   3.143   4.847 -0.3172 -0.5269 -0.1328
  121SOL     hw  482   3.838   3.067   4.791  1.3518 -1.1940  1.1557
  121SOL     hw  483   3.758   3.112   4.911 -0.1459 -0.6403 -0.0152
  121SOL     vw  484   3.816   3.129   4.848 -0.0744 -0.6298  0.0525
  122SOL     ow  485   3.098   0.876   1.668  0.0549 -0.0206 -0.7945
  122SOL     hw  486   3.137   0.863   1.582 -0.0668  1.1248 -1.0426
  122SOL     hw  487   3.099   0.971   1.681 -0.4049 -0.1388  0.2438
  122SOL     vw  488   3.103   0.887   1.659 -0.0218  0.1149 -0.6902
  123SOL     ow  489   6.588   5.589   0.091  0.6710  0.6151 -0.5770
  123SOL     hw  490   6.602   5.494   0.096 -1.8246  0.1824  0.1652
  123SOL     hw  491   6.561   5.605   0.001 -2.1287 -0.0470  0.0292
  123SOL     vw  492   6.586   5.578   0.080 -0.0277  0.4704 -0.3991
  124SOL     ow  493   1.028   6.079   6.754 -0.2224 -0.3717 -0.3470
  124SOL     hw  494   1.113   6.062   6.711 -0.9778  0.4142 -2.2679
  124SOL     hw  495   1.037   6.166   6.791  0.1707 -0.7393  0.4438
  124SOL     vw  496   1.041   6.088   6.753 -0.2702 -0.3164 -0.4964
  125SOL     ow  497   1.664   6.568   5.561  0.3275  0.3421 -0.2951
  125SOL     hw  498   1.695   6.659   5.565  0.7107  0.1839  0.5953
  125SOL     hw  499   1.672   6.544   5.469  0.2459  1.2062 -0.5372
  125SOL     vw  500   1.669   6.577   5.550  0.3673  0.4356 -0.2096
  126SOL     ow  501   0.296   4.804   3.871 -0.4605  0.7375 -0.0597
  126SOL     hw  502   0.227   4.740   3.853 -0.5487  1.0523 -0.8774
  126SOL     hw  503   0.253   4.889   3.858  0.3709  0.9393 -1.7971
  126SOL     vw  504   0.281   4.807   3.867 -0.3625  0.8059 -0.3967
  127SOL     ow  505   5.425   6.399   1.524 -0.0866 -0.1154  0.3392
  127SOL     hw  506   5.350   6.345   1.549 -0.3151 -0.3966 -0.8721
  127SOL     hw  507   5.399   6.489   1.543 -0.2999 -0.3027  0.9391
  127SOL     vw  508   5.412   6.404   1.529 -0.1450 -0.1774  0.2585
  128SOL     ow  509   1.522   0.551   4.973  0.1418  0.3278 -0.0501
  128SOL     hw  510   1.542   0.460   4.951  1.2667  0.2751  1.1053
  128SOL     hw  511   1.532   0.598   4.890  0.0173 -0.5111 -0.5594
  128SOL     vw  512   1.526   0.545   4.959  0.2739  0.2102  0.0350
  129SOL     ow  513   2.953   5.251   3.264 -0.2418 -0.3985  0.2522
  129SOL     hw  514   3.041   5.215   3.268  0.5393  1.2172 -1.3938
  129SOL     hw  515   2.945   5.288   3.176 -1.7733  1.4230  1.0778
  129SOL     vw  516   2.963   5.251   3.253 -0.3408  0.0551  0.1439
  130SOL     ow  517   4.761   3.186   5.610  0.0998 -0.2842 -0.2030
  130SOL     hw  518   4.717   3.219   5.689  1.4977 -0.3873  0.6717
  130SOL     hw  519   4.704   3.210   5.538 -1.2531 -0.2240  0.8535
  130SOL     vw  520   4.748   3.193   5.611  0.1059 -0.2899  0.0517
  131SOL     ow  521   2.551   3.187   0.409  0.1596 -0.3088  0.4767
  131SOL     hw  522   2.507   3.270   0.423 -0.5994 -1.0624  3.2080
  131SOL     hw  523   2.631   3.192   0.462  0.5204 -1.0302  0.0332
  131SOL     vw  524   2.556   3.198   0.418  0.1070 -0.5033  0.7785
  132SOL     ow  525   0.793   5.590   5.938  0.5483 -0.5230 -0.2107
  132SOL     hw  526   0.861   5.633   5.887  0.7336 -0.5961 -0.0292
  132SOL     hw  527   0.827   5.589   6.028  0.6604 -1.2704 -0.2555
  132SOL     vw  528   0.806   5.596   5.943  0.5875 -0.6313 -0.1929
  133SOL     ow  529   3.892   0.963   4.183 -0.0576 -0.5625 -0.2890
  133SOL     hw  530   3.839   0.988   4.108 -1.7637 -0.3913  0.9110
  133SOL     hw  531   3.845   0.890   4.223 -1.1357  1.4637  2.5229
  133SOL     vw  532   3.879   0.956   4.179 -0.4250 -0.2726  0.2406
  134SOL     ow  533   6.416   3.576   4.117 -0.0307  0.3796 -0.3988
  134SOL     hw  534   6.405   3.644   4.183 -0.8714  0.2474 -0.3937
  134SOL     hw  535   6.327   3.550   4.095  0.2875 -0.9914 -0.1209
  134SOL     vw  536   6.403   3.582   4.123 -0.0994  0.1812 -0.3617
  135SOL     ow  537   2.410   2.482   4.332  0.2428 -0.2038  0.0484
  135SOL     hw  538   2.403   2.547   4.402 -0.6171  1.1189 -1.2059
  135SOL     hw  539   2.346   2.415   4.354 -0.6604  0.6566  0.0833
  135SOL     vw  540   2.401   2.482   4.344  0.0101  0.0843 -0.1125
  136SOL     ow  541   2.814   6.967   1.405 -0.0760  0.1541 -0.8673
  136SOL     hw  542   2.797   7.059   1.390 -1.4316  0.1744  0.5461
  136SOL     hw  543   2.753   6.942   1.474  1.5348 -1.3328  0.1270
  136SOL     vw  544   2.804   6.976   1.412 -0.0423 -0.0396 -0.5497
  137SOL     ow  545   6.393   2.651   5.892  0.3198 -0.0689 -0.3064
  137SOL     hw  546   6.402   2.710   5.817  1.8251 -2.3265 -2.0350
  137SOL     hw  547   6.356   2.706   5.961  1.6531  2.8814 -1.7597
  137SOL     vw  548   6.389   2.666   5.891  0.6943  0.0224 -0.7262
  138SOL     ow  549   1.847   3.888   2.413 -0.5888  0.1051  0.1410
  138SOL     hw  550   1.901   3.880   2.492 -0.8814  2.1908  0.6208
  138SOL     hw  551   1.910   3.903   2.343 -0.4196  0.0783  0.2863
  138SOL     vw  552   1.863   3.889   2.414 -0.6051  0.3767  0.2235
  139SOL     ow  553   3.340   2.951   4.258 -0.1184 -0.6098  0.9761
  139SOL     hw  554   3.329   2.977   4.166  1.4274 -1.8550  0.4022
  139SOL     hw  555   3.290   2.870   4.266 -1.2664  0.1196  1.6045
  139SOL     vw  556   3.332   2.944   4.246 -0.0659 -0.6779  0.9835
  140SOL     ow  557   3.558   6.199   6.825 -0.4361 -0.1292  0.2167
  140SOL     hw  558   3.541   6.259   6.752 -0.0772  1.7836  1.6359
  140SOL     hw  559   3.653   6.192   6.827 -0.5038 -1.6651 -0.6027
  140SOL     vw  560   3.568   6.206   6.815 -0.3977 -0.0796  0.2959
  141SOL     ow  561   2.274   5.318   6.415 -0.5197 -0.1070  0.0649
  141SOL     hw  562   2.207   5.344   6.352 -0.0961 -0.2440 -0.4500
  141SOL     hw  563   2.228   5.317   6.499 -1.2883 -0.6646 -0.3420
  141SOL     vw  564   2.259   5.321   6.417 -0.5652 -0.1988 -0.0570
  142SOL     ow  565   5.411   6.857   3.035  0.3373 -0.3379  0.3525
  142SOL     hw  566   5.349   6.895   2.973 -0.3534  0.7725  1.6663
  142SOL     hw  567   5.465   6.931   3.063  1.2187 -0.9933  0.4047
  142SOL     vw  568   5.410   6.872   3.031  0.3624 -0.2780  0.5327
  143SOL     ow  569   0.819   5.573   6.637  0.4178  0.6737  0.2319
  143SOL     hw  570   0.862   5.488   6.636  1.8609  1.3600  1.2695
  143SOL     hw  571   0.760   5.569   6.712 -1.7170 -0.3948 -1.3968
  143SOL     vw  572   0.817   5.561   6.647  0.3266  0.6232  0.1538
  144SOL     ow  573   2.542   6.325   3.351 -0.1765  0.2423 -0.8518
  144SOL     hw  574   2.551   6.234   3.379 -0.0674 -0.2056 -2.2788
  144SOL     hw  575   2.528   6.320   3.257  0.0391  1.7147 -0.9841
  144SOL     vw  576   2.541   6.312   3.342 -0.1338  0.3772 -1.0574
  145SOL     ow  577   5.797   2.386   5.048 -0.0845 -0.0846 -0.3607
  145SOL     hw  578   5.883   2.379   5.090  0.3941  1.8287 -0.9101
  145SOL     hw  579   5.795   2.313   4.986  2.4970  1.4760 -2.5497
  145SOL     vw  580   5.808   2.376   5.045  0.3192  0.3737 -0.7219
  146SOL     ow  581   4.037   0.759   3.155  0.2684  0.9490 -0.1762
  146SOL     hw  582   4.100   0.828   3.135  0.4649  0.5870 -0.8383
  146SOL     hw  583   3.954   0.792   3.120 -0.0379  1.6555  1.1582
  146SOL     vw  584   4.034   0.773   3.148  0.2542  0.9945 -0.0875
  147SOL     ow  585   3.647   0.499   5.163 -0.5897 -0.5986 -0.3246
  147SOL     hw  586   3.635   0.404   5.155 -1.3337 -0.5221 -0.1712
  147SOL     hw  587   3.710   0.521   5.095 -1.5397 -0.9798 -1.3491
  147SOL     vw  588   3.654   0.489   5.153 -0.8131 -0.6388 -0.4399
  148SOL     ow  589   6.306   6.251   3.107  0.3769  0.0880  0.0965
  148SOL     hw  590   6.336   6.293   3.188  1.9060 -0.2206 -0.2743
  148SOL     hw  591   6.386   6.241   3.054 -0.4724 -0.3829 -1.1452
  148SOL     vw  592   6.321   6.255   3.111  0.4668 -0.0150 -0.1162
  149SOL     ow  593   6.588   4.412   2.419  0.3516 -0.4283  0.2456
  149SOL     hw  594   6.668   4.418   2.367 -0.5428  0.1348 -1.1213
  149SOL     hw  595   6.583   4.495   2.466 -0.4240  0.4046 -1.2271
  149SOL     vw  596   6.598   4.424   2.418  0.1314 -0.2441 -0.1290
  150SOL     ow  597   6.417   0.479   3.031  0.0406 -0.1618 -0.0245
  150SOL     hw  598   6.328   0.503   3.003  0.2749 -0.8239 -1.4447
  150SOL     hw  599   6.407   0.396   3.076  0.2360 -1.9257 -2.9773
  150SOL     vw  600   6.404   0.471   3.033  0.0973 -0.4819 -0.6015
  151SOL     ow  601   1.307   3.786   1.870 -0.6229 -0.3088  0.2582
  151SOL     hw  602   1.253   3.851   1.915 -0.0352  0.7909 -0.5762
  151SOL     hw  603   1.244   3.721   1.838 -1.4370  0.8280 -0.5097
  151SOL     vw  604   1.292   3.786   1.872 -0.6528 -0.0137  0.0468
  152SOL     ow  605   6.457   4.576   2.216 -0.4960 -0.6922 -0.5398
  152SOL     hw  606   6.506   4.634   2.275 -0.2530 -1.6809  0.2612
  152SOL     hw  607   6.401   4.635   2.165 -0.6635  0.2036  0.6373
  152SOL     vw  608   6.456   4.591   2.217 -0.4857 -0.7043 -0.2788
  153SOL     ow  609   2.681   7.009   4.893 -0.2265  0.1134  0.3890
  153SOL     hw  610   2.700   7.070   4.822 -0.9254  0.2578  0.3219
  153SOL     hw  611   2.610   7.050   4.942 -2.5090 -1.7269 -1.1206
  153SOL     vw  612   2.674   7.022   4.890 -0.6199 -0.1101  0.1810
  154SOL     ow  613   6.764   1.694   2.138 -0.1422  0.1281  0.6372
  154SOL     hw  614   6.672   1.718   2.129 -0.2701 -0.0660  1.3892
  154SOL     hw  615   6.786   1.653   2.054 -0.0748  2.2708 -0.4471
  154SOL     vw  616   6.755   1.692   2.125 -0.1500  0.3852  0.5934
  155SOL     ow  617   6.361   2.789   1.098 -0.4608  0.0745 -0.1685
  155SOL     hw  618   6.341   2.832   1.181  1.0550  2.3184 -0.8819
  155SOL     hw  619   6.297   2.826   1.036 -1.1965 -1.1397 -0.1640
  155SOL     vw  620   6.350   2.800   1.100 -0.3581  0.2104 -0.2621
  156SOL     ow  621   1.100   6.668   4.796 -0.2523  0.0583  0.0554
  156SOL     hw  622   1.165   6.600   4.781  1.1026  1.3814 -0.3776
  156SOL     hw  623   1.040   6.662   4.722  1.7163  1.3556 -1.7442
  156SOL     vw  624   1.100   6.658   4.785  0.1862  0.4044 -0.2394
  157SOL     ow  625   5.794   6.652   4.938 -0.3818 -0.5586 -0.0812
  157SOL     hw  626   5.710   6.669   4.895 -0.2354  0.3467 -0.0251
  157SOL     hw  627   5.847   6.610   4.870 -0.5119 -0.1165 -0.4653
  157SOL     vw  628   5.790   6.648   4.923 -0.3798 -0.3810 -0.1247
  158SOL     ow  629   3.424   3.879   0.584 -0.3823 -0.4953  0.5912
  158SOL     hw  630   3.422   3.941   0.658  1.6646  0.1537  0.1635
  158SOL     hw  631   3.349   3.905   0.530  0.1555  1.3535  0.6603
  158SOL     vw  632   3.414   3.891   0.587 -0.0414 -0.1658  0.5439
  159SOL     ow  633   6.520   3.693   6.111 -0.2643  0.2862 -0.1504
  159SOL     hw  634   6.463   3.619   6.089 -0.0864 -0.3382  1.3175
  159SOL     hw  635   6.476   3.735   6.186  0.5907  0.5074  0.2419
  159SOL     vw  636   6.507   3.688   6.118 -0.1280  0.2329  0.0949
  160SOL     ow  637   1.832   4.030   3.053  0.0859 -0.0898 -0.1337
  160SOL     hw  638   1.846   4.120   3.025 -0.1006 -0.2189 -0.6534
  160SOL     hw  639   1.820   4.036   3.148 -2.1745  0.7298 -0.3927
  160SOL     vw  640   1.832   4.042   3.062 -0.2369  0.0012 -0.2366
  161SOL     ow  641   3.683   3.746   0.701 -0.5740  0.1787  0.2504
  161SOL     hw  642   3.746   3.681   0.733 -0.1120  0.2488 -0.4919
  161SOL     hw  643   3.643   3.782   0.780  1.3045  1.1298  0.8065
  161SOL     vw  644   3.686   3.742   0.715 -0.2652  0.3134  0.2258
  162SOL     ow  645   5.019   0.650   3.975 -0.1100 -0.1876 -0.0167
  162SOL     hw  646   4.964   0.630   3.899  0.3561 -0.4438 -0.2878
  162SOL     hw  647   4.980   0.599   4.046 -1.4056  1.1324  0.2689
  162SOL     vw  648   5.006   0.641   3.974 -0.2193 -0.0472 -0.0148
  163SOL     ow  649   5.008   1.324   2.575  0.0257 -0.5106 -0.0992
  163SOL     hw  650   5.087   1.281   2.608  0.0033 -0.0786  0.5482
  163SOL     hw  651   5.039   1.386   2.509  0.0548 -1.5347 -1.0728
  163SOL     vw  652   5.023   1.326   2.571  0.0267 -0.5887 -0.1422
  164SOL     ow  653   6.072   6.969   0.080  0.0874 -0.2548  0.5059
  164SOL     hw  654   6.131   6.928   0.017 -1.4419 -4.0084  1.2526
  164SOL     hw  655   6.002   7.007   0.026  0.7451  0.0125 -0.1728
  164SOL     vw  656   6.070   6.969   0.064 -0.0274 -0.7150  0.5149
  165SOL     ow  657   1.236   4.896   6.157 -0.1447  0.0368  0.2700
  165SOL     hw  658   1.289   4.823   6.189  2.8975  2.0536  0.2496
  165SOL     hw  659   1.212   4.871   6.067  0.2487 -1.1805  0.4876
  165SOL     vw  660   1.240   4.883   6.149  0.3086  0.1421  0.2956
  166SOL     ow  661   0.296   3.004   2.170 -0.5698 -0.0271  0.3255
  166SOL     hw  662   0.208   3.036   2.185 -1.2058 -1.3804 -0.3465
  166SOL     hw  663   0.286   2.909   2.160  0.7864 -0.0689 -0.9918
  166SOL     vw  664   0.283   2.995   2.171 -0.4748 -0.2111  0.0628
  167SOL     ow  665   2.045   6.260   0.675 -0.3342  0.9218 -0.1902
  167SOL     hw  666   2.127   6.293   0.639 -0.1012 -0.0587 -0.6185
  167SOL     hw  667   1.997   6.338   0.703  0.6434  1.5208 -0.1456
  167SOL     vw  668   2.049   6.274   0.674 -0.1744  0.8714 -0.2408
  168SOL     ow  669   4.237   6.751   3.589 -0.5746 -0.3943  0.3995
  168SOL     hw  670   4.313   6.807   3.604 -0.6408 -0.5549  1.3925
  168SOL     hw  671   4.168   6.811   3.563 -0.9111  0.1570  2.3674
  168SOL     vw  672   4.238   6.766   3.588 -0.6278 -0.3428  0.7901
  169SOL     ow  673   0.247   5.987   3.393 -0.3685  0.3186 -1.1051
  169SOL     hw  674   0.245   5.906   3.443  0.6032  0.4780 -0.7754
  169SOL     hw  675   0.179   5.977   3.327 -3.0231  0.8818  1.3868
  169SOL     vw  676   0.238   5.975   3.391 -0.5905  0.4141 -0.7329
  170SOL     ow  677   0.029   2.861   6.603 -0.3799  0.2323  0.5699
  170SOL     hw  678   0.080   2.793   6.646 -0.0172  0.9867  1.3569
  170SOL     hw  679   0.092   2.931   6.586 -0.4430 -0.1363 -1.4439
  170SOL     vw  680   0.044   2.861   6.606 -0.3404  0.2832  0.4079
  171SOL     ow  681   3.235   4.370   6.511 -0.3753 -0.1621 -0.1421
  171SOL     hw  682   3.176   4.353   6.584 -1.1197 -0.5801 -0.8235
  171SOL     hw  683   3.272   4.284   6.489  1.4528  0.2618  1.0494
  171SOL     vw  684   3.232   4.356   6.517 -0.2325 -0.1619 -0.0749
  172SOL     ow  685   2.108   4.591   2.142 -0.3012  0.0294  0.0641
  172SOL     hw  686   2.057   4.620   2.066 -0.5613 -1.4815 -0.3647
  172SOL     hw  687   2.197   4.579   2.108 -0.6501 -1.7458 -0.3226
  172SOL     vw  688   2.113   4.593   2.128 -0.3816 -0.4041 -0.0436
  173SOL     ow  689   0.132   4.843   0.383  0.8173 -0.0541 -0.0960
  173SOL     hw  690   0.222   4.811   0.390  0.5296 -0.9255 -0.3021
  173SOL     hw  691   0.079   4.765   0.371 -0.1101  0.3303  1.2306
  173SOL     vw  692   0.137   4.829   0.382  0.6570 -0.1185  0.0518
  174SOL     ow  693   1.063   1.476   6.351  0.0965 -0.4441  0.1801
  174SOL     hw  694   1.055   1.426   6.432  0.0090 -0.6498  0.0430
  174SOL     hw  695   1.047   1.567   6.378 -1.7473 -0.6970  0.0955
  174SOL     vw  696   1.060   1.482   6.365 -0.1583 -0.5047  0.1509
  175SOL     ow  697   3.935   4.261   5.171 -0.1462 -0.7085 -0.0936
  175SOL     hw  698   3.996   4.217   5.112 -1.8429 -1.3796 -1.4069
  175SOL     hw  699   3.922   4.199   5.243 -0.7055 -1.3731 -0.7555
  175SOL     vw  700   3.941   4.247   5.173 -0.4438 -0.8850 -0.3541
  176SOL     ow  701   0.591   6.637   3.031  0.0023  0.0075  0.8303
  176SOL     hw  702   0.653   6.600   3.094  0.5653  0.4786  0.5605
  176SOL     hw  703   0.625   6.609   2.946 -1.1722 -1.2683  0.7517
  176SOL     vw  704   0.604   6.628   3.028 -0.0784 -0.0987  0.7844
  177SOL     ow  705   0.798   5.036   5.492  0.5778  0.0043  0.1865
  177SOL     hw  706   0.767   5.044   5.582  0.3246  0.8940  0.0301
  177SOL     hw  707   0.735   4.977   5.450 -0.6203  1.3132  0.0305
  177SOL     vw  708   0.785   5.029   5.498  0.3863  0.2942  0.1454
  178SOL     ow  709   1.879   0.299   6.496 -0.1049 -0.1593 -0.3562
  178SOL     hw  710   1.821   0.375   6.490 -0.2193 -0.1713  0.5465
  178SOL     hw  711   1.954   0.322   6.441 -0.4716  0.2992 -0.6740
  178SOL     vw  712   1.881   0.312   6.488 -0.1683 -0.1004 -0.2792
  179SOL     ow  713   1.397   1.610   5.036 -0.0784  0.3569 -0.3217
  179SOL     hw  714   1.324   1.623   4.977  0.0625  0.8174 -0.4022
  179SOL     hw  715   1.368   1.543   5.097  0.1567 -0.8891 -1.5411
  179SOL     vw  716   1.384   1.603   5.037 -0.0288  0.2533 -0.4935
  180SOL     ow  717   5.132   4.800   0.496 -0.8433  0.0689  0.6610
  180SOL     hw  718   5.144   4.711   0.463  0.1840  0.4965 -0.1743
  180SOL     hw  719   5.073   4.790   0.571 -0.3410 -1.3809  0.9003
  180SOL     vw  720   5.126   4.787   0.502 -0.6418 -0.0658  0.5824
  181SOL     ow  721   6.146   5.399   6.721 -0.0832  0.0418 -0.0564
  181SOL     hw  722   6.069   5.447   6.692  1.1124  0.3926 -2.9323
  181SOL     hw  723   6.219   5.459   6.704  1.0713 -1.2622  0.1469
  181SOL     vw  724   6.146   5.413   6.715  0.2270 -0.0839 -0.4094
  182SOL     ow  725   1.605   0.885   3.880  0.0448  0.0840  0.1038
  182SOL     hw  726   1.563   0.859   3.798  0.8356  0.8562 -0.5684
  182SOL     hw  727   1.567   0.971   3.900  0.8243  0.4928 -0.1639
  182SOL     vw  728   1.594   0.893   3.872  0.2520  0.2398 -0.0203
  183SOL     ow  729   4.320   5.331   6.324  0.2126 -0.4292 -0.4514
  183SOL     hw  730   4.319   5.402   6.389 -0.9490 -0.5736 -0.2853
  183SOL     hw  731   4.284   5.370   6.245 -0.2373 -0.7611 -0.4198
  183SOL     vw  732   4.315   5.346   6.322  0.0000 -0.4919 -0.4256
  184SOL     ow  733   4.050   3.753   5.678  0.0465 -0.0062 -0.2613
  184SOL     hw  734   3.976   3.693   5.674 -0.9888  1.2625 -0.6304
  184SOL     hw  735   4.013   3.836   5.707  1.0584  1.0332 -1.7652
  184SOL     vw  736   4.036   3.756   5.681  0.0434  0.2983 -0.5088
  185SOL     ow  737   1.911   6.571   4.759  0.0053 -0.7126  0.1473
  185SOL     hw  738   1.821   6.566   4.792  0.0900  0.1003  0.5364
  185SOL     hw  739   1.965   6.531   4.827 -0.0616 -1.1901 -0.0810
  185SOL     vw  740   1.906   6.565   4.772  0.0077 -0.6680  0.1688
  186SOL     ow  741   5.326   1.545   3.297 -0.4457 -0.2345  0.4481
  186SOL     hw  742   5.406   1.592   3.322 -1.1069  1.5037 -0.5390
  186SOL     hw  743   5.322   1.471   3.358  3.1217 -1.7580 -0.8838
  186SOL     vw  744   5.336   1.541   3.309 -0.0622 -0.2062  0.1421
  187SOL     ow  745   1.910   0.517   1.659 -0.2467  0.0013  0.2550
  187SOL     hw  746   1.908   0.424   1.678 -2.8192  0.0434  0.6310
  187SOL     hw  747   1.925   0.559   1.744 -3.1407 -0.0567  0.9223
  187SOL     vw  748   1.911   0.510   1.672 -0.9680 -0.0008  0.3927
  188SOL     ow  749   4.520   1.256   4.480 -0.4267  0.2043 -0.0976
  188SOL     hw  750   4.444   1.219   4.526 -0.2235 -0.1175 -0.0193
  188SOL     hw  751   4.508   1.231   4.389  0.0851 -0.6977  0.0686
  188SOL     vw  752   4.508   1.248   4.474 -0.3324  0.0427 -0.0653
  189SOL     ow  753   6.879   0.113   4.998  0.1056 -0.4259  0.1206
  189SOL     hw  754   6.792   0.075   5.007 -0.5128  0.3836 -1.8596
  189SOL     hw  755   6.875   0.196   5.046  0.0748 -0.8002  0.7697
  189SOL     vw  756   6.867   0.119   5.006  0.0198 -0.3685 -0.0548
  190SOL     ow  757   5.285   4.355   6.268 -0.0865  0.1755 -0.1844
  190SOL     hw  758   5.302   4.435   6.317  0.7260 -0.4234  0.5564
  190SOL     hw  759   5.195   4.363   6.237  0.2870  1.7825 -0.9364
  190SOL     vw  760   5.275   4.366   6.270  0.0699  0.3085 -0.1860
  191SOL     ow  761   0.502   3.607   1.523  0.2404 -0.2422  0.2300
  191SOL     hw  762   0.582   3.658   1.535  1.0750 -1.4874  0.1234
  191SOL     hw  763   0.432   3.665   1.554  1.2626  0.5304  1.1891
  191SOL     vw  764   0.503   3.621   1.529  0.4854 -0.3046  0.3424
  192SOL     ow  765   4.808   1.633   4.328 -0.0985  0.8211 -0.3904
  192SOL     hw  766   4.894   1.663   4.355 -0.6780  2.5357 -0.3315
  192SOL     hw  767   4.811   1.633   4.232  0.2686 -0.1123 -0.3901
  192SOL     vw  768   4.819   1.637   4.319 -0.1266  0.9241 -0.3827
  193SOL     ow  769   4.086   0.260   6.453  0.2167 -0.6851 -0.0448
  193SOL     hw  770   4.114   0.284   6.541  2.0141  0.1115 -0.7916
  193SOL     hw  771   4.048   0.339   6.417 -1.3985 -1.2667  0.3106
  193SOL     vw  772   4.085   0.273   6.460  0.2406 -0.6567 -0.0963
  194SOL     ow  773   4.225   4.144   0.014  0.5178 -0.6979  0.1489
  194SOL     hw  774   4.248   4.212  -0.050  1.2591 -0.7849  0.3074
  194SOL     hw  775   4.180   4.077  -0.036  1.3402 -0.8936 -0.3434
  194SOL     vw  776   4.222   4.144  -0.001  0.7241 -0.7350  0.1049
  195SOL     ow  777   5.005   0.975   4.860  0.4154 -0.2452 -0.2251
  195SOL     hw  778   5.048   0.907   4.911  1.6123  0.6484 -0.0001
  195SOL     hw  779   5.045   0.969   4.773  0.1133 -0.1953 -0.3708
  195SOL     vw  780   5.016   0.965   4.855  0.5331 -0.1207 -0.2146
  196SOL     ow  781   4.367   0.550   2.809 -0.3105  0.0865 -0.4416
  196SOL     hw  782   4.277   0.517   2.820 -0.4450  0.6756  0.2921
  196SOL     hw  783   4.356   0.644   2.794  0.2161  0.2615  0.2380
  196SOL     vw  784   4.353   0.558   2.808 -0.2587  0.1873 -0.2550
  197SOL     ow  785   1.591   4.134   0.876  0.1957 -0.2484 -0.1150
  197SOL     hw  786   1.501   4.163   0.890  0.4979  0.6121  0.1043
  197SOL     hw  787   1.625   4.116   0.964  0.4208  0.0011 -0.1488
  197SOL     vw  788   1.584   4.136   0.889  0.2653 -0.1018 -0.0905
  198SOL     ow  789   1.505   3.734   1.282  0.0080 -0.0726 -0.1705
  198SOL     hw  790   1.567   3.803   1.307  0.0261  0.4355 -1.5548
  198SOL     hw  791   1.528   3.660   1.339  0.5774  0.7595  0.7076
  198SOL     vw  792   1.517   3.733   1.293  0.0856  0.1042 -0.2373
  199SOL     ow  793   5.708   0.218   0.017  0.1056  0.0312  0.5224
  199SOL     hw  794   5.627   0.188   0.058 -0.7906  2.4409  0.6257
  199SOL     hw  795   5.689   0.217  -0.077  0.2000 -0.0568  0.5040
  199SOL     vw  796   5.695   0.214   0.010 -0.0002  0.3375  0.5336
  200SOL     ow  797   3.914   7.023   0.025 -0.4643  0.0045 -0.3126
  200SOL     hw  798   3.894   6.973  -0.054 -1.2137  1.7639 -1.2867
  200SOL     hw  799   3.899   7.114   0.001 -0.2313  0.6399  1.7197
  200SOL     vw  800   3.909   7.029   0.012 -0.5325  0.3204 -0.1730
  201SOL     ow  801   4.709   3.638   2.922  0.3319  0.6688  0.1648
  201SOL     hw  802   4.780   3.632   2.859  0.2519 -0.5650  0.1630
  201SOL     hw  803   4.747   3.684   2.997  0.1885  2.9037 -1.0624
  201SOL     vw  804   4.723   3.643   2.924  0.3023  0.8008  0.0025
  202SOL     ow  805   4.131   2.797   0.794  0.3329 -0.3098 -0.1249
  202SOL     hw  806   4.077   2.809   0.872  1.0382 -1.1840  0.5098
  202SOL     hw  807   4.216   2.770   0.827  0.8989  0.1352 -1.1670
  202SOL     vw  808   4.135   2.795   0.809  0.5007 -0.3663 -0.1786
  203SOL     ow  809   1.682   2.256   3.541 -0.2898 -0.2225 -0.3049
  203SOL     hw  810   1.603   2.205   3.560 -1.2930  1.8968  1.6552
  203SOL     hw  811   1.750   2.218   3.596 -0.7144 -0.2179  0.2226
  203SOL     vw  812   1.681   2.245   3.550 -0.4782  0.0579  0.0234
  204SOL     ow  813   5.343   0.892   2.183 -0.5533 -1.0096  0.1677
  204SOL     hw  814   5.330   0.987   2.186  0.2444 -0.9134  1.2368
  204SOL     hw  815   5.349   0.866   2.275 -1.6143 -2.2366 -0.0793
  204SOL     vw  816   5.342   0.901   2.196 -0.5884 -1.1588  0.2761
  205SOL     ow  817   1.572   4.573   1.753  0.1443  0.7538  0.1767
  205SOL     hw  818   1.582   4.527   1.837 -0.0288 -0.5861 -0.4991
  205SOL     hw  819   1.645   4.634   1.750  2.2173 -1.5588 -0.1492
  205SOL     vw  820   1.583   4.575   1.764  0.3951  0.2723  0.0445
  206SOL     ow  821   6.037   4.715   3.481  0.1488 -0.4902  0.1744
  206SOL     hw  822   6.065   4.716   3.390  0.8520 -1.4708  0.3620
  206SOL     hw  823   6.118   4.703   3.531  0.2504  3.2094  1.1632
  206SOL     vw  824   6.051   4.713   3.476  0.2551 -0.1318  0.3296
  207SOL     ow  825   4.510   3.935   5.276  0.0543  0.1678  0.5130
  207SOL     hw  826   4.597   3.939   5.236 -0.0495 -0.2131  0.2377
  207SOL     hw  827   4.523   3.963   5.366  0.1047  2.2107 -0.0813
  207SOL     vw  828   4.523   3.939   5.282  0.0472  0.3871  0.3982
  208SOL     ow  829   6.704   0.797   3.194  0.1168 -0.2717 -0.3785
  208SOL     hw  830   6.711   0.784   3.099 -0.7765  1.8982 -0.7758
  208SOL     hw  831   6.750   0.879   3.211 -1.2618  0.2982  0.8005
  208SOL     vw  832   6.711   0.806   3.184 -0.1833  0.0898 -0.2754
  209SOL     ow  833   5.485   3.096   0.717 -0.3759 -0.0010  0.3551
  209SOL     hw  834   5.465   3.003   0.718 -1.5825  0.2133 -0.8683
  209SOL     hw  835   5.435   3.133   0.790  0.5311 -0.3667  1.1819
  209SOL     vw  836   5.476   3.089   0.727 -0.4156 -0.0210  0.3028
  210SOL     ow  837   0.953   5.963   0.146  0.1303  0.7143  0.6678
  210SOL     hw  838   0.994   5.941   0.062  0.0076 -0.6440  0.9315
  210SOL     hw  839   1.020   5.946   0.211 -0.8598 -1.9372  1.1398
  210SOL     vw  840   0.967   5.958   0.143 -0.0166  0.1853  0.7649
  211SOL     ow  841   0.488   0.120   0.321  0.2040  0.3021  0.5094
  211SOL     hw  842   0.517   0.147   0.234  0.8034 -1.6360  0.0433
  211SOL     hw  843   0.392   0.126   0.317  0.2635  1.0394  0.0190
  211SOL     vw  844   0.479   0.124   0.309  0.2909  0.1437  0.3832
  212SOL     ow  845   5.971   1.061   4.193  0.5617  0.0745 -0.3179
  212SOL     hw  846   5.977   1.127   4.125  0.3679  0.1361 -0.2767
  212SOL     hw  847   6.001   1.105   4.273 -1.2985  0.6855  0.0938
  212SOL     vw  848   5.976   1.075   4.195  0.2906  0.1632 -0.2582
  213SOL     ow  849   2.886   2.813   2.956 -0.4770  0.2346  0.0411
  213SOL     hw  850   2.824   2.770   3.015 -0.2558  0.6368  0.5762
  213SOL     hw  851   2.885   2.758   2.877 -1.5690  0.2753  0.0002
  213SOL     vw  852   2.877   2.800   2.953 -0.5919  0.2931  0.1062
  214SOL     ow  853   2.454   6.840   2.043  0.5175 -0.0663  0.2126
  214SOL     hw  854   2.432   6.777   1.974  0.8982  0.1465 -0.1153
  214SOL     hw  855   2.548   6.830   2.055  0.1075 -1.9188  2.5508
  214SOL     vw  856   2.464   6.831   2.035  0.5136 -0.2825  0.4779
  215SOL     ow  857   0.790   5.373   5.761 -0.6323  0.1504  0.0469
  215SOL     hw  858   0.707   5.332   5.787 -2.0817  2.1472 -1.2002
  215SOL     hw  859   0.804   5.441   5.827 -0.0792 -0.0479  0.1358
  215SOL     vw  860   0.781   5.377   5.773 -0.7505  0.3879 -0.1059
  216SOL     ow  861   6.281   2.378   0.059  0.0036 -0.3830 -0.3580
  216SOL     hw  862   6.364   2.357   0.016  1.0036  0.3785  1.1400
  216SOL     hw  863   6.286   2.333   0.144 -0.1586  1.3975  0.6365
  216SOL     vw  864   6.293   2.369   0.064  0.1140 -0.0476 -0.0291
  217SOL     ow  865   6.197   4.742   0.794  0.1138  0.4810 -0.4875
  217SOL     hw  866   6.106   4.742   0.822  0.7650 -0.2679  1.8252
  217SOL     hw  867   6.194   4.711   0.703 -1.8477 -0.3629 -0.1801
  217SOL     vw  868   6.185   4.738   0.786 -0.0591  0.2711 -0.1418
  218SOL     ow  869   2.627   0.538   0.498 -0.2629 -0.3281  0.1124
  218SOL     hw  870   2.596   0.585   0.420 -0.3235  2.0396  1.4552
  218SOL     hw  871   2.547   0.507   0.540 -0.6030  1.7303  1.1406
  218SOL     vw  872   2.612   0.540   0.493 -0.3159  0.2559  0.4252
  219SOL     ow  873   5.877   6.161   1.826  0.4642  0.6463  0.8539
  219SOL     hw  874   5.952   6.104   1.810 -0.8296 -1.2802  1.3564
  219SOL     hw  875   5.915   6.249   1.829  2.5985 -0.1840  0.4842
  219SOL     vw  876   5.892   6.165   1.824  0.5751  0.2828  0.8715
  220SOL     ow  877   2.319   0.823   4.700 -0.2939  0.5146  0.1628
  220SOL     hw  878   2.361   0.909   4.706  1.6344 -0.2502 -1.1866
  220SOL     hw  879   2.378   0.764   4.748 -0.1036 -0.4816 -1.2197
  220SOL     vw  880   2.333   0.826   4.707 -0.0143  0.2823 -0.1976
  221SOL     ow  881   3.909   4.522   5.107 -0.1595  0.1357 -0.0309
  221SOL     hw  882   3.923   4.427   5.117 -0.8941  0.0264  0.0310
  221SOL     hw  883   3.864   4.530   5.023 -1.2604  0.3015  0.5577
  221SOL     vw  884   3.905   4.510   5.098 -0.4016  0.1433  0.0548
  222SOL     ow  885   1.619   3.804   0.849 -0.4169 -0.5340  0.1176
  222SOL     hw  886   1.687   3.740   0.870 -1.7582 -1.4507  1.9207
  222SOL     hw  887   1.542   3.752   0.827 -1.0466  0.4716 -0.1516
  222SOL     vw  888   1.618   3.789   0.849 -0.6770 -0.5223  0.3200
  223SOL     ow  889   3.236   6.154   6.802 -0.2043 -0.7465  0.1294
  223SOL     hw  890   3.172   6.089   6.831  0.0793 -0.0435  2.5613
  223SOL     hw  891   3.271   6.118   6.720 -2.2681 -2.0809 -0.2408
  223SOL     vw  892   3.232   6.140   6.795 -0.4393 -0.8297  0.4013
  224SOL     ow  893   2.570   1.056   5.394 -0.1548  0.0791  0.1472
  224SOL     hw  894   2.625   1.023   5.466  0.2848 -1.7599 -0.9483
  224SOL     hw  895   2.510   0.984   5.376  1.0278 -0.3589 -2.5806
  224SOL     vw  896   2.569   1.042   5.401  0.0594 -0.2214 -0.3572
  225SOL     ow  897   5.343   3.671   1.857 -0.4974  0.2678 -0.4622
  225SOL     hw  898   5.350   3.583   1.894  0.2454  0.1918 -0.7800
  225SOL     hw  899   5.287   3.719   1.920 -2.3171 -0.8790 -1.1291
  225SOL     vw  900   5.336   3.666   1.871 -0.6397  0.1066 -0.5922
  226SOL     ow  901   1.352   1.430   1.805  0.3707 -0.4860 -0.2127
  226SOL     hw  902   1.410   1.501   1.833  2.4863 -1.9698 -0.5804
  226SOL     hw  903   1.325   1.388   1.887  2.4993 -1.7572 -0.1103
  226SOL     vw  904   1.356   1.434   1.820  0.9307 -0.8495 -0.2477
  227SOL     ow  905   2.072   5.629   1.351 -0.3476  0.1516 -0.6937
  227SOL     hw  906   2.124   5.588   1.282  0.2229 -0.6511  0.1922
  227SOL     hw  907   2.022   5.698   1.306 -0.1321 -0.4774 -1.9264
  227SOL     vw  908   2.072   5.633   1.336 -0.2440 -0.0374 -0.7395
  228SOL     ow  909   4.873   2.878   2.993  0.0753 -0.1353  0.4377
  228SOL     hw  910   4.779   2.896   2.997  0.1262  0.1218  0.5179
  228SOL     hw  911   4.901   2.915   2.909  0.0526 -0.4744  0.2769
  228SOL     vw  912   4.864   2.885   2.982  0.0789 -0.1460  0.4270
  229SOL     ow  913   3.233   6.934   5.315  0.0096  0.1518 -0.7732
  229SOL     hw  914   3.175   6.881   5.371 -0.6095  2.1907  0.6294
  229SOL     hw  915   3.249   6.878   5.238 -1.4799 -1.6129  0.1054
  229SOL     vw  916   3.227   6.920   5.312 -0.2685  0.1881 -0.4723
  230SOL     ow  917   6.213   4.465   4.084  0.8869  0.2317  0.2310
  230SOL     hw  918   6.164   4.537   4.124  0.1413 -0.1623  0.0314
  230SOL     hw  919   6.304   4.495   4.087  0.4104  2.1371 -1.7806
  230SOL     vw  920   6.219   4.479   4.090  0.7257  0.4311 -0.0608
  231SOL     ow  921   2.234   0.724   2.971  0.0778  0.1513 -0.2427
  231SOL     hw  922   2.209   0.660   3.037 -0.2273  0.6385  0.1267
  231SOL     hw  923   2.157   0.731   2.914 -0.0970  0.5834  0.0393
  231SOL     vw  924   2.221   0.717   2.972  0.0144  0.2727 -0.1568
  232SOL     ow  925   3.267   4.062   6.254 -0.3588 -0.6111  0.0530
  232SOL     hw  926   3.316   4.083   6.334 -0.8115 -2.3218  0.8243
  232SOL     hw  927   3.188   4.016   6.285 -0.9840 -0.5292 -1.3305
  232SOL     vw  928   3.263   4.059   6.269 -0.5009 -0.8256 -0.0279
  233SOL     ow  929   5.810   3.200   4.799  0.0594 -0.0491  0.3118
  233SOL     hw  930   5.874   3.129   4.792  0.3881  0.0750  1.8251
  233SOL     hw  931   5.768   3.187   4.884  0.4699  1.8401  0.8512
  233SOL     vw  932   5.812   3.189   4.809  0.1569  0.2165  0.5829
  234SOL     ow  933   6.239   5.135   2.555  0.0835  0.6217 -0.0372
  234SOL     hw  934   6.327   5.165   2.577  0.4824  0.1552 -0.9379
  234SOL     hw  935   6.209   5.197   2.489  0.1503  0.1879 -0.4827
  234SOL     vw  936   6.247   5.147   2.549  0.1447  0.5028 -0.2148
  235SOL     ow  937   0.299   5.104   5.467 -0.0729  0.1762 -0.0093
  235SOL     hw  938   0.381   5.109   5.418  0.6083 -1.1380  0.9275
  235SOL     hw  939   0.279   5.195   5.489  0.7458  0.5829 -0.8548
  235SOL     vw  940   0.307   5.117   5.463  0.1250  0.0565  0.0029
  236SOL     ow  941   7.057   3.025   6.360  0.0833 -0.5288  0.2608
  236SOL     hw  942   7.056   2.995   6.269  2.2631  2.0365 -0.7330
  236SOL     hw  943   7.009   3.108   6.358 -0.6358 -0.8887  1.6803
  236SOL     vw  944   7.050   3.032   6.347  0.2761 -0.2378  0.3166
  237SOL     ow  945   1.528   4.037   6.245  0.1327 -0.0523  0.2433
  237SOL     hw  946   1.449   4.045   6.299 -0.9371 -2.2083 -0.8560
  237SOL     hw  947   1.513   4.099   6.173 -0.5840 -0.4277  0.0541
  237SOL     vw  948   1.515   4.046   6.242 -0.1030 -0.3862  0.0732
  238SOL     ow  949   3.295   0.832   5.203 -0.1882  0.0700  0.0027
  238SOL     hw  950   3.267   0.894   5.270  1.2222  0.5685  0.1517
  238SOL     hw  951   3.290   0.881   5.121  0.5431  0.2673  0.0712
  238SOL     vw  952   3.291   0.846   5.201  0.0944  0.1618  0.0315
  239SOL     ow  953   5.168   3.765   1.509 -0.5435 -0.2689  0.5181
  239SOL     hw  954   5.251   3.730   1.477 -0.2994  1.4790 -0.9163
  239SOL     hw  955   5.101   3.710   1.469 -0.1186 -0.4038 -0.0114
  239SOL     vw  956   5.170   3.753   1.500 -0.4554 -0.0563  0.2590
  240SOL     ow  957   3.121   2.560   4.828 -0.0597  0.5471  0.2268
  240SOL     hw  958   3.029   2.567   4.853  0.2890  0.8567  1.4655
  240SOL     hw  959   3.137   2.639   4.776 -0.4205  0.6187  0.2193
  240SOL     vw  960   3.111   2.571   4.824 -0.0612  0.5975  0.3893
  241SOL     ow  961   0.240   2.793   6.814  0.6909 -0.3703  0.0802
  241SOL     hw  962   0.311   2.732   6.829  0.3287 -0.3651  2.0859
  241SOL     hw  963   0.280   2.866   6.765  1.8134 -0.8046  0.3416
  241SOL     vw  964   0.254   2.795   6.809  0.7912 -0.4268  0.3793
  242SOL     ow  965   2.765   6.702   5.128 -0.0976  0.5313 -0.3023
  242SOL     hw  966   2.783   6.664   5.214  0.5638 -0.1082 -0.7217
  242SOL     hw  967   2.830   6.773   5.119  0.9948 -0.5193 -0.9898
  242SOL     vw  968   2.776   6.707   5.138  0.1338  0.3083 -0.4482
  243SOL     ow  969   5.709   1.130   0.476 -0.2131  0.7635  0.2080
  243SOL     hw  970   5.662   1.211   0.500 -0.8665 -0.0550  1.8496
  243SOL     hw  971   5.795   1.140   0.515  0.2187  1.2608 -0.8272
  243SOL     vw  972   5.714   1.142   0.484 -0.2422  0.7211  0.2880
  244SOL     ow  973   6.843   6.255   5.996  0.3036  0.1925  0.6039
  244SOL     hw  974   6.849   6.231   5.903 -1.6917  1.6160  0.0435
  244SOL     hw  975   6.919   6.213   6.036  0.3077 -1.8588 -1.3542
  244SOL     vw  976   6.854   6.247   5.989  0.0410  0.1097  0.2713
  245SOL     ow  977   3.749   4.685   3.262 -0.3036 -0.3663 -0.1029
  245SOL     hw  978   3.791   4.758   3.306 -0.9265  0.0995 -0.2557
  245SOL     hw  979   3.704   4.637   3.332 -2.1450  0.9551 -0.3141
  245SOL     vw  980   3.748   4.688   3.277 -0.6288 -0.1304 -0.1510
  246SOL     ow  981   4.817   6.041   2.995  0.0244  0.2503 -0.8465
  246SOL     hw  982   4.797   6.126   3.035 -0.6226  0.4566 -1.5805
  246SOL     hw  983   4.912   6.042   2.985 -0.1184  1.8268 -2.7784
  246SOL     vw  984   4.827   6.053   2.999 -0.0796  0.4852 -1.1982
  247SOL     ow  985   5.305   5.039   1.795  0.8682  1.0095  0.1596
  247SOL     hw  986   5.277   5.057   1.885 -0.2075 -1.2675  0.3630
  247SOL     hw  987   5.376   4.975   1.804 -0.0204 -0.1443 -0.5751
  247SOL     vw  988   5.311   5.033   1.808  0.6089  0.5567  0.0895
  248SOL     ow  989   0.508   4.737   4.601 -0.1401 -0.6880  0.2047
  248SOL     hw  990   0.441   4.672   4.581 -0.5514 -0.0339 -0.6504
  248SOL     hw  991   0.591   4.695   4.576 -0.4379 -0.7478 -0.7389
  248SOL     vw  992   0.510   4.723   4.595 -0.2337 -0.6094 -0.0327
  249SOL     ow  993   5.097   2.171   2.957 -0.5351  0.1139  0.0343
  249SOL     hw  994   5.113   2.168   3.051 -3.0984  0.7100  0.5591
  249SOL     hw  995   5.037   2.099   2.939  0.4570 -0.4388 -1.3186
  249SOL     vw  996   5.092   2.161   2.967 -0.7427  0.1197 -0.0749
  250SOL     ow  997   4.322   0.046   6.520 -0.7830 -0.4025  0.0636
  250SOL     hw  998   4.405   0.088   6.497 -0.8404 -0.1424  0.3225
  250SOL     hw  999   4.338   0.007   6.606 -0.4482 -1.7061 -0.5564
  250SOL     vw 1000   4.335   0.046   6.529 -0.7467 -0.5402  0.0162
  251SOL     ow 1001   0.436   3.432   2.278  0.0593 -0.0281 -0.2718
  251SOL     hw 1002   0.449   3.526   2.288  3.8999 -0.4736  0.5740
  251SOL     hw 1003   0.384   3.423   2.197  0.5554  2.7546 -0.9968
  251SOL     vw 1004   0.431   3.443   2.269  0.6314  0.2801 -0.2558
  252SOL     ow 1005   0.050   4.448   4.555  0.0923  0.2964  0.9362
  252SOL     hw 1006   0.130   4.497   4.576 -0.0774  0.8606  0.3041
  252SOL     hw 1007   0.048   4.377   4.619 -1.0144  2.5541  3.6040
  252SOL     vw 1008   0.060   4.445   4.566 -0.0761  0.6688  1.2050
  253SOL     ow 1009   4.032   6.353   3.624 -0.0137 -0.0552  0.1752
  253SOL     hw 1010   4.007   6.263   3.604  1.0060 -0.6944  1.6324
  253SOL     hw 1011   4.117   6.346   3.667 -0.6261  1.4608  1.7466
  253SOL     vw 1012   4.040   6.341   3.627  0.0398  0.0603  0.5749
  254SOL     ow 1013   2.206   5.951   5.734  0.6462  0.3405  0.3459
  254SOL     hw 1014   2.180   6.000   5.813 -0.2437  0.2517  0.1131
  254SOL     hw 1015   2.201   6.016   5.664 -0.6328 -0.0767  0.0185
  254SOL     vw 1016   2.202   5.966   5.735  0.3600  0.2737  0.2720
  255SOL     ow 1017   2.362   2.836   6.335 -0.3590  0.1288  0.2252
  255SOL     hw 1018   2.317   2.797   6.410  0.4872  0.6377  1.0190
  255SOL     hw 1019   2.451   2.799   6.339 -0.3196  0.1218 -0.5612
  255SOL     vw 1020   2.368   2.826   6.345 -0.2421  0.1950  0.2260
  256SOL     ow 1021   3.931   2.028   6.292  0.3369 -0.0652  0.2854
  256SOL     hw 1022   4.014   2.075   6.286  0.3030 -0.0417 -0.0474
  256SOL     hw 1023   3.954   1.937   6.273  0.2366 -0.0050 -0.1267
  256SOL     vw 1024   3.945   2.022   6.289  0.3192 -0.0540  0.1874
  257SOL     ow 1025   0.072   0.444   3.790 -0.2450  0.2216  0.3396
  257SOL     hw 1026   0.040   0.391   3.718  0.8898  2.3616 -1.8897
  257SOL     hw 1027   0.013   0.519   3.793  0.9564  1.2066  0.1872
  257SOL     vw 1028   0.060   0.447   3.781  0.0632  0.6339  0.0253
  258SOL     ow 1029   0.933   3.434   3.975 -0.3181  0.3144  0.1747
  258SOL     hw 1030   1.015   3.391   4.000  0.1201  1.6025  1.0963
  258SOL     hw 1031   0.904   3.388   3.897 -0.0927 -1.8908  1.3131
  258SOL     vw 1032   0.940   3.423   3.968 -0.2306  0.1934  0.4464
  259SOL     ow 1033   4.044   5.357   3.252  0.0173  0.0007  0.5693
  259SOL     hw 1034   4.110   5.413   3.293  0.8736 -1.1714  0.8572
  259SOL     hw 1035   3.968   5.365   3.309  0.4968  0.0272  1.2283
  259SOL     vw 1036   4.043   5.365   3.265  0.1934 -0.1504  0.6943
  260SOL     ow 1037   1.922   4.816   5.629 -0.6726 -0.2259 -0.2195
  260SOL     hw 1038   1.919   4.866   5.711  1.2528 -1.2127  0.5114
  260SOL     hw 1039   1.980   4.867   5.572 -1.1078 -0.1247 -0.5850
  260SOL     vw 1040   1.929   4.830   5.632 -0.4760 -0.3426 -0.1714
  261SOL     ow 1041   4.341   1.564   5.736 -1.0081 -0.4519  0.0690
  261SOL     hw 1042   4.412   1.598   5.681 -1.3144 -1.1796 -0.8023
  261SOL     hw 1043   4.387   1.526   5.811 -0.5883  0.6106  0.3681
  261SOL     vw 1044   4.357   1.563   5.739 -0.9933 -0.4076 -0.0064
  262SOL     ow 1045   0.908   2.877   3.088 -0.4678  0.0032 -0.3561
  262SOL     hw 1046   0.816   2.898   3.101 -0.6346 -1.4653  1.0564
  262SOL     hw 1047   0.912   2.781   3.090  1.2687  0.0429  1.1047
  262SOL     vw 1048   0.897   2.867   3.090 -0.2607 -0.1854  0.0231
  263SOL     ow 1049   4.537   1.593   0.517 -0.2521  0.4788 -0.2703
  263SOL     hw 1050   4.513   1.553   0.434 -2.4686  0.0318  0.5001
  263SOL     hw 1051   4.560   1.683   0.495 -0.6217  0.3144 -1.3914
  263SOL     vw 1052   4.537   1.599   0.503 -0.5932  0.3981 -0.3166
  264SOL     ow 1053   1.498   2.994   2.592  0.4159 -0.4887  0.0237
  264SOL     hw 1054   1.470   2.998   2.684 -1.1000 -1.8083 -0.3267
  264SOL     hw 1055   1.416   2.992   2.543  1.1622 -1.7664 -1.2430
  264SOL     vw 1056   1.484   2.994   2.598  0.3144 -0.8315 -0.1898
  265SOL     ow 1057   0.288   5.370   5.577  0.1854 -0.0835  0.0800
  265SOL     hw 1058   0.198   5.403   5.571  0.7870  1.9134  1.1389
  265SOL     hw 1059   0.327   5.418   5.650  2.5251  0.1809 -1.2217
  265SOL     vw 1060   0.281   5.381   5.586  0.5735  0.2151  0.0479
  266SOL     ow 1061   0.655   3.320   2.153 -0.2131  0.4451 -0.0160
  266SOL     hw 1062   0.710   3.254   2.110 -1.5786 -0.4494 -0.4647
  266SOL     hw 1063   0.710   3.398   2.157  1.2357 -0.5296 -0.0306
  266SOL     vw 1064   0.669   3.322   2.148 -0.2021  0.1985 -0.0770
  267SOL     ow 1065   2.449   3.925   0.817  1.0495 -0.0632  0.0015
  267SOL     hw 1066   2.532   3.941   0.773 -0.4469  1.4688 -2.4445
  267SOL     hw 1067   2.421   4.011   0.847 -0.5220 -0.2322 -0.8893
  267SOL     vw 1068   2.457   3.938   0.815  0.6447  0.1166 -0.4387
  268SOL     ow 1069   5.182   2.133   0.133  0.2532 -0.1710  0.4699
  268SOL     hw 1070   5.226   2.178   0.061  0.1330 -3.4817 -1.9143
  268SOL     hw 1071   5.091   2.126   0.105 -0.5351  1.2133  2.4936
  268SOL     vw 1072   5.176   2.138   0.120  0.1335 -0.4253  0.4224
  269SOL     ow 1073   6.367   5.269   0.101  0.0943  0.1075  0.7049
  269SOL     hw 1074   6.348   5.267   0.194 -0.5558  0.1071  0.5760
  269SOL     hw 1075   6.463   5.270   0.096  0.1368  1.0311  1.3939
  269SOL     vw 1076   6.377   5.269   0.112  0.0141  0.2294  0.7788
  270SOL     ow 1077   0.122   3.755   6.459 -0.0336 -1.0477  0.1232
  270SOL     hw 1078   0.128   3.846   6.487 -0.3966 -0.4469 -1.6297
  270SOL     hw 1079   0.176   3.707   6.522 -2.2981 -0.1153  3.0065
  270SOL     vw 1080   0.130   3.761   6.471 -0.3803 -0.8454  0.2723
  271SOL     ow 1081   4.796   3.725   3.160 -0.2365  0.0464  0.2279
  271SOL     hw 1082   4.730   3.780   3.204 -0.0544 -0.4472  1.1489
  271SOL     hw 1083   4.874   3.780   3.155 -0.7293  0.6651 -0.9442
  271SOL     vw 1084   4.797   3.740   3.165 -0.2773  0.0629  0.1948
  272SOL     ow 1085   2.309   6.622   5.909 -0.0765 -0.3312 -0.1438
  272SOL     hw 1086   2.345   6.707   5.935  0.9034 -1.0447  0.9821
  272SOL     hw 1087   2.215   6.632   5.919 -0.0949  1.0368 -1.3808
  272SOL     vw 1088   2.301   6.635   5.914  0.0503 -0.2449 -0.1585
  273SOL     ow 1089   5.375   6.333   3.947  0.3709  0.4397 -0.0769
  273SOL     hw 1090   5.410   6.423   3.942 -0.6912  0.8012 -2.2955
  273SOL     hw 1091   5.364   6.307   3.856 -0.4877 -1.5233  0.5402
  273SOL     vw 1092   5.378   6.342   3.935  0.1175  0.2284 -0.2882
  274SOL     ow 1093   6.603   6.594   5.902  0.0138  0.1576  0.5548
  274SOL     hw 1094   6.681   6.571   5.852  1.3532  0.5465  2.3800
  274SOL     hw 1095   6.530   6.566   5.846  1.3746  1.2197 -1.9370
  274SOL     vw 1096   6.603   6.588   5.888  0.3700  0.3490  0.4668
  275SOL     ow 1097   2.149   5.455   1.642 -0.3800  0.0998 -0.3643
  275SOL     hw 1098   2.224   5.398   1.660  1.5916  1.9329 -2.1601
  275SOL     hw 1099   2.116   5.479   1.729  0.7489 -1.1950  0.4664
  275SOL     vw 1100   2.155   5.451   1.656  0.0291  0.1707 -0.4916
  276SOL     ow 1101   6.504   2.229   2.509  0.2009  0.3813  0.2138
  276SOL     hw 1102   6.428   2.226   2.567  0.0574  0.7197  0.0414
  276SOL     hw 1103   6.483   2.166   2.439  1.0787 -1.2697  1.3830
  276SOL     vw 1104   6.491   2.220   2.507  0.2975  0.2081  0.3453
  277SOL     ow 1105   6.934   2.897   6.949  0.0544 -0.1670  0.1821
  277SOL     hw 1106   6.900   2.809   6.966 -1.6370  0.0067 -1.9409
  277SOL     hw 1107   6.860   2.956   6.965  0.2264  0.5398 -1.3962
  277SOL     vw 1108   6.920   2.893   6.953 -0.1459 -0.0508 -0.3064
  278SOL     ow 1109   2.051   1.025   2.558 -0.0121 -0.5526  0.3171
  278SOL     hw 1110   2.012   0.956   2.505  0.7130 -0.3599 -0.4881
  278SOL     hw 1111   1.990   1.098   2.550 -0.4072 -0.8567  0.5623
  278SOL     vw 1112   2.038   1.026   2.550  0.0316 -0.5672  0.2434
  279SOL     ow 1113   0.197   1.460   4.190  0.3717 -0.2907  0.2560
  279SOL     hw 1114   0.165   1.549   4.202 -0.3814 -0.7510  2.1232
  279SOL     hw 1115   0.244   1.440   4.271 -1.5882 -2.3938  0.9898
  279SOL     vw 1116   0.199   1.469   4.202  0.0137 -0.6289  0.5994
  280SOL     ow 1117   3.092   4.452   2.891 -0.1302  0.1343  0.1809
  280SOL     hw 1118   3.149   4.410   2.827  1.1111  2.6301 -0.4930
  280SOL     hw 1119   3.005   4.450   2.851  0.1145 -0.7350 -0.3277
  280SOL     vw 1120   3.088   4.446   2.877  0.0659  0.3488  0.0250
  281SOL     ow 1121   2.705   6.450   3.545 -0.4039  0.0053 -0.1797
  281SOL     hw 1122   2.680   6.386   3.479  0.4133 -0.4354 -0.0700
  281SOL     hw 1123   2.686   6.407   3.629  1.2974 -0.6135 -0.0733
  281SOL     vw 1124   2.699   6.436   3.547 -0.0716 -0.1347 -0.1513
  282SOL     ow 1125   2.804   2.109   6.130  0.0618 -0.6571  0.4345
  282SOL     hw 1126   2.776   2.175   6.066  1.6618 -0.1792  0.1604
  282SOL     hw 1127   2.798   2.026   6.084 -1.8300 -0.7324  0.7319
  282SOL     vw 1128   2.800   2.107   6.116  0.0232 -0.6040  0.4375
  283SOL     ow 1129   6.690   2.632   5.908 -0.0299 -0.1424  0.8123
  283SOL     hw 1130   6.777   2.655   5.940  0.1688  0.4605 -0.1259
  283SOL     hw 1131   6.662   2.708   5.857 -0.8044 -0.6222  0.4986
  283SOL     vw 1132   6.698   2.645   5.905 -0.1056 -0.1260  0.6473
  284SOL     ow 1133   0.482   0.810   6.435  0.0922 -0.1078  0.0593
  284SOL     hw 1134   0.556   0.859   6.469 -0.5775 -0.3662  2.0147
  284SOL     hw 1135   0.451   0.861   6.360  1.7035  0.4298 -0.2705
  284SOL     vw 1136   0.487   0.823   6.430  0.2164 -0.0710  0.2737
  285SOL     ow 1137   1.289   0.420   4.735 -0.8319  0.1014 -0.1508
  285SOL     hw 1138   1.261   0.328   4.738 -1.2978  0.1609 -1.7135
  285SOL     hw 1139   1.320   0.432   4.645 -1.1353  1.5877 -0.0723
  285SOL     vw 1140   1.290   0.409   4.723 -0.9334  0.3053 -0.3467
  286SOL     ow 1141   0.295   4.301   2.595  0.0467  0.1386 -0.0493
  286SOL     hw 1142   0.273   4.343   2.513 -1.6628  0.5472  0.5855
  286SOL     hw 1143   0.211   4.277   2.634  0.8686 -1.9186  0.6282
  286SOL     vw 1144   0.281   4.303   2.589 -0.0704 -0.0792  0.1237
  287SOL     ow 1145   5.633   2.982   5.935 -0.6022  0.5414 -0.4890
  287SOL     hw 1146   5.635   3.076   5.953 -3.1408  0.5821 -0.0539
  287SOL     hw 1147   5.590   2.945   6.012 -0.2561 -0.8934 -0.9724
  287SOL     vw 1148   5.628   2.990   5.948 -0.8912  0.3574 -0.4954
  288SOL     ow 1149   5.667   6.189   0.518 -0.1081 -0.4021 -0.1113
  288SOL     hw 1150   5.585   6.223   0.555  0.4960 -1.6468  2.5453
  288SOL     hw 1151   5.723   6.266   0.511 -0.8891  0.1724 -0.2671
  288SOL     vw 1152   5.663   6.203   0.522 -0.1316 -0.4907  0.2187
  289SOL     ow 1153   3.473   3.475   6.834 -0.1396  0.5391 -0.2914
  289SOL     hw 1154   3.553   3.524   6.815  0.2598 -0.1175 -0.3334
  289SOL     hw 1155   3.446   3.439   6.749 -1.3897  2.0664 -0.5939
  289SOL     vw 1156   3.480   3.477   6.820 -0.2519  0.6540 -0.3369
  290SOL     ow 1157   0.489   4.158   5.627  0.2180 -0.5754  0.3136
  290SOL     hw 1158   0.408   4.186   5.585  0.8293 -2.0227 -2.0108
  290SOL     hw 1159   0.490   4.063   5.616  1.7607 -0.6906  1.1960
  290SOL     vw 1160   0.478   4.149   5.620  0.5022 -0.7815  0.1233
  291SOL     ow 1161   2.371   2.227   2.589  0.3645 -0.4026  0.3188
  291SOL     hw 1162   2.459   2.234   2.627  0.2957 -1.2407  0.6475
  291SOL     hw 1163   2.318   2.289   2.640  1.1382  1.5437 -1.1012
  291SOL     vw 1164   2.376   2.236   2.601  0.4574 -0.2564  0.1748
  292SOL     ow 1165   0.131   3.829   5.032  0.3334 -0.1749 -0.3274
  292SOL     hw 1166   0.137   3.924   5.022 -0.4618  0.1361  1.5917
  292SOL     hw 1167   0.078   3.817   5.111  1.9227 -2.1755  0.5199
  292SOL     vw 1168   0.125   3.840   5.041  0.4382 -0.3978  0.0374
  293SOL     ow 1169   3.484   4.529   5.557 -0.0802  0.1710 -0.5407
  293SOL     hw 1170   3.493   4.483   5.473 -1.1103  1.8435 -1.6181
  293SOL     hw 1171   3.431   4.470   5.611 -0.0149 -0.6065 -1.2913
  293SOL     vw 1172   3.478   4.515   5.553 -0.2074  0.2892 -0.7820
  294SOL     ow 1173   0.172   2.882   5.245  0.0265 -0.8126  0.1882
  294SOL     hw 1174   0.108   2.902   5.177  0.6612 -1.4855 -0.6424
  294SOL     hw 1175   0.251   2.930   5.218  0.4521 -1.5203  0.1323
  294SOL     vw 1176   0.174   2.891   5.232  0.1664 -0.9947  0.0710
  295SOL     ow 1177   2.626   6.627   1.156  0.0894  0.4574  0.1428
  295SOL     hw 1178   2.689   6.561   1.184 -0.0695 -0.2380 -1.0920
  295SOL     hw 1179   2.559   6.626   1.225  1.2403  1.0246  1.3321
  295SOL     vw 1180   2.625   6.618   1.169  0.2203  0.4406  0.1367
  296SOL     ow 1181   2.369   5.200   2.676 -0.7096  0.3349  0.0921
  296SOL     hw 1182   2.436   5.180   2.610 -1.0497 -2.1864  0.4010
  296SOL     hw 1183   2.298   5.241   2.627 -0.6522 -0.8352 -1.0202
  296SOL     vw 1184   2.369   5.203   2.661 -0.7470 -0.1521 -0.0139
  297SOL     ow 1185   2.870   4.368   6.628  0.4592 -0.1355  0.0796
  297SOL     hw 1186   2.863   4.282   6.586 -2.4758 -0.5231  1.1676
  297SOL     hw 1187   2.862   4.430   6.556  0.3231 -0.7731 -0.4640
  297SOL     vw 1188   2.868   4.364   6.613  0.0540 -0.2706  0.1514
  298SOL     ow 1189   2.036   0.635   1.361 -0.7598  0.2468  0.5134
  298SOL     hw 1190   1.962   0.673   1.314  0.4286 -0.7065 -2.3215
  298SOL     hw 1191   2.111   0.686   1.332  0.4427 -2.3027 -1.1440
  298SOL     vw 1192   2.036   0.647   1.351 -0.4444 -0.2154 -0.0793
  299SOL     ow 1193   3.297   3.047   6.360  0.3271 -0.7159  0.3009
  299SOL     hw 1194   3.258   3.021   6.444  0.5630  0.7571  0.9011
  299SOL     hw 1195   3.391   3.046   6.376  0.3481  0.3817  0.3344
  299SOL     vw 1196   3.304   3.044   6.374  0.3611 -0.3767  0.3843
  300SOL     ow 1197   6.795   5.011   6.032 -0.5160  1.1928 -0.4003
  300SOL     hw 1198   6.743   5.001   5.953 -2.8497  1.3798  1.0275
  300SOL     hw 1199   6.759   5.088   6.076  0.9162  1.2803  0.7324
  300SOL     vw 1200   6.784   5.020   6.027 -0.6347  1.2288 -0.0625
  301SOL     ow 1201   1.652   4.125   2.296  0.7519  0.1866 -0.7008
  301SOL     hw 1202   1.719   4.060   2.320  0.0026 -0.2005  0.4011
  301SOL     hw 1203   1.591   4.125   2.370 -0.0173  1.1434 -1.3170
  301SOL     vw 1204   1.653   4.117   2.309  0.5515  0.2615 -0.6367
  302SOL     ow 1205   0.136   2.312   4.499 -0.2523  1.0122  0.1145
  302SOL     hw 1206   0.172   2.329   4.586  2.4164  2.4103 -1.1691
  302SOL     hw 1207   0.145   2.217   4.488 -1.6452  0.6435  1.7223
  302SOL     vw 1208   0.142   2.301   4.509 -0.0840  1.1480  0.1571
  303SOL     ow 1209   1.148   2.095   4.275  0.0976  0.0929  0.0185
  303SOL     hw 1210   1.208   2.156   4.318 -0.0884  0.3758 -0.1159
  303SOL     hw 1211   1.095   2.059   4.346  1.2094 -1.0633  0.2931
  303SOL     vw 1212   1.149   2.098   4.290  0.2198 -0.0223  0.0370
  304SOL     ow 1213   4.769   1.211   6.374  0.0088 -0.2901 -0.1341
  304SOL     hw 1214   4.809   1.167   6.299  0.2392  1.1640 -0.8959
  304SOL     hw 1215   4.843   1.238   6.428 -0.1468 -1.0795  0.5082
  304SOL     vw 1216   4.784   1.208   6.371  0.0186 -0.2024 -0.1500
  305SOL     ow 1217   6.665   1.991   4.808 -0.2686 -0.4964 -0.1162
  305SOL     hw 1218   6.754   2.027   4.810  0.0505 -1.3036  1.0165
  305SOL     hw 1219   6.664   1.925   4.877 -1.1162 -1.9821 -1.4708
  305SOL     vw 1220   6.677   1.987   4.817 -0.3383 -0.7989 -0.1454
  306SOL     ow 1221   6.716   2.694   1.338  0.2842 -0.0842 -0.0353
  306SOL     hw 1222   6.642   2.634   1.323 -0.5027  0.5678  1.0908
  306SOL     hw 1223   6.693   2.772   1.287 -0.3071  0.5000  1.1024
  306SOL     vw 1224   6.703   2.696   1.329  0.1023  0.0789  0.2633
  307SOL     ow 1225   4.736   1.111   4.737  0.8446  0.3302 -0.0571
  307SOL     hw 1226   4.739   1.082   4.646 -0.4599 -0.7659  0.2335
  307SOL     hw 1227   4.644   1.130   4.753  1.1762  1.2905  0.8182
  307SOL     vw 1228   4.725   1.110   4.727  0.7162  0.3124  0.0968
  308SOL     ow 1229   5.965   0.401   1.991  0.7178  0.3847 -0.1778
  308SOL     hw 1230   5.884   0.365   1.955 -0.4066  1.3934  1.2572
  308SOL     hw 1231   5.965   0.493   1.964  1.5254  0.3417 -0.3630
  308SOL     vw 1232   5.955   0.408   1.983  0.6764  0.5121 -0.0129
  309SOL     ow 1233   0.925   1.145   0.902  0.1920 -0.7484 -0.0519
  309SOL     hw 1234   0.946   1.085   0.830  0.6656 -0.8034  0.1303
  309SOL     hw 1235   0.998   1.207   0.902 -0.2740 -0.1982 -0.2103
  309SOL     vw 1236   0.938   1.145   0.892  0.1930 -0.6831 -0.0488
  310SOL     ow 1237   4.516   5.749   2.126 -0.1805 -0.6220 -0.0099
  310SOL     hw 1238   4.562   5.709   2.052 -1.3611 -3.7593  0.7947
  310SOL     hw 1239   4.509   5.679   2.190 -4.0157  0.3403  0.8392
  310SOL     vw 1240   4.521   5.734   2.125 -0.8423 -0.9089  0.2083
  311SOL     ow 1241   0.043   5.866   4.438  0.1472 -0.3400 -0.1575
  311SOL     hw 1242   0.028   5.828   4.351  2.0738  1.7976 -1.5606
  311SOL     hw 1243   0.003   5.953   4.433 -0.3017 -0.4466  1.3401
  311SOL     vw 1244   0.036   5.873   4.426  0.3422 -0.0722 -0.1450
  312SOL     ow 1245   7.073   4.842   2.975  0.1631  0.2336 -0.4107
  312SOL     hw 1246   7.049   4.782   2.904 -0.7464  0.2104 -0.0918
  312SOL     hw 1247   7.159   4.876   2.950  0.8931 -1.5093 -0.4018
  312SOL     vw 1248   7.081   4.839   2.962  0.1394  0.0005 -0.3674
  313SOL     ow 1249   2.043   6.646   6.015  0.1171  0.6927  0.2430
  313SOL     hw 1250   2.013   6.726   5.971 -1.6640 -0.1240 -0.1296
  313SOL     hw 1251   2.103   6.676   6.082 -0.3355  2.3273 -0.0475
  313SOL     vw 1252   2.047   6.660   6.018 -0.1775  0.8008  0.1559
  314SOL     ow 1253   0.317   1.199   3.754 -0.2827  0.0560  0.2388
  314SOL     hw 1254   0.243   1.199   3.693  0.2105  0.1274 -0.3781
  314SOL     hw 1255   0.380   1.139   3.714 -0.5750 -1.1164  1.4737
  314SOL     vw 1256   0.316   1.191   3.741 -0.2562 -0.0892  0.3203
  315SOL     ow 1257   0.815   6.176   2.072  0.1329  0.5686  0.2946
  315SOL     hw 1258   0.855   6.217   1.995 -0.2496 -0.9291 -0.7422
  315SOL     hw 1259   0.749   6.239   2.101  1.0027  1.6145  0.0535
  315SOL     vw 1260   0.812   6.190   2.066  0.1972  0.5088  0.1260
  316SOL     ow 1261   6.359   3.579   7.006 -0.3372 -0.0658 -0.4579
  316SOL     hw 1262   6.324   3.561   7.093 -0.5981 -0.3304 -0.6154
  316SOL     hw 1263   6.447   3.613   7.022  0.0188 -1.0878 -0.1252
  316SOL     vw 1264   6.366   3.581   7.020 -0.3245 -0.2356 -0.4349
  317SOL     ow 1265   4.548   2.158   5.932  0.2122 -0.1375  0.4960
  317SOL     hw 1266   4.594   2.205   5.862  1.1722 -0.5306  0.8353
  317SOL     hw 1267   4.491   2.097   5.887 -2.0021  2.1343  0.0054
  317SOL     vw 1268   4.547   2.156   5.917  0.0470  0.1103  0.4761
  318SOL     ow 1269   6.583   0.667   3.419 -0.1417 -0.4884 -0.0926
  318SOL     hw 1270   6.644   0.686   3.490  2.6903 -1.8874 -1.9498
  318SOL     hw 1271   6.561   0.575   3.431  1.3531 -1.0965 -1.6045
  318SOL     vw 1272   6.588   0.657   3.430  0.4292 -0.7532 -0.5370
  319SOL     ow 1273   3.721   3.151   4.180 -0.0987  0.8787 -0.3157
  319SOL     hw 1274   3.660   3.149   4.107  1.2865 -0.8279 -1.5066
  319SOL     hw 1275   3.802   3.188   4.144  1.0094 -1.1308 -0.0995
  319SOL     vw 1276   3.724   3.155   4.166  0.2303  0.3883 -0.4442
  320SOL     ow 1277   2.517   6.406   6.010 -0.5408  0.5047 -0.6052
  320SOL     hw 1278   2.613   6.412   6.014 -0.5840  2.3246 -1.4683
  320SOL     hw 1279   2.488   6.441   6.094 -0.4630  0.1439 -0.4259
  320SOL     vw 1280   2.526   6.412   6.022 -0.5362  0.6971 -0.6952
  321SOL     ow 1281   1.856   0.865   3.703 -0.1456 -0.1659  0.1410
  321SOL     hw 1282   1.946   0.889   3.679  0.5544 -2.0563  0.6734
  321SOL     hw 1283   1.848   0.773   3.676 -1.4335 -0.4625  1.4128
  321SOL     vw 1284   1.867   0.856   3.696 -0.2232 -0.4544  0.3788
  322SOL     ow 1285   2.514   5.099   0.105 -0.1153  0.4166 -0.0981
  322SOL     hw 1286   2.460   5.039   0.053 -1.8183  1.6526  0.1560
  322SOL     hw 1287   2.512   5.063   0.194  1.2169 -0.6480 -0.4632
  322SOL     vw 1288   2.507   5.087   0.110 -0.1643  0.4392 -0.1127
  323SOL     ow 1289   2.009   0.787   1.636  0.1978  0.3566 -0.1155
  323SOL     hw 1290   1.972   0.791   1.724 -0.5245  3.1467 -0.4455
  323SOL     hw 1291   2.016   0.879   1.609 -0.7120 -0.4196 -3.4275
  323SOL     vw 1292   2.005   0.800   1.644 -0.0176  0.6223 -0.5960
  324SOL     ow 1293   4.372   5.524   1.050  0.1132 -0.5704 -0.3049
  324SOL     hw 1294   4.358   5.433   1.027 -0.5730 -1.2977  2.5870
  324SOL     hw 1295   4.457   5.525   1.094 -0.3893 -0.0473  0.6855
  324SOL     vw 1296   4.381   5.512   1.053 -0.0439 -0.5972  0.2074
  325SOL     ow 1297   1.453   3.891   1.032  0.4413  0.8674  0.1834
  325SOL     hw 1298   1.518   3.875   0.963 -1.2191  1.3219 -1.5555
  325SOL     hw 1299   1.454   3.986   1.043 -0.0352  0.8950  0.0162
  325SOL     vw 1300   1.462   3.902   1.024  0.1594  0.9309 -0.0681
  326SOL     ow 1301   3.089   5.625   1.530 -0.2871  0.1927  0.5875
  326SOL     hw 1302   3.087   5.572   1.450 -1.1954 -0.1538  0.8213
  326SOL     hw 1303   3.120   5.565   1.598  1.2232  0.6909  0.3750
  326SOL     vw 1304   3.093   5.610   1.528 -0.2077  0.2129  0.5903
  327SOL     ow 1305   3.410   1.728   2.476 -0.0808 -0.7820  0.1225
  327SOL     hw 1306   3.336   1.753   2.531 -0.3914 -2.5053  0.5375
  327SOL     hw 1307   3.416   1.798   2.411 -0.0332  1.0639  1.9968
  327SOL     vw 1308   3.401   1.741   2.475 -0.1155 -0.7659  0.4245
  328SOL     ow 1309   6.515   2.378   5.889 -0.2287 -0.0128 -0.1536
  328SOL     hw 1310   6.554   2.370   5.802  1.2294  2.0018  0.2447
  328SOL     hw 1311   6.547   2.301   5.937 -1.7521 -1.6110 -1.5915
  328SOL     vw 1312   6.524   2.367   5.884 -0.2375  0.0422 -0.2911
  329SOL     ow 1313   1.213   0.470   5.006 -0.2111  0.0176 -0.0067
  329SOL     hw 1314   1.191   0.414   5.080  1.4173 -2.6872 -1.4218
  329SOL     hw 1315   1.301   0.503   5.024 -0.6687  1.1914  0.2257
  329SOL     vw 1316   1.222   0.467   5.018 -0.0566 -0.1844 -0.1628
  330SOL     ow 1317   3.902   0.060   1.304 -0.3612  0.5194 -0.2155
  330SOL     hw 1318   3.920  -0.026   1.265 -0.6168  0.5625 -0.4311
  330SOL     hw 1319   3.839   0.043   1.373 -0.1554  0.4878 -0.0346
  330SOL     vw 1320   3.896   0.046   1.308 -0.3678  0.5207 -0.2201
  331SOL     ow 1321   1.701   1.444   6.414 -0.6422 -0.1315 -0.3819
  331SOL     hw 1322   1.780   1.402   6.379  0.1467  0.7381  0.3112
  331SOL     hw 1323   1.691   1.406   6.501  0.1637  1.1697  0.3125
  331SOL     vw 1324   1.711   1.433   6.421 -0.4318  0.1549 -0.1988
  332SOL     ow 1325   6.576   1.224   1.802  0.6965 -0.6794  0.1067
  332SOL     hw 1326   6.610   1.162   1.867  0.0717  0.7186  1.8375
  332SOL     hw 1327   6.652   1.277   1.778  0.7049 -0.5085  0.5063
  332SOL     vw 1328   6.591   1.222   1.807  0.6149 -0.4724  0.3877
  333SOL     ow 1329   1.486   5.044   6.266 -0.2012 -0.5311 -0.4467
  333SOL     hw 1330   1.508   4.960   6.306  3.2455 -1.0071 -2.8881
  333SOL     hw 1331   1.525   5.109   6.325 -1.8681 -0.6231  0.8351
  333SOL     vw 1332   1.494   5.042   6.279  0.0336 -0.6061 -0.5996
  334SOL     ow 1333   0.370   4.730   0.395 -0.2563 -0.5053 -0.3626
  334SOL     hw 1334   0.330   4.655   0.352 -0.1188  0.3162 -2.0258
  334SOL     hw 1335   0.464   4.710   0.397 -0.1428 -0.1498 -1.3670
  334SOL     vw 1336   0.377   4.718   0.389 -0.2232 -0.3498 -0.7146
  335SOL     ow 1337   4.806   4.451   5.446  0.5663  0.2647 -0.2284
  335SOL     hw 1338   4.787   4.360   5.471 -2.7669  0.7455 -0.5529
  335SOL     hw 1339   4.809   4.450   5.351  1.5869  0.3593 -0.2089
  335SOL     vw 1340   4.804   4.439   5.437  0.2613  0.3407 -0.2687
  336SOL     ow 1341   0.653   4.646   0.358 -0.0001 -0.1323  0.1964
  336SOL     hw 1342   0.675   4.576   0.419 -0.3190 -0.0319  0.4314
  336SOL     hw 1343   0.702   4.722   0.390  0.1662 -0.1900  0.0772
  336SOL     vw 1344   0.662   4.647   0.370 -0.0203 -0.1266  0.2116
  337SOL     ow 1345   4.731   4.785   2.119 -0.0206  0.4398  0.1497
  337SOL     hw 1346   4.664   4.805   2.184 -1.1915 -2.0824 -0.1561
  337SOL     hw 1347   4.790   4.724   2.164 -0.9747 -1.5137 -1.1326
  337SOL     vw 1348   4.730   4.780   2.134 -0.3009 -0.1507 -0.0598
  338SOL     ow 1349   1.963   6.312   2.026 -0.1891  0.1890  0.2238
  338SOL     hw 1350   1.944   6.249   2.096 -1.3152 -0.4033 -0.5836
  338SOL     hw 1351   1.958   6.261   1.946 -0.3882  1.1673 -0.3963
  338SOL     vw 1352   1.960   6.297   2.025 -0.3641  0.2396  0.0355
  339SOL     ow 1353   1.054   2.092   0.668  0.1142  0.4006 -0.2424
  339SOL     hw 1354   1.070   2.183   0.642 -1.0579  0.8035  0.4097
  339SOL     hw 1355   1.016   2.097   0.755  0.4237 -0.7436 -0.0225
  339SOL     vw 1356   1.051   2.104   0.676  0.0004  0.3029 -0.1274
  340SOL     ow 1357   5.091   3.349   3.513  0.1006  0.0300 -0.2833
  340SOL     hw 1358   5.105   3.313   3.600 -1.2402 -1.2601 -0.5625
  340SOL     hw 1359   5.116   3.279   3.453 -1.0443  0.1048 -0.8819
  340SOL     vw 1360   5.096   3.335   3.517 -0.2275 -0.1304 -0.3991
  341SOL     ow 1361   2.549   2.906   5.738 -0.0165  0.1990 -0.0434
  341SOL     hw 1362   2.470   2.951   5.768 -0.4706 -1.6353  1.7800
  341SOL     hw 1363   2.589   2.872   5.819  0.9797 -1.5083 -1.1965
  341SOL     vw 1364   2.544   2.908   5.753  0.0550 -0.2683  0.0451
  342SOL     ow 1365   6.072   3.314   4.699 -0.4173  0.7959 -0.3850
  342SOL     hw 1366   6.079   3.249   4.629 -0.2955  1.5412 -1.0753
  342SOL     hw 1367   6.121   3.276   4.772 -0.2224  0.1852 -0.8251
  342SOL     vw 1368   6.079   3.301   4.700 -0.3755  0.8137 -0.5343
  343SOL     ow 1369   2.488   4.089   3.237 -0.1348 -0.0542 -0.4865
  343SOL     hw 1370   2.448   4.026   3.296 -0.6923  1.3758  0.7169
  343SOL     hw 1371   2.573   4.051   3.215 -0.2162 -0.9406  0.6595
  343SOL     vw 1372   2.494   4.076   3.242 -0.2191  0.0174 -0.1765
  344SOL     ow 1373   3.842   5.616   5.763 -0.5923 -0.6830  0.0774
  344SOL     hw 1374   3.834   5.656   5.849  1.5864  0.6992 -0.2860
  344SOL     hw 1375   3.877   5.528   5.779  0.3106 -0.2405  0.6097
  344SOL     vw 1376   3.846   5.609   5.776 -0.1857 -0.4423  0.0997
  345SOL     ow 1377   0.633   4.685   0.083 -0.2909 -0.1027 -0.5754
  345SOL     hw 1378   0.679   4.765   0.061  1.8179 -1.2471 -0.5839
  345SOL     hw 1379   0.650   4.671   0.176 -0.0200 -0.8897 -0.7299
  345SOL     vw 1380   0.641   4.694   0.092  0.0231 -0.3574 -0.5969
  346SOL     ow 1381   5.653   3.841   4.822 -0.1598  0.5924 -0.3913
  346SOL     hw 1382   5.604   3.814   4.899 -0.2621 -0.7844 -0.9095
  346SOL     hw 1383   5.617   3.788   4.751  0.6386  1.0864 -1.1863
  346SOL     vw 1384   5.642   3.830   4.823 -0.0679  0.4759 -0.5646
  347SOL     ow 1385   1.749   4.192   6.958  0.2297  0.1620 -0.2359
  347SOL     hw 1386   1.743   4.288   6.958  0.1755  0.1709  1.0519
  347SOL     hw 1387   1.746   4.168   7.051 -1.1913 -1.1854 -0.5960
  347SOL     vw 1388   1.748   4.202   6.970  0.0350 -0.0145 -0.1132
  348SOL     ow 1389   4.703   2.226   6.183 -0.1443  0.2476 -0.3890
  348SOL     hw 1390   4.765   2.162   6.218 -0.1357  0.1579 -0.5668
  348SOL     hw 1391   4.758   2.297   6.151 -0.0745 -0.2343 -1.3745
  348SOL     vw 1392   4.718   2.227   6.183 -0.1340  0.1721 -0.5424
  349SOL     ow 1393   1.552   4.944   6.763  0.8406  0.2576 -0.2607
  349SOL     hw 1394   1.509   4.948   6.849  0.4287  0.1318 -0.4615
  349SOL     hw 1395   1.480   4.944   6.700  1.0830 -1.3628 -0.5567
  349SOL     vw 1396   1.537   4.945   6.766  0.8183  0.0274 -0.3262
  350SOL     ow 1397   2.693   1.960   5.579 -0.0276 -0.3938  0.5108
  350SOL     hw 1398   2.622   2.017   5.609 -0.6554 -1.1838  0.5301
  350SOL     hw 1399   2.739   1.936   5.659  0.5238  0.4334  0.4628
  350SOL     vw 1400   2.690   1.964   5.594 -0.0378 -0.3889  0.5069
  351SOL     ow 1401   6.662   6.884   2.876 -0.0473  0.0324  0.1039
  351SOL     hw 1402   6.602   6.857   2.946  1.0029  2.1601  1.9331
  351SOL     hw 1403   6.610   6.943   2.821 -0.4396 -0.4453 -0.0472
  351SOL     vw 1404   6.647   6.888   2.878  0.0396  0.2501  0.3252
  352SOL     ow 1405   2.285   0.350   7.023  0.4040  0.2110 -0.2495
  352SOL     hw 1406   2.264   0.268   6.978 -1.9641  1.0976 -0.8508
  352SOL     hw 1407   2.284   0.416   6.954  0.5866  1.0148  0.5070
  352SOL     vw 1408   2.282   0.348   7.008  0.1155  0.4341 -0.2291
  353SOL     ow 1409   6.432   2.084   4.640 -0.4160 -1.0927  0.6817
  353SOL     hw 1410   6.402   2.169   4.673 -2.8911 -1.0118 -1.5104
  353SOL     hw 1411   6.393   2.020   4.700 -0.7209 -0.7934  0.8075
  353SOL     vw 1412   6.423   2.087   4.652 -0.7827 -1.0425  0.4089
  354SOL     ow 1413   4.843   6.264   4.743 -0.0916  0.1953 -0.7625
  354SOL     hw 1414   4.788   6.258   4.822  0.9445  2.1838  0.1916
  354SOL     hw 1415   4.869   6.174   4.724 -2.6167 -0.6610 -0.5104
  354SOL     vw 1416   4.839   6.251   4.751 -0.2880  0.3445 -0.6032
  355SOL     ow 1417   3.437   5.738   0.540 -0.1196  0.3305 -0.5238
  355SOL     hw 1418   3.352   5.773   0.512 -0.1517  0.0191 -0.8173
  355SOL     hw 1419   3.461   5.791   0.616 -0.7130  0.2318 -0.2623
  355SOL     vw 1420   3.429   5.750   0.546 -0.2022  0.2766 -0.5280
  356SOL     ow 1421   4.237   2.130   5.257 -0.2556  0.6864 -0.0855
  356SOL     hw 1422   4.142   2.127   5.244 -0.3325  2.3868 -0.1337
  356SOL     hw 1423   4.253   2.213   5.302  1.2537  0.6362 -0.4668
  356SOL     vw 1424   4.226   2.141   5.261 -0.0668  0.9041 -0.1421
  357SOL     ow 1425   0.963   1.689   6.486  0.2011  0.1750  0.4067
  357SOL     hw 1426   1.011   1.768   6.460 -0.5957  0.6036  0.2091
  357SOL     hw 1427   0.972   1.687   6.582  0.4913  0.3280  0.3848
  357SOL     vw 1428   0.970   1.699   6.496  0.1343  0.2518  0.3781
  358SOL     ow 1429   5.207   5.149   3.494 -0.1900 -0.8788  0.0280
  358SOL     hw 1430   5.190   5.233   3.536 -0.6966 -0.9532 -0.0172
  358SOL     hw 1431   5.242   5.094   3.563 -0.3018 -0.7722  0.1691
  358SOL     vw 1432   5.209   5.153   3.508 -0.2718 -0.8745  0.0407
  359SOL     ow 1433   1.675   1.191   6.869 -0.1385 -1.0517  0.2097
  359SOL     hw 1434   1.694   1.099   6.884  1.9702 -0.3087  2.7348
  359SOL     hw 1435   1.631   1.220   6.949 -0.7101  0.1868 -0.5104
  359SOL     vw 1436   1.671   1.183   6.881  0.0643 -0.7902  0.4478
  360SOL     ow 1437   1.525   3.414   5.118  0.2585 -0.4730 -0.2607
  360SOL     hw 1438   1.548   3.462   5.197 -0.0001 -0.1556 -0.3759
  360SOL     hw 1439   1.465   3.472   5.071 -2.7978 -2.2039  1.1878
  360SOL     vw 1440   1.520   3.428   5.122 -0.1788 -0.6595 -0.0846
  361SOL     ow 1441   4.055   6.564   3.465  0.5449 -0.3210  0.0976
  361SOL     hw 1442   3.977   6.606   3.430  0.3564  1.1035  2.0439
  361SOL     hw 1443   4.022   6.493   3.520  0.6646 -0.4785 -0.0346
  361SOL     vw 1444   4.041   6.560   3.468  0.5357 -0.1538  0.3369
  362SOL     ow 1445   6.533   0.037   2.787 -0.1898  0.7170  0.1816
  362SOL     hw 1446   6.603   0.073   2.842 -0.5844 -0.0234  1.2073
  362SOL     hw 1447   6.463   0.016   2.849 -0.5614 -0.3645 -0.5761
  362SOL     vw 1448   6.533   0.039   2.803 -0.2909  0.4766  0.2170
  363SOL     ow 1449   6.961   6.787   1.597 -0.7163 -0.2101 -0.4368
  363SOL     hw 1450   6.990   6.740   1.519 -1.6194 -1.2043 -0.2024
  363SOL     hw 1451   7.031   6.774   1.661 -1.6633 -2.7603  0.1985
  363SOL     vw 1452   6.974   6.779   1.596 -0.9606 -0.6778 -0.3220
  364SOL     ow 1453   3.861   3.636   2.815  0.5182  0.3958  0.1594
  364SOL     hw 1454   3.769   3.628   2.791 -0.4075 -3.0542  3.7423
  364SOL     hw 1455   3.900   3.689   2.746 -3.9616  1.4280 -1.8937
  364SOL     vw 1456   3.854   3.642   2.803 -0.1949  0.0770  0.3613
  365SOL     ow 1457   6.497   5.205   1.070  0.0807 -0.4728 -0.2323
  365SOL     hw 1458   6.522   5.260   0.995 -1.3774  2.3470  1.1662
  365SOL     hw 1459   6.404   5.187   1.056  0.6541 -3.2580 -0.9555
  365SOL     vw 1460   6.488   5.210   1.058 -0.0360 -0.4685 -0.1432
  366SOL     ow 1461   4.453   6.410   0.580 -0.1878 -0.0856  1.0535
  366SOL     hw 1462   4.372   6.362   0.597 -0.6668  0.3851  0.1475
  366SOL     hw 1463   4.490   6.368   0.502 -0.6029  0.9721  0.2655
  366SOL     vw 1464   4.447   6.398   0.572 -0.3054  0.1161  0.8300
  367SOL     ow 1465   5.899   2.172   3.196  0.3175 -0.8359  0.0514
  367SOL     hw 1466   5.882   2.193   3.104  0.2856 -0.1368  0.2099
  367SOL     hw 1467   5.993   2.183   3.207  0.1011  0.7954  0.5064
  367SOL     vw 1468   5.909   2.176   3.186  0.2849 -0.5283  0.1323
  368SOL     ow 1469   3.631   0.434   3.706  0.3797  0.0884 -0.2067
  368SOL     hw 1470   3.586   0.380   3.640  0.4128  0.1408 -0.2716
  368SOL     hw 1471   3.571   0.507   3.721  1.0870  0.9337 -1.3589
  368SOL     vw 1472   3.617   0.436   3.699  0.4774  0.2069 -0.3672
  369SOL     ow 1473   0.568   5.313   5.535  0.1160  0.0299 -0.3458
  369SOL     hw 1474   0.501   5.374   5.504 -0.2489 -0.2816 -0.1702
  369SOL     hw 1475   0.526   5.264   5.606  0.7836  0.3992  0.3280
  369SOL     vw 1476   0.554   5.315   5.540  0.1560  0.0374 -0.2339
  370SOL     ow 1477   6.925   1.189   1.428 -0.1012 -0.1842  0.4741
  370SOL     hw 1478   6.956   1.127   1.494 -0.4847 -0.8871  0.0054
  370SOL     hw 1479   6.947   1.275   1.464 -1.8844 -0.4431  2.4103
  370SOL     vw 1480   6.932   1.192   1.442 -0.3870 -0.3111  0.6678
  371SOL     ow 1481   4.369   5.826   2.805  0.2144 -0.0464 -0.4363
  371SOL     hw 1482   4.310   5.761   2.842  0.3892 -1.2029 -2.0670
  371SOL     hw 1483   4.313   5.898   2.778 -0.1948 -0.2494 -0.1253
  371SOL     vw 1484   4.354   5.827   2.806  0.1836 -0.2258 -0.6105
  372SOL     ow 1485   1.984   4.556   5.765  0.3624  0.1015  0.4461
  372SOL     hw 1486   2.054   4.602   5.811  0.7846  1.0216 -1.0411
  372SOL     hw 1487   1.944   4.624   5.710  0.0352 -0.9921 -0.7080
  372SOL     vw 1488   1.988   4.571   5.764  0.3750  0.0787  0.0978
  373SOL     ow 1489   1.084   1.221   6.127 -0.1558 -0.2904 -0.8244
  373SOL     hw 1490   1.177   1.202   6.134  0.1224  0.6102 -1.8180
  373SOL     hw 1491   1.056   1.178   6.046 -0.5432 -0.3365 -0.6682
  373SOL     vw 1492   1.093   1.213   6.117 -0.1702 -0.1776 -0.9348
  374SOL     ow 1493   3.816   1.193   4.322 -0.3006  0.6622  0.3559
  374SOL     hw 1494   3.815   1.114   4.268 -2.0823  0.4563  0.6150
  374SOL     hw 1495   3.893   1.183   4.378  0.1354 -0.3382 -0.3927
  374SOL     vw 1496   3.826   1.181   4.322 -0.4781  0.5031  0.2913
  375SOL     ow 1497   6.951   2.477   1.341  0.1193  0.7820 -0.3520
  375SOL     hw 1498   6.966   2.433   1.424 -1.9829  0.9706  0.1700
  375SOL     hw 1499   6.893   2.419   1.292 -2.2153  2.5801  0.1104
  375SOL     vw 1500   6.946   2.464   1.345 -0.4661  1.0440 -0.2222
  376SOL     ow 1501   3.425   3.357   1.905  0.2551 -0.1825 -0.4664
  376SOL     hw 1502   3.433   3.416   1.830 -1.1539 -0.0068 -0.5043
  376SOL     hw 1503   3.415   3.414   1.981 -0.8796 -0.3376 -0.4748
  376SOL     vw 1504   3.425   3.372   1.905 -0.0806 -0.1796 -0.4726
  377SOL     ow 1505   1.099   6.688   4.022  0.3852 -0.5338 -0.0458
  377SOL     hw 1506   1.058   6.774   4.018  0.4889 -0.3015  2.2668
  377SOL     hw 1507   1.143   6.678   3.938 -0.2378  1.3542 -0.6475
  377SOL     vw 1508   1.100   6.698   4.011  0.3167 -0.2539  0.1798
  378SOL     ow 1509   4.579   2.338   4.877 -0.0785  0.1340 -0.2777
  378SOL     hw 1510   4.521   2.348   4.802  0.2429  0.6736 -0.4625
  378SOL     hw 1511   4.548   2.259   4.921 -1.5138  0.8838  0.1243
  378SOL     vw 1512   4.567   2.329   4.873 -0.2255  0.3042 -0.2487
  379SOL     ow 1513   5.383   3.700   3.472 -0.5118 -0.3875  0.4884
  379SOL     hw 1514   5.454   3.735   3.526 -1.2375  0.3815  0.9499
  379SOL     hw 1515   5.418   3.704   3.382 -0.4103  1.1506  0.5673
  379SOL     vw 1516   5.397   3.705   3.467 -0.5941 -0.0831  0.5597
  380SOL     ow 1517   2.194   1.167   4.406 -0.1912  0.2326  0.2187
  380SOL     hw 1518   2.198   1.158   4.311  1.5369 -1.0246  0.3726
  380SOL     hw 1519   2.132   1.239   4.421 -1.1183 -0.0814 -1.8086
  380SOL     vw 1520   2.186   1.175   4.396 -0.0856  0.0253 -0.0284
  381SOL     ow 1521   4.915   5.991   6.644  0.0130  0.0104 -0.2469
  381SOL     hw 1522   4.881   5.940   6.718 -0.6353 -0.4015 -0.8182
  381SOL     hw 1523   4.974   5.931   6.599  2.1026  0.9117  1.0994
  381SOL     vw 1524   4.919   5.976   6.648  0.2031  0.0751 -0.1445
  382SOL     ow 1525   3.822   6.345   5.040  0.5463  0.2373 -0.2180
  382SOL     hw 1526   3.864   6.332   4.955  1.0963  1.3243 -0.1318
  382SOL     hw 1527   3.894   6.369   5.099 -0.1237  1.7810  0.0175
  382SOL     vw 1528   3.837   6.346   5.037  0.5305  0.5844 -0.1755
  383SOL     ow 1529   1.713   2.541   1.353 -0.2246  0.4443  0.1280
  383SOL     hw 1530   1.725   2.603   1.425 -1.3116  2.5643 -1.4145
  383SOL     hw 1531   1.629   2.498   1.373 -0.1558  0.4701  0.4876
  383SOL     vw 1532   1.704   2.543   1.365 -0.3589  0.7274 -0.0281
  384SOL     ow 1533   4.206   5.763   6.987 -0.2903 -0.5570  0.1619
  384SOL     hw 1534   4.202   5.684   6.932  0.8869 -2.5883  2.7682
  384SOL     hw 1535   4.117   5.774   7.019 -0.6452 -0.2818 -0.8715
  384SOL     vw 1536   4.194   5.754   6.984 -0.1819 -0.7887  0.3695
  385SOL     ow 1537   4.151   1.509   5.541 -0.3136 -0.0275 -0.2925
  385SOL     hw 1538   4.216   1.507   5.611 -1.5815  0.8567  0.9691
  385SOL     hw 1539   4.178   1.583   5.486 -0.5524  0.7333  0.5751
  385SOL     vw 1540   4.163   1.519   5.543 -0.5121  0.1895 -0.0117
  386SOL     ow 1541   0.254   1.228   3.054  0.1220 -0.1548  0.4318
  386SOL     hw 1542   0.235   1.147   3.006  0.9910 -0.4165  0.5050
  386SOL     hw 1543   0.348   1.224   3.071  0.1104  0.7020  0.7597
  386SOL     vw 1544   0.264   1.217   3.050  0.2351 -0.0764  0.4847
  387SOL     ow 1545   2.634   1.513   3.270  0.0886  0.4085 -0.2887
  387SOL     hw 1546   2.717   1.557   3.287 -0.8808  1.8048  1.0924
  387SOL     hw 1547   2.635   1.437   3.327 -0.3739  1.5105  1.2560
  387SOL     vw 1548   2.645   1.509   3.279 -0.1003  0.7381  0.0973
  388SOL     ow 1549   5.465   5.757   3.503  0.0012  0.0074  0.6209
  388SOL     hw 1550   5.397   5.704   3.545  1.3588 -1.1932  1.3931
  388SOL     hw 1551   5.546   5.708   3.516  1.0204  1.3162 -0.4049
  388SOL     vw 1552   5.467   5.744   3.510  0.3147  0.0219  0.5872
  389SOL     ow 1553   1.775   5.055   3.274 -0.5779  0.5491  0.3414
  389SOL     hw 1554   1.820   5.133   3.306  0.8831 -0.0203 -0.2144
  389SOL     hw 1555   1.846   4.993   3.255 -1.6866 -0.8778  0.6681
  389SOL     vw 1556   1.790   5.057   3.275 -0.5313  0.2859  0.3113
  390SOL     ow 1557   2.054   0.548   5.489  0.0785  0.1072  0.6399
  390SOL     hw 1558   2.032   0.553   5.396  1.0595 -2.6284  0.1646
  390SOL     hw 1559   2.140   0.589   5.496 -0.5749  1.5147  0.6119
  390SOL     vw 1560   2.063   0.554   5.478  0.1217 -0.0680  0.5734
  391SOL     ow 1561   6.704   6.399   4.195  0.3109 -0.6795  0.3947
  391SOL     hw 1562   6.728   6.491   4.196 -0.9782 -0.3220  0.2876
  391SOL     hw 1563   6.750   6.362   4.119 -0.2012  0.1773 -0.3507
  391SOL     vw 1564   6.713   6.406   4.185  0.0732 -0.5190  0.2825
  392SOL     ow 1565   2.449   4.160   4.154  0.0559 -0.2162 -0.2889
  392SOL     hw 1566   2.519   4.219   4.181 -0.4971  0.9987 -1.4180
  392SOL     hw 1567   2.369   4.202   4.186 -0.3347 -0.4308 -0.9724
  392SOL     vw 1568   2.447   4.173   4.162 -0.0687 -0.0844 -0.5279
  393SOL     ow 1569   3.478   4.508   2.334  0.1885  0.1528  0.3289
  393SOL     hw 1570   3.552   4.532   2.390 -1.3807  2.4956  1.5795
  393SOL     hw 1571   3.447   4.592   2.298 -2.4325 -0.5921  0.6414
  393SOL     vw 1572   3.484   4.522   2.336 -0.3642  0.3636  0.5351
  394SOL     ow 1573   6.341   2.436   0.652  0.2300  0.5668  0.1484
  394SOL     hw 1574   6.304   2.522   0.631  1.0568  0.5836 -1.3921
  394SOL     hw 1575   6.388   2.410   0.573 -1.2436 -2.0178  0.0193
  394SOL     vw 1576   6.343   2.444   0.639  0.1447  0.2279 -0.0719
  395SOL     ow 1577   6.662   4.088   2.205  0.2627 -0.3001 -0.0436
  395SOL     hw 1578   6.655   4.004   2.161  0.2213 -0.7503  0.8092
  395SOL     hw 1579   6.739   4.130   2.166 -0.0345 -0.4864 -0.8558
  395SOL     vw 1580   6.671   4.083   2.194  0.2177 -0.3841 -0.0381
  396SOL     ow 1581   0.500   0.681   4.258 -0.4066 -0.5895  0.2182
  396SOL     hw 1582   0.579   0.733   4.243 -0.0163 -1.2375 -0.0316
  396SOL     hw 1583   0.490   0.678   4.353 -0.9476  0.6793  0.2241
  396SOL     vw 1584   0.509   0.687   4.269 -0.4265 -0.5076  0.1860
  397SOL     ow 1585   4.917   3.589   1.957  0.0409 -0.3269  0.0034
  397SOL     hw 1586   5.009   3.611   1.948  0.3151 -1.2517  0.3840
  397SOL     hw 1587   4.878   3.607   1.871  0.5194  0.2851 -0.0884
  397SOL     vw 1588   4.924   3.594   1.945  0.1404 -0.3681  0.0415
  398SOL     ow 1589   0.010   0.068   4.555  0.0762 -0.2741  0.4531
  398SOL     hw 1590   0.006   0.163   4.543  2.8347 -0.0985  0.4368
  398SOL     hw 1591  -0.082   0.040   4.548 -0.8213  2.3521  0.4410
  398SOL     vw 1592  -0.003   0.077   4.552  0.3218  0.0956  0.4494
  399SOL     ow 1593   1.837   4.928   6.871  0.1087 -0.0244  0.3204
  399SOL     hw 1594   1.805   4.968   6.953  0.0780 -1.9012  1.2784
  399SOL     hw 1595   1.932   4.935   6.876  0.0632  1.8489 -0.5791
  399SOL     vw 1596   1.845   4.934   6.883  0.0986 -0.0250  0.3281
  400SOL     ow 1597   6.931   1.525   6.466  0.0414 -0.0620 -0.1521
  400SOL     hw 1598   6.917   1.591   6.533 -0.8707  1.6570 -1.9514
  400SOL     hw 1599   7.003   1.559   6.413  0.6142 -1.2967 -0.2258
  400SOL     vw 1600   6.939   1.538   6.468 -0.0033  0.0019 -0.3994
  401SOL     ow 1601   3.873   1.105   1.283 -0.3697  0.0438 -0.7376
  401SOL     hw 1602   3.908   1.175   1.338 -3.3324 -0.6695  2.3379
  401SOL     hw 1603   3.920   1.026   1.311  1.0844  0.2668 -2.3470
  401SOL     vw 1604   3.884   1.103   1.294 -0.5687 -0.0210 -0.5442
  402SOL     ow 1605   1.622   2.598   3.044 -0.2072  0.1102  0.5793
  402SOL     hw 1606   1.613   2.528   2.979 -1.6355 -0.0434  0.9203
  402SOL     hw 1607   1.616   2.678   2.993 -4.1243  0.0578  0.7269
  402SOL     vw 1608   1.620   2.599   3.029 -0.9124  0.0830  0.6438
  403SOL     ow 1609   5.739   2.043   6.877  0.0037 -0.0842 -0.0219
  403SOL     hw 1610   5.709   2.105   6.943  2.4046  0.1117  0.9770
  403SOL     hw 1611   5.677   1.971   6.882 -0.9023  0.7337  1.1611
  403SOL     vw 1612   5.727   2.042   6.886  0.2010  0.0495  0.2661
  404SOL     ow 1613   2.023   6.759   4.533  0.1553  0.7768  0.4214
  404SOL     hw 1614   2.058   6.837   4.577  2.0224 -0.4174  1.1874
  404SOL     hw 1615   2.078   6.749   4.456  0.8269 -0.5016  1.0351
  404SOL     vw 1616   2.035   6.768   4.529  0.4902  0.4506  0.6034
  405SOL     ow 1617   3.850   7.020   5.987 -0.3198  0.5816  0.4368
  405SOL     hw 1618   3.935   6.994   5.951 -1.5304 -0.0701 -2.1775
  405SOL     hw 1619   3.817   6.941   6.031 -0.4554  0.1695 -0.3839
  405SOL     vw 1620   3.857   7.006   5.988 -0.4975  0.4413 -0.0165
  406SOL     ow 1621   3.163   3.153   5.556  0.5470 -0.2591 -0.2577
  406SOL     hw 1622   3.120   3.183   5.635  0.6528 -3.3638  1.1524
  406SOL     hw 1623   3.256   3.170   5.571  0.4059  0.7528 -0.5117
  406SOL     vw 1624   3.170   3.159   5.568  0.5423 -0.5352 -0.1051
  407SOL     ow 1625   6.645   4.137   1.865 -0.5380  0.2093 -0.1244
  407SOL     hw 1626   6.564   4.100   1.902 -1.5124  1.6708 -0.6863
  407SOL     hw 1627   6.638   4.231   1.882  0.4285  0.5267 -1.3201
  407SOL     vw 1628   6.633   4.145   1.872 -0.5388  0.4442 -0.3563
  408SOL     ow 1629   6.462   2.435   4.129  0.0641  0.0797 -0.5640
  408SOL     hw 1630   6.533   2.392   4.080  0.6437  0.9360 -0.4960
  408SOL     hw 1631   6.447   2.517   4.083  0.7999  1.0269  0.8043
  408SOL     vw 1632   6.470   2.440   4.116  0.2377  0.3176 -0.3746
  409SOL     ow 1633   6.956   6.790   2.913 -0.4283 -0.5221  0.6596
  409SOL     hw 1634   6.950   6.839   2.995 -0.5261 -0.8589  0.8562
  409SOL     hw 1635   6.989   6.704   2.939  1.3906 -0.0332  0.1115
  409SOL     vw 1636   6.959   6.785   2.927 -0.2012 -0.5019  0.6133
  410SOL     ow 1637   0.328   6.141   6.456 -0.4424  0.3335  0.1324
  410SOL     hw 1638   0.272   6.088   6.399 -1.4251  0.3366  1.0716
  410SOL     hw 1639   0.317   6.231   6.424  0.1119  0.1740 -0.5466
  410SOL     vw 1640   0.319   6.146   6.444 -0.4989  0.3130  0.1667
  411SOL     ow 1641   3.512   6.885   2.186 -0.7779 -0.9008 -0.6064
  411SOL     hw 1642   3.535   6.833   2.109 -0.2432 -1.6784  0.0517
  411SOL     hw 1643   3.443   6.944   2.156 -0.0937 -0.6941 -1.8514
  411SOL     vw 1644   3.506   6.886   2.172 -0.6170 -0.9761 -0.6838
  412SOL     ow 1645   6.911   5.120   6.956 -0.3459 -0.4397 -0.0345
  412SOL     hw 1646   6.985   5.065   6.984 -0.5514 -1.0370 -0.6411
  412SOL     hw 1647   6.944   5.166   6.879  0.0166  0.7435  0.8006
  412SOL     vw 1648   6.925   5.119   6.950 -0.3254 -0.3622 -0.0043
  413SOL     ow 1649   1.413   2.096   5.392 -0.3271 -0.0009  0.6070
  413SOL     hw 1650   1.496   2.142   5.404  0.4091 -0.4122 -2.1029
  413SOL     hw 1651   1.369   2.146   5.322 -1.3348 -1.0918  0.4351
  413SOL     vw 1652   1.418   2.109   5.384 -0.3629 -0.1991  0.2265
  414SOL     ow 1653   3.641   0.587   5.459  0.1995  0.5373 -0.3850
  414SOL     hw 1654   3.677   0.498   5.462  1.5329  1.0729  0.6484
  414SOL     hw 1655   3.681   0.632   5.534 -0.2568  2.0780 -1.0176
  414SOL     vw 1656   3.651   0.581   5.470  0.3152  0.8112 -0.3321
  415SOL     ow 1657   1.093   3.383   2.644 -0.3575  0.0065 -1.0097
  415SOL     hw 1658   1.146   3.311   2.677  0.9912  0.8559 -1.2082
  415SOL     hw 1659   1.067   3.432   2.722 -1.1128 -0.5753 -0.8896
  415SOL     vw 1660   1.097   3.380   2.658 -0.2791  0.0418 -1.0200
  416SOL     ow 1661   0.349   1.335   1.681 -0.1211  0.2385  0.2285
  416SOL     hw 1662   0.396   1.384   1.749 -0.4117  4.6290 -2.3855
  416SOL     hw 1663   0.263   1.376   1.677  0.0861  0.6296 -3.1009
  416SOL     vw 1664   0.344   1.347   1.690 -0.1321  0.8694 -0.5557
  417SOL     ow 1665   5.594   2.166   7.073  0.7327 -0.3009  0.7904
  417SOL     hw 1666   5.573   2.255   7.101  1.3865  0.4923 -1.0540
  417SOL     hw 1667   5.510   2.126   7.055  0.4555  1.2596 -1.9760
  417SOL     vw 1668   5.580   2.173   7.074  0.7825  0.0094  0.1819
  418SOL     ow 1669   6.644   3.710   3.941  0.1198  0.3948 -0.2153
  418SOL     hw 1670   6.603   3.683   3.859 -1.4266 -0.1731  0.6877
  418SOL     hw 1671   6.639   3.806   3.940 -1.3646  0.3422 -0.1070
  418SOL     vw 1672   6.638   3.719   3.930 -0.2801  0.3129 -0.0820
  419SOL     ow 1673   5.178   4.784   6.731 -0.6876  0.3147 -0.3354
  419SOL     hw 1674   5.165   4.733   6.651  0.2538 -0.5846  0.0685
  419SOL     hw 1675   5.098   4.768   6.783 -2.3185  2.6019 -1.9274
  419SOL     vw 1676   5.165   4.775   6.727 -0.7787  0.4978 -0.4923
  420SOL     ow 1677   1.714   1.054   0.412 -0.3660 -0.0912 -0.1940
  420SOL     hw 1678   1.805   1.065   0.385 -0.2898  0.3288  0.2118
  420SOL     hw 1679   1.665   1.048   0.331 -0.0584  0.4020 -0.4176
  420SOL     vw 1680   1.719   1.054   0.398 -0.3154  0.0294 -0.1700
  421SOL     ow 1681   5.020   0.168   1.887  0.5636  0.5433  0.0328
  421SOL     hw 1682   4.955   0.157   1.818  0.5714 -0.6644  0.1920
  421SOL     hw 1683   5.045   0.078   1.910  1.9674  0.9796  0.2730
  421SOL     vw 1684   5.015   0.155   1.881  0.7498  0.4416  0.0854
  422SOL     ow 1685   5.175   2.811   3.098 -0.1232  0.5286 -0.1077
  422SOL     hw 1686   5.202   2.861   3.021  2.8573  0.2697  0.6558
  422SOL     hw 1687   5.217   2.725   3.087  0.4993  0.5379  1.8477
  422SOL     vw 1688   5.184   2.806   3.086  0.3524  0.4956  0.2511
  423SOL     ow 1689   0.543   2.176   5.642  0.0434  0.2151  0.1758
  423SOL     hw 1690   0.493   2.239   5.693 -0.1683 -0.9131  1.4317
  423SOL     hw 1691   0.626   2.219   5.624 -0.4232  1.1699  0.2319
  423SOL     vw 1692   0.547   2.190   5.646 -0.0461  0.1922  0.3488
  424SOL     ow 1693   4.540   0.380   4.735 -0.0480  0.1213 -0.3504
  424SOL     hw 1694   4.505   0.438   4.803  0.7620 -1.4970  1.5531
  424SOL     hw 1695   4.466   0.365   4.676 -1.6806 -0.6287  1.7418
  424SOL     vw 1696   4.526   0.385   4.736 -0.1566 -0.1912  0.1764
  425SOL     ow 1697   6.399   4.755   1.045  0.7461 -0.1352  0.5096
  425SOL     hw 1698   6.360   4.766   0.958 -2.2468 -1.4871  1.5341
  425SOL     hw 1699   6.409   4.661   1.055  0.8708 -0.0121  1.6795
  425SOL     vw 1700   6.395   4.744   1.034  0.3676 -0.2973  0.7992
  426SOL     ow 1701   0.594   3.348   1.381 -0.1507  0.1139  0.1862
  426SOL     hw 1702   0.659   3.396   1.330  0.0599  0.4584  0.7615
  426SOL     hw 1703   0.600   3.258   1.349 -1.2256  0.6284 -1.5830
  426SOL     vw 1704   0.603   3.343   1.370 -0.2648  0.2275  0.0287
  427SOL     ow 1705   6.729   4.842   4.178  0.2055 -0.0517 -0.1599
  427SOL     hw 1706   6.677   4.910   4.221  1.2654  1.9424 -1.8443
  427SOL     hw 1707   6.684   4.827   4.095 -0.0593 -1.5189  0.2303
  427SOL     vw 1708   6.716   4.849   4.173  0.3104  0.0176 -0.3307
  428SOL     ow 1709   2.090   3.843   2.990  0.1678 -0.0930 -0.6138
  428SOL     hw 1710   2.173   3.859   2.946  0.3443  1.8369  0.3199
  428SOL     hw 1711   2.114   3.803   3.073  0.3852  2.0474  0.4328
  428SOL     vw 1712   2.104   3.840   2.995  0.2198  0.4439 -0.3524
  429SOL     ow 1713   0.696   1.758   6.479  0.2055  0.0498 -0.4638
  429SOL     hw 1714   0.706   1.827   6.414 -0.2897 -0.0147 -0.6085
  429SOL     hw 1715   0.781   1.713   6.480  0.0645 -0.2517 -1.4056
  429SOL     vw 1716   0.709   1.761   6.471  0.1216  0.0016 -0.6070
  430SOL     ow 1717   0.325   1.296   2.012 -0.0182  0.0271  0.4939
  430SOL     hw 1718   0.381   1.370   2.038  0.3048 -0.1961  0.4437
  430SOL     hw 1719   0.387   1.229   1.983 -0.3811  0.3560 -1.1066
  430SOL     vw 1720   0.341   1.297   2.012 -0.0235  0.0411  0.2762
  431SOL     ow 1721   1.738   4.603   2.196  0.1574 -0.1184  0.4422
  431SOL     hw 1722   1.822   4.632   2.230  0.0299  1.7254 -0.6934
  431SOL     hw 1723   1.676   4.623   2.266  0.5728 -1.1138  1.1210
  431SOL     vw 1724   1.741   4.609   2.210  0.1954 -0.0064  0.3819
  432SOL     ow 1725   3.833   4.056   4.720 -0.2784 -0.0913  0.2253
  432SOL     hw 1726   3.907   4.074   4.662  0.2429 -1.5612  0.3825
  432SOL     hw 1727   3.863   3.983   4.774 -1.2124  0.4490  1.5032
  432SOL     vw 1728   3.847   4.048   4.719 -0.3327 -0.2141  0.4146
  433SOL     ow 1729   0.504   1.075   1.652 -0.5256  0.2447 -0.1915
  433SOL     hw 1730   0.595   1.101   1.668 -0.3867  0.7379 -1.7020
  433SOL     hw 1731   0.507   0.979   1.649 -0.4330  0.1348  1.7657
  433SOL     vw 1732   0.516   1.066   1.654 -0.4951  0.2952 -0.1325
  434SOL     ow 1733   4.150   1.028   1.589  0.3206 -0.1097  0.0546
  434SOL     hw 1734   4.230   1.009   1.539 -0.1579  0.7669 -1.0967
  434SOL     hw 1735   4.138   0.951   1.645  1.4258 -0.6893 -0.4714
  434SOL     vw 1736   4.159   1.015   1.590  0.4036 -0.0705 -0.1667
  435SOL     ow 1737   1.915   1.071   5.769 -0.1007 -0.0740 -0.2443
  435SOL     hw 1738   1.882   1.143   5.715  0.6544 -0.8032 -1.7431
  435SOL     hw 1739   1.839   1.045   5.822 -0.7884  0.8791 -0.7266
  435SOL     vw 1740   1.900   1.077   5.769 -0.0919 -0.0445 -0.5057
  436SOL     ow 1741   0.640   6.148   0.812 -0.0202  0.4071 -0.1300
  436SOL     hw 1742   0.697   6.075   0.836  0.3630  0.6534 -0.2824
  436SOL     hw 1743   0.554   6.107   0.799 -0.1969  0.2427  1.4285
  436SOL     vw 1744   0.636   6.133   0.813  0.0070  0.4177  0.0555
  437SOL     ow 1745   1.023   1.738   5.070 -0.0163  0.1814  0.5607
  437SOL     hw 1746   0.931   1.737   5.044 -0.0285  0.8143  0.5587
  437SOL     hw 1747   1.069   1.695   4.998 -0.3256 -0.3107  0.6491
  437SOL     vw 1748   1.017   1.732   5.057 -0.0587  0.2000  0.5722
  438SOL     ow 1749   6.856   6.419   0.435  0.4443 -0.1132 -0.1498
  438SOL     hw 1750   6.798   6.375   0.372  0.6544 -0.5868 -0.0203
  438SOL     hw 1751   6.893   6.348   0.486  0.7924  0.2229  0.0685
  438SOL     vw 1752   6.853   6.404   0.433  0.5181 -0.1314 -0.1039
  439SOL     ow 1753   5.845   7.035   5.831  0.0704 -0.6368 -0.0371
  439SOL     hw 1754   5.862   7.128   5.843 -0.2219 -0.6316  0.3716
  439SOL     hw 1755   5.885   6.993   5.908 -1.4210 -0.6584  0.7480
  439SOL     vw 1756   5.853   7.041   5.843 -0.1650 -0.6390  0.1204
  440SOL     ow 1757   3.707   1.162   2.117  0.0286  1.2176 -0.4234
  440SOL     hw 1758   3.650   1.214   2.061  0.2635  0.9108 -0.9500
  440SOL     hw 1759   3.772   1.225   2.149 -1.2017  1.8027  1.0330
  440SOL     vw 1760   3.708   1.178   2.114 -0.1028  1.2543 -0.3006
  441SOL     ow 1761   2.580   5.783   4.921 -0.3875 -0.1794  0.0895
  441SOL     hw 1762   2.542   5.841   4.987  0.1241  1.0619 -0.6892
  441SOL     hw 1763   2.634   5.722   4.971 -1.4134 -0.4021  0.9751
  441SOL     vw 1764   2.582   5.782   4.936 -0.4553 -0.0453  0.1037
  442SOL     ow 1765   2.658   2.335   1.304  0.4628 -0.0236  0.0686
  442SOL     hw 1766   2.712   2.350   1.227  0.5875  0.2332  0.2023
  442SOL     hw 1767   2.681   2.407   1.363 -0.7035  0.6438 -0.2505
  442SOL     vw 1768   2.668   2.347   1.302  0.3254  0.0982  0.0442
  443SOL     ow 1769   3.459   6.455   2.940 -0.3154 -0.0591  0.5505
  443SOL     hw 1770   3.462   6.518   2.869 -1.0379 -0.7755 -0.1410
  443SOL     hw 1771   3.387   6.396   2.917 -0.0134 -0.8092  1.4410
  443SOL     vw 1772   3.450   6.455   2.928 -0.3709 -0.2525  0.5767
  444SOL     ow 1773   4.978   1.563   0.912 -0.1730 -0.1017  0.1133
  444SOL     hw 1774   4.973   1.543   1.006  1.9333  0.6636  0.4405
  444SOL     hw 1775   4.968   1.658   0.907 -0.1216 -0.1208 -0.4359
  444SOL     vw 1776   4.976   1.573   0.924  0.1116 -0.0033  0.0840
  445SOL     ow 1777   2.314   2.615   3.229 -0.7995  0.1267 -0.1415
  445SOL     hw 1778   2.224   2.631   3.255 -0.4940  0.7200  0.6010
  445SOL     hw 1779   2.367   2.650   3.301  0.0507  0.7479 -1.0267
  445SOL     vw 1780   2.309   2.622   3.242 -0.6471  0.2868 -0.1605
  446SOL     ow 1781   6.454   1.624   3.142 -0.6462  0.1590  0.3301
  446SOL     hw 1782   6.480   1.575   3.221  1.7165  1.5207  0.4805
  446SOL     hw 1783   6.495   1.576   3.070  0.1332  0.8622  0.2970
  446SOL     vw 1784   6.463   1.611   3.143 -0.2315  0.4315  0.3456
  447SOL     ow 1785   1.206   0.290   4.402 -0.4548  0.5338 -0.2627
  447SOL     hw 1786   1.189   0.384   4.410 -0.3798  0.5621 -0.4163
  447SOL     hw 1787   1.273   0.284   4.334 -0.2119  0.3923 -0.0141
  447SOL     vw 1788   1.213   0.302   4.394 -0.4128  0.5189 -0.2501
  448SOL     ow 1789   0.956   6.661   4.558 -0.1010  0.0446  0.6100
  448SOL     hw 1790   0.869   6.625   4.544  0.2635  0.4452 -4.0711
  448SOL     hw 1791   1.013   6.584   4.559 -0.0627 -0.0351 -1.9629
  448SOL     vw 1792   0.952   6.646   4.556 -0.0479  0.0870 -0.3471
  449SOL     ow 1793   1.847   4.133   0.776  0.0319 -0.9313 -0.0017
  449SOL     hw 1794   1.863   4.223   0.803 -2.0083 -0.5483  0.1345
  449SOL     hw 1795   1.761   4.112   0.813 -0.0488 -2.5408 -0.9989
  449SOL     vw 1796   1.838   4.142   0.784 -0.2478 -1.0931 -0.1152
  450SOL     ow 1797   3.350   3.537   2.090 -0.2451 -0.5133  0.5280
  450SOL     hw 1798   3.315   3.492   2.168 -1.3368 -0.2837  0.1866
  450SOL     hw 1799   3.350   3.630   2.114 -0.5884 -0.4419  0.2564
  450SOL     vw 1800   3.345   3.543   2.104 -0.4344 -0.4736  0.4473
  451SOL     ow 1801   5.060   6.518   1.753 -0.1685 -0.0860 -0.0834
  451SOL     hw 1802   5.106   6.454   1.699 -0.3973 -0.6789  0.4024
  451SOL     hw 1803   5.082   6.603   1.715 -0.3474 -0.4856 -1.1179
  451SOL     vw 1804   5.069   6.520   1.741 -0.2222 -0.2170 -0.1558
  452SOL     ow 1805   1.194   0.172   4.724 -0.0397 -0.4064 -0.0928
  452SOL     hw 1806   1.247   0.111   4.776 -2.3228 -1.2729  1.4065
  452SOL     hw 1807   1.110   0.176   4.771 -0.0048  4.0968  0.0364
  452SOL     vw 1808   1.190   0.164   4.737 -0.3363  0.0734  0.1223
  453SOL     ow 1809   2.903   1.795   3.100  0.2093  0.2135 -0.5250
  453SOL     hw 1810   2.901   1.718   3.043  0.0861  2.2223 -3.4437
  453SOL     hw 1811   2.989   1.834   3.084 -0.5292  1.8109 -0.7971
  453SOL     vw 1812   2.914   1.790   3.091  0.0957  0.6893 -0.9460
  454SOL     ow 1813   2.982   4.709   3.068  0.1450 -0.4615  0.5835
  454SOL     hw 1814   2.906   4.740   3.019  1.1819  0.7017 -0.3674
  454SOL     hw 1815   2.966   4.739   3.158  0.0536  0.9110  0.1339
  454SOL     vw 1816   2.970   4.717   3.074  0.2698 -0.1268  0.3988
  455SOL     ow 1817   3.444   4.335   3.924  0.0849  0.1534 -0.1476
  455SOL     hw 1818   3.389   4.274   3.974 -0.0579 -0.2971 -0.8511
  455SOL     hw 1819   3.486   4.281   3.857 -0.4583  0.9108 -1.1269
  455SOL     vw 1820   3.443   4.320   3.922 -0.0056  0.1941 -0.3695
  456SOL     ow 1821   4.196   5.231   0.130 -0.3221 -0.3065  0.2278
  456SOL     hw 1822   4.190   5.270   0.043  1.6448  1.9529  1.0158
  456SOL     hw 1823   4.222   5.140   0.113  1.1432  0.3781 -1.5506
  456SOL     vw 1824   4.198   5.224   0.116  0.1307  0.0818  0.0971
  457SOL     ow 1825   2.616   3.334   5.650 -0.8633 -0.2077  0.2549
  457SOL     hw 1826   2.541   3.289   5.610 -1.1381  0.4580 -0.0081
  457SOL     hw 1827   2.602   3.325   5.744 -1.5226  0.2982  0.2114
  457SOL     vw 1828   2.604   3.327   5.657 -0.9865 -0.0532  0.2143
  458SOL     ow 1829   6.394   2.650   0.016  0.4519 -0.2684  0.5808
  458SOL     hw 1830   6.414   2.605  -0.066 -3.7648 -0.2544 -0.6803
  458SOL     hw 1831   6.402   2.743  -0.005  1.6418 -0.2739  0.9336
  458SOL     vw 1832   6.398   2.656   0.003  0.0527 -0.2673  0.4609
  459SOL     ow 1833   5.083   4.843   1.771  0.1291 -0.0106  0.0207
  459SOL     hw 1834   5.011   4.884   1.819 -0.2147  0.6386 -1.0196
  459SOL     hw 1835   5.069   4.749   1.784 -1.3078  0.0779 -0.6951
  459SOL     vw 1836   5.071   4.836   1.779 -0.1059  0.0868 -0.2111
  460SOL     ow 1837   0.514   1.395   0.048  0.0278 -0.2110 -0.0102
  460SOL     hw 1838   0.548   1.309   0.072 -0.7199 -0.9986 -1.6359
  460SOL     hw 1839   0.570   1.457   0.096  1.8755 -1.5372 -0.3430
  460SOL     vw 1840   0.526   1.392   0.057  0.1730 -0.4899 -0.2686
  461SOL     ow 1841   1.055   6.063   0.914 -0.1407  0.0445  0.1953
  461SOL     hw 1842   0.968   6.025   0.913 -0.6001  0.9963  1.2574
  461SOL     hw 1843   1.112   5.994   0.948 -0.2297 -0.9927 -1.6265
  461SOL     vw 1844   1.051   6.049   0.918 -0.2131  0.0334  0.0950
  462SOL     ow 1845   4.407   6.170   6.273  0.2181  0.0417 -0.1677
  462SOL     hw 1846   4.459   6.195   6.350 -1.4757  3.0472  0.1375
  462SOL     hw 1847   4.442   6.226   6.203  0.2882 -1.1077 -1.0667
  462SOL     vw 1848   4.419   6.181   6.274  0.0038  0.2866 -0.2460
  463SOL     ow 1849   6.744   1.594   5.429  0.1899  0.0709 -0.0792
  463SOL     hw 1850   6.728   1.603   5.336 -0.8456 -0.7175  0.0001
  463SOL     hw 1851   6.658   1.575   5.467  0.7207 -0.4969  0.9099
  463SOL     vw 1852   6.731   1.592   5.422  0.1235 -0.1080  0.0618
  464SOL     ow 1853   3.307   1.196   6.568  0.3579 -0.0174 -0.3471
  464SOL     hw 1854   3.338   1.241   6.647 -0.8491 -1.5781  1.0893
  464SOL     hw 1855   3.213   1.213   6.565 -0.2609 -2.7710  0.5770
  464SOL     vw 1856   3.299   1.204   6.578  0.1169 -0.5867 -0.0358
  465SOL     ow 1857   2.398   4.954   2.853 -0.0538  0.1633  0.1939
  465SOL     hw 1858   2.342   4.876   2.862  1.4819 -1.0973 -0.5565
  465SOL     hw 1859   2.482   4.919   2.822  0.3740  2.2478 -1.1969
  465SOL     vw 1860   2.402   4.939   2.850  0.2054  0.2718 -0.0888
  466SOL     ow 1861   0.670   0.558   6.405 -0.2220 -0.1181 -0.4551
  466SOL     hw 1862   0.757   0.569   6.444 -0.4358 -2.5495  0.9669
  466SOL     hw 1863   0.687   0.539   6.313  0.7523 -0.3234 -0.2409
  466SOL     vw 1864   0.684   0.557   6.398 -0.1217 -0.4660 -0.2391
  467SOL     ow 1865   3.260   4.935   5.694  0.2030 -0.2168  0.3928
  467SOL     hw 1866   3.240   4.983   5.774  2.2253  1.0497  0.2208
  467SOL     hw 1867   3.315   4.995   5.644 -1.4937 -0.7328 -2.2588
  467SOL     vw 1868   3.265   4.949   5.698  0.2460 -0.1178  0.0200
  468SOL     ow 1869   2.483   3.454   5.278 -0.2843 -0.1788 -0.2529
  468SOL     hw 1870   2.398   3.482   5.312  0.3390  0.0243  1.1999
  468SOL     hw 1871   2.547   3.502   5.330  0.8096 -3.1884  1.4808
  468SOL     vw 1872   2.480   3.464   5.289 -0.0578 -0.5490  0.1674
  469SOL     ow 1873   0.021   6.375   0.237 -0.3052  0.2057 -0.2486
  469SOL     hw 1874   0.003   6.289   0.199  0.1027  0.0029  0.0080
  469SOL     hw 1875   0.109   6.396   0.206 -1.2103  1.5391 -2.1581
  469SOL     vw 1876   0.030   6.366   0.228 -0.3708  0.3550 -0.4667
  470SOL     ow 1877   0.227   2.309   5.676  0.0734 -0.0405  0.1205
  470SOL     hw 1878   0.155   2.372   5.673  0.6403  0.6216  0.2928
  470SOL     hw 1879   0.267   2.321   5.762  0.1713 -0.6607  0.1693
  470SOL     vw 1880   0.223   2.319   5.687  0.1611 -0.0350  0.1497
  471SOL     ow 1881   6.210   2.210   0.280  0.1323  0.6323 -0.1573
  471SOL     hw 1882   6.264   2.171   0.350  0.3551 -1.8251 -1.5870
  471SOL     hw 1883   6.126   2.227   0.322  0.4325 -0.2813  0.8709
  471SOL     vw 1884   6.206   2.207   0.295  0.2012  0.1874 -0.2103
  472SOL     ow 1885   5.264   4.618   6.344  0.0073  0.8545 -0.8042
  472SOL     hw 1886   5.299   4.706   6.358  1.6198  0.3109 -1.2250
  472SOL     hw 1887   5.197   4.630   6.277 -0.5931  1.9158 -0.0499
  472SOL     vw 1888   5.260   4.631   6.337  0.1411  0.9229 -0.7603
  473SOL     ow 1889   3.102   3.856   1.296 -0.5416  0.3245 -0.0553
  473SOL     hw 1890   3.188   3.815   1.287 -0.7236 -0.1504  0.2966
  473SOL     hw 1891   3.041   3.791   1.260 -1.0047 -0.4568  1.9945
  473SOL     vw 1892   3.105   3.842   1.290 -0.6268  0.1587  0.2615
  474SOL     ow 1893   4.252   5.953   5.468  0.6668  0.0996  0.2557
  474SOL     hw 1894   4.238   5.879   5.527  2.5481 -0.0374  0.6185
  474SOL     hw 1895   4.183   6.015   5.489 -1.5540 -1.8930 -0.7106
  474SOL     vw 1896   4.241   5.952   5.478  0.6218 -0.1812  0.1764
  475SOL     ow 1897   5.908   6.583   4.705 -0.1583  0.2389  0.2439
  475SOL     hw 1898   6.001   6.575   4.726 -0.6309  1.3788  3.1958
  475SOL     hw 1899   5.881   6.494   4.679  1.4406 -0.4183  0.7534
  475SOL     vw 1900   5.916   6.570   4.705 -0.0098  0.3026  0.7007
  476SOL     ow 1901   6.444   2.491   0.933 -0.3613  0.1930 -0.1117
  476SOL     hw 1902   6.441   2.485   0.838  1.0793  0.8485 -0.2219
  476SOL     hw 1903   6.477   2.579   0.951  0.6579 -0.3727  0.9555
  476SOL     vw 1904   6.448   2.502   0.923 -0.0367  0.2048  0.0145
  477SOL     ow 1905   2.212   2.365   2.725 -0.5283 -0.2732 -0.0572
  477SOL     hw 1906   2.166   2.445   2.701 -0.7169 -0.8227 -1.6291
  477SOL     hw 1907   2.174   2.339   2.809  0.0484  1.6498  0.8555
  477SOL     vw 1908   2.201   2.372   2.733 -0.4772 -0.0918 -0.1442
  478SOL     ow 1909   4.767   4.802   1.798  0.5240  0.1996  0.2887
  478SOL     hw 1910   4.777   4.840   1.711  0.3003 -0.3619  0.0156
  478SOL     hw 1911   4.815   4.719   1.794  0.5749  0.2074  0.7206
  478SOL     vw 1912   4.775   4.796   1.786  0.5009  0.1266  0.3097
  479SOL     ow 1913   6.763   3.308   4.331  0.5824 -0.2676 -0.2206
  479SOL     hw 1914   6.852   3.273   4.336  0.6667 -0.0040  0.1446
  479SOL     hw 1915   6.769   3.379   4.267  0.2493 -1.3747 -1.5529
  479SOL     vw 1916   6.775   3.313   4.323  0.5496 -0.3788 -0.3481
  480SOL     ow 1917   2.717   2.558   1.456  0.1984 -0.3356 -0.2633
  480SOL     hw 1918   2.787   2.587   1.516  0.2890 -3.2548  1.2238
  480SOL     hw 1919   2.639   2.553   1.511 -0.2674 -0.9114 -0.9628
  480SOL     vw 1920   2.716   2.561   1.471  0.1488 -0.7968 -0.1594
  481SOL     ow 1921   4.066   3.526   1.648  0.4356  0.1309  0.0561
  481SOL     hw 1922   4.001   3.495   1.711  0.7455 -1.2741 -0.2809
  481SOL     hw 1923   4.076   3.454   1.586  2.8836 -0.0143  0.5269
  481SOL     vw 1924   4.059   3.513   1.648  0.7997 -0.0737  0.0737
  482SOL     ow 1925   3.258   4.692   5.530 -0.1902 -0.0679  0.2439
  482SOL     hw 1926   3.347   4.656   5.542  0.2164  0.0786 -2.0150
  482SOL     hw 1927   3.206   4.617   5.503 -0.3794  0.1615 -0.0282
  482SOL     vw 1928   3.263   4.677   5.528 -0.1615 -0.0186 -0.0901
  483SOL     ow 1929   3.567   4.039   4.808 -0.0324 -0.2148  0.3680
  483SOL     hw 1930   3.504   4.021   4.739  1.2297  2.5930 -1.7674
  483SOL     hw 1931   3.559   3.967   4.869 -1.9385 -2.3754 -2.2268
  483SOL     vw 1932   3.558   4.027   4.807 -0.1174 -0.1292 -0.2561
  484SOL     ow 1933   6.412   5.467   1.167 -0.2556 -0.2401  0.2321
  484SOL     hw 1934   6.425   5.531   1.237  2.0237 -1.3826  0.9680
  484SOL     hw 1935   6.318   5.468   1.150 -0.4668  2.2245  1.2020
  484SOL     vw 1936   6.401   5.475   1.174  0.0172 -0.0653  0.4572
  485SOL     ow 1937   6.887   3.804   6.410  0.0750  0.8086 -0.2248
  485SOL     hw 1938   6.943   3.881   6.413  0.7436  0.3295 -0.1724
  485SOL     hw 1939   6.911   3.753   6.488  1.1654 -0.4849 -1.3589
  485SOL     vw 1940   6.897   3.807   6.421  0.3071  0.5747 -0.3674
  486SOL     ow 1941   0.924   4.374   5.612 -0.2941  0.0106 -0.2234
  486SOL     hw 1942   0.977   4.409   5.684 -0.4296 -0.3179  0.0398
  486SOL     hw 1943   0.962   4.288   5.594 -0.6117 -0.1449 -0.1647
  486SOL     vw 1944   0.936   4.367   5.619 -0.3539 -0.0532 -0.1807
  487SOL     ow 1945   5.240   0.774   3.789  0.5057  0.0313  0.1641
  487SOL     hw 1946   5.286   0.856   3.808 -0.2485  1.1750 -2.4283
  487SOL     hw 1947   5.161   0.802   3.741 -0.0867 -2.1721 -0.2461
  487SOL     vw 1948   5.235   0.789   3.785  0.3276 -0.1085 -0.2320
  488SOL     ow 1949   3.184   1.501   6.968  0.5579  0.4726 -0.0762
  488SOL     hw 1950   3.207   1.426   7.022 -0.4586  1.2341  1.5099
  488SOL     hw 1951   3.266   1.528   6.927  1.2843 -0.3843  0.7898
  488SOL     vw 1952   3.198   1.495   6.970  0.5198  0.4600  0.2472
  489SOL     ow 1953   0.015   6.796   5.197  0.8211  0.2063 -0.1584
  489SOL     hw 1954   0.029   6.746   5.116 -0.2275 -0.8709  0.2880
  489SOL     hw 1955   0.012   6.887   5.168  0.9498 -0.1211 -1.2661
  489SOL     vw 1956   0.016   6.801   5.182  0.6997  0.0212 -0.2456
  490SOL     ow 1957   1.978   4.481   5.229  0.3881 -0.1569  0.1788
  490SOL     hw 1958   1.963   4.402   5.176 -1.7854 -0.2440  0.8308
  490SOL     hw 1959   2.039   4.533   5.177  0.7188 -1.6055 -0.9585
  490SOL     vw 1960   1.984   4.477   5.215  0.1449 -0.3593  0.1149
  491SOL     ow 1961   4.392   4.774   1.271  0.0644  0.1899  0.8290
  491SOL     hw 1962   4.391   4.698   1.330 -2.2497 -0.1810  0.4336
  491SOL     hw 1963   4.334   4.837   1.313  0.9114  1.2311  0.4801
  491SOL     vw 1964   4.384   4.772   1.284 -0.1292  0.2782  0.7308
  492SOL     ow 1965   5.364   0.670   3.329 -0.2908  0.1749 -0.4649
  492SOL     hw 1966   5.345   0.647   3.238 -1.2423 -0.1412 -0.1983
  492SOL     hw 1967   5.279   0.668   3.372  0.2263 -0.3193  0.5746
  492SOL     vw 1968   5.351   0.666   3.322 -0.3479  0.0679 -0.2924
  493SOL     ow 1969   2.391   0.119   6.562  0.0270 -0.5492  0.1816
  493SOL     hw 1970   2.371   0.059   6.490  2.1562 -0.5320 -0.4820
  493SOL     hw 1971   2.426   0.063   6.631 -1.0253 -0.4279  0.8408
  493SOL     vw 1972   2.393   0.104   6.562  0.1690 -0.5309  0.1812
  494SOL     ow 1973   4.258   5.529   4.538 -0.5708  0.5162 -0.3830
  494SOL     hw 1974   4.249   5.457   4.475  0.7043  0.7112 -0.8114
  494SOL     hw 1975   4.169   5.563   4.548 -1.9032 -3.1359  2.2720
  494SOL     vw 1976   4.245   5.524   4.531 -0.5786  0.0598 -0.0892
  495SOL     ow 1977   1.429   4.429   4.211 -0.0996  0.0459 -0.0300
  495SOL     hw 1978   1.357   4.381   4.252 -0.6314  2.2327  1.8270
  495SOL     hw 1979   1.395   4.453   4.125 -0.7739 -0.7543 -0.0029
  495SOL     vw 1980   1.415   4.426   4.205 -0.2587  0.2286  0.2189
  496SOL     ow 1981   1.486   6.671   5.756 -0.3154 -0.3430 -0.1629
  496SOL     hw 1982   1.399   6.682   5.794 -0.6647 -1.3416 -0.6172
  496SOL     hw 1983   1.547   6.688   5.828 -0.8674  0.8766  0.0246
  496SOL     vw 1984   1.483   6.674   5.771 -0.4343 -0.3140 -0.1979
  497SOL     ow 1985   6.745   3.554   4.172  0.0713 -0.1735  0.1119
  497SOL     hw 1986   6.740   3.601   4.255  0.5163  1.0933 -0.5391
  497SOL     hw 1987   6.831   3.577   4.137 -0.2395 -0.4123 -0.8367
  497SOL     vw 1988   6.755   3.563   4.178  0.0892 -0.0380 -0.0992
  498SOL     ow 1989   5.427   4.061   2.473  0.1938 -0.3088 -0.0901
  498SOL     hw 1990   5.440   3.968   2.453  0.7693 -0.0300 -1.1224
  498SOL     hw 1991   5.513   4.091   2.503 -0.1332 -0.2292  0.7807
  498SOL     vw 1992   5.440   4.053   2.474  0.2265 -0.2615 -0.1116
  499SOL     ow 1993   2.368   2.038   2.801  0.0929  0.3606 -0.1456
  499SOL     hw 1994   2.336   2.094   2.730  1.4745  0.0314 -1.0676
  499SOL     hw 1995   2.387   1.955   2.758  0.4549 -0.0084  0.7188
  499SOL     vw 1996   2.366   2.035   2.786  0.3229  0.2685 -0.1531
  500SOL     ow 1997   5.692   0.279   2.209  0.4717 -0.1092  0.0903
  500SOL     hw 1998   5.614   0.232   2.236  1.5744 -3.3354 -1.7809
  500SOL     hw 1999   5.708   0.250   2.120  2.6568  2.0885 -0.3475
  500SOL     vw 2000   5.684   0.269   2.201  0.9053 -0.2449 -0.2143
  501SOL     ow 2001   6.438   4.755   1.331 -0.3323  0.1502  0.4930
  501SOL     hw 2002   6.344   4.741   1.316 -0.9919  2.7608  1.5447
  501SOL     hw 2003   6.450   4.738   1.424 -0.8352  3.9344  1.4414
  501SOL     vw 2004   6.427   4.751   1.341 -0.4857  0.9937  0.7570
  502SOL     ow 2005   5.912   2.153   3.496 -0.5106 -0.2944 -0.1695
  502SOL     hw 2006   5.938   2.074   3.543  0.1222 -0.2276 -0.3892
  502SOL     hw 2007   5.994   2.200   3.483 -0.5478 -0.7063 -2.0871
  502SOL     vw 2008   5.926   2.149   3.501 -0.4320 -0.3400 -0.4516
  503SOL     ow 2009   3.873   3.599   5.463 -0.1373 -0.3837 -0.4770
  503SOL     hw 2010   3.830   3.611   5.548 -0.5753  0.5524 -0.8204
  503SOL     hw 2011   3.835   3.666   5.407 -0.3947 -1.4473 -1.6288
  503SOL     vw 2012   3.862   3.609   5.467 -0.2291 -0.4004 -0.6742
  504SOL     ow 2013   6.921   1.107   0.668 -0.1094 -0.3594  0.0527
  504SOL     hw 2014   6.980   1.038   0.699  1.3804  1.4514  1.5629
  504SOL     hw 2015   6.873   1.067   0.596 -0.0298 -3.2517  1.4479
  504SOL     vw 2016   6.923   1.093   0.663  0.0978 -0.5020  0.4360
  505SOL     ow 2017   2.239   6.153   6.748  0.0578  0.0018 -0.3483
  505SOL     hw 2018   2.275   6.224   6.694  0.6034  0.0646  0.0861
  505SOL     hw 2019   2.316   6.111   6.786 -0.3170 -0.1507  0.2433
  505SOL     vw 2020   2.254   6.157   6.746  0.0803 -0.0100 -0.2131
  506SOL     ow 2021   1.177   1.701   5.368  0.6636 -0.4793 -0.0907
  506SOL     hw 2022   1.123   1.655   5.433 -1.8023  0.8977 -1.0293
  506SOL     hw 2023   1.202   1.783   5.411 -0.8330  0.3592 -0.7678
  506SOL     vw 2024   1.173   1.705   5.383  0.1408 -0.1870 -0.3040
  507SOL     ow 2025   4.673   1.033   4.499 -0.2847 -0.1624 -0.5134
  507SOL     hw 2026   4.616   0.960   4.520 -0.2114 -0.1422 -0.2372
  507SOL     hw 2027   4.619   1.111   4.512  0.6074  0.0638  2.7592
  507SOL     vw 2028   4.659   1.034   4.504 -0.1571 -0.1299 -0.0453
  508SOL     ow 2029   5.684   4.226   6.583  0.3248  0.7171 -0.3845
  508SOL     hw 2030   5.640   4.240   6.666 -0.1314  2.2677 -0.8594
  508SOL     hw 2031   5.766   4.182   6.607 -0.6269 -0.5742  0.6695
  508SOL     vw 2032   5.689   4.222   6.597  0.1390  0.7515 -0.3083
  509SOL     ow 2033   2.588   0.175   6.341  0.0489 -0.0226 -0.4449
  509SOL     hw 2034   2.529   0.186   6.266  0.1143 -3.9931 -1.2956
  509SOL     hw 2035   2.676   0.189   6.304 -0.0271 -0.0466 -0.6358
  509SOL     vw 2036   2.592   0.178   6.326  0.0474 -0.5496 -0.5827
  510SOL     ow 2037   5.399   4.671   6.950  0.1205 -0.2711 -0.3210
  510SOL     hw 2038   5.441   4.715   7.024  1.8640 -0.6222 -1.0435
  510SOL     hw 2039   5.467   4.612   6.916 -0.6119 -0.0740 -2.2344
  510SOL     vw 2040   5.413   4.669   6.956  0.2539 -0.2916 -0.6688
  511SOL     ow 2041   5.585   3.064   0.044  0.0730  0.4940 -0.2871
  511SOL     hw 2042   5.598   3.026   0.131  2.9442 -0.0473 -0.8334
  511SOL     hw 2043   5.581   3.158   0.060 -1.1182  0.3178  0.5565
  511SOL     vw 2044   5.586   3.072   0.057  0.2947  0.3992 -0.2479
  512SOL     ow 2045   6.404   0.255   2.702 -0.4234  0.3936 -0.4459
  512SOL     hw 2046   6.410   0.163   2.728 -2.2321  0.0182 -1.2083
  512SOL     hw 2047   6.354   0.254   2.620 -1.3133  2.1063  0.0204
  512SOL     vw 2048   6.398   0.242   2.695 -0.7794  0.5700 -0.4849
  513SOL     ow 2049   5.835   0.040   2.295  0.3170  0.2667  0.0884
  513SOL     hw 2050   5.773  -0.027   2.267 -0.5878 -0.3226  3.1663
  513SOL     hw 2051   5.912  -0.010   2.324  2.1012  0.9571 -3.0252
  513SOL     vw 2052   5.837   0.024   2.295  0.4327  0.2800  0.0837
  514SOL     ow 2053   3.500   3.068   1.080  0.2648 -0.1435  0.4543
  514SOL     hw 2054   3.593   3.088   1.074  0.5412 -1.6082 -0.7118
  514SOL     hw 2055   3.457   3.137   1.028  0.8322 -0.2537 -0.1708
  514SOL     vw 2056   3.506   3.080   1.072  0.3761 -0.3513  0.2180
  515SOL     ow 2057   6.586   3.131   4.521  0.1255  0.3660  0.1779
  515SOL     hw 2058   6.599   3.088   4.606  1.2272  0.5641  0.1187
  515SOL     hw 2059   6.516   3.194   4.538 -1.0353 -0.9449  0.4322
  515SOL     vw 2060   6.578   3.134   4.535  0.1178  0.2191  0.2038
  516SOL     ow 2061   2.834   3.478   1.842  0.0784  0.2161  0.1737
  516SOL     hw 2062   2.888   3.474   1.763 -0.0613  1.5785 -0.0074
  516SOL     hw 2063   2.772   3.549   1.825 -0.7676 -0.2937  1.0152
  516SOL     vw 2064   2.833   3.487   1.829 -0.0517  0.3287  0.2608
  517SOL     ow 2065   6.720   2.212   4.623 -0.6310  0.1516 -0.5604
  517SOL     hw 2066   6.727   2.275   4.695 -1.4138  0.6945 -0.9387
  517SOL     hw 2067   6.806   2.214   4.580 -0.0134 -0.4979  0.6008
  517SOL     vw 2068   6.732   2.220   4.627 -0.6528  0.1376 -0.4568
  518SOL     ow 2069   3.608   5.726   5.572  0.3397 -0.3123 -0.3726
  518SOL     hw 2070   3.541   5.724   5.503  1.5477  1.2476 -1.6717
  518SOL     hw 2071   3.599   5.813   5.611  3.4471  1.1609 -2.5795
  518SOL     vw 2072   3.598   5.737   5.568  0.9090  0.0877 -0.8352
  519SOL     ow 2073   2.188   6.377   0.158 -0.3198 -0.0618  0.2060
  519SOL     hw 2074   2.263   6.395   0.101 -0.9286 -0.7870 -0.8646
  519SOL     hw 2075   2.176   6.457   0.208  0.0142  0.7552 -0.9679
  519SOL     vw 2076   2.196   6.390   0.157 -0.3560 -0.0496 -0.0901
  520SOL     ow 2077   2.527   2.904   2.946 -0.2096 -0.4141  0.3450
  520SOL     hw 2078   2.500   2.966   2.879  1.4047 -0.7252 -0.6509
  520SOL     hw 2079   2.522   2.819   2.903  0.2856 -0.6796  0.8053
  520SOL     vw 2080   2.523   2.901   2.931  0.0688 -0.4902  0.2743
  521SOL     ow 2081   1.416   0.036   0.177  0.4140  0.1390 -0.1131
  521SOL     hw 2082   1.434   0.105   0.113 -0.0641  0.4445  0.0763
  521SOL     hw 2083   1.419  -0.045   0.126 -0.5491  0.4246 -0.6526
  521SOL     vw 2084   1.419   0.034   0.162  0.2239  0.2169 -0.1593
  522SOL     ow 2085   2.792   6.581   4.878 -0.0907 -0.1936 -0.1714
  522SOL     hw 2086   2.774   6.503   4.826  0.4138  0.2939 -1.0969
  522SOL     hw 2087   2.885   6.573   4.901  0.2604  0.6651 -1.2149
  522SOL     vw 2088   2.802   6.569   4.874  0.0222 -0.0157 -0.4311
  523SOL     ow 2089   3.235   0.221   5.256 -0.3157 -0.0154 -0.1611
  523SOL     hw 2090   3.298   0.256   5.193  2.5027 -3.1218  0.5882
  523SOL     hw 2091   3.243   0.278   5.332 -1.0900  1.6856 -1.3211
  523SOL     vw 2092   3.245   0.233   5.258 -0.0459 -0.2009 -0.2155
  524SOL     ow 2093   0.125   0.671   5.256 -0.0094  0.8044  0.6643
  524SOL     hw 2094   0.121   0.635   5.345  1.6591 -1.2282 -0.0016
  524SOL     hw 2095   0.059   0.622   5.208 -1.1697  2.1618  0.8246
  524SOL     vw 2096   0.116   0.660   5.261  0.0576  0.7153  0.5975
  525SOL     ow 2097   1.268   5.521   4.137 -0.0671  0.1551 -0.0237
  525SOL     hw 2098   1.222   5.441   4.111 -0.4907 -0.6291  2.7956
  525SOL     hw 2099   1.312   5.498   4.219  0.5826  2.5547  0.3782
  525SOL     vw 2100   1.268   5.508   4.145 -0.0373  0.3684  0.4013
  526SOL     ow 2101   2.912   0.529   0.444  0.1537  0.3776 -0.1276
  526SOL     hw 2102   2.825   0.524   0.483 -0.1546  0.5708 -0.7785
  526SOL     hw 2103   2.957   0.450   0.474  0.0407  0.6811  0.8864
  526SOL     vw 2104   2.907   0.518   0.453  0.0981  0.4431 -0.0797
  527SOL     ow 2105   4.446   3.562   2.764 -0.0079  0.6955  0.6594
  527SOL     hw 2106   4.355   3.591   2.769 -0.1475  0.1780  1.1764
  527SOL     hw 2107   4.461   3.550   2.670 -0.5323  0.5915  0.5819
  527SOL     vw 2108   4.436   3.564   2.752 -0.0956  0.6133  0.7174
  528SOL     ow 2109   3.080   3.539   2.013 -0.5739 -0.0767  0.3166
  528SOL     hw 2110   3.055   3.563   2.102 -0.9923 -2.5503  0.9181
  528SOL     hw 2111   3.174   3.555   2.010 -0.5406 -0.0322  1.2180
  528SOL     vw 2112   3.089   3.545   2.024 -0.6247 -0.3971  0.5150
  529SOL     ow 2113   3.763   4.517   3.710 -0.0980 -0.0450  0.1182
  529SOL     hw 2114   3.686   4.566   3.739  0.0323  0.3966 -0.2661
  529SOL     hw 2115   3.742   4.426   3.730 -0.3833  0.1502  0.7572
  529SOL     vw 2116   3.750   4.512   3.717 -0.1184  0.0393  0.1520
  530SOL     ow 2117   5.964   6.576   2.637  0.5680 -0.3921  0.1104
  530SOL     hw 2118   5.970   6.649   2.700  1.9659 -0.3603 -0.0128
  530SOL     hw 2119   5.890   6.524   2.667  0.2053  0.5031  0.8320
  530SOL     vw 2120   5.955   6.579   2.649  0.7045 -0.2699  0.1894
  531SOL     ow 2121   4.547   5.203   1.259  0.0360 -0.6271 -0.2578
  531SOL     hw 2122   4.498   5.199   1.177  0.1781 -0.1910 -0.3686
  531SOL     hw 2123   4.637   5.183   1.235  0.9888  3.5514 -1.0188
  531SOL     vw 2124   4.553   5.200   1.245  0.1802 -0.0184 -0.3729
  532SOL     ow 2125   2.819   5.755   2.286 -0.0660 -0.0525  0.5687
  532SOL     hw 2126   2.879   5.812   2.333 -1.0932  1.0395  0.6196
  532SOL     hw 2127   2.872   5.681   2.258  0.5814 -0.8201  3.5306
  532SOL     vw 2128   2.834   5.753   2.289 -0.1160 -0.0098  0.9663
  533SOL     ow 2129   4.271   1.823   0.738 -0.5644 -0.4768  0.3800
  533SOL     hw 2130   4.354   1.865   0.716 -0.4096 -0.5462  0.8402
  533SOL     hw 2131   4.208   1.895   0.740 -0.5598 -0.4533 -0.1798
  533SOL     vw 2132   4.273   1.838   0.735 -0.5434 -0.4828  0.3668
  534SOL     ow 2133   0.906   1.013   3.008 -0.8024  0.0527  0.0255
  534SOL     hw 2134   0.882   1.088   2.953  0.8547  0.5754 -0.0300
  534SOL     hw 2135   0.824   0.965   3.019 -1.3795  0.4336 -2.1134
  534SOL     vw 2136   0.892   1.017   3.002 -0.6599  0.1719 -0.2640
  535SOL     ow 2137   5.385   1.967   5.152  0.0905 -0.0494 -0.0943
  535SOL     hw 2138   5.447   1.965   5.224  0.6340 -0.6772 -0.5766
  535SOL     hw 2139   5.312   2.020   5.185  0.3292 -0.3322  0.9075
  535SOL     vw 2140   5.383   1.974   5.166  0.1938 -0.1696 -0.0260
  536SOL     ow 2141   4.345   3.366   6.135  0.4122  0.5475 -0.2242
  536SOL     hw 2142   4.379   3.423   6.204 -0.6602  1.8240 -0.7006
  536SOL     hw 2143   4.305   3.427   6.072  0.5407 -0.6514 -1.4921
  536SOL     vw 2144   4.344   3.382   6.136  0.2875  0.5577 -0.4547
  537SOL     ow 2145   5.314   3.292   4.444 -0.1654  0.4210 -0.5469
  537SOL     hw 2146   5.378   3.305   4.375  0.9212  1.5548  0.6180
  537SOL     hw 2147   5.321   3.370   4.499  0.1046 -1.0740  1.6892
  537SOL     vw 2148   5.323   3.304   4.442  0.0136  0.3734 -0.0985
  538SOL     ow 2149   6.853   3.895   6.138  0.0377 -0.6082  0.1495
  538SOL     hw 2150   6.893   3.978   6.162  2.3029 -0.8005 -2.4925
  538SOL     hw 2151   6.775   3.919   6.087  1.6457  0.0646 -2.1638
  538SOL     vw 2152   6.848   3.909   6.135  0.5488 -0.5448 -0.5043
  539SOL     ow 2153   1.903   4.034   6.524  0.1475  0.0634 -0.4012
  539SOL     hw 2154   1.983   3.981   6.530  0.1955 -0.1886 -2.5578
  539SOL     hw 2155   1.930   4.121   6.554  0.4402 -0.7038  1.7581
  539SOL     vw 2156   1.918   4.038   6.529  0.1925 -0.0713 -0.4008
  540SOL     ow 2157   3.807   4.158   0.611  0.0971 -0.0538 -0.4293
  540SOL     hw 2158   3.757   4.228   0.653 -0.9952 -0.4543 -1.0163
  540SOL     hw 2159   3.863   4.123   0.681 -1.6222 -0.6647  0.7155
  540SOL     vw 2160   3.807   4.163   0.626 -0.2739 -0.1874 -0.3557
  541SOL     ow 2161   6.880   1.697   0.076 -0.0483 -0.2721 -0.0436
  541SOL     hw 2162   6.889   1.792   0.063 -1.9486 -0.1791 -1.0931
  541SOL     hw 2163   6.938   1.658   0.011  0.1697  0.1820 -0.1244
  541SOL     vw 2164   6.889   1.705   0.066 -0.2701 -0.1999 -0.1927
  542SOL     ow 2165   3.898   3.336   5.312 -0.1163  0.2951 -0.4304
  542SOL     hw 2166   3.870   3.415   5.359 -1.1003 -0.0231 -0.4519
  542SOL     hw 2167   3.929   3.277   5.380 -1.8810 -0.3051 -0.1020
  542SOL     vw 2168   3.898   3.339   5.327 -0.4789  0.1738 -0.3898
  543SOL     ow 2169   1.373   1.179   4.370 -0.2669 -0.2352  0.6293
  543SOL     hw 2170   1.303   1.166   4.434 -2.4869 -0.1884 -1.6625
  543SOL     hw 2171   1.432   1.104   4.383 -1.0211 -0.5896  2.2273
  543SOL     vw 2172   1.372   1.167   4.380 -0.6593 -0.2758  0.5376
  544SOL     ow 2173   4.470   5.740   0.059 -0.7341 -0.4624 -0.0779
  544SOL     hw 2174   4.465   5.732   0.154 -0.0340 -0.4555 -0.0291
  544SOL     hw 2175   4.522   5.664   0.032  0.2126  0.2440 -0.3109
  544SOL     vw 2176   4.476   5.729   0.068 -0.5167 -0.3681 -0.1022
  545SOL     ow 2177   1.985   4.017   2.774  0.5683 -0.7379  0.4631
  545SOL     hw 2178   2.064   4.063   2.804 -0.5242  0.5955  1.4423
  545SOL     hw 2179   2.018   3.946   2.719  2.4673 -0.5143  1.2316
  545SOL     vw 2180   2.000   4.013   2.771  0.6747 -0.5326  0.6936
  546SOL     ow 2181   6.868   3.896   0.690  0.0619 -0.1288 -0.2566
  546SOL     hw 2182   6.952   3.929   0.658  0.2918 -1.5295 -1.2135
  546SOL     hw 2183   6.890   3.816   0.737 -0.6543 -0.0103  0.2938
  546SOL     vw 2184   6.882   3.890   0.692 -0.0024 -0.2979 -0.3102
  547SOL     ow 2185   6.619   0.379   2.867  0.0801 -0.1364  0.8335
  547SOL     hw 2186   6.556   0.420   2.926 -1.9035 -2.0417  0.1413
  547SOL     hw 2187   6.678   0.331   2.925 -0.4980 -0.1962  1.3819
  547SOL     vw 2188   6.619   0.378   2.882 -0.2580 -0.3956  0.8146
  548SOL     ow 2189   5.378   5.951   3.266  0.3675 -0.5894  0.0226
  548SOL     hw 2190   5.295   5.968   3.221  0.0335 -1.3695  0.3179
  548SOL     hw 2191   5.443   5.946   3.196  0.3943  1.2122 -0.1250
  548SOL     vw 2192   5.376   5.952   3.251  0.3271 -0.4544  0.0421
  549SOL     ow 2193   1.945   1.813   0.558 -0.1236 -0.3546  0.0178
  549SOL     hw 2194   1.921   1.891   0.608  0.8354 -0.6918  1.0638
  549SOL     hw 2195   1.866   1.790   0.509 -1.1071  0.0040  1.3764
  549SOL     vw 2196   1.932   1.820   0.558 -0.1268 -0.3518  0.3351
  550SOL     ow 2197   2.856   6.814   0.894  0.4693  0.0230  0.3247
  550SOL     hw 2198   2.794   6.742   0.883 -0.5767  1.0711 -1.0974
  550SOL     hw 2199   2.877   6.841   0.804 -0.0121  2.1381  0.7973
  550SOL     vw 2200   2.851   6.808   0.880  0.2677  0.4404  0.1994
  551SOL     ow 2201   4.575   4.384   3.010  0.7352  0.0731  0.0276
  551SOL     hw 2202   4.650   4.444   3.008  2.1988 -1.5962  1.5071
  551SOL     hw 2203   4.568   4.353   2.920  0.8754  1.3437 -0.4437
  551SOL     vw 2204   4.584   4.388   2.998  0.9468  0.0203  0.1607
  552SOL     ow 2205   6.560   2.513   6.150 -0.2149  0.5493  0.4746
  552SOL     hw 2206   6.504   2.531   6.225  1.0722  1.0784  1.3455
  552SOL     hw 2207   6.629   2.456   6.184 -0.6988 -0.8625 -0.7864
  552SOL     vw 2208   6.562   2.508   6.164 -0.1090  0.4327  0.4232
  553SOL     ow 2209   0.829   3.569   1.765 -0.4532 -0.3131  0.1431
  553SOL     hw 2210   0.780   3.568   1.847 -1.0250 -1.5685 -0.1839
  553SOL     hw 2211   0.804   3.487   1.721  0.6614 -0.1796 -0.7983
  553SOL     vw 2212   0.819   3.558   1.770 -0.3815 -0.4610 -0.0242
  554SOL     ow 2213   0.877   6.260   1.161 -0.2158 -0.2117  0.4122
  554SOL     hw 2214   0.884   6.172   1.197 -1.5615 -0.2928  0.5428
  554SOL     hw 2215   0.928   6.315   1.220 -0.4608 -0.7110  1.0984
  554SOL     vw 2216   0.884   6.256   1.173 -0.4256 -0.2882  0.5199
  555SOL     ow 2217   6.049   6.735   0.196 -0.1520 -0.0238 -0.2930
  555SOL     hw 2218   5.975   6.697   0.148  0.9472 -2.1394 -0.4499
  555SOL     hw 2219   6.069   6.816   0.149 -0.9417 -0.5680 -1.6295
  555SOL     vw 2220   6.042   6.741   0.183 -0.1113 -0.3750 -0.4901
  556SOL     ow 2221   3.842   3.928   1.353 -0.0296 -0.2382  0.0301
  556SOL     hw 2222   3.873   3.968   1.272 -3.4298  1.5709 -0.5301
  556SOL     hw 2223   3.753   3.898   1.334 -1.5294  1.4856  3.3494
  556SOL     vw 2224   3.835   3.929   1.340 -0.6763  0.2278  0.3940
  557SOL     ow 2225   1.531   1.534   3.554 -0.3585  0.2929 -0.4079
  557SOL     hw 2226   1.580   1.548   3.635  0.4023 -1.9927 -0.3835
  557SOL     hw 2227   1.590   1.481   3.500 -1.4275  0.5396 -1.8806
  557SOL     vw 2228   1.545   1.529   3.558 -0.3991  0.0238 -0.5990
  558SOL     ow 2229   1.364   4.403   1.677  0.3570 -0.6792  0.2152
  558SOL     hw 2230   1.442   4.368   1.633  1.3164  0.4001  1.0130
  558SOL     hw 2231   1.323   4.326   1.717  1.1786 -1.2225  0.0411
  558SOL     vw 2232   1.369   4.388   1.677  0.5919 -0.6087  0.2975
  559SOL     ow 2233   5.411   0.853   3.547  0.1410 -0.0212  0.0141
  559SOL     hw 2234   5.420   0.947   3.560 -0.8432  0.0140  0.5454
  559SOL     hw 2235   5.412   0.817   3.636  2.4283 -0.7351 -0.2273
  559SOL     vw 2236   5.413   0.861   3.561  0.3128 -0.1107  0.0523
  560SOL     ow 2237   4.423   3.687   0.660 -0.2609 -0.3238 -0.3937
  560SOL     hw 2238   4.436   3.693   0.755  1.9173  0.9593 -0.6943
  560SOL     hw 2239   4.492   3.627   0.631 -0.7756 -0.5385 -1.1894
  560SOL     vw 2240   4.434   3.680   0.669 -0.0415 -0.1829 -0.5383
  561SOL     ow 2241   1.637   3.162   4.121 -0.3320  0.0199 -0.1537
  561SOL     hw 2242   1.634   3.178   4.026 -2.0962  0.7743 -0.0033
  561SOL     hw 2243   1.629   3.066   4.129 -1.1603  0.0250 -0.7555
  561SOL     vw 2244   1.636   3.151   4.109 -0.6741  0.1200 -0.2131
  562SOL     ow 2245   3.185   5.866   1.766  0.4675 -0.2429  0.0134
  562SOL     hw 2246   3.156   5.827   1.683 -0.6305 -0.9510  0.7016
  562SOL     hw 2247   3.236   5.797   1.809  1.6968  0.3815 -0.3809
  562SOL     vw 2248   3.188   5.852   1.761  0.4849 -0.2542  0.0522
  563SOL     ow 2249   1.235   5.249   0.468  0.0423 -0.0253 -0.4489
  563SOL     hw 2250   1.321   5.274   0.433 -0.4687  2.5596 -0.1250
  563SOL     hw 2251   1.213   5.321   0.528 -2.0554 -0.9832  0.0158
  563SOL     vw 2252   1.243   5.262   0.472 -0.3019  0.1895 -0.3449
  564SOL     ow 2253   5.085   2.406   6.374 -0.1555 -0.3152  0.1797
  564SOL     hw 2254   5.162   2.461   6.385 -0.0599 -0.0510 -1.4542
  564SOL     hw 2255   5.108   2.323   6.415  1.2777 -0.4503 -0.8109
  564SOL     vw 2256   5.098   2.402   6.381  0.0463 -0.2983 -0.1664
  565SOL     ow 2257   4.438   0.711   0.217  0.2087  0.1601  0.1409
  565SOL     hw 2258   4.466   0.802   0.218 -1.1761  0.6316 -1.0670
  565SOL     hw 2259   4.388   0.700   0.298  1.9521 -0.1090  1.2492
  565SOL     vw 2260   4.435   0.721   0.228  0.2563  0.1869  0.1278
  566SOL     ow 2261   4.042   4.688   3.014  0.2728 -0.2623  0.1379
  566SOL     hw 2262   4.062   4.748   3.086 -1.1055  0.0401  0.2931
  566SOL     hw 2263   3.949   4.700   2.998  0.6343  0.0582 -2.0648
  566SOL     vw 2264   4.033   4.698   3.022  0.1385 -0.1798 -0.1323
  567SOL     ow 2265   2.672   0.552   2.686  0.4717  0.6353  0.6856
  567SOL     hw 2266   2.643   0.461   2.675  0.9489  0.4159  1.1945
  567SOL     hw 2267   2.683   0.585   2.597  0.7145  0.0539  0.4960
  567SOL     vw 2268   2.670   0.544   2.673  0.5666  0.5296  0.7278
  568SOL     ow 2269   4.219   0.980   3.926 -0.0089 -0.5455  0.2385
  568SOL     hw 2270   4.230   0.923   3.850  0.5381  0.9356 -0.8324
  568SOL     hw 2271   4.181   1.060   3.891  0.4621  0.2612  1.5031
  568SOL     vw 2272   4.215   0.983   3.912  0.1254 -0.2437  0.2642
  569SOL     ow 2273   1.369   5.100   5.964 -0.3275 -0.6767 -0.0569
  569SOL     hw 2274   1.405   5.015   5.938  0.3919 -0.0994 -0.9917
  569SOL     hw 2275   1.328   5.134   5.884  1.0900  0.7078 -0.2427
  569SOL     vw 2276   1.368   5.093   5.950 -0.0455 -0.4177 -0.2048
  570SOL     ow 2277   4.476   2.743   6.297 -0.0624  0.4310 -0.5600
  570SOL     hw 2278   4.531   2.744   6.376 -0.4047 -0.5702 -0.2908
  570SOL     hw 2279   4.539   2.738   6.225  0.2340 -0.6326 -0.2544
  570SOL     vw 2280   4.492   2.743   6.298 -0.0687  0.1587 -0.4842
  571SOL     ow 2281   6.652   1.894   4.508 -0.6618  0.1905 -0.3201
  571SOL     hw 2282   6.585   1.840   4.465 -0.6633  0.6234 -0.8784
  571SOL     hw 2283   6.728   1.888   4.451  1.1291 -3.2648  2.0983
  571SOL     vw 2284   6.653   1.886   4.495 -0.4258 -0.2083 -0.0746
  572SOL     ow 2285   4.205   1.615   2.990  0.3959  0.6092 -0.2053
  572SOL     hw 2286   4.212   1.551   3.060 -1.5209  1.0004  0.4281
  572SOL     hw 2287   4.267   1.586   2.923 -0.1036 -1.6441  0.2383
  572SOL     vw 2288   4.214   1.603   2.990  0.0775  0.3635 -0.0633
  573SOL     ow 2289   2.775   6.673   6.653  0.1812 -0.6855  0.0145
  573SOL     hw 2290   2.778   6.593   6.704  0.1695 -1.5935 -1.3457
  573SOL     hw 2291   2.722   6.733   6.705  0.1954 -1.5498  1.0640
  573SOL     vw 2292   2.768   6.670   6.666  0.1816 -0.9193 -0.0265
  574SOL     ow 2293   4.583   6.121   2.795 -0.0130 -0.0166 -0.0475
  574SOL     hw 2294   4.489   6.129   2.811 -0.2206 -2.2163  0.0501
  574SOL     hw 2295   4.593   6.135   2.701 -0.5592 -0.6843 -0.2080
  574SOL     vw 2296   4.572   6.124   2.785 -0.1125 -0.3951 -0.0558
  575SOL     ow 2297   3.032   6.927   1.876 -0.3363 -0.1801  0.2702
  575SOL     hw 2298   3.100   6.980   1.918 -1.0704  0.8220  0.2193
  575SOL     hw 2299   3.045   6.839   1.911  0.6196  0.1247  0.7023
  575SOL     vw 2300   3.043   6.922   1.886 -0.3071 -0.0074  0.3205
  576SOL     ow 2301   6.280   2.544   1.153 -0.1571  0.3366  0.4320
  576SOL     hw 2302   6.184   2.542   1.147 -0.1711  0.7826  0.4850
  576SOL     hw 2303   6.304   2.632   1.128  0.1515  0.5968  1.5550
  576SOL     vw 2304   6.270   2.555   1.149 -0.1183  0.4297  0.5871
  577SOL     ow 2305   4.707   1.427   4.600 -0.3245  0.0919 -0.0421
  577SOL     hw 2306   4.785   1.376   4.624  0.5349  0.6015 -1.6253
  577SOL     hw 2307   4.650   1.364   4.557  0.6228  0.3459 -1.7583
  577SOL     vw 2308   4.710   1.412   4.598 -0.0861  0.1926 -0.4776
  578SOL     ow 2309   4.451   0.924   4.143 -0.2489  0.0597 -0.7137
  578SOL     hw 2310   4.434   1.018   4.150 -1.4590 -0.2166  0.3159
  578SOL     hw 2311   4.544   0.919   4.121  0.4403  1.4593  1.5341
  578SOL     vw 2312   4.461   0.936   4.141 -0.3176  0.2080 -0.2813
  579SOL     ow 2313   5.938   1.651   1.044 -0.0192  0.4166 -0.4498
  579SOL     hw 2314   5.903   1.705   0.972  1.0126  1.7182 -0.0181
  579SOL     hw 2315   5.888   1.680   1.121 -0.1675  0.0075 -0.3888
  579SOL     vw 2316   5.927   1.662   1.045  0.0973  0.5344 -0.3847
  580SOL     ow 2317   4.469   5.583   2.363 -0.1192 -0.1674  0.2800
  580SOL     hw 2318   4.410   5.515   2.395 -0.3311  0.6616  1.7385
  580SOL     hw 2319   4.499   5.628   2.442  0.1246  1.3334 -0.6278
  580SOL     vw 2320   4.465   5.580   2.378 -0.1149  0.1402  0.3525
  581SOL     ow 2321   5.130   5.840   3.182 -0.9250 -0.3897 -0.3774
  581SOL     hw 2322   5.135   5.897   3.105  0.2657 -0.1719 -0.1517
  581SOL     hw 2323   5.183   5.764   3.159  0.7339  0.3689  0.7792
  581SOL     vw 2324   5.137   5.838   3.168 -0.5488 -0.2608 -0.1949
  582SOL     ow 2325   5.720   5.454   0.631 -0.1247 -0.7352 -0.2009
  582SOL     hw 2326   5.632   5.490   0.621  0.5471  2.0651  2.5386
  582SOL     hw 2327   5.708   5.376   0.685 -0.9312 -0.2464  0.3448
  582SOL     vw 2328   5.707   5.448   0.637 -0.1426 -0.3009  0.2325
  583SOL     ow 2329   1.900   2.163   5.325 -0.2650 -0.3504 -0.0918
  583SOL     hw 2330   1.936   2.125   5.245 -1.2994 -2.1428  0.2512
  583SOL     hw 2331   1.841   2.232   5.294 -0.8878 -1.2267 -0.8954
  583SOL     vw 2332   1.897   2.167   5.310 -0.4838 -0.7025 -0.1526
  584SOL     ow 2333   4.523   3.750   0.216  0.2103  0.8455 -0.1418
  584SOL     hw 2334   4.502   3.657   0.226 -1.0750  0.9165 -1.7687
  584SOL     hw 2335   4.578   3.770   0.292  0.0008 -1.0756  0.5834
  584SOL     vw 2336   4.528   3.740   0.227  0.0131  0.6014 -0.2608
  585SOL     ow 2337   5.464   4.312   1.195  0.1910  0.4029 -0.0067
  585SOL     hw 2338   5.486   4.400   1.226  0.5029  0.4054 -0.2356
  585SOL     hw 2339   5.548   4.267   1.190  0.1020  0.3004 -0.5398
  585SOL     vw 2340   5.478   4.318   1.199  0.2203  0.3896 -0.1072
  586SOL     ow 2341   3.073   4.609   6.543 -0.1240 -0.0182  0.6259
  586SOL     hw 2342   3.066   4.610   6.638  0.5064  0.5221  0.6764
  586SOL     hw 2343   3.001   4.665   6.513  0.0053  0.2559  0.8175
  586SOL     vw 2344   3.063   4.617   6.552 -0.0238  0.0892  0.6578
  587SOL     ow 2345   3.934   4.056   5.371 -0.2866 -0.2525  0.3489
  587SOL     hw 2346   3.918   4.109   5.449 -0.8119 -0.9277  0.7179
  587SOL     hw 2347   3.878   3.979   5.383 -1.0621  0.0412 -1.1227
  587SOL     vw 2348   3.924   4.052   5.383 -0.4584 -0.3028  0.2034
  588SOL     ow 2349   0.831   5.588   3.406 -0.3632 -0.1561 -0.1519
  588SOL     hw 2350   0.833   5.674   3.447  1.3273 -0.6381  0.8605
  588SOL     hw 2351   0.917   5.578   3.367 -1.1968 -0.6174 -1.9951
  588SOL     vw 2352   0.842   5.598   3.406 -0.2501 -0.2806 -0.2615
  589SOL     ow 2353   4.063   4.043   5.016 -0.2560  0.0055 -0.1782
  589SOL     hw 2354   4.034   3.982   4.948  2.2137 -0.7617 -0.6184
  589SOL     hw 2355   4.095   3.987   5.086 -1.5600  0.8085  1.0992
  589SOL     vw 2356   4.063   4.028   5.016 -0.1023  0.0105 -0.0679
  590SOL     ow 2357   5.871   0.003   7.006 -0.9145 -0.5512 -0.7104
  590SOL     hw 2358   5.813   0.074   7.034  0.9154  0.2427  1.3016
  590SOL     hw 2359   5.908   0.033   6.923 -1.6931 -0.1026 -0.9034
  590SOL     vw 2360   5.868   0.016   6.999 -0.7756 -0.3872 -0.4704
  591SOL     ow 2361   5.336   0.060   2.990  0.6168 -0.7096  0.8491
  591SOL     hw 2362   5.276   0.017   2.929  0.0318  0.2527  0.7244
  591SOL     hw 2363   5.423   0.034   2.959  0.2994 -1.1010  0.2525
  591SOL     vw 2364   5.340   0.051   2.978  0.4978 -0.6343  0.7540
  592SOL     ow 2365   3.564   4.588   3.082  0.3132 -0.3927  0.4221
  592SOL     hw 2366   3.558   4.641   3.003 -1.1714 -2.1326 -0.7273
  592SOL     hw 2367   3.627   4.633   3.137 -0.3509  2.1226 -0.7620
  592SOL     vw 2368   3.572   4.601   3.079  0.0297 -0.2902  0.1143
  593SOL     ow 2369   6.648   1.552   4.470 -0.2882  0.6420  0.3217
  593SOL     hw 2370   6.578   1.566   4.406 -1.1485  3.4557  1.7080
  593SOL     hw 2371   6.608   1.577   4.554  1.5802 -0.3680  1.5780
  593SOL     vw 2372   6.633   1.557   4.473 -0.1552  0.8800  0.6702
  594SOL     ow 2373   5.891   3.783   5.687  0.1230  0.7860 -0.7912
  594SOL     hw 2374   5.963   3.767   5.748  0.1308  0.8999 -0.7699
  594SOL     hw 2375   5.854   3.866   5.715 -0.0333  0.7145 -0.7891
  594SOL     vw 2376   5.896   3.792   5.699  0.1035  0.7915 -0.7882
  595SOL     ow 2377   2.335   2.626   6.066  0.4946  0.5123 -0.8711
  595SOL     hw 2378   2.395   2.599   5.997 -1.1253  0.5870 -2.4052
  595SOL     hw 2379   2.257   2.571   6.052 -0.0735  0.8818  0.6103
  595SOL     vw 2380   2.332   2.615   6.055  0.2059  0.5709 -0.8779
  596SOL     ow 2381   2.773   5.768   0.357 -0.6864  0.1999 -0.0615
  596SOL     hw 2382   2.775   5.841   0.296 -0.0471 -1.2012 -1.8250
  596SOL     hw 2383   2.742   5.805   0.439  0.1530  2.5390 -0.7333
  596SOL     vw 2384   2.769   5.782   0.359 -0.4914  0.3238 -0.3828
  597SOL     ow 2385   4.698   1.655   1.789  0.5129  0.3302  0.4803
  597SOL     hw 2386   4.788   1.624   1.782  0.5499  0.8146 -1.8258
  597SOL     hw 2387   4.660   1.641   1.702 -1.2389  1.3522  1.0222
  597SOL     vw 2388   4.705   1.649   1.777  0.2866  0.5290  0.2475
  598SOL     ow 2389   5.364   3.943   1.713 -0.6807 -0.2100  0.0239
  598SOL     hw 2390   5.332   3.957   1.802 -0.7210  1.1918 -0.1797
  598SOL     hw 2391   5.438   4.003   1.705 -0.1850 -0.9018 -0.6344
  598SOL     vw 2392   5.370   3.953   1.724 -0.6206 -0.1162 -0.0898
  599SOL     ow 2393   3.386   3.876   7.024  0.3497  0.1245  0.1038
  599SOL     hw 2394   3.357   3.893   6.934  1.2293 -0.0656 -0.2226
  599SOL     hw 2395   3.477   3.847   7.015  0.1351 -0.8949  0.9624
  599SOL     vw 2396   3.394   3.874   7.011  0.4374 -0.0352  0.1745
  600SOL     ow 2397   1.339   6.355   0.135  0.3030 -0.8657  0.8104
  600SOL     hw 2398   1.403   6.287   0.118  1.7816  1.0685 -2.4090
  600SOL     hw 2399   1.290   6.363   0.053 -1.7441  0.0798  2.0274
  600SOL     vw 2400   1.341   6.347   0.122  0.2279 -0.4859  0.5462
  601SOL     ow 2401   6.468   5.234   2.632  0.2710  0.1501  0.3487
  601SOL     hw 2402   6.481   5.288   2.554 -0.6627 -1.8828 -1.3337
  601SOL     hw 2403   6.533   5.164   2.623 -0.7011 -0.8235  0.6769
  601SOL     vw 2404   6.478   5.232   2.621  0.0193 -0.2465  0.1700
  602SOL     ow 2405   7.016   0.377   6.099 -0.6506 -0.2177 -0.7680
  602SOL     hw 2406   6.992   0.361   6.007 -1.4223 -0.6924 -0.4982
  602SOL     hw 2407   7.098   0.426   6.094 -1.6631  1.4843 -1.7635
  602SOL     vw 2408   7.023   0.381   6.086 -0.8860 -0.0558 -0.8636
  603SOL     ow 2409   5.261   5.353   6.436  0.1136  0.2641 -0.0969
  603SOL     hw 2410   5.338   5.334   6.489 -0.1323  2.1082  1.0013
  603SOL     hw 2411   5.187   5.325   6.491 -0.0724  0.6099 -0.1659
  603SOL     vw 2412   5.261   5.347   6.451  0.0565  0.5531  0.0389
  604SOL     ow 2413   4.994   1.416   2.826  0.4628 -0.2514  0.2250
  604SOL     hw 2414   4.978   1.376   2.740  0.1456  1.5156 -0.5868
  604SOL     hw 2415   4.919   1.474   2.839  0.7997 -0.0755  1.4447
  604SOL     vw 2416   4.982   1.419   2.816  0.4656  0.0049  0.2789
  605SOL     ow 2417   0.833   3.709   4.725  0.2996 -0.1748  0.2954
  605SOL     hw 2418   0.926   3.701   4.749  0.7765 -0.2092 -1.4071
  605SOL     hw 2419   0.790   3.736   4.806  1.5527 -1.5790  1.5150
  605SOL     vw 2420   0.840   3.711   4.739  0.5279 -0.3647  0.2320
  606SOL     ow 2421   5.056   5.211   5.761 -0.1841 -0.6393  0.1180
  606SOL     hw 2422   5.020   5.122   5.757 -0.1914 -0.6921  1.2100
  606SOL     hw 2423   4.984   5.265   5.791 -0.9890  0.2385 -2.9646
  606SOL     vw 2424   5.042   5.206   5.764 -0.2911 -0.5302 -0.1447
  607SOL     ow 2425   1.891   6.427   2.423 -0.3920 -0.2597  0.4716
  607SOL     hw 2426   1.850   6.508   2.455 -0.3336 -0.2569  0.5409
  607SOL     hw 2427   1.820   6.379   2.381 -0.2367  0.2505 -0.4080
  607SOL     vw 2428   1.876   6.432   2.422 -0.3638 -0.1922  0.3648
  608SOL     ow 2429   0.772   0.394   2.163  0.4764  0.1529 -0.3253
  608SOL     hw 2430   0.686   0.353   2.166  0.6358 -0.2539 -1.1459
  608SOL     hw 2431   0.804   0.377   2.075  1.8426 -0.6360  0.2803
  608SOL     vw 2432   0.765   0.386   2.152  0.6777 -0.0049 -0.3536
  609SOL     ow 2433   1.004   6.150   2.748  0.2869 -0.5584  0.4297
  609SOL     hw 2434   1.041   6.145   2.836  0.5689 -0.5343  0.3137
  609SOL     hw 2435   0.938   6.081   2.746  0.1905 -0.4770  0.6998
  609SOL     vw 2436   1.000   6.140   2.759  0.3113 -0.5441  0.4501
  610SOL     ow 2437   6.629   0.027   5.034 -0.2646  0.0557 -0.5954
  610SOL     hw 2438   6.589   0.096   4.980  0.5077  0.4574 -0.6705
  610SOL     hw 2439   6.638  -0.048   4.976 -2.7934 -0.7684 -0.0402
  610SOL     vw 2440   6.625   0.026   5.019 -0.4966 -0.0002 -0.5322
  611SOL     ow 2441   6.182   5.998   0.748  0.5700  0.1048 -0.3591
  611SOL     hw 2442   6.211   6.068   0.806 -1.6152 -0.2210  1.2554
  611SOL     hw 2443   6.254   5.934   0.750  1.5942  1.2422 -0.0274
  611SOL     vw 2444   6.195   5.999   0.756  0.4168  0.2117 -0.1023
  612SOL     ow 2445   3.315   3.577   7.075  0.1856 -0.0752 -0.5006
  612SOL     hw 2446   3.240   3.518   7.069 -1.5439  2.1301 -1.8783
  612SOL     hw 2447   3.371   3.552   7.002  0.5770 -1.3781  0.2127
  612SOL     vw 2448   3.313   3.566   7.064  0.0089  0.0439 -0.5884
  613SOL     ow 2449   7.058   1.550   7.031  0.2074 -0.0876  0.0131
  613SOL     hw 2450   7.012   1.494   6.968 -0.0333 -0.0487  0.1523
  613SOL     hw 2451   7.143   1.567   6.991 -0.7839  1.9288 -1.4781
  613SOL     vw 2452   7.063   1.545   7.018  0.0449  0.1835 -0.1652
  614SOL     ow 2453   6.230   4.399   2.682 -0.0388  0.2515  0.4214
  614SOL     hw 2454   6.149   4.399   2.734 -1.6421 -0.9453 -1.8984
  614SOL     hw 2455   6.272   4.315   2.703 -0.3116  0.0860  0.3084
  614SOL     vw 2456   6.225   4.388   2.692 -0.2861  0.0720  0.1005
  615SOL     ow 2457   5.914   4.599   6.747 -0.3065 -0.5766  0.5617
  615SOL     hw 2458   5.944   4.508   6.751 -1.0410 -0.7681  2.5923
  615SOL     hw 2459   5.854   4.602   6.672 -0.5235 -1.8445  0.6734
  615SOL     vw 2460   5.910   4.588   6.737 -0.4323 -0.7694  0.8442
  616SOL     ow 2461   4.202   0.946   3.119 -0.6997  0.7809  0.2741
  616SOL     hw 2462   4.296   0.933   3.102 -0.6089  1.0252  0.5851
  616SOL     hw 2463   4.175   1.009   3.053 -0.6147  0.8098  0.2658
  616SOL     vw 2464   4.211   0.953   3.108 -0.6764  0.8170  0.3140
  617SOL     ow 2465   0.154   0.557   6.024 -0.0702 -0.2839 -0.4034
  617SOL     hw 2466   0.126   0.562   5.933  0.5981 -1.4500 -0.6864
  617SOL     hw 2467   0.181   0.647   6.046 -2.7945  0.6321 -0.4726
  617SOL     vw 2468   0.154   0.570   6.015 -0.3415 -0.3169 -0.4499
  618SOL     ow 2469   2.021   1.630   0.751  0.4011  0.0628  0.6118
  618SOL     hw 2470   2.044   1.693   0.819 -0.8222  0.5754  0.5855
  618SOL     hw 2471   2.004   1.549   0.799  2.8772 -0.5698  0.5647
  618SOL     vw 2472   2.022   1.628   0.767  0.5665  0.0470  0.6022
  619SOL     ow 2473   5.733   6.053   6.250 -0.1770  0.0602  0.0565
  619SOL     hw 2474   5.722   5.980   6.190 -3.4240  0.0923  0.4743
  619SOL     hw 2475   5.723   6.131   6.195  0.5097  0.1669  0.0715
  619SOL     vw 2476   5.730   6.054   6.234 -0.5147  0.0784  0.1135
  620SOL     ow 2477   6.964   5.116   2.940 -0.3194 -0.0930 -0.2320
  620SOL     hw 2478   7.043   5.164   2.963 -1.0386  0.7051  0.6553
  620SOL     hw 2479   6.970   5.104   2.845  1.5877 -1.4124 -0.0076
  620SOL     vw 2480   6.975   5.121   2.931 -0.1628 -0.1619 -0.0854
  621SOL     ow 2481   4.387   2.763   0.888 -0.6092  0.4752 -0.0923
  621SOL     hw 2482   4.394   2.708   0.810  0.3172  0.3151  0.0864
  621SOL     hw 2483   4.368   2.702   0.959  0.5141  0.3422  0.1223
  621SOL     vw 2484   4.386   2.748   0.888 -0.3388  0.4363 -0.0404
  622SOL     ow 2485   2.303   0.635   1.040 -0.2404  0.4930  0.0550
  622SOL     hw 2486   2.313   0.564   1.103  2.4614 -0.2465 -1.0504
  622SOL     hw 2487   2.280   0.591   0.958 -0.9120  1.1477 -0.1130
  622SOL     vw 2488   2.302   0.620   1.037  0.0275  0.4818 -0.1130
  623SOL     ow 2489   0.859   3.803   5.333 -0.1537  0.2676 -0.4562
  623SOL     hw 2490   0.788   3.868   5.338  0.2695  0.8555 -1.8684
  623SOL     hw 2491   0.925   3.835   5.395 -1.4217 -0.7416  1.5433
  623SOL     vw 2492   0.858   3.816   5.342 -0.2652  0.2122 -0.3786
  624SOL     ow 2493   6.673   5.477   3.756  0.0085  0.0066 -0.0589
  624SOL     hw 2494   6.716   5.555   3.792  0.7434 -0.5840  0.3689
  624SOL     hw 2495   6.713   5.466   3.669 -0.7313  0.5972 -0.4943
  624SOL     vw 2496   6.684   5.486   3.749  0.0081  0.0064 -0.0598
  625SOL     ow 2497   4.988   4.894   5.705 -0.0257  0.3890 -0.1707
  625SOL     hw 2498   4.915   4.947   5.737  0.7329  1.2550  0.1801
  625SOL     hw 2499   5.047   4.887   5.780 -0.6328 -1.9948  0.1815
  625SOL     vw 2500   4.986   4.900   5.719 -0.0057  0.1886 -0.0780
  626SOL     ow 2501   2.473   3.991   2.446 -0.0477  0.0659 -0.1599
  626SOL     hw 2502   2.388   3.953   2.470  0.0073 -0.1591 -0.3162
  626SOL     hw 2503   2.537   3.930   2.482  0.0780  0.8643  1.0149
  626SOL     vw 2504   2.470   3.978   2.454 -0.0240  0.1415 -0.0256
  627SOL     ow 2505   4.933   5.712   0.915  0.1959  0.6359  0.2323
  627SOL     hw 2506   4.959   5.645   0.978  0.3683  0.8855  0.4294
  627SOL     hw 2507   4.982   5.690   0.835  1.0392  1.1067  0.6022
  627SOL     vw 2508   4.943   5.700   0.913  0.3295  0.7310  0.3071
  628SOL     ow 2509   1.889   6.474   6.163 -0.4422  0.3294 -0.5237
  628SOL     hw 2510   1.923   6.388   6.137 -1.3251 -1.1277  2.6644
  628SOL     hw 2511   1.958   6.536   6.137  3.2259 -2.0823  2.5061
  628SOL     vw 2512   1.903   6.471   6.156 -0.0747 -0.1812  0.2966
  629SOL     ow 2513   5.622   5.918   6.515  0.9983 -0.3466 -0.3833
  629SOL     hw 2514   5.689   5.861   6.553  0.1541 -1.3646 -0.3598
  629SOL     hw 2515   5.540   5.873   6.534  0.3380  0.6744 -0.7677
  629SOL     vw 2516   5.620   5.904   6.523  0.7999 -0.3462 -0.4311
  630SOL     ow 2517   4.057   0.032   0.733  0.4213 -0.1976 -0.0382
  630SOL     hw 2518   4.023  -0.018   0.808 -0.9217  2.1457  1.0239
  630SOL     hw 2519   4.150   0.043   0.753  0.0453  0.5874  1.4618
  630SOL     vw 2520   4.065   0.027   0.746  0.1945  0.2152  0.2998
  631SOL     ow 2521   5.013   3.639   7.075 -0.2182 -0.0204 -0.6720
  631SOL     hw 2522   5.033   3.731   7.059 -1.6741  0.3169 -0.6957
  631SOL     hw 2523   5.016   3.629   7.170 -0.1344  0.0758 -0.6653
  631SOL     vw 2524   5.016   3.650   7.085 -0.3994  0.0368 -0.6743
  632SOL     ow 2525   6.233   0.277   2.506 -0.4975 -0.2327  0.0574
  632SOL     hw 2526   6.146   0.262   2.544 -0.0631  0.4413  1.3762
  632SOL     hw 2527   6.247   0.202   2.449 -2.2983  0.0656 -0.8563
  632SOL     vw 2528   6.223   0.265   2.504 -0.6781 -0.1044  0.1107
  633SOL     ow 2529   6.557   3.206   5.318  0.2862  0.3691 -0.3867
  633SOL     hw 2530   6.541   3.121   5.358  0.8300 -0.4893 -1.9242
  633SOL     hw 2531   6.590   3.186   5.231  0.3800  2.1628 -0.8025
  633SOL     vw 2532   6.559   3.192   5.312  0.3703  0.4925 -0.6447
  634SOL     ow 2533   7.062   6.107   6.731 -0.0897 -0.2248  0.2362
  634SOL     hw 2534   7.009   6.152   6.797  0.5114  0.5768  0.2003
  634SOL     hw 2535   7.124   6.174   6.702  0.1214 -0.7809 -0.6218
  634SOL     vw 2536   7.063   6.122   6.736  0.0175 -0.1924  0.1183
  635SOL     ow 2537   4.318   6.517   2.313 -0.5024  0.1970  0.4294
  635SOL     hw 2538   4.302   6.562   2.395  0.0052 -0.5220  0.9315
  635SOL     hw 2539   4.252   6.447   2.310  0.3032 -0.5994  0.8599
  635SOL     vw 2540   4.307   6.514   2.323 -0.3293 -0.0029  0.5525
  636SOL     ow 2541   4.392   2.345   7.063 -0.1501 -0.3144 -0.6122
  636SOL     hw 2542   4.392   2.363   7.157 -0.5122  0.7843 -0.8163
  636SOL     hw 2543   4.332   2.271   7.053 -0.6170 -0.0222 -0.0528
  636SOL     vw 2544   4.384   2.338   7.074 -0.2594 -0.1309 -0.5653
  637SOL     ow 2545   2.457   2.136   3.056  0.4784 -0.2233 -0.0016
  637SOL     hw 2546   2.405   2.111   2.980 -0.7099 -0.6033  0.8903
  637SOL     hw 2547   2.427   2.225   3.076  0.7878 -0.1236  0.0229
  637SOL     vw 2548   2.446   2.145   3.049  0.3624 -0.2604  0.1193
  638SOL     ow 2549   2.454   3.209   4.968 -1.1435  0.3050  0.0828
  638SOL     hw 2550   2.477   3.301   4.981  0.6011 -0.0598 -0.1383
  638SOL     hw 2551   2.447   3.174   5.057  0.5080  0.1523  0.1819
  638SOL     vw 2552   2.456   3.217   4.982 -0.6953  0.2367  0.0665
  639SOL     ow 2553   5.266   7.053   3.238  0.3979  0.3655  0.1010
  639SOL     hw 2554   5.278   7.095   3.153 -1.4762  1.3493  0.2653
  639SOL     hw 2555   5.208   6.979   3.221  0.3459  0.3197  0.4709
  639SOL     vw 2556   5.260   7.049   3.225  0.1440  0.4892  0.1713
  640SOL     ow 2557   7.004   1.037   0.090  0.0244  0.6680 -0.1710
  640SOL     hw 2558   6.923   1.087   0.101 -0.0089  0.7240 -0.6450
  640SOL     hw 2559   6.982   0.968   0.027  0.5209  1.0965 -0.8310
  640SOL     vw 2560   6.990   1.034   0.083  0.0856  0.7319 -0.3206
  641SOL     ow 2561   2.652   0.379   5.908 -0.5208  0.3350 -0.3729
  641SOL     hw 2562   2.624   0.409   5.822 -1.2743  0.6129 -0.0434
  641SOL     hw 2563   2.742   0.410   5.916 -0.8695  1.4635 -0.5447
  641SOL     vw 2564   2.660   0.387   5.898 -0.6661  0.5206 -0.3521
  642SOL     ow 2565   0.809   5.894   2.013 -0.0883  0.2084  0.1384
  642SOL     hw 2566   0.825   5.987   2.024  4.7921 -0.1451 -1.4112
  642SOL     hw 2567   0.873   5.851   2.070  0.9009 -1.9774 -2.3585
  642SOL     vw 2568   0.820   5.900   2.022  0.6862 -0.1266 -0.3955
  643SOL     ow 2569   0.505   1.928   2.884 -0.2360  0.7302  0.2274
  643SOL     hw 2570   0.524   1.916   2.978 -0.9154 -1.3633  0.1632
  643SOL     hw 2571   0.413   1.903   2.875  0.2928 -0.9380 -1.2388
  643SOL     vw 2572   0.495   1.923   2.895 -0.2558  0.2339  0.0256
  644SOL     ow 2573   2.467   4.770   4.807 -0.0019  0.1645  0.3125
  644SOL     hw 2574   2.428   4.759   4.894  0.6301  1.4365  0.7835
  644SOL     hw 2575   2.532   4.840   4.818 -1.9406  2.4935 -1.8084
  644SOL     vw 2576   2.471   4.778   4.820 -0.1743  0.6397  0.0949
  645SOL     ow 2577   1.005   3.329   2.386  0.0825 -0.0567 -0.9687
  645SOL     hw 2578   1.047   3.339   2.471  1.7876 -1.4402 -1.5984
  645SOL     hw 2579   1.051   3.391   2.329  0.0574 -0.3003 -1.2556
  645SOL     vw 2580   1.017   3.339   2.390  0.3042 -0.2713 -1.0897
  646SOL     ow 2581   4.430   4.237   4.521 -0.0301  0.4753  0.2657
  646SOL     hw 2582   4.349   4.287   4.515 -0.5107 -0.0951  1.6007
  646SOL     hw 2583   4.439   4.195   4.435 -1.4455  0.1201  0.2708
  646SOL     vw 2584   4.420   4.238   4.509 -0.2801  0.3531  0.4425
  647SOL     ow 2585   6.194   5.021   6.230  0.0411 -0.6020 -0.3704
  647SOL     hw 2586   6.159   5.107   6.252  0.8100 -0.4310  0.2261
  647SOL     hw 2587   6.194   5.018   6.135 -0.8953 -0.3299 -0.3961
  647SOL     vw 2588   6.189   5.032   6.221  0.0193 -0.5436 -0.2949
  648SOL     ow 2589   4.862   7.073   3.983 -0.4247 -0.0772 -0.3396
  648SOL     hw 2590   4.857   7.053   4.076 -0.4094 -1.2799 -0.5759
  648SOL     hw 2591   4.956   7.069   3.962 -0.4249  0.2170 -0.4007
  648SOL     vw 2592   4.874   7.070   3.992 -0.4225 -0.1972 -0.3787
  649SOL     ow 2593   6.984   4.125   6.197  0.3712 -0.8820  0.2357
  649SOL     hw 2594   6.926   4.198   6.217 -1.0220 -1.3584 -1.7311
  649SOL     hw 2595   7.038   4.156   6.124  0.1527 -1.6149 -0.2486
  649SOL     vw 2596   6.984   4.138   6.190  0.1585 -1.0419 -0.0877
  650SOL     ow 2597   4.381   5.783   0.311 -0.2466  0.2874  0.1982
  650SOL     hw 2598   4.430   5.819   0.385 -0.3306 -2.6053  1.8211
  650SOL     hw 2599   4.305   5.841   0.302  0.4098  1.4170  1.5728
  650SOL     vw 2600   4.377   5.796   0.320 -0.1709  0.0551  0.5937
  651SOL     ow 2601   0.688   0.984   0.810  0.6949 -0.1305  0.2444
  651SOL     hw 2602   0.715   0.897   0.840  0.6936  0.4289  2.0103
  651SOL     hw 2603   0.624   0.967   0.742  2.3755 -1.4922 -1.1011
  651SOL     vw 2604   0.683   0.971   0.805  0.9165 -0.2364  0.2999
  652SOL     ow 2605   6.626   2.487   2.583 -0.8523  0.5995 -0.4955
  652SOL     hw 2606   6.601   2.395   2.594 -0.3646  0.4376 -0.7342
  652SOL     hw 2607   6.687   2.504   2.655  0.1728  0.3250 -1.2749
  652SOL     vw 2608   6.631   2.477   2.594 -0.6526  0.5419 -0.6299
  653SOL     ow 2609   1.130   5.435   1.542  0.0460  0.3646 -0.3216
  653SOL     hw 2610   1.042   5.398   1.544 -0.9428  2.5929  0.2265
  653SOL     hw 2611   1.138   5.476   1.456  0.1435  1.0680  0.0158
  653SOL     vw 2612   1.120   5.436   1.531 -0.0715  0.7515 -0.2049
  654SOL     ow 2613   3.889   0.181   1.017 -0.2725 -0.6135  0.0601
  654SOL     hw 2614   3.970   0.224   0.990 -1.1738  0.8997 -0.3575
  654SOL     hw 2615   3.852   0.147   0.935 -1.1389  0.6668 -0.1081
  654SOL     vw 2616   3.895   0.182   1.003 -0.5058 -0.2449 -0.0172
  655SOL     ow 2617   1.710   2.417   3.301  0.1472 -0.2038 -0.4126
  655SOL     hw 2618   1.766   2.362   3.246 -0.1424 -0.6184 -0.3023
  655SOL     hw 2619   1.697   2.365   3.380 -2.0564 -1.0653 -1.2331
  655SOL     vw 2620   1.716   2.403   3.304 -0.1817 -0.3722 -0.5064
  656SOL     ow 2621   1.733   3.926   0.602 -0.0627  0.3456 -0.1291
  656SOL     hw 2622   1.682   3.869   0.544 -0.7595 -0.2642  1.0416
  656SOL     hw 2623   1.702   3.904   0.690  1.3165  0.8820  0.5212
  656SOL     vw 2624   1.722   3.915   0.606  0.0272  0.3359  0.1112
  657SOL     ow 2625   6.637   6.874   4.858  0.1211 -0.0895 -0.5752
  657SOL     hw 2626   6.589   6.834   4.785 -2.1531 -1.3787  1.4661
  657SOL     hw 2627   6.686   6.801   4.896  0.8453  0.4519 -0.4560
  657SOL     vw 2628   6.637   6.859   4.853 -0.0834 -0.1884 -0.2902
  658SOL     ow 2629   6.470   2.875   3.209 -0.2272  0.2940 -0.0315
  658SOL     hw 2630   6.524   2.926   3.268 -0.4569  1.7476 -1.0258
  658SOL     hw 2631   6.461   2.789   3.251  1.2061  0.6678  1.0691
  658SOL     vw 2632   6.476   2.870   3.222 -0.0687  0.5351 -0.0175
  659SOL     ow 2633   1.593   0.179   6.573 -0.5088  0.2110  0.5883
  659SOL     hw 2634   1.551   0.237   6.509  2.7004  2.1146 -0.0233
  659SOL     hw 2635   1.531   0.174   6.645 -2.1990  1.9900 -0.6453
  659SOL     vw 2636   1.579   0.186   6.574 -0.3084  0.6968  0.3448
  660SOL     ow 2637   5.821   4.896   2.840  0.2875  0.0351  0.3250
  660SOL     hw 2638   5.736   4.905   2.797  0.8287  0.6822 -0.6737
  660SOL     hw 2639   5.879   4.953   2.789  0.9914  0.8031  1.9051
  660SOL     vw 2640   5.818   4.905   2.827  0.4513  0.2217  0.4017
  661SOL     ow 2641   0.518   5.648   1.617  0.0246 -0.3479  0.7038
  661SOL     hw 2642   0.527   5.561   1.578 -0.6541 -0.6973  1.3068
  661SOL     hw 2643   0.432   5.679   1.587  1.2702  1.2306 -1.6394
  661SOL     vw 2644   0.507   5.641   1.608  0.0993 -0.1855  0.4742
  662SOL     ow 2645   1.434   3.955   4.247  0.2116  0.3382  0.0582
  662SOL     hw 2646   1.494   3.957   4.173 -2.1422  0.7552 -1.9695
  662SOL     hw 2647   1.376   3.881   4.230  0.0328 -0.0077  1.8986
  662SOL     vw 2648   1.434   3.946   4.235 -0.1225  0.3475  0.0336
  663SOL     ow 2649   6.900   1.302   0.420  0.2842 -0.3840  0.5657
  663SOL     hw 2650   6.902   1.271   0.510  0.7827 -0.1629  0.6335
  663SOL     hw 2651   6.877   1.225   0.368  2.5899 -1.1692  0.6008
  663SOL     vw 2652   6.897   1.288   0.425  0.6542 -0.4585  0.5792
  664SOL     ow 2653   3.912   5.811   5.542  0.6168  0.0306  0.3874
  664SOL     hw 2654   3.901   5.904   5.521 -0.1102  0.5668  2.8318
  664SOL     hw 2655   3.993   5.808   5.594  0.6909 -0.7278  0.2326
  664SOL     vw 2656   3.921   5.823   5.546  0.5306  0.0012  0.6893
  665SOL     ow 2657   1.131   0.819   4.179 -0.1291  0.6320  0.0284
  665SOL     hw 2658   1.107   0.727   4.174 -1.0347  0.9247 -2.3906
  665SOL     hw 2659   1.086   0.852   4.257  0.2306 -0.9453  0.9329
  665SOL     vw 2660   1.122   0.811   4.189 -0.2012  0.4625 -0.1714
  666SOL     ow 2661   2.172   5.517   1.108 -0.2510  0.3782  0.5225
  666SOL     hw 2662   2.253   5.536   1.060  0.3110  0.0906  1.3240
  666SOL     hw 2663   2.130   5.447   1.057  0.2609  0.1797  0.3633
  666SOL     vw 2664   2.177   5.510   1.095 -0.1093  0.3138  0.6072
  667SOL     ow 2665   0.514   5.935   6.463  0.4166 -0.2581  0.4262
  667SOL     hw 2666   0.479   5.897   6.543  0.5526  1.1634  1.1898
  667SOL     hw 2667   0.469   6.019   6.455  0.2891 -0.4458 -1.0785
  667SOL     vw 2668   0.503   5.941   6.472  0.4177 -0.0951  0.3288
  668SOL     ow 2669   6.872   4.599   4.474 -0.6234  0.0650 -0.4136
  668SOL     hw 2670   6.812   4.589   4.400 -0.3992 -0.3073 -0.5536
  668SOL     hw 2671   6.871   4.692   4.494 -0.6792  0.1721 -0.8980
  668SOL     vw 2672   6.864   4.610   4.467 -0.6011  0.0298 -0.4959
  669SOL     ow 2673   0.791   3.514   1.252 -0.4747  0.0734  0.0999
  669SOL     hw 2674   0.878   3.503   1.213 -0.0510 -1.4595  1.3463
  669SOL     hw 2675   0.750   3.583   1.200  1.0610  0.0523 -1.2404
  669SOL     vw 2676   0.797   3.521   1.240 -0.2162 -0.1316  0.0874
  670SOL     ow 2677   2.497   4.255   7.028  0.0177  0.1293  0.2381
  670SOL     hw 2678   2.476   4.249   7.121  0.1885 -0.3765  0.2478
  670SOL     hw 2679   2.496   4.164   6.997 -1.9941  0.4093 -0.6795
  670SOL     vw 2680   2.494   4.242   7.036 -0.2253  0.0997  0.1185
  671SOL     ow 2681   3.704   4.266   3.826  0.0761 -0.2521 -0.2610
  671SOL     hw 2682   3.756   4.266   3.906 -0.6867  0.6863  0.2434
  671SOL     hw 2683   3.736   4.189   3.777  1.8158  0.1944  0.0959
  671SOL     vw 2684   3.715   4.256   3.830  0.2049 -0.0691 -0.1475
  672SOL     ow 2685   4.820   7.036   4.231 -0.1628  0.0797 -0.0569
  672SOL     hw 2686   4.775   6.953   4.248 -1.0636  0.1533 -1.8385
  672SOL     hw 2687   4.871   7.053   4.310 -0.5210 -1.8066  0.6131
  672SOL     vw 2688   4.821   7.028   4.244 -0.3290 -0.1595 -0.2036
  673SOL     ow 2689   4.568   0.018   3.951  0.3856  0.5758 -0.2096
  673SOL     hw 2690   4.546   0.067   4.030 -0.0882  0.3668 -0.2106
  673SOL     hw 2691   4.524  -0.066   3.961 -2.2918  1.6288 -2.0849
  673SOL     vw 2692   4.560   0.013   3.962 -0.0300  0.6871 -0.4572
  674SOL     ow 2693   2.995   2.205   1.157 -0.4760  0.3025  0.2397
  674SOL     hw 2694   3.062   2.209   1.088 -0.5224 -0.2798  0.1560
  674SOL     hw 2695   2.934   2.276   1.135 -0.4554  0.1612 -0.2867
  674SOL     vw 2696   2.996   2.215   1.145 -0.4793  0.2071  0.1592
  675SOL     ow 2697   2.075   5.980   6.623 -0.0877  0.1777 -0.7718
  675SOL     hw 2698   2.037   6.021   6.545 -1.0144 -0.9184 -0.9261
  675SOL     hw 2699   2.108   6.053   6.674 -2.1471  1.1972 -0.7894
  675SOL     vw 2700   2.074   5.995   6.619 -0.4816  0.1674 -0.7942
  676SOL     ow 2701   2.486   2.973   5.454  0.2438  0.1129  0.6735
  676SOL     hw 2702   2.466   2.934   5.368  0.0576  1.0145  0.2892
  676SOL     hw 2703   2.464   3.066   5.443 -0.6859  0.0785  1.9912
  676SOL     vw 2704   2.480   2.980   5.441  0.0966  0.2273  0.7966
  677SOL     ow 2705   3.333   6.200   3.705 -0.8180  0.2449 -0.2754
  677SOL     hw 2706   3.310   6.273   3.648  0.6352  0.2408 -0.9142
  677SOL     hw 2707   3.382   6.140   3.649 -1.6513 -1.0375  0.3397
  677SOL     vw 2708   3.337   6.202   3.690 -0.7364  0.0751 -0.2785
  678SOL     ow 2709   0.570   5.765   1.859 -0.1569  0.5899 -0.2501
  678SOL     hw 2710   0.559   5.746   1.766 -3.0499 -0.0060  0.0936
  678SOL     hw 2711   0.528   5.850   1.871  1.5447  1.3978  0.3189
  678SOL     vw 2712   0.563   5.773   1.849 -0.3141  0.6177 -0.1297
  679SOL     ow 2713   1.842   0.289   0.979  0.2756  0.2886 -0.1755
  679SOL     hw 2714   1.832   0.314   1.071  0.4748  0.4772 -0.2067
  679SOL     hw 2715   1.903   0.352   0.943  0.3429  0.0990 -0.3935
  679SOL     vw 2716   1.848   0.300   0.986  0.3108  0.2884 -0.2083
  680SOL     ow 2717   5.831   5.281   6.016  0.6343 -0.5448 -0.1636
  680SOL     hw 2718   5.924   5.302   6.005  0.8327  0.1115  2.0849
  680SOL     hw 2719   5.791   5.365   6.040 -0.5582 -0.8267 -1.1150
  680SOL     vw 2720   5.838   5.295   6.018  0.5033 -0.4954  0.0076
  681SOL     ow 2721   1.365   0.077   4.509  0.2979  0.2490 -0.8459
  681SOL     hw 2722   1.373  -0.018   4.503  0.2897 -0.1036  2.5548
  681SOL     hw 2723   1.445   0.104   4.554 -0.9433  1.4144  0.7836
  681SOL     vw 2724   1.377   0.068   4.515  0.1331  0.3562 -0.1822
  682SOL     ow 2725   2.537   5.630   2.369  0.3584  0.2686  0.0873
  682SOL     hw 2726   2.527   5.632   2.465  0.4507 -0.8184  0.1359
  682SOL     hw 2727   2.525   5.538   2.346  0.3378  0.5204 -0.9580
  682SOL     vw 2728   2.534   5.618   2.379  0.3678  0.1583 -0.0442
  683SOL     ow 2729   0.405   2.324   5.864 -0.0406  0.2044  0.1077
  683SOL     hw 2730   0.382   2.266   5.937 -2.8759  0.3116 -0.5545
  683SOL     hw 2731   0.380   2.412   5.894 -1.8315  0.1715 -1.1257
  683SOL     vw 2732   0.398   2.328   5.877 -0.6509  0.2141 -0.1426
  684SOL     ow 2733   4.311   5.353   2.425 -0.1932  0.4633  0.0479
  684SOL     hw 2734   4.318   5.257   2.430 -0.5402  0.3795 -0.7780
  684SOL     hw 2735   4.284   5.380   2.512 -0.3133 -0.2162  0.2312
  684SOL     vw 2736   4.309   5.344   2.437 -0.2551  0.3626 -0.0368
  685SOL     ow 2737   1.963   1.482   1.399 -0.3389 -0.6780  0.3765
  685SOL     hw 2738   1.972   1.573   1.427  1.0951 -0.2655 -1.2736
  685SOL     hw 2739   2.023   1.433   1.454 -0.5363 -0.5240  0.7354
  685SOL     vw 2740   1.972   1.487   1.410 -0.1757 -0.6033  0.2061
  686SOL     ow 2741   4.919   0.599   1.329  0.2572 -0.2498  0.4632
  686SOL     hw 2742   4.891   0.599   1.238 -1.9638  2.0956  1.0222
  686SOL     hw 2743   4.849   0.553   1.376 -1.2636  2.8389  1.4944
  686SOL     vw 2744   4.906   0.593   1.323 -0.2367  0.4672  0.6731
  687SOL     ow 2745   4.854   1.363   0.413 -0.2617  0.4305 -0.4656
  687SOL     hw 2746   4.929   1.373   0.354 -0.3472 -1.9175 -1.0829
  687SOL     hw 2747   4.824   1.273   0.398 -1.0097  0.1328  2.3437
  687SOL     vw 2748   4.860   1.352   0.403 -0.3717  0.0814 -0.1764
  688SOL     ow 2749   2.243   1.026   2.264 -0.2567  0.5824  0.2399
  688SOL     hw 2750   2.248   1.110   2.218  1.1633 -0.1557 -1.0205
  688SOL     hw 2751   2.264   0.961   2.198  1.0758 -0.5932  1.7366
  688SOL     vw 2752   2.246   1.029   2.249  0.1066  0.3299  0.2711
  689SOL     ow 2753   6.695   0.233   2.598 -0.3925 -0.2476 -0.3353
  689SOL     hw 2754   6.749   0.268   2.527 -0.2302  0.6681  0.2093
  689SOL     hw 2755   6.684   0.140   2.578  0.3556 -0.1778 -1.1004
  689SOL     vw 2756   6.700   0.226   2.586 -0.2723 -0.1176 -0.3644
  690SOL     ow 2757   5.255   4.107   1.061 -0.2997 -0.0753 -0.0304
  690SOL     hw 2758   5.177   4.140   1.016 -0.2141  0.8611  0.4919
  690SOL     hw 2759   5.294   4.046   0.999 -0.9410  0.1538 -0.6746
  690SOL     vw 2760   5.250   4.103   1.047 -0.3729  0.0787 -0.0465
  691SOL     ow 2761   2.041   1.895   1.304  0.0539 -0.2579  0.3330
  691SOL     hw 2762   2.060   1.987   1.321 -1.1327  0.8689 -3.3799
  691SOL     hw 2763   1.945   1.891   1.303  0.0158 -2.1697  2.7873
  691SOL     vw 2764   2.031   1.907   1.306 -0.1076 -0.3614  0.1670
  692SOL     ow 2765   0.408   3.361   1.610 -0.8485  0.6923  0.3970
  692SOL     hw 2766   0.470   3.388   1.678 -0.0111  0.8893 -0.4290
  692SOL     hw 2767   0.325   3.352   1.656 -0.4084  1.3321  1.3497
  692SOL     vw 2768   0.405   3.363   1.625 -0.6800  0.8028  0.4137
  693SOL     ow 2769   3.388   0.605   2.913 -0.8265  0.1626  0.3925
  693SOL     hw 2770   3.454   0.672   2.934  0.0923  0.1234 -1.9970
  693SOL     hw 2771   3.425   0.523   2.945 -0.6298  0.4156  0.8124
  693SOL     vw 2772   3.402   0.603   2.920 -0.6793  0.1908  0.1327
  694SOL     ow 2773   3.244   3.164   6.049  0.3480 -0.6742  0.4250
  694SOL     hw 2774   3.254   3.088   5.993 -0.7391  0.0572 -0.8357
  694SOL     hw 2775   3.316   3.222   6.026 -1.0178  0.3641 -1.5453
  694SOL     vw 2776   3.255   3.162   6.039  0.0243 -0.4406 -0.0014
  695SOL     ow 2777   2.770   6.603   6.376  0.0337 -0.9543 -0.6763
  695SOL     hw 2778   2.803   6.562   6.297  0.0218 -1.3651 -0.4693
  695SOL     hw 2779   2.685   6.560   6.392  1.0404 -2.5178  0.8209
  695SOL     vw 2780   2.763   6.592   6.368  0.1650 -1.2147 -0.4516
  696SOL     ow 2781   6.597   3.419   3.939 -0.0525  0.2441 -0.4815
  696SOL     hw 2782   6.566   3.373   3.861  0.0873 -2.9435  1.1501
  696SOL     hw 2783   6.685   3.384   3.953 -0.5444 -0.2584  1.7340
  696SOL     vw 2784   6.605   3.408   3.930 -0.0989 -0.2427  0.0260
  697SOL     ow 2785   5.304   1.765   4.877 -0.0408 -0.1194  0.2714
  697SOL     hw 2786   5.260   1.773   4.792 -0.8845 -0.2023  0.6854
  697SOL     hw 2787   5.333   1.674   4.880 -1.2984 -0.5329  0.6593
  697SOL     vw 2788   5.302   1.754   4.866 -0.3181 -0.1849  0.3774
  698SOL     ow 2789   4.996   2.970   5.595  0.2586 -0.3569 -0.1663
  698SOL     hw 2790   4.923   2.913   5.621  0.7154 -0.1369  1.7004
  698SOL     hw 2791   4.997   2.963   5.499 -2.9214  0.5290 -0.3959
  698SOL     vw 2792   4.986   2.961   5.586 -0.1006 -0.2110  0.0498
  699SOL     ow 2793   3.786   4.515   5.392  0.3928  0.4453 -0.1866
  699SOL     hw 2794   3.761   4.431   5.428  0.5928  1.3345  2.1870
  699SOL     hw 2795   3.717   4.575   5.421  1.9325  1.7091  1.0513
  699SOL     vw 2796   3.773   4.512   5.401  0.6222  0.7293  0.2899
  700SOL     ow 2797   3.715   4.185   5.023 -0.7751 -1.0392 -0.1865
  700SOL     hw 2798   3.711   4.091   5.041  0.3834 -0.8301  1.2938
  700SOL     hw 2799   3.793   4.215   5.068 -0.9599  0.5966 -0.8998
  700SOL     vw 2800   3.725   4.176   5.031 -0.6467 -0.7958 -0.0854
  701SOL     ow 2801   7.075   1.793   2.220 -0.1715 -0.2846  0.3950
  701SOL     hw 2802   7.141   1.796   2.290  0.2539  1.7000 -0.0516
  701SOL     hw 2803   7.090   1.872   2.169 -2.5753 -0.0409 -0.0486
  701SOL     vw 2804   7.086   1.804   2.223 -0.4325  0.0094  0.2775
  702SOL     ow 2805   1.823   4.016   6.274 -0.0710  0.5616 -0.7373
  702SOL     hw 2806   1.907   4.034   6.232 -0.3896  0.4565 -1.4410
  702SOL     hw 2807   1.841   4.023   6.368  0.7706  0.3260 -0.8688
  702SOL     vw 2808   1.837   4.019   6.281 -0.0020  0.5167 -0.8478
  703SOL     ow 2809   0.650   6.359   0.962 -0.2700  0.2245  0.5456
  703SOL     hw 2810   0.566   6.404   0.965 -0.9641 -1.0463  3.0410
  703SOL     hw 2811   0.634   6.281   0.909 -0.9592 -0.4688  1.7342
  703SOL     vw 2812   0.637   6.355   0.955 -0.4525 -0.0348  1.0317
  704SOL     ow 2813   6.166   0.126   0.122 -0.4857 -0.0601  0.3044
  704SOL     hw 2814   6.117   0.045   0.113 -0.7575  0.2434 -1.3256
  704SOL     hw 2815   6.254   0.099   0.146 -0.5304 -0.8525 -0.3969
  704SOL     vw 2816   6.171   0.112   0.124 -0.5276 -0.1246 -0.0032
  705SOL     ow 2817   2.461   6.955   0.389  0.2150 -0.0573  1.0122
  705SOL     hw 2818   2.465   7.025   0.454  1.1916  2.1967 -1.2980
  705SOL     hw 2819   2.422   6.996   0.312 -0.7346 -2.5577  0.0601
  705SOL     vw 2820   2.456   6.970   0.387  0.2186 -0.0899  0.5817
  706SOL     ow 2821   3.236   2.665   0.091 -0.2700  0.9017 -0.3748
  706SOL     hw 2822   3.314   2.611   0.079  0.7808  2.3496 -0.2116
  706SOL     hw 2823   3.205   2.642   0.179 -0.1114  0.2343 -0.4842
  706SOL     vw 2824   3.242   2.655   0.101 -0.1104  1.0047 -0.3677
  707SOL     ow 2825   1.684   2.772   1.204  0.3192 -0.7830 -0.6316
  707SOL     hw 2826   1.682   2.697   1.263 -2.5096 -0.8176 -0.6185
  707SOL     hw 2827   1.684   2.734   1.116  1.9375 -0.7462 -0.6644
  707SOL     vw 2828   1.683   2.757   1.201  0.1595 -0.7827 -0.6343
  708SOL     ow 2829   6.488   6.682   1.349  0.6972  0.5405  0.1387
  708SOL     hw 2830   6.407   6.665   1.396  1.7792 -3.2610  0.9406
  708SOL     hw 2831   6.463   6.679   1.257 -0.3169  1.2048  0.3743
  708SOL     vw 2832   6.474   6.680   1.343  0.7062  0.1264  0.2755
  709SOL     ow 2833   5.951   6.295   0.486  0.0971  0.0413  0.0072
  709SOL     hw 2834   6.013   6.222   0.476  0.8318  0.6722 -0.0856
  709SOL     hw 2835   5.924   6.290   0.577  0.1142 -0.3728 -0.0068
  709SOL     vw 2836   5.956   6.285   0.497  0.1965  0.0699 -0.0069
  710SOL     ow 2837   5.749   1.146   1.074 -0.2963 -0.1699  0.2312
  710SOL     hw 2838   5.704   1.086   1.133  2.0915 -1.1817  1.1291
  710SOL     hw 2839   5.796   1.089   1.013  0.0233  0.8292 -0.4798
  710SOL     vw 2840   5.750   1.131   1.074  0.0606 -0.1715  0.2559
  711SOL     ow 2841   3.326   2.984   3.997 -0.6569  0.3795  0.5726
  711SOL     hw 2842   3.275   3.011   3.921  1.1895  1.3959 -0.3877
  711SOL     hw 2843   3.320   2.889   3.997 -0.5667  0.3369 -0.9970
  711SOL     vw 2844   3.319   2.975   3.987 -0.4013  0.5078  0.2388
  712SOL     ow 2845   5.795   0.027   1.547 -0.1762  0.4736 -0.1063
  712SOL     hw 2846   5.842   0.072   1.617  0.4693 -0.4371  0.0586
  712SOL     hw 2847   5.715   0.079   1.535  1.5917  3.0645 -1.5699
  712SOL     vw 2848   5.791   0.040   1.555  0.1423  0.6955 -0.2777
  713SOL     ow 2849   6.777   6.606   2.797 -0.2204 -0.0640  0.1557
  713SOL     hw 2850   6.758   6.560   2.879  1.2960  0.2671  0.7186
  713SOL     hw 2851   6.783   6.537   2.731 -1.0757 -0.3670  0.3876
  713SOL     vw 2852   6.775   6.591   2.799 -0.1333 -0.0603  0.2605
  714SOL     ow 2853   2.500   0.164   5.873 -0.0789 -0.3772 -0.6022
  714SOL     hw 2854   2.542   0.243   5.906 -0.1953 -0.3663 -0.4786
  714SOL     hw 2855   2.528   0.094   5.933  0.6297 -0.5748 -1.1497
  714SOL     vw 2856   2.509   0.165   5.885 -0.0007 -0.4018 -0.6583
  715SOL     ow 2857   4.240   0.797   3.691  0.3053 -0.3020 -1.0673
  715SOL     hw 2858   4.317   0.829   3.643 -0.5529  0.6621 -1.8512
  715SOL     hw 2859   4.257   0.704   3.705  1.8420 -0.0059 -0.7653
  715SOL     vw 2860   4.253   0.789   3.686  0.3948 -0.1357 -1.1308
  716SOL     ow 2861   3.898   3.346   5.048 -0.1778 -0.1905 -0.6068
  716SOL     hw 2862   3.807   3.360   5.020 -0.1378 -0.8850 -1.1353
  716SOL     hw 2863   3.894   3.343   5.143 -0.6638  0.0965 -0.6162
  716SOL     vw 2864   3.885   3.347   5.057 -0.2366 -0.2443 -0.6776
  717SOL     ow 2865   5.499   3.734   5.098  0.1247  0.0296 -0.0569
  717SOL     hw 2866   5.409   3.763   5.082  0.9770  1.9185 -1.8589
  717SOL     hw 2867   5.505   3.648   5.058 -1.1344 -0.5876  1.0152
  717SOL     vw 2868   5.488   3.727   5.091  0.0713  0.1974 -0.1531
  718SOL     ow 2869   5.271   3.778   6.674 -0.0103 -0.3602 -0.0738
  718SOL     hw 2870   5.326   3.802   6.749 -0.7764  2.4967 -0.3136
  718SOL     hw 2871   5.320   3.809   6.598 -0.9310  0.2343 -0.4459
  718SOL     vw 2872   5.285   3.785   6.674 -0.2327  0.0950 -0.1545
  719SOL     ow 2873   3.194   3.128   3.835  0.3798 -0.2549  0.0248
  719SOL     hw 2874   3.150   3.172   3.908 -1.0533 -2.1814  0.4140
  719SOL     hw 2875   3.232   3.199   3.784 -0.4089  1.3047  1.4846
  719SOL     vw 2876   3.193   3.143   3.838  0.0867 -0.3034  0.2687
  720SOL     ow 2877   6.973   2.175   4.503 -0.4131  0.3618 -0.1162
  720SOL     hw 2878   7.001   2.083   4.510 -2.1787 -0.4357 -2.2694
  720SOL     hw 2879   7.054   2.224   4.490  0.4303 -1.1674 -0.9464
  720SOL     vw 2880   6.987   2.169   4.503 -0.5348  0.0548 -0.5100
  721SOL     ow 2881   0.937   2.994   2.859 -0.0232  0.3243  0.0066
  721SOL     hw 2882   0.877   3.067   2.843  0.1739  0.2001 -1.4070
  721SOL     hw 2883   0.904   2.953   2.939  0.5093  2.6065  1.5160
  721SOL     vw 2884   0.925   2.998   2.868  0.0731  0.6090  0.0193
  722SOL     ow 2885   3.089   5.592   0.105  0.9444 -0.2578 -0.1871
  722SOL     hw 2886   3.154   5.662   0.110 -0.3790  0.9589  0.8268
  722SOL     hw 2887   3.134   5.521   0.059  3.6921 -0.2650  2.1943
  722SOL     vw 2888   3.103   5.592   0.100  1.1324 -0.0982  0.2609
  723SOL     ow 2889   3.230   2.916   5.920 -0.1584  0.1325  0.0661
  723SOL     hw 2890   3.215   2.830   5.959 -0.2407 -0.3794 -1.0569
  723SOL     hw 2891   3.163   2.924   5.852 -1.4449  1.9417  1.4626
  723SOL     vw 2892   3.219   2.905   5.916 -0.3392  0.3036  0.1023
  724SOL     ow 2893   5.926   0.295   0.132  0.2783 -0.3072  0.3812
  724SOL     hw 2894   5.846   0.270   0.085  0.6209  1.3672 -1.2181
  724SOL     hw 2895   5.896   0.351   0.204  0.0022  0.6054 -0.4258
  724SOL     vw 2896   5.912   0.299   0.135  0.2871  0.0342  0.0637
  725SOL     ow 2897   6.371   6.441   4.260 -0.0432 -0.0396  0.5406
  725SOL     hw 2898   6.308   6.416   4.328 -0.9424  0.9391  0.0945
  725SOL     hw 2899   6.369   6.537   4.260  2.1300  0.0633  1.1266
  725SOL     vw 2900   6.363   6.451   4.269  0.1247  0.1032  0.5593
  726SOL     ow 2901   6.870   5.642   0.082  0.5447 -0.5462 -0.3790
  726SOL     hw 2902   6.949   5.620   0.132 -0.3047 -0.9778  0.8188
  726SOL     hw 2903   6.861   5.570   0.020  1.1228 -0.4602 -0.5708
  726SOL     vw 2904   6.879   5.630   0.081  0.5085 -0.5918 -0.2462
  727SOL     ow 2905   1.512   4.588   6.054 -0.1805  0.0126 -0.1001
  727SOL     hw 2906   1.559   4.507   6.035 -0.0051  0.3063 -0.9808
  727SOL     hw 2907   1.578   4.657   6.044 -0.6710  0.3857 -0.8844
  727SOL     vw 2908   1.527   4.587   6.050 -0.2220  0.1004 -0.3197
  728SOL     ow 2909   1.386   6.463   5.586 -0.0866  0.5054 -0.2084
  728SOL     hw 2910   1.315   6.465   5.650  0.0811  1.0292 -0.0316
  728SOL     hw 2911   1.351   6.413   5.513  0.2113 -1.3854  0.8665
  728SOL     vw 2912   1.372   6.457   5.585 -0.0251  0.3250 -0.0436
  729SOL     ow 2913   5.335   1.224   3.189 -0.0309  0.1796  0.1203
  729SOL     hw 2914   5.381   1.144   3.214  2.5074  1.5700  0.3691
  729SOL     hw 2915   5.342   1.280   3.267  0.1538  1.3885 -0.7398
  729SOL     vw 2916   5.342   1.221   3.203  0.3283  0.5226  0.0398
  730SOL     ow 2917   3.224   5.864   4.617  0.1141 -0.1433  0.6407
  730SOL     hw 2918   3.197   5.941   4.667 -0.1951 -0.1437  0.4726
  730SOL     hw 2919   3.319   5.874   4.608  0.1143  0.0757  0.8587
  730SOL     vw 2920   3.233   5.875   4.623  0.0734 -0.1144  0.6475
  731SOL     ow 2921   0.711   3.306   2.428 -0.2173  0.0943 -0.3245
  731SOL     hw 2922   0.747   3.284   2.514 -0.6661 -2.4480 -0.7121
  731SOL     hw 2923   0.783   3.348   2.382  0.4666  0.1983  0.8063
  731SOL     vw 2924   0.725   3.309   2.433 -0.1862 -0.2276 -0.2265
  732SOL     ow 2925   1.773   1.644   1.192  0.1503  0.3623 -0.8465
  732SOL     hw 2926   1.699   1.622   1.136 -0.7833  0.2871  0.3627
  732SOL     hw 2927   1.756   1.734   1.220 -0.2202 -0.0966  0.4998
  732SOL     vw 2928   1.761   1.653   1.188 -0.0218  0.2919 -0.5093
  733SOL     ow 2929   3.371   4.610   6.379  0.7269  0.5871  0.4081
  733SOL     hw 2930   3.429   4.563   6.319 -0.0126  1.6723 -1.2132
  733SOL     hw 2931   3.332   4.679   6.326  0.4513  1.9547  2.2900
  733SOL     vw 2932   3.374   4.613   6.364  0.5929  0.9108  0.4425
  734SOL     ow 2933   0.050   6.396   5.439 -0.4771  0.9092 -0.6343
  734SOL     hw 2934  -0.018   6.413   5.503 -0.4465 -0.4202 -0.2071
  734SOL     hw 2935   0.038   6.303   5.416  0.5167  0.9399 -1.3370
  734SOL     vw 2936   0.040   6.386   5.444 -0.3420  0.7381 -0.6707
  735SOL     ow 2937   3.027   1.571   3.540  0.1123  0.9225 -0.7982
  735SOL     hw 2938   3.105   1.519   3.519 -0.6678 -1.8866  2.2728
  735SOL     hw 2939   3.062   1.651   3.579  1.5191  0.0105 -0.0652
  735SOL     vw 2940   3.042   1.574   3.542  0.1949  0.4316 -0.2964
  736SOL     ow 2941   2.394   4.981   6.418  0.8168  0.6143 -0.0018
  736SOL     hw 2942   2.313   4.931   6.404  0.3735  0.9760  1.1261
  736SOL     hw 2943   2.464   4.921   6.395  0.3842 -1.1849  2.8874
  736SOL     vw 2944   2.392   4.966   6.413  0.7013  0.4244  0.5281
  737SOL     ow 2945   4.361   3.129   4.329  0.1950 -0.3563  0.8907
  737SOL     hw 2946   4.295   3.115   4.396 -0.9621  2.0743  0.3611
  737SOL     hw 2947   4.360   3.224   4.314  0.8422 -0.7408 -2.1014
  737SOL     vw 2948   4.352   3.140   4.336  0.1278 -0.0864  0.4261
  738SOL     ow 2949   1.989   4.390   5.543 -0.2613  0.1001  0.5021
  738SOL     hw 2950   1.989   4.439   5.625 -0.2728 -0.6741  0.9811
  738SOL     hw 2951   1.934   4.313   5.561 -0.1212 -0.1699 -0.1784
  738SOL     vw 2952   1.982   4.386   5.556 -0.2444 -0.0377  0.4756
  739SOL     ow 2953   1.528   3.788   2.910  0.4323 -0.0204 -0.0555
  739SOL     hw 2954   1.478   3.714   2.947  1.1313 -0.8458 -0.7122
  739SOL     hw 2955   1.466   3.861   2.912 -0.2456 -0.5805  0.7257
  739SOL     vw 2956   1.513   3.788   2.915  0.4351 -0.2033 -0.0391
  740SOL     ow 2957   0.600   6.930   3.067 -0.3435  0.4458  0.5022
  740SOL     hw 2958   0.611   7.004   3.007 -2.1003  1.3652  1.2379
  740SOL     hw 2959   0.685   6.921   3.110 -0.4208  2.9611  1.3851
  740SOL     vw 2960   0.613   6.939   3.065 -0.5855  0.8991  0.7157
  741SOL     ow 2961   5.144   1.625   5.816 -0.1573 -0.1222  0.5960
  741SOL     hw 2962   5.121   1.532   5.822 -1.5567  0.1667  0.0570
  741SOL     hw 2963   5.063   1.671   5.838  0.0692  0.9597 -0.7210
  741SOL     vw 2964   5.130   1.619   5.820 -0.3121  0.0587  0.3512
  742SOL     ow 2965   6.658   1.041   2.006  0.0018 -0.0820  0.3855
  742SOL     hw 2966   6.674   1.118   2.062 -2.5618  2.1343 -1.6359
  742SOL     hw 2967   6.746   1.013   1.979  1.0623  2.4728  0.8381
  742SOL     vw 2968   6.672   1.048   2.010 -0.1962  0.5475  0.1786
  743SOL     ow 2969   3.844   0.383   1.226 -0.6304 -0.5453 -0.0322
  743SOL     hw 2970   3.917   0.440   1.205 -0.2065 -0.7434  0.8671
  743SOL     hw 2971   3.796   0.429   1.295 -4.0338  1.7979 -3.5164
  743SOL     vw 2972   3.847   0.396   1.232 -1.0235 -0.2623 -0.3732
  744SOL     ow 2973   3.675   1.769   5.115  0.0117 -0.7373 -0.4267
  744SOL     hw 2974   3.694   1.687   5.069  2.3473 -0.1617 -0.5958
  744SOL     hw 2975   3.727   1.835   5.069  1.7098  0.0490  2.3640
  744SOL     vw 2976   3.684   1.767   5.103  0.5440 -0.5576 -0.0808
  745SOL     ow 2977   2.402   2.756   0.130 -0.5097 -0.6846  0.2442
  745SOL     hw 2978   2.362   2.835   0.094 -0.4790 -0.0390  1.5533
  745SOL     hw 2979   2.435   2.709   0.054 -1.7151 -0.1053 -0.6803
  745SOL     vw 2980   2.401   2.760   0.115 -0.6646 -0.5231  0.2950
  746SOL     ow 2981   5.190   0.539   2.139 -0.7122  0.7230 -0.8263
  746SOL     hw 2982   5.146   0.492   2.210  0.9810 -1.1064 -0.9123
  746SOL     hw 2983   5.169   0.490   2.060  1.3507 -0.1713 -0.8770
  746SOL     vw 2984   5.181   0.526   2.138 -0.2162  0.3636 -0.8444
  747SOL     ow 2985   1.643   3.810   3.614 -0.2517  0.0723  0.4205
  747SOL     hw 2986   1.678   3.734   3.660 -0.9468 -0.4292  0.1414
  747SOL     hw 2987   1.642   3.783   3.522 -4.3350 -1.2266  0.6590
  747SOL     vw 2988   1.648   3.796   3.608 -0.8821 -0.1652  0.4151
  748SOL     ow 2989   4.385   1.444   6.017  0.4994 -0.4715 -0.1965
  748SOL     hw 2990   4.476   1.424   6.042 -0.1722 -0.3207  2.7332
  748SOL     hw 2991   4.345   1.475   6.098 -2.6712 -2.2934 -0.9092
  748SOL     vw 2992   4.392   1.445   6.031 -0.0079 -0.6920  0.0961
  749SOL     ow 2993   5.515   6.587   3.008  0.3952  0.0701 -0.3244
  749SOL     hw 2994   5.514   6.521   2.939 -0.9343  0.0404 -0.3115
  749SOL     hw 2995   5.592   6.640   2.990 -0.2064  0.3825 -2.1408
  749SOL     vw 2996   5.525   6.585   2.997  0.1404  0.1073 -0.5623
  750SOL     ow 2997   0.296   3.455   3.082  0.2576 -0.1338 -0.5159
  750SOL     hw 2998   0.346   3.461   3.000  0.2556 -0.5758 -0.5518
  750SOL     hw 2999   0.332   3.378   3.126  0.2877  0.1294 -0.0803
  750SOL     vw 3000   0.308   3.445   3.077  0.2613 -0.1572 -0.4631
  751SOL     ow 3001   0.533   3.570   1.865 -0.0881 -0.3758  0.0489
  751SOL     hw 3002   0.460   3.514   1.889  0.5772 -1.0827  0.4546
  751SOL     hw 3003   0.492   3.644   1.820 -1.1492 -0.2519  1.1557
  751SOL     vw 3004   0.518   3.573   1.862 -0.1403 -0.4526  0.2484
  752SOL     ow 3005   6.559   5.509   4.024  0.4850 -0.1208  0.3760
  752SOL     hw 3006   6.499   5.579   3.998 -1.7693 -2.1861 -0.3741
  752SOL     hw 3007   6.619   5.551   4.085 -0.5074  2.5308 -0.3070
  752SOL     vw 3008   6.559   5.524   4.029  0.0570 -0.0436  0.1867
  753SOL     ow 3009   6.624   4.944   1.125 -0.4536  0.5719  0.3426
  753SOL     hw 3010   6.573   5.015   1.085  0.3874  1.1466  0.2746
  753SOL     hw 3011   6.712   4.980   1.134 -0.4041  0.1532  1.8957
  753SOL     vw 3012   6.629   4.958   1.121 -0.3362  0.5922  0.5385
  754SOL     ow 3013   1.429   0.769   4.060  0.2072 -0.0202  0.2592
  754SOL     hw 3014   1.480   0.801   3.985 -0.3979 -0.4151 -0.3368
  754SOL     hw 3015   1.444   0.674   4.059 -0.2964 -0.1002  0.2614
  754SOL     vw 3016   1.438   0.761   4.050  0.0609 -0.0829  0.1810
  755SOL     ow 3017   6.059   2.265   6.975  0.0743 -0.2236  0.6512
  755SOL     hw 3018   6.140   2.290   7.018 -0.2023 -1.9588  2.3167
  755SOL     hw 3019   5.993   2.324   7.011 -0.0372 -1.2562  2.2134
  755SOL     vw 3020   6.061   2.276   6.985  0.0231 -0.5888  1.0767
  756SOL     ow 3021   0.815   2.925   4.944 -0.0067 -0.5392 -0.2591
  756SOL     hw 3022   0.757   2.957   5.013 -0.6193 -0.1231 -0.9418
  756SOL     hw 3023   0.883   2.991   4.936  1.3202 -1.6195  1.3917
  756SOL     vw 3024   0.816   2.938   4.952  0.0876 -0.6270 -0.1311
  757SOL     ow 3025   0.671   6.142   0.177  0.1090  0.1885 -0.1990
  757SOL     hw 3026   0.654   6.236   0.180 -2.1865 -0.0619 -1.8501
  757SOL     hw 3027   0.586   6.104   0.151  0.4819 -2.4981  2.1001
  757SOL     vw 3028   0.657   6.149   0.174 -0.1447 -0.1991 -0.1135
  758SOL     ow 3029   0.718   0.708   5.570 -0.0014  0.0655  0.3003
  758SOL     hw 3030   0.651   0.769   5.540  0.7691  1.0016  0.4470
  758SOL     hw 3031   0.673   0.653   5.635 -0.6131  0.7054  0.4219
  758SOL     vw 3032   0.703   0.708   5.575  0.0196  0.2734  0.3359
  759SOL     ow 3033   6.186   0.851   4.208 -0.1347  0.3159 -0.0944
  759SOL     hw 3034   6.234   0.932   4.193 -0.3271  0.2541 -1.0748
  759SOL     hw 3035   6.208   0.826   4.298  2.0319  0.0521 -0.6491
  759SOL     vw 3036   6.195   0.858   4.218  0.1259  0.2729 -0.2971
  760SOL     ow 3037   5.802   6.856   4.686  0.0829 -0.4555  0.0666
  760SOL     hw 3038   5.718   6.847   4.642 -0.7526  0.6159  1.3773
  760SOL     hw 3039   5.828   6.766   4.707 -1.3539 -0.7160  0.7803
  760SOL     vw 3040   5.795   6.843   4.683 -0.2167 -0.3483  0.3338
  761SOL     ow 3041   6.610   0.906   2.252 -0.0512 -0.1256  0.5485
  761SOL     hw 3042   6.689   0.877   2.207 -0.2892 -1.1220  0.7522
  761SOL     hw 3043   6.569   0.967   2.190  1.2190  0.9642  0.7383
  761SOL     vw 3044   6.615   0.910   2.238  0.0849 -0.1133  0.6005
  762SOL     ow 3045   0.774   3.371   1.565  0.2095  0.3583 -0.8563
  762SOL     hw 3046   0.714   3.351   1.494  1.8075  2.0268 -2.8059
  762SOL     hw 3047   0.800   3.286   1.600 -1.7279 -0.4472 -1.2493
  762SOL     vw 3048   0.770   3.357   1.561  0.1647  0.4722 -1.1654
  763SOL     ow 3049   3.187   4.750   4.989 -0.3651  0.2891  0.5212
  763SOL     hw 3050   3.146   4.834   4.973 -0.3863  0.2219  0.2215
  763SOL     hw 3051   3.274   4.772   5.024 -0.3711  0.4347  0.4446
  763SOL     vw 3052   3.193   4.764   4.991 -0.3686  0.2992  0.4714
  764SOL     ow 3053   4.345   3.861   0.370  0.2366 -0.9013 -0.0059
  764SOL     hw 3054   4.420   3.846   0.313  0.0593 -0.9439 -0.2345
  764SOL     hw 3055   4.319   3.952   0.351  0.1864 -0.9103  0.0200
  764SOL     vw 3056   4.351   3.871   0.360  0.2062 -0.9081 -0.0327
  765SOL     ow 3057   2.435   1.223   4.495  0.2479  0.2956  0.0122
  765SOL     hw 3058   2.445   1.301   4.551 -0.0427  0.2025  0.1956
  765SOL     hw 3059   2.342   1.221   4.474  0.4006  0.4855 -0.7121
  765SOL     vw 3060   2.424   1.233   4.500  0.2296  0.3085 -0.0591
  766SOL     ow 3061   5.883   6.096   5.212 -0.4151  0.3296 -0.3267
  766SOL     hw 3062   5.830   6.109   5.133 -0.7127  0.7616 -0.0643
  766SOL     hw 3063   5.969   6.072   5.180 -0.8032 -0.5350 -0.7615
  766SOL     vw 3064   5.887   6.095   5.198 -0.5054  0.2723 -0.3490
  767SOL     ow 3065   5.064   0.409   2.354 -0.1147  0.2609 -0.7385
  767SOL     hw 3066   5.083   0.332   2.408  0.7536  0.6419 -0.4909
  767SOL     hw 3067   4.969   0.407   2.342 -0.1994 -0.3776 -0.0268
  767SOL     vw 3068   5.054   0.398   2.359 -0.0112  0.2269 -0.6120
  768SOL     ow 3069   2.291   5.523   5.135 -0.1779 -0.5407 -0.0638
  768SOL     hw 3070   2.312   5.436   5.169  1.1635 -0.3535 -0.3214
  768SOL     hw 3071   2.324   5.583   5.201 -0.1162 -0.2180 -0.3871
  768SOL     vw 3072   2.298   5.519   5.148  0.0072 -0.4733 -0.1407
  769SOL     ow 3073   6.365   2.335   4.730  0.0094  0.4128  0.0833
  769SOL     hw 3074   6.279   2.375   4.742 -0.6916 -1.1959  0.8059
  769SOL     hw 3075   6.405   2.338   4.816  0.8116  1.3872 -0.3082
  769SOL     vw 3076   6.359   2.340   4.743  0.0229  0.3291  0.1268
  770SOL     ow 3077   3.452   0.937   6.560  0.2412 -0.3881  0.3121
  770SOL     hw 3078   3.385   0.935   6.629 -0.0777  1.5882  0.1255
  770SOL     hw 3079   3.443   0.854   6.515 -1.2533 -0.6789  1.0897
  770SOL     vw 3080   3.442   0.926   6.563  0.0019 -0.1657  0.3898
  771SOL     ow 3081   6.161   2.867   3.268  0.7291  0.0621  0.4531
  771SOL     hw 3082   6.244   2.873   3.220  1.3347 -0.8367  1.3507
  771SOL     hw 3083   6.186   2.867   3.360 -0.0209 -2.5479  0.7546
  771SOL     vw 3084   6.175   2.868   3.274  0.7100 -0.4009  0.6114
  772SOL     ow 3085   2.334   0.210   5.373  0.9980 -0.2275  0.0366
  772SOL     hw 3086   2.344   0.123   5.333 -3.0167 -1.0233  0.3298
  772SOL     hw 3087   2.318   0.269   5.299  1.8338 -0.0779 -0.0322
  772SOL     vw 3088   2.333   0.206   5.358  0.5785 -0.3128  0.0663
  773SOL     ow 3089   1.393   4.952   2.600 -0.6518  0.1447  0.6192
  773SOL     hw 3090   1.391   5.019   2.669  1.8023  0.6122  0.3029
  773SOL     hw 3091   1.382   4.870   2.647 -2.2322  0.6363  1.1772
  773SOL     vw 3092   1.391   4.950   2.616 -0.5365  0.2713  0.6511
  774SOL     ow 3093   6.307   4.525   6.686  0.8468 -0.1695 -0.5760
  774SOL     hw 3094   6.396   4.490   6.684  1.1169  0.4884 -3.0653
  774SOL     hw 3095   6.252   4.451   6.660  0.7671 -0.2878 -0.0816
  774SOL     vw 3096   6.312   4.510   6.683  0.8719 -0.0982 -0.8390
  775SOL     ow 3097   6.154   2.440   1.484  0.5777 -0.1646  0.6944
  775SOL     hw 3098   6.196   2.503   1.542  3.3422  1.5533 -2.7696
  775SOL     hw 3099   6.126   2.491   1.408 -2.1679 -2.3505  0.0330
  775SOL     vw 3100   6.156   2.455   1.482  0.5803 -0.2263  0.1501
  776SOL     ow 3101   1.707   6.817   0.998  0.2040  0.1226  0.1803
  776SOL     hw 3102   1.714   6.818   0.902  1.1523 -1.4382  0.1911
  776SOL     hw 3103   1.749   6.898   1.026 -0.2218  0.6746 -0.7237
  776SOL     vw 3104   1.713   6.828   0.989  0.2730 -0.0103  0.0625
  777SOL     ow 3105   6.762   3.594   6.204  0.7623 -0.2788 -0.2154
  777SOL     hw 3106   6.803   3.572   6.120  0.6305 -0.0874 -0.3307
  777SOL     hw 3107   6.676   3.629   6.180  0.7332 -0.2023 -0.0017
  777SOL     vw 3108   6.756   3.596   6.189  0.7410 -0.2435 -0.2022
  778SOL     ow 3109   5.184   5.932   2.690 -0.3922  0.3605 -0.4129
  778SOL     hw 3110   5.188   5.988   2.612 -1.0736  0.2992 -0.5021
  778SOL     hw 3111   5.266   5.883   2.690  1.5188  3.2450  1.1151
  778SOL     vw 3112   5.195   5.933   2.680 -0.2301  0.7329 -0.2229
  779SOL     ow 3113   0.587   7.030   6.876  0.4421 -0.0104  0.4239
  779SOL     hw 3114   0.648   6.993   6.812  0.2241 -0.8185  0.6707
  779SOL     hw 3115   0.587   7.124   6.857 -1.4207 -0.4283 -2.3821
  779SOL     vw 3116   0.595   7.038   6.865  0.1675 -0.1721  0.0865
  780SOL     ow 3117   6.204   1.750   5.058  0.4478 -0.3186  0.4251
  780SOL     hw 3118   6.273   1.704   5.011  1.7177  1.4928  0.4217
  780SOL     hw 3119   6.247   1.829   5.093 -1.8040  1.3952 -0.4224
  780SOL     vw 3120   6.219   1.755   5.056  0.3181  0.1466  0.3128
  781SOL     ow 3121   1.510   1.804   3.466 -0.1954 -0.1128 -0.6842
  781SOL     hw 3122   1.591   1.831   3.423  1.4919 -0.2185  2.1764
  781SOL     hw 3123   1.517   1.709   3.474 -0.3433 -0.0727  0.0181
  781SOL     vw 3124   1.521   1.795   3.462  0.0077 -0.1214 -0.2142
  782SOL     ow 3125   6.541   2.484   2.307  0.5111 -0.1431 -0.4845
  782SOL     hw 3126   6.539   2.480   2.212 -1.1870  1.6925 -0.5848
  782SOL     hw 3127   6.566   2.395   2.334 -0.4999 -1.1371 -2.5882
  782SOL     vw 3128   6.544   2.471   2.298  0.1535 -0.0321 -0.7753
  783SOL     ow 3129   2.449   2.874   3.311  0.1084 -0.0210  0.2667
  783SOL     hw 3130   2.370   2.918   3.281  0.6997  0.0294 -1.3300
  783SOL     hw 3131   2.430   2.848   3.402 -2.0292 -0.7730 -0.3435
  783SOL     vw 3132   2.436   2.877   3.319 -0.0957 -0.1136 -0.0246
  784SOL     ow 3133   1.079   0.169   6.179  0.0744  0.0120  0.1439
  784SOL     hw 3134   1.156   0.120   6.148 -0.9255 -0.2530 -2.1349
  784SOL     hw 3135   1.079   0.248   6.126 -1.7639 -0.4749 -0.6642
  784SOL     vw 3136   1.089   0.173   6.168 -0.3001 -0.0872 -0.2632
  785SOL     ow 3137   5.158   1.606   2.452 -0.5442 -0.2349  0.3034
  785SOL     hw 3138   5.200   1.591   2.367 -0.2912 -0.0031  0.3850
  785SOL     hw 3139   5.075   1.649   2.432 -0.4209 -0.0561  0.1830
  785SOL     vw 3140   5.153   1.610   2.439 -0.4945 -0.1808  0.2984
  786SOL     ow 3141   3.038   6.923   1.573  0.0654 -0.0940 -0.8235
  786SOL     hw 3142   2.962   6.903   1.518 -0.2845  1.0058 -0.7721
  786SOL     hw 3143   3.113   6.903   1.517 -0.0325 -4.7565  0.3140
  786SOL     vw 3144   3.038   6.918   1.558  0.0063 -0.5636 -0.6666
  787SOL     ow 3145   0.937   2.649   1.622  0.4187  0.3888 -0.2857
  787SOL     hw 3146   0.932   2.664   1.527 -1.0851  1.0681 -0.1303
  787SOL     hw 3147   0.965   2.733   1.657 -0.1961  0.4951 -0.0413
  787SOL     vw 3148   0.940   2.662   1.614  0.1391  0.4923 -0.2330
  788SOL     ow 3149   6.479   3.371   0.244 -0.4675 -0.2366  0.1241
  788SOL     hw 3150   6.407   3.419   0.202 -0.0528  0.9815  0.7725
  788SOL     hw 3151   6.534   3.342   0.171  0.1962  1.7740 -0.2440
  788SOL     vw 3152   6.477   3.373   0.229 -0.3252  0.1894  0.1611
  789SOL     ow 3153   1.477   5.536   3.956 -0.0660  0.2092 -0.6237
  789SOL     hw 3154   1.559   5.548   4.003  0.3622 -1.1940 -0.9787
  789SOL     hw 3155   1.413   5.512   4.023  0.0894  0.1428 -0.5002
  789SOL     vw 3156   1.479   5.534   3.971  0.0110  0.0157 -0.6542
  790SOL     ow 3157   5.600   4.542   6.319 -0.3710  0.2314 -0.0278
  790SOL     hw 3158   5.510   4.576   6.320 -0.3861  0.3032 -1.4701
  790SOL     hw 3159   5.645   4.598   6.256  1.2134  1.4274  2.0749
  790SOL     vw 3160   5.594   4.554   6.311 -0.1638  0.3986  0.0591
  791SOL     ow 3161   3.545   6.182   1.419  0.1315  0.2250  0.0780
  791SOL     hw 3162   3.583   6.260   1.460 -1.2416  0.8009  0.3251
  791SOL     hw 3163   3.592   6.172   1.336  1.2713  0.4811  0.6654
  791SOL     vw 3164   3.556   6.191   1.414  0.1007  0.3350  0.1881
  792SOL     ow 3165   2.616   5.873   1.350  0.2273  0.3725 -0.5381
  792SOL     hw 3166   2.557   5.875   1.425  0.7947  1.4185 -0.1007
  792SOL     hw 3167   2.633   5.965   1.331  1.8310  0.0860 -0.5643
  792SOL     vw 3168   2.610   5.885   1.357  0.5138  0.4728 -0.4839
  793SOL     ow 3169   1.427   6.740   5.445  0.4420  0.4381  1.0100
  793SOL     hw 3170   1.351   6.798   5.449  0.6889  0.8598 -0.0667
  793SOL     hw 3171   1.490   6.787   5.390  1.2494 -0.1707  1.3931
  793SOL     vw 3172   1.425   6.754   5.438  0.5811  0.4134  0.9186
  794SOL     ow 3173   5.336   0.607   4.026 -0.0239  0.1179  0.5874
  794SOL     hw 3174   5.394   0.533   4.006  0.5229  0.6872  0.0282
  794SOL     hw 3175   5.335   0.611   4.122  0.2660 -0.3637  0.6126
  794SOL     vw 3176   5.344   0.598   4.036  0.0863  0.1294  0.5169
  795SOL     ow 3177   5.752   3.752   5.206 -0.3042 -0.0171  0.3153
  795SOL     hw 3178   5.752   3.658   5.226 -0.5236 -0.2906 -0.8907
  795SOL     hw 3179   5.672   3.766   5.156 -0.4172  0.8839  0.7291
  795SOL     vw 3180   5.742   3.741   5.202 -0.3481  0.0657  0.2105
  796SOL     ow 3181   5.384   4.091   6.173 -0.3165  0.7596  0.1485
  796SOL     hw 3182   5.372   4.117   6.082 -0.7451  0.3782  0.0931
  796SOL     hw 3183   5.321   4.021   6.187  1.1578 -0.6392  0.1392
  796SOL     vw 3184   5.374   4.085   6.163 -0.1786  0.5248  0.1402
  797SOL     ow 3185   4.813   0.257   4.580  0.3121 -0.2905 -0.4651
  797SOL     hw 3186   4.902   0.231   4.601  0.4496 -0.1785 -0.8959
  797SOL     hw 3187   4.798   0.221   4.492 -0.8072 -2.1880  0.4146
  797SOL     vw 3188   4.822   0.249   4.571  0.1826 -0.5261 -0.4060
  798SOL     ow 3189   0.066   0.083   1.917 -0.4499  0.2971 -0.0210
  798SOL     hw 3190   0.105   0.152   1.971  1.2085 -0.9616  0.5022
  798SOL     hw 3191   0.139   0.022   1.901 -1.6910 -0.9924 -0.9994
  798SOL     vw 3192   0.081   0.084   1.922 -0.3948 -0.0390 -0.0811
  799SOL     ow 3193   4.688   5.797   1.083  0.6700 -0.1349  0.5316
  799SOL     hw 3194   4.634   5.844   1.147  0.8265 -0.3106  0.7987
  799SOL     hw 3195   4.670   5.704   1.101 -0.9315 -0.1847 -1.1022
  799SOL     vw 3196   4.678   5.791   1.094  0.4792 -0.1647  0.3513
  800SOL     ow 3197   1.497   2.874   6.734  0.1900  0.1311 -0.0729
  800SOL     hw 3198   1.559   2.801   6.744 -0.6481 -0.7178 -0.9058
  800SOL     hw 3199   1.540   2.933   6.672  1.0403  0.5665  0.8880
  800SOL     vw 3200   1.511   2.872   6.727  0.1916  0.0767 -0.0563
  801SOL     ow 3201   0.147   1.219   0.149  0.0731  0.3534  0.1365
  801SOL     hw 3202   0.075   1.155   0.149  0.4087 -0.0318  0.0940
  801SOL     hw 3203   0.223   1.168   0.178  0.7942  0.2138 -1.8838
  801SOL     vw 3204   0.148   1.204   0.153  0.2125  0.2841 -0.1356
  802SOL     ow 3205   1.067   6.417   4.605  0.1144  0.3205  0.4563
  802SOL     hw 3206   1.138   6.359   4.577 -0.0452  0.0493  0.6070
  802SOL     hw 3207   1.031   6.374   4.684  0.6313  1.1161  1.1421
  802SOL     vw 3208   1.072   6.404   4.612  0.1615  0.3896  0.5665
  803SOL     ow 3209   2.256   3.768   0.606 -0.1714 -0.1302 -0.0522
  803SOL     hw 3210   2.170   3.811   0.613 -0.7018 -1.4091  2.1074
  803SOL     hw 3211   2.241   3.697   0.543 -0.8372 -0.6450  0.6742
  803SOL     vw 3212   2.243   3.764   0.598 -0.3293 -0.3669  0.3285
  804SOL     ow 3213   4.756   6.857   2.174  0.4232 -0.0728 -0.2166
  804SOL     hw 3214   4.726   6.935   2.129 -0.9884  0.3762  1.3718
  804SOL     hw 3215   4.842   6.881   2.210  0.3078  0.5018 -0.3223
  804SOL     vw 3216   4.763   6.871   2.173  0.2217  0.0622 -0.0210
  805SOL     ow 3217   2.114   2.354   0.401 -0.0059 -0.2411  0.5674
  805SOL     hw 3218   2.046   2.421   0.404 -0.3060 -0.4965 -0.2287
  805SOL     hw 3219   2.170   2.373   0.477 -0.1873  0.7931  0.4590
  805SOL     vw 3220   2.113   2.366   0.411 -0.0695 -0.1383  0.4480
  806SOL     ow 3221   5.574   1.011   1.499 -0.0010  0.0544  0.0691
  806SOL     hw 3222   5.620   0.950   1.442 -0.1750  0.5995 -0.6647
  806SOL     hw 3223   5.485   1.014   1.465 -0.5019 -0.6922  1.2409
  806SOL     vw 3224   5.568   1.003   1.487 -0.0901  0.0278  0.1268
  807SOL     ow 3225   1.838   3.309   4.286  0.2403  0.1603  0.1348
  807SOL     hw 3226   1.825   3.393   4.331 -0.1195 -0.4876  1.2793
  807SOL     hw 3227   1.883   3.332   4.205  0.3674  1.4343  0.5457
  807SOL     vw 3228   1.842   3.323   4.281  0.2095  0.2429  0.3400
  808SOL     ow 3229   5.133   5.044   0.330 -0.2714  0.3436  0.4050
  808SOL     hw 3230   5.057   5.020   0.277 -0.0170 -0.4043  0.3629
  808SOL     hw 3231   5.156   5.132   0.301  0.4548 -0.4119 -1.4272
  808SOL     vw 3232   5.126   5.053   0.319 -0.1426  0.1454  0.1577
  809SOL     ow 3233   0.293   0.437   4.590  0.3537 -0.6546  0.8784
  809SOL     hw 3234   0.316   0.526   4.617  0.6828 -0.3717 -0.2853
  809SOL     hw 3235   0.309   0.436   4.496  1.5830 -2.3217  1.0598
  809SOL     vw 3236   0.298   0.449   4.581  0.5593 -0.8372  0.7486
  810SOL     ow 3237   3.262   5.554   0.781  0.3662  0.3052  0.2163
  810SOL     hw 3238   3.289   5.547   0.872 -0.3012 -1.5727  0.3258
  810SOL     hw 3239   3.167   5.544   0.784  0.4072 -0.5661 -0.7206
  810SOL     vw 3240   3.253   5.551   0.793  0.2836 -0.0577  0.1071
  811SOL     ow 3241   2.857   2.139   6.454 -0.3859  0.1586  0.3815
  811SOL     hw 3242   2.863   2.230   6.483  0.9614  0.4580 -0.7764
  811SOL     hw 3243   2.851   2.089   6.536 -0.9285  1.2544  1.0384
  811SOL     vw 3244   2.857   2.144   6.469 -0.2797  0.3426  0.3154
  812SOL     ow 3245   3.415   4.751   2.220 -0.4106 -0.1629 -0.5006
  812SOL     hw 3246   3.396   4.829   2.271 -0.3074 -0.5891  0.1965
  812SOL     hw 3247   3.496   4.772   2.174  0.6685 -0.5315  1.1494
  812SOL     vw 3248   3.423   4.764   2.220 -0.2546 -0.2677 -0.1910
  813SOL     ow 3249   6.715   4.937   6.296  0.9559  0.2279 -0.4991
  813SOL     hw 3250   6.739   4.969   6.383  1.2473  1.5341 -1.0398
  813SOL     hw 3251   6.621   4.955   6.289  0.8368 -0.2901 -0.2961
  813SOL     vw 3252   6.706   4.944   6.307  0.9787  0.3324 -0.5438
  814SOL     ow 3253   0.474   3.832   0.426 -0.1781 -0.4968 -0.1750
  814SOL     hw 3254   0.403   3.768   0.430  0.7196 -1.4856  0.3108
  814SOL     hw 3255   0.497   3.849   0.517  0.1413 -0.1094 -0.3242
  814SOL     vw 3256   0.468   3.826   0.438 -0.0175 -0.5763 -0.1306
  815SOL     ow 3257   3.543   2.648   1.980 -0.1547  0.1875  0.3388
  815SOL     hw 3258   3.450   2.656   1.961  0.3716  1.8429 -2.0159
  815SOL     hw 3259   3.548   2.634   2.075 -2.6964  2.0194  0.8372
  815SOL     vw 3260   3.531   2.647   1.990 -0.4206  0.6477  0.0939
  816SOL     ow 3261   0.940   7.021   1.407 -0.0788 -0.5968  0.2710
  816SOL     hw 3262   0.903   7.083   1.344  1.7506  1.0377  0.6977
  816SOL     hw 3263   1.028   7.002   1.373 -0.8557 -3.7134 -0.3052
  816SOL     vw 3264   0.947   7.026   1.394  0.0601 -0.7923  0.2513
  817SOL     ow 3265   4.666   2.860   2.734  0.0736 -1.2774 -0.2947
  817SOL     hw 3266   4.713   2.776   2.734  1.3715 -0.5721 -0.1907
  817SOL     hw 3267   4.723   2.919   2.685  0.3747  0.1783  1.6915
  817SOL     vw 3268   4.680   2.857   2.727  0.2847 -0.9922 -0.0188
  818SOL     ow 3269   1.539   3.944   6.910  0.0302 -0.2325 -0.4906
  818SOL     hw 3270   1.444   3.932   6.904  0.1167 -1.4024  0.2532
  818SOL     hw 3271   1.574   3.856   6.924  1.1165  0.3326  0.5136
  818SOL     vw 3272   1.531   3.931   6.911  0.1850 -0.3123 -0.2601
  819SOL     ow 3273   0.924   5.839   6.579  0.1298 -0.2399  0.1769
  819SOL     hw 3274   1.018   5.824   6.573  0.1712 -0.8815  1.8951
  819SOL     hw 3275   0.886   5.751   6.585 -0.4555  0.0473  0.8276
  819SOL     vw 3276   0.931   5.826   6.579  0.0580 -0.2866  0.4895
  820SOL     ow 3277   0.248   5.160   0.743 -0.2935 -0.2896 -0.5956
  820SOL     hw 3278   0.167   5.173   0.792 -1.5656 -0.8384 -2.4663
  820SOL     hw 3279   0.277   5.072   0.768  0.1141  0.1561  0.5694
  820SOL     vw 3280   0.242   5.150   0.753 -0.4076 -0.3033 -0.6887
  821SOL     ow 3281   5.253   4.994   1.501  0.1849  0.5842  0.2802
  821SOL     hw 3282   5.223   5.000   1.411  0.2260  0.5442  0.2634
  821SOL     hw 3283   5.339   4.952   1.495  0.0122  0.2127  0.3707
  821SOL     vw 3284   5.261   4.989   1.488  0.1676  0.5300  0.2899
  822SOL     ow 3285   4.738   4.138   3.165  0.0560 -0.3501  0.0406
  822SOL     hw 3286   4.730   4.070   3.231  1.2417  0.4301  1.0338
  822SOL     hw 3287   4.801   4.104   3.102 -0.3253 -0.6842 -0.1666
  822SOL     vw 3288   4.745   4.125   3.165  0.1621 -0.2913  0.1444
  823SOL     ow 3289   2.282   1.156   4.122 -0.3409 -0.3345 -0.2872
  823SOL     hw 3290   2.311   1.117   4.040  0.7718 -2.2240  0.9339
  823SOL     hw 3291   2.360   1.201   4.156 -0.4579 -0.5605  0.2862
  823SOL     vw 3292   2.296   1.157   4.116 -0.2096 -0.6137 -0.0505
  824SOL     ow 3293   2.360   3.092   6.429 -0.3477  0.3341 -0.2322
  824SOL     hw 3294   2.360   2.997   6.413 -0.7177  0.1376  0.7997
  824SOL     hw 3295   2.419   3.128   6.363 -1.3649 -0.4289 -1.6041
  824SOL     vw 3296   2.368   3.084   6.418 -0.5308  0.2077 -0.2768
  825SOL     ow 3297   0.297   4.529   4.609 -0.1934 -0.0598 -0.4557
  825SOL     hw 3298   0.318   4.476   4.686 -1.0624 -0.3885 -0.4325
  825SOL     hw 3299   0.362   4.503   4.544  1.7434  1.5587  0.7010
  825SOL     vw 3300   0.308   4.518   4.611 -0.0526  0.1101 -0.2999
  826SOL     ow 3301   0.186   5.135   0.502  0.0531 -0.3147 -0.1114
  826SOL     hw 3302   0.246   5.204   0.472  0.1312 -0.4906 -0.3647
  826SOL     hw 3303   0.189   5.140   0.597  0.0338  0.0554 -0.1281
  826SOL     vw 3304   0.195   5.145   0.510  0.0608 -0.2894 -0.1470
  827SOL     ow 3305   4.870   6.269   6.776 -0.6300  0.3179  0.2348
  827SOL     hw 3306   4.788   6.247   6.819 -1.9017  3.1312 -0.5184
  827SOL     hw 3307   4.905   6.341   6.828  1.9463 -1.4332  1.1163
  827SOL     vw 3308   4.864   6.275   6.789 -0.4580  0.4582  0.2518
  828SOL     ow 3309   2.705   2.780   5.495 -0.1243  0.2714  0.1738
  828SOL     hw 3310   2.737   2.695   5.463 -0.4576  0.8385 -1.8158
  828SOL     hw 3311   2.747   2.844   5.438 -0.7043  1.3825  0.9614
  828SOL     vw 3312   2.715   2.777   5.483 -0.2449  0.4929  0.0155
  829SOL     ow 3313   6.179   2.486   5.847 -0.6988  0.2633  0.6068
  829SOL     hw 3314   6.239   2.560   5.858 -0.1167 -0.3932  2.0527
  829SOL     hw 3315   6.172   2.447   5.934 -0.6982 -1.6234 -0.1897
  829SOL     vw 3316   6.186   2.491   5.860 -0.6218 -0.0722  0.6926
  830SOL     ow 3317   1.939   2.080   4.538  0.4489 -0.2139  0.7766
  830SOL     hw 3318   1.931   2.094   4.633 -0.7241 -0.5033  0.7342
  830SOL     hw 3319   1.923   1.986   4.526 -0.3964 -0.0111  0.2092
  830SOL     vw 3320   1.936   2.069   4.549  0.1826 -0.2252  0.6959
  831SOL     ow 3321   0.323   5.359   2.119 -0.4002 -0.0678  0.3567
  831SOL     hw 3322   0.375   5.288   2.080 -0.1689  0.7492 -0.8613
  831SOL     hw 3323   0.236   5.321   2.130 -0.4479 -0.3732 -0.8913
  831SOL     vw 3324   0.318   5.344   2.115 -0.3760 -0.0002  0.0314
  832SOL     ow 3325   6.796   0.305   1.417 -0.2457 -0.0017 -0.3908
  832SOL     hw 3326   6.748   0.241   1.471 -0.3888  0.0562 -0.4474
  832SOL     hw 3327   6.874   0.258   1.388 -0.2128 -0.0626 -0.2074
  832SOL     vw 3328   6.800   0.290   1.421 -0.2601 -0.0021 -0.3741
  833SOL     ow 3329   4.856   6.225   2.412 -0.4565  0.0862  0.4351
  833SOL     hw 3330   4.885   6.135   2.396 -0.4164  0.1584  0.0870
  833SOL     hw 3331   4.913   6.256   2.482  1.4556  0.7611 -1.2987
  833SOL     vw 3332   4.868   6.217   2.419 -0.1991  0.1850  0.1605
  834SOL     ow 3333   5.177   4.089   1.552  0.4548 -0.3616 -0.1116
  834SOL     hw 3334   5.233   4.062   1.625 -0.8729  1.6851  1.8007
  834SOL     hw 3335   5.196   4.182   1.541 -0.9048 -0.1589 -0.9545
  834SOL     vw 3336   5.187   4.098   1.560  0.1001 -0.0646  0.0294
  835SOL     ow 3337   4.523   4.038   1.574  0.5435  0.2745 -0.0726
  835SOL     hw 3338   4.545   4.125   1.542 -1.3831  0.7278 -0.2981
  835SOL     hw 3339   4.500   4.051   1.666  1.1420 -0.1689  0.1483
  835SOL     vw 3340   4.522   4.051   1.582  0.3686  0.2759 -0.0732
  836SOL     ow 3341   0.457   4.349   5.862 -0.1300  0.1986 -0.2765
  836SOL     hw 3342   0.475   4.387   5.948 -0.1602 -0.4539  0.0233
  836SOL     hw 3343   0.474   4.421   5.800  0.3337  0.5426  0.2374
  836SOL     vw 3344   0.462   4.364   5.865 -0.0728  0.1578 -0.1693
  837SOL     ow 3345   0.325   5.856   4.455  0.3031  0.1031 -0.0420
  837SOL     hw 3346   0.234   5.831   4.444 -0.2248  1.0949  1.7043
  837SOL     hw 3347   0.356   5.802   4.528  0.6346  0.8907  0.4080
  837SOL     vw 3348   0.317   5.845   4.463  0.2772  0.3381  0.2480
  838SOL     ow 3349   1.155   2.241   4.009 -0.2681 -0.1522  0.5879
  838SOL     hw 3350   1.142   2.332   3.981 -2.3473 -0.1492  1.4244
  838SOL     hw 3351   1.184   2.196   3.929  1.6968  1.3706  0.3610
  838SOL     vw 3352   1.157   2.247   3.995 -0.2832  0.0492  0.6682
  839SOL     ow 3353   0.419   1.576   6.579  0.3596 -0.0211  0.3017
  839SOL     hw 3354   0.430   1.499   6.524  0.0546 -0.7973  1.2835
  839SOL     hw 3355   0.345   1.554   6.636 -0.1222  1.2451  0.2071
  839SOL     vw 3356   0.411   1.563   6.580  0.2558  0.0436  0.4189
  840SOL     ow 3357   1.383   4.771   2.792  0.0048  0.1056  0.4203
  840SOL     hw 3358   1.301   4.793   2.836 -0.4034 -1.4428  0.4858
  840SOL     hw 3359   1.400   4.680   2.818  1.9807  0.5258  0.7815
  840SOL     vw 3360   1.375   4.762   2.801  0.2116 -0.0432  0.4767
  841SOL     ow 3361   2.571   0.768   2.828 -0.3815 -0.1864  0.4975
  841SOL     hw 3362   2.634   0.835   2.855 -0.9048 -0.6580  3.2760
  841SOL     hw 3363   2.623   0.698   2.791  0.9172 -0.8814  3.3861
  841SOL     vw 3364   2.586   0.768   2.827 -0.2792 -0.3403  1.2451
  842SOL     ow 3365   2.849   5.481   0.319  0.4850 -0.6401 -0.2831
  842SOL     hw 3366   2.769   5.429   0.331  0.4835 -0.8899 -1.2707
  842SOL     hw 3367   2.822   5.570   0.339 -0.1558 -0.6640 -0.9716
  842SOL     vw 3368   2.835   5.486   0.323  0.4002 -0.6759 -0.5043
  843SOL     ow 3369   5.321   4.334   2.601 -0.3539  0.4319 -0.0257
  843SOL     hw 3370   5.404   4.378   2.619 -0.0689  0.9657 -2.3346
  843SOL     hw 3371   5.256   4.381   2.653  0.7881 -0.2025  2.0705
  843SOL     vw 3372   5.323   4.346   2.610 -0.1655  0.4189 -0.0538
  844SOL     ow 3373   5.205   6.649   2.995 -0.1530 -0.5461 -0.6010
  844SOL     hw 3374   5.151   6.728   2.995 -0.7245 -0.8554  1.6455
  844SOL     hw 3375   5.148   6.582   3.033  0.7512 -1.7160 -1.2680
  844SOL     vw 3376   5.190   6.651   3.000 -0.1090 -0.7415 -0.3926
  845SOL     ow 3377   2.371   6.922   2.341  0.0863  0.2972  0.1287
  845SOL     hw 3378   2.354   6.866   2.416  0.1058  1.5256  1.0783
  845SOL     hw 3379   2.467   6.925   2.335  0.0836 -0.4096 -0.4374
  845SOL     vw 3380   2.382   6.915   2.350  0.0885  0.3662  0.1792
  846SOL     ow 3381   3.585   0.123   2.528 -0.2603 -0.3176  0.5179
  846SOL     hw 3382   3.503   0.113   2.478 -0.3482 -0.9975  0.7859
  846SOL     hw 3383   3.556   0.152   2.614 -0.0395  1.8982 -0.1006
  846SOL     vw 3384   3.570   0.125   2.532 -0.2426 -0.1150  0.4715
  847SOL     ow 3385   0.343   7.036   5.637 -0.2060 -0.3465  0.0883
  847SOL     hw 3386   0.353   7.051   5.543  1.3130 -1.8144 -0.0406
  847SOL     hw 3387   0.257   7.072   5.659 -0.4634  0.2723 -1.7955
  847SOL     vw 3388   0.333   7.043   5.628 -0.0396 -0.4586 -0.1774
  848SOL     ow 3389   2.497   0.747   6.058  0.2139  0.2571 -0.1542
  848SOL     hw 3390   2.521   0.744   5.966 -2.4636  0.3003 -0.9369
  848SOL     hw 3391   2.414   0.699   6.063 -0.1760  1.0454  2.0529
  848SOL     vw 3392   2.489   0.741   6.047 -0.1907  0.3668  0.0336
  849SOL     ow 3393   3.835   2.191   2.062  0.1577 -0.4394  0.4442
  849SOL     hw 3394   3.788   2.117   2.101 -0.3996 -0.5018 -0.3058
  849SOL     hw 3395   3.928   2.167   2.069 -0.0252 -1.2935  0.0688
  849SOL     vw 3396   3.841   2.178   2.068  0.0601 -0.5604  0.2958
  850SOL     ow 3397   6.918   1.013   0.388  0.2889 -0.4055 -0.1139
  850SOL     hw 3398   6.960   1.025   0.303  3.7520  0.4233  1.5320
  850SOL     hw 3399   6.934   0.921   0.409  2.1522  0.0934  0.8500
  850SOL     vw 3400   6.926   1.002   0.379  0.9913 -0.2303  0.2304
  851SOL     ow 3401   0.468   2.796   1.551 -0.9036  0.2077 -0.7536
  851SOL     hw 3402   0.427   2.732   1.493  0.0207  0.4566 -1.7112
  851SOL     hw 3403   0.557   2.806   1.518 -0.2976  0.2756  0.7968
  851SOL     vw 3404   0.474   2.789   1.539 -0.7017  0.2495 -0.6754
  852SOL     ow 3405   5.665   5.076   1.961  0.9205  0.3024 -0.4934
  852SOL     hw 3406   5.745   5.028   1.981  0.7459 -0.1869 -0.9659
  852SOL     hw 3407   5.596   5.029   2.008  0.9284  0.8543  0.0991
  852SOL     vw 3408   5.667   5.064   1.970  0.8988  0.3107 -0.4776
  853SOL     ow 3409   5.650   3.623   5.721  0.0875 -0.2588  0.0137
  853SOL     hw 3410   5.742   3.650   5.719 -0.3382  1.2514 -0.9062
  853SOL     hw 3411   5.645   3.561   5.794  1.9349 -0.8207 -0.2761
  853SOL     vw 3412   5.662   3.618   5.731  0.2749 -0.1339 -0.1459
  854SOL     ow 3413   6.017   6.418   6.965  0.0150  0.1903  0.4062
  854SOL     hw 3414   6.007   6.326   6.939  1.8376 -0.4470  1.7125
  854SOL     hw 3415   6.102   6.443   6.930 -0.8433  1.6906 -0.6827
  854SOL     vw 3416   6.027   6.409   6.957  0.1421  0.3042  0.4349
  855SOL     ow 3417   3.758   6.298   2.928  0.6503 -0.0157  0.0369
  855SOL     hw 3418   3.793   6.295   2.839  0.4597 -1.2722 -0.0039
  855SOL     hw 3419   3.829   6.335   2.980  0.7754  0.7065 -0.6141
  855SOL     vw 3420   3.772   6.303   2.923  0.6415 -0.0861 -0.0545
  856SOL     ow 3421   4.152   5.773   5.662  0.1069  0.0515 -0.2172
  856SOL     hw 3422   4.227   5.796   5.717 -0.6471  0.4524  0.6855
  856SOL     hw 3423   4.163   5.681   5.642 -0.2422 -0.4568  1.7078
  856SOL     vw 3424   4.163   5.764   5.666 -0.0386  0.0374  0.1562
  857SOL     ow 3425   3.031   3.016   6.194 -0.4502  0.0552  0.3702
  857SOL     hw 3426   2.942   3.036   6.223 -1.0676 -2.1694  0.1882
  857SOL     hw 3427   3.021   2.936   6.142  1.5092  0.4205 -0.6463
  857SOL     vw 3428   3.018   3.008   6.191 -0.2731 -0.1900  0.2120
  858SOL     ow 3429   5.564   6.563   1.304 -0.4879 -0.1915  0.1375
  858SOL     hw 3430   5.586   6.622   1.233  0.6030 -0.2221  0.4392
  858SOL     hw 3431   5.590   6.610   1.383 -0.5662 -0.6539  0.4412
  858SOL     vw 3432   5.570   6.577   1.305 -0.3543 -0.2565  0.2174
  859SOL     ow 3433   2.536   0.316   3.982  0.4150  1.1237 -0.5585
  859SOL     hw 3434   2.603   0.365   4.031  1.1616 -0.7520  0.4117
  859SOL     hw 3435   2.464   0.378   3.972  0.7648  2.0320  1.7678
  859SOL     vw 3436   2.536   0.331   3.987  0.5596  0.9961 -0.1235
  860SOL     ow 3437   5.396   1.810   5.758 -0.7271 -0.0266 -0.3905
  860SOL     hw 3438   5.390   1.845   5.669 -1.8290  1.1110  0.0918
  860SOL     hw 3439   5.490   1.811   5.778 -0.5824  1.0770 -1.0319
  860SOL     vw 3440   5.408   1.815   5.749 -0.8533  0.2691 -0.4115
  861SOL     ow 3441   0.952   2.013   4.063 -0.2586  0.2637  0.2020
  861SOL     hw 3442   0.983   1.948   4.000 -0.3410  2.1223 -1.8596
  861SOL     hw 3443   0.867   1.979   4.092  0.1657 -1.0471 -0.0056
  861SOL     vw 3444   0.945   2.000   4.059 -0.2135  0.3360 -0.0973
  862SOL     ow 3445   2.476   6.687   3.572  0.4997  0.0779 -0.5587
  862SOL     hw 3446   2.449   6.713   3.660  0.1326  0.6300 -0.8324
  862SOL     hw 3447   2.437   6.752   3.514 -1.0435 -1.4560 -1.3310
  862SOL     vw 3448   2.467   6.699   3.576  0.2476 -0.0520 -0.6967
  863SOL     ow 3449   2.771   2.917   5.231 -0.4893 -0.2365 -0.4680
  863SOL     hw 3450   2.757   2.829   5.197  0.7132 -1.5693  2.1882
  863SOL     hw 3451   2.744   2.975   5.160 -2.0067 -2.7065 -2.0484
  863SOL     vw 3452   2.765   2.913   5.217 -0.5311 -0.7381 -0.3262
  864SOL     ow 3453   5.494   3.877   5.852 -0.1711  0.1924  0.1769
  864SOL     hw 3454   5.458   3.965   5.856 -0.6803 -0.0311  0.4755
  864SOL     hw 3455   5.567   3.878   5.915 -0.1885  0.3888  0.1945
  864SOL     vw 3456   5.499   3.889   5.860 -0.2408  0.1888  0.2184
  865SOL     ow 3457   1.719   4.765   5.996  0.6313 -0.6894 -0.7807
  865SOL     hw 3458   1.797   4.752   6.050 -0.0449  0.7838  0.6690
  865SOL     hw 3459   1.742   4.837   5.938  0.1712  0.2306  0.1353
  865SOL     vw 3460   1.732   4.773   5.996  0.4814 -0.3736 -0.4685
  866SOL     ow 3461   6.419   0.765   0.403  0.0995  0.3245 -0.2229
  866SOL     hw 3462   6.325   0.748   0.400  0.3670 -1.2719 -2.1885
  866SOL     hw 3463   6.440   0.798   0.315  1.3009  1.1730  0.3592
  866SOL     vw 3464   6.409   0.767   0.391  0.2933  0.2258 -0.4054
  867SOL     ow 3465   6.008   1.632   2.013 -0.5057 -0.2859  0.4970
  867SOL     hw 3466   6.102   1.651   2.013 -0.5494 -0.0458 -0.4104
  867SOL     hw 3467   5.968   1.710   1.974 -0.9061 -1.2055 -0.9749
  867SOL     vw 3468   6.015   1.645   2.008 -0.5646 -0.3756  0.1831
  868SOL     ow 3469   2.710   3.066   1.892 -0.5441 -0.1960 -0.2702
  868SOL     hw 3470   2.784   3.005   1.894  1.4703  2.1135  1.3934
  868SOL     hw 3471   2.650   3.033   1.958 -0.2671 -1.2423 -0.5200
  868SOL     vw 3472   2.712   3.054   1.901 -0.2418 -0.0294 -0.0837
  869SOL     ow 3473   1.967   4.359   2.098  0.2646 -0.1638 -0.6181
  869SOL     hw 3474   1.994   4.395   2.014 -1.6094  1.0475 -0.7470
  869SOL     hw 3475   2.018   4.409   2.163  0.6327 -0.0803 -0.9707
  869SOL     vw 3476   1.977   4.370   2.096  0.0659  0.0069 -0.6818
  870SOL     ow 3477   5.636   0.019   6.216 -0.1412  0.6180  0.2448
  870SOL     hw 3478   5.731   0.017   6.226 -0.0973  2.3478  0.3266
  870SOL     hw 3479   5.612  -0.072   6.198  1.8911  0.5736 -2.9829
  870SOL     vw 3480   5.645   0.006   6.215  0.1326  0.8404 -0.1702
  871SOL     ow 3481   2.841   1.740   3.808 -0.1317 -0.2216 -0.6995
  871SOL     hw 3482   2.836   1.799   3.732  1.3098  0.8718 -0.0145
  871SOL     hw 3483   2.928   1.758   3.845  0.8289 -3.5239 -1.0225
  871SOL     vw 3484   2.852   1.750   3.803  0.1853 -0.5130 -0.6516
  872SOL     ow 3485   0.788   3.550   4.499 -0.2997 -0.3515  0.3165
  872SOL     hw 3486   0.814   3.464   4.533 -3.2973 -0.4560  2.7627
  872SOL     hw 3487   0.820   3.612   4.564 -1.0345  0.0461  0.3078
  872SOL     vw 3488   0.796   3.547   4.512 -0.7922 -0.3128  0.6380
  873SOL     ow 3489   4.080   4.069   1.496 -0.4614  0.3993  0.4784
  873SOL     hw 3490   4.132   3.989   1.497 -1.1676 -0.2061 -2.1382
  873SOL     hw 3491   4.137   4.134   1.455 -0.7415  0.5138  0.2597
  873SOL     vw 3492   4.094   4.067   1.490 -0.5915  0.3345  0.1044
  874SOL     ow 3493   3.604   1.758   4.281 -0.4371  0.3288 -0.4341
  874SOL     hw 3494   3.627   1.724   4.195 -0.3442  1.3553 -0.8310
  874SOL     hw 3495   3.512   1.783   4.273 -0.4859  0.2462 -0.1641
  874SOL     vw 3496   3.595   1.757   4.269 -0.4312  0.4534 -0.4506
  875SOL     ow 3497   2.154   4.728   1.282  0.1456 -0.1405  0.1704
  875SOL     hw 3498   2.222   4.791   1.306 -0.7778  0.4709  1.2648
  875SOL     hw 3499   2.198   4.644   1.283  0.9704  0.2850  0.5248
  875SOL     vw 3500   2.169   4.725   1.285  0.1326 -0.0038  0.3616
  876SOL     ow 3501   5.106   2.020   3.825 -0.0293  0.0849  0.4525
  876SOL     hw 3502   5.178   1.983   3.774  0.1800  0.1587  0.6918
  876SOL     hw 3503   5.148   2.054   3.904 -0.4736 -0.8088  1.0806
  876SOL     vw 3504   5.121   2.020   3.828 -0.0603 -0.0234  0.5668
  877SOL     ow 3505   0.141   5.451   1.036 -0.1966  0.3686  0.0279
  877SOL     hw 3506   0.064   5.501   1.061 -0.5056  1.4276 -2.7132
  877SOL     hw 3507   0.106   5.367   1.006 -0.1382  0.3059  0.1341
  877SOL     vw 3508   0.126   5.446   1.035 -0.2297  0.5002 -0.3197
  878SOL     ow 3509   1.660   5.178   3.954  0.2265  1.0104 -0.3301
  878SOL     hw 3510   1.690   5.263   3.986  1.1998  0.3461  0.6027
  878SOL     hw 3511   1.685   5.116   4.023 -2.5436  0.2608  0.1050
  878SOL     vw 3512   1.667   5.181   3.967 -0.0106  0.8240 -0.1496
  879SOL     ow 3513   3.341   2.984   0.170 -0.4448  0.0564  0.0352
  879SOL     hw 3514   3.433   2.990   0.143 -0.2289 -0.6578  0.5550
  879SOL     hw 3515   3.326   2.890   0.181 -0.8028  0.2428  1.3811
  879SOL     vw 3516   3.351   2.972   0.168 -0.4634 -0.0131  0.2813
  880SOL     ow 3517   2.432   2.217   2.329  0.2023  0.1640 -0.0388
  880SOL     hw 3518   2.398   2.305   2.313 -1.2495 -0.7552 -2.6613
  880SOL     hw 3519   2.417   2.202   2.422  0.1020  2.4893  0.3852
  880SOL     vw 3520   2.426   2.227   2.339 -0.0025  0.3495 -0.3289
  881SOL     ow 3521   3.914   6.885   0.264 -0.2969 -0.0959 -0.1930
  881SOL     hw 3522   3.975   6.819   0.230 -0.6018 -0.4381 -0.0692
  881SOL     hw 3523   3.907   6.949   0.192  0.0273 -0.1718 -0.2970
  881SOL     vw 3524   3.921   6.885   0.250 -0.2943 -0.1509 -0.1904
  882SOL     ow 3525   5.645   5.981   3.368 -0.3876 -0.7558 -0.3470
  882SOL     hw 3526   5.699   6.004   3.444  1.5071 -0.6522 -1.6415
  882SOL     hw 3527   5.652   6.057   3.310  0.4339 -1.8505 -1.7685
  882SOL     vw 3528   5.653   5.994   3.370 -0.0291 -0.8864 -0.7055
  883SOL     ow 3529   0.677   4.855   2.756  0.1730 -0.1108  0.4276
  883SOL     hw 3530   0.631   4.773   2.772  0.5262 -0.3101  0.4203
  883SOL     hw 3531   0.730   4.868   2.835 -0.7439  0.6954  0.9377
  883SOL     vw 3532   0.678   4.846   2.769  0.0986 -0.0308  0.4938
  884SOL     ow 3533   5.892   0.567   4.601 -0.5806  0.2540  0.1674
  884SOL     hw 3534   5.895   0.491   4.544  0.6764 -0.6144  1.3415
  884SOL     hw 3535   5.977   0.569   4.644 -0.6756  2.1857  0.3578
  884SOL     vw 3536   5.904   0.558   4.599 -0.4270  0.3943  0.3474
  885SOL     ow 3537   4.883   4.594   2.235  0.0280 -0.7646  0.0832
  885SOL     hw 3538   4.918   4.571   2.321  0.5771 -1.7049 -0.3809
  885SOL     hw 3539   4.885   4.513   2.185  0.9419  0.0240 -1.2350
  885SOL     vw 3540   4.888   4.581   2.239  0.2210 -0.7846 -0.1518
  886SOL     ow 3541   5.865   6.597   0.043  0.0915 -0.3257 -0.5068
  886SOL     hw 3542   5.943   6.549   0.017  2.5225  2.2443  1.4281
  886SOL     hw 3543   5.827   6.545   0.114  0.1069 -1.5210 -1.3489
  886SOL     vw 3544   5.870   6.584   0.049  0.4141 -0.1442 -0.3626
  887SOL     ow 3545   3.485   3.261   5.972 -0.4592  0.2115 -0.0876
  887SOL     hw 3546   3.537   3.338   5.950 -0.7597 -0.0770 -1.9224
  887SOL     hw 3547   3.544   3.187   5.958 -1.1258 -0.0724 -1.5306
  887SOL     vw 3548   3.499   3.262   5.967 -0.5867  0.1359 -0.5200
  888SOL     ow 3549   5.013   5.446   3.316 -0.0087  0.9190  0.1196
  888SOL     hw 3550   4.956   5.392   3.261  0.0977 -0.4823  1.3095
  888SOL     hw 3551   4.968   5.530   3.323 -0.3779  0.8785 -1.4735
  888SOL     vw 3552   5.000   5.450   3.310 -0.0434  0.7286  0.0664
  889SOL     ow 3553   3.422   6.426   0.550  0.2667 -0.1988 -0.0357
  889SOL     hw 3554   3.367   6.431   0.472  0.9962 -0.0901 -0.5481
  889SOL     hw 3555   3.463   6.339   0.546  0.0168 -0.3450  0.4292
  889SOL     vw 3556   3.420   6.415   0.539  0.3301 -0.2041 -0.0420
  890SOL     ow 3557   3.122   1.923   3.043  0.5756  0.0163  0.3875
  890SOL     hw 3558   3.117   1.993   3.108  0.1132 -0.8474  1.3001
  890SOL     hw 3559   3.207   1.881   3.059  1.4256  1.1147 -0.9787
  890SOL     vw 3560   3.133   1.927   3.054  0.6268  0.0473  0.3277
  891SOL     ow 3561   4.289   5.124   6.549 -0.3608  0.2376  0.2138
  891SOL     hw 3562   4.236   5.045   6.562 -1.0350  0.6817  0.1904
  891SOL     hw 3563   4.261   5.184   6.618  1.0893 -0.0140  1.0680
  891SOL     vw 3564   4.279   5.121   6.560 -0.2584  0.2632  0.3235
  892SOL     ow 3565   0.219   0.042   2.579 -0.5394 -0.3909  0.3852
  892SOL     hw 3566   0.147  -0.005   2.537 -0.3762  1.6636 -2.4965
  892SOL     hw 3567   0.189   0.057   2.668 -1.9833 -2.9076  0.4164
  892SOL     vw 3568   0.206   0.038   2.585 -0.7083 -0.4519  0.0091
  893SOL     ow 3569   3.541   6.752   1.952  0.0002 -0.4094 -0.5504
  893SOL     hw 3570   3.483   6.680   1.926  0.8707 -1.4517  0.2384
  893SOL     hw 3571   3.580   6.783   1.870  0.2851 -1.4564 -0.8290
  893SOL     vw 3572   3.539   6.746   1.938  0.1526 -0.6852 -0.4831
  894SOL     ow 3573   4.521   3.001   0.957 -0.0436  0.0269 -0.8236
  894SOL     hw 3574   4.468   3.029   1.031  2.8228 -0.5285  1.6525
  894SOL     hw 3575   4.482   2.918   0.929 -2.0911  1.0164 -1.0124
  894SOL     vw 3576   4.509   2.993   0.963  0.0646  0.0843 -0.5219
  895SOL     ow 3577   3.004   5.398   4.550  0.5534  0.1234  0.4520
  895SOL     hw 3578   2.967   5.343   4.481  2.4693  1.3653 -1.7061
  895SOL     hw 3579   3.033   5.336   4.617 -1.8858 -1.0926  0.5328
  895SOL     vw 3580   3.003   5.383   4.549  0.4843  0.1266  0.1776
  896SOL     ow 3581   5.507   0.263   6.176  0.0441  0.2655  0.0683
  896SOL     hw 3582   5.556   0.183   6.191  0.0878  0.4155  0.7667
  896SOL     hw 3583   5.421   0.234   6.145  1.0072  0.0268 -2.6522
  896SOL     vw 3584   5.502   0.249   6.174  0.1771  0.2538 -0.1986
  897SOL     ow 3585   1.899   5.710   2.282 -0.1701 -0.3062  0.6169
  897SOL     hw 3586   1.899   5.713   2.187 -2.7229 -1.3642  0.5253
  897SOL     hw 3587   1.920   5.620   2.304  1.1321  0.0907  1.1291
  897SOL     vw 3588   1.902   5.699   2.273 -0.3352 -0.3939  0.6725
  898SOL     ow 3589   5.783   2.654   4.914 -0.2470  0.0572  0.0594
  898SOL     hw 3590   5.766   2.739   4.954 -2.5504  0.2690 -1.1665
  898SOL     hw 3591   5.845   2.671   4.844 -2.1369  1.1882 -1.4432
  898SOL     vw 3592   5.789   2.667   4.910 -0.8004  0.2345 -0.3009
  899SOL     ow 3593   2.797   3.219   0.518 -0.1742 -0.5637  0.0365
  899SOL     hw 3594   2.859   3.147   0.510  1.0425  0.6031 -1.8444
  899SOL     hw 3595   2.840   3.281   0.577 -0.2761 -0.4799  0.0229
  899SOL     vw 3596   2.811   3.218   0.525 -0.0271 -0.3988 -0.2135
  900SOL     ow 3597   5.934   0.846   4.397 -0.0665  0.5231  0.1113
  900SOL     hw 3598   5.889   0.769   4.433  0.9670  0.4865  1.3653
  900SOL     hw 3599   5.889   0.921   4.436 -1.2622  0.6129 -1.3309
  900SOL     vw 3600   5.922   0.846   4.407 -0.0877  0.5302  0.0865
  901SOL     ow 3601   4.849   6.000   0.944 -0.1386 -0.2508 -0.1070
  901SOL     hw 3602   4.816   6.070   0.887 -0.5065  0.5689  1.0786
  901SOL     hw 3603   4.836   6.033   1.033  3.6259  0.0031  0.4753
  901SOL     vw 3604   4.843   6.014   0.948  0.3097 -0.1092  0.1263
  902SOL     ow 3605   6.461   4.265   2.206 -0.2829 -0.6642 -0.2250
  902SOL     hw 3606   6.530   4.200   2.217  1.9220  1.4057 -1.0726
  902SOL     hw 3607   6.457   4.280   2.111 -0.6975  0.4735 -0.0479
  902SOL     vw 3608   6.469   4.258   2.195 -0.0465 -0.2413 -0.3135
  903SOL     ow 3609   1.460   0.249   1.569 -0.4068  0.2675  0.0331
  903SOL     hw 3610   1.387   0.187   1.564 -0.4291  0.2828  0.1702
  903SOL     hw 3611   1.531   0.199   1.611 -0.6428  0.5428  0.7622
  903SOL     vw 3612   1.460   0.234   1.574 -0.4408  0.3058  0.1474
  904SOL     ow 3613   0.741   5.479   3.109 -0.6388  0.4153  0.1331
  904SOL     hw 3614   0.675   5.449   3.046  0.1304  1.6490 -1.3077
  904SOL     hw 3615   0.778   5.558   3.070  0.8713  0.4219  1.4753
  904SOL     vw 3616   0.737   5.485   3.096 -0.3381  0.5789  0.1200
  905SOL     ow 3617   3.866   3.166   2.133 -0.7726  0.3238 -0.1793
  905SOL     hw 3618   3.932   3.103   2.163 -0.8454 -0.9284 -2.4206
  905SOL     hw 3619   3.916   3.244   2.109 -0.2770 -0.0316 -0.3215
  905SOL     vw 3620   3.881   3.168   2.134 -0.7168  0.1117 -0.4939
  906SOL     ow 3621   4.338   4.067   5.008 -0.0695 -0.6736  0.2045
  906SOL     hw 3622   4.331   4.036   5.099 -1.7711 -1.6689 -0.2445
  906SOL     hw 3623   4.249   4.086   4.982  0.4224 -0.2598 -1.2453
  906SOL     vw 3624   4.326   4.066   5.017 -0.2291 -0.7505 -0.0463
  907SOL     ow 3625   1.134   2.513   3.974 -0.4234 -0.0302 -0.8015
  907SOL     hw 3626   1.157   2.526   4.066 -0.2074 -0.5373 -0.7814
  907SOL     hw 3627   1.114   2.601   3.942 -1.2742  0.0619 -0.0714
  907SOL     vw 3628   1.134   2.526   3.982 -0.5072 -0.0849 -0.7026
  908SOL     ow 3629   5.110   0.523   1.549 -1.0017 -0.6071 -0.0069
  908SOL     hw 3630   5.022   0.506   1.583 -0.0579 -0.9819  2.4910
  908SOL     hw 3631   5.144   0.436   1.526 -0.4947 -0.7689  1.2607
  908SOL     vw 3632   5.103   0.509   1.550 -0.8099 -0.6779  0.4900
  909SOL     ow 3633   5.046   4.369   0.624 -0.4581 -0.5800 -0.1568
  909SOL     hw 3634   4.954   4.380   0.599 -0.4882  0.4659  0.3306
  909SOL     hw 3635   5.064   4.445   0.680  1.2637  0.3617 -1.8647
  909SOL     vw 3636   5.036   4.380   0.628 -0.2351 -0.3178 -0.3178
  910SOL     ow 3637   4.483   2.011   4.819 -0.5636  0.1825  0.3637
  910SOL     hw 3638   4.540   2.041   4.748 -0.8419 -0.5632 -0.1890
  910SOL     hw 3639   4.436   1.936   4.782 -0.1343 -0.7243  1.5891
  910SOL     vw 3640   4.484   2.005   4.805 -0.5436 -0.0358  0.4528
  911SOL     ow 3641   6.563   0.155   0.863 -0.2669  0.0753 -0.0672
  911SOL     hw 3642   6.515   0.089   0.914  0.0022  0.7735  1.1505
  911SOL     hw 3643   6.600   0.107   0.789  0.2232 -1.2341  0.9808
  911SOL     vw 3644   6.562   0.140   0.860 -0.1669 -0.0053  0.2318
  912SOL     ow 3645   1.018   1.347   6.584  0.1967 -0.3281 -0.1125
  912SOL     hw 3646   0.976   1.261   6.590  0.0470 -0.1733  1.3383
  912SOL     hw 3647   0.959   1.406   6.630  1.8852 -0.0855  1.9331
  912SOL     vw 3648   1.005   1.343   6.591  0.3998 -0.2757  0.3490
  913SOL     ow 3649   4.376   6.571   6.211 -0.1285 -0.8599  0.0381
  913SOL     hw 3650   4.462   6.529   6.209 -0.5503 -1.7352 -0.3962
  913SOL     hw 3651   4.368   6.611   6.124 -0.1604 -0.7749  0.0806
  913SOL     vw 3652   4.387   6.571   6.199 -0.1886 -0.9642 -0.0136
  914SOL     ow 3653   1.774   0.183   2.445 -0.7386  0.1016 -0.1030
  914SOL     hw 3654   1.692   0.146   2.414 -1.1414  1.6256 -1.0174
  914SOL     hw 3655   1.810   0.228   2.368 -0.6620  2.1519  1.0531
  914SOL     vw 3656   1.768   0.184   2.431 -0.7816  0.5732 -0.0712
  915SOL     ow 3657   0.625   3.066   5.717 -0.0615 -0.6401 -0.1845
  915SOL     hw 3658   0.689   3.024   5.660 -0.0599 -0.5922 -0.2176
  915SOL     hw 3659   0.602   3.147   5.672  1.2946  0.2967  0.7243
  915SOL     vw 3660   0.630   3.071   5.704  0.1176 -0.5103 -0.0689
  916SOL     ow 3661   6.744   5.317   5.925  0.0418  0.1706 -0.1936
  916SOL     hw 3662   6.832   5.344   5.898 -0.6425  1.2218 -1.4725
  916SOL     hw 3663   6.715   5.257   5.857 -0.8273  1.0645 -0.6364
  916SOL     vw 3664   6.752   5.312   5.913 -0.1633  0.4272 -0.4203
  917SOL     ow 3665   3.581   2.587   3.488  0.2218 -0.4171  0.1548
  917SOL     hw 3666   3.673   2.586   3.515 -0.1239  0.0591  1.4038
  917SOL     hw 3667   3.580   2.643   3.410  0.6250  1.7700  1.6343
  917SOL     vw 3668   3.593   2.594   3.481  0.2295 -0.0657  0.5146
  918SOL     ow 3669   6.502   6.149   4.197  0.0512 -0.4650 -0.0871
  918SOL     hw 3670   6.555   6.069   4.191  0.1450 -0.3992 -0.1486
  918SOL     hw 3671   6.411   6.118   4.192  0.1066 -0.4474 -1.7229
  918SOL     vw 3672   6.497   6.134   4.195  0.0710 -0.4542 -0.3111
  919SOL     ow 3673   0.163   1.179   6.936  0.4183 -0.2104  0.1981
  919SOL     hw 3674   0.105   1.117   6.893  0.2872 -0.0911  0.2019
  919SOL     hw 3675   0.133   1.182   7.026  1.7612 -1.7631  0.7521
  919SOL     vw 3676   0.152   1.171   6.942  0.5782 -0.3995  0.2716
  920SOL     ow 3677   3.753   4.082   0.219  0.1888 -0.1229 -0.2487
  920SOL     hw 3678   3.778   4.020   0.151 -0.9924 -1.1168  0.2023
  920SOL     hw 3679   3.695   4.145   0.176 -0.6401 -0.8107 -0.1478
  920SOL     vw 3680   3.749   4.082   0.205 -0.0764 -0.3448 -0.1758
  921SOL     ow 3681   5.030   5.848   3.433  0.0300 -0.1144  0.7182
  921SOL     hw 3682   4.976   5.925   3.416  1.2578  0.3679 -1.3147
  921SOL     hw 3683   5.075   5.832   3.350  0.3662 -2.5904  1.3152
  921SOL     vw 3684   5.029   5.856   3.420  0.2365 -0.3774  0.5288
  922SOL     ow 3685   5.626   2.858   2.602 -0.2382  0.2975 -0.0968
  922SOL     hw 3686   5.699   2.917   2.617 -0.0893  0.3850 -1.1163
  922SOL     hw 3687   5.554   2.895   2.653  0.5597 -0.1107  1.3895
  922SOL     vw 3688   5.626   2.871   2.611 -0.1132  0.2552 -0.0353
  923SOL     ow 3689   5.434   3.697   0.945 -0.1567 -0.8379 -1.0744
  923SOL     hw 3690   5.402   3.608   0.957  0.6757 -0.8781  1.2484
  923SOL     hw 3691   5.529   3.688   0.934 -0.2050 -0.3041 -2.0850
  923SOL     vw 3692   5.442   3.684   0.945 -0.0532 -0.7727 -0.9012
  924SOL     ow 3693   5.569   6.618   7.042  0.0073 -0.3963 -0.4114
  924SOL     hw 3694   5.511   6.617   7.119  2.8540 -0.5474  1.9252
  924SOL     hw 3695   5.559   6.531   7.004  1.1191 -1.6932  2.0138
  924SOL     vw 3696   5.560   6.607   7.047  0.5298 -0.5875  0.2172
  925SOL     ow 3697   4.828   1.037   6.166 -0.2095  0.2518  0.2615
  925SOL     hw 3698   4.882   1.071   6.095  0.3764  0.6487  0.8711
  925SOL     hw 3699   4.871   0.956   6.192  0.2738  0.7027  0.9233
  925SOL     vw 3700   4.841   1.031   6.160 -0.0684  0.3636  0.4294
  926SOL     ow 3701   3.301   3.795   0.222 -0.1125 -0.0517 -0.1310
  926SOL     hw 3702   3.249   3.851   0.281 -2.0013 -0.9468 -0.8448
  926SOL     hw 3703   3.310   3.713   0.270 -0.1656 -0.2090 -0.3890
  926SOL     vw 3704   3.295   3.792   0.236 -0.3688 -0.1906 -0.2592
  927SOL     ow 3705   5.895   4.027   5.194  0.8911 -0.0832  0.1523
  927SOL     hw 3706   5.970   4.082   5.174  0.4205  0.4688 -0.1150
  927SOL     hw 3707   5.829   4.051   5.129  0.6728 -0.9599  0.0275
  927SOL     vw 3708   5.896   4.037   5.183  0.8004 -0.1259  0.1006
  928SOL     ow 3709   2.513   0.804   1.099 -0.0546 -0.0104 -0.3506
  928SOL     hw 3710   2.587   0.755   1.134 -0.0021 -0.9130 -1.6330
  928SOL     hw 3711   2.439   0.743   1.103 -0.3600  0.3451 -0.5145
  928SOL     vw 3712   2.513   0.790   1.104 -0.0880 -0.0826 -0.5414
  929SOL     ow 3713   0.486   6.145   4.429  0.2718 -0.0129  0.1202
  929SOL     hw 3714   0.503   6.161   4.336  0.3967  1.0357  0.3103
  929SOL     hw 3715   0.572   6.146   4.470  0.1775  0.0944  0.3212
  929SOL     vw 3716   0.500   6.147   4.422  0.2758  0.1395  0.1719
  930SOL     ow 3717   0.786   4.474   1.329  0.3098 -0.1646 -0.5657
  930SOL     hw 3718   0.729   4.411   1.286 -0.3379  0.4921 -0.6925
  930SOL     hw 3719   0.866   4.475   1.276 -0.2429  0.1925 -1.4189
  930SOL     vw 3720   0.789   4.466   1.316  0.1514 -0.0305 -0.6950
  931SOL     ow 3721   2.450   3.891   3.985  0.5276  0.6455 -0.3427
  931SOL     hw 3722   2.465   3.841   3.905  1.8383  1.7592 -0.8473
  931SOL     hw 3723   2.464   3.828   4.056 -0.0827 -0.2160 -0.9607
  931SOL     vw 3724   2.454   3.876   3.984  0.6200  0.6788 -0.4910
  932SOL     ow 3725   6.664   0.218   1.151  0.3419  0.7101 -0.4988
  932SOL     hw 3726   6.572   0.240   1.166 -0.0735 -0.0751 -1.6963
  932SOL     hw 3727   6.711   0.258   1.224 -0.8039  2.1166 -0.4871
  932SOL     vw 3728   6.658   0.226   1.162  0.1359  0.7921 -0.6553
  933SOL     ow 3729   4.300   5.028   6.892  0.1110  0.4073  0.4504
  933SOL     hw 3730   4.298   5.038   6.987 -2.7279  0.7196  0.4240
  933SOL     hw 3731   4.303   5.118   6.859  0.6739  0.3071  0.2062
  933SOL     vw 3732   4.300   5.041   6.900 -0.1891  0.4351  0.4146
  934SOL     ow 3733   0.427   2.447   3.545  0.6818  0.8008 -0.2549
  934SOL     hw 3734   0.395   2.510   3.610  0.2953 -0.8702  1.2635
  934SOL     hw 3735   0.374   2.369   3.560  2.6066 -0.6324 -0.5945
  934SOL     vw 3736   0.415   2.445   3.556  0.8847  0.3911 -0.0993
  935SOL     ow 3737   6.659   0.965   5.111 -0.4972 -0.8202 -0.1529
  935SOL     hw 3738   6.689   0.876   5.128  1.2509 -0.6462 -1.9540
  935SOL     hw 3739   6.586   0.954   5.050 -0.5492 -1.0455 -0.0502
  935SOL     vw 3740   6.653   0.952   5.105 -0.2735 -0.8270 -0.3769
  936SOL     ow 3741   3.227   6.315   3.963 -0.4334 -0.3309 -0.1417
  936SOL     hw 3742   3.317   6.347   3.969 -1.2198  2.0391  0.0625
  936SOL     hw 3743   3.189   6.332   4.049 -0.7879 -2.4168  0.1640
  936SOL     vw 3744   3.234   6.322   3.975 -0.5839 -0.2935 -0.0744
  937SOL     ow 3745   2.308   4.171   2.257 -0.1074  0.2755  0.1992
  937SOL     hw 3746   2.238   4.148   2.195 -0.9596  0.4061  1.0888
  937SOL     hw 3747   2.276   4.251   2.300  0.0779 -0.2835  1.4071
  937SOL     vw 3748   2.294   4.179   2.254 -0.1954  0.2189  0.4761
  938SOL     ow 3749   6.853   0.327   4.210 -0.7397  0.1230 -0.6081
  938SOL     hw 3750   6.799   0.318   4.288  2.2912 -0.3003  1.6242
  938SOL     hw 3751   6.843   0.419   4.184 -0.9966  0.5555  0.9457
  938SOL     vw 3752   6.845   0.338   4.217 -0.3738  0.1242 -0.1087
  939SOL     ow 3753   1.020   3.563   1.113  0.3257  0.3755 -0.1889
  939SOL     hw 3754   0.991   3.653   1.100  1.2662  0.5456 -1.1673
  939SOL     hw 3755   0.978   3.513   1.043  0.4161  0.1910 -0.1138
  939SOL     vw 3756   1.011   3.568   1.102  0.4617  0.3736 -0.3081
  940SOL     ow 3757   5.539   4.262   6.368 -0.5163  0.1082 -0.5689
  940SOL     hw 3758   5.560   4.345   6.324  2.3267 -0.9030 -1.3486
  940SOL     hw 3759   5.599   4.258   6.442 -0.6031 -1.2611 -0.5437
  940SOL     vw 3760   5.550   4.272   6.372 -0.1528 -0.2060 -0.6683
  941SOL     ow 3761   6.371   5.571   3.009  0.3278  0.2352 -0.5200
  941SOL     hw 3762   6.396   5.600   2.921  0.6125  1.0721 -0.1687
  941SOL     hw 3763   6.279   5.546   3.001  0.0805  1.2218 -0.8411
  941SOL     vw 3764   6.362   5.571   2.996  0.3326  0.4759 -0.5159
  942SOL     ow 3765   2.521   3.156   3.272 -0.1420 -0.2347  0.3093
  942SOL     hw 3766   2.458   3.214   3.314 -0.5020 -0.5829  0.2612
  942SOL     hw 3767   2.579   3.214   3.223 -1.5974  0.0023 -1.2541
  942SOL     vw 3768   2.520   3.171   3.271 -0.3816 -0.2494  0.0966
  943SOL     ow 3769   2.523   4.138   3.533 -0.1941 -0.0106  0.0543
  943SOL     hw 3770   2.445   4.165   3.581 -0.3132  1.5879 -0.9859
  943SOL     hw 3771   2.567   4.076   3.592 -3.0151 -2.2374  0.0417
  943SOL     vw 3772   2.519   4.133   3.547 -0.5821 -0.0932 -0.0846
  944SOL     ow 3773   2.914   4.580   1.008  0.5444 -0.0127 -0.0699
  944SOL     hw 3774   2.841   4.518   1.015  0.0610  0.6498  0.8115
  944SOL     hw 3775   2.941   4.596   1.098  0.1675  1.6508 -0.2263
  944SOL     vw 3776   2.908   4.574   1.021  0.4308  0.2944  0.0257
  945SOL     ow 3777   6.603   5.034   4.322  0.0851  0.1599  0.1603
  945SOL     hw 3778   6.673   5.097   4.341 -0.1729 -0.0849  2.2164
  945SOL     hw 3779   6.530   5.087   4.291  0.3781  0.7152  0.4122
  945SOL     vw 3780   6.603   5.049   4.320  0.0896  0.2012  0.4649
  946SOL     ow 3781   6.996   6.471   6.579 -0.0123 -0.3326 -0.0756
  946SOL     hw 3782   6.905   6.461   6.606 -0.9382  0.0830 -2.7973
  946SOL     hw 3783   7.022   6.557   6.612 -0.8792 -0.0850 -0.0359
  946SOL     vw 3784   6.988   6.481   6.587 -0.2487 -0.2451 -0.4299
  947SOL     ow 3785   2.521   1.303   6.275 -0.3817  0.2058  0.1102
  947SOL     hw 3786   2.439   1.340   6.309 -0.9862 -0.7570 -0.2655
  947SOL     hw 3787   2.584   1.374   6.284 -1.4683  1.2912 -0.4592
  947SOL     vw 3788   2.518   1.318   6.281 -0.6047  0.2220 -0.0145
  948SOL     ow 3789   1.674   2.373   5.976 -0.8960 -0.0184 -0.1691
  948SOL     hw 3790   1.680   2.463   5.945  1.0297  0.2341  0.7484
  948SOL     hw 3791   1.760   2.356   6.016 -1.4766 -2.0079  0.3525
  948SOL     vw 3792   1.686   2.383   5.977 -0.7185 -0.2477  0.0207
  949SOL     ow 3793   3.601   4.791   6.271  0.4261  0.2798 -0.1736
  949SOL     hw 3794   3.525   4.755   6.225  0.7898 -1.0346  0.2129
  949SOL     hw 3795   3.595   4.886   6.258 -0.7938  0.1169 -0.8784
  949SOL     vw 3796   3.590   4.799   6.263  0.3129  0.0849 -0.2155
  950SOL     ow 3797   1.494   3.121   5.186  0.2676  0.3910  0.1954
  950SOL     hw 3798   1.532   3.105   5.272  0.6160 -1.8992 -0.3363
  950SOL     hw 3799   1.438   3.045   5.169 -0.5403  1.2454 -1.2184
  950SOL     vw 3800   1.492   3.109   5.195  0.2070  0.2015 -0.0613
  951SOL     ow 3801   6.420   4.650   4.169  0.4567 -0.0628  0.2333
  951SOL     hw 3802   6.508   4.614   4.172  0.4964 -0.0318 -0.4583
  951SOL     hw 3803   6.432   4.745   4.177  0.5742  0.0340 -0.9511
  951SOL     vw 3804   6.433   4.658   4.171  0.4773 -0.0458 -0.0141
  952SOL     ow 3805   2.101   0.014   6.537 -0.0482 -0.0242  0.5437
  952SOL     hw 3806   2.184   0.030   6.582  0.8783 -1.2132 -0.6857
  952SOL     hw 3807   2.094   0.086   6.475  0.7343 -0.6060 -0.2476
  952SOL     vw 3808   2.111   0.026   6.535  0.1771 -0.2578  0.2768
  953SOL     ow 3809   2.843   2.425   3.110  0.1677 -0.0720  0.3715
  953SOL     hw 3810   2.932   2.460   3.101  0.0523 -0.0353 -0.7711
  953SOL     hw 3811   2.786   2.497   3.084 -0.0692 -1.0506 -2.1574
  953SOL     vw 3812   2.847   2.439   3.105  0.1211 -0.1962 -0.1129
  954SOL     ow 3813   2.447   2.581   2.885  0.1793 -0.4851 -0.4349
  954SOL     hw 3814   2.400   2.590   2.802 -0.6187 -0.5519 -0.0071
  954SOL     hw 3815   2.405   2.507   2.928  0.3407 -0.2219  0.1819
  954SOL     vw 3816   2.435   2.573   2.880  0.0952 -0.4592 -0.2970
  955SOL     ow 3817   4.090   0.738   3.478 -0.9402 -0.0060 -0.1011
  955SOL     hw 3818   4.026   0.809   3.480  0.8218  1.9593 -3.1963
  955SOL     hw 3819   4.148   0.755   3.552 -0.5510  1.8700 -0.7937
  955SOL     vw 3820   4.090   0.750   3.488 -0.6566  0.5008 -0.6008
  956SOL     ow 3821   4.273   4.929   5.437 -0.7980  0.2992  0.5125
  956SOL     hw 3822   4.305   4.899   5.352 -0.5530 -1.1570  1.0755
  956SOL     hw 3823   4.264   5.024   5.428 -0.8013  0.1690 -1.1299
  956SOL     vw 3824   4.276   4.937   5.425 -0.7660  0.0901  0.3700
  957SOL     ow 3825   1.415   4.633   5.227 -0.2644 -0.1750  0.2759
  957SOL     hw 3826   1.479   4.672   5.167  0.7092 -3.7437 -1.2781
  957SOL     hw 3827   1.416   4.690   5.304  1.8882  2.0370 -1.2411
  957SOL     vw 3828   1.423   4.646   5.229  0.1481 -0.3541 -0.1295
  958SOL     ow 3829   5.505   1.114   6.748  0.2448  0.2012  0.2117
  958SOL     hw 3830   5.580   1.153   6.703  0.0562  1.2738  0.8004
  958SOL     hw 3831   5.438   1.182   6.747 -0.3698 -0.3886  0.5745
  958SOL     vw 3832   5.506   1.128   6.742  0.1388  0.2648  0.3371
  959SOL     ow 3833   3.009   5.645   4.464 -0.9054  0.1574  0.0232
  959SOL     hw 3834   3.057   5.649   4.382 -1.2420  0.2453 -0.1739
  959SOL     hw 3835   2.989   5.552   4.477  1.7968 -0.3012  1.5807
  959SOL     vw 3836   3.012   5.634   4.455 -0.5933  0.1085  0.2027
  960SOL     ow 3837   4.837   2.193   3.722 -0.0097  0.4810  0.5565
  960SOL     hw 3838   4.754   2.181   3.676 -0.9613  0.1024  2.2786
  960SOL     hw 3839   4.850   2.287   3.724  0.6283  0.4802 -1.3865
  960SOL     vw 3840   4.827   2.204   3.716 -0.0513  0.4309  0.5274
  961SOL     ow 3841   6.450   4.997   6.226  0.3031 -0.0390 -0.6531
  961SOL     hw 3842   6.494   5.078   6.203  0.5205 -0.2964 -1.1800
  961SOL     hw 3843   6.358   5.022   6.237  0.6796  0.6304  1.1857
  961SOL     vw 3844   6.444   5.011   6.224  0.3815  0.0153 -0.4799
  962SOL     ow 3845   0.330   5.905   2.576 -0.0825 -0.0945  0.4876
  962SOL     hw 3846   0.258   5.849   2.547  0.1716  0.5099 -1.4782
  962SOL     hw 3847   0.404   5.879   2.522 -0.1521  2.5617 -1.0702
  962SOL     vw 3848   0.330   5.894   2.565 -0.0581  0.3357  0.0228
  963SOL     ow 3849   3.820   2.523   2.107 -0.2024 -0.1180 -0.1341
  963SOL     hw 3850   3.747   2.545   2.165  0.8671  0.2193  1.1149
  963SOL     hw 3851   3.849   2.607   2.071 -0.0024 -0.1733 -0.1047
  963SOL     vw 3852   3.814   2.537   2.110 -0.0349 -0.0808  0.0346
  964SOL     ow 3853   5.785   5.180   1.718 -0.4544  0.2428 -0.2672
  964SOL     hw 3854   5.768   5.240   1.645  0.5512 -0.0800 -0.7893
  964SOL     hw 3855   5.874   5.148   1.702  0.0455  0.6635  1.4716
  964SOL     vw 3856   5.795   5.184   1.706 -0.2558  0.2558 -0.1066
  965SOL     ow 3857   1.422   4.548   0.367 -0.3066  0.4609  0.2034
  965SOL     hw 3858   1.504   4.575   0.326 -0.3112 -0.6301 -0.5784
  965SOL     hw 3859   1.450   4.488   0.437 -0.3801  1.1149  0.8010
  965SOL     vw 3860   1.437   4.544   0.371 -0.3169  0.4032  0.1791
  966SOL     ow 3861   5.704   0.214   1.958  0.5138 -0.2321 -0.5556
  966SOL     hw 3862   5.760   0.138   1.941 -0.2479 -0.9488  0.0622
  966SOL     hw 3863   5.647   0.219   1.881  0.7664 -0.0987 -0.7351
  966SOL     vw 3864   5.704   0.204   1.946  0.4466 -0.3090 -0.4978
  967SOL     ow 3865   3.366   4.213   4.470 -0.2112 -0.1654 -0.0755
  967SOL     hw 3866   3.287   4.268   4.472  0.1090  0.2954  1.3334
  967SOL     hw 3867   3.359   4.158   4.548  0.5717 -0.5289 -0.2492
  967SOL     vw 3868   3.355   4.213   4.481 -0.0658 -0.1526  0.0877
  968SOL     ow 3869   2.006   1.722   1.515  0.1872 -0.0976  0.3669
  968SOL     hw 3870   2.083   1.705   1.569  0.1219 -0.3499  0.3809
  968SOL     hw 3871   2.040   1.770   1.439 -0.0602  2.7100  1.8764
  968SOL     vw 3872   2.021   1.726   1.512  0.1458  0.2394  0.5679
  969SOL     ow 3873   5.451   3.710   1.549 -0.9052 -0.1652  0.1983
  969SOL     hw 3874   5.479   3.619   1.536  0.0172 -0.2687  2.4766
  969SOL     hw 3875   5.507   3.761   1.491  0.8487 -0.8064  1.2470
  969SOL     vw 3876   5.462   3.704   1.539 -0.5519 -0.2635  0.6373
  970SOL     ow 3877   0.593   0.101   5.659 -0.1439 -0.3537  0.0340
  970SOL     hw 3878   0.667   0.158   5.681  0.6742 -1.0062 -0.9197
  970SOL     hw 3879   0.537   0.155   5.604  0.3705 -0.3007 -0.4493
  970SOL     vw 3880   0.595   0.116   5.655  0.0319 -0.4328 -0.1557
  971SOL     ow 3881   5.382   2.601   4.422  0.5135  0.4981 -0.2161
  971SOL     hw 3882   5.300   2.642   4.451  1.1663  1.0616  0.9096
  971SOL     hw 3883   5.409   2.546   4.496  0.6456 -0.4691 -0.9718
  971SOL     vw 3884   5.374   2.599   4.436  0.6170  0.4448 -0.1671
  972SOL     ow 3885   4.951   5.978   2.356  0.4666 -0.4826  0.2805
  972SOL     hw 3886   5.035   5.980   2.311  2.0779 -0.1987  3.0641
  972SOL     hw 3887   4.968   5.929   2.437 -0.4664  3.9966  3.5798
  972SOL     vw 3888   4.964   5.972   2.361  0.5560  0.1459  1.0830
  973SOL     ow 3889   0.916   6.972   1.746  0.3534  0.4736 -0.3683
  973SOL     hw 3890   0.996   6.930   1.778  0.0917  0.7336  0.6768
  973SOL     hw 3891   0.889   7.030   1.817 -1.1204 -0.0835 -0.4362
  973SOL     vw 3892   0.923   6.974   1.759  0.1244  0.4346 -0.2394
  974SOL     ow 3893   3.878   4.461   1.480 -0.2501 -0.0910  0.4424
  974SOL     hw 3894   3.854   4.418   1.398 -1.1784 -1.8791  1.5833
  974SOL     hw 3895   3.973   4.461   1.480 -0.2301 -1.5429  0.0708
  974SOL     vw 3896   3.887   4.456   1.469 -0.3699 -0.5188  0.5439
  975SOL     ow 3897   4.645   1.327   0.634  0.2048 -0.4883  0.1936
  975SOL     hw 3898   4.642   1.234   0.659 -1.8341 -0.4060  0.3610
  975SOL     hw 3899   4.576   1.336   0.568  0.5103  0.8891  0.0413
  975SOL     vw 3900   4.636   1.316   0.628 -0.0238 -0.2958  0.1956
  976SOL     ow 3901   4.049   4.155   6.337 -0.4721 -0.6871  0.1524
  976SOL     hw 3902   4.016   4.188   6.421  1.2805 -1.1734  1.0795
  976SOL     hw 3903   4.056   4.233   6.282 -1.5885 -0.3522  0.4496
  976SOL     vw 3904   4.045   4.170   6.341 -0.3881 -0.7071  0.3140
  977SOL     ow 3905   6.648   1.303   6.465  0.1263 -0.8487  0.0575
  977SOL     hw 3906   6.589   1.377   6.448  0.0577 -0.7109  0.8905
  977SOL     hw 3907   6.597   1.244   6.521 -0.2695 -2.1236 -1.5478
  977SOL     vw 3908   6.633   1.305   6.470  0.0651 -0.9987 -0.0446
  978SOL     ow 3909   5.526   2.444   4.937  0.1435  0.2799  0.2089
  978SOL     hw 3910   5.480   2.362   4.953  0.5689  0.3278  1.9022
  978SOL     hw 3911   5.514   2.461   4.844 -0.5150 -1.3564 -0.0375
  978SOL     vw 3912   5.518   2.435   4.927  0.1125  0.0703  0.3998
  979SOL     ow 3913   2.406   7.029   4.334  0.2337  0.0938  0.1049
  979SOL     hw 3914   2.443   6.993   4.254 -0.1737 -0.7865  0.2993
  979SOL     hw 3915   2.429   6.965   4.402 -2.2278 -0.8796  0.1069
  979SOL     vw 3916   2.414   7.016   4.333 -0.1447 -0.1509  0.1307
  980SOL     ow 3917   5.872   1.724   5.110  0.3365  0.5280  0.0757
  980SOL     hw 3918   5.884   1.690   5.199  0.7903  3.0148  1.0493
  980SOL     hw 3919   5.780   1.751   5.107  0.3393  0.5055 -0.1959
  980SOL     vw 3920   5.861   1.723   5.122  0.3967  0.8532  0.1683
  981SOL     ow 3921   6.633   1.260   1.507  0.0686 -0.1817  0.3773
  981SOL     hw 3922   6.666   1.334   1.455 -1.5683 -0.0177 -0.4873
  981SOL     hw 3923   6.712   1.212   1.533  1.1075  1.3549  0.1966
  981SOL     vw 3924   6.648   1.263   1.504 -0.0105  0.0427  0.2393
  982SOL     ow 3925   6.533   6.380   2.003  0.0041 -0.1029 -0.5138
  982SOL     hw 3926   6.459   6.379   1.943 -1.1342 -0.8885  0.8359
  982SOL     hw 3927   6.537   6.291   2.039 -0.0696  0.5900  1.3645
  982SOL     vw 3928   6.524   6.368   2.000 -0.1559 -0.1149 -0.0880
  983SOL     ow 3929   4.803   1.591   2.798 -0.1263 -0.1112 -0.6147
  983SOL     hw 3930   4.748   1.594   2.876  0.2212  0.2025 -0.3803
  983SOL     hw 3931   4.747   1.624   2.728 -0.4096 -0.3092 -0.4846
  983SOL     vw 3932   4.788   1.596   2.799 -0.1178 -0.0960 -0.5667
  984SOL     ow 3933   5.929   2.254   1.586 -0.2254  0.3695  0.3980
  984SOL     hw 3934   6.009   2.306   1.591 -0.4081  0.6369  0.5217
  984SOL     hw 3935   5.878   2.294   1.515 -0.0111 -0.1363 -0.0542
  984SOL     vw 3936   5.933   2.266   1.577 -0.2210  0.3381  0.3546
  985SOL     ow 3937   1.200   1.902   2.339  0.2983 -0.0357  0.7211
  985SOL     hw 3938   1.152   1.965   2.392  1.3237  0.2640  1.3109
  985SOL     hw 3939   1.134   1.867   2.278 -0.6259  0.4634  1.4065
  985SOL     vw 3940   1.185   1.905   2.338  0.3117  0.0697  0.8894
  986SOL     ow 3941   3.172   3.319   6.272 -0.2761 -0.6318  0.3543
  986SOL     hw 3942   3.144   3.390   6.215  0.1035 -1.5027 -0.9568
  986SOL     hw 3943   3.247   3.354   6.320 -0.7186  0.1760  0.4710
  986SOL     vw 3944   3.178   3.333   6.271 -0.2844 -0.6402  0.1967
  987SOL     ow 3945   5.988   3.163   2.204  0.0381 -0.3912  0.0107
  987SOL     hw 3946   5.951   3.242   2.164 -1.5436 -0.3793  1.3781
  987SOL     hw 3947   5.977   3.177   2.298 -2.0785 -3.0142  0.2605
  987SOL     vw 3948   5.981   3.175   2.211 -0.4497 -0.7356  0.2240
  988SOL     ow 3949   1.678   6.688   6.134 -0.1465 -0.1368  0.3291
  988SOL     hw 3950   1.696   6.741   6.212 -2.1172 -0.6842  1.2174
  988SOL     hw 3951   1.659   6.752   6.066 -0.4894  0.3465  0.8625
  988SOL     vw 3952   1.678   6.703   6.135 -0.4517 -0.1452  0.5167
  989SOL     ow 3953   4.686   2.090   4.662 -0.1151 -0.2121 -0.2180
  989SOL     hw 3954   4.710   2.182   4.661  0.2903 -0.3157 -0.0587
  989SOL     hw 3955   4.764   2.044   4.631 -0.0872 -0.5495  0.3447
  989SOL     vw 3956   4.699   2.096   4.658 -0.0582 -0.2704 -0.1228
  990SOL     ow 3957   2.899   2.958   6.948  0.6366  0.2158 -0.2792
  990SOL     hw 3958   2.808   2.947   6.922  0.4926  1.4495 -0.3417
  990SOL     hw 3959   2.927   3.038   6.903  1.1336  0.9971  1.3737
  990SOL     vw 3960   2.891   2.967   6.938  0.6832  0.4817 -0.0694
  991SOL     ow 3961   4.976   3.188   5.812  0.0665 -0.3335 -0.4600
  991SOL     hw 3962   5.045   3.177   5.877  1.1206 -1.9415 -1.7611
  991SOL     hw 3963   4.950   3.280   5.819  3.4077  0.7576 -0.9364
  991SOL     vw 3964   4.982   3.199   5.821  0.6466 -0.4016 -0.6945
  992SOL     ow 3965   3.561   6.590   2.252 -0.5924  0.1392 -0.0185
  992SOL     hw 3966   3.503   6.566   2.179 -1.6064  0.1611  0.7451
  992SOL     hw 3967   3.563   6.686   2.251  0.0039  0.1243 -0.4718
  992SOL     vw 3968   3.553   6.599   2.242 -0.6475  0.1402  0.0224
  993SOL     ow 3969   4.993   6.995   0.004 -0.0131  0.1362  0.2627
  993SOL     hw 3970   5.055   7.059   0.037  0.7041 -1.6008  2.5896
  993SOL     hw 3971   4.930   7.046  -0.047  1.6653  2.3488  0.2824
  993SOL     vw 3972   4.993   7.010   0.002  0.3030  0.1988  0.5720
  994SOL     ow 3973   0.088   3.606   2.863  0.2346  0.3870 -0.2222
  994SOL     hw 3974   0.022   3.542   2.835 -0.6347  1.5188 -0.8397
  994SOL     hw 3975   0.059   3.688   2.823  1.6604  1.0421  0.0618
  994SOL     vw 3976   0.075   3.608   2.854  0.3080  0.6229 -0.2662
  995SOL     ow 3977   4.064   2.982   2.206 -0.8678 -0.5037  0.0064
  995SOL     hw 3978   4.156   2.996   2.227 -1.2143  0.0842  1.1596
  995SOL     hw 3979   4.021   2.968   2.290 -1.6700 -1.8688 -0.5894
  995SOL     vw 3980   4.071   2.982   2.220 -1.0195 -0.6062  0.0799
  996SOL     ow 3981   0.572   6.277   5.988  0.3940 -0.0666  0.4017
  996SOL     hw 3982   0.481   6.252   6.005  0.0350  0.0410 -1.1743
  996SOL     hw 3983   0.565   6.353   5.931  1.4883  0.5139  1.0272
  996SOL     vw 3984   0.559   6.283   5.983  0.4910  0.0241  0.2763
  997SOL     ow 3985   4.201   5.072   6.207 -0.2172  0.0316 -0.2570
  997SOL     hw 3986   4.223   5.056   6.115 -0.4558  1.4815 -0.5919
  997SOL     hw 3987   4.123   5.127   6.204 -1.4012 -1.4827  0.8624
  997SOL     vw 3988   4.194   5.077   6.195 -0.4048  0.0229 -0.1535
  998SOL     ow 3989   5.085   4.899   4.743  0.0589 -0.5603  0.3988
  998SOL     hw 3990   5.150   4.954   4.787 -0.0157 -1.0484  1.1163
  998SOL     hw 3991   5.133   4.857   4.672 -0.2102  1.6305 -1.2199
  998SOL     vw 3992   5.100   4.901   4.739  0.0136 -0.3357  0.2799
  999SOL     ow 3993   2.813   5.643   1.509 -0.0973 -0.3691 -0.6223
  999SOL     hw 3994   2.776   5.564   1.550  0.8905 -1.4227 -1.6973
  999SOL     hw 3995   2.905   5.641   1.533 -0.1573  0.7770 -0.2267
  999SOL     vw 3996   2.820   5.632   1.518  0.0252 -0.3569 -0.7120
 1000SOL     ow 3997   0.808   2.926   2.604 -0.0640 -0.1048 -0.3530
 1000SOL     hw 3998   0.848   2.987   2.542 -2.1020  0.1111 -1.5234
 1000SOL     hw 3999   0.724   2.903   2.565 -1.1680 -0.4416  2.0682
 1000SOL     vw 4000   0.802   2.931   2.591 -0.4785 -0.1206 -0.1880
 1001SOL     ow 4001   5.199   4.564   0.432  0.4507 -0.4229  0.4192
 1001SOL     hw 4002   5.245   4.576   0.348 -0.2612  0.8916  0.1895
 1001SOL     hw 4003   5.263   4.591   0.498  0.6409 -0.4045  0.2307
 1001SOL     vw 4004   5.214   4.569   0.429  0.3819 -0.2470  0.3641
 1002SOL     ow 4005   1.363   4.704   1.559  0.0124 -0.7974 -0.5986
 1002SOL     hw 4006   1.334   4.668   1.476 -0.5773 -0.3095 -0.6156
 1002SOL     hw 4007   1.445   4.748   1.539 -1.1550  1.1622 -1.4129
 1002SOL     vw 4008   1.370   4.705   1.546 -0.2194 -0.4742 -0.7084
 1003SOL     ow 4009   6.018   0.231   2.687 -0.3254 -0.3450 -0.3908
 1003SOL     hw 4010   5.957   0.185   2.745  0.8022 -1.6114 -0.1407
 1003SOL     hw 4011   6.070   0.286   2.745 -0.4665 -0.1487 -0.4509
 1003SOL     vw 4012   6.017   0.232   2.703 -0.1950 -0.4862 -0.3657
 1004SOL     ow 4013   4.874   5.411   5.823 -0.1656  0.1935  0.0032
 1004SOL     hw 4014   4.865   5.468   5.747  0.0885 -0.1356 -0.2743
 1004SOL     hw 4015   4.790   5.368   5.832 -0.0160 -0.1870 -0.4270
 1004SOL     vw 4016   4.862   5.413   5.814 -0.1125  0.0997 -0.0901
 1005SOL     ow 4017   5.492   4.176   0.875 -0.4828  0.5208  0.1726
 1005SOL     hw 4018   5.583   4.174   0.846  0.0771  0.2173  1.8446
 1005SOL     hw 4019   5.456   4.092   0.847  0.0590  0.2093  0.3869
 1005SOL     vw 4020   5.499   4.165   0.868 -0.3374  0.4396  0.4215
 1006SOL     ow 4021   4.312   0.013   0.336 -0.3083 -0.4852 -0.0500
 1006SOL     hw 4022   4.375   0.043   0.403 -0.9812  0.9919 -0.0411
 1006SOL     hw 4023   4.367  -0.029   0.269  0.6265  0.1343  0.2988
 1006SOL     vw 4024   4.328   0.011   0.336 -0.2739 -0.2086 -0.0028
 1007SOL     ow 4025   2.618   1.074   1.171 -0.2850  0.0651  0.6579
 1007SOL     hw 4026   2.649   1.157   1.208  1.3366 -0.3921  0.3960
 1007SOL     hw 4027   2.543   1.051   1.226 -2.3862  2.8714 -0.7597
 1007SOL     vw 4028   2.612   1.082   1.183 -0.3482  0.3750  0.4363
 1008SOL     ow 4029   4.710   1.656   2.123 -0.2967 -0.1519 -0.1623
 1008SOL     hw 4030   4.678   1.695   2.204 -1.1766  0.1969 -0.6731
 1008SOL     hw 4031   4.784   1.602   2.151 -1.8778 -1.7335  1.1888
 1008SOL     vw 4032   4.716   1.654   2.138 -0.6213 -0.3145 -0.0515
 1009SOL     ow 4033   4.864   7.081   0.357  0.1401  0.0115 -0.6615
 1009SOL     hw 4034   4.834   7.119   0.439  0.9701  1.3320 -0.9268
 1009SOL     hw 4035   4.793   7.099   0.295 -1.0667 -2.1333  0.0026
 1009SOL     vw 4036   4.851   7.089   0.359  0.0906 -0.0973 -0.6089
 1010SOL     ow 4037   1.455   2.631   4.526 -0.1536  0.0250  0.5119
 1010SOL     hw 4038   1.477   2.658   4.615 -0.1183  2.2654 -0.1270
 1010SOL     hw 4039   1.377   2.682   4.504  0.1188 -0.1333 -0.8985
 1010SOL     vw 4040   1.448   2.641   4.535 -0.1130  0.2997  0.2413
 1011SOL     ow 4041   4.064   7.052   0.456  0.3325  0.4071  0.4361
 1011SOL     hw 4042   4.134   7.054   0.391  1.1617 -1.1249  1.2318
 1011SOL     hw 4043   4.016   6.972   0.437  0.1860  0.2826  1.2886
 1011SOL     vw 4044   4.067   7.042   0.445  0.4225  0.1886  0.6535
 1012SOL     ow 4045   2.533   4.006   5.696 -0.0863 -0.2776  0.4230
 1012SOL     hw 4046   2.562   4.036   5.782  1.7457  1.1330 -0.5978
 1012SOL     hw 4047   2.445   3.973   5.710  0.1264  0.0067  2.8081
 1012SOL     vw 4048   2.525   4.006   5.709  0.1833 -0.0536  0.6030
 1013SOL     ow 4049   6.923   0.230   6.334 -0.7443 -0.2897  0.1594
 1013SOL     hw 4050   6.869   0.169   6.385  0.1574 -2.3186 -1.1837
 1013SOL     hw 4051   7.011   0.223   6.371  0.3097 -3.0081 -2.4527
 1013SOL     vw 4052   6.927   0.221   6.345 -0.4864 -0.9160 -0.3629
 1014SOL     ow 4053   1.779   3.198   5.109 -0.1123 -0.3639  0.4526
 1014SOL     hw 4054   1.770   3.102   5.111 -0.5102 -0.3244  0.7497
 1014SOL     hw 4055   1.848   3.214   5.045 -1.2446 -0.7678 -0.9093
 1014SOL     vw 4056   1.787   3.187   5.101 -0.3143 -0.4119  0.3121
 1015SOL     ow 4057   4.686   2.485   1.996 -0.1752 -0.2190 -0.1675
 1015SOL     hw 4058   4.592   2.479   1.977 -0.1162  0.5268 -0.7639
 1015SOL     hw 4059   4.725   2.411   1.949 -0.6239 -1.4904  1.3836
 1015SOL     vw 4060   4.679   2.475   1.987 -0.2267 -0.2885 -0.0415
 1016SOL     ow 4061   4.423   6.980   1.457  0.3031 -0.0858 -0.2878
 1016SOL     hw 4062   4.453   6.893   1.429 -2.7530 -0.6015 -2.6151
 1016SOL     hw 4063   4.473   6.999   1.536  3.0340 -2.7474 -1.1814
 1016SOL     vw 4064   4.433   6.971   1.464  0.2604 -0.5052 -0.7128
 1017SOL     ow 4065   4.734   3.641   7.082 -0.0060 -0.0612  0.0337
 1017SOL     hw 4066   4.719   3.548   7.101 -1.8690  0.1132 -0.3848
 1017SOL     hw 4067   4.827   3.646   7.061 -0.1784 -2.1785 -1.6427
 1017SOL     vw 4068   4.744   3.629   7.081 -0.2744 -0.3176 -0.2427
 1018SOL     ow 4069   6.487   0.950   3.395  0.0054  0.1230 -0.0092
 1018SOL     hw 4070   6.448   1.033   3.369 -0.4407 -0.3712 -0.9395
 1018SOL     hw 4071   6.543   0.973   3.470 -1.9599  0.8699  1.3299
 1018SOL     vw 4072   6.489   0.964   3.402 -0.3128  0.1563  0.0448
 1019SOL     ow 4073   4.170   6.042   6.432 -0.2944  0.4452  0.4641
 1019SOL     hw 4074   4.207   6.020   6.518  0.5843 -0.9181 -0.2189
 1019SOL     hw 4075   4.076   6.043   6.446 -0.1886 -0.3234  1.3300
 1019SOL     vw 4076   4.163   6.039   6.445 -0.1645  0.1638  0.4883
 1020SOL     ow 4077   1.516   1.723   4.814 -0.1596 -0.8091  0.4572
 1020SOL     hw 4078   1.490   1.708   4.723  1.8684 -1.0660 -0.1443
 1020SOL     hw 4079   1.517   1.818   4.824 -1.3174 -0.7919  0.5321
 1020SOL     vw 4080   1.513   1.733   4.803 -0.0447 -0.8407  0.3877
 1021SOL     ow 4081   5.352   1.526   2.672 -0.2141  0.3597  0.4185
 1021SOL     hw 4082   5.433   1.527   2.622 -0.9187  0.9580 -0.7617
 1021SOL     hw 4083   5.363   1.455   2.735  0.5172 -0.7895 -0.9505
 1021SOL     vw 4084   5.364   1.516   2.674 -0.2105  0.2870  0.0821
 1022SOL     ow 4085   1.437   5.267   3.860 -0.2185 -0.2582  0.0278
 1022SOL     hw 4086   1.510   5.227   3.906 -1.0164  0.8122  2.3597
 1022SOL     hw 4087   1.367   5.202   3.863 -0.4360  0.0043  0.8333
 1022SOL     vw 4088   1.438   5.253   3.866 -0.3524 -0.0825  0.4419
 1023SOL     ow 4089   5.285   4.250   0.475  0.1000  0.0325 -0.2477
 1023SOL     hw 4090   5.321   4.168   0.440  1.2097  0.9325 -1.2506
 1023SOL     hw 4091   5.360   4.308   0.483 -1.0968  2.2215 -3.0955
 1023SOL     vw 4092   5.299   4.247   0.471  0.0885  0.4399 -0.7558
 1024SOL     ow 4093   4.595   5.730   4.064  0.5078  0.3373  0.1268
 1024SOL     hw 4094   4.609   5.658   4.125 -0.1028 -1.0502 -1.3215
 1024SOL     hw 4095   4.660   5.796   4.089  0.9333 -0.6066  1.6106
 1024SOL     vw 4096   4.606   5.729   4.075  0.4835  0.0296  0.1316
 1025SOL     ow 4097   3.057   0.094   5.439 -0.1175  0.2478  0.5538
 1025SOL     hw 4098   3.111   0.134   5.507  0.9652  0.5384 -0.4448
 1025SOL     hw 4099   3.002   0.165   5.407 -1.0342 -0.0222  1.4983
 1025SOL     vw 4100   3.057   0.109   5.444 -0.0955  0.2505  0.5467
 1026SOL     ow 4101   4.665   7.019   5.657  0.7037  0.5083  0.3872
 1026SOL     hw 4102   4.682   7.108   5.689  0.5505  1.5252 -2.0952
 1026SOL     hw 4103   4.572   7.020   5.633  0.9585  0.0658 -0.6799
 1026SOL     vw 4104   4.655   7.031   5.658  0.7172  0.5841 -0.0811
 1027SOL     ow 4105   5.239   5.291   3.253  0.3206 -0.4340  0.2047
 1027SOL     hw 4106   5.170   5.357   3.260 -0.9202 -1.7052  0.3757
 1027SOL     hw 4107   5.320   5.340   3.262 -0.4771  1.3500 -1.5992
 1027SOL     vw 4108   5.241   5.306   3.255  0.0515 -0.3662 -0.0107
 1028SOL     ow 4109   6.046   2.680   2.223 -0.1830 -0.0430 -0.1524
 1028SOL     hw 4110   6.103   2.604   2.239  1.6738  1.3653  0.3297
 1028SOL     hw 4111   5.999   2.693   2.305 -0.2782 -0.4629 -0.1354
 1028SOL     vw 4112   6.048   2.671   2.236  0.0491  0.0875 -0.0864
 1029SOL     ow 4113   4.540   5.483   3.762 -0.5829 -0.1085  0.0823
 1029SOL     hw 4114   4.608   5.539   3.723  0.9589 -1.6614  0.3970
 1029SOL     hw 4115   4.535   5.407   3.704 -1.6983 -0.2717  0.3642
 1029SOL     vw 4116   4.548   5.480   3.749 -0.5269 -0.3345  0.1611
 1030SOL     ow 4117   1.208   5.182   6.219  0.0960  0.3086 -0.1759
 1030SOL     hw 4118   1.224   5.275   6.233 -1.0861  0.7211 -1.3649
 1030SOL     hw 4119   1.141   5.159   6.282  0.4957  0.2188  0.2199
 1030SOL     vw 4120   1.202   5.191   6.229 -0.0072  0.3510 -0.2806
 1031SOL     ow 4121   5.655   2.888   3.510 -1.0400  0.2355  0.0693
 1031SOL     hw 4122   5.580   2.938   3.542 -0.8816 -0.7763  2.1523
 1031SOL     hw 4123   5.677   2.829   3.581  1.0778 -0.2589 -0.9121
 1031SOL     vw 4124   5.648   2.887   3.523 -0.7398  0.0367  0.2148
 1032SOL     ow 4125   2.964   0.555   1.697 -0.0331  0.1461 -0.2697
 1032SOL     hw 4126   2.981   0.540   1.790 -0.6967 -0.8944 -0.3025
 1032SOL     hw 4127   3.041   0.518   1.653  0.1668  0.4176 -0.1532
 1032SOL     vw 4128   2.976   0.548   1.703 -0.0944  0.0446 -0.2586
 1033SOL     ow 4129   1.839   6.095   0.584  0.2699 -0.2742  0.2367
 1033SOL     hw 4130   1.881   6.176   0.554  0.6919 -0.5723  0.0050
 1033SOL     hw 4131   1.770   6.078   0.520  0.1890 -0.1028  0.2791
 1033SOL     vw 4132   1.836   6.103   0.571  0.3149 -0.2909  0.2117
 1034SOL     ow 4133   6.128   4.947   5.265 -0.4536  0.2765  0.6594
 1034SOL     hw 4134   6.209   4.921   5.310 -0.4680 -0.3255  0.3491
 1034SOL     hw 4135   6.156   5.014   5.203  0.6158 -2.6253 -2.3191
 1034SOL     vw 4136   6.142   4.952   5.262 -0.3145 -0.1855  0.2255
 1035SOL     ow 4137   5.192   2.986   4.405 -0.1677 -0.0222 -0.2476
 1035SOL     hw 4138   5.174   2.896   4.432  0.3269 -0.2492 -0.6422
 1035SOL     hw 4139   5.132   3.002   4.332  0.3764 -0.3586 -0.7784
 1035SOL     vw 4140   5.182   2.976   4.399 -0.0308 -0.0964 -0.3698
 1036SOL     ow 4141   0.851   2.421   1.713 -0.5219  0.1927 -1.0450
 1036SOL     hw 4142   0.875   2.512   1.693 -0.5012  0.2719 -0.6629
 1036SOL     hw 4143   0.779   2.402   1.653 -0.2493  0.3201 -1.4231
 1036SOL     vw 4144   0.845   2.430   1.702 -0.4832  0.2198 -1.0445
 1037SOL     ow 4145   1.314   3.800   3.438 -0.3242  0.2427 -0.1424
 1037SOL     hw 4146   1.380   3.736   3.413  0.7652  1.4553 -0.4754
 1037SOL     hw 4147   1.243   3.748   3.476  0.4075 -1.1627 -0.6434
 1037SOL     vw 4148   1.314   3.785   3.440 -0.0840  0.2172 -0.2525
 1038SOL     ow 4149   0.527   1.785   6.756  0.6322  0.1681  0.1654
 1038SOL     hw 4150   0.503   1.869   6.796  0.2271  0.6144 -0.9627
 1038SOL     hw 4151   0.584   1.743   6.821  0.9016  1.3427  0.7247
 1038SOL     vw 4152   0.532   1.791   6.770  0.6143  0.3819  0.0901
 1039SOL     ow 4153   6.009   6.100   3.245  0.5299  0.4734 -0.0006
 1039SOL     hw 4154   6.070   6.050   3.300 -0.1389 -0.4782 -0.0883
 1039SOL     hw 4155   5.943   6.035   3.218 -1.3034  1.7354  1.1966
 1039SOL     vw 4156   6.008   6.085   3.249  0.2000  0.5143  0.1458
 1040SOL     ow 4157   5.904   1.395   1.022  0.4607 -0.5413  0.1882
 1040SOL     hw 4158   5.926   1.488   1.027  2.1764 -0.7821 -1.4438
 1040SOL     hw 4159   5.988   1.350   1.038 -0.5743 -1.8989  2.2661
 1040SOL     vw 4160   5.918   1.401   1.025  0.5507 -0.7522  0.2471
 1041SOL     ow 4161   3.409   4.173   2.275 -0.1616 -0.2094 -0.7019
 1041SOL     hw 4162   3.403   4.093   2.328  0.1781 -0.1107 -0.5109
 1041SOL     hw 4163   3.319   4.206   2.272 -0.1742 -0.1780 -0.1265
 1041SOL     vw 4164   3.396   4.167   2.282 -0.1185 -0.1922 -0.6007
 1042SOL     ow 4165   5.205   0.483   3.799  0.1796  0.1050 -0.6846
 1042SOL     hw 4166   5.163   0.399   3.813 -2.8702  1.6683  0.4981
 1042SOL     hw 4167   5.292   0.462   3.765 -0.4441 -3.4561 -0.3790
 1042SOL     vw 4168   5.211   0.469   3.796 -0.3049 -0.1586 -0.4883
 1043SOL     ow 4169   2.725   2.996   3.435 -0.1272 -0.0757  0.3795
 1043SOL     hw 4170   2.805   3.044   3.456  2.0563 -2.5694 -1.5344
 1043SOL     hw 4171   2.712   2.938   3.510 -0.1947  0.3726  0.7197
 1043SOL     vw 4172   2.734   2.995   3.448  0.1520 -0.3456  0.1719
 1044SOL     ow 4173   1.101   6.727   4.307 -0.2713 -0.1378  0.1278
 1044SOL     hw 4174   1.165   6.797   4.297 -0.8326  0.3653  0.0164
 1044SOL     hw 4175   1.064   6.741   4.394  0.3209 -0.9022  0.5166
 1044SOL     vw 4176   1.105   6.738   4.317 -0.2672 -0.1721  0.1647
 1045SOL     ow 4177   2.615   0.694   0.741  0.0203  0.2278 -0.7374
 1045SOL     hw 4178   2.643   0.651   0.660  1.7288 -0.2855  0.0882
 1045SOL     hw 4179   2.566   0.628   0.789 -0.9795  0.5272 -1.3155
 1045SOL     vw 4180   2.612   0.680   0.736  0.1140  0.1996 -0.7048
 1046SOL     ow 4181   0.820   2.268   6.916 -0.1533 -0.7693  0.0306
 1046SOL     hw 4182   0.727   2.257   6.898 -0.3611 -1.0029  1.1695
 1046SOL     hw 4183   0.826   2.350   6.964  0.4602  0.1587 -1.5309
 1046SOL     vw 4184   0.809   2.277   6.920 -0.0998 -0.6777 -0.0253
 1047SOL     ow 4185   4.859   4.742   4.790  0.2703  0.0781  0.0878
 1047SOL     hw 4186   4.818   4.791   4.862  0.5886  2.6652 -1.3557
 1047SOL     hw 4187   4.947   4.779   4.783  1.0906 -1.8335 -0.1144
 1047SOL     vw 4188   4.865   4.753   4.798  0.4203  0.1674 -0.1292
 1048SOL     ow 4189   1.403   3.229   0.429 -0.0659  0.1706  0.3527
 1048SOL     hw 4190   1.474   3.234   0.492  0.4351  0.4341 -0.2259
 1048SOL     hw 4191   1.344   3.300   0.453  0.0510  0.1834  0.6018
 1048SOL     vw 4192   1.404   3.239   0.441  0.0157  0.2072  0.3092
 1049SOL     ow 4193   6.510   1.906   3.230 -0.4057 -0.2143  0.2862
 1049SOL     hw 4194   6.480   1.974   3.290 -0.2441 -2.0169  2.5579
 1049SOL     hw 4195   6.569   1.852   3.283  2.4560 -0.0320 -2.4573
 1049SOL     vw 4196   6.514   1.908   3.245 -0.0069 -0.4281  0.2239
 1050SOL     ow 4197   0.164   3.731   3.168  0.0799 -0.2179  0.2178
 1050SOL     hw 4198   0.112   3.804   3.200  0.2430  0.5877 -1.2609
 1050SOL     hw 4199   0.247   3.738   3.214  0.4181  1.0914 -0.5383
 1050SOL     vw 4200   0.168   3.741   3.178  0.1461  0.0610 -0.0769
 1051SOL     ow 4201   5.665   0.670   4.672  0.1468  0.0417 -0.0937
 1051SOL     hw 4202   5.592   0.675   4.612  1.2753  3.7901 -1.4559
 1051SOL     hw 4203   5.724   0.605   4.633 -0.4512  0.2772 -1.4522
 1051SOL     vw 4204   5.663   0.662   4.659  0.2170  0.5673 -0.4525
 1052SOL     ow 4205   4.128   5.306   2.230 -0.8243 -0.1065  0.0727
 1052SOL     hw 4206   4.187   5.327   2.302  0.3551 -1.5725 -0.4180
 1052SOL     hw 4207   4.155   5.363   2.159  0.8296 -1.5352 -0.5156
 1052SOL     vw 4208   4.139   5.316   2.230 -0.4501 -0.4883 -0.0697
 1053SOL     ow 4209   0.046   5.950   3.234  0.1309  0.0615  0.4867
 1053SOL     hw 4210   0.050   5.855   3.228 -1.1218  0.0778 -1.7107
 1053SOL     hw 4211  -0.041   5.973   3.201 -0.4073  1.8993  2.8505
 1053SOL     vw 4212   0.035   5.940   3.229 -0.1054  0.3061  0.5087
 1054SOL     ow 4213   5.889   0.900   3.235 -0.0409  0.0278  0.0826
 1054SOL     hw 4214   5.815   0.843   3.213  0.7137 -1.5073  1.3105
 1054SOL     hw 4215   5.851   0.988   3.241 -1.2965 -0.3434 -1.5837
 1054SOL     vw 4216   5.874   0.904   3.233 -0.1073 -0.2237  0.0247
 1055SOL     ow 4217   4.940   5.827   2.588 -0.3498 -0.6862 -0.0570
 1055SOL     hw 4218   4.940   5.732   2.589 -1.0573 -0.6888  0.7872
 1055SOL     hw 4219   5.029   5.852   2.612  0.1101 -1.1186 -1.2152
 1055SOL     vw 4220   4.952   5.818   2.591 -0.3824 -0.7436 -0.0985
 1056SOL     ow 4221   0.386   0.256   2.411  0.1224 -0.2015  0.2028
 1056SOL     hw 4222   0.309   0.314   2.419 -0.0159 -0.4569  0.7747
 1056SOL     hw 4223   0.418   0.272   2.322 -0.0018  0.6464  0.2996
 1056SOL     vw 4224   0.380   0.266   2.400  0.0878 -0.1234  0.2911
 1057SOL     ow 4225   2.464   5.734   4.081 -0.2141 -0.0103  0.1601
 1057SOL     hw 4226   2.434   5.774   4.162  2.2439 -0.1280  1.2387
 1057SOL     hw 4227   2.512   5.656   4.110 -0.4229 -0.7986 -1.5141
 1057SOL     vw 4228   2.466   5.729   4.095  0.0826 -0.1299  0.0813
 1058SOL     ow 4229   4.125   6.632   3.844 -0.0709  0.1738  0.3050
 1058SOL     hw 4230   4.152   6.662   3.757 -0.1754 -2.3515 -0.6647
 1058SOL     hw 4231   4.205   6.639   3.897  0.2158  0.8945 -0.2036
 1058SOL     vw 4232   4.139   6.637   3.839 -0.0472 -0.0644  0.1098
 1059SOL     ow 4233   5.802   5.670   0.459  0.0435  0.3914  0.5172
 1059SOL     hw 4234   5.813   5.764   0.470 -0.2397  0.6486 -1.0801
 1059SOL     hw 4235   5.739   5.661   0.388 -0.3290 -1.0149  0.9846
 1059SOL     vw 4236   5.795   5.681   0.451 -0.0429  0.2398  0.3681
 1060SOL     ow 4237   0.969   1.515   2.933  0.6660  0.0920 -0.1584
 1060SOL     hw 4238   0.903   1.447   2.918  1.4334 -0.6638 -0.1883
 1060SOL     hw 4239   0.961   1.573   2.858 -1.4355  1.2736  0.8706
 1060SOL     vw 4240   0.959   1.514   2.921  0.4900  0.1482 -0.0268
 1061SOL     ow 4241   5.479   2.487   4.669  0.6083 -0.1509  0.1564
 1061SOL     hw 4242   5.564   2.457   4.637 -0.1121 -1.0104 -0.9873
 1061SOL     hw 4243   5.420   2.413   4.657 -0.9346  1.2469 -1.5579
 1061SOL     vw 4244   5.482   2.474   4.663  0.3097 -0.0798 -0.2205
 1062SOL     ow 4245   4.654   6.124   2.533 -0.1600 -0.1245 -0.8439
 1062SOL     hw 4246   4.742   6.137   2.498  1.1492 -1.2294  1.7069
 1062SOL     hw 4247   4.607   6.203   2.510  2.2087  1.5357 -0.3870
 1062SOL     vw 4248   4.660   6.136   2.526  0.3252 -0.0515 -0.4470
 1063SOL     ow 4249   5.082   0.437   1.914  0.5416 -0.4778 -0.2238
 1063SOL     hw 4250   5.055   0.353   1.949 -1.2173  0.6046  1.1764
 1063SOL     hw 4251   5.148   0.416   1.848  2.1214 -2.7766  1.9240
 1063SOL     vw 4252   5.087   0.423   1.910  0.5178 -0.6383  0.2443
 1064SOL     ow 4253   6.681   4.603   4.285  0.2455  0.0564  0.1665
 1064SOL     hw 4254   6.695   4.690   4.248 -0.3026  0.5247  1.0386
 1064SOL     hw 4255   6.711   4.543   4.216  3.3415  0.9299  0.6405
 1064SOL     vw 4256   6.687   4.606   4.271  0.5817  0.2332  0.3440
 1065SOL     ow 4257   0.649   5.354   4.700  0.7444  0.1177 -0.3520
 1065SOL     hw 4258   0.557   5.364   4.676  0.5930  0.3423  0.3264
 1065SOL     hw 4259   0.687   5.304   4.627  0.0741 -0.0364 -0.6008
 1065SOL     vw 4260   0.642   5.348   4.687  0.6360  0.1268 -0.2954
 1066SOL     ow 4261   6.388   2.251   1.135 -0.5476  0.1165 -0.2242
 1066SOL     hw 4262   6.343   2.222   1.215 -2.6912  0.6151 -1.1753
 1066SOL     hw 4263   6.444   2.177   1.111 -1.3676 -0.8282  0.6719
 1066SOL     vw 4264   6.389   2.237   1.142 -0.9384  0.0577 -0.2316
 1067SOL     ow 4265   5.201   1.478   3.080 -0.4122  0.2350 -0.0478
 1067SOL     hw 4266   5.108   1.502   3.078 -0.4453  0.3369  1.4219
 1067SOL     hw 4267   5.239   1.534   3.148  0.6758  0.0015 -0.4410
 1067SOL     vw 4268   5.194   1.489   3.089 -0.2730  0.2176  0.0942
 1068SOL     ow 4269   5.970   2.255   0.797  0.1254  0.2332  0.6682
 1068SOL     hw 4270   5.918   2.181   0.828  1.2559 -0.8045  0.1502
 1068SOL     hw 4271   5.916   2.332   0.817 -1.3864 -0.7618  0.5808
 1068SOL     vw 4272   5.956   2.256   0.803  0.0749 -0.0350  0.5883
 1069SOL     ow 4273   1.849   1.390   1.085 -0.0244  0.3262 -0.1379
 1069SOL     hw 4274   1.764   1.409   1.046 -0.1298  0.0411 -0.0478
 1069SOL     hw 4275   1.905   1.368   1.011  0.1746  1.2505 -0.2747
 1069SOL     vw 4276   1.845   1.390   1.070 -0.0120  0.4106 -0.1441
 1070SOL     ow 4277   4.541   5.886   2.971 -0.5485  0.1689  0.0275
 1070SOL     hw 4278   4.479   5.858   2.903  0.1816  0.0166 -0.5894
 1070SOL     hw 4279   4.489   5.890   3.051 -1.1653 -0.7843 -0.3118
 1070SOL     vw 4280   4.526   5.883   2.973 -0.5333  0.0229 -0.0986
 1071SOL     ow 4281   6.861   5.846   4.930 -0.8857 -0.1480 -0.2787
 1071SOL     hw 4282   6.909   5.917   4.973  0.5896 -1.1302 -0.2508
 1071SOL     hw 4283   6.780   5.888   4.900 -0.1516  1.5043 -0.0958
 1071SOL     vw 4284   6.857   5.861   4.932 -0.5941 -0.0598 -0.2508
 1072SOL     ow 4285   5.000   1.098   0.804  0.2376 -0.3666 -0.0215
 1072SOL     hw 4286   4.988   1.085   0.898  2.4526  0.1598  0.3864
 1072SOL     hw 4287   4.962   1.020   0.764 -1.1578 -0.3917  1.2477
 1072SOL     vw 4288   4.993   1.086   0.811  0.3459 -0.3005  0.1998
 1073SOL     ow 4289   2.854   4.097   1.995  0.0441 -0.2314 -0.0091
 1073SOL     hw 4290   2.870   4.181   1.950  0.0530 -0.8444 -1.1962
 1073SOL     hw 4291   2.802   4.047   1.932  1.2879 -1.6683  0.0717
 1073SOL     vw 4292   2.849   4.102   1.981  0.2093 -0.5019 -0.1550
 1074SOL     ow 4293   0.689   7.024   1.552  0.0882 -0.4006  0.2802
 1074SOL     hw 4294   0.628   7.084   1.508 -0.6943  0.3177  2.2329
 1074SOL     hw 4295   0.634   6.978   1.616  0.9203 -2.3821 -0.3398
 1074SOL     vw 4296   0.674   7.026   1.555  0.0947 -0.5674  0.4560
 1075SOL     ow 4297   5.750   0.826   6.780 -0.2230 -0.2607 -0.4038
 1075SOL     hw 4298   5.832   0.806   6.736  0.2962  1.0008 -0.0686
 1075SOL     hw 4299   5.689   0.848   6.709  0.1918  0.3329 -0.5840
 1075SOL     vw 4300   5.752   0.826   6.765 -0.0997 -0.0159 -0.3831
 1076SOL     ow 4301   0.424   4.825   7.001 -0.6899 -0.2075  0.2452
 1076SOL     hw 4302   0.410   4.851   6.910 -0.6580 -0.0152  0.2951
 1076SOL     hw 4303   0.485   4.891   7.035  0.3951 -1.0530  0.0082
 1076SOL     vw 4304   0.430   4.837   6.993 -0.5425 -0.2937  0.2203
 1077SOL     ow 4305   1.507   1.099   3.977  0.6561  0.4418  0.3633
 1077SOL     hw 4306   1.437   1.093   4.041  0.8846 -0.1801  0.5620
 1077SOL     hw 4307   1.495   1.184   3.936 -1.0954 -0.2297 -0.6327
 1077SOL     vw 4308   1.496   1.109   3.980  0.4551  0.2711  0.2582
 1078SOL     ow 4309   1.595   1.900   3.720 -0.0778  0.4149 -0.3265
 1078SOL     hw 4310   1.614   1.942   3.803  1.0929 -0.6118 -0.0505
 1078SOL     hw 4311   1.672   1.846   3.701 -1.5824 -1.8530 -0.4729
 1078SOL     vw 4312   1.607   1.898   3.728 -0.1219 -0.0198 -0.3093
 1079SOL     ow 4313   3.059   3.231   4.073 -0.0295 -0.3116  0.2238
 1079SOL     hw 4314   3.003   3.154   4.072 -0.8480  0.2301 -1.7341
 1079SOL     hw 4315   2.998   3.305   4.078  0.6096  0.2391  0.0537
 1079SOL     vw 4316   3.043   3.231   4.074 -0.0532 -0.1675 -0.0572
 1080SOL     ow 4317   2.347   2.401   3.052  0.4240 -0.2498 -0.1931
 1080SOL     hw 4318   2.354   2.475   3.111  0.3261 -0.6283  0.2973
 1080SOL     hw 4319   2.254   2.395   3.032  0.3144 -0.7566  0.4417
 1080SOL     vw 4320   2.336   2.410   3.057  0.3967 -0.3666 -0.0447
 1081SOL     ow 4321   2.484   5.818   5.766  0.4588  0.0474 -0.3675
 1081SOL     hw 4322   2.553   5.770   5.811 -0.4521 -0.1089  0.9263
 1081SOL     hw 4323   2.500   5.910   5.788  0.4555  0.0460 -0.3591
 1081SOL     vw 4324   2.495   5.824   5.775  0.3383  0.0265 -0.1955
 1082SOL     ow 4325   4.386   6.212   5.319  0.2429  0.7394  0.5045
 1082SOL     hw 4326   4.321   6.264   5.366  0.3753  1.1486  0.2352
 1082SOL     hw 4327   4.395   6.255   5.234  0.1326  0.1037  0.1655
 1082SOL     vw 4328   4.378   6.225   5.314  0.2456  0.7095  0.4244
 1083SOL     ow 4329   1.867   4.675   1.373  0.3354 -0.9795  0.3261
 1083SOL     hw 4330   1.773   4.665   1.388  0.5930  0.0872  3.1559
 1083SOL     hw 4331   1.908   4.610   1.430  1.3285 -0.0936  0.6674
 1083SOL     vw 4332   1.860   4.665   1.382  0.5004 -0.7219  0.7445
 1084SOL     ow 4333   1.389   6.956   3.128 -0.3047 -0.5607 -0.3858
 1084SOL     hw 4334   1.341   6.972   3.209 -0.2850  1.5364 -0.7186
 1084SOL     hw 4335   1.474   6.923   3.157 -0.7717 -1.1541  0.3603
 1084SOL     vw 4336   1.394   6.954   3.143 -0.3637 -0.3622 -0.3312
 1085SOL     ow 4337   2.062   1.644   1.202 -0.0406 -0.4589  0.1656
 1085SOL     hw 4338   2.128   1.639   1.133 -2.0249  1.1297 -2.0309
 1085SOL     hw 4339   2.061   1.737   1.226 -1.6427 -0.3947 -0.0701
 1085SOL     vw 4340   2.070   1.656   1.196 -0.5137 -0.2409 -0.1553
 1086SOL     ow 4341   6.804   4.971   0.247 -0.1179  0.0682 -0.2679
 1086SOL     hw 4342   6.820   4.877   0.237 -0.1356  0.0872 -0.4716
 1086SOL     hw 4343   6.773   4.980   0.337 -0.0012 -0.1058 -0.2092
 1086SOL     vw 4344   6.802   4.960   0.257 -0.1049  0.0477 -0.2870
 1087SOL     ow 4345   2.339   4.116   3.827 -0.0839  0.1710 -0.2289
 1087SOL     hw 4346   2.274   4.049   3.806 -0.8101  1.2018 -1.4125
 1087SOL     hw 4347   2.295   4.199   3.811  1.6216  0.9119 -1.3923
 1087SOL     vw 4348   2.325   4.118   3.822  0.0455  0.4044 -0.5385
 1088SOL     ow 4349   5.119   5.407   3.565 -0.1509 -0.6362  0.0603
 1088SOL     hw 4350   5.077   5.407   3.479 -1.1150  0.0523  0.5036
 1088SOL     hw 4351   5.170   5.488   3.566 -0.9323 -0.1321  0.4815
 1088SOL     vw 4352   5.120   5.418   3.554 -0.3810 -0.4787  0.1744
 1089SOL     ow 4353   3.609   2.354   1.957  0.4758 -0.2525  0.1622
 1089SOL     hw 4354   3.542   2.335   2.023  0.1681  1.1257  0.2784
 1089SOL     hw 4355   3.587   2.442   1.925  1.3108 -0.4192 -0.9358
 1089SOL     vw 4356   3.597   2.363   1.961  0.5451 -0.0926  0.0326
 1090SOL     ow 4357   6.340   0.706   2.279  0.2054  0.7637  0.0977
 1090SOL     hw 4358   6.252   0.743   2.281 -0.3834 -0.5666 -0.0817
 1090SOL     hw 4359   6.326   0.611   2.271  1.6388  0.4575  0.9320
 1090SOL     vw 4360   6.326   0.698   2.278  0.3166  0.5478  0.1841
 1091SOL     ow 4361   5.360   1.301   2.887  0.6718  0.3436  0.0556
 1091SOL     hw 4362   5.330   1.260   2.806  0.7102  0.9828 -0.2893
 1091SOL     hw 4363   5.453   1.319   2.871  0.6329  0.6410  0.1721
 1091SOL     vw 4364   5.368   1.298   2.874  0.6719  0.4672  0.0256
 1092SOL     ow 4365   5.035   2.663   6.252 -0.5671  0.2666 -0.0047
 1092SOL     hw 4366   5.113   2.705   6.288  1.1280  0.0968 -3.0541
 1092SOL     hw 4367   5.018   2.711   6.171 -1.0625 -2.2734 -1.5181
 1092SOL     vw 4368   5.043   2.675   6.246 -0.4089 -0.0910 -0.6068
 1093SOL     ow 4369   6.954   0.331   0.699  0.3920 -0.4463 -0.4192
 1093SOL     hw 4370   6.955   0.239   0.672  2.5723 -0.9582  1.1228
 1093SOL     hw 4371   7.045   0.359   0.689 -0.2929  1.6833 -1.1811
 1093SOL     vw 4372   6.966   0.322   0.694  0.5894 -0.2328 -0.3163
 1094SOL     ow 4373   7.003   6.230   6.398 -0.3361  0.0826 -0.0199
 1094SOL     hw 4374   7.054   6.149   6.394 -0.0392  0.2933 -0.5184
 1094SOL     hw 4375   6.939   6.221   6.326  1.5715  1.5455 -2.0322
 1094SOL     vw 4376   7.001   6.218   6.388 -0.0451  0.3035 -0.3512
 1095SOL     ow 4377   1.790   5.505   5.035 -0.3954  0.4801 -0.2196
 1095SOL     hw 4378   1.773   5.513   4.941 -0.7646 -0.6513 -0.2648
 1095SOL     hw 4379   1.759   5.587   5.072  3.5054  2.8387 -1.5358
 1095SOL     vw 4380   1.784   5.517   5.027  0.0706  0.6423 -0.3991
 1096SOL     ow 4381   2.573   4.018   2.161 -0.3003  0.3426 -0.5131
 1096SOL     hw 4382   2.661   4.046   2.186  0.0556 -1.0280 -0.1822
 1096SOL     hw 4383   2.579   4.003   2.067 -0.3199  0.7142 -0.5765
 1096SOL     vw 4384   2.585   4.020   2.152 -0.2558  0.2108 -0.4780
 1097SOL     ow 4385   6.141   0.397   0.259 -0.1079  0.6209  0.1816
 1097SOL     hw 4386   6.108   0.423   0.345 -0.6008 -1.4706  0.7006
 1097SOL     hw 4387   6.236   0.389   0.271 -0.0716  1.1915  0.2849
 1097SOL     vw 4388   6.149   0.399   0.272 -0.1681  0.4202  0.2637
 1098SOL     ow 4389   2.896   1.446   0.387 -0.1908 -0.3144 -0.1671
 1098SOL     hw 4390   2.879   1.379   0.453  0.9776  0.4377  0.9504
 1098SOL     hw 4391   2.831   1.514   0.405  1.3700  0.8164  1.6051
 1098SOL     vw 4392   2.885   1.446   0.398  0.1693 -0.0660  0.2142
 1099SOL     ow 4393   0.496   4.432   6.135  0.3291 -0.0260 -0.4878
 1099SOL     hw 4394   0.486   4.422   6.230 -1.8612 -0.8004 -0.7294
 1099SOL     hw 4395   0.484   4.526   6.120 -0.4454 -0.0464 -0.0774
 1099SOL     vw 4396   0.493   4.443   6.146 -0.0620 -0.1307 -0.4656
 1100SOL     ow 4397   3.431   2.800   1.288 -0.5851  0.3820  0.0512
 1100SOL     hw 4398   3.433   2.851   1.369  2.2273  0.2669  0.1549
 1100SOL     hw 4399   3.483   2.723   1.307 -0.1781  0.1709 -1.7516
 1100SOL     vw 4400   3.438   2.797   1.302 -0.1605  0.3389 -0.1730
 1101SOL     ow 4401   4.228   4.110   0.279 -0.0363  0.5064 -0.0743
 1101SOL     hw 4402   4.139   4.136   0.303  0.9150  3.0259  0.9938
 1101SOL     hw 4403   4.235   4.131   0.186 -0.8245 -0.6286 -0.4113
 1101SOL     vw 4404   4.217   4.116   0.270 -0.0145  0.6890  0.0222
 1102SOL     ow 4405   2.362   1.471   2.924 -0.2083  0.9985 -0.3863
 1102SOL     hw 4406   2.375   1.481   2.830  0.1321  1.7672 -0.2584
 1102SOL     hw 4407   2.424   1.530   2.965  1.0498 -0.7587  0.3917
 1102SOL     vw 4408   2.372   1.480   2.917  0.0026  0.8681 -0.2668
 1103SOL     ow 4409   6.414   2.382   5.009  0.4922 -0.0921  0.3877
 1103SOL     hw 4410   6.457   2.327   5.075 -1.3596  0.2625  1.9876
 1103SOL     hw 4411   6.432   2.471   5.038  1.5125  0.1382 -0.8794
 1103SOL     vw 4412   6.422   2.386   5.021  0.3824 -0.0150  0.4318
 1104SOL     ow 4413   1.009   1.937   5.327 -0.2514 -0.2266  0.0911
 1104SOL     hw 4414   1.064   2.010   5.357  0.6231 -1.4720  1.6411
 1104SOL     hw 4415   0.942   1.928   5.395 -1.0270 -0.2097 -0.6448
 1104SOL     vw 4416   1.007   1.946   5.340 -0.2384 -0.3888  0.1984
 1105SOL     ow 4417   1.732   5.494   4.065 -0.2519  0.1272 -0.0791
 1105SOL     hw 4418   1.763   5.530   4.148  0.8714  0.9985 -0.8632
 1105SOL     hw 4419   1.805   5.504   4.004 -0.9048 -0.8880 -1.0830
 1105SOL     vw 4420   1.745   5.500   4.068 -0.1898  0.1082 -0.3152
 1106SOL     ow 4421   6.628   3.960   5.962  0.2449 -0.5478  0.3360
 1106SOL     hw 4422   6.642   3.986   5.871 -0.2782 -2.4346 -0.3396
 1106SOL     hw 4423   6.626   4.042   6.011 -0.1538  0.5572 -1.4564
 1106SOL     vw 4424   6.629   3.974   5.956  0.1233 -0.6510  0.0105
 1107SOL     ow 4425   3.938   2.761   2.058 -0.2195 -0.1142  0.2576
 1107SOL     hw 4426   4.001   2.696   2.025 -0.8895 -0.3663 -0.5730
 1107SOL     hw 4427   3.988   2.813   2.121  0.7126 -0.5500 -0.0954
 1107SOL     vw 4428   3.953   2.759   2.062 -0.1850 -0.2049  0.1012
 1108SOL     ow 4429   2.136   5.692   6.545  0.0891 -0.4688 -1.1083
 1108SOL     hw 4430   2.203   5.645   6.496 -1.0554 -3.0574 -0.4097
 1108SOL     hw 4431   2.062   5.699   6.484 -0.5992 -1.8518 -0.4941
 1108SOL     vw 4432   2.135   5.687   6.531 -0.1527 -0.9928 -0.9348
 1109SOL     ow 4433   5.597   6.362   5.073 -0.2449  0.8313 -0.4081
 1109SOL     hw 4434   5.560   6.331   5.156  0.5410  2.0128  0.4317
 1109SOL     hw 4435   5.575   6.294   5.010 -0.4885 -0.3285  0.8607
 1109SOL     vw 4436   5.589   6.349   5.076 -0.1733  0.8345 -0.1299
 1110SOL     ow 4437   0.670   2.264   3.519 -0.4516  0.0627  0.6524
 1110SOL     hw 4438   0.676   2.202   3.446  1.2525  0.6033  0.2844
 1110SOL     hw 4439   0.678   2.210   3.598 -1.9382 -0.4805  0.4709
 1110SOL     vw 4440   0.672   2.249   3.520 -0.4229  0.0625  0.5798
 1111SOL     ow 4441   5.581   1.654   4.022  0.1868 -0.0930  0.4238
 1111SOL     hw 4442   5.490   1.676   4.004 -0.0250 -1.8461 -0.8240
 1111SOL     hw 4443   5.624   1.654   3.936  0.7131 -1.9471  0.6356
 1111SOL     vw 4444   5.575   1.657   4.008  0.2284 -0.5690  0.2871
 1112SOL     ow 4445   6.066   4.105   0.348 -0.2338  0.2171  0.4594
 1112SOL     hw 4446   6.066   4.015   0.382 -1.5860 -0.0445 -0.1425
 1112SOL     hw 4447   6.014   4.100   0.267 -0.9413  1.6571  0.7817
 1112SOL     vw 4448   6.059   4.093   0.342 -0.5054  0.3726  0.4225
 1113SOL     ow 4449   2.099   1.556   0.478 -0.1417  0.0585  0.2388
 1113SOL     hw 4450   2.146   1.555   0.395  0.2477 -0.3763  0.4557
 1113SOL     hw 4451   2.093   1.464   0.503 -1.2341  0.0991  0.1531
 1113SOL     vw 4452   2.104   1.544   0.470 -0.2344  0.0065  0.2561
 1114SOL     ow 4453   5.696   1.266   1.665  0.3744  0.2740  0.1656
 1114SOL     hw 4454   5.774   1.277   1.610  0.3045  1.7103  0.3209
 1114SOL     hw 4455   5.638   1.336   1.638 -0.7181 -0.5436  0.3375
 1114SOL     vw 4456   5.699   1.277   1.654  0.2213  0.3557  0.2087
 1115SOL     ow 4457   2.121   5.946   0.643 -0.1414 -0.0511 -0.4551
 1115SOL     hw 4458   2.079   5.862   0.663 -0.1042 -0.1400 -0.7425
 1115SOL     hw 4459   2.214   5.929   0.652 -0.1748  0.1996  0.3819
 1115SOL     vw 4460   2.128   5.933   0.647 -0.1409 -0.0296 -0.3826
 1116SOL     ow 4461   1.470   1.666   4.531 -0.1916 -0.0252  0.1961
 1116SOL     hw 4462   1.437   1.754   4.511 -0.8176 -0.4166 -0.5297
 1116SOL     hw 4463   1.548   1.656   4.477 -0.3445 -0.0600 -0.0193
 1116SOL     vw 4464   1.476   1.676   4.521 -0.2944 -0.0814  0.0718
 1117SOL     ow 4465   0.980   4.724   0.620 -0.0985 -0.2296 -0.1338
 1117SOL     hw 4466   0.900   4.716   0.672 -1.3108  1.9953 -1.4536
 1117SOL     hw 4467   1.032   4.790   0.665  0.7355 -1.1805  0.3484
 1117SOL     vw 4468   0.976   4.732   0.632 -0.1484 -0.0615 -0.2443
 1118SOL     ow 4469   1.787   4.466   6.967  0.8812 -0.6068  0.7761
 1118SOL     hw 4470   1.852   4.498   7.028 -0.1110  1.4813  0.8325
 1118SOL     hw 4471   1.708   4.516   6.987  0.4082 -0.0772 -1.9445
 1118SOL     vw 4472   1.785   4.477   6.977  0.6879 -0.2615  0.4249
 1119SOL     ow 4473   1.536   0.050   2.929 -0.7062  0.5606 -0.3746
 1119SOL     hw 4474   1.581   0.111   2.987 -0.0028 -0.9161  0.6923
 1119SOL     hw 4475   1.565   0.074   2.841  1.1631  0.4829  0.1869
 1119SOL     vw 4476   1.546   0.061   2.925 -0.3667  0.3555 -0.1599
 1120SOL     ow 4477   0.566   3.102   0.698 -0.2434 -0.5202 -0.0835
 1120SOL     hw 4478   0.596   3.090   0.788 -1.3116 -0.9865  0.2295
 1120SOL     hw 4479   0.494   3.166   0.705  0.4177  0.3205 -0.7609
 1120SOL     vw 4480   0.560   3.109   0.711 -0.2971 -0.4709 -0.1316
 1121SOL     ow 4481   4.068   4.757   5.545 -0.3303 -0.0309  0.5055
 1121SOL     hw 4482   4.002   4.753   5.614 -1.2055  0.5737 -0.2684
 1121SOL     hw 4483   4.018   4.772   5.465  0.4666 -2.4846 -0.5626
 1121SOL     vw 4484   4.053   4.758   5.543 -0.3409 -0.2747  0.2625
 1122SOL     ow 4485   4.047   1.646   0.618  0.1626 -0.0883  0.1645
 1122SOL     hw 4486   3.971   1.630   0.673  0.2327 -1.2415 -0.0393
 1122SOL     hw 4487   4.012   1.651   0.529  0.1791  0.6559  0.1989
 1122SOL     vw 4488   4.033   1.644   0.614  0.1740 -0.1422  0.1422
 1123SOL     ow 4489   2.833   1.226   0.562 -0.2659 -0.1432  0.0391
 1123SOL     hw 4490   2.741   1.241   0.542  0.0205  0.6403 -0.7844
 1123SOL     hw 4491   2.833   1.150   0.619 -1.3778 -0.5296 -0.4426
 1123SOL     vw 4492   2.821   1.218   0.567 -0.3748 -0.0908 -0.1331
 1124SOL     ow 4493   0.045   1.707   5.641  0.5455  0.6836  0.2855
 1124SOL     hw 4494   0.125   1.659   5.620 -1.0323 -1.7087 -0.5867
 1124SOL     hw 4495   0.002   1.655   5.709 -0.8755  1.2624 -0.1243
 1124SOL     vw 4496   0.050   1.694   5.648  0.1498  0.4444  0.1161
 1125SOL     ow 4497   5.909   2.243   0.532  0.5201  0.2503 -0.3284
 1125SOL     hw 4498   5.932   2.246   0.625  2.6263 -1.5020 -0.6998
 1125SOL     hw 4499   5.903   2.149   0.512  1.6817  0.5420 -2.2833
 1125SOL     vw 4500   5.911   2.231   0.541  0.9515  0.0576 -0.6354
 1126SOL     ow 4501   6.184   0.421   2.843  0.2077 -0.3918  0.0903
 1126SOL     hw 4502   6.239   0.344   2.829  0.6603 -0.2651  1.0976
 1126SOL     hw 4503   6.192   0.471   2.761  0.5300 -1.0224 -0.2727
 1126SOL     vw 4504   6.192   0.417   2.830  0.3102 -0.4583  0.1752
 1127SOL     ow 4505   6.976   3.827   4.789 -0.2622  0.0274  0.6526
 1127SOL     hw 4506   6.981   3.909   4.839  1.3023 -0.0841  0.7311
 1127SOL     hw 4507   6.903   3.780   4.827  1.0306 -0.1786  3.0978
 1127SOL     vw 4508   6.967   3.832   4.801  0.1149 -0.0144  0.9856
 1128SOL     ow 4509   2.243   3.823   2.412 -0.6242 -0.1054 -0.1947
 1128SOL     hw 4510   2.282   3.737   2.396 -0.0817  0.1628 -0.3128
 1128SOL     hw 4511   2.179   3.834   2.342 -1.7874 -1.0525  0.6573
 1128SOL     vw 4512   2.240   3.813   2.401 -0.7060 -0.1950 -0.0979
 1129SOL     ow 4513   5.865   4.597   3.676  0.2299  0.0673  0.2729
 1129SOL     hw 4514   5.909   4.586   3.761 -1.4585 -0.0039  1.1799
 1129SOL     hw 4515   5.896   4.524   3.623  0.7800 -0.2839  1.0567
 1129SOL     vw 4516   5.875   4.586   3.680  0.0796  0.0117  0.4960
 1130SOL     ow 4517   4.058   3.410   2.896  0.2144  0.4996  0.4007
 1130SOL     hw 4518   3.992   3.364   2.844 -0.5916  2.9073 -0.8497
 1130SOL     hw 4519   4.116   3.450   2.831  1.3156  0.6886  1.4541
 1130SOL     vw 4520   4.057   3.409   2.880  0.2532  0.8423  0.3747
 1131SOL     ow 4521   6.410   0.183   1.204  0.2741 -0.0368  0.6068
 1131SOL     hw 4522   6.348   0.140   1.145  1.0799 -0.9739  0.4205
 1131SOL     hw 4523   6.402   0.136   1.287 -0.1990  0.6917  0.9872
 1131SOL     vw 4524   6.401   0.171   1.207  0.3181 -0.0643  0.6325
 1132SOL     ow 4525   6.654   4.636   1.121 -0.7081 -0.7899  0.3682
 1132SOL     hw 4526   6.663   4.565   1.057  1.8317 -1.1113  0.9717
 1132SOL     hw 4527   6.744   4.655   1.148 -1.5552  0.7611  2.3001
 1132SOL     vw 4528   6.667   4.629   1.116 -0.4847 -0.6278  0.7026
 1133SOL     ow 4529   5.410   0.012   3.496 -0.1529  0.5093  0.6649
 1133SOL     hw 4530   5.377  -0.066   3.542  0.4057  0.3642  0.8317
 1133SOL     hw 4531   5.505   0.011   3.513  0.5028 -0.8759 -2.4495
 1133SOL     vw 4532   5.418   0.001   3.505  0.0074  0.3076  0.2761
 1134SOL     ow 4533   3.574   2.366   3.742 -0.0003 -0.4004  0.0439
 1134SOL     hw 4534   3.557   2.272   3.734  0.8791 -0.5292 -0.3826
 1134SOL     hw 4535   3.587   2.379   3.836  3.5398 -1.4224 -0.1301
 1134SOL     vw 4536   3.574   2.355   3.754  0.5828 -0.5523 -0.0353
 1135SOL     ow 4537   2.589   3.614   5.521  0.3699  0.1299  0.5143
 1135SOL     hw 4538   2.525   3.631   5.590 -0.6437  2.9716 -0.9680
 1135SOL     hw 4539   2.629   3.700   5.504 -0.2287 -0.1720 -3.1133
 1135SOL     vw 4540   2.586   3.628   5.528  0.1571  0.4649 -0.1600
 1136SOL     ow 4541   4.515   4.613   6.984 -0.5571  0.8068  0.4505
 1136SOL     hw 4542   4.464   4.542   6.945 -0.3085  0.9408 -0.1238
 1136SOL     hw 4543   4.521   4.590   7.077  1.0117 -0.8488 -0.0080
 1136SOL     vw 4544   4.509   4.600   6.991 -0.3171  0.6061  0.3142
 1137SOL     ow 4545   3.984   1.307   1.601  0.0832 -0.0788  0.4497
 1137SOL     hw 4546   3.999   1.401   1.612 -0.9371  0.3710 -1.4331
 1137SOL     hw 4547   3.902   1.290   1.648  0.2015  0.0114  0.6865
 1137SOL     vw 4548   3.975   1.317   1.608 -0.0359 -0.0076  0.2325
 1138SOL     ow 4549   5.965   1.949   6.952 -0.0464 -0.2328  0.4895
 1138SOL     hw 4550   6.001   1.865   6.923  1.2413  0.2600  0.5940
 1138SOL     hw 4551   5.882   1.957   6.906  1.3763 -0.0032 -2.2453
 1138SOL     vw 4552   5.959   1.939   6.942  0.3114 -0.1374  0.1426
 1139SOL     ow 4553   5.779   5.010   5.915 -0.3531 -0.5920 -0.1796
 1139SOL     hw 4554   5.827   5.031   5.835 -0.5436 -1.1288 -0.4388
 1139SOL     hw 4555   5.781   4.914   5.919  0.2146 -0.5522  0.8034
 1139SOL     vw 4556   5.786   5.000   5.905 -0.3033 -0.6576 -0.0842
 1140SOL     ow 4557   3.901   2.166   2.689  0.4241  0.2337 -0.4004
 1140SOL     hw 4558   3.989   2.204   2.694  0.9124 -0.9705  0.9385
 1140SOL     hw 4559   3.909   2.096   2.624  0.3649  0.3548 -0.5378
 1140SOL     vw 4560   3.914   2.161   2.681  0.4808  0.0908 -0.2419
 1141SOL     ow 4561   5.621   0.030   1.347 -0.5658  0.6569 -0.3481
 1141SOL     hw 4562   5.596   0.064   1.261 -1.0478 -0.4978 -0.6878
 1141SOL     hw 4563   5.540   0.033   1.398 -1.3085 -2.2945 -1.1824
 1141SOL     vw 4564   5.607   0.035   1.343 -0.7274  0.1149 -0.5030
 1142SOL     ow 4565   5.306   2.360   4.223 -0.6479 -0.2749  0.1215
 1142SOL     hw 4566   5.332   2.297   4.291  0.1216 -1.0286 -0.8322
 1142SOL     hw 4567   5.223   2.326   4.189 -0.8566 -0.0898  0.4459
 1142SOL     vw 4568   5.298   2.347   4.227 -0.5736 -0.3499  0.0384
 1143SOL     ow 4569   0.217   6.155   4.445 -0.4962  1.3645  0.6789
 1143SOL     hw 4570   0.185   6.157   4.355 -0.8963  1.4596  0.8184
 1143SOL     hw 4571   0.151   6.205   4.495  0.1522  2.0284  0.8877
 1143SOL     vw 4572   0.204   6.162   4.440 -0.4634  1.4646  0.7248
 1144SOL     ow 4573   1.298   6.252   1.017 -0.3943 -0.5533 -0.3740
 1144SOL     hw 4574   1.390   6.239   0.995 -0.3549  0.7480 -1.0730
 1144SOL     hw 4575   1.285   6.200   1.096  0.9413 -0.7556 -0.2641
 1144SOL     vw 4576   1.309   6.244   1.025 -0.2128 -0.4082 -0.4517
 1145SOL     ow 4577   2.805   6.820   1.183 -0.0367  0.0834  0.1556
 1145SOL     hw 4578   2.821   6.848   1.274  0.3180 -2.7533  1.0535
 1145SOL     hw 4579   2.735   6.756   1.190 -1.5617  1.3948 -1.9345
 1145SOL     vw 4580   2.798   6.815   1.196 -0.1912 -0.1178 -0.0017
 1146SOL     ow 4581   2.336   3.676   4.591 -0.6566  0.1119  1.0913
 1146SOL     hw 4582   2.244   3.664   4.571 -1.4371  2.9000  2.5496
 1146SOL     hw 4583   2.380   3.604   4.545 -3.4319 -0.8753 -0.2358
 1146SOL     vw 4584   2.330   3.665   4.582 -1.1257  0.3495  1.1086
 1147SOL     ow 4585   1.258   5.817   4.148 -0.5859  0.6475  0.7124
 1147SOL     hw 4586   1.347   5.815   4.113  0.2645  0.6761  2.7433
 1147SOL     hw 4587   1.230   5.908   4.136  0.6277  1.2805  2.1826
 1147SOL     vw 4588   1.266   5.829   4.142 -0.3136  0.7348  1.1742
 1148SOL     ow 4589   3.014   3.304   2.706  0.0512  0.0939  0.1207
 1148SOL     hw 4590   2.956   3.253   2.650 -0.4628 -0.7726  1.3970
 1148SOL     hw 4591   2.981   3.393   2.701 -0.9011 -0.2504  0.2327
 1148SOL     vw 4592   3.002   3.309   2.698 -0.1422 -0.0659  0.3039
 1149SOL     ow 4593   5.549   0.974   1.144 -0.1691 -0.2619  0.0011
 1149SOL     hw 4594   5.621   0.912   1.152 -0.7015 -1.0195 -0.8704
 1149SOL     hw 4595   5.532   0.981   1.050 -1.4555 -0.3712  0.1987
 1149SOL     vw 4596   5.556   0.967   1.133 -0.4091 -0.3763 -0.0879
 1150SOL     ow 4597   5.533   2.220   1.978  0.3282  0.3898 -0.2542
 1150SOL     hw 4598   5.529   2.124   1.972 -2.1828  0.4445 -0.6465
 1150SOL     hw 4599   5.506   2.239   2.068 -2.3981  0.7360 -1.0437
 1150SOL     vw 4600   5.529   2.209   1.989 -0.3626  0.4427 -0.4101
 1151SOL     ow 4601   3.625   1.978   4.056  0.2575  0.1769  0.0989
 1151SOL     hw 4602   3.555   1.999   4.118  0.0592 -2.1680  0.7545
 1151SOL     hw 4603   3.604   2.031   3.979 -1.3506  0.7112  0.8468
 1151SOL     vw 4604   3.613   1.988   4.054  0.0192 -0.0619  0.2842
 1152SOL     ow 4605   6.470   0.973   6.021  0.1401  0.0400 -0.6311
 1152SOL     hw 4606   6.441   0.886   5.994 -2.0790  0.2650  0.7749
 1152SOL     hw 4607   6.465   1.026   5.941 -2.0930 -0.2897 -0.7692
 1152SOL     vw 4608   6.465   0.969   6.007 -0.4473  0.0262 -0.4637
 1153SOL     ow 4609   5.139   5.848   3.675  0.7669 -0.1951 -0.5341
 1153SOL     hw 4610   5.110   5.838   3.584  0.3585  0.2329 -0.4533
 1153SOL     hw 4611   5.063   5.884   3.721  1.2379  0.4070 -0.2026
 1153SOL     vw 4612   5.125   5.852   3.669  0.7751 -0.0594 -0.4796
 1154SOL     ow 4613   1.296   1.050   4.136 -0.0376  0.4607 -0.1273
 1154SOL     hw 4614   1.310   1.089   4.222 -0.5995 -0.3093  0.3246
 1154SOL     hw 4615   1.241   1.114   4.090  0.4849  0.9979 -0.0233
 1154SOL     vw 4616   1.290   1.064   4.141 -0.0428  0.4300 -0.0541
 1155SOL     ow 4617   4.843   1.965   3.951  0.2491  0.3110  0.1374
 1155SOL     hw 4618   4.872   1.878   3.976  0.7290  0.7134  1.0196
 1155SOL     hw 4619   4.753   1.971   3.983 -0.0349 -0.1088 -0.5609
 1155SOL     vw 4620   4.835   1.955   3.958  0.2749  0.3088  0.1618
 1156SOL     ow 4621   4.367   5.847   5.828 -0.4701 -0.4929 -0.4274
 1156SOL     hw 4622   4.436   5.810   5.883 -0.3791  0.6816  0.2962
 1156SOL     hw 4623   4.406   5.927   5.791 -1.6384  0.5972  0.5745
 1156SOL     vw 4624   4.381   5.853   5.831 -0.6125 -0.1941 -0.1996
 1157SOL     ow 4625   6.881   6.378   5.568 -0.3547 -0.3703  0.8455
 1157SOL     hw 4626   6.844   6.304   5.616  0.1273 -0.9754  0.2974
 1157SOL     hw 4627   6.841   6.373   5.481 -0.3820  0.0629  0.8304
 1157SOL     vw 4628   6.871   6.368   5.563 -0.2949 -0.3929  0.7713
 1158SOL     ow 4629   3.592   4.331   2.949 -0.1253 -1.1017  0.6480
 1158SOL     hw 4630   3.602   4.239   2.926  1.4742 -1.2210  1.6961
 1158SOL     hw 4631   3.641   4.379   2.882 -0.5993 -1.0362  0.3455
 1158SOL     vw 4632   3.600   4.325   2.937  0.0231 -1.1089  0.7464
 1159SOL     ow 4633   0.882   6.246   5.896 -0.1677 -0.3080 -0.1490
 1159SOL     hw 4634   0.962   6.196   5.913 -0.3056 -0.2428  0.7097
 1159SOL     hw 4635   0.911   6.337   5.895  0.0222 -0.3580 -1.3703
 1159SOL     vw 4636   0.897   6.251   5.898 -0.1608 -0.3061 -0.1969
 1160SOL     ow 4637   1.489   0.155   2.673 -0.0595 -0.2428 -0.7688
 1160SOL     hw 4638   1.442   0.080   2.637  0.4169  0.0423 -2.0258
 1160SOL     hw 4639   1.421   0.211   2.710 -0.3817 -1.4961  0.6331
 1160SOL     vw 4640   1.474   0.152   2.673 -0.0392 -0.3705 -0.7498
 1161SOL     ow 4641   3.454   6.063   1.687  0.4327  0.0865 -0.0350
 1161SOL     hw 4642   3.434   5.986   1.741 -3.1567 -0.7069 -2.1774
 1161SOL     hw 4643   3.398   6.132   1.723  0.1149  0.3266 -0.9640
 1161SOL     vw 4644   3.444   6.062   1.699 -0.0827  0.0136 -0.4402
 1162SOL     ow 4645   1.222   4.533   5.000 -0.0941  0.7652 -0.1744
 1162SOL     hw 4646   1.242   4.440   5.009 -0.5859  0.5455 -1.2115
 1162SOL     hw 4647   1.141   4.535   4.949  0.3007  1.7805 -0.7924
 1162SOL     vw 4648   1.214   4.521   4.995 -0.1069  0.8700 -0.3929
 1163SOL     ow 4649   1.095   4.970   2.452  0.2385  0.4013  0.1190
 1163SOL     hw 4650   1.056   5.031   2.389  0.8667  1.6332  0.8760
 1163SOL     hw 4651   1.068   4.884   2.422  1.0161  0.8910 -2.1941
 1163SOL     vw 4652   1.087   4.967   2.440  0.4240  0.6285 -0.0862
 1164SOL     ow 4653   6.637   0.615   2.326  0.1449 -0.4415 -0.1444
 1164SOL     hw 4654   6.665   0.580   2.242 -0.0623 -1.5999  0.2426
 1164SOL     hw 4655   6.715   0.610   2.381  0.1140 -0.3044 -0.0886
 1164SOL     vw 4656   6.651   0.609   2.322  0.1135 -0.5763 -0.0859
 1165SOL     ow 4657   6.788   3.385   2.537  0.6386 -0.5769 -0.1349
 1165SOL     hw 4658   6.761   3.474   2.562  0.7165 -0.6284  0.1363
 1165SOL     hw 4659   6.712   3.348   2.493  0.6335 -0.3456 -0.3197
 1165SOL     vw 4660   6.775   3.392   2.535  0.6483 -0.5531 -0.1236
 1166SOL     ow 4661   1.795   7.044   1.092 -0.8208  0.3644 -0.1644
 1166SOL     hw 4662   1.723   7.107   1.101 -0.3273  0.8082  0.6869
 1166SOL     hw 4663   1.874   7.094   1.114 -0.5793 -0.9464  2.2423
 1166SOL     vw 4664   1.796   7.059   1.096 -0.7239  0.2499  0.2655
 1167SOL     ow 4665   4.530   5.048   6.673  0.0016  0.2061 -0.5112
 1167SOL     hw 4666   4.619   5.057   6.638 -0.1615 -1.7702 -1.5457
 1167SOL     hw 4667   4.473   5.079   6.603 -0.1753  0.9002 -0.0734
 1167SOL     vw 4668   4.534   5.053   6.659 -0.0434  0.0367 -0.5898
 1168SOL     ow 4669   4.164   2.769   3.089  0.0579  0.1796  0.3495
 1168SOL     hw 4670   4.069   2.772   3.104  0.2138 -0.2571  1.5104
 1168SOL     hw 4671   4.173   2.777   2.994 -1.1769 -0.4934  0.1548
 1168SOL     vw 4672   4.152   2.771   3.079 -0.0844  0.0331  0.4771
 1169SOL     ow 4673   2.343   5.574   6.431  0.3169  0.3632  0.2941
 1169SOL     hw 4674   2.339   5.601   6.339  0.6574 -0.9047 -0.1017
 1169SOL     hw 4675   2.320   5.482   6.431 -0.9067  0.6339  1.6459
 1169SOL     vw 4676   2.340   5.566   6.419  0.2003  0.2315  0.4203
 1170SOL     ow 4677   3.966   2.181   5.222 -0.0731  0.1133 -0.1998
 1170SOL     hw 4678   3.899   2.160   5.157 -0.1146 -0.1686 -0.0665
 1170SOL     hw 4679   3.920   2.234   5.287 -0.4195 -0.9382  0.4238
 1170SOL     vw 4680   3.951   2.185   5.222 -0.1242 -0.0626 -0.0999
 1171SOL     ow 4681   3.867   6.760   3.811 -0.9969 -0.5409 -0.7267
 1171SOL     hw 4682   3.802   6.801   3.754 -0.1092  1.4355 -0.3956
 1171SOL     hw 4683   3.944   6.816   3.805  0.2000 -2.0276  0.0098
 1171SOL     vw 4684   3.868   6.773   3.803 -0.7218 -0.4764 -0.5859
 1172SOL     ow 4685   0.925   3.571   6.444 -0.3005 -1.1821 -0.2231
 1172SOL     hw 4686   0.883   3.534   6.522 -0.5865 -1.4442 -0.5033
 1172SOL     hw 4687   0.854   3.589   6.383 -0.3367  1.0282  0.3677
 1172SOL     vw 4688   0.910   3.568   6.446 -0.3429 -0.9252 -0.1819
 1173SOL     ow 4689   6.943   3.640   0.759 -0.2569 -0.3775 -0.1372
 1173SOL     hw 4690   7.005   3.597   0.818  0.7520  1.1347 -0.0301
 1173SOL     hw 4691   6.990   3.647   0.676 -0.4267  0.4145 -0.1735
 1173SOL     vw 4692   6.957   3.635   0.756 -0.1462 -0.0734 -0.1278
 1174SOL     ow 4693   5.810   4.343   4.970 -0.0879  0.0972 -0.1208
 1174SOL     hw 4694   5.890   4.382   4.932 -0.1604 -0.2765 -0.6720
 1174SOL     hw 4695   5.739   4.393   4.930 -0.2172 -1.1293 -1.4914
 1174SOL     vw 4696   5.811   4.355   4.959 -0.1144 -0.1140 -0.3743
 1175SOL     ow 4697   5.380   2.666   4.122  0.0547 -0.2096  0.0614
 1175SOL     hw 4698   5.453   2.684   4.063 -0.2870 -0.4067 -0.4283
 1175SOL     hw 4699   5.325   2.744   4.115 -0.3430 -0.5236 -0.4303
 1175SOL     vw 4700   5.382   2.679   4.113 -0.0429 -0.2769 -0.0682
 1176SOL     ow 4701   3.019   5.810   2.027  0.2065  0.1553  0.1367
 1176SOL     hw 4702   2.945   5.763   1.989 -0.9121  1.1221  1.0395
 1176SOL     hw 4703   3.061   5.746   2.085 -0.5304 -0.1199  0.3776
 1176SOL     vw 4704   3.015   5.796   2.030 -0.0383  0.2465  0.2875
 1177SOL     ow 4705   2.580   5.376   0.065 -0.2150 -0.2699 -0.4618
 1177SOL     hw 4706   2.528   5.420  -0.002 -0.8673 -0.7914 -0.3083
 1177SOL     hw 4707   2.565   5.283   0.050  1.0857 -0.4599 -0.7348
 1177SOL     vw 4708   2.571   5.370   0.054 -0.1296 -0.3636 -0.4776
 1178SOL     ow 4709   4.046   5.136   0.357  0.1127  0.2934  0.6207
 1178SOL     hw 4710   4.116   5.135   0.422 -0.9767  0.4927  1.8369
 1178SOL     hw 4711   3.975   5.085   0.397 -1.0464  1.4664  0.1279
 1178SOL     vw 4712   4.046   5.129   0.371 -0.1841  0.4742  0.7161
 1179SOL     ow 4713   0.489   4.567   6.868 -0.6803  0.3143 -0.1932
 1179SOL     hw 4714   0.406   4.532   6.834 -0.2128  0.6218 -1.7533
 1179SOL     hw 4715   0.532   4.604   6.791  0.7987  0.4066  0.6476
 1179SOL     vw 4716   0.484   4.567   6.853 -0.4235  0.3669 -0.2880
 1180SOL     ow 4717   4.682   2.703   6.121  0.3694 -0.0783  0.1542
 1180SOL     hw 4718   4.654   2.709   6.030 -2.8206  1.8964  1.1350
 1180SOL     hw 4719   4.738   2.780   6.134 -0.4802  0.5274  0.2550
 1180SOL     vw 4720   4.686   2.714   6.111 -0.1638  0.2620  0.2971
 1181SOL     ow 4721   5.875   4.241   3.997  1.1814 -0.5334 -0.0146
 1181SOL     hw 4722   5.869   4.262   4.090 -3.1596  1.1772 -0.4234
 1181SOL     hw 4723   5.918   4.317   3.958  0.4614  0.0576  0.3270
 1181SOL     vw 4724   5.880   4.254   4.004  0.5140 -0.2296 -0.0234
 1182SOL     ow 4725   1.277   3.629   1.134 -0.1530 -0.6761  0.6043
 1182SOL     hw 4726   1.292   3.563   1.065 -0.1424  1.4903 -1.6200
 1182SOL     hw 4727   1.185   3.618   1.158 -0.0132 -1.8271  0.6804
 1182SOL     vw 4728   1.267   3.619   1.128 -0.1331 -0.5422  0.3209
 1183SOL     ow 4729   0.161   5.555   1.900 -0.2164  0.1434 -0.1908
 1183SOL     hw 4730   0.094   5.623   1.895  0.9850  1.3884  0.1984
 1183SOL     hw 4731   0.127   5.484   1.845 -0.3285  2.0611 -2.7222
 1183SOL     vw 4732   0.148   5.555   1.892 -0.0727  0.5610 -0.4734
 1184SOL     ow 4733   0.380   4.963   2.665 -0.1112 -0.0685 -0.3244
 1184SOL     hw 4734   0.329   4.978   2.744  0.1958  0.9186 -0.3136
 1184SOL     hw 4735   0.345   4.880   2.630 -0.5888 -0.2481  0.5594
 1184SOL     vw 4736   0.369   4.954   2.671 -0.1337  0.0381 -0.2065
 1185SOL     ow 4737   2.653   1.892   3.104  0.0359 -0.3691 -0.2563
 1185SOL     hw 4738   2.597   1.820   3.075  0.8836 -0.4210 -1.8369
 1185SOL     hw 4739   2.739   1.852   3.118  0.9268  0.5652 -2.6956
 1185SOL     vw 4740   2.657   1.877   3.102  0.2652 -0.2527 -0.7867
 1186SOL     ow 4741   5.958   3.868   5.441 -0.0435  0.2295  0.1683
 1186SOL     hw 4742   6.021   3.935   5.466  0.3344 -0.7380  1.9981
 1186SOL     hw 4743   5.940   3.820   5.522  0.2983 -2.3639 -1.1809
 1186SOL     vw 4744   5.964   3.870   5.455  0.0515 -0.2403  0.2315
 1187SOL     ow 4745   4.388   5.721   4.773 -0.6583 -0.4798  0.1507
 1187SOL     hw 4746   4.402   5.687   4.861 -3.0896 -0.0761  0.7817
 1187SOL     hw 4747   4.385   5.816   4.785 -1.5901 -0.4501 -0.2358
 1187SOL     vw 4748   4.389   5.729   4.786 -1.1017 -0.4225  0.1829
 1188SOL     ow 4749   5.651   1.297   0.833  0.0786  0.0220 -0.4668
 1188SOL     hw 4750   5.669   1.330   0.745  0.6071 -2.6582 -1.4525
 1188SOL     hw 4751   5.555   1.294   0.838  0.0255  1.3200 -0.4672
 1188SOL     vw 4752   5.640   1.301   0.822  0.1411 -0.1604 -0.5969
 1189SOL     ow 4753   6.006   4.506   3.904  0.3337  0.2368 -0.0661
 1189SOL     hw 4754   5.939   4.529   3.968  0.7903  0.0785  0.4772
 1189SOL     hw 4755   6.084   4.487   3.956  1.1222  1.4852 -0.7474
 1189SOL     vw 4756   6.007   4.507   3.919  0.4981  0.3808 -0.0843
 1190SOL     ow 4757   6.558   0.152   5.695 -0.1782 -0.9494 -0.3598
 1190SOL     hw 4758   6.616   0.077   5.708  2.1189  0.4939 -1.5769
 1190SOL     hw 4759   6.616   0.224   5.669 -2.4506  0.8320 -0.9207
 1190SOL     vw 4760   6.573   0.152   5.693 -0.1748 -0.5239 -0.5939
 1191SOL     ow 4761   5.411   4.854   0.484  0.4127  0.3792  0.3953
 1191SOL     hw 4762   5.374   4.779   0.531 -1.4756  1.5542  0.8659
 1191SOL     hw 4763   5.501   4.861   0.518  0.5308 -1.4280  0.5774
 1191SOL     vw 4764   5.418   4.845   0.495  0.1788  0.2956  0.4814
 1192SOL     ow 4765   1.271   1.378   1.553  0.1166 -0.2917 -0.6616
 1192SOL     hw 4766   1.252   1.464   1.517 -0.0420 -0.5586 -1.2246
 1192SOL     hw 4767   1.294   1.395   1.644 -0.0080  0.3337 -0.7414
 1192SOL     vw 4768   1.272   1.392   1.560  0.0792 -0.2444 -0.7464
 1193SOL     ow 4769   3.179   6.674   2.922 -0.0065  0.3105 -0.3748
 1193SOL     hw 4770   3.233   6.635   2.853 -0.2019 -1.3443  0.3619
 1193SOL     hw 4771   3.175   6.606   2.990  1.7475  2.5350  2.1588
 1193SOL     vw 4772   3.186   6.660   2.922  0.1991  0.3858  0.0565
 1194SOL     ow 4773   6.489   3.651   3.722 -0.0345 -0.0744  0.1965
 1194SOL     hw 4774   6.408   3.639   3.772  1.0275 -2.7396  1.4753
 1194SOL     hw 4775   6.497   3.571   3.670 -0.4623  2.0468 -3.5513
 1194SOL     vw 4776   6.479   3.639   3.721  0.0491 -0.1463 -0.1292
 1195SOL     ow 4777   4.209   4.962   5.732  0.4865  0.1567 -0.0826
 1195SOL     hw 4778   4.258   4.979   5.812  2.3655  0.1314 -1.1686
 1195SOL     hw 4779   4.156   5.041   5.719 -0.3766 -0.1239  1.5182
 1195SOL     vw 4780   4.208   4.975   5.740  0.6206  0.1166 -0.0148
 1196SOL     ow 4781   1.496   3.055   0.210 -0.4513 -0.4287 -0.4611
 1196SOL     hw 4782   1.455   3.137   0.180  0.7805  0.6424  0.6411
 1196SOL     hw 4783   1.585   3.081   0.236 -0.1442 -2.0652  0.2493
 1196SOL     vw 4784   1.503   3.069   0.209 -0.2483 -0.5032 -0.2220
 1197SOL     ow 4785   5.205   6.221   4.186 -0.0193  0.1555 -0.6684
 1197SOL     hw 4786   5.175   6.312   4.179 -1.5933 -0.2443  0.3356
 1197SOL     hw 4787   5.130   6.169   4.159  0.0648 -0.8934  1.0029
 1197SOL     vw 4788   5.191   6.226   4.182 -0.2160 -0.0358 -0.3154
 1198SOL     ow 4789   6.954   4.173   2.922  0.1012  0.9057 -0.1661
 1198SOL     hw 4790   6.982   4.203   3.008 -0.2116  0.4488  0.1018
 1198SOL     hw 4791   6.950   4.077   2.930  0.1435  0.8537 -0.7091
 1198SOL     vw 4792   6.957   4.164   2.934  0.0653  0.8385 -0.2025
 1199SOL     ow 4793   1.244   6.604   0.280  0.1271  0.3571 -0.3648
 1199SOL     hw 4794   1.234   6.679   0.221 -2.1292 -1.2543 -2.2223
 1199SOL     hw 4795   1.163   6.604   0.331 -0.2684 -1.2246 -0.9476
 1199SOL     vw 4796   1.232   6.614   0.279 -0.2228 -0.0639 -0.6867
 1200SOL     ow 4797   2.438   2.945   0.414  0.0026 -0.5282  0.0563
 1200SOL     hw 4798   2.470   3.034   0.425  1.0084 -1.0594  1.7792
 1200SOL     hw 4799   2.347   2.949   0.443  0.1086 -0.0929  0.3433
 1200SOL     vw 4800   2.430   2.957   0.419  0.1491 -0.5409  0.3215
 1201SOL     ow 4801   1.454   2.096   3.518  0.0046  0.3798  0.2528
 1201SOL     hw 4802   1.489   2.095   3.430  2.1448  1.0063  1.0429
 1201SOL     hw 4803   1.402   2.177   3.523  1.1133  1.1192  0.0059
 1201SOL     vw 4804   1.452   2.107   3.507  0.4333  0.5600  0.3242
 1202SOL     ow 4805   3.358   3.227   0.939  0.2135  0.3593  0.2532
 1202SOL     hw 4806   3.389   3.317   0.930 -0.9421  0.7136 -0.3467
 1202SOL     hw 4807   3.263   3.234   0.944  0.2020 -0.6672  2.6043
 1202SOL     vw 4808   3.350   3.240   0.938  0.0595  0.2706  0.4842
 1203SOL     ow 4809   0.980   3.068   2.423  0.4468  0.4781  0.2076
 1203SOL     hw 4810   0.997   3.022   2.341 -3.0479  0.9779 -0.9847
 1203SOL     hw 4811   0.975   3.161   2.398 -2.2093  0.5150  0.5136
 1203SOL     vw 4812   0.981   3.074   2.408 -0.3647  0.5488  0.0906
 1204SOL     ow 4813   0.681   5.559   5.532  0.0248  0.0616 -0.0587
 1204SOL     hw 4814   0.586   5.555   5.517  0.0234 -1.5217  0.1795
 1204SOL     hw 4815   0.713   5.620   5.465 -1.0140 -0.4416 -1.0583
 1204SOL     vw 4816   0.673   5.567   5.521 -0.1124 -0.2139 -0.1593
 1205SOL     ow 4817   5.612   0.209   6.834 -0.5924 -0.3706 -0.4040
 1205SOL     hw 4818   5.620   0.131   6.778 -1.9054 -0.3340 -0.6656
 1205SOL     hw 4819   5.526   0.202   6.873 -0.4650  0.6262  0.0919
 1205SOL     vw 4820   5.602   0.198   6.832 -0.7489 -0.2342 -0.3731
 1206SOL     ow 4821   2.497   0.241   4.228  0.1425  0.0323 -0.0915
 1206SOL     hw 4822   2.463   0.271   4.144 -0.3818  1.6877  0.6796
 1206SOL     hw 4823   2.592   0.239   4.216  0.1247  1.0831 -0.4698
 1206SOL     vw 4824   2.505   0.245   4.216  0.0709  0.3894 -0.0401
 1207SOL     ow 4825   3.714   0.834   2.039  0.4553 -0.2849  0.2963
 1207SOL     hw 4826   3.774   0.778   1.990 -0.5883 -1.1797  0.0182
 1207SOL     hw 4827   3.640   0.846   1.980  0.0928  0.3373  0.8688
 1207SOL     vw 4828   3.712   0.828   2.024  0.2698 -0.3208  0.3351
 1208SOL     ow 4829   6.887   4.334   2.392  0.2387 -0.0199 -0.5990
 1208SOL     hw 4830   6.886   4.428   2.372 -0.3947  0.6022  1.9844
 1208SOL     hw 4831   6.918   4.293   2.311  1.2691  2.4618 -1.5797
 1208SOL     vw 4832   6.891   4.341   2.379  0.2913  0.3898 -0.3874
 1209SOL     ow 4833   5.264   4.392   0.937  0.4855 -0.4231 -0.2743
 1209SOL     hw 4834   5.234   4.369   0.849 -1.3755 -3.0210  0.8809
 1209SOL     hw 4835   5.191   4.440   0.976  0.9422 -0.0375  0.1213
 1209SOL     vw 4836   5.251   4.395   0.931  0.3004 -0.7150 -0.0697
 1210SOL     ow 4837   3.044   6.980   2.824 -0.1513  0.3993  0.7065
 1210SOL     hw 4838   3.052   7.011   2.734 -2.1083 -0.4739  0.1769
 1210SOL     hw 4839   2.990   7.047   2.867  1.8743  1.5002  1.6382
 1210SOL     vw 4840   3.038   6.993   2.818 -0.1422  0.4296  0.7595
 1211SOL     ow 4841   4.317   2.832   4.257  0.0152 -0.2186  0.4253
 1211SOL     hw 4842   4.233   2.796   4.284 -0.2514 -0.0717 -0.1768
 1211SOL     hw 4843   4.335   2.791   4.172 -1.2581  2.4198 -1.2889
 1211SOL     vw 4844   4.308   2.822   4.249 -0.1876  0.1489  0.1194
 1212SOL     ow 4845   4.780   1.588   0.613  0.5921  0.1406 -0.0919
 1212SOL     hw 4846   4.827   1.656   0.566 -0.5186  0.6806 -0.4635
 1212SOL     hw 4847   4.691   1.592   0.578  0.4248 -1.2731  0.1312
 1212SOL     vw 4848   4.774   1.598   0.602  0.4234  0.0253 -0.1115
 1213SOL     ow 4849   3.464   6.034   3.544  0.5289 -0.5683  0.4640
 1213SOL     hw 4850   3.473   5.949   3.587  2.7027 -0.4043  0.4380
 1213SOL     hw 4851   3.420   6.015   3.461  1.6796 -1.8077  0.1042
 1213SOL     vw 4852   3.460   6.020   3.539  0.9675 -0.7102  0.4131
 1214SOL     ow 4853   3.574   0.800   5.201  0.2165 -0.8407  0.4014
 1214SOL     hw 4854   3.625   0.880   5.183 -0.2068 -0.6018  0.2578
 1214SOL     hw 4855   3.484   0.830   5.211  0.0540 -1.3012  0.3606
 1214SOL     vw 4856   3.569   0.815   5.200  0.1394 -0.8700  0.3769
 1215SOL     ow 4857   4.472   1.206   4.204  0.3220  0.1359 -0.1570
 1215SOL     hw 4858   4.564   1.222   4.186  0.1613  2.2594  0.6021
 1215SOL     hw 4859   4.425   1.272   4.153 -0.6416  0.2588  0.8260
 1215SOL     vw 4860   4.478   1.217   4.195  0.1738  0.4324  0.0727
 1216SOL     ow 4861   2.791   2.425   1.103  0.0678  0.0023 -0.2151
 1216SOL     hw 4862   2.790   2.520   1.094  2.7963  0.0864 -0.3517
 1216SOL     hw 4863   2.752   2.394   1.021 -3.0547  0.9219  0.7901
 1216SOL     vw 4864   2.786   2.434   1.091  0.0160  0.1348 -0.1004
 1217SOL     ow 4865   6.836   0.534   6.314 -0.2277 -0.0320  0.3637
 1217SOL     hw 4866   6.850   0.610   6.371  0.2667  1.8126 -2.0565
 1217SOL     hw 4867   6.747   0.505   6.333 -0.2644  0.8559  1.6494
 1217SOL     vw 4868   6.826   0.540   6.324 -0.1674  0.3285  0.2139
 1218SOL     ow 4869   1.204   5.625   1.349 -0.3991 -0.1992 -0.1111
 1218SOL     hw 4870   1.120   5.655   1.314 -0.8998 -1.4423 -0.0278
 1218SOL     hw 4871   1.262   5.621   1.272 -0.6336 -0.0882 -0.2945
 1218SOL     vw 4872   1.201   5.629   1.334 -0.4960 -0.3483 -0.1243
 1219SOL     ow 4873   3.064   3.324   5.356 -0.0106 -0.4807 -0.6249
 1219SOL     hw 4874   3.108   3.408   5.368 -1.0807 -0.1645  1.6041
 1219SOL     hw 4875   3.010   3.336   5.278 -1.4117  1.5624  0.5413
 1219SOL     vw 4876   3.063   3.337   5.347 -0.3365 -0.1695 -0.1769
 1220SOL     ow 4877   2.849   0.296   3.520  0.5067  0.0486 -0.3747
 1220SOL     hw 4878   2.859   0.327   3.430  0.5027  0.1883 -0.3284
 1220SOL     hw 4879   2.937   0.269   3.546  0.3969 -0.5512 -0.6191
 1220SOL     vw 4880   2.862   0.297   3.512  0.4917 -0.0121 -0.4009
 1221SOL     ow 4881   5.251   3.730   1.160  0.1381 -0.2501 -0.4231
 1221SOL     hw 4882   5.317   3.741   1.092 -0.5379 -1.4382 -1.3037
 1221SOL     hw 4883   5.176   3.690   1.115 -1.1756  0.9717  0.5582
 1221SOL     vw 4884   5.249   3.726   1.145 -0.1242 -0.2456 -0.4098
 1222SOL     ow 4885   3.878   6.447   3.816 -0.0691  0.3039 -0.4815
 1222SOL     hw 4886   3.871   6.368   3.870  1.1019  0.7237  0.3282
 1222SOL     hw 4887   3.912   6.416   3.732 -0.6252 -0.1874 -0.5288
 1222SOL     vw 4888   3.882   6.433   3.812  0.0120  0.2944 -0.3809
 1223SOL     ow 4889   6.757   3.960   0.458  0.1071  0.5597 -0.0721
 1223SOL     hw 4890   6.793   3.915   0.534  0.7822 -0.0831 -0.7523
 1223SOL     hw 4891   6.694   4.022   0.494 -1.1285 -1.1483  0.8982
 1223SOL     vw 4892   6.753   3.962   0.473  0.0331  0.2496 -0.0338
 1224SOL     ow 4893   6.327   0.270   5.879  0.2614 -0.4220 -0.2500
 1224SOL     hw 4894   6.296   0.360   5.889  0.5658 -0.4832  1.6828
 1224SOL     hw 4895   6.335   0.238   5.969  3.7053 -1.1596 -0.6791
 1224SOL     vw 4896   6.324   0.278   5.892  0.7555 -0.5274 -0.0515
 1225SOL     ow 4897   5.124   3.675   3.527  0.2248 -0.0927 -0.2630
 1225SOL     hw 4898   5.081   3.760   3.533  2.9207  1.3563  0.0125
 1225SOL     hw 4899   5.216   3.696   3.512  0.7885 -3.0100 -1.4498
 1225SOL     vw 4900   5.131   3.689   3.526  0.6547 -0.2863 -0.3833
 1226SOL     ow 4901   3.660   2.069   6.420  0.1077 -0.2659  0.4574
 1226SOL     hw 4902   3.620   1.985   6.443 -0.7348  0.2944  1.1179
 1226SOL     hw 4903   3.586   2.130   6.414  0.4277 -0.0328 -2.3631
 1226SOL     vw 4904   3.645   2.066   6.422  0.0387 -0.1612  0.1724
 1227SOL     ow 4905   0.462   2.439   2.178 -0.5370  0.2095 -0.0734
 1227SOL     hw 4906   0.379   2.392   2.180 -0.2338 -0.3769 -0.6971
 1227SOL     hw 4907   0.466   2.485   2.262 -1.0411 -0.5336  0.3698
 1227SOL     vw 4908   0.452   2.439   2.189 -0.5635  0.0340 -0.0972
 1228SOL     ow 4909   0.609   6.130   4.187 -0.2509 -0.3833  0.5029
 1228SOL     hw 4910   0.594   6.041   4.154  1.4010 -0.3785 -0.3778
 1228SOL     hw 4911   0.586   6.187   4.113  0.2753 -0.1819  0.4917
 1228SOL     vw 4912   0.604   6.126   4.173  0.0364 -0.3564  0.3850
 1229SOL     ow 4913   5.785   0.552   4.952  0.4058 -0.0337  1.1255
 1229SOL     hw 4914   5.871   0.593   4.957  0.7959 -0.4681 -0.9572
 1229SOL     hw 4915   5.790   0.477   5.010  1.7331 -0.5092  0.4279
 1229SOL     vw 4916   5.797   0.548   4.960  0.6323 -0.1538  0.7589
 1230SOL     ow 4917   1.667   1.050   5.923 -0.4704  0.2694  0.5935
 1230SOL     hw 4918   1.671   0.978   5.986 -0.7602  1.8011  2.4303
 1230SOL     hw 4919   1.715   1.122   5.965 -1.5973  1.6844 -0.4579
 1230SOL     vw 4920   1.674   1.050   5.937 -0.6573  0.6582  0.6971
 1231SOL     ow 4921   0.823   5.894   6.896 -0.0735 -0.8402  0.0469
 1231SOL     hw 4922   0.734   5.907   6.927  0.3451 -0.7064  1.2411
 1231SOL     hw 4923   0.851   5.812   6.937  0.2136 -1.1027 -0.6588
 1231SOL     vw 4924   0.815   5.885   6.906  0.0196 -0.8571  0.1113
 1232SOL     ow 4925   6.530   3.818   0.236  0.6852  0.4360  0.2715
 1232SOL     hw 4926   6.517   3.779   0.150 -0.9448  0.5547  0.4415
 1232SOL     hw 4927   6.450   3.797   0.285 -0.1679  3.6444  0.4801
 1232SOL     vw 4928   6.518   3.810   0.231  0.3576  0.8750  0.3214
 1233SOL     ow 4929   3.066   6.304   4.175  0.5001  0.4493  0.4859
 1233SOL     hw 4930   3.095   6.262   4.256 -0.4824 -1.0923  0.0814
 1233SOL     hw 4931   2.986   6.258   4.151 -0.8598  2.8018  0.1545
 1233SOL     vw 4932   3.059   6.292   4.182  0.1910  0.5562  0.3891
 1234SOL     ow 4933   0.459   6.930   0.116 -0.0611  0.7536  0.1329
 1234SOL     hw 4934   0.436   6.846   0.157 -0.3101  0.9545  0.4048
 1234SOL     hw 4935   0.398   6.993   0.153  0.1702  1.0717 -0.0187
 1234SOL     vw 4936   0.448   6.927   0.126 -0.0634  0.8221  0.1488
 1235SOL     ow 4937   1.079   1.827   0.522 -0.3673 -0.1327 -0.2798
 1235SOL     hw 4938   1.010   1.762   0.532 -1.1607  0.8972  1.3625
 1235SOL     hw 4939   1.064   1.864   0.435 -0.8031 -1.1069 -0.6338
 1235SOL     vw 4940   1.068   1.823   0.512 -0.5293 -0.1253 -0.1099
 1236SOL     ow 4941   1.021   0.082   6.490 -0.9139 -0.6759 -0.1499
 1236SOL     hw 4942   0.976   0.128   6.561  1.8009  1.0590  0.6089
 1236SOL     hw 4943   1.049  -0.001   6.528 -1.5953 -0.8360  0.0163
 1236SOL     vw 4944   1.019   0.077   6.504 -0.6456 -0.4681 -0.0279
 1237SOL     ow 4945   2.059   2.735   3.292 -0.4223  0.1682  0.3399
 1237SOL     hw 4946   2.046   2.802   3.360  1.9975  0.7667  0.2862
 1237SOL     hw 4947   2.067   2.785   3.211  1.7669 -0.0854  0.3466
 1237SOL     vw 4948   2.058   2.750   3.290  0.1858  0.2136  0.3338
 1238SOL     ow 4949   2.494   4.707   4.489 -0.3997 -0.1535 -0.2592
 1238SOL     hw 4950   2.547   4.653   4.430 -1.2760 -0.4863 -0.7500
 1238SOL     hw 4951   2.505   4.796   4.457 -0.3230 -0.2484 -0.4980
 1238SOL     vw 4952   2.503   4.712   4.477 -0.5051 -0.2098 -0.3557
 1239SOL     ow 4953   7.075   6.648   5.514  0.2450  0.3193  0.5746
 1239SOL     hw 4954   7.131   6.577   5.483  1.1280  0.9983  0.5703
 1239SOL     hw 4955   7.121   6.684   5.589  1.2608  2.6548 -1.0343
 1239SOL     vw 4956   7.088   6.643   5.520  0.4956  0.7169  0.3617
 1240SOL     ow 4957   5.515   1.074   5.569  0.3405 -0.8883 -0.5866
 1240SOL     hw 4958   5.445   1.056   5.507  1.4882  0.3977 -2.3294
 1240SOL     hw 4959   5.470   1.087   5.653 -1.5948  0.6051 -1.7781
 1240SOL     vw 4960   5.500   1.073   5.572  0.2367 -0.5216 -0.9737
 1241SOL     ow 4961   1.600   0.121   0.985  0.0089  0.3128 -0.0526
 1241SOL     hw 4962   1.537   0.182   1.024 -0.2101  0.0012  0.0749
 1241SOL     hw 4963   1.548   0.046   0.957  0.2268  0.3472 -0.5627
 1241SOL     vw 4964   1.585   0.119   0.987  0.0088  0.2762 -0.1031
 1242SOL     ow 4965   3.332   4.306   3.083  0.2016  0.3014  0.4474
 1242SOL     hw 4966   3.348   4.217   3.114  3.3679  0.7074  0.3473
 1242SOL     hw 4967   3.285   4.295   3.000 -0.4646 -1.1819  0.9845
 1242SOL     vw 4968   3.328   4.293   3.076  0.5313  0.1593  0.5050
 1243SOL     ow 4969   4.552   6.075   2.112  0.5925 -0.3910  0.1727
 1243SOL     hw 4970   4.479   6.136   2.122  1.4378  0.7147 -0.2052
 1243SOL     hw 4971   4.571   6.074   2.018  1.8557  0.3348  0.3877
 1243SOL     vw 4972   4.545   6.083   2.101  0.8707 -0.1493  0.1512
 1244SOL     ow 4973   4.742   3.762   3.982 -0.0685  0.1600  0.1922
 1244SOL     hw 4974   4.720   3.823   3.912  0.1968  1.9460  1.6021
 1244SOL     hw 4975   4.827   3.792   4.015  2.0616 -3.3101 -1.5461
 1244SOL     vw 4976   4.750   3.774   3.978  0.2475 -0.0622  0.1489
 1245SOL     ow 4977   6.334   1.915   4.809  0.0021 -0.6262 -0.5805
 1245SOL     hw 4978   6.357   1.824   4.791  0.3322 -0.5998 -0.2965
 1245SOL     hw 4979   6.338   1.923   4.904 -1.6615 -0.7447 -0.4678
 1245SOL     vw 4980   6.337   1.904   4.819 -0.1740 -0.6384 -0.5283
 1246SOL     ow 4981   2.109   2.146   1.349  0.0643  0.1945  0.0256
 1246SOL     hw 4982   2.093   2.224   1.296  1.5925 -0.0305 -0.8354
 1246SOL     hw 4983   2.075   2.167   1.436 -1.3718  1.0427 -0.7034
 1246SOL     vw 4984   2.102   2.159   1.353  0.0764  0.2768 -0.1841
 1247SOL     ow 4985   2.986   4.656   4.779 -0.8490  0.1379 -0.2951
 1247SOL     hw 4986   2.921   4.723   4.803 -1.7058 -0.2786 -1.3952
 1247SOL     hw 4987   3.017   4.683   4.693 -1.4561 -1.0425 -0.9083
 1247SOL     vw 4988   2.981   4.668   4.771 -1.0421 -0.0727 -0.5212
 1248SOL     ow 4989   1.466   4.015   3.565  0.2356 -0.2648  0.4547
 1248SOL     hw 4990   1.490   4.096   3.609  0.5402  0.5952 -1.1997
 1248SOL     hw 4991   1.531   3.951   3.595 -0.4603 -0.1283  2.3478
 1248SOL     vw 4992   1.478   4.017   3.575  0.1841 -0.1335  0.4861
 1249SOL     ow 4993   6.221   3.801   6.525  0.1493  1.1812 -0.2116
 1249SOL     hw 4994   6.182   3.880   6.488  0.1490  1.1100 -0.3612
 1249SOL     hw 4995   6.163   3.777   6.597  0.2962  1.4718  0.0086
 1249SOL     vw 4996   6.209   3.808   6.530  0.1688  1.2102 -0.2024
 1250SOL     ow 4997   0.694   5.558   4.978 -0.3119 -0.5797  0.2044
 1250SOL     hw 4998   0.678   5.648   5.006 -1.4269 -0.3467 -1.0445
 1250SOL     hw 4999   0.667   5.505   5.052 -2.4512  0.0353 -0.0674
 1250SOL     vw 5000   0.688   5.563   4.991 -0.7412 -0.4678  0.0038
 1251SOL     ow 5001   0.875   1.264   2.843  0.4800  0.5147  0.3396
 1251SOL     hw 5002   0.961   1.256   2.802  0.6650  0.3083  0.7594
 1251SOL     hw 5003   0.816   1.221   2.781  0.6074  1.0404 -0.1578
 1251SOL     vw 5004   0.879   1.257   2.829  0.5212  0.5568  0.3294
 1252SOL     ow 5005   3.559   4.353   3.268 -0.8486  0.6894 -0.0791
 1252SOL     hw 5006   3.586   4.414   3.337 -1.9276  1.2020 -0.0857
 1252SOL     hw 5007   3.539   4.272   3.315 -2.7245  1.3836  0.4201
 1252SOL     vw 5008   3.560   4.350   3.283 -1.2386  0.8485 -0.0139
 1253SOL     ow 5009   2.153   5.669   5.813 -0.0061  0.3416  0.3101
 1253SOL     hw 5010   2.126   5.580   5.793 -0.8146  0.8412 -1.0094
 1253SOL     hw 5011   2.118   5.687   5.900 -1.2171 -0.0956 -0.0703
 1253SOL     vw 5012   2.145   5.660   5.821 -0.2724  0.3495  0.0856
 1254SOL     ow 5013   6.497   0.428   0.810  0.2901 -0.6467  0.1538
 1254SOL     hw 5014   6.526   0.338   0.826  0.3311 -0.3575  2.0190
 1254SOL     hw 5015   6.426   0.441   0.873 -0.0001  0.4830 -0.3922
 1254SOL     vw 5016   6.491   0.418   0.821  0.2573 -0.4595  0.3278
 1255SOL     ow 5017   3.808   1.555   0.364 -0.0830  0.2009  0.4923
 1255SOL     hw 5018   3.894   1.538   0.326  0.4397  1.3987  1.0773
 1255SOL     hw 5019   3.776   1.469   0.391 -0.1566 -0.5863 -1.9162
 1255SOL     vw 5020   3.816   1.542   0.363 -0.0236  0.2550  0.2517
 1256SOL     ow 5021   1.712   6.426   1.237  0.3729  0.2761 -0.3616
 1256SOL     hw 5022   1.647   6.478   1.190 -0.0672 -0.6806 -0.8539
 1256SOL     hw 5023   1.794   6.442   1.191 -0.0064 -0.4591 -1.3363
 1256SOL     vw 5024   1.714   6.435   1.225  0.2648  0.0527 -0.5552
 1257SOL     ow 5025   3.938   4.792   5.315  0.3020 -0.1505 -0.2300
 1257SOL     hw 5026   3.857   4.835   5.343  1.0897 -0.4712  2.9504
 1257SOL     hw 5027   3.979   4.854   5.256 -1.2134  0.9978 -0.1310
 1257SOL     vw 5028   3.933   4.806   5.311  0.2060 -0.0412  0.2029
 1258SOL     ow 5029   3.370   6.115   5.625  0.1237  0.1436  0.2121
 1258SOL     hw 5030   3.381   6.203   5.662  0.2622  0.3195 -0.2409
 1258SOL     hw 5031   3.450   6.069   5.650  0.0233  0.1245  0.5044
 1258SOL     vw 5032   3.382   6.120   5.633  0.1287  0.1645  0.1907
 1259SOL     ow 5033   2.873   1.348   0.146  0.0202  0.1814 -0.3956
 1259SOL     hw 5034   2.885   1.254   0.157  1.7670  0.3887 -0.2511
 1259SOL     hw 5035   2.888   1.384   0.233 -2.7336  0.4741  0.0570
 1259SOL     vw 5036   2.877   1.341   0.159 -0.1127  0.2474 -0.3168
 1260SOL     ow 5037   4.955   6.259   4.465 -0.1551  0.2864  0.2203
 1260SOL     hw 5038   4.907   6.197   4.411 -0.2007  1.1717 -0.8063
 1260SOL     hw 5039   5.042   6.221   4.474  0.3552  0.8303 -1.8404
 1260SOL     vw 5040   4.960   6.246   4.459 -0.0939  0.4749 -0.1869
 1261SOL     ow 5041   1.546   4.797   6.339 -0.3183  0.4448  0.5111
 1261SOL     hw 5042   1.473   4.739   6.317 -0.4505  0.5232  0.7441
 1261SOL     hw 5043   1.600   4.799   6.260  0.1396 -0.6664  0.7788
 1261SOL     vw 5044   1.544   4.790   6.326 -0.2753  0.3085  0.5772
 1262SOL     ow 5045   5.780   1.658   2.271  0.7066  0.2748 -0.1253
 1262SOL     hw 5046   5.810   1.687   2.357  1.2661 -2.6697  0.7603
 1262SOL     hw 5047   5.689   1.686   2.267 -0.1307 -1.7204  2.5602
 1262SOL     vw 5048   5.772   1.666   2.282  0.6702 -0.3770  0.3459
 1263SOL     ow 5049   5.477   0.440   6.449 -0.5942  0.2249 -0.0009
 1263SOL     hw 5050   5.537   0.428   6.523  0.5136  2.5104 -0.4252
 1263SOL     hw 5051   5.403   0.383   6.468  0.5676 -0.7483  1.8525
 1263SOL     vw 5052   5.475   0.431   6.461 -0.2949  0.3981  0.1879
 1264SOL     ow 5053   0.153   1.831   0.848  0.8409  0.6797  0.7058
 1264SOL     hw 5054   0.096   1.890   0.798 -0.8683  0.4248  2.2693
 1264SOL     hw 5055   0.195   1.888   0.913  1.9511  0.7502 -0.0362
 1264SOL     vw 5056   0.151   1.847   0.850  0.7619  0.6554  0.8143
 1265SOL     ow 5057   5.615   4.076   3.856  0.4634 -0.0838  0.1733
 1265SOL     hw 5058   5.535   4.128   3.855 -0.4958 -1.3772  2.3763
 1265SOL     hw 5059   5.590   3.993   3.814  0.7181 -0.3956  0.6303
 1265SOL     vw 5060   5.601   4.072   3.850  0.3705 -0.2954  0.5244
 1266SOL     ow 5061   5.195   1.225   6.781 -0.5362 -0.2836 -0.0175
 1266SOL     hw 5062   5.136   1.149   6.777  0.2488 -0.9300  0.3992
 1266SOL     hw 5063   5.172   1.269   6.862  1.0198 -1.7912  1.3034
 1266SOL     vw 5064   5.184   1.220   6.791 -0.2275 -0.5678  0.2117
 1267SOL     ow 5065   2.648   0.522   3.630 -0.1107 -0.2806  0.0292
 1267SOL     hw 5066   2.697   0.578   3.569 -0.9382  0.2698 -0.1509
 1267SOL     hw 5067   2.662   0.561   3.716  2.1862 -1.8383  0.4577
 1267SOL     vw 5068   2.656   0.534   3.633  0.0831 -0.4135  0.0621
 1268SOL     ow 5069   4.502   6.747   2.228 -0.2931 -0.0109 -0.0711
 1268SOL     hw 5070   4.582   6.779   2.187  0.3866  0.2728  1.3959
 1268SOL     hw 5071   4.486   6.809   2.299 -1.4349 -0.4574  0.0714
 1268SOL     vw 5072   4.511   6.759   2.232 -0.3543 -0.0324  0.1413
 1269SOL     ow 5073   4.975   6.744   0.930 -0.0921  0.8138  0.1706
 1269SOL     hw 5074   5.010   6.692   0.858 -0.0641  2.1676 -0.8254
 1269SOL     hw 5075   4.942   6.679   0.993  2.6884 -0.5069  0.4314
 1269SOL     vw 5076   4.975   6.729   0.929  0.2782  0.8180  0.0735
 1270SOL     ow 5077   1.531   1.071   0.182 -0.1946  0.0934  0.0612
 1270SOL     hw 5078   1.587   1.141   0.149 -1.0525  0.8412  0.1568
 1270SOL     hw 5079   1.498   1.028   0.103  0.3344 -0.2162  0.0027
 1270SOL     vw 5080   1.534   1.074   0.167 -0.2381  0.1512  0.0661
 1271SOL     ow 5081   3.692   4.380   0.714  0.3567  0.0899 -0.0357
 1271SOL     hw 5082   3.674   4.401   0.805 -0.6753 -0.9718  0.0274
 1271SOL     hw 5083   3.607   4.361   0.675  0.7293  0.9666 -1.3545
 1271SOL     vw 5084   3.679   4.380   0.721  0.2697  0.0656 -0.2013
 1272SOL     ow 5085   0.720   2.158   1.105  0.4719  0.2276 -0.3612
 1272SOL     hw 5086   0.816   2.158   1.113  0.6286 -0.5679 -1.8756
 1272SOL     hw 5087   0.692   2.083   1.157  0.7503 -0.1208 -0.7141
 1272SOL     vw 5088   0.729   2.148   1.113  0.5293  0.0767 -0.6075
 1273SOL     ow 5089   1.540   5.606   2.595 -0.0256 -0.3094  0.0537
 1273SOL     hw 5090   1.446   5.619   2.613  0.0387  0.1967  0.0560
 1273SOL     hw 5091   1.584   5.660   2.661  0.2938 -1.1967  0.5862
 1273SOL     vw 5092   1.533   5.615   2.606  0.0250 -0.3598  0.1243
 1274SOL     ow 5093   3.642   4.061   2.913 -0.1203  0.2525  0.2880
 1274SOL     hw 5094   3.730   4.042   2.881 -0.3529 -1.5216  0.5932
 1274SOL     hw 5095   3.584   4.018   2.849 -0.6921 -0.2521  1.1282
 1274SOL     vw 5096   3.646   4.053   2.900 -0.2265 -0.0484  0.4392
 1275SOL     ow 5097   2.205   1.233   2.447 -0.5559 -0.1766  0.3638
 1275SOL     hw 5098   2.285   1.280   2.425  0.2130 -0.4104  2.4450
 1275SOL     hw 5099   2.138   1.273   2.391  1.1290 -0.5828 -2.0735
 1275SOL     vw 5100   2.206   1.245   2.437 -0.2321 -0.2611  0.3167
 1276SOL     ow 5101   2.773   4.811   0.831 -0.7418  0.0751  0.4210
 1276SOL     hw 5102   2.745   4.869   0.761 -0.9147  0.9148  1.1649
 1276SOL     hw 5103   2.700   4.811   0.893 -0.8206 -1.0935  0.3522
 1276SOL     vw 5104   2.760   4.819   0.830 -0.7751  0.0315  0.5101
 1277SOL     ow 5105   5.688   0.397   6.620 -0.2403  0.3992 -0.5545
 1277SOL     hw 5106   5.664   0.327   6.681 -3.5281  1.8093 -0.0397
 1277SOL     hw 5107   5.779   0.418   6.643 -0.5747 -0.7649  2.2290
 1277SOL     vw 5108   5.697   0.390   6.631 -0.7181  0.4317 -0.1192
 1278SOL     ow 5109   1.268   3.927   1.266  0.3340  0.6820  0.1258
 1278SOL     hw 5110   1.258   3.950   1.358  0.7788  0.6476  0.1835
 1278SOL     hw 5111   1.215   3.992   1.219  0.8823  1.2957  0.3407
 1278SOL     vw 5112   1.260   3.938   1.272  0.4651  0.7584  0.1618
 1279SOL     ow 5113   6.776   1.197   0.147 -0.4735  0.5430  0.1805
 1279SOL     hw 5114   6.752   1.274   0.096  1.8515  0.5927 -0.9895
 1279SOL     hw 5115   6.697   1.174   0.196 -1.9488  2.1848 -1.3160
 1279SOL     vw 5116   6.763   1.204   0.147 -0.3614  0.7662 -0.1713
 1280SOL     ow 5117   6.251   0.456   2.221 -0.3276  0.0686 -0.3040
 1280SOL     hw 5118   6.234   0.444   2.128 -0.4831  1.6403 -0.5173
 1280SOL     hw 5119   6.331   0.406   2.238 -1.9120 -2.6942 -0.5634
 1280SOL     vw 5120   6.260   0.448   2.211 -0.5572 -0.0886 -0.3663
 1281SOL     ow 5121   5.624   4.780   3.015 -0.1438 -0.1629  0.4089
 1281SOL     hw 5122   5.631   4.730   2.934 -0.7291 -0.3230  0.4539
 1281SOL     hw 5123   5.530   4.793   3.027  0.0003  1.1681  0.2585
 1281SOL     vw 5124   5.612   4.775   3.006 -0.2019 -0.0088  0.3951
 1282SOL     ow 5125   3.958   3.308   3.559 -0.2484 -0.0780  0.2706
 1282SOL     hw 5126   4.039   3.359   3.560  1.0867 -2.1259  1.3799
 1282SOL     hw 5127   3.919   3.328   3.474  1.9828  0.0943 -0.7863
 1282SOL     vw 5128   3.963   3.318   3.548  0.2221 -0.3254  0.2774
 1283SOL     ow 5129   1.706   4.674   6.761  0.4995 -0.4045 -0.0549
 1283SOL     hw 5130   1.625   4.624   6.770  0.4016 -0.2326  0.0203
 1283SOL     hw 5131   1.775   4.612   6.786  0.3157 -0.2591  0.8531
 1283SOL     vw 5132   1.704   4.659   6.765  0.4624 -0.3626  0.0746
 1284SOL     ow 5133   2.664   6.663   3.335  0.5393  0.4733 -0.8336
 1284SOL     hw 5134   2.730   6.620   3.281 -0.3471 -1.9077 -0.1425
 1284SOL     hw 5135   2.584   6.661   3.283  0.1285 -0.1377 -0.2011
 1284SOL     vw 5136   2.662   6.657   3.321  0.3681  0.0782 -0.6590
 1285SOL     ow 5137   3.574   2.089   3.780 -0.7023  0.0912  0.4541
 1285SOL     hw 5138   3.491   2.068   3.737 -0.0313  0.8914 -1.3575
 1285SOL     hw 5139   3.640   2.043   3.728  0.1935  1.5447  0.2375
 1285SOL     vw 5140   3.572   2.080   3.767 -0.4954  0.3885  0.1864
 1286SOL     ow 5141   6.765   4.241   2.732 -0.5876  0.4020 -0.3963
 1286SOL     hw 5142   6.822   4.229   2.808  1.2010  0.9905 -1.5963
 1286SOL     hw 5143   6.681   4.203   2.759  1.0364 -2.8950  0.5393
 1286SOL     vw 5144   6.761   4.235   2.746 -0.1373  0.0443 -0.4311
 1287SOL     ow 5145   2.712   5.906   6.244  0.0657  0.1585 -0.4280
 1287SOL     hw 5146   2.765   5.857   6.181  0.7351  0.4601 -0.1005
 1287SOL     hw 5147   2.754   5.992   6.249  0.4383 -0.0888  0.9608
 1287SOL     vw 5148   2.724   5.911   6.236  0.2031  0.1655 -0.2017
 1288SOL     ow 5149   2.046   3.810   2.621  0.3241 -0.1579  0.0019
 1288SOL     hw 5150   2.077   3.732   2.667 -0.1643 -0.2845  0.1143
 1288SOL     hw 5151   2.117   3.831   2.560  1.2264  0.3091  1.1615
 1288SOL     vw 5152   2.060   3.803   2.619  0.3787 -0.1130  0.1698
 1289SOL     ow 5153   2.042   1.388   0.877 -0.0249  0.0565 -0.2839
 1289SOL     hw 5154   2.040   1.364   0.784  0.5845  0.1798 -0.3362
 1289SOL     hw 5155   2.135   1.388   0.899 -0.2282 -1.6433  0.7665
 1289SOL     vw 5156   2.054   1.385   0.867  0.0286 -0.1515 -0.1522
 1290SOL     ow 5157   5.621   2.105   3.365  0.0392  0.1819 -0.9248
 1290SOL     hw 5158   5.605   2.014   3.340  2.8582 -0.2055 -1.6072
 1290SOL     hw 5159   5.534   2.145   3.367 -1.2809 -2.5215 -0.4910
 1290SOL     vw 5160   5.607   2.099   3.362  0.2367 -0.2259 -0.9576
 1291SOL     ow 5161   1.808   3.752   2.853  0.0867 -0.3949  0.3198
 1291SOL     hw 5162   1.853   3.678   2.894  0.8679  0.9774  2.0973
 1291SOL     hw 5163   1.717   3.742   2.879 -0.1882 -1.7172 -1.0331
 1291SOL     vw 5164   1.802   3.741   2.862  0.1536 -0.3883  0.3759
 1292SOL     ow 5165   0.503   4.958   3.739 -0.1824 -0.0416 -0.0504
 1292SOL     hw 5166   0.446   5.022   3.782  0.3142  1.1167 -1.0643
 1292SOL     hw 5167   0.585   5.006   3.722  0.4126 -1.1189 -0.3076
 1292SOL     vw 5168   0.506   4.973   3.742 -0.0384 -0.0308 -0.2182
 1293SOL     ow 5169   3.947   1.296   6.830 -0.0591 -0.4444 -0.3948
 1293SOL     hw 5170   3.861   1.262   6.805 -1.2895  2.4467 -0.5516
 1293SOL     hw 5171   3.975   1.348   6.754  0.2812  1.2372  0.8180
 1293SOL     vw 5172   3.939   1.298   6.816 -0.1765  0.1590 -0.2556
 1294SOL     ow 5173   2.681   6.577   0.893 -0.3027 -0.0578  0.0506
 1294SOL     hw 5174   2.644   6.599   0.979  1.5272 -0.1422  0.8904
 1294SOL     hw 5175   2.743   6.507   0.910  0.2223  0.0422 -1.3168
 1294SOL     vw 5176   2.684   6.571   0.906  0.0080 -0.0560 -0.0190
 1295SOL     ow 5177   0.432   4.310   3.404 -0.0136 -0.9164  0.6399
 1295SOL     hw 5178   0.349   4.263   3.401 -0.8710  0.4895  1.2951
 1295SOL     hw 5179   0.410   4.400   3.377  0.9506 -0.1072  2.3704
 1295SOL     vw 5180   0.418   4.316   3.400  0.0005 -0.6242  0.9546
 1296SOL     ow 5181   6.093   4.787   6.764  0.6671  0.0220  0.2111
 1296SOL     hw 5182   6.029   4.717   6.777  1.7970 -0.9220  0.8408
 1296SOL     hw 5183   6.043   4.867   6.780 -0.4221 -0.6726  0.4396
 1296SOL     vw 5184   6.078   4.788   6.768  0.6726 -0.1943  0.3245
 1297SOL     ow 5185   5.905   2.931   2.129 -0.1753 -0.0652  0.3461
 1297SOL     hw 5186   5.936   3.016   2.159  0.1791 -0.3259  0.7324
 1297SOL     hw 5187   5.841   2.951   2.061 -0.0316  0.5065  0.3757
 1297SOL     vw 5188   5.901   2.945   2.124 -0.1097 -0.0242  0.4010
 1298SOL     ow 5189   1.134   3.331   6.404 -0.0314  0.4072  0.5910
 1298SOL     hw 5190   1.093   3.245   6.391  0.1422  0.5327 -0.8981
 1298SOL     hw 5191   1.228   3.315   6.393 -0.1017  1.0148 -1.1123
 1298SOL     vw 5192   1.141   3.317   6.401 -0.0178  0.5040  0.1700
 1299SOL     ow 5193   4.928   2.398   6.119  0.5265  0.6785 -0.2183
 1299SOL     hw 5194   4.902   2.437   6.035  0.4849 -1.0034 -1.0289
 1299SOL     hw 5195   5.011   2.355   6.101  0.3220 -0.0388  0.4886
 1299SOL     vw 5196   4.935   2.397   6.105  0.4942  0.3619 -0.2322
 1300SOL     ow 5197   1.317   3.781   5.206  0.2018  0.4966 -0.5583
 1300SOL     hw 5198   1.401   3.800   5.164 -0.2707  0.9568 -1.3100
 1300SOL     hw 5199   1.328   3.813   5.296  0.7446  0.7893 -0.7222
 1300SOL     vw 5200   1.330   3.788   5.212  0.2111  0.5959 -0.6790
 1301SOL     ow 5201   4.829   6.782   0.178 -0.6489  0.1463  0.2282
 1301SOL     hw 5202   4.806   6.692   0.197  0.5171  0.0743  1.4183
 1301SOL     hw 5203   4.747   6.823   0.152 -1.0223 -1.4927 -1.4336
 1301SOL     vw 5204   4.815   6.776   0.177 -0.5443 -0.0794  0.1660
 1302SOL     ow 5205   0.480   3.112   2.333 -0.2307 -0.3080 -0.1149
 1302SOL     hw 5206   0.418   3.084   2.266 -0.8310  0.1189  0.2634
 1302SOL     hw 5207   0.514   3.030   2.369  0.2941 -0.5407 -1.1124
 1302SOL     vw 5208   0.477   3.097   2.329 -0.2407 -0.2824 -0.1965
 1303SOL     ow 5209   3.641   3.299   4.734  0.1014  0.6700  0.6824
 1303SOL     hw 5210   3.698   3.230   4.768  0.9208  0.5523 -0.8304
 1303SOL     hw 5211   3.660   3.375   4.790  2.6206  0.9617 -0.4083
 1303SOL     vw 5212   3.651   3.300   4.746  0.5419  0.6930  0.3388
 1304SOL     ow 5213   5.466   6.150   6.408 -0.6658 -0.0214 -0.1124
 1304SOL     hw 5214   5.436   6.240   6.397  0.9636  0.6541  0.6484
 1304SOL     hw 5215   5.392   6.096   6.380 -1.2510  1.5350 -1.7188
 1304SOL     vw 5216   5.452   6.155   6.403 -0.5283  0.2730 -0.2239
 1305SOL     ow 5217   1.857   5.754   6.631  0.0990 -0.1063  0.4286
 1305SOL     hw 5218   1.784   5.737   6.572  0.2090  3.0288 -0.8002
 1305SOL     hw 5219   1.816   5.785   6.712  0.0336  0.2708  0.2522
 1305SOL     vw 5220   1.842   5.756   6.634  0.1048  0.3572  0.2432
 1306SOL     ow 5221   0.343   0.435   3.559 -0.2106 -0.6325 -0.7731
 1306SOL     hw 5222   0.249   0.445   3.576 -0.3575 -0.0111 -1.8803
 1306SOL     hw 5223   0.378   0.524   3.566  0.7356 -1.1510  1.9544
 1306SOL     vw 5224   0.335   0.448   3.562 -0.1052 -0.6190 -0.5592
 1307SOL     ow 5225   2.888   1.011   0.719 -0.0513  0.3716  0.1570
 1307SOL     hw 5226   2.892   0.947   0.648  1.2821  0.7978 -0.1889
 1307SOL     hw 5227   2.980   1.032   0.737 -0.4212  1.2407  1.1273
 1307SOL     vw 5228   2.901   1.005   0.712  0.0758  0.5426  0.2394
 1308SOL     ow 5229   5.592   5.608   0.280  0.1327  0.0908  0.4020
 1308SOL     hw 5230   5.574   5.559   0.199  0.0196  1.8482 -0.6881
 1308SOL     hw 5231   5.507   5.645   0.305  0.3876  0.5050  0.6678
 1308SOL     vw 5232   5.578   5.606   0.272  0.1514  0.3772  0.2932
 1309SOL     ow 5233   3.846   0.023   2.614 -0.3107 -0.5960 -0.0362
 1309SOL     hw 5234   3.833   0.091   2.680 -0.7192 -1.3036  0.6261
 1309SOL     hw 5235   3.936  -0.006   2.627 -0.6040 -1.2176  0.6919
 1309SOL     vw 5236   3.856   0.028   2.624 -0.4032 -0.7714  0.1472
 1310SOL     ow 5237   3.695   3.357   3.702  0.2378  0.3493 -0.0885
 1310SOL     hw 5238   3.647   3.359   3.785 -0.0075 -1.0354 -0.1844
 1310SOL     hw 5239   3.642   3.411   3.642 -0.0326  0.6430  0.4068
 1310SOL     vw 5240   3.682   3.365   3.705  0.1698  0.2054 -0.0356
 1311SOL     ow 5241   2.982   2.073   1.416  0.2113 -0.0851  0.0087
 1311SOL     hw 5242   3.004   2.055   1.508 -0.7762 -1.8189 -0.0454
 1311SOL     hw 5243   2.965   1.986   1.379 -0.6901  0.6997 -1.4796
 1311SOL     vw 5244   2.982   2.059   1.424 -0.0379 -0.2103 -0.1948
 1312SOL     ow 5245   1.923   6.063   0.850  0.3047  0.0244  0.4382
 1312SOL     hw 5246   1.857   6.062   0.781 -1.6877 -1.8783  2.2376
 1312SOL     hw 5247   1.892   5.999   0.915  2.4857  1.0985  2.7229
 1312SOL     vw 5248   1.910   6.054   0.850  0.3297 -0.0851  0.9770
 1313SOL     ow 5249   6.815   4.342   6.220 -0.1345 -0.4837 -0.0767
 1313SOL     hw 5250   6.749   4.318   6.155 -0.8519  2.6837 -0.6787
 1313SOL     hw 5251   6.769   4.338   6.304 -0.3940 -0.5769 -0.2246
 1313SOL     vw 5252   6.800   4.338   6.222 -0.2632 -0.0780 -0.1757
 1314SOL     ow 5253   4.431   2.378   6.098 -0.0825 -0.1516  0.3401
 1314SOL     hw 5254   4.413   2.406   6.008  1.0691 -1.3078 -0.2771
 1314SOL     hw 5255   4.384   2.442   6.152 -1.2834  0.2212 -1.0701
 1314SOL     vw 5256   4.423   2.390   6.093 -0.0892 -0.2550  0.0727
 1315SOL     ow 5257   1.326   4.651   6.237 -0.9483 -0.0894 -0.0137
 1315SOL     hw 5258   1.386   4.617   6.170  0.9440  1.3075  0.8706
 1315SOL     hw 5259   1.244   4.603   6.223  0.7213 -3.0486 -0.4583
 1315SOL     vw 5260   1.323   4.640   6.226 -0.4783 -0.2956  0.0441
 1316SOL     ow 5261   2.420   0.228   4.508  0.3545  0.1984  0.1737
 1316SOL     hw 5262   2.503   0.274   4.521  0.0857  0.9341 -0.5769
 1316SOL     hw 5263   2.389   0.206   4.596  0.3529  1.7367  0.5783
 1316SOL     vw 5264   2.426   0.231   4.521  0.3186  0.4984  0.1280
 1317SOL     ow 5265   6.649   5.941   6.749  0.6258  0.3374 -0.2131
 1317SOL     hw 5266   6.645   6.036   6.736  1.7658  0.3667 -0.4404
 1317SOL     hw 5267   6.557   5.915   6.760  0.3386  1.5459  0.4974
 1317SOL     vw 5268   6.636   5.950   6.748  0.7384  0.5007 -0.1493
 1318SOL     ow 5269   6.198   7.045   4.082  0.0754  0.4604 -0.1645
 1318SOL     hw 5270   6.121   7.054   4.139  1.3157  1.6698  1.4039
 1318SOL     hw 5271   6.189   6.958   4.044 -2.0920  0.5816 -0.0993
 1318SOL     vw 5272   6.186   7.035   4.084 -0.0467  0.6359  0.0510
 1319SOL     ow 5273   5.897   3.945   3.938  0.2535 -0.2740 -0.5329
 1319SOL     hw 5274   5.902   3.914   3.847  0.9223  0.3440 -0.7145
 1319SOL     hw 5275   5.897   3.865   3.990  1.9961 -0.6246 -0.9946
 1319SOL     vw 5276   5.898   3.930   3.933  0.5715 -0.2388 -0.6177
 1320SOL     ow 5277   5.242   1.189   2.673  0.1702 -0.0587  0.3542
 1320SOL     hw 5278   5.267   1.185   2.580  1.1425 -0.2289  0.6129
 1320SOL     hw 5279   5.230   1.097   2.698  0.3479 -0.0425  0.5041
 1320SOL     vw 5280   5.244   1.176   2.664  0.3219 -0.0790  0.4082
 1321SOL     ow 5281   6.497   1.228   6.239 -0.5468 -0.0615  0.5007
 1321SOL     hw 5282   6.449   1.301   6.200 -1.4336 -0.6025  0.5479
 1321SOL     hw 5283   6.554   1.269   6.304 -2.7383  0.4377  2.2428
 1321SOL     vw 5284   6.498   1.243   6.242 -0.9527 -0.0670  0.7370
 1322SOL     ow 5285   5.148   5.187   5.457  0.0527 -0.2815  0.2257
 1322SOL     hw 5286   5.069   5.140   5.429 -0.3829 -0.0502  1.0161
 1322SOL     hw 5287   5.173   5.240   5.382 -1.8018  1.2817  0.6236
 1322SOL     vw 5288   5.141   5.188   5.444 -0.2496 -0.0446  0.3827
 1323SOL     ow 5289   6.309   4.793   4.664  0.1114  0.2623 -0.1552
 1323SOL     hw 5290   6.238   4.796   4.600 -2.3906 -0.7621  2.3566
 1323SOL     hw 5291   6.345   4.705   4.654 -1.7838 -0.7424  1.2248
 1323SOL     vw 5292   6.304   4.782   4.654 -0.4685 -0.0055  0.3583
 1324SOL     ow 5293   6.180   3.719   6.808  0.6048  0.3198  0.1400
 1324SOL     hw 5294   6.217   3.778   6.873 -0.8162  0.9185  0.4288
 1324SOL     hw 5295   6.086   3.737   6.809 -0.1688 -3.0497  1.3977
 1324SOL     vw 5296   6.173   3.729   6.816  0.3152 -0.0459  0.3443
 1325SOL     ow 5297   2.542   6.498   5.031  0.2359  0.1535  0.1426
 1325SOL     hw 5298   2.479   6.515   5.102 -0.9808 -1.3025 -0.5413
 1325SOL     hw 5299   2.523   6.409   5.002  1.4807  0.3006 -1.2571
 1325SOL     vw 5300   2.531   6.489   5.036  0.2395 -0.0193 -0.1321
 1326SOL     ow 5301   6.766   3.272   5.544 -0.2076 -0.9655  0.0930
 1326SOL     hw 5302   6.700   3.267   5.613 -0.0631  0.2661  0.3539
 1326SOL     hw 5303   6.849   3.279   5.591 -0.2157  1.4496 -0.1097
 1326SOL     vw 5304   6.768   3.272   5.559 -0.1898 -0.4843  0.1006
 1327SOL     ow 5305   3.744   1.441   4.113 -0.3849 -0.4325  0.8030
 1327SOL     hw 5306   3.715   1.527   4.081 -1.0867 -0.4650  1.3270
 1327SOL     hw 5307   3.793   1.404   4.039  3.3266  1.9530  1.8127
 1327SOL     vw 5308   3.746   1.448   4.099  0.0122 -0.1221  1.0054
 1328SOL     ow 5309   1.067   0.030   4.439  0.0746 -0.0679  0.6200
 1328SOL     hw 5310   1.055  -0.042   4.501 -0.9446 -2.4399 -2.1026
 1328SOL     hw 5311   0.991   0.025   4.381  1.3631  1.4223 -1.3415
 1328SOL     vw 5312   1.055   0.020   4.440  0.1101 -0.1843  0.0019
 1329SOL     ow 5313   2.249   3.338   4.773 -0.1021 -0.8292 -0.0108
 1329SOL     hw 5314   2.176   3.401   4.779  1.0621  0.6379 -0.5136
 1329SOL     hw 5315   2.255   3.318   4.680  1.1674  0.4027 -0.2343
 1329SOL     vw 5316   2.240   3.344   4.762  0.2191 -0.4730 -0.1068
 1330SOL     ow 5317   3.699   0.142   0.819  0.1838  0.2438 -0.3420
 1330SOL     hw 5318   3.653   0.221   0.850 -2.3556 -0.8898 -0.9371
 1330SOL     hw 5319   3.674   0.074   0.881  0.3897 -0.6068 -1.1665
 1330SOL     vw 5320   3.690   0.144   0.831 -0.1240 -0.0180 -0.5293
 1331SOL     ow 5321   6.202   3.541   2.012 -0.1405  0.6063  0.5388
 1331SOL     hw 5322   6.188   3.629   1.977 -1.3609  0.4795  0.6513
 1331SOL     hw 5323   6.167   3.545   2.101 -0.2438  0.0060  0.5318
 1331SOL     vw 5324   6.195   3.553   2.019 -0.3154  0.5102  0.5527
 1332SOL     ow 5325   2.078   4.129   2.087  0.1969 -0.0975  0.3720
 1332SOL     hw 5326   2.018   4.204   2.088 -0.0764 -0.3197  1.4223
 1332SOL     hw 5327   2.047   4.074   2.016 -0.5336  0.0369  0.5845
 1332SOL     vw 5328   2.066   4.132   2.078  0.0644 -0.1092  0.5387
 1333SOL     ow 5329   1.257   2.153   3.770  0.3103  0.3867 -0.0072
 1333SOL     hw 5330   1.217   2.143   3.684  0.4263  2.8252 -0.3975
 1333SOL     hw 5331   1.334   2.207   3.755  1.3883 -0.6810  1.3794
 1333SOL     vw 5332   1.262   2.159   3.757  0.4678  0.5677  0.1243
 1334SOL     ow 5333   3.269   1.438   3.473 -0.5139  0.3319 -0.3675
 1334SOL     hw 5334   3.336   1.504   3.460 -0.5013  0.1075 -1.5216
 1334SOL     hw 5335   3.251   1.403   3.386 -1.1589 -0.5637  0.0981
 1334SOL     vw 5336   3.275   1.442   3.460 -0.5972  0.1841 -0.4582
 1335SOL     ow 5337   6.413   3.948   6.173  0.4306 -0.0958 -0.4113
 1335SOL     hw 5338   6.418   3.941   6.268  3.5083  2.3279 -0.2269
 1335SOL     hw 5339   6.346   4.015   6.158 -0.0605 -0.4765  0.0387
 1335SOL     vw 5340   6.405   3.956   6.184  0.7718  0.1738 -0.3276
 1336SOL     ow 5341   4.449   6.726   5.983 -0.1454 -0.3122 -0.0034
 1336SOL     hw 5342   4.416   6.814   5.964 -0.4546  0.2021  2.5798
 1336SOL     hw 5343   4.503   6.704   5.907 -0.7402  1.7372 -1.1045
 1336SOL     vw 5344   4.451   6.734   5.970 -0.2646  0.0260  0.1919
 1337SOL     ow 5345   6.115   4.674   3.180  0.3280  0.8302 -0.4690
 1337SOL     hw 5346   6.119   4.621   3.101  1.0998  2.2926 -1.4486
 1337SOL     hw 5347   6.207   4.690   3.203  0.1229  2.0865 -0.4570
 1337SOL     vw 5348   6.128   4.669   3.173  0.4029  1.1888 -0.5965
 1338SOL     ow 5349   3.543   4.811   4.020 -0.0264 -0.3903  0.1770
 1338SOL     hw 5350   3.550   4.730   3.969  0.0201 -0.7831  0.7952
 1338SOL     hw 5351   3.565   4.880   3.958  0.2363 -0.8757 -0.2814
 1338SOL     vw 5352   3.547   4.809   4.005  0.0143 -0.5062  0.1981
 1339SOL     ow 5353   6.252   0.743   4.447 -0.2383  0.6933  0.1629
 1339SOL     hw 5354   6.222   0.764   4.535  0.8163  1.7266  0.3017
 1339SOL     hw 5355   6.315   0.671   4.460 -1.2586 -0.2387  0.0638
 1339SOL     vw 5356   6.257   0.736   4.460 -0.2339  0.7067  0.1683
 1340SOL     ow 5357   0.137   6.273   6.584 -0.4963  0.3698  0.2010
 1340SOL     hw 5358   0.207   6.210   6.570 -1.6741 -1.0665  0.4603
 1340SOL     hw 5359   0.172   6.335   6.649  0.2534 -0.7752  0.9216
 1340SOL     vw 5360   0.150   6.273   6.591 -0.5528  0.0288  0.3304
 1341SOL     ow 5361   6.401   3.334   0.597  0.4986  0.0237 -0.3252
 1341SOL     hw 5362   6.346   3.282   0.656  1.5903 -0.0388  0.6616
 1341SOL     hw 5363   6.341   3.359   0.526 -0.4513 -1.2265 -0.0211
 1341SOL     vw 5364   6.386   3.330   0.595  0.5171 -0.1495 -0.1549
 1342SOL     ow 5365   0.726   4.292   3.553  0.7399  0.0486  0.2883
 1342SOL     hw 5366   0.723   4.382   3.586  0.4785  0.0644  0.2205
 1342SOL     hw 5367   0.773   4.243   3.621  2.5264  0.5900 -0.4834
 1342SOL     vw 5368   0.732   4.298   3.566  0.9412  0.1218  0.1775
 1343SOL     ow 5369   7.069   1.552   0.470  0.1309 -0.6643 -0.0463
 1343SOL     hw 5370   7.081   1.647   0.464  1.0601 -0.8049 -0.7428
 1343SOL     hw 5371   7.158   1.517   0.467 -0.1911 -1.5517  0.4359
 1343SOL     vw 5372   7.083   1.560   0.469  0.2110 -0.8000 -0.0746
 1344SOL     ow 5373   1.156   5.628   4.386  1.0264  0.6798 -0.4665
 1344SOL     hw 5374   1.243   5.664   4.404  0.7581  1.2844 -0.3625
 1344SOL     hw 5375   1.155   5.544   4.434  0.9484  1.4646  0.9664
 1344SOL     vw 5376   1.167   5.621   4.395  0.9807  0.8631 -0.2637
 1345SOL     ow 5377   2.250   2.755   6.573 -0.3672 -0.3992 -0.2684
 1345SOL     hw 5378   2.278   2.757   6.665  0.0299 -0.0800 -0.3954
 1345SOL     hw 5379   2.228   2.663   6.557 -0.7164 -0.4049  0.2282
 1345SOL     vw 5380   2.251   2.743   6.583 -0.3610 -0.3579 -0.2196
 1346SOL     ow 5381   4.523   2.393   6.430 -0.2529 -0.7287  0.0765
 1346SOL     hw 5382   4.554   2.303   6.423 -2.5045 -1.4621 -1.7372
 1346SOL     hw 5383   4.600   2.447   6.413  0.8898 -2.3304  0.0147
 1346SOL     vw 5384   4.537   2.388   6.427 -0.3994 -1.0368 -0.1709
 1347SOL     ow 5385   2.079   6.177   5.906 -0.7666  0.2345  0.6066
 1347SOL     hw 5386   2.065   6.215   5.993 -0.4614  2.8327 -0.3699
 1347SOL     hw 5387   1.992   6.176   5.866 -0.9257 -1.0675  0.9541
 1347SOL     vw 5388   2.066   6.182   5.912 -0.7474  0.4055  0.5236
 1348SOL     ow 5389   1.416   1.342   1.259  0.9873  0.3509  0.2314
 1348SOL     hw 5390   1.382   1.408   1.198  0.0399 -0.7128 -0.4319
 1348SOL     hw 5391   1.437   1.267   1.204  0.6547 -0.4303  1.1323
 1348SOL     vw 5392   1.414   1.341   1.244  0.8184  0.1075  0.2627
 1349SOL     ow 5393   5.615   1.455   1.106 -0.8001  0.7256 -0.4652
 1349SOL     hw 5394   5.585   1.491   1.190 -1.0503 -1.3416  0.3934
 1349SOL     hw 5395   5.550   1.486   1.043 -1.0030  1.7539  0.2220
 1349SOL     vw 5396   5.602   1.464   1.109 -0.8597  0.5885 -0.2612
 1350SOL     ow 5397   6.819   4.158   0.831 -0.8516 -0.1567 -0.0322
 1350SOL     hw 5398   6.874   4.222   0.876 -0.6671 -0.3923  0.0779
 1350SOL     hw 5399   6.779   4.207   0.759 -0.9685  0.1631  0.2457
 1350SOL     vw 5400   6.821   4.173   0.827 -0.8426 -0.1457  0.0190
 1351SOL     ow 5401   4.671   6.807   6.106 -0.5049  0.4090 -0.1808
 1351SOL     hw 5402   4.666   6.765   6.192  1.8151 -1.6704 -0.9559
 1351SOL     hw 5403   4.602   6.766   6.055  0.8529 -1.6442 -0.5072
 1351SOL     vw 5404   4.661   6.796   6.111 -0.0196 -0.1364 -0.3259
 1352SOL     ow 5405   0.112   1.212   3.339 -0.1076  0.1981  0.2074
 1352SOL     hw 5406   0.191   1.183   3.384  0.1406 -0.4574 -0.6342
 1352SOL     hw 5407   0.048   1.227   3.409  0.3346 -0.5987  0.7927
 1352SOL     vw 5408   0.114   1.210   3.354 -0.0165  0.0065  0.1736
 1353SOL     ow 5409   1.254   1.914   5.500  0.0427  0.1150 -0.1736
 1353SOL     hw 5410   1.204   1.967   5.562 -1.0249 -0.6771 -0.3176
 1353SOL     hw 5411   1.311   1.976   5.455 -1.3341  1.1807 -0.5090
 1353SOL     vw 5412   1.255   1.929   5.502 -0.2798  0.1511 -0.2367
 1354SOL     ow 5413   6.863   6.911   4.707 -0.1577  0.5893 -0.0484
 1354SOL     hw 5414   6.788   6.917   4.767  0.1191  0.8412  0.2718
 1354SOL     hw 5415   6.884   6.817   4.707 -0.4149  0.5294 -0.0670
 1354SOL     vw 5416   6.856   6.899   4.715 -0.1550  0.6144 -0.0088
 1355SOL     ow 5417   6.840   1.224   0.890  0.2017  0.0517  0.0115
 1355SOL     hw 5418   6.748   1.205   0.910  0.4184  0.2290  1.2457
 1355SOL     hw 5419   6.854   1.184   0.804 -0.9033 -0.3793  0.0116
 1355SOL     vw 5420   6.830   1.216   0.881  0.0844  0.0182  0.1743
 1356SOL     ow 5421   4.876   0.684   1.770 -0.0489  0.3509 -0.7673
 1356SOL     hw 5422   4.782   0.686   1.785 -0.4264  1.7197 -2.8616
 1356SOL     hw 5423   4.905   0.600   1.806 -1.9260  0.2368  0.5783
 1356SOL     vw 5424   4.868   0.673   1.776 -0.3464  0.5164 -0.8661
 1357SOL     ow 5425   6.575   2.755   0.969  0.0659  0.4787 -0.0738
 1357SOL     hw 5426   6.653   2.803   0.997 -0.6660  0.5209  2.1124
 1357SOL     hw 5427   6.502   2.803   1.008 -1.3249  1.5241 -3.5522
 1357SOL     vw 5428   6.576   2.768   0.978 -0.2141  0.6223 -0.2443
 1358SOL     ow 5429   6.420   0.752   3.155  0.0453  0.5144  0.5073
 1358SOL     hw 5430   6.342   0.799   3.125  0.5266  0.4772 -0.8916
 1358SOL     hw 5431   6.414   0.666   3.113 -0.3998 -0.4112  2.3716
 1358SOL     vw 5432   6.409   0.746   3.145  0.0498  0.3874  0.5687
 1359SOL     ow 5433   3.267   3.554   0.310 -0.4949 -0.1844  0.1669
 1359SOL     hw 5434   3.314   3.532   0.391  0.5910  1.1829 -0.0408
 1359SOL     hw 5435   3.179   3.520   0.323 -0.7314  1.1001  2.5120
 1359SOL     vw 5436   3.262   3.547   0.323 -0.3827  0.1655  0.4489
 1360SOL     ow 5437   0.475   4.147   2.717  0.7591  0.3187  0.3433
 1360SOL     hw 5438   0.415   4.200   2.666  1.0265  1.1381  0.8615
 1360SOL     hw 5439   0.434   4.141   2.804 -0.7871 -2.8536 -0.4535
 1360SOL     vw 5440   0.462   4.153   2.722  0.5904  0.0083  0.3064
 1361SOL     ow 5441   5.148   6.322   1.592 -0.2064  0.1511  0.2501
 1361SOL     hw 5442   5.165   6.238   1.635  0.3672 -0.3585 -0.9144
 1361SOL     hw 5443   5.111   6.298   1.507  0.5011  1.0451 -0.3350
 1361SOL     vw 5444   5.145   6.307   1.586 -0.0372  0.2019  0.0193
 1362SOL     ow 5445   1.823   0.044   0.816 -0.2293  0.3098  0.1292
 1362SOL     hw 5446   1.911   0.065   0.787 -0.3048  1.4343  0.6611
 1362SOL     hw 5447   1.834   0.007   0.903 -0.3291  1.3789  0.6172
 1362SOL     vw 5448   1.836   0.042   0.824 -0.2524  0.5992  0.2637
 1363SOL     ow 5449   2.243   1.821   0.615 -0.1235 -0.0990 -0.1047
 1363SOL     hw 5450   2.331   1.824   0.578  0.4401 -0.8666  1.1174
 1363SOL     hw 5451   2.225   1.912   0.640  0.8327 -0.1162  0.7359
 1363SOL     vw 5452   2.252   1.834   0.614  0.0771 -0.2025  0.1675
 1364SOL     ow 5453   0.901   2.683   2.782  0.6710  0.0049 -0.1695
 1364SOL     hw 5454   0.963   2.611   2.790  0.2889 -0.3755 -0.5442
 1364SOL     hw 5455   0.831   2.647   2.727 -1.2469 -0.4827  2.4249
 1364SOL     vw 5456   0.900   2.669   2.776  0.3676 -0.1097  0.1233
 1365SOL     ow 5457   0.371   5.638   6.507 -0.0499 -0.7718  0.3229
 1365SOL     hw 5458   0.276   5.627   6.511 -0.0768 -0.6048  0.1884
 1365SOL     hw 5459   0.405   5.588   6.581 -0.3630  0.5244  1.3865
 1365SOL     vw 5460   0.363   5.630   6.517 -0.0948 -0.5786  0.4458
 1366SOL     ow 5461   1.357   1.893   4.464 -0.1701  0.1469  0.4087
 1366SOL     hw 5462   1.396   1.933   4.387  1.9265  0.6508  1.6349
 1366SOL     hw 5463   1.263   1.909   4.455  0.2536  2.2946 -0.8578
 1366SOL     vw 5464   1.350   1.900   4.453  0.1624  0.4967  0.4036
 1367SOL     ow 5465   7.033   6.156   0.099 -0.1964  0.0743 -0.5199
 1367SOL     hw 5466   6.961   6.095   0.118  0.1298 -0.0025  0.5182
 1367SOL     hw 5467   7.110   6.099   0.089  0.1209  0.2967  0.5166
 1367SOL     vw 5468   7.033   6.140   0.100 -0.1116  0.0935 -0.2462
 1368SOL     ow 5469   4.192   3.832   1.559  0.3157  0.4883  0.0197
 1368SOL     hw 5470   4.200   3.859   1.650 -1.2091 -0.2675  0.4076
 1368SOL     hw 5471   4.281   3.838   1.524  0.6256  2.6085  1.0115
 1368SOL     vw 5472   4.205   3.837   1.566  0.1552  0.6683  0.2017
 1369SOL     ow 5473   1.353   3.589   2.486 -0.3521 -0.0139  0.1189
 1369SOL     hw 5474   1.354   3.507   2.436 -0.1572  0.5375 -0.8108
 1369SOL     hw 5475   1.301   3.649   2.433  1.7796  1.2851 -0.6308
 1369SOL     vw 5476   1.347   3.586   2.472 -0.0451  0.2303 -0.1026
 1370SOL     ow 5477   4.631   3.621   3.767  0.0092  0.2096 -0.0739
 1370SOL     hw 5478   4.564   3.666   3.817 -0.1017  0.8931 -0.8143
 1370SOL     hw 5479   4.585   3.547   3.726  0.5796 -1.8579  2.6886
 1370SOL     vw 5480   4.616   3.617   3.768  0.0699  0.0272  0.1929
 1371SOL     ow 5481   4.973   5.354   4.091  0.4026 -0.1198 -0.6632
 1371SOL     hw 5482   4.948   5.265   4.116  0.3977  0.1019  0.1395
 1371SOL     hw 5483   5.064   5.362   4.119  0.7380 -0.2127 -1.6786
 1371SOL     vw 5484   4.982   5.343   4.098  0.4461 -0.1028 -0.6914
 1372SOL     ow 5485   2.725   2.205   2.949 -0.2308 -0.0092  0.2370
 1372SOL     hw 5486   2.763   2.283   2.990 -1.2347  0.4132  0.3905
 1372SOL     hw 5487   2.723   2.225   2.856 -0.1150 -0.0143  0.2334
 1372SOL     vw 5488   2.730   2.218   2.942 -0.3479  0.0459  0.2568
 1373SOL     ow 5489   4.433   4.256   4.822  0.3527  0.0451 -0.5319
 1373SOL     hw 5490   4.370   4.328   4.832  0.9348  0.7339 -1.6203
 1373SOL     hw 5491   4.400   4.188   4.880  0.3358  1.5395  1.3028
 1373SOL     vw 5492   4.420   4.257   4.831  0.4272  0.3331 -0.4334
 1374SOL     ow 5493   6.752   4.875   2.996 -0.8178  0.0976 -0.2706
 1374SOL     hw 5494   6.717   4.840   2.914 -2.1427 -0.0175  0.3129
 1374SOL     hw 5495   6.685   4.855   3.061  0.1718  0.2574  0.8389
 1374SOL     vw 5496   6.739   4.867   2.994 -0.8619  0.1035 -0.0472
 1375SOL     ow 5497   0.403   5.382   0.893  0.0105  0.3802  0.3805
 1375SOL     hw 5498   0.350   5.327   0.835 -1.4471  0.3993  1.6516
 1375SOL     hw 5499   0.490   5.341   0.891 -0.6841 -1.1664  0.2320
 1375SOL     vw 5500   0.407   5.369   0.885 -0.2735  0.1783  0.5286
 1376SOL     ow 5501   5.668   0.805   0.474  0.2221  0.7247  0.9416
 1376SOL     hw 5502   5.749   0.775   0.514 -0.1253 -0.1160  1.0304
 1376SOL     hw 5503   5.598   0.762   0.524 -0.2230 -0.4866 -0.6188
 1376SOL     vw 5504   5.669   0.796   0.486  0.1175  0.4540  0.7474
 1377SOL     ow 5505   6.284   4.460   2.426  0.3802 -0.1830  0.0370
 1377SOL     hw 5506   6.262   4.433   2.516  0.5087 -0.0261  0.1160
 1377SOL     hw 5507   6.201   4.490   2.390  0.5438  0.8936  0.5074
 1377SOL     vw 5508   6.270   4.461   2.433  0.4187 -0.0205  0.1093
 1378SOL     ow 5509   5.441   3.554   1.231 -0.1860  0.3693 -0.0068
 1378SOL     hw 5510   5.435   3.508   1.315 -0.5895 -1.4979 -1.0046
 1378SOL     hw 5511   5.364   3.611   1.230 -2.5314 -2.5603 -0.7163
 1378SOL     vw 5512   5.430   3.556   1.242 -0.5486 -0.2636 -0.2321
 1379SOL     ow 5513   5.960   5.609   0.720  0.9392  0.8896  0.2376
 1379SOL     hw 5514   6.024   5.662   0.766  0.0360  2.4769 -0.2666
 1379SOL     hw 5515   5.908   5.568   0.789  0.8412  1.6895  0.6403
 1379SOL     vw 5516   5.962   5.610   0.735  0.8075  1.2045  0.2242
 1380SOL     ow 5517   4.439   5.673   5.034  0.8513 -0.2984  0.2230
 1380SOL     hw 5518   4.357   5.635   5.064  1.6115 -1.9052  0.3935
 1380SOL     hw 5519   4.504   5.604   5.047  2.3179  1.0409  0.4526
 1380SOL     vw 5520   4.437   5.659   5.039  1.1454 -0.3338  0.2754
 1381SOL     ow 5521   0.699   0.770   0.964  0.0097 -0.2138 -0.1218
 1381SOL     hw 5522   0.723   0.696   0.908 -0.8078  0.1483 -0.9832
 1381SOL     hw 5523   0.603   0.766   0.968 -0.0661  0.9722 -0.4303
 1381SOL     vw 5524   0.690   0.759   0.957 -0.1082 -0.0096 -0.2761
 1382SOL     ow 5525   5.120   1.687   2.770 -0.5837  0.0533 -0.0423
 1382SOL     hw 5526   5.084   1.607   2.808  0.8861 -0.3130  0.6856
 1382SOL     hw 5527   5.132   1.745   2.845 -0.7367  0.5856 -0.4298
 1382SOL     vw 5528   5.117   1.684   2.785 -0.4098  0.0752  0.0026
 1383SOL     ow 5529   2.116   2.826   6.145  0.3176 -0.3168 -0.3043
 1383SOL     hw 5530   2.069   2.791   6.070  1.7498 -0.2380 -1.2733
 1383SOL     hw 5531   2.082   2.778   6.220 -3.2809  1.6123 -0.5059
 1383SOL     vw 5532   2.106   2.815   6.145  0.0318 -0.0520 -0.4587
 1384SOL     ow 5533   3.104   6.898   1.095 -0.0977  0.1591  0.1075
 1384SOL     hw 5534   3.142   6.975   1.137  3.6806 -1.1876 -0.4807
 1384SOL     hw 5535   3.131   6.825   1.151  2.9533 -1.4310 -3.0643
 1384SOL     vw 5536   3.113   6.898   1.108  0.8034 -0.2282 -0.3886
 1385SOL     ow 5537   2.506   0.237   5.576  0.0585  0.6508  0.2213
 1385SOL     hw 5538   2.544   0.324   5.590 -0.8507  1.0053  0.5353
 1385SOL     hw 5539   2.433   0.252   5.517  0.3289 -0.0116 -0.2896
 1385SOL     vw 5540   2.502   0.251   5.570 -0.0259  0.6102  0.1953
 1386SOL     ow 5541   2.695   0.921   0.877  0.1022  0.0940  0.2652
 1386SOL     hw 5542   2.762   0.965   0.824 -2.9699  0.7985 -3.5451
 1386SOL     hw 5543   2.689   0.833   0.840 -0.7729 -0.0908  0.8249
 1386SOL     vw 5544   2.703   0.916   0.865 -0.4187  0.1626 -0.1636
 1387SOL     ow 5545   4.145   1.614   0.934 -0.1557 -0.2590 -0.4055
 1387SOL     hw 5546   4.210   1.602   1.003 -0.5851  0.2534  0.0960
 1387SOL     hw 5547   4.123   1.526   0.905 -1.0972 -0.5704  1.1658
 1387SOL     vw 5548   4.151   1.601   0.939 -0.3366 -0.2325 -0.1320
 1388SOL     ow 5549   5.384   5.020   3.246 -0.3086 -0.0429  0.3266
 1388SOL     hw 5550   5.402   5.045   3.155 -0.4682 -0.6906  0.1103
 1388SOL     hw 5551   5.360   4.927   3.241 -0.0200 -0.1649  1.0671
 1388SOL     vw 5552   5.383   5.011   3.233 -0.2916 -0.1442  0.3957
 1389SOL     ow 5553   6.432   5.641   5.894 -0.0698  0.2208 -0.1514
 1389SOL     hw 5554   6.339   5.652   5.913  0.4695  2.2535  1.6712
 1389SOL     hw 5555   6.439   5.658   5.800 -1.4422  0.7068 -0.1854
 1389SOL     vw 5556   6.420   5.645   5.884 -0.1795  0.5534  0.0846
 1390SOL     ow 5557   2.754   3.590   5.765 -0.0426 -0.2645 -0.0766
 1390SOL     hw 5558   2.697   3.593   5.841 -0.8625  1.7998 -0.6921
 1390SOL     hw 5559   2.819   3.658   5.781  0.0070 -0.0724 -1.0199
 1390SOL     vw 5560   2.755   3.599   5.777 -0.1442  0.0331 -0.2823
 1391SOL     ow 5561   6.730   6.805   1.454 -0.1694 -0.5712 -0.1491
 1391SOL     hw 5562   6.786   6.801   1.532  1.1539  0.2889 -1.0192
 1391SOL     hw 5563   6.695   6.894   1.454  0.2415 -0.3999 -0.7877
 1391SOL     vw 5564   6.733   6.816   1.464  0.0594 -0.4351 -0.3482
 1392SOL     ow 5565   4.610   4.630   3.943 -0.7674  0.0270  0.2839
 1392SOL     hw 5566   4.701   4.639   3.913 -0.8288  1.3801  0.4395
 1392SOL     hw 5567   4.557   4.654   3.866 -0.9379  1.8319  0.8977
 1392SOL     vw 5568   4.615   4.635   3.929 -0.7980  0.4439  0.3854
 1393SOL     ow 5569   6.809   5.558   1.710 -0.2279  0.2063 -0.0844
 1393SOL     hw 5570   6.868   5.555   1.634 -0.3207  0.7543 -0.1820
 1393SOL     hw 5571   6.726   5.591   1.674 -0.1152  0.9851  0.3520
 1393SOL     vw 5572   6.805   5.562   1.695 -0.2255  0.3815 -0.0398
 1394SOL     ow 5573   5.129   3.558   6.843  0.3462 -0.9531 -0.0036
 1394SOL     hw 5574   5.072   3.581   6.916 -1.4295  0.9481 -1.8441
 1394SOL     hw 5575   5.134   3.463   6.846  0.0632 -0.9625  2.3475
 1394SOL     vw 5576   5.122   3.549   6.853  0.0746 -0.7036  0.0639
 1395SOL     ow 5577   1.547   4.442   2.057  0.2676  0.3028  0.0073
 1395SOL     hw 5578   1.565   4.349   2.060 -1.6083 -0.0968  1.1430
 1395SOL     hw 5579   1.617   4.482   2.108 -0.5133 -0.8536  2.1280
 1395SOL     vw 5580   1.558   4.435   2.064 -0.0829  0.0975  0.4370
 1396SOL     ow 5581   5.289   6.438   1.273 -0.1409  0.3671 -0.6245
 1396SOL     hw 5582   5.208   6.475   1.307 -0.7848 -0.9340 -0.6837
 1396SOL     hw 5583   5.267   6.411   1.184  0.3303 -0.0585 -0.6162
 1396SOL     vw 5584   5.275   6.439   1.266 -0.1638  0.1392 -0.6312
 1397SOL     ow 5585   1.299   0.442   1.738 -0.1959  0.1611  0.5694
 1397SOL     hw 5586   1.331   0.504   1.804  2.1905 -0.5876  0.1867
 1397SOL     hw 5587   1.299   0.358   1.783  0.2978 -0.1685 -0.0449
 1397SOL     vw 5588   1.303   0.439   1.753  0.1841  0.0188  0.4379
 1398SOL     ow 5589   4.084   2.378   6.618 -0.4974  0.3606 -0.1956
 1398SOL     hw 5590   4.147   2.379   6.545 -1.4395  0.7092 -1.0238
 1398SOL     hw 5591   4.111   2.303   6.671 -1.0805 -1.2791 -2.0781
 1398SOL     vw 5592   4.096   2.368   6.615 -0.6988  0.1901 -0.5531
 1399SOL     ow 5593   0.627   6.781   7.018  0.0835  0.1497 -0.3276
 1399SOL     hw 5594   0.628   6.697   7.063  0.4039  0.4678  0.2710
 1399SOL     hw 5595   0.717   6.795   6.990 -0.1464 -0.1359 -1.2613
 1399SOL     vw 5596   0.639   6.772   7.020  0.0954  0.1538 -0.3717
 1400SOL     ow 5597   6.849   3.060   6.574 -0.3564  0.2616 -0.2235
 1400SOL     hw 5598   6.900   3.120   6.627 -1.8833  1.1062  0.3498
 1400SOL     hw 5599   6.809   3.000   6.638 -2.2414  1.3121 -0.3417
 1400SOL     vw 5600   6.850   3.060   6.590 -0.8066  0.5118 -0.1636
 1401SOL     ow 5601   1.455   0.145   6.789 -0.5345 -0.0814  0.1147
 1401SOL     hw 5602   1.509   0.085   6.841  3.9743  1.2005 -2.6023
 1401SOL     hw 5603   1.459   0.228   6.836  1.7434  0.5261 -1.0373
 1401SOL     vw 5604   1.462   0.148   6.802  0.3608  0.1679 -0.3958
 1402SOL     ow 5605   0.128   0.412   0.691 -0.2123 -0.5210  0.3343
 1402SOL     hw 5606   0.143   0.505   0.677 -1.1797 -0.6412 -2.0520
 1402SOL     hw 5607   0.197   0.384   0.750  0.2664  1.6445  0.8535
 1402SOL     vw 5608   0.139   0.420   0.697 -0.2768 -0.2512  0.0880
 1403SOL     ow 5609   0.494   5.154   2.081 -0.6432 -0.2205 -0.1142
 1403SOL     hw 5610   0.571   5.208   2.099 -2.2509  1.7363  1.4742
 1403SOL     hw 5611   0.529   5.066   2.067  1.8335  0.5086  0.8831
 1403SOL     vw 5612   0.509   5.149   2.081 -0.5285  0.1338  0.2269
 1404SOL     ow 5613   3.256   3.357   4.227 -0.1941  0.0682  0.1545
 1404SOL     hw 5614   3.187   3.322   4.171  0.1811  0.2633 -0.4424
 1404SOL     hw 5615   3.212   3.378   4.309 -0.8379  0.1704 -0.2116
 1404SOL     vw 5616   3.241   3.355   4.230 -0.2296  0.1075  0.0274
 1405SOL     ow 5617   3.349   0.329   5.010  0.2958 -0.1420  0.0253
 1405SOL     hw 5618   3.417   0.276   4.968  0.1896 -0.5797  0.3980
 1405SOL     hw 5619   3.273   0.320   4.952  0.4244 -0.0011 -0.1668
 1405SOL     vw 5620   3.348   0.321   4.997  0.2987 -0.1811  0.0491
 1406SOL     ow 5621   4.073   2.280   1.227 -0.8493 -0.8696 -0.3000
 1406SOL     hw 5622   4.106   2.289   1.317 -2.4047 -1.3337  0.3533
 1406SOL     hw 5623   4.143   2.235   1.180 -0.0128 -0.6367  0.6774
 1406SOL     vw 5624   4.087   2.275   1.233 -0.9441 -0.9001 -0.0849
 1407SOL     ow 5625   3.548   1.409   5.956  0.1255 -0.3623 -0.3657
 1407SOL     hw 5626   3.547   1.495   5.998  0.6193 -1.3739  1.8431
 1407SOL     hw 5627   3.638   1.379   5.965  0.0013 -1.0572 -1.2842
 1407SOL     vw 5628   3.560   1.417   5.963  0.1740 -0.5875 -0.1953
 1408SOL     ow 5629   0.718   1.931   4.158  0.0326 -0.6954 -0.8078
 1408SOL     hw 5630   0.706   1.924   4.253  0.4977  0.7382 -0.6223
 1408SOL     hw 5631   0.649   1.877   4.122 -0.7909 -0.4602  0.3440
 1408SOL     vw 5632   0.708   1.923   4.166 -0.0147 -0.4752 -0.6316
 1409SOL     ow 5633   3.707   7.031   2.320  0.3546 -0.4452  0.2511
 1409SOL     hw 5634   3.765   7.003   2.249  0.2594 -2.9728  1.0843
 1409SOL     hw 5635   3.621   6.999   2.295 -0.3688  1.5483 -0.0062
 1409SOL     vw 5636   3.704   7.023   2.307  0.2469 -0.5157  0.3272
 1410SOL     ow 5637   4.825   3.359   2.019  0.0201 -0.0753 -0.3800
 1410SOL     hw 5638   4.738   3.373   1.982  0.4918  1.6163 -0.9797
 1410SOL     hw 5639   4.875   3.437   1.993  1.9688 -1.3825 -0.7984
 1410SOL     vw 5640   4.820   3.371   2.011  0.3395 -0.0246 -0.5144
 1411SOL     ow 5641   1.666   0.451   2.572 -0.1799  0.4993  0.2048
 1411SOL     hw 5642   1.573   0.458   2.594 -0.0838 -0.2156  0.8675
 1411SOL     hw 5643   1.683   0.525   2.514 -1.0304  0.9518  0.5309
 1411SOL     vw 5644   1.656   0.462   2.567 -0.2795  0.4647  0.3352
 1412SOL     ow 5645   2.717   4.363   6.854 -0.0722 -0.8245 -0.1755
 1412SOL     hw 5646   2.771   4.372   6.775 -0.8756  1.3991 -0.5561
 1412SOL     hw 5647   2.760   4.419   6.919 -0.4851 -1.1082  0.3523
 1412SOL     vw 5648   2.730   4.372   6.852 -0.2326 -0.5686 -0.1559
 1413SOL     ow 5649   3.114   3.164   0.326 -0.3314 -0.1300  0.7153
 1413SOL     hw 5650   3.079   3.253   0.320  0.4445  0.0918 -1.2861
 1413SOL     hw 5651   3.039   3.110   0.351 -0.8783  1.0174  1.6609
 1413SOL     vw 5652   3.099   3.169   0.328 -0.3012  0.0508  0.5760
 1414SOL     ow 5653   1.710   0.840   6.091 -0.3373 -0.1102 -0.2458
 1414SOL     hw 5654   1.652   0.767   6.113  0.6831 -1.4628 -1.8288
 1414SOL     hw 5655   1.763   0.852   6.170 -1.3017 -0.2978  0.4437
 1414SOL     vw 5656   1.709   0.832   6.105 -0.3299 -0.3134 -0.3638
 1415SOL     ow 5657   3.155   3.424   4.466 -0.1236  0.2445 -0.4600
 1415SOL     hw 5658   3.174   3.361   4.536  2.4597  0.3531 -1.0004
 1415SOL     hw 5659   3.130   3.504   4.512  0.5344  0.0147  0.3105
 1415SOL     vw 5660   3.154   3.426   4.481  0.3039  0.2285 -0.4296
 1416SOL     ow 5661   5.398   6.032   6.924 -0.5464  1.0208  0.3303
 1416SOL     hw 5662   5.456   5.957   6.915 -1.2656  0.6192 -1.2998
 1416SOL     hw 5663   5.367   6.028   7.015  1.2248  0.7406  0.9735
 1416SOL     vw 5664   5.402   6.022   6.935 -0.4077  0.9310  0.1998
 1417SOL     ow 5665   6.955   6.557   5.254 -0.0925 -0.3921  0.2018
 1417SOL     hw 5666   6.971   6.474   5.299  0.0433  0.3335  1.5519
 1417SOL     hw 5667   6.860   6.557   5.238 -0.2492 -0.4073  1.0606
 1417SOL     vw 5668   6.944   6.546   5.258 -0.0951 -0.2983  0.4933
 1418SOL     ow 5669   1.573   2.990   1.002  0.3544 -0.5104  0.0834
 1418SOL     hw 5670   1.643   2.955   0.947  0.0912 -1.4337  0.3179
 1418SOL     hw 5671   1.524   3.049   0.945 -0.3397 -1.9764 -0.9032
 1418SOL     vw 5672   1.576   2.993   0.987  0.2281 -0.8258 -0.0158
 1419SOL     ow 5673   4.306   6.563   0.766  0.1781  0.1891  0.3908
 1419SOL     hw 5674   4.331   6.523   0.849  1.7874 -0.0718 -0.1674
 1419SOL     hw 5675   4.219   6.599   0.781  0.0723 -0.6300  1.9091
 1419SOL     vw 5676   4.298   6.562   0.779  0.3762  0.0463  0.5175
 1420SOL     ow 5677   6.447   0.113   4.003  0.0108  0.0056  0.6405
 1420SOL     hw 5678   6.460   0.065   3.921  1.2455 -0.1587  0.9215
 1420SOL     hw 5679   6.513   0.078   4.063  0.4073  1.4791  1.1128
 1420SOL     vw 5680   6.457   0.102   4.000  0.2260  0.1783  0.7398
 1421SOL     ow 5681   3.554   0.216   6.921 -0.0113  0.6352  0.1937
 1421SOL     hw 5682   3.550   0.122   6.904  0.7543  0.4939  0.7236
 1421SOL     hw 5683   3.618   0.224   6.992 -0.6852  1.4785  0.7212
 1421SOL     vw 5684   3.562   0.204   6.928  0.0007  0.7278  0.3333
 1422SOL     ow 5685   4.644   7.057   6.229 -0.2212 -0.5391 -0.2419
 1422SOL     hw 5686   4.657   6.971   6.189 -1.4730 -0.3912 -1.0286
 1422SOL     hw 5687   4.694   7.117   6.174 -1.4505 -0.4231 -1.2839
 1422SOL     vw 5688   4.652   7.053   6.216 -0.5484 -0.5043 -0.4830
 1423SOL     ow 5689   5.693   0.874   5.729 -0.6727  0.1926  0.7265
 1423SOL     hw 5690   5.750   0.798   5.740 -1.2642 -0.4616 -0.4883
 1423SOL     hw 5691   5.712   0.930   5.805  1.2590 -0.1896  0.5805
 1423SOL     vw 5692   5.703   0.872   5.741 -0.4959  0.0558  0.5469
 1424SOL     ow 5693   0.830   6.740   1.520 -0.4336  0.1663 -0.7361
 1424SOL     hw 5694   0.841   6.693   1.603  0.3527  0.1506 -0.8425
 1424SOL     hw 5695   0.738   6.726   1.497 -0.8176  0.6283  0.4091
 1424SOL     vw 5696   0.819   6.732   1.528 -0.3805  0.2251 -0.5991
 1425SOL     ow 5697   6.652   6.500   1.534 -0.3958  0.2451  0.3098
 1425SOL     hw 5698   6.590   6.477   1.604 -0.1765  1.7835  1.0548
 1425SOL     hw 5699   6.712   6.426   1.530 -1.6911 -0.8338  0.2468
 1425SOL     vw 5700   6.652   6.487   1.543 -0.5379  0.3059  0.3999
 1426SOL     ow 5701   4.113   1.147   1.839 -0.1547 -0.1068 -0.0387
 1426SOL     hw 5702   4.177   1.085   1.874 -1.3739 -0.9390  0.8015
 1426SOL     hw 5703   4.102   1.212   1.909 -0.9521 -0.5338  0.2510
 1426SOL     vw 5704   4.120   1.147   1.853 -0.4210 -0.2730  0.1104
 1427SOL     ow 5705   4.218   2.683   6.389 -0.7804  0.1639  0.3564
 1427SOL     hw 5706   4.156   2.740   6.345  0.1550 -0.0962 -1.3767
 1427SOL     hw 5707   4.304   2.710   6.356 -0.2459 -1.6976  0.0955
 1427SOL     vw 5708   4.221   2.694   6.379 -0.5867 -0.1161  0.0935
 1428SOL     ow 5709   6.920   0.986   1.188  0.0740  0.0420  0.3718
 1428SOL     hw 5710   6.864   0.922   1.145 -0.8766  1.1204 -0.0396
 1428SOL     hw 5711   6.959   0.938   1.262  1.2403 -1.6674 -1.2532
 1428SOL     vw 5712   6.918   0.971   1.192  0.1025 -0.0412  0.1032
 1429SOL     ow 5713   4.966   7.013   5.600  0.3497  0.5990 -0.3782
 1429SOL     hw 5714   5.021   7.057   5.665  0.3441  0.8015 -0.5107
 1429SOL     hw 5715   5.026   6.993   5.528  0.3090  0.5656 -0.4025
 1429SOL     vw 5716   4.981   7.016   5.599  0.3438  0.6211 -0.3989
 1430SOL     ow 5717   5.654   2.583   5.180  0.5043  0.5101  0.1871
 1430SOL     hw 5718   5.599   2.582   5.258  2.6861  0.4647  1.8315
 1430SOL     hw 5719   5.733   2.631   5.207  0.8899  1.4224 -2.3328
 1430SOL     vw 5720   5.657   2.589   5.194  0.8430  0.6243  0.0713
 1431SOL     ow 5721   4.218   0.742   4.141  0.0595  0.6424 -0.2071
 1431SOL     hw 5722   4.299   0.691   4.144 -0.9202 -1.1325 -1.5075
 1431SOL     hw 5723   4.168   0.712   4.217 -0.5931 -0.5373 -1.0739
 1431SOL     vw 5724   4.222   0.731   4.151 -0.1557  0.2526 -0.4928
 1432SOL     ow 5725   4.075   0.266   0.552  0.6306  0.5617 -0.1622
 1432SOL     hw 5726   4.088   0.327   0.625 -0.5019  2.3290 -1.3572
 1432SOL     hw 5727   4.137   0.295   0.486  1.1895 -0.6205 -0.1752
 1432SOL     vw 5728   4.085   0.278   0.553  0.5548  0.6389 -0.3216
 1433SOL     ow 5729   6.151   5.859   4.446 -0.5896  0.0992  0.7937
 1433SOL     hw 5730   6.108   5.859   4.360 -0.4489  0.3561  0.7206
 1433SOL     hw 5731   6.176   5.951   4.460  1.1776 -0.2488  0.2136
 1433SOL     vw 5732   6.149   5.871   4.437 -0.3378  0.0873  0.7074
 1434SOL     ow 5733   6.652   5.285   0.087 -0.5426 -0.3946  0.4876
 1434SOL     hw 5734   6.638   5.197   0.052 -2.0057  0.3195 -0.8895
 1434SOL     hw 5735   6.730   5.317   0.042 -1.0118 -0.3770 -0.3314
 1434SOL     vw 5736   6.660   5.278   0.076 -0.7975 -0.2980  0.1979
 1435SOL     ow 5737   3.843   4.900   3.388  0.0966 -0.0264 -0.2458
 1435SOL     hw 5738   3.751   4.920   3.404  0.1072 -0.5117  0.4513
 1435SOL     hw 5739   3.867   4.840   3.458  0.7756 -0.3981 -0.7883
 1435SOL     vw 5740   3.834   4.895   3.399  0.1875 -0.1395 -0.2255
 1436SOL     ow 5741   6.128   5.290   2.367 -0.4380 -0.3258  0.2275
 1436SOL     hw 5742   6.080   5.340   2.433  0.9251  1.1474  0.1529
 1436SOL     hw 5743   6.176   5.356   2.317  2.6447 -1.7504  1.0672
 1436SOL     vw 5744   6.128   5.305   2.369  0.1485 -0.3195  0.3283
 1437SOL     ow 5745   7.060   7.061   4.840  0.1196  0.5284  0.2127
 1437SOL     hw 5746   6.989   7.010   4.800 -0.2437  0.8675  0.4135
 1437SOL     hw 5747   7.016   7.116   4.904  0.3324  2.0034 -0.8571
 1437SOL     vw 5748   7.045   7.062   4.843  0.0999  0.7675  0.0982
 1438SOL     ow 5749   1.147   3.420   5.094  0.2964  0.0907 -0.1702
 1438SOL     hw 5750   1.070   3.363   5.094 -0.3114  0.8850 -0.3516
 1438SOL     hw 5751   1.171   3.428   5.002 -0.5197  1.2715 -0.3084
 1438SOL     vw 5752   1.140   3.414   5.082  0.1085  0.3512 -0.2124
 1439SOL     ow 5753   2.311   0.239   3.544  0.1253 -0.5444 -0.5490
 1439SOL     hw 5754   2.271   0.182   3.478 -1.4048 -0.6568  0.4331
 1439SOL     hw 5755   2.270   0.213   3.627  0.4153  1.0213  0.1282
 1439SOL     vw 5756   2.300   0.228   3.546 -0.0383 -0.3527 -0.3302
 1440SOL     ow 5757   3.174   4.708   2.123  0.1414 -0.5975  0.4109
 1440SOL     hw 5758   3.264   4.709   2.156  0.0739  0.6162  0.6228
 1440SOL     hw 5759   3.183   4.698   2.028  0.6777  2.0720  0.0970
 1440SOL     vw 5760   3.187   4.707   2.115  0.2031 -0.0851  0.3974
 1441SOL     ow 5761   6.261   0.547   2.604  0.6069  0.7041  0.1372
 1441SOL     hw 5762   6.244   0.471   2.550  1.3336  0.4853  0.1987
 1441SOL     hw 5763   6.186   0.605   2.589 -0.6171 -0.5635  1.0952
 1441SOL     vw 5764   6.249   0.545   2.595  0.5414  0.5080  0.2718
 1442SOL     ow 5765   5.877   4.950   2.358 -0.3285  0.0498  0.2133
 1442SOL     hw 5766   5.790   4.913   2.345  0.1388 -1.0071 -0.0407
 1442SOL     hw 5767   5.899   4.990   2.274 -1.3878  2.1853  0.8877
 1442SOL     vw 5768   5.868   4.950   2.345 -0.4065  0.1919  0.2688
 1443SOL     ow 5769   2.596   4.257   2.356  0.3366 -0.0550 -0.1002
 1443SOL     hw 5770   2.679   4.210   2.355  0.6227  0.4356  0.2215
 1443SOL     hw 5771   2.591   4.294   2.444 -0.4336 -0.4560  0.0266
 1443SOL     vw 5772   2.606   4.256   2.368  0.2728 -0.0429 -0.0410
 1444SOL     ow 5773   4.596   5.010   1.969  0.2071  0.2578  0.1936
 1444SOL     hw 5774   4.593   5.100   2.002 -0.0648  0.7005 -0.9766
 1444SOL     hw 5775   4.508   4.994   1.934 -0.2528 -1.0696  1.8709
 1444SOL     vw 5776   4.584   5.020   1.969  0.1106  0.1411  0.2605
 1445SOL     ow 5777   2.892   2.061   5.312  0.6062  0.3018  0.4052
 1445SOL     hw 5778   2.924   2.037   5.225 -0.9497 -0.4990  0.0163
 1445SOL     hw 5779   2.921   2.151   5.324  1.0597  0.3427 -0.8389
 1445SOL     vw 5780   2.900   2.070   5.302  0.4607  0.2016  0.1898
 1446SOL     ow 5781   7.041   5.007   6.184 -0.0632  0.0553 -0.2460
 1446SOL     hw 5782   7.058   5.097   6.210  0.9597  0.0871 -0.9209
 1446SOL     hw 5783   7.111   4.957   6.226  0.2627 -0.2012 -1.0819
 1446SOL     vw 5784   7.053   5.012   6.193  0.1147  0.0255 -0.4451
 1447SOL     ow 5785   1.378   5.371   1.398  0.0997 -0.1795 -0.0270
 1447SOL     hw 5786   1.417   5.450   1.360  1.0658 -0.8347 -0.4549
 1447SOL     hw 5787   1.330   5.331   1.325 -1.5879  0.7086  0.5367
 1447SOL     vw 5788   1.377   5.376   1.383  0.0044 -0.1485 -0.0091
 1448SOL     ow 5789   6.276   3.465   6.676 -0.2322  0.1202  0.2876
 1448SOL     hw 5790   6.329   3.481   6.598 -0.9467 -1.1180 -0.4805
 1448SOL     hw 5791   6.221   3.391   6.653 -1.9911  1.0769  1.2168
 1448SOL     vw 5792   6.276   3.457   6.663 -0.5586  0.0830  0.3088
 1449SOL     ow 5793   5.018   0.197   2.997 -0.3241  0.5403  0.1459
 1449SOL     hw 5794   5.086   0.239   2.945  1.4618  2.0074  3.4150
 1449SOL     hw 5795   4.957   0.267   3.018 -1.0827 -0.0521 -0.0337
 1449SOL     vw 5796   5.019   0.211   2.993 -0.1884  0.6557  0.5535
 1450SOL     ow 5797   6.606   5.203   6.136 -0.0079  0.2982 -0.4159
 1450SOL     hw 5798   6.657   5.248   6.069 -0.6234  0.9264 -0.4696
 1450SOL     hw 5799   6.655   5.218   6.217  0.2690  0.2838 -0.5778
 1450SOL     vw 5800   6.619   5.210   6.138 -0.0529  0.3791 -0.4439
 1451SOL     ow 5801   2.310   3.385   6.480 -0.3387  0.1445 -0.4992
 1451SOL     hw 5802   2.264   3.469   6.471  2.5455  1.8665 -0.5703
 1451SOL     hw 5803   2.392   3.408   6.524 -0.2772 -3.0253  1.3003
 1451SOL     vw 5804   2.314   3.399   6.484  0.0499 -0.0465 -0.2716
 1452SOL     ow 5805   4.586   6.641   5.775  0.3162 -0.1213  0.2553
 1452SOL     hw 5806   4.681   6.652   5.781  0.4800 -0.5794 -1.1470
 1452SOL     hw 5807   4.568   6.638   5.681 -1.1527  0.4412  0.4879
 1452SOL     vw 5808   4.597   6.642   5.763  0.1442 -0.1078  0.1011
 1453SOL     ow 5809   4.265   3.843   5.550  0.1500  0.6405 -0.6746
 1453SOL     hw 5810   4.197   3.798   5.601 -0.9980  0.0045 -2.6440
 1453SOL     hw 5811   4.320   3.886   5.616 -3.0192  2.4873  1.0573
 1453SOL     vw 5812   4.263   3.843   5.565 -0.4199  0.8003 -0.7060
 1454SOL     ow 5813   0.391   6.168   3.604  0.1281 -0.0175 -0.2042
 1454SOL     hw 5814   0.469   6.134   3.560  0.7923  0.3346  0.6759
 1454SOL     hw 5815   0.412   6.163   3.697 -0.3471  1.3620  0.0029
 1454SOL     vw 5816   0.404   6.163   3.611  0.1531  0.2110 -0.0608
 1455SOL     ow 5817   3.930   5.352   2.474 -0.2582 -0.2239 -0.4270
 1455SOL     hw 5818   3.845   5.379   2.511 -0.4991 -1.6428  0.0934
 1455SOL     hw 5819   3.951   5.271   2.520  0.7126 -0.6248 -1.5617
 1455SOL     vw 5820   3.921   5.345   2.485 -0.1619 -0.4642 -0.5080
 1456SOL     ow 5821   1.431   4.723   4.260 -0.0645  0.6515  0.2117
 1456SOL     hw 5822   1.476   4.781   4.321 -0.6555  0.4731  0.8332
 1456SOL     hw 5823   1.348   4.703   4.304  0.4275 -1.2466  0.3477
 1456SOL     vw 5824   1.426   4.728   4.274 -0.0775  0.3774  0.3119
 1457SOL     ow 5825   3.685   1.688   4.022  0.1984 -0.3618 -0.6033
 1457SOL     hw 5826   3.712   1.684   3.930  1.3369 -0.0192 -0.2893
 1457SOL     hw 5827   3.647   1.775   4.032 -1.2102 -0.8855 -1.0721
 1457SOL     vw 5828   3.683   1.699   4.011  0.1627 -0.3857 -0.6237
 1458SOL     ow 5829   3.521   2.280   5.824 -0.1527 -0.6848 -0.1947
 1458SOL     hw 5830   3.570   2.314   5.749  1.4548  1.8826  1.8094
 1458SOL     hw 5831   3.430   2.305   5.807  0.5711  2.4643 -0.1419
 1458SOL     vw 5832   3.516   2.288   5.812  0.1549  0.0695  0.0768
 1459SOL     ow 5833   2.042   5.511   1.923 -0.2170  0.3923  0.3283
 1459SOL     hw 5834   2.036   5.595   1.967  1.7370 -0.9414  3.4805
 1459SOL     hw 5835   1.963   5.463   1.951 -0.0790  0.3093  0.5749
 1459SOL     vw 5836   2.030   5.516   1.933  0.0590  0.2058  0.7767
 1460SOL     ow 5837   5.708   0.951   0.217 -0.0416  0.5346 -0.3343
 1460SOL     hw 5838   5.687   1.029   0.165  2.7183  1.7191  0.1509
 1460SOL     hw 5839   5.800   0.934   0.198 -0.2322 -1.8969  0.5761
 1460SOL     vw 5840   5.717   0.959   0.207  0.2973  0.3701 -0.1502
 1461SOL     ow 5841   4.402   5.995   6.935  0.7694  0.2640 -0.0633
 1461SOL     hw 5842   4.356   6.017   6.854  2.5366 -1.2813 -1.6048
 1461SOL     hw 5843   4.482   6.048   6.931  1.2738 -0.4687  0.2234
 1461SOL     vw 5844   4.407   6.005   6.924  1.0691 -0.0365 -0.2286
 1462SOL     ow 5845   2.511   5.956   3.905 -0.1833  0.0856 -0.4177
 1462SOL     hw 5846   2.537   6.012   3.978  3.0996 -0.2666 -1.1697
 1462SOL     hw 5847   2.553   5.996   3.828 -0.3154 -1.7102 -1.4753
 1462SOL     vw 5848   2.520   5.969   3.904  0.2325 -0.1981 -0.6565
 1463SOL     ow 5849   1.515   5.134   3.192 -0.5649  0.0112  1.0594
 1463SOL     hw 5850   1.419   5.134   3.183 -0.7089 -1.3972  2.2580
 1463SOL     hw 5851   1.546   5.180   3.114 -2.2441  1.3419  1.1057
 1463SOL     vw 5852   1.506   5.140   3.181 -0.8054  0.0007  1.2237
 1464SOL     ow 5853   3.414   1.450   5.659 -0.4826 -0.5773 -0.7172
 1464SOL     hw 5854   3.477   1.394   5.612 -1.6845 -1.2555 -1.5758
 1464SOL     hw 5855   3.407   1.529   5.605 -0.5111 -0.5888 -0.7304
 1464SOL     vw 5856   3.421   1.453   5.645 -0.6450 -0.6683 -0.8326
 1465SOL     ow 5857   6.946   1.967   7.055  0.0496 -0.0758 -0.0356
 1465SOL     hw 5858   7.028   1.999   7.016 -0.5124  1.9586  0.3551
 1465SOL     hw 5859   6.938   2.015   7.138 -1.8008  0.1800 -0.3217
 1465SOL     vw 5860   6.956   1.977   7.061 -0.2687  0.2263 -0.0215
 1466SOL     ow 5861   3.182   2.241   6.927  0.4498 -0.4414  0.4149
 1466SOL     hw 5862   3.249   2.295   6.887 -0.0264  1.3216  1.8546
 1466SOL     hw 5863   3.125   2.303   6.973 -1.1779 -2.0209  0.6703
 1466SOL     vw 5864   3.183   2.256   6.928  0.1721 -0.4172  0.6385
 1467SOL     ow 5865   2.672   2.628   3.051 -0.2351  0.3246 -0.5656
 1467SOL     hw 5866   2.651   2.684   3.126 -2.5526 -1.6753  0.4412
 1467SOL     hw 5867   2.592   2.629   2.998  0.3693 -0.5059 -1.5184
 1467SOL     vw 5868   2.659   2.635   3.054 -0.4611 -0.0489 -0.5585
 1468SOL     ow 5869   5.715   2.167   1.743  0.3046 -0.1121  0.6031
 1468SOL     hw 5870   5.649   2.170   1.674 -0.4209  0.7445  1.3226
 1468SOL     hw 5871   5.799   2.170   1.696 -0.1838  1.1127 -0.2242
 1468SOL     vw 5872   5.718   2.168   1.728  0.1442  0.1627  0.5889
 1469SOL     ow 5873   2.720   1.924   4.151  0.6551 -0.0253 -0.3497
 1469SOL     hw 5874   2.750   1.971   4.074  1.2686 -0.5300 -0.4242
 1469SOL     hw 5875   2.716   1.832   4.124 -0.6277 -0.0325 -0.2412
 1469SOL     vw 5876   2.723   1.918   4.137  0.5667 -0.0929 -0.3455
 1470SOL     ow 5877   4.899   3.267   2.315 -0.5782 -0.2343 -0.6321
 1470SOL     hw 5878   4.938   3.215   2.385  1.0041 -0.9450 -1.9859
 1470SOL     hw 5879   4.817   3.299   2.353 -0.1229 -1.1656  1.2905
 1470SOL     vw 5880   4.893   3.264   2.329 -0.3092 -0.4508 -0.5572
 1471SOL     ow 5881   5.942   5.036   6.190  0.7465  0.5546  0.0231
 1471SOL     hw 5882   6.031   5.001   6.198  0.0241 -1.4899 -0.2961
 1471SOL     hw 5883   5.917   5.058   6.280  1.5472  1.0720  0.1242
 1471SOL     vw 5884   5.950   5.034   6.203  0.7567  0.3531 -0.0057
 1472SOL     ow 5885   6.145   5.073   0.048 -0.1020 -0.1631 -0.1219
 1472SOL     hw 5886   6.054   5.080   0.075 -0.0582 -1.1452  0.3204
 1472SOL     hw 5887   6.194   5.057   0.129  0.6478  1.6232 -0.1737
 1472SOL     vw 5888   6.139   5.072   0.062  0.0026 -0.0572 -0.0704
 1473SOL     ow 5889   0.621   4.178   6.705  0.0654 -0.3158 -0.4243
 1473SOL     hw 5890   0.710   4.179   6.740  0.5075  0.3989 -1.5026
 1473SOL     hw 5891   0.571   4.125   6.767  1.1461 -0.3754  0.4224
 1473SOL     vw 5892   0.627   4.171   6.717  0.2663 -0.2291 -0.4549
 1474SOL     ow 5893   1.252   1.346   6.719  0.2206 -0.1719 -0.4993
 1474SOL     hw 5894   1.163   1.341   6.686 -0.1372 -1.2726  0.5527
 1474SOL     hw 5895   1.251   1.418   6.783 -0.2762 -1.0208  0.4808
 1474SOL     vw 5896   1.240   1.355   6.723  0.1078 -0.4291 -0.2313
 1475SOL     ow 5897   0.927   6.451   4.161  0.0548  0.7936  0.6923
 1475SOL     hw 5898   0.864   6.444   4.089 -0.3278  1.6263  0.9373
 1475SOL     hw 5899   0.899   6.386   4.225 -0.1078  0.6449  0.4717
 1475SOL     vw 5900   0.915   6.441   4.160 -0.0172  0.8836  0.6957
 1476SOL     ow 5901   6.391   3.758   4.302  0.2885 -0.4897  0.1807
 1476SOL     hw 5902   6.373   3.728   4.391 -1.6188  1.0776  0.3974
 1476SOL     hw 5903   6.402   3.853   4.311  2.5852 -0.5890 -0.9498
 1476SOL     vw 5904   6.390   3.767   4.315  0.3400 -0.2960  0.0601
 1477SOL     ow 5905   3.401   1.079   1.477  0.1436 -0.2144  0.0219
 1477SOL     hw 5906   3.326   1.034   1.440  0.4797  0.5819 -1.7198
 1477SOL     hw 5907   3.363   1.150   1.529 -0.3428  0.5660 -1.3463
 1477SOL     vw 5908   3.386   1.083   1.479  0.1237 -0.0064 -0.3884
 1478SOL     ow 5909   3.070   1.149   0.433  0.1142 -0.4243 -0.5463
 1478SOL     hw 5910   3.108   1.229   0.397 -0.9990 -1.0581 -3.3623
 1478SOL     hw 5911   3.009   1.179   0.500 -0.2874  1.0961 -1.5524
 1478SOL     vw 5912   3.067   1.163   0.437 -0.0856 -0.3073 -1.0506
 1479SOL     ow 5913   0.497   1.489   2.066  0.3576  0.0319  0.0283
 1479SOL     hw 5914   0.580   1.477   2.112  1.0311  1.6387 -0.6812
 1479SOL     hw 5915   0.508   1.570   2.016 -2.7802  2.3074  2.5538
 1479SOL     vw 5916   0.509   1.498   2.065  0.0325  0.5441  0.2679
 1480SOL     ow 5917   3.545   6.345   4.971 -0.5365  0.3330 -0.1934
 1480SOL     hw 5918   3.586   6.335   4.885  0.1918  0.1713  0.1605
 1480SOL     hw 5919   3.460   6.384   4.953 -0.5758 -0.1141 -1.0260
 1480SOL     vw 5920   3.539   6.349   4.957 -0.4456  0.2525 -0.2563
 1481SOL     ow 5921   6.454   0.492   0.501 -0.1487  0.0723  0.2034
 1481SOL     hw 5922   6.483   0.432   0.433  0.0124  0.4813 -0.0893
 1481SOL     hw 5923   6.412   0.564   0.454 -1.6711 -0.5019  0.6035
 1481SOL     vw 5924   6.452   0.493   0.486 -0.3283  0.0505  0.2176
 1482SOL     ow 5925   4.414   4.430   3.974  0.3573  0.6316 -0.4205
 1482SOL     hw 5926   4.426   4.365   3.905  0.9925 -0.5233  0.7289
 1482SOL     hw 5927   4.324   4.461   3.963 -0.6227 -1.7878  0.0901
 1482SOL     vw 5928   4.404   4.426   3.964  0.3116  0.1602 -0.2013
 1483SOL     ow 5929   6.054   6.030   0.510 -0.0281  0.1801 -0.1878
 1483SOL     hw 5930   6.102   6.041   0.592 -0.9868 -0.1511  0.4295
 1483SOL     hw 5931   6.120   5.999   0.448  0.6924  0.3504  0.4767
 1483SOL     vw 5932   6.069   6.027   0.513 -0.0596  0.1590 -0.0187
 1484SOL     ow 5933   2.335   0.897   2.046  0.6740  0.2936 -0.1238
 1484SOL     hw 5934   2.411   0.950   2.069  0.2464  0.6093  0.5916
 1484SOL     hw 5935   2.373   0.815   2.014  1.3249  0.1789  0.8700
 1484SOL     vw 5936   2.350   0.893   2.045  0.7037  0.3201  0.1017
 1485SOL     ow 5937   1.099   3.611   1.824  0.0259  0.1198 -0.5551
 1485SOL     hw 5938   1.139   3.525   1.810 -0.1567 -0.1278  0.3792
 1485SOL     hw 5939   1.006   3.598   1.805 -0.7690 -0.9265  3.2374
 1485SOL     vw 5940   1.092   3.598   1.819 -0.1031 -0.0509  0.0685
 1486SOL     ow 5941   2.064   6.429   3.389  0.7208 -0.2214 -0.3949
 1486SOL     hw 5942   2.100   6.455   3.304 -0.3205 -2.0736 -1.4778
 1486SOL     hw 5943   1.970   6.441   3.380  0.1319 -3.8959 -0.9717
 1486SOL     vw 5944   2.057   6.434   3.376  0.5058 -0.9503 -0.6139
 1487SOL     ow 5945   5.795   3.330   1.261  0.7041  0.1654  0.7727
 1487SOL     hw 5946   5.730   3.265   1.234  0.6076  0.4727  0.2610
 1487SOL     hw 5947   5.879   3.284   1.256  0.7995  0.4739 -0.9528
 1487SOL     vw 5948   5.797   3.315   1.257  0.7041  0.2466  0.4775
 1488SOL     ow 5949   6.095   5.821   0.906 -0.6641 -0.7234 -0.5609
 1488SOL     hw 5950   6.118   5.896   0.851 -0.1610 -0.7320 -0.3610
 1488SOL     hw 5951   6.170   5.810   0.964 -1.0441 -0.9358 -0.1092
 1488SOL     vw 5952   6.108   5.830   0.906 -0.6478 -0.7524 -0.4749
 1489SOL     ow 5953   2.812   0.687   3.506 -0.1656  0.4763 -0.1399
 1489SOL     hw 5954   2.802   0.779   3.483  2.9303  0.8828 -0.3791
 1489SOL     hw 5955   2.907   0.672   3.502 -0.2419 -1.8913  3.0871
 1489SOL     vw 5956   2.823   0.697   3.502  0.2328  0.2176  0.2543
 1490SOL     ow 5957   3.911   2.838   6.789 -0.1858 -0.0348  0.1133
 1490SOL     hw 5958   3.910   2.898   6.864  0.7874  0.8938 -0.5866
 1490SOL     hw 5959   3.828   2.853   6.745 -1.0247 -1.0028  1.2971
 1490SOL     vw 5960   3.900   2.848   6.793 -0.1681 -0.0401  0.1774
 1491SOL     ow 5961   2.248   2.113   1.751 -0.3832 -0.4866 -0.6017
 1491SOL     hw 5962   2.300   2.036   1.729 -0.9648 -0.8527 -0.7081
 1491SOL     hw 5963   2.312   2.183   1.762  0.1020 -0.8497 -1.0901
 1491SOL     vw 5964   2.263   2.112   1.750 -0.3960 -0.5828 -0.6802
 1492SOL     ow 5965   6.948   7.042   1.683 -0.1624  0.0572 -0.0977
 1492SOL     hw 5966   7.020   7.068   1.626 -0.0021 -1.7051 -0.7718
 1492SOL     hw 5967   6.919   6.958   1.648 -0.2046 -1.0042  2.2534
 1492SOL     vw 5968   6.954   7.034   1.671 -0.1471 -0.3154  0.1235
 1493SOL     ow 5969   5.730   2.934   2.321  0.1761 -0.2678 -0.9716
 1493SOL     hw 5970   5.676   3.002   2.280 -0.6825 -0.7192 -0.6181
 1493SOL     hw 5971   5.790   2.906   2.252 -0.6434 -0.3776 -1.6632
 1493SOL     vw 5972   5.731   2.939   2.306 -0.0453 -0.3420 -1.0161
 1494SOL     ow 5973   1.443   5.446   5.544  0.3846  0.6083  0.4627
 1494SOL     hw 5974   1.486   5.422   5.462 -0.1531  1.0988  0.0282
 1494SOL     hw 5975   1.424   5.362   5.586 -1.0206  0.2394 -0.8103
 1494SOL     vw 5976   1.446   5.432   5.538  0.1283  0.6244  0.2375
 1495SOL     ow 5977   3.255   2.085   1.315 -0.3994  0.2493 -0.0053
 1495SOL     hw 5978   3.254   2.032   1.235  0.3175  0.3032 -0.0599
 1495SOL     hw 5979   3.287   2.025   1.383  0.8345  0.7092 -0.1543
 1495SOL     vw 5980   3.259   2.070   1.313 -0.1419  0.3170 -0.0322
 1496SOL     ow 5981   3.933   3.363   3.862  0.2892 -0.0893  0.3922
 1496SOL     hw 5982   3.942   3.445   3.814 -0.9467  0.0705  0.3885
 1496SOL     hw 5983   3.911   3.389   3.951  0.9335 -0.4110  0.6544
 1496SOL     vw 5984   3.931   3.377   3.867  0.2111 -0.1106  0.4264
 1497SOL     ow 5985   2.277   2.235   2.054 -0.1409  0.1990 -0.4551
 1497SOL     hw 5986   2.307   2.236   1.963 -1.5035 -1.3723 -0.9716
 1497SOL     hw 5987   2.182   2.235   2.049 -0.2610 -0.7366  0.9180
 1497SOL     vw 5988   2.269   2.235   2.042 -0.3365 -0.1317 -0.3421
 1498SOL     ow 5989   3.364   4.883   4.273 -0.2070  0.6267  0.2206
 1498SOL     hw 5990   3.356   4.978   4.263  0.5453  0.6681 -0.0688
 1498SOL     hw 5991   3.299   4.847   4.212 -1.7656  0.9486  1.6162
 1498SOL     vw 5992   3.355   4.891   4.264 -0.3135  0.6747  0.3667
 1499SOL     ow 5993   6.323   3.981   5.905  0.1422  0.3594 -0.5009
 1499SOL     hw 5994   6.285   4.044   5.966  0.6972  0.0327  0.1917
 1499SOL     hw 5995   6.306   4.019   5.819  1.0793  1.8258 -0.0794
 1499SOL     vw 5996   6.316   3.994   5.902  0.3393  0.5097 -0.3541
 1500SOL     ow 5997   6.684   1.436   1.275 -0.4910  0.1020 -0.2506
 1500SOL     hw 5998   6.644   1.394   1.198 -1.7665  0.4316  0.2195
 1500SOL     hw 5999   6.732   1.511   1.239 -2.0536  0.9583 -0.6442
 1500SOL     vw 6000   6.685   1.440   1.260 -0.8655  0.2585 -0.2406
 1501SOL     ow 6001   3.850   2.952   1.905  0.0718  0.3502 -0.2852
 1501SOL     hw 6002   3.877   2.885   1.968  1.5240  0.0672 -1.1799
 1501SOL     hw 6003   3.863   2.913   1.819 -0.8318  1.1331 -0.8088
 1501SOL     vw 6004   3.855   2.938   1.902  0.1441  0.4163 -0.4723
 1502SOL     ow 6005   1.173   1.610   4.870 -0.1162 -0.0603 -0.2462
 1502SOL     hw 6006   1.122   1.618   4.789  1.1077  0.4147 -0.9913
 1502SOL     hw 6007   1.138   1.532   4.913 -1.1196 -0.0370 -0.9858
 1502SOL     vw 6008   1.161   1.601   4.865 -0.0871  0.0055 -0.4423
 1503SOL     ow 6009   2.784   6.736   3.628 -0.7626 -0.4348 -0.0369
 1503SOL     hw 6010   2.852   6.679   3.664  0.0514 -0.2642 -1.2795
 1503SOL     hw 6011   2.830   6.814   3.598 -1.8240  0.7756  1.3234
 1503SOL     vw 6012   2.799   6.739   3.629 -0.7952 -0.2527 -0.0213
 1504SOL     ow 6013   6.291   5.232   6.878 -0.3731 -0.8479 -0.2758
 1504SOL     hw 6014   6.373   5.279   6.865 -0.7356  0.0023  0.4269
 1504SOL     hw 6015   6.230   5.272   6.816 -0.7133 -0.2878  0.4009
 1504SOL     vw 6016   6.293   5.244   6.868 -0.4659 -0.6618 -0.0937
 1505SOL     ow 6017   4.294   5.676   1.265 -0.1290  0.2960  0.0677
 1505SOL     hw 6018   4.230   5.699   1.332  1.7061  1.5161  1.5211
 1505SOL     hw 6019   4.350   5.610   1.307 -0.1277 -0.3967 -0.9964
 1505SOL     vw 6020   4.293   5.671   1.279  0.1135  0.3655  0.1191
 1506SOL     ow 6021   4.862   3.510   3.583  0.4555 -0.3950  0.1767
 1506SOL     hw 6022   4.813   3.430   3.562  0.2441 -0.0455 -0.6661
 1506SOL     hw 6023   4.798   3.581   3.574  0.9816  0.0094 -0.4030
 1506SOL     vw 6024   4.847   3.509   3.579  0.4971 -0.2955 -0.0111
 1507SOL     ow 6025   6.611   0.990   5.432  0.3075  0.6115 -0.4873
 1507SOL     hw 6026   6.572   0.902   5.431  1.4674  0.0795 -0.4752
 1507SOL     hw 6027   6.563   1.036   5.501 -0.9127  0.2780 -1.0895
 1507SOL     vw 6028   6.599   0.984   5.441  0.2995  0.4973 -0.5651
 1508SOL     ow 6029   3.249   2.002   0.077 -0.4541 -0.2847  0.3363
 1508SOL     hw 6030   3.315   2.064   0.108  0.7634 -1.2789 -0.1526
 1508SOL     hw 6031   3.175   2.013   0.137 -0.4072  1.8169  0.0899
 1508SOL     vw 6032   3.248   2.012   0.089 -0.2872 -0.1386  0.2393
 1509SOL     ow 6033   2.652   0.184   6.632 -0.7187  0.8044  0.5270
 1509SOL     hw 6034   2.721   0.119   6.644 -0.0623  1.3694 -0.0369
 1509SOL     hw 6035   2.683   0.260   6.681  0.4013  1.9924 -1.8273
 1509SOL     vw 6036   2.665   0.186   6.640 -0.4845  1.0357  0.1419
 1510SOL     ow 6037   5.621   1.909   5.317  0.4410  0.3022  0.2416
 1510SOL     hw 6038   5.692   1.947   5.368  1.2436  2.0000 -1.9677
 1510SOL     hw 6039   5.551   1.894   5.380  0.9283  3.4306  1.6798
 1510SOL     vw 6040   5.621   1.912   5.332  0.6111  0.9390  0.1397
 1511SOL     ow 6041   3.693   0.074   5.731  0.4393  0.1049 -0.1314
 1511SOL     hw 6042   3.761   0.095   5.667 -0.6889  0.5801 -1.2398
 1511SOL     hw 6043   3.678  -0.020   5.720  1.8194 -0.2850  1.0749
 1511SOL     vw 6044   3.700   0.064   5.721  0.4725  0.1161 -0.1183
 1512SOL     ow 6045   6.645   3.527   5.361 -0.0385  0.5556 -1.1055
 1512SOL     hw 6046   6.570   3.574   5.397  0.5748  1.1639 -0.6125
 1512SOL     hw 6047   6.691   3.592   5.307  0.4433  0.3412 -0.9567
 1512SOL     vw 6048   6.641   3.542   5.359  0.1061  0.6076 -1.0209
 1513SOL     ow 6049   3.188   1.925   2.481 -0.2368  0.1636  0.3997
 1513SOL     hw 6050   3.189   1.995   2.416 -0.7917  0.7577  1.0110
 1513SOL     hw 6051   3.132   1.858   2.442 -0.2179  0.3300  0.0771
 1513SOL     vw 6052   3.180   1.925   2.467 -0.3074  0.2639  0.4377
 1514SOL     ow 6053   5.884   4.033   2.685  0.3728 -0.2315 -0.2783
 1514SOL     hw 6054   5.979   4.048   2.677  0.7419 -2.4429 -0.8344
 1514SOL     hw 6055   5.845   4.093   2.622  0.9915  3.6185  2.6506
 1514SOL     vw 6056   5.892   4.043   2.675  0.5035 -0.0148  0.0346
 1515SOL     ow 6057   3.461   3.458   0.948  0.2441 -0.0069 -0.1111
 1515SOL     hw 6058   3.408   3.533   0.919 -0.6181 -1.5601 -2.9234
 1515SOL     hw 6059   3.547   3.473   0.908  0.2054 -0.3062 -0.3036
 1515SOL     vw 6060   3.466   3.470   0.939  0.1254 -0.2513 -0.5075
 1516SOL     ow 6061   0.375   2.863   0.052 -0.1431 -0.6509 -0.0292
 1516SOL     hw 6062   0.358   2.953   0.023  0.0080 -0.9180 -0.9737
 1516SOL     hw 6063   0.462   2.843   0.017  0.5869 -0.5641  1.6656
 1516SOL     vw 6064   0.384   2.872   0.044 -0.0268 -0.6748  0.0698
 1517SOL     ow 6065   0.935   0.350   6.351 -0.6139 -0.5479  0.1007
 1517SOL     hw 6066   0.906   0.431   6.392  0.9913  0.3352 -0.4094
 1517SOL     hw 6067   0.856   0.296   6.343 -1.4890  0.4780  1.5313
 1517SOL     vw 6068   0.921   0.353   6.355 -0.5176 -0.2960  0.2220
 1518SOL     ow 6069   5.329   3.951   0.861 -0.0431 -0.2575  0.1816
 1518SOL     hw 6070   5.362   3.862   0.871 -1.7764 -0.9174  0.4633
 1518SOL     hw 6071   5.272   3.947   0.784 -1.0321  0.2963  0.8536
 1518SOL     vw 6072   5.326   3.939   0.852 -0.4022 -0.2713  0.3074
 1519SOL     ow 6073   3.713   3.257   4.477 -0.2450  0.3116 -0.3141
 1519SOL     hw 6074   3.685   3.268   4.567  1.6549 -0.3606  0.4037
 1519SOL     hw 6075   3.685   3.337   4.432  0.9739  1.7816  1.4435
 1519SOL     vw 6076   3.706   3.269   4.483  0.1667  0.4169  0.0124
 1520SOL     ow 6077   7.070   0.257   4.009  0.0165 -0.2809 -0.6873
 1520SOL     hw 6078   7.039   0.184   3.955 -3.0487  0.3013  0.0813
 1520SOL     hw 6079   7.102   0.321   3.945 -0.8399 -0.7714 -1.6451
 1520SOL     vw 6080   7.070   0.256   3.993 -0.5009 -0.2688 -0.7120
 1521SOL     ow 6081   0.066   0.333   4.301 -0.0687 -0.9646 -0.0709
 1521SOL     hw 6082   0.044   0.351   4.393  2.1744 -0.8040  0.4833
 1521SOL     hw 6083   0.125   0.258   4.305 -1.3654 -2.1368 -1.5774
 1521SOL     vw 6084   0.071   0.326   4.314  0.0561 -1.0980 -0.1967
 1522SOL     ow 6085   1.290   1.431   4.650  0.2064  0.1025 -0.9824
 1522SOL     hw 6086   1.257   1.343   4.665  0.3189 -0.0180 -1.4439
 1522SOL     hw 6087   1.266   1.479   4.730 -1.7503  0.2275 -1.5795
 1522SOL     vw 6088   1.282   1.426   4.663 -0.0369  0.1031 -1.1220
 1523SOL     ow 6089   3.919   2.009   1.134  0.5170 -0.2908  0.7753
 1523SOL     hw 6090   3.945   1.920   1.156 -1.6814 -0.4967  2.9032
 1523SOL     hw 6091   3.868   2.001   1.054  1.1644 -0.7818  0.4037
 1523SOL     vw 6092   3.916   1.997   1.126  0.3123 -0.3827  1.0070
 1524SOL     ow 6093   1.143   3.074   3.076  0.3234  0.4595  0.5120
 1524SOL     hw 6094   1.235   3.070   3.102 -0.2384 -0.8191  2.4796
 1524SOL     hw 6095   1.139   3.026   2.994  1.6243  1.8387 -0.4140
 1524SOL     vw 6096   1.154   3.067   3.069  0.4209  0.4729  0.6496
 1525SOL     ow 6097   2.729   2.176   3.211  0.4037  0.4994  0.0997
 1525SOL     hw 6098   2.777   2.130   3.280 -0.1510  1.2688  1.0382
 1525SOL     hw 6099   2.771   2.262   3.207  1.4847 -0.0727 -1.6903
 1525SOL     vw 6100   2.741   2.181   3.220  0.4733  0.5255 -0.0126
 1526SOL     ow 6101   6.603   4.773   3.938  0.2142 -0.5171  0.3622
 1526SOL     hw 6102   6.561   4.687   3.927  0.7985 -0.8597  0.7577
 1526SOL     hw 6103   6.627   4.800   3.850 -0.4468 -0.5101  0.1744
 1526SOL     vw 6104   6.600   4.765   3.925  0.2041 -0.5617  0.3895
 1527SOL     ow 6105   2.387   5.529   4.889  0.2312  0.2131  0.0373
 1527SOL     hw 6106   2.350   5.452   4.844  0.4152  0.9448 -1.4065
 1527SOL     hw 6107   2.343   5.529   4.974 -0.0599 -1.2719 -0.0724
 1527SOL     vw 6108   2.376   5.519   4.894  0.2170  0.1137 -0.1676
 1528SOL     ow 6109   6.401   1.424   1.616 -0.5151  0.2590  0.5977
 1528SOL     hw 6110   6.319   1.466   1.645  0.1664  1.2870  1.0977
 1528SOL     hw 6111   6.413   1.453   1.526  0.3680  1.8482  1.1950
 1528SOL     vw 6112   6.392   1.433   1.608 -0.3085  0.6043  0.7425
 1529SOL     ow 6113   0.252   2.780   1.832  0.1890 -0.1018 -0.4951
 1529SOL     hw 6114   0.203   2.856   1.801 -1.5551 -1.7805 -2.1061
 1529SOL     hw 6115   0.213   2.760   1.917 -0.7531 -0.3950 -0.9883
 1529SOL     vw 6116   0.241   2.788   1.839 -0.1654 -0.3620 -0.7727
 1530SOL     ow 6117   3.621   4.539   3.457 -0.0492 -0.4697  0.4604
 1530SOL     hw 6118   3.658   4.517   3.542 -0.5945  0.0965  0.8489
 1530SOL     hw 6119   3.556   4.606   3.475 -0.7243 -0.8946 -0.3106
 1530SOL     vw 6120   3.618   4.545   3.470 -0.2103 -0.4511  0.4100
 1531SOL     ow 6121   3.971   0.042   4.564  0.5868 -0.0581 -0.0967
 1531SOL     hw 6122   3.944   0.015   4.476 -3.8030  0.7836  0.7408
 1531SOL     hw 6123   3.957   0.136   4.566 -0.8320 -0.2464  1.8473
 1531SOL     vw 6124   3.966   0.051   4.553 -0.1796  0.0281  0.2706
 1532SOL     ow 6125   3.893   3.439   1.849 -0.1857  0.4148 -0.1869
 1532SOL     hw 6126   3.933   3.480   1.926  0.1528  2.1874 -1.2640
 1532SOL     hw 6127   3.949   3.364   1.830  1.4605  1.6650 -0.4331
 1532SOL     vw 6128   3.905   3.435   1.857  0.0762  0.8136 -0.3615
 1533SOL     ow 6129   3.330   1.085   0.558  0.3488  0.3261 -0.4719
 1533SOL     hw 6130   3.415   1.060   0.594  0.5061 -0.4036 -1.3134
 1533SOL     hw 6131   3.272   1.089   0.634  1.7162  3.6895  0.5750
 1533SOL     vw 6132   3.334   1.083   0.573  0.5498  0.6735 -0.4449
 1534SOL     ow 6133   4.899   3.513   3.846 -0.5676  0.2880 -0.2433
 1534SOL     hw 6134   4.901   3.514   3.750 -0.5219  1.7270 -0.2427
 1534SOL     hw 6135   4.953   3.438   3.870  0.0786  0.3836 -1.3377
 1534SOL     vw 6136   4.906   3.503   3.836 -0.4764  0.4905 -0.3875
 1535SOL     ow 6137   3.347   6.337   7.025 -0.6666  0.1653 -0.4178
 1535SOL     hw 6138   3.296   6.380   7.094  1.8356  1.0151  1.0160
 1535SOL     hw 6139   3.428   6.387   7.019  1.5738 -3.0819 -0.0785
 1535SOL     vw 6140   3.351   6.349   7.033 -0.0410 -0.1512 -0.1839
 1536SOL     ow 6141   2.874   2.041   3.371 -0.9452 -0.3606 -0.3622
 1536SOL     hw 6142   2.878   2.095   3.450  0.9028  0.1468 -0.7378
 1536SOL     hw 6143   2.867   1.951   3.404  1.9236 -0.3648  0.5511
 1536SOL     vw 6144   2.874   2.036   3.386 -0.3229 -0.2942 -0.2913
 1537SOL     ow 6145   5.895   2.987   3.292 -0.0844 -0.0196 -0.7311
 1537SOL     hw 6146   5.979   2.945   3.310 -0.2064 -0.4885 -1.2168
 1537SOL     hw 6147   5.906   3.026   3.205 -1.1550 -2.2337 -1.9396
 1537SOL     vw 6148   5.907   2.986   3.283 -0.2418 -0.3736 -0.9546
 1538SOL     ow 6149   2.165   0.405   2.775  0.1881  0.0957 -0.0416
 1538SOL     hw 6150   2.108   0.432   2.848  1.1165  1.2571  0.2744
 1538SOL     hw 6151   2.171   0.310   2.784  1.6318  0.3415  2.4539
 1538SOL     vw 6152   2.158   0.396   2.786  0.5009  0.2813  0.3294
 1539SOL     ow 6153   5.628   4.776   5.201  0.2921 -0.3184  0.3159
 1539SOL     hw 6154   5.551   4.798   5.150 -0.4826 -0.4743  1.3862
 1539SOL     hw 6155   5.631   4.680   5.200 -0.0165 -0.3365  0.9787
 1539SOL     vw 6156   5.619   4.766   5.194  0.1490 -0.3417  0.5448
 1540SOL     ow 6157   2.289   0.014   2.072  0.4121 -0.1011 -0.7717
 1540SOL     hw 6158   2.309   0.100   2.109 -1.2404 -0.4095  0.9727
 1540SOL     hw 6159   2.276   0.030   1.979  3.7837  0.8779 -1.2031
 1540SOL     vw 6160   2.290   0.027   2.065  0.6390 -0.0126 -0.5984
 1541SOL     ow 6161   3.131   6.102   1.962  0.0055 -0.1577 -0.2837
 1541SOL     hw 6162   3.101   6.128   2.049 -1.6125 -0.1936 -0.8108
 1541SOL     hw 6163   3.170   6.182   1.926  2.5834 -0.6355  1.1872
 1541SOL     vw 6164   3.132   6.116   1.969  0.1322 -0.2253 -0.1592
 1542SOL     ow 6165   6.688   1.138   1.234 -0.0362 -0.0226 -0.1786
 1542SOL     hw 6166   6.632   1.183   1.297 -1.1004 -0.5994 -0.6900
 1542SOL     hw 6167   6.628   1.111   1.164  0.4052 -2.8729  0.4443
 1542SOL     vw 6168   6.673   1.141   1.233 -0.1183 -0.4748 -0.1639
 1543SOL     ow 6169   0.630   2.898   0.427  0.1615 -0.0805 -0.3017
 1543SOL     hw 6170   0.599   2.810   0.448  2.2222 -0.7900 -0.0201
 1543SOL     hw 6171   0.636   2.899   0.331  0.3236 -0.3308 -0.2966
 1543SOL     vw 6172   0.627   2.887   0.417  0.4548 -0.2073 -0.2639
 1544SOL     ow 6173   6.812   4.586   2.298 -0.3446  0.1505 -0.3026
 1544SOL     hw 6174   6.841   4.643   2.226 -0.8782 -0.7034 -1.2141
 1544SOL     hw 6175   6.790   4.647   2.368  3.1377  0.9252  0.3296
 1544SOL     vw 6176   6.813   4.602   2.297  0.0443  0.1400 -0.3394
 1545SOL     ow 6177   3.038   4.823   2.371  0.2090  0.5055  0.2025
 1545SOL     hw 6178   3.114   4.802   2.425  0.2945 -1.1274 -0.4686
 1545SOL     hw 6179   2.970   4.849   2.433  0.6161 -0.3130  1.0218
 1545SOL     vw 6180   3.039   4.824   2.386  0.2741  0.1819  0.2221
 1546SOL     ow 6181   1.578   6.181   3.105 -0.8272  0.3338 -0.0426
 1546SOL     hw 6182   1.572   6.113   3.037  1.8891  0.1407 -0.2134
 1546SOL     hw 6183   1.605   6.260   3.057 -0.8747  0.7220  0.5652
 1546SOL     vw 6184   1.581   6.182   3.089 -0.4751  0.3598  0.0150
 1547SOL     ow 6185   0.479   4.066   3.550  0.5740 -0.1206 -0.2120
 1547SOL     hw 6186   0.462   3.986   3.501  0.1024  0.5547 -1.1935
 1547SOL     hw 6187   0.488   4.038   3.641 -0.5395 -1.1575 -0.4025
 1547SOL     vw 6188   0.478   4.052   3.556  0.3649 -0.1686 -0.3668
 1548SOL     ow 6189   4.386   0.871   5.701 -0.0029  0.2435 -0.1367
 1548SOL     hw 6190   4.295   0.857   5.728  0.0920 -1.1572 -0.4641
 1548SOL     hw 6191   4.394   0.824   5.618  1.4568 -1.0722  0.7025
 1548SOL     vw 6192   4.375   0.863   5.694  0.2024 -0.1149 -0.0694
 1549SOL     ow 6193   3.818   1.906   4.322  0.1610  0.4241 -0.1041
 1549SOL     hw 6194   3.736   1.856   4.320 -0.0498  0.7590 -0.0109
 1549SOL     hw 6195   3.833   1.922   4.415  0.4004  0.2563 -0.1128
 1549SOL     vw 6196   3.809   1.901   4.334  0.1647  0.4460 -0.0932
 1550SOL     ow 6197   6.454   3.776   6.381 -0.3354 -0.4012 -0.4874
 1550SOL     hw 6198   6.533   3.742   6.424 -0.7411  0.3614  0.9207
 1550SOL     hw 6199   6.382   3.741   6.433 -1.0088 -1.6166 -2.1400
 1550SOL     vw 6200   6.455   3.767   6.394 -0.4780 -0.4610 -0.5195
 1551SOL     ow 6201   2.355   5.699   3.787 -1.1836 -0.2054  0.0686
 1551SOL     hw 6202   2.268   5.734   3.809 -0.9526  1.3135 -1.2168
 1551SOL     hw 6203   2.345   5.667   3.697 -0.6013 -0.7094  0.1805
 1551SOL     vw 6204   2.342   5.700   3.778 -1.0762 -0.0718 -0.0861
 1552SOL     ow 6205   2.097   6.414   2.268  0.0769 -0.3536  0.3558
 1552SOL     hw 6206   2.123   6.322   2.260 -1.7039 -1.0063  1.5116
 1552SOL     hw 6207   2.032   6.415   2.338 -1.6720  1.4213 -1.1648
 1552SOL     vw 6208   2.092   6.402   2.276 -0.3886 -0.2055  0.3077
 1553SOL     ow 6209   2.847   1.651   3.353 -0.2573  0.9557  0.0594
 1553SOL     hw 6210   2.895   1.693   3.282 -0.3743  1.3466  0.2047
 1553SOL     hw 6211   2.914   1.624   3.416 -0.0440 -0.4812 -0.7436
 1553SOL     vw 6212   2.862   1.653   3.352 -0.2445  0.8178 -0.0274
 1554SOL     ow 6213   6.245   3.227   2.071 -0.8925  1.1596  0.4790
 1554SOL     hw 6214   6.174   3.170   2.100 -0.8396  0.2203 -1.1032
 1554SOL     hw 6215   6.325   3.177   2.089 -0.8277  0.8492 -0.6189
 1554SOL     vw 6216   6.246   3.213   2.077 -0.8769  0.9948  0.1253
 1555SOL     ow 6217   5.701   1.170   4.210  0.0813  0.4584 -0.2980
 1555SOL     hw 6218   5.669   1.099   4.266  0.8949  1.7317  1.8944
 1555SOL     hw 6219   5.772   1.131   4.159  1.5341 -0.0051  1.9670
 1555SOL     vw 6220   5.706   1.155   4.210  0.3803  0.5652  0.2899
 1556SOL     ow 6221   6.049   3.775   5.148  0.0104 -0.0976  0.2159
 1556SOL     hw 6222   6.105   3.714   5.197 -0.3624 -0.6304 -0.0087
 1556SOL     hw 6223   6.109   3.842   5.115  0.5449 -0.7704 -0.1943
 1556SOL     vw 6224   6.064   3.776   5.150  0.0319 -0.2569  0.1321
 1557SOL     ow 6225   1.190   0.861   2.917  0.5894 -0.8565 -0.0348
 1557SOL     hw 6226   1.169   0.832   2.828  0.8628 -0.5763 -0.1897
 1557SOL     hw 6227   1.282   0.837   2.929  1.2462  1.1699 -0.6650
 1557SOL     vw 6228   1.199   0.854   2.907  0.7122 -0.5522 -0.1383
 1558SOL     ow 6229   2.966   3.066   2.916  0.2288  0.3520  0.0779
 1558SOL     hw 6230   2.947   2.973   2.908 -2.6502  0.9272 -0.8166
 1558SOL     hw 6231   2.941   3.088   3.006 -0.4767  0.5244 -0.1565
 1558SOL     vw 6232   2.960   3.057   2.927 -0.2441  0.4506 -0.0710
 1559SOL     ow 6233   6.810   6.543   5.759  0.2122 -0.1941 -0.3227
 1559SOL     hw 6234   6.841   6.501   5.678  1.0927  2.3209 -1.4017
 1559SOL     hw 6235   6.876   6.610   5.777 -0.2865 -0.3005  2.1999
 1559SOL     vw 6236   6.823   6.546   5.751  0.2625  0.1235 -0.1323
 1560SOL     ow 6237   5.793   4.989   5.279 -0.2234  0.7461 -0.0661
 1560SOL     hw 6238   5.716   4.942   5.249  0.3169 -1.4301  1.6983
 1560SOL     hw 6239   5.800   5.064   5.220 -2.5469 -0.0483 -1.4714
 1560SOL     vw 6240   5.784   4.993   5.267 -0.4587  0.3543 -0.0188
 1561SOL     ow 6241   5.448   0.990   0.383 -0.5647 -0.0157 -0.2919
 1561SOL     hw 6242   5.399   1.049   0.440 -0.7313 -1.7533  1.4687
 1561SOL     hw 6243   5.390   0.977   0.308 -0.9647  1.2188 -0.2162
 1561SOL     vw 6244   5.434   0.996   0.381 -0.6394 -0.0821 -0.0497
 1562SOL     ow 6245   0.718   4.220   6.149 -0.6205 -0.0569  0.2935
 1562SOL     hw 6246   0.640   4.274   6.135 -1.1755 -0.8969  0.0353
 1562SOL     hw 6247   0.789   4.270   6.111 -1.4123 -0.3013 -1.6380
 1562SOL     vw 6248   0.717   4.234   6.142 -0.7982 -0.2000  0.0048
 1563SOL     ow 6249   6.495   1.462   3.364 -0.0756  0.1079  0.3685
 1563SOL     hw 6250   6.446   1.423   3.436 -0.5062 -1.3354 -0.6518
 1563SOL     hw 6251   6.508   1.390   3.303  2.1624  0.7705 -0.0198
 1563SOL     vw 6252   6.490   1.447   3.366  0.1628  0.0049  0.1827
 1564SOL     ow 6253   2.817   5.828   2.870  0.2484  0.4560 -0.2035
 1564SOL     hw 6254   2.796   5.762   2.804 -1.3634 -0.4929  1.1723
 1564SOL     hw 6255   2.868   5.780   2.936 -0.4846  0.6775  0.5473
 1564SOL     vw 6256   2.821   5.813   2.870 -0.0609  0.3603  0.0771
 1565SOL     ow 6257   3.391   0.592   5.278  0.0656  0.2799 -0.1677
 1565SOL     hw 6258   3.370   0.520   5.219  0.9219 -1.1872  1.2334
 1565SOL     hw 6259   3.328   0.661   5.255 -0.1211 -0.4999 -2.2349
 1565SOL     vw 6260   3.380   0.592   5.267  0.1539 -0.0166 -0.2556
 1566SOL     ow 6261   1.218   4.618   1.330 -0.0563  0.3125 -0.9631
 1566SOL     hw 6262   1.230   4.633   1.236  3.5701 -0.7824 -0.8229
 1566SOL     hw 6263   1.184   4.529   1.337  0.0830  0.2372 -1.2423
 1566SOL     vw 6264   1.215   4.609   1.318  0.4405  0.1581 -0.9814
 1567SOL     ow 6265   4.567   4.163   2.118  0.1931 -0.2569  0.8191
 1567SOL     hw 6266   4.591   4.092   2.177 -0.3558  1.0010  2.6339
 1567SOL     hw 6267   4.532   4.120   2.040  1.0424 -1.9644  1.3509
 1567SOL     vw 6268   4.566   4.148   2.116  0.2329 -0.3161  1.1287
 1568SOL     ow 6269   4.267   5.978   6.687 -0.1474 -0.1254  0.1228
 1568SOL     hw 6270   4.279   5.889   6.719 -1.5939 -0.4695 -0.2137
 1568SOL     hw 6271   4.192   6.011   6.736 -0.6233  0.3296 -0.8840
 1568SOL     vw 6272   4.259   5.971   6.697 -0.4008 -0.1109 -0.0541
 1569SOL     ow 6273   0.275   5.657   2.184 -0.0779 -0.0985  0.1200
 1569SOL     hw 6274   0.314   5.633   2.268 -0.8441 -0.8100  0.2898
 1569SOL     hw 6275   0.194   5.703   2.208 -0.5606 -0.7523 -0.2108
 1569SOL     vw 6276   0.269   5.660   2.198 -0.2427 -0.2785  0.0987
 1570SOL     ow 6277   6.178   2.032   0.086 -0.4130  0.0039  0.5860
 1570SOL     hw 6278   6.188   2.087   0.163  1.2178 -0.5852  0.8236
 1570SOL     hw 6279   6.192   1.943   0.118 -0.8764 -0.3631 -0.1925
 1570SOL     vw 6280   6.181   2.027   0.100 -0.2589 -0.1221  0.5146
 1571SOL     ow 6281   4.184   5.451   2.016 -0.1694 -0.3747 -0.0697
 1571SOL     hw 6282   4.157   5.541   2.036 -0.8837 -0.9389  1.6367
 1571SOL     hw 6283   4.173   5.444   1.921 -1.5783  0.8891 -0.0459
 1571SOL     vw 6284   4.179   5.462   2.006 -0.4497 -0.2823  0.1585
 1572SOL     ow 6285   6.702   5.757   0.325 -0.2824 -0.3045  0.7533
 1572SOL     hw 6286   6.660   5.836   0.357  0.9967  1.3509 -1.3588
 1572SOL     hw 6287   6.759   5.728   0.396 -0.9503  0.5135  1.6345
 1572SOL     vw 6288   6.704   5.763   0.338 -0.2017  0.0217  0.5909
 1573SOL     ow 6289   0.918   0.579   6.501  0.5379 -0.2540 -0.0775
 1573SOL     hw 6290   0.941   0.671   6.494 -0.4436 -0.0454 -0.6960
 1573SOL     hw 6291   0.979   0.544   6.565  0.6509  0.9159  0.4723
 1573SOL     vw 6292   0.929   0.586   6.508  0.4234 -0.0721 -0.0865
 1574SOL     ow 6293   6.241   2.561   0.293 -0.0131 -0.1715 -0.2122
 1574SOL     hw 6294   6.316   2.591   0.344 -0.0840 -0.3743  0.0100
 1574SOL     hw 6295   6.199   2.494   0.347 -1.8607  1.7257  0.8617
 1574SOL     vw 6296   6.245   2.556   0.306 -0.2661  0.0521 -0.0412
 1575SOL     ow 6297   1.650   4.159   2.024 -0.1432 -0.2800  0.5665
 1575SOL     hw 6298   1.728   4.214   2.018  0.3055 -0.7685  1.7000
 1575SOL     hw 6299   1.637   4.144   2.117 -0.0446 -2.3570  0.3126
 1575SOL     vw 6300   1.658   4.164   2.035 -0.0710 -0.6185  0.6827
 1576SOL     ow 6301   6.000   6.544   0.424  0.1126 -0.1960 -0.6014
 1576SOL     hw 6302   5.972   6.454   0.439 -0.1611 -0.2055 -1.1474
 1576SOL     hw 6303   5.974   6.591   0.503 -0.8831 -0.3342 -0.8310
 1576SOL     vw 6304   5.993   6.538   0.437 -0.0548 -0.2158 -0.7037
 1577SOL     ow 6305   2.281   2.978   5.793 -0.1827  0.6345  0.3068
 1577SOL     hw 6306   2.218   2.910   5.769  0.6384  0.1725 -0.6199
 1577SOL     hw 6307   2.237   3.060   5.770 -0.6457  0.3428  0.1438
 1577SOL     vw 6308   2.267   2.980   5.786 -0.1353  0.5349  0.1633
 1578SOL     ow 6309   5.252   2.304   4.604  0.0771  0.0288  0.1888
 1578SOL     hw 6310   5.227   2.234   4.665 -0.6201 -1.6358 -1.8672
 1578SOL     hw 6311   5.171   2.352   4.589 -0.1835 -0.6711 -0.7320
 1578SOL     vw 6312   5.238   2.301   4.610 -0.0494 -0.2832 -0.2036
 1579SOL     ow 6313   1.719   5.812   2.446  0.0227 -0.3352 -0.7776
 1579SOL     hw 6314   1.753   5.819   2.534 -2.9690 -2.2066  0.7148
 1579SOL     hw 6315   1.791   5.777   2.394  1.2794 -1.1453  1.4007
 1579SOL     vw 6316   1.733   5.808   2.450 -0.2062 -0.6890 -0.2931
 1580SOL     ow 6317   0.008   0.665   4.383  0.3732 -0.5035 -0.2302
 1580SOL     hw 6318  -0.058   0.717   4.337  0.6576  0.6381  0.6152
 1580SOL     hw 6319  -0.006   0.686   4.476  1.7821 -0.4188 -0.0264
 1580SOL     vw 6320  -0.003   0.674   4.389  0.5966 -0.3417 -0.0918
 1581SOL     ow 6321   2.901   2.336   3.447  0.1777 -0.1747 -0.2344
 1581SOL     hw 6322   2.834   2.404   3.459  0.8778  1.0873 -2.7815
 1581SOL     hw 6323   2.930   2.316   3.536 -1.3415  1.5420  0.7273
 1581SOL     vw 6324   2.896   2.343   3.460  0.0697  0.2183 -0.4436
 1582SOL     ow 6325   3.121   6.833   4.400  0.2394  0.4731 -0.5867
 1582SOL     hw 6326   3.120   6.921   4.363  0.4893  1.1210  0.8760
 1582SOL     hw 6327   3.142   6.846   4.492  3.8645 -1.3275 -0.9780
 1582SOL     vw 6328   3.124   6.846   4.407  0.7507  0.3211 -0.4456
 1583SOL     ow 6329   3.588   2.576   1.328  0.4018 -0.2752 -0.7479
 1583SOL     hw 6330   3.677   2.611   1.334  0.2370  0.5040 -2.4556
 1583SOL     hw 6331   3.561   2.565   1.419  1.6868  0.9284 -0.1784
 1583SOL     vw 6332   3.596   2.579   1.341  0.5494 -0.0136 -0.8981
 1584SOL     ow 6333   6.340   6.976   5.093  0.0322 -0.4447 -0.1279
 1584SOL     hw 6334   6.425   6.975   5.050  0.2954 -0.4542  0.3877
 1584SOL     hw 6335   6.286   6.916   5.041  0.6804 -1.3489  0.2241
 1584SOL     vw 6336   6.344   6.968   5.081  0.1523 -0.5655 -0.0136
 1585SOL     ow 6337   3.668   1.152   1.508  0.0251  0.1190  0.3116
 1585SOL     hw 6338   3.576   1.128   1.513  0.0434  0.1626  0.8775
 1585SOL     hw 6339   3.675   1.232   1.560  0.5818 -0.4673  1.1580
 1585SOL     vw 6340   3.657   1.160   1.515  0.1010  0.0473  0.4979
 1586SOL     ow 6341   1.479   3.809   2.629  0.1144 -0.2802  0.2756
 1586SOL     hw 6342   1.475   3.787   2.722  1.1631 -0.6210  0.2539
 1586SOL     hw 6343   1.419   3.882   2.619 -0.4624 -0.6244  1.1075
 1586SOL     vw 6344   1.471   3.816   2.640  0.1767 -0.3705  0.3825
 1587SOL     ow 6345   1.116   5.723   6.225 -0.0574  0.0024 -0.0918
 1587SOL     hw 6346   1.132   5.785   6.295 -0.4698 -0.4766  0.4396
 1587SOL     hw 6347   1.156   5.762   6.148 -2.2374  2.0175 -0.3011
 1587SOL     vw 6348   1.124   5.736   6.224 -0.3994  0.2050 -0.0494
 1588SOL     ow 6349   1.268   2.962   2.421 -0.0054 -0.3391  0.1927
 1588SOL     hw 6350   1.198   3.017   2.384  0.5747  0.5258  0.3629
 1588SOL     hw 6351   1.289   2.901   2.350  0.7688  0.9986 -0.7848
 1588SOL     vw 6352   1.262   2.961   2.407  0.1733 -0.0486  0.0862
 1589SOL     ow 6353   4.564   4.872   6.946  0.5864  0.2224  0.1321
 1589SOL     hw 6354   4.569   4.779   6.967  0.4912 -0.1801 -1.4886
 1589SOL     hw 6355   4.611   4.916   7.017 -0.3755 -0.9434  1.5518
 1589SOL     vw 6356   4.570   4.866   6.958  0.4468  0.0155  0.1054
 1590SOL     ow 6357   1.111   2.868   2.639 -0.6677  0.2656  0.0466
 1590SOL     hw 6358   1.123   2.962   2.626  0.3215  0.1590  0.0557
 1590SOL     hw 6359   1.145   2.829   2.558 -0.2797 -0.1126  0.3864
 1590SOL     vw 6360   1.117   2.875   2.627 -0.4860  0.2017  0.0926
 1591SOL     ow 6361   1.465   4.867   5.947  0.1469  0.7730 -0.5462
 1591SOL     hw 6362   1.555   4.852   5.975  0.0004  0.0341 -0.4539
 1591SOL     hw 6363   1.428   4.779   5.937 -1.1642  1.0589  1.3290
 1591SOL     vw 6364   1.472   4.854   5.949 -0.0454  0.7131 -0.2866
 1592SOL     ow 6365   3.215   2.053   2.817 -0.9477  0.0970 -0.2807
 1592SOL     hw 6366   3.183   2.021   2.902 -0.5626 -1.7091 -0.7727
 1592SOL     hw 6367   3.222   2.148   2.828 -2.4500  0.0770  1.1791
 1592SOL     vw 6368   3.212   2.061   2.830 -1.0951 -0.1439 -0.1531
 1593SOL     ow 6369   4.704   2.655   4.861  0.5686 -0.2581 -0.3102
 1593SOL     hw 6370   4.707   2.748   4.883 -0.2030 -0.0345 -1.0992
 1593SOL     hw 6371   4.771   2.643   4.794 -0.2937  0.0441 -1.2580
 1593SOL     vw 6372   4.713   2.665   4.855  0.3529 -0.1886 -0.5393
 1594SOL     ow 6373   5.635   5.850   1.169 -0.5550 -0.4032  0.1301
 1594SOL     hw 6374   5.655   5.756   1.173  2.0322  0.1109  1.0465
 1594SOL     hw 6375   5.572   5.864   1.239  0.5788 -1.1622  1.3511
 1594SOL     vw 6376   5.629   5.839   1.179 -0.0641 -0.4356  0.4120
 1595SOL     ow 6377   0.843   3.222   2.658  0.3174  0.2486  0.1931
 1595SOL     hw 6378   0.911   3.289   2.649 -0.4511  0.9448 -0.6274
 1595SOL     hw 6379   0.770   3.266   2.701  0.6469 -0.7117  1.8210
 1595SOL     vw 6380   0.843   3.237   2.662  0.2595  0.2139  0.2996
 1596SOL     ow 6381   6.698   5.847   7.079 -0.1607 -0.4900  0.2376
 1596SOL     hw 6382   6.780   5.836   7.032  0.6288  0.5065  1.3319
 1596SOL     hw 6383   6.641   5.893   7.017  0.4355 -0.2900 -0.1656
 1596SOL     vw 6384   6.701   5.851   7.064  0.0222 -0.3319  0.3288
 1597SOL     ow 6385   6.788   6.535   1.289  0.5116  1.0465 -0.2247
 1597SOL     hw 6386   6.877   6.542   1.323  0.2770 -0.6331  0.8372
 1597SOL     hw 6387   6.772   6.441   1.281 -0.6429  1.3380 -1.8867
 1597SOL     vw 6388   6.798   6.524   1.293  0.3283  0.8633 -0.3039
 1598SOL     ow 6389   4.983   5.192   3.825  0.2719  0.0922  0.4620
 1598SOL     hw 6390   4.949   5.204   3.737 -0.3607  0.2423  0.7245
 1598SOL     hw 6391   5.000   5.098   3.832 -0.4693 -0.0424  0.4658
 1598SOL     vw 6392   4.981   5.181   3.814  0.0906  0.0944  0.4971
 1599SOL     ow 6393   3.189   1.278   0.048  0.0444  0.2783 -0.5402
 1599SOL     hw 6394   3.162   1.305   0.136  0.5480  0.3154 -0.3928
 1599SOL     hw 6395   3.120   1.219   0.018  0.9549 -1.5337  0.7714
 1599SOL     vw 6396   3.176   1.274   0.055  0.2309  0.0442 -0.3477
 1600SOL     ow 6397   2.894   3.427   5.558 -0.4505  0.2222 -0.1813
 1600SOL     hw 6398   2.947   3.377   5.496  0.5137  0.2066  0.6206
 1600SOL     hw 6399   2.957   3.459   5.622 -1.5132 -0.5745  1.3318
 1600SOL     vw 6400   2.910   3.424   5.558 -0.4635  0.1150  0.1240
 1601SOL     ow 6401   3.886   1.917   6.562 -0.1133 -0.7822  0.2372
 1601SOL     hw 6402   3.869   1.823   6.561  0.2010 -0.8499 -1.1083
 1601SOL     hw 6403   3.947   1.930   6.635 -0.8715 -1.4755  1.0021
 1601SOL     vw 6404   3.892   1.907   6.572 -0.1718 -0.8826  0.1607
 1602SOL     ow 6405   1.242   0.704   4.807  0.1822  0.4670  0.2632
 1602SOL     hw 6406   1.336   0.721   4.795 -0.1479  1.6214 -0.8410
 1602SOL     hw 6407   1.215   0.770   4.871  0.1012  0.2144  0.4874
 1602SOL     vw 6408   1.251   0.715   4.814  0.1279  0.5860  0.1471
 1603SOL     ow 6409   2.527   1.942   4.335  0.1425 -0.4246 -0.3339
 1603SOL     hw 6410   2.476   2.015   4.298  0.4845 -0.6157 -1.1872
 1603SOL     hw 6411   2.609   1.942   4.286  0.3508 -1.0817  0.0032
 1603SOL     vw 6412   2.531   1.952   4.324  0.2149 -0.5366 -0.4020
 1604SOL     ow 6413   1.557   3.994   1.832  0.3324  0.2745 -1.1225
 1604SOL     hw 6414   1.588   4.036   1.752  0.3284  0.6927 -0.9087
 1604SOL     hw 6415   1.576   4.058   1.901 -2.0137  1.0277 -1.1130
 1604SOL     vw 6416   1.564   4.008   1.831  0.0224  0.4289 -1.0930
 1605SOL     ow 6417   3.022   0.030   5.157 -0.1930  0.1445 -0.5446
 1605SOL     hw 6418   2.997  -0.051   5.111 -1.1103  0.5377 -0.7634
 1605SOL     hw 6419   2.941   0.080   5.162  0.5042  1.3481 -1.0028
 1605SOL     vw 6420   3.008   0.026   5.151 -0.2220  0.3552 -0.6340
 1606SOL     ow 6421   0.479   0.374   4.931  0.1325 -0.4782 -0.4074
 1606SOL     hw 6422   0.440   0.310   4.990 -1.6693 -0.8279 -1.8902
 1606SOL     hw 6423   0.488   0.327   4.848  2.4772  0.0343 -0.5245
 1606SOL     vw 6424   0.475   0.359   4.928  0.2042 -0.4567 -0.6185
 1607SOL     ow 6425   6.918   1.208   6.386 -0.5827  0.8441 -0.0460
 1607SOL     hw 6426   6.986   1.207   6.318 -2.6631  1.0180 -2.2404
 1607SOL     hw 6427   6.940   1.133   6.441  2.2065  1.7425  0.2724
 1607SOL     vw 6428   6.930   1.198   6.384 -0.4892  0.9856 -0.2933
 1608SOL     ow 6429   0.987   0.572   4.770  0.1246 -0.1584 -0.2038
 1608SOL     hw 6430   0.985   0.666   4.751  1.6997 -0.2495 -1.0719
 1608SOL     hw 6431   0.946   0.532   4.693  1.3119 -0.2531 -0.8119
 1608SOL     vw 6432   0.982   0.579   4.757  0.4891 -0.1829 -0.3989
 1609SOL     ow 6433   6.116   2.849   1.937  0.0719  0.0732  0.5504
 1609SOL     hw 6434   6.052   2.907   1.895  0.2373  1.2400  1.8140
 1609SOL     hw 6435   6.186   2.839   1.873  1.9395  4.4786  1.5054
 1609SOL     vw 6436   6.116   2.855   1.923  0.3402  0.8085  0.8431
 1610SOL     ow 6437   4.395   4.781   6.690  0.1382 -0.4482  0.0163
 1610SOL     hw 6438   4.370   4.701   6.736  0.7153 -0.6434  0.0060
 1610SOL     hw 6439   4.373   4.764   6.599 -3.2811  0.8469  0.4539
 1610SOL     vw 6440   4.389   4.768   6.684 -0.2365 -0.3030  0.0730
 1611SOL     ow 6441   6.426   1.933   5.069  0.5173  0.4591 -0.2354
 1611SOL     hw 6442   6.509   1.885   5.066  1.9680  2.6428  1.5736
 1611SOL     hw 6443   6.448   2.017   5.109 -2.6376  1.0085  0.6473
 1611SOL     vw 6444   6.440   1.937   5.074  0.2925  0.8196  0.1199
 1612SOL     ow 6445   2.052   5.391   5.091  0.0635  0.3623  0.3014
 1612SOL     hw 6446   2.127   5.334   5.073  0.2870  0.6709  0.2376
 1612SOL     hw 6447   2.091   5.474   5.117 -0.2288 -0.1317  2.5796
 1612SOL     vw 6448   2.067   5.394   5.092  0.0544  0.3378  0.5937
 1613SOL     ow 6449   0.899   2.286   4.207 -0.2386  0.1301  0.1043
 1613SOL     hw 6450   0.865   2.375   4.192 -1.3613 -0.3960 -0.6500
 1613SOL     hw 6451   0.893   2.273   4.301 -0.8688  0.5622  0.1304
 1613SOL     vw 6452   0.894   2.296   4.217 -0.4699  0.1177  0.0086
 1614SOL     ow 6453   6.211   2.314   0.909 -0.2091  0.2116 -0.5623
 1614SOL     hw 6454   6.251   2.311   0.823  1.4567 -2.2539  0.1784
 1614SOL     hw 6455   6.116   2.314   0.892  0.0350 -2.0016 -2.4422
 1614SOL     vw 6456   6.203   2.314   0.896  0.0429 -0.4057 -0.7126
 1615SOL     ow 6457   1.284   6.371   0.443 -0.2888  0.0567 -0.0881
 1615SOL     hw 6458   1.252   6.282   0.434 -0.6995  0.2113 -0.2068
 1615SOL     hw 6459   1.267   6.393   0.535 -2.0267  0.6886 -0.5219
 1615SOL     vw 6460   1.278   6.362   0.454 -0.5723  0.1602 -0.1610
 1616SOL     ow 6461   3.689   4.140   1.782  0.1411 -0.2337 -0.3318
 1616SOL     hw 6462   3.621   4.084   1.818 -1.4144  1.8326  0.1135
 1616SOL     hw 6463   3.751   4.151   1.854  1.0446 -2.1388 -0.7464
 1616SOL     vw 6464   3.688   4.134   1.796  0.0552 -0.2124 -0.3278
 1617SOL     ow 6465   1.833   6.565   3.439  0.6167 -0.2122  0.6916
 1617SOL     hw 6466   1.789   6.580   3.523  2.1530 -0.2541  1.5399
 1617SOL     hw 6467   1.816   6.645   3.389 -0.3998 -0.2268  0.9915
 1617SOL     vw 6468   1.825   6.578   3.443  0.6853 -0.2196  0.8430
 1618SOL     ow 6469   0.399   6.078   0.755  0.3111  0.2695  0.3824
 1618SOL     hw 6470   0.337   6.150   0.771  0.0094 -0.1727  1.2076
 1618SOL     hw 6471   0.367   6.038   0.674 -0.2983  0.2419  0.6295
 1618SOL     vw 6472   0.387   6.082   0.746  0.1909  0.2079  0.5239
 1619SOL     ow 6473   6.915   5.913   6.537  0.0427 -0.1340  0.3106
 1619SOL     hw 6474   6.832   5.935   6.496 -0.2939  1.9524  1.9221
 1619SOL     hw 6475   6.964   5.866   6.469 -2.1625 -0.8344 -0.8857
 1619SOL     vw 6476   6.911   5.910   6.522 -0.2928  0.0486  0.3655
 1620SOL     ow 6477   6.726   6.411   6.159 -0.5231 -0.0005 -0.5463
 1620SOL     hw 6478   6.714   6.360   6.240 -2.6223 -1.5426 -1.7174
 1620SOL     hw 6479   6.784   6.357   6.105  1.2612  1.2494  0.0335
 1620SOL     vw 6480   6.732   6.397   6.163 -0.5648 -0.0393 -0.6247
 1621SOL     ow 6481   2.850   0.826   0.531 -0.1911  0.5103  0.1872
 1621SOL     hw 6482   2.755   0.836   0.523 -0.4920 -0.4656  2.0361
 1621SOL     hw 6483   2.868   0.740   0.493 -0.2295  0.2173  0.8095
 1621SOL     vw 6484   2.840   0.816   0.525 -0.2359  0.3429  0.5132
 1622SOL     ow 6485   4.673   0.883   5.915  0.5245  0.4800  0.3042
 1622SOL     hw 6486   4.686   0.942   5.989 -0.3293  0.9214  0.1199
 1622SOL     hw 6487   4.646   0.800   5.954  1.8023  0.1632  0.5702
 1622SOL     vw 6488   4.671   0.880   5.930  0.5803  0.4964  0.3150
 1623SOL     ow 6489   7.074   3.643   6.247  0.4108 -0.1063 -0.8467
 1623SOL     hw 6490   7.141   3.633   6.180  0.9689  0.3279 -0.3663
 1623SOL     hw 6491   7.122   3.675   6.323  0.4232 -3.7327  0.8967
 1623SOL     vw 6492   7.089   3.646   6.248  0.4861 -0.5276 -0.5531
 1624SOL     ow 6493   1.945   2.209   0.196 -0.2994  0.6405  0.3148
 1624SOL     hw 6494   1.925   2.115   0.204  1.4392  0.3447  1.9556
 1624SOL     hw 6495   1.873   2.244   0.143 -0.9651 -1.6138 -0.3943
 1624SOL     vw 6496   1.933   2.201   0.190 -0.1578  0.3040  0.4377
 1625SOL     ow 6497   4.164   3.937   5.233  0.4183 -0.2436 -0.3241
 1625SOL     hw 6498   4.210   3.863   5.272 -0.0563  0.6337  2.0668
 1625SOL     hw 6499   4.135   3.989   5.308 -0.8513  1.4008 -1.8819
 1625SOL     vw 6500   4.166   3.934   5.248  0.1881  0.0892 -0.2141
 1626SOL     ow 6501   4.089   6.493   6.155 -0.2567  0.3605 -0.7474
 1626SOL     hw 6502   4.127   6.455   6.076 -0.4436 -0.7191 -0.3260
 1626SOL     hw 6503   4.004   6.451   6.163  0.1773 -0.3244  0.5849
 1626SOL     vw 6504   4.083   6.483   6.145 -0.2244  0.1276 -0.5162
 1627SOL     ow 6505   0.956   2.392   6.656  0.0650  0.3920 -0.1322
 1627SOL     hw 6506   0.871   2.398   6.614  0.2514  0.1637 -0.5454
 1627SOL     hw 6507   0.978   2.482   6.681  0.7078  0.7867 -2.0080
 1627SOL     vw 6508   0.948   2.405   6.654  0.1744  0.4139 -0.4346
 1628SOL     ow 6509   3.026   3.010   5.303  0.0624 -0.1890  0.7252
 1628SOL     hw 6510   3.066   2.933   5.263  0.5208 -0.0938  0.9975
 1628SOL     hw 6511   2.933   2.988   5.308 -0.1114  0.0347 -0.9415
 1628SOL     vw 6512   3.019   2.997   5.298  0.0999 -0.1471  0.5412
 1629SOL     ow 6513   0.455   4.650   3.677 -0.1899  0.3877  0.2942
 1629SOL     hw 6514   0.398   4.574   3.679  2.7832 -2.0363  2.9395
 1629SOL     hw 6515   0.520   4.630   3.610  0.7220  0.3968  1.1382
 1629SOL     vw 6516   0.456   4.638   3.669  0.3227  0.0694  0.7547
 1630SOL     ow 6517   0.073   3.181   2.276  0.0223 -0.6288 -0.1079
 1630SOL     hw 6518   0.038   3.095   2.254 -3.6426  0.6676 -0.0127
 1630SOL     hw 6519   0.099   3.219   2.192 -1.1740 -0.7456 -0.5436
 1630SOL     vw 6520   0.072   3.175   2.262 -0.6190 -0.4731 -0.1527
 1631SOL     ow 6521   0.429   4.691   1.888  0.1315  0.4927  0.4552
 1631SOL     hw 6522   0.354   4.742   1.858  0.7911  1.6371  0.7081
 1631SOL     hw 6523   0.490   4.756   1.922  0.1054 -0.6207  2.7947
 1631SOL     vw 6524   0.427   4.706   1.889  0.2151  0.4969  0.7973
 1632SOL     ow 6525   3.827   6.924   2.108 -0.4024  0.3034 -0.1164
 1632SOL     hw 6526   3.902   6.984   2.102 -0.1571  0.0671  0.4835
 1632SOL     hw 6527   3.818   6.888   2.020  0.3334  0.1668 -0.1426
 1632SOL     vw 6528   3.836   6.927   2.096 -0.2729  0.2539 -0.0407
 1633SOL     ow 6529   0.726   0.241   0.451 -0.6825  0.1459  0.5538
 1633SOL     hw 6530   0.776   0.290   0.516  1.6320  0.0247 -1.0115
 1633SOL     hw 6531   0.692   0.308   0.392 -1.1127  0.1273  0.7781
 1633SOL     vw 6532   0.728   0.256   0.452 -0.4339  0.1275  0.3769
 1634SOL     ow 6533   2.542   3.016   1.642 -0.1819 -0.0287  0.0168
 1634SOL     hw 6534   2.542   2.921   1.626 -1.4852 -0.3147  1.4418
 1634SOL     hw 6535   2.492   3.053   1.569  0.1183 -0.4620 -0.4144
 1634SOL     vw 6536   2.535   3.008   1.630 -0.3141 -0.1236  0.1479
 1635SOL     ow 6537   3.101   2.047   0.273  0.3053  0.1563  0.2760
 1635SOL     hw 6538   3.031   1.989   0.302  0.3712  0.1250  0.3701
 1635SOL     hw 6539   3.170   2.037   0.338  0.5545 -0.1052 -0.0250
 1635SOL     vw 6540   3.101   2.038   0.285  0.3469  0.1177  0.2487
 1636SOL     ow 6541   1.732   6.354   3.287 -0.4243  0.0399 -0.6111
 1636SOL     hw 6542   1.770   6.368   3.200  1.4551 -0.2694  0.1205
 1636SOL     hw 6543   1.735   6.440   3.329 -0.8309  0.0769 -0.6522
 1636SOL     vw 6544   1.737   6.367   3.281 -0.2300  0.0038 -0.5200
 1637SOL     ow 6545   1.738   0.213   2.752  0.0601  0.2203 -0.1777
 1637SOL     hw 6546   1.734   0.233   2.846  1.9952  0.4284 -0.0903
 1637SOL     hw 6547   1.650   0.186   2.729 -0.2959 -0.5292  1.8787
 1637SOL     vw 6548   1.726   0.212   2.762  0.2684  0.1489  0.1051
 1638SOL     ow 6549   2.192   1.659   6.567 -0.1569 -0.5422 -0.2519
 1638SOL     hw 6550   2.109   1.700   6.589  0.6205  0.4400  0.9783
 1638SOL     hw 6551   2.256   1.730   6.570  0.6731 -1.1822 -1.6348
 1638SOL     vw 6552   2.190   1.674   6.570  0.0554 -0.4971 -0.2720
 1639SOL     ow 6553   1.825   5.355   1.998 -0.4781 -0.2965 -0.5684
 1639SOL     hw 6554   1.788   5.324   2.081  0.6305 -0.0987  0.0264
 1639SOL     hw 6555   1.801   5.289   1.934  0.8169 -1.8035  0.4304
 1639SOL     vw 6556   1.817   5.342   2.001 -0.1611 -0.4692 -0.3582
 1640SOL     ow 6557   2.087   0.887   5.576  0.1630 -0.0865 -0.3712
 1640SOL     hw 6558   2.008   0.851   5.536 -0.0781 -0.2216  0.2186
 1640SOL     hw 6559   2.107   0.965   5.524 -1.5413  1.1308  0.7162
 1640SOL     vw 6560   2.080   0.893   5.564 -0.0937  0.0563 -0.1497
 1641SOL     ow 6561   4.982   1.413   6.634 -0.4283  1.3370 -0.4491
 1641SOL     hw 6562   4.976   1.508   6.635  0.8385  1.4710  1.7404
 1641SOL     hw 6563   4.919   1.384   6.700  0.6685  0.8460  0.4222
 1641SOL     vw 6564   4.973   1.422   6.643 -0.1166  1.2899 -0.0455
 1642SOL     ow 6565   5.988   0.365   2.271 -0.4847  0.0713  0.5649
 1642SOL     hw 6566   5.977   0.363   2.176  0.1215 -1.9411  0.4998
 1642SOL     hw 6567   6.080   0.388   2.283  0.2380 -2.5379  0.5303
 1642SOL     vw 6568   5.999   0.368   2.260 -0.3092 -0.5384  0.5517
 1643SOL     ow 6569   0.232   2.717   2.079  0.1509 -0.4067 -0.1538
 1643SOL     hw 6570   0.160   2.656   2.097  0.0758 -0.1868  0.3042
 1643SOL     hw 6571   0.297   2.699   2.146  0.0661  0.1157  0.0728
 1643SOL     vw 6572   0.231   2.707   2.090  0.1298 -0.3086 -0.0634
 1644SOL     ow 6573   5.717   6.910   5.595 -0.1075  0.2748 -0.3716
 1644SOL     hw 6574   5.683   6.946   5.513 -0.2329  0.2950 -0.3112
 1644SOL     hw 6575   5.806   6.882   5.574 -0.0889  0.4121 -0.4784
 1644SOL     vw 6576   5.724   6.911   5.581 -0.1218  0.2959 -0.3779
 1645SOL     ow 6577   4.818   3.062   2.121 -0.4259 -0.2401  0.2747
 1645SOL     hw 6578   4.733   3.098   2.145 -0.5396 -0.4691  0.2127
 1645SOL     hw 6579   4.799   2.975   2.088 -0.5000  0.6980 -2.4285
 1645SOL     vw 6580   4.804   3.056   2.120 -0.4506 -0.1465 -0.0901
 1646SOL     ow 6581   5.753   5.073   3.088 -0.2294  0.2482  0.1318
 1646SOL     hw 6582   5.828   5.115   3.130  2.0069 -1.4051 -1.9310
 1646SOL     hw 6583   5.685   5.140   3.087  1.0143  1.6544  2.5531
 1646SOL     vw 6584   5.754   5.087   3.093  0.2298  0.2158  0.1792
 1647SOL     ow 6585   5.852   5.857   1.005  0.6121  0.2595  0.1763
 1647SOL     hw 6586   5.869   5.850   1.099 -0.1224  0.9228  0.3739
 1647SOL     hw 6587   5.939   5.852   0.965  1.0935  1.3704  0.9915
 1647SOL     vw 6588   5.866   5.856   1.012  0.5789  0.4935  0.3099
 1648SOL     ow 6589   4.074   1.312   0.071 -0.1689 -0.4066  0.1420
 1648SOL     hw 6590   4.136   1.242   0.053 -0.0255 -0.4491  0.8068
 1648SOL     hw 6591   4.015   1.277   0.138 -0.4349 -0.0901  0.0807
 1648SOL     vw 6592   4.074   1.298   0.077 -0.1850 -0.3705  0.2216
 1649SOL     ow 6593   4.047   1.878   3.138 -0.3913  0.1958  0.0912
 1649SOL     hw 6594   4.118   1.936   3.109 -0.1250 -0.4093 -0.4852
 1649SOL     hw 6595   4.063   1.866   3.232  0.3805 -0.0881 -0.0707
 1649SOL     vw 6596   4.059   1.884   3.147 -0.2542  0.0785 -0.0061
 1650SOL     ow 6597   5.643   0.756   3.373  0.1115  0.3637 -0.4358
 1650SOL     hw 6598   5.680   0.679   3.330 -0.1942 -0.1825  0.2585
 1650SOL     hw 6599   5.708   0.781   3.438 -0.0202  0.3766 -0.3091
 1650SOL     vw 6600   5.656   0.749   3.376  0.0536  0.2933 -0.3276
 1651SOL     ow 6601   2.508   1.653   3.064 -0.0440  0.3657 -0.4350
 1651SOL     hw 6602   2.537   1.586   3.127 -0.7644  0.3075 -0.1537
 1651SOL     hw 6603   2.420   1.677   3.094  0.3774  1.7828 -0.2588
 1651SOL     vw 6604   2.500   1.647   3.076 -0.0836  0.5450 -0.3747
 1652SOL     ow 6605   1.669   3.730   6.256 -0.1176 -0.1490 -0.0655
 1652SOL     hw 6606   1.641   3.659   6.198  0.1304 -0.6004  0.3513
 1652SOL     hw 6607   1.728   3.687   6.319 -0.4752  0.2978  0.5894
 1652SOL     vw 6608   1.673   3.715   6.257 -0.1320 -0.1497  0.0758
 1653SOL     ow 6609   6.477   2.570   1.328 -0.2387 -0.3729 -0.4722
 1653SOL     hw 6610   6.408   2.541   1.269 -0.5695 -0.1958 -0.1790
 1653SOL     hw 6611   6.430   2.615   1.399  0.1592 -0.4807 -0.1379
 1653SOL     vw 6612   6.461   2.572   1.330 -0.2298 -0.3638 -0.3893
 1654SOL     ow 6613   4.734   5.747   5.062 -0.2044  0.0593  1.2903
 1654SOL     hw 6614   4.791   5.750   4.985 -0.9403  1.7939  0.7666
 1654SOL     hw 6615   4.694   5.660   5.059 -1.3842  0.6042 -1.2082
 1654SOL     vw 6616   4.736   5.736   5.051 -0.4573  0.3600  0.8914
 1655SOL     ow 6617   3.609   3.465   4.331  0.2043 -0.1842  0.1284
 1655SOL     hw 6618   3.553   3.500   4.262 -0.3890  0.6332  1.0074
 1655SOL     hw 6619   3.632   3.541   4.384  2.0545 -0.5195 -0.1280
 1655SOL     vw 6620   3.605   3.479   4.329  0.3701 -0.1206  0.2103
 1656SOL     ow 6621   5.381   4.130   5.893 -0.2729  0.4863 -0.2152
 1656SOL     hw 6622   5.400   4.216   5.855 -1.9930 -0.3192 -3.2426
 1656SOL     hw 6623   5.288   4.115   5.875 -0.4908 -1.2854  1.8738
 1656SOL     vw 6624   5.371   4.139   5.886 -0.5286  0.1462 -0.3388
 1657SOL     ow 6625   6.497   5.410   2.383  0.1535 -0.1974 -0.0210
 1657SOL     hw 6626   6.548   5.362   2.318  1.0292 -1.0245  1.2451
 1657SOL     hw 6627   6.456   5.481   2.333 -1.0075 -2.0592 -1.9286
 1657SOL     vw 6628   6.498   5.413   2.368  0.1161 -0.5522 -0.1057
 1658SOL     ow 6629   0.915   3.826   1.155  0.3962  0.0706  0.7926
 1658SOL     hw 6630   0.938   3.919   1.149  0.4549 -0.0444 -2.9877
 1658SOL     hw 6631   0.830   3.825   1.198 -0.2119  2.0382 -0.2386
 1658SOL     vw 6632   0.907   3.838   1.160  0.3237  0.3148  0.1578
 1659SOL     ow 6633   3.200   0.983   4.728  0.6191 -0.4098 -0.1286
 1659SOL     hw 6634   3.166   1.066   4.694 -0.5361 -0.4271  0.9271
 1659SOL     hw 6635   3.191   0.990   4.823  0.3503 -1.8048 -0.0320
 1659SOL     vw 6636   3.194   0.995   4.736  0.4313 -0.5961  0.0234
 1660SOL     ow 6637   0.994   3.183   5.708 -0.1816  0.2709 -0.0704
 1660SOL     hw 6638   1.030   3.114   5.764 -1.1920  0.7153  1.1722
 1660SOL     hw 6639   0.930   3.139   5.653  1.3336 -0.3079 -1.4757
 1660SOL     vw 6640   0.990   3.168   5.708 -0.1150  0.2532 -0.0918
 1661SOL     ow 6641   6.712   3.855   0.938  0.3242 -0.1066 -0.1331
 1661SOL     hw 6642   6.637   3.883   0.989  0.4779  0.8128 -0.3894
 1661SOL     hw 6643   6.740   3.774   0.979  0.1237  0.3382  0.9172
 1661SOL     vw 6644   6.706   3.848   0.950  0.3181  0.0734 -0.0283
 1662SOL     ow 6645   1.438   5.825   2.372 -0.5296 -0.9355  0.0317
 1662SOL     hw 6646   1.394   5.886   2.430  0.8154  0.3783 -0.2665
 1662SOL     hw 6647   1.368   5.782   2.323 -1.4994  0.2965  0.3149
 1662SOL     vw 6648   1.423   5.827   2.374 -0.4802 -0.5996  0.0297
 1663SOL     ow 6649   7.000   5.724   1.877  0.3991 -0.6302  0.5840
 1663SOL     hw 6650   7.004   5.797   1.939  0.5510 -0.1669  0.0305
 1663SOL     hw 6651   7.044   5.756   1.798 -2.3634 -0.1523 -0.8722
 1663SOL     vw 6652   7.007   5.738   1.875  0.0546 -0.5062  0.3189
 1664SOL     ow 6653   3.657   6.491   3.145  0.2628 -0.2787 -0.0614
 1664SOL     hw 6654   3.662   6.459   3.235  1.4646 -0.9063 -0.3417
 1664SOL     hw 6655   3.731   6.550   3.135 -0.1320  0.1564 -0.5058
 1664SOL     vw 6656   3.667   6.495   3.155  0.3693 -0.3042 -0.1570
 1665SOL     ow 6657   3.866   2.241   6.542 -0.0350 -0.2513  0.9355
 1665SOL     hw 6658   3.799   2.278   6.600 -0.3171  0.0823  0.4061
 1665SOL     hw 6659   3.946   2.290   6.563 -0.1117 -0.2000  1.1074
 1665SOL     vw 6660   3.868   2.252   6.553 -0.0824 -0.2005  0.8886
 1666SOL     ow 6661   1.209   5.999   2.569  0.3384 -0.0845 -0.3623
 1666SOL     hw 6662   1.190   5.933   2.502  3.0002  0.4629 -1.8194
 1666SOL     hw 6663   1.204   5.952   2.652  0.6189 -1.7459 -1.2395
 1666SOL     vw 6664   1.206   5.984   2.571  0.7265 -0.2315 -0.6702
 1667SOL     ow 6665   1.535   2.401   2.860 -0.0156 -0.1069 -0.5254
 1667SOL     hw 6666   1.444   2.380   2.882  0.7151 -1.4401  1.4567
 1667SOL     hw 6667   1.584   2.323   2.882  1.8296  1.0697 -0.2365
 1667SOL     vw 6668   1.529   2.388   2.865  0.3242 -0.1276 -0.2258
 1668SOL     ow 6669   6.983   2.738   1.194 -0.1280  0.1524  0.0631
 1668SOL     hw 6670   7.040   2.707   1.123  0.2498  2.7215 -0.8769
 1668SOL     hw 6671   6.916   2.789   1.149  0.0742  1.7694  1.5349
 1668SOL     vw 6672   6.982   2.740   1.178 -0.0515  0.7048  0.1333
 1669SOL     ow 6673   2.688   4.105   5.449  0.6596 -0.4414 -0.3520
 1669SOL     hw 6674   2.771   4.148   5.429  0.6104 -0.7866 -1.3415
 1669SOL     hw 6675   2.706   4.011   5.435 -0.0772 -0.4555 -1.2508
 1669SOL     vw 6676   2.702   4.098   5.445  0.5560 -0.4888 -0.6013
 1670SOL     ow 6677   1.596   2.400   6.235 -0.0123  0.1606  0.4693
 1670SOL     hw 6678   1.599   2.314   6.277  1.0356  0.3372  0.7759
 1670SOL     hw 6679   1.627   2.384   6.146 -0.7958  0.0527  0.2064
 1670SOL     vw 6680   1.601   2.387   6.229  0.0226  0.1695  0.4752
 1671SOL     ow 6681   6.553   4.180   3.581 -0.2301 -0.6071 -0.0108
 1671SOL     hw 6682   6.607   4.168   3.659 -1.7563 -2.7432  0.8263
 1671SOL     hw 6683   6.613   4.163   3.508  1.1627  1.1788  0.6346
 1671SOL     vw 6684   6.568   4.176   3.581 -0.2477 -0.6530  0.1847
 1672SOL     ow 6685   5.119   6.731   0.055 -0.5175  0.3491 -0.1174
 1672SOL     hw 6686   5.096   6.693  -0.030  0.4038 -1.2156  0.2831
 1672SOL     hw 6687   5.180   6.668   0.093 -0.7778  1.1040  1.6360
 1672SOL     vw 6688   5.124   6.717   0.049 -0.4303  0.2422  0.1668
 1673SOL     ow 6689   3.658   6.360   2.461  0.0751 -0.5686 -0.4893
 1673SOL     hw 6690   3.685   6.367   2.552 -0.9110  0.3703 -0.2500
 1673SOL     hw 6691   3.613   6.275   2.456 -1.5608  0.2030  0.3835
 1673SOL     vw 6692   3.656   6.349   2.472 -0.2707 -0.3431 -0.3425
 1674SOL     ow 6693   3.186   1.340   3.230 -0.0768 -0.7451  0.2973
 1674SOL     hw 6694   3.123   1.273   3.205  2.4422 -3.8344  1.5191
 1674SOL     hw 6695   3.216   1.377   3.147 -0.2952 -2.3669 -0.5315
 1674SOL     vw 6696   3.182   1.336   3.215  0.2266 -1.3667  0.3492
 1675SOL     ow 6697   0.889   3.333   5.102  0.1681  0.3901  0.4390
 1675SOL     hw 6698   0.858   3.277   5.173 -0.8555 -0.3905 -0.5915
 1675SOL     hw 6699   0.863   3.288   5.022 -0.7797  2.3569 -0.4357
 1675SOL     vw 6700   0.881   3.320   5.101 -0.0920  0.5467  0.1876
 1676SOL     ow 6701   3.983   1.762   1.129  1.4156  0.9123  0.1217
 1676SOL     hw 6702   3.996   1.724   1.216 -2.7937  0.6393  0.8737
 1676SOL     hw 6703   4.022   1.699   1.069  1.2523 -0.7951  1.7132
 1676SOL     vw 6704   3.990   1.749   1.132  0.8386  0.6510  0.4309
 1677SOL     ow 6705   3.347   3.325   3.688  0.0272 -0.7058 -0.0986
 1677SOL     hw 6706   3.282   3.394   3.680 -0.9929 -1.5693  0.4960
 1677SOL     hw 6707   3.410   3.343   3.618  0.8023  1.8475  1.1102
 1677SOL     vw 6708   3.347   3.337   3.678 -0.0051 -0.4829  0.1392
 1678SOL     ow 6709   0.383   1.873   6.528 -0.0278  0.4353  0.0833
 1678SOL     hw 6710   0.404   1.919   6.446 -0.0223  0.4990  0.1201
 1678SOL     hw 6711   0.340   1.940   6.581 -0.2550  0.3249  0.0366
 1678SOL     vw 6712   0.380   1.888   6.524 -0.0571  0.4292  0.0823
 1679SOL     ow 6713   3.617   5.972   5.676  0.6735 -0.3763 -0.1468
 1679SOL     hw 6714   3.652   5.955   5.763  0.8765 -1.5992 -0.4511
 1679SOL     hw 6715   3.670   6.044   5.642  1.9193 -1.2133 -0.0246
 1679SOL     vw 6716   3.629   5.979   5.683  0.8646 -0.6480 -0.1707
 1680SOL     ow 6717   4.883   1.879   3.657  0.3495 -0.0798 -0.1265
 1680SOL     hw 6718   4.847   1.889   3.569 -1.3523  0.9304  0.6504
 1680SOL     hw 6719   4.876   1.785   3.676 -2.3094  0.0911  0.1144
 1680SOL     vw 6720   4.878   1.868   3.648 -0.2260  0.0761  0.0077
 1681SOL     ow 6721   0.677   2.306   2.147  0.2724  0.2030  0.0485
 1681SOL     hw 6722   0.590   2.346   2.140  0.7748  1.2618 -0.1803
 1681SOL     hw 6723   0.708   2.333   2.233  0.1957 -0.5752  0.3339
 1681SOL     vw 6724   0.670   2.315   2.158  0.3285  0.2400  0.0560
 1682SOL     ow 6725   4.345   0.418   0.115 -0.4753  0.6285 -0.1227
 1682SOL     hw 6726   4.306   0.381   0.036  1.3118 -1.5894 -0.0541
 1682SOL     hw 6727   4.319   0.359   0.185 -0.8146  1.7407  0.7231
 1682SOL     vw 6728   4.337   0.406   0.114 -0.2844  0.4826 -0.0021
 1683SOL     ow 6729   2.061   3.987   5.905 -0.0408 -0.5823 -0.1117
 1683SOL     hw 6730   2.062   3.919   5.973 -0.2151 -0.2454  0.2346
 1683SOL     hw 6731   2.098   4.064   5.948 -0.3620 -0.3027 -0.3316
 1683SOL     vw 6732   2.066   3.988   5.920 -0.1062 -0.5010 -0.0954
 1684SOL     ow 6733   3.135   4.457   3.191  0.4445  0.3735  0.4073
 1684SOL     hw 6734   3.202   4.395   3.164 -0.8995 -0.4677 -1.2529
 1684SOL     hw 6735   3.158   4.481   3.281  2.3066 -0.7120  0.2677
 1684SOL     vw 6736   3.147   4.452   3.199  0.5128  0.1192  0.1699
 1685SOL     ow 6737   5.688   4.111   4.977 -0.3963  0.1734 -0.0968
 1685SOL     hw 6738   5.597   4.134   4.995 -0.3558  0.7073 -0.5464
 1685SOL     hw 6739   5.735   4.195   4.982 -0.0967  0.0584 -0.8798
 1685SOL     vw 6740   5.683   4.125   4.980 -0.3517  0.2286 -0.2594
 1686SOL     ow 6741   4.236   2.355   5.040  0.1916  0.2903 -0.1915
 1686SOL     hw 6742   4.174   2.411   5.087  0.1615 -0.5137  0.7785
 1686SOL     hw 6743   4.275   2.411   4.974 -0.1050  1.3554  0.5199
 1686SOL     vw 6744   4.233   2.369   5.038  0.1483  0.3247  0.0305
 1687SOL     ow 6745   5.907   3.943   2.982  0.0380 -0.0421  0.5058
 1687SOL     hw 6746   5.995   3.907   2.980  0.6371  1.1359  2.4453
 1687SOL     hw 6747   5.915   4.023   3.034 -2.0349  0.5050  0.0877
 1687SOL     vw 6748   5.920   3.949   2.989 -0.1566  0.1856  0.7067
 1688SOL     ow 6749   5.936   2.309   5.709 -0.3858 -0.4133  0.5030
 1688SOL     hw 6750   5.879   2.321   5.633 -1.1138  0.7969  1.2130
 1688SOL     hw 6751   5.905   2.228   5.749 -0.4760 -0.6648 -0.0558
 1688SOL     vw 6752   5.925   2.300   5.704 -0.4940 -0.2867  0.5229
 1689SOL     ow 6753   2.225   6.144   0.869 -0.2080  0.5887  0.4264
 1689SOL     hw 6754   2.275   6.226   0.864  1.9350 -0.6907 -0.1316
 1689SOL     hw 6755   2.249   6.107   0.954 -0.8134  0.3090  0.4773
 1689SOL     vw 6756   2.235   6.150   0.880 -0.0051  0.3831  0.3595
 1690SOL     ow 6757   6.591   4.864   4.572 -0.4407 -0.0229  0.1237
 1690SOL     hw 6758   6.684   4.873   4.592 -0.2247 -1.0761 -0.3421
 1690SOL     hw 6759   6.581   4.902   4.485 -0.4375  0.0309  0.1468
 1690SOL     vw 6760   6.602   4.870   4.564 -0.4120 -0.1547  0.0656
 1691SOL     ow 6761   6.901   4.801   5.581  0.0810  0.4658 -0.0958
 1691SOL     hw 6762   6.870   4.727   5.529 -0.7524  1.5703 -1.2307
 1691SOL     hw 6763   6.823   4.853   5.599  0.7066  1.3092  0.2854
 1691SOL     vw 6764   6.887   4.798   5.577  0.0536  0.7231 -0.1950
 1692SOL     ow 6765   1.812   2.694   3.335 -0.2586 -0.2562 -0.3285
 1692SOL     hw 6766   1.811   2.691   3.431 -1.6449 -0.9592 -0.3303
 1692SOL     hw 6767   1.903   2.709   3.312 -0.1298  1.5056  1.1339
 1692SOL     vw 6768   1.824   2.695   3.345 -0.4245 -0.1165 -0.1358
 1693SOL     ow 6769   2.681   6.090   3.003 -0.2099 -0.4823  0.1513
 1693SOL     hw 6770   2.739   6.159   2.973  0.8859 -2.0893 -1.5863
 1693SOL     hw 6771   2.701   6.081   3.097  1.1743  0.0876 -0.0694
 1693SOL     vw 6772   2.691   6.098   3.012  0.1173 -0.6189 -0.1070
 1694SOL     ow 6773   5.208   2.074   2.676 -0.6264  0.2271  0.4271
 1694SOL     hw 6774   5.233   2.132   2.603 -0.8841  1.5770  1.3856
 1694SOL     hw 6775   5.116   2.055   2.662  0.1420 -2.7402 -1.7266
 1694SOL     vw 6776   5.199   2.079   2.664 -0.5593  0.0137  0.2694
 1695SOL     ow 6777   5.746   6.199   6.504 -0.2081  0.3049  0.2555
 1695SOL     hw 6778   5.742   6.283   6.458  0.9679 -1.4513 -3.5522
 1695SOL     hw 6779   5.833   6.197   6.543  0.1108  0.5188 -0.4335
 1695SOL     vw 6780   5.757   6.210   6.503 -0.0110  0.1013 -0.3376
 1696SOL     ow 6781   7.078   6.645   1.400 -0.2063 -0.5123 -0.2320
 1696SOL     hw 6782   7.147   6.637   1.466  0.7263  1.9726 -0.7954
 1696SOL     hw 6783   7.125   6.669   1.320 -1.3519 -3.0141 -1.7704
 1696SOL     vw 6784   7.093   6.647   1.398 -0.2344 -0.5145 -0.5093
 1697SOL     ow 6785   3.687   3.952   0.455 -0.1112  0.3558 -0.0104
 1697SOL     hw 6786   3.721   3.981   0.370 -0.6754 -0.2060 -0.4297
 1697SOL     hw 6787   3.707   4.025   0.514  0.7737  0.5224 -0.4984
 1697SOL     vw 6788   3.694   3.966   0.452 -0.0689  0.3035 -0.1301
 1698SOL     ow 6789   5.611   6.769   1.103 -0.1993  0.4399  0.0715
 1698SOL     hw 6790   5.656   6.766   1.019  1.9460  2.1172  1.0301
 1698SOL     hw 6791   5.532   6.820   1.086  0.7156  1.6501 -0.7714
 1698SOL     vw 6792   5.607   6.775   1.090  0.2043  0.8209  0.0867
 1699SOL     ow 6793   0.060   2.244   3.256 -0.3079 -0.0546 -0.0122
 1699SOL     hw 6794   0.115   2.174   3.290 -0.4537  0.6558  1.7972
 1699SOL     hw 6795   0.121   2.317   3.240 -0.3690 -0.0958 -0.4415
 1699SOL     vw 6796   0.075   2.245   3.258 -0.3352  0.0337  0.1698
 1700SOL     ow 6797   1.126   6.941   4.886  0.5977 -0.1314 -0.0061
 1700SOL     hw 6798   1.212   6.975   4.862 -0.3579  1.0747 -2.0318
 1700SOL     hw 6799   1.110   6.975   4.974  2.0487 -0.1424  0.2839
 1700SOL     vw 6800   1.135   6.950   4.894  0.6630  0.0262 -0.2353
 1701SOL     ow 6801   3.122   6.580   4.175  0.3155  0.1035 -0.0149
 1701SOL     hw 6802   3.087   6.491   4.171 -0.7917  0.5192  0.1069
 1701SOL     hw 6803   3.212   6.569   4.207  0.3439 -0.9993 -0.4327
 1701SOL     vw 6804   3.129   6.567   4.179  0.1733  0.0131 -0.0539
 1702SOL     ow 6805   4.552   1.392   6.247  0.3877 -0.1900 -0.0372
 1702SOL     hw 6806   4.479   1.452   6.261  0.7101  0.0229  0.7557
 1702SOL     hw 6807   4.630   1.448   6.248  0.6529 -0.5596  0.2188
 1702SOL     vw 6808   4.553   1.407   6.249  0.4652 -0.2106  0.1011
 1703SOL     ow 6809   1.619   4.788   1.481  0.0634  0.0616 -0.5451
 1703SOL     hw 6810   1.644   4.858   1.542 -1.4795  1.3404 -1.2885
 1703SOL     hw 6811   1.611   4.832   1.396  0.7420 -1.3929 -1.3976
 1703SOL     vw 6812   1.621   4.803   1.478 -0.0506  0.0386 -0.7557
 1704SOL     ow 6813   4.296   5.516   2.667 -0.7809  0.0891  0.0175
 1704SOL     hw 6814   4.235   5.579   2.707  1.4514  1.9265  0.7920
 1704SOL     hw 6815   4.368   5.511   2.729 -0.2558 -2.2789 -0.7003
 1704SOL     vw 6816   4.297   5.524   2.680 -0.4168  0.0191  0.0250
 1705SOL     ow 6817   1.870   5.543   1.536  0.1247  0.1022 -0.2587
 1705SOL     hw 6818   1.832   5.592   1.609 -2.6497 -1.3935 -0.5577
 1705SOL     hw 6819   1.819   5.571   1.460  2.8403  1.4952 -1.7372
 1705SOL     vw 6820   1.859   5.553   1.535  0.1170  0.0885 -0.4932
 1706SOL     ow 6821   0.110   2.788   7.034  0.2572 -0.1545  0.0339
 1706SOL     hw 6822   0.025   2.827   7.015  0.1893  0.2759  1.1418
 1706SOL     hw 6823   0.158   2.792   6.951 -0.0411  1.5690 -0.0829
 1706SOL     vw 6824   0.105   2.794   7.021  0.2089  0.1297  0.1645
 1707SOL     ow 6825   3.701   4.325   4.797 -0.1878 -0.4360 -0.0072
 1707SOL     hw 6826   3.693   4.282   4.882  0.5612 -1.3195 -0.3718
 1707SOL     hw 6827   3.695   4.419   4.817  1.2062 -0.5587  1.1750
 1707SOL     vw 6828   3.699   4.332   4.811  0.0949 -0.5689  0.1009
 1708SOL     ow 6829   3.284   2.950   2.133 -0.4862  0.1285 -0.0839
 1708SOL     hw 6830   3.237   2.870   2.108 -2.6419  0.1011  3.3327
 1708SOL     hw 6831   3.366   2.919   2.170 -0.4801 -0.3372 -0.4741
 1708SOL     vw 6832   3.289   2.935   2.135 -0.7697  0.0634  0.3152
 1709SOL     ow 6833   4.406   5.914   5.197  0.6829 -0.5752  0.1680
 1709SOL     hw 6834   4.332   5.935   5.140  1.8795  0.5253 -1.0541
 1709SOL     hw 6835   4.449   5.840   5.154  0.0965 -1.4667  1.0804
 1709SOL     vw 6836   4.402   5.907   5.184  0.7632 -0.5479  0.1273
 1710SOL     ow 6837   6.862   4.863   4.555 -1.0205  0.4292  0.2276
 1710SOL     hw 6838   6.916   4.903   4.487 -0.9118 -0.7767 -0.4200
 1710SOL     hw 6839   6.923   4.842   4.625 -0.9488  0.6913  0.2439
 1710SOL     vw 6840   6.877   4.866   4.555 -0.9966  0.3045  0.1445
 1711SOL     ow 6841   2.442   3.658   5.742 -0.2000 -0.2373  0.3613
 1711SOL     hw 6842   2.473   3.663   5.832 -1.3883  2.3254  0.6876
 1711SOL     hw 6843   2.351   3.630   5.749 -1.1172  2.4644  0.2322
 1711SOL     vw 6844   2.434   3.655   5.754 -0.4778  0.4572  0.3872
 1712SOL     ow 6845   5.598   6.010   5.363 -0.3378  0.2724 -0.4913
 1712SOL     hw 6846   5.529   6.031   5.426 -0.3583  0.1877 -0.4848
 1712SOL     hw 6847   5.560   5.940   5.310  0.9980 -2.3277  1.7628
 1712SOL     vw 6848   5.584   6.003   5.364 -0.1640 -0.0818 -0.1931
 1713SOL     ow 6849   1.553   6.611   1.068 -0.4807  0.1160 -0.2143
 1713SOL     hw 6850   1.465   6.649   1.073 -0.3954  0.4700 -1.1753
 1713SOL     hw 6851   1.610   6.686   1.048 -0.3794 -0.5384 -2.6700
 1713SOL     vw 6852   1.549   6.626   1.066 -0.4561  0.0765 -0.6651
 1714SOL     ow 6853   6.603   1.730   3.419 -0.0889 -0.2668 -0.7798
 1714SOL     hw 6854   6.568   1.641   3.412  0.1894 -1.0190  3.9632
 1714SOL     hw 6855   6.693   1.718   3.448 -0.6133  1.4053  1.8613
 1714SOL     vw 6856   6.610   1.717   3.422 -0.1214 -0.1454  0.1943
 1715SOL     ow 6857   5.531   6.247   1.241 -0.5568  0.1478  0.3995
 1715SOL     hw 6858   5.594   6.190   1.284  2.1099  0.7107 -2.4119
 1715SOL     hw 6859   5.464   6.188   1.207  1.0271 -1.1537 -0.6308
 1715SOL     vw 6860   5.531   6.232   1.242  0.0041  0.0503 -0.1074
 1716SOL     ow 6861   4.764   2.765   2.056 -0.7881 -0.1419 -0.3336
 1716SOL     hw 6862   4.698   2.797   1.995 -0.3485  1.2452 -0.0996
 1716SOL     hw 6863   4.845   2.763   2.006 -0.7168 -0.4810 -0.2118
 1716SOL     vw 6864   4.766   2.769   2.042 -0.7210 -0.0037 -0.2866
 1717SOL     ow 6865   1.901   4.153   0.477 -0.3543  0.1494 -0.5354
 1717SOL     hw 6866   1.932   4.229   0.526  0.6071 -0.9652  0.6393
 1717SOL     hw 6867   1.935   4.165   0.389  4.0265 -1.1862  0.7295
 1717SOL     vw 6868   1.909   4.164   0.472  0.3505 -0.1736 -0.2135
 1718SOL     ow 6869   4.605   1.763   4.546  0.5459 -0.3580  0.4920
 1718SOL     hw 6870   4.538   1.787   4.610  0.2901  1.7044 -0.4735
 1718SOL     hw 6871   4.613   1.840   4.490  0.8549 -2.0076 -1.8858
 1718SOL     vw 6872   4.597   1.776   4.547  0.5531 -0.3034  0.0508
 1719SOL     ow 6873   3.313   3.912   3.800 -0.5781  0.1831 -0.3992
 1719SOL     hw 6874   3.284   3.997   3.768  0.3586  0.0563 -1.6669
 1719SOL     hw 6875   3.284   3.850   3.733  0.3878 -0.2431 -0.4410
 1719SOL     vw 6876   3.305   3.915   3.787 -0.3270  0.1101 -0.5720
 1720SOL     ow 6877   6.922   6.157   5.740 -0.3710  0.5590  0.4647
 1720SOL     hw 6878   7.014   6.172   5.717 -0.3090  1.2756  1.1552
 1720SOL     hw 6879   6.910   6.063   5.726  0.6317  0.3463  0.9031
 1720SOL     vw 6880   6.932   6.146   5.736 -0.2306  0.6254  0.6139
 1721SOL     ow 6881   0.898   6.736   4.998 -0.5826 -0.3191  0.2708
 1721SOL     hw 6882   0.807   6.732   4.966 -0.5662 -1.7166  0.3353
 1721SOL     hw 6883   0.894   6.694   5.084  0.0470  0.0225  0.4635
 1721SOL     vw 6884   0.885   6.730   5.005 -0.4974 -0.4585  0.3049
 1722SOL     ow 6885   4.977   5.479   3.804  0.7313 -0.2404 -0.3466
 1722SOL     hw 6886   4.920   5.551   3.778  0.9017  0.4545  1.0732
 1722SOL     hw 6887   5.025   5.456   3.725  1.9658  2.4296 -0.4849
 1722SOL     vw 6888   4.976   5.486   3.790  0.9167  0.2038 -0.1775
 1723SOL     ow 6889   4.563   6.500   2.095 -0.0886 -0.0732 -0.6333
 1723SOL     hw 6890   4.640   6.473   2.146 -0.5063  1.0687  0.6778
 1723SOL     hw 6891   4.599   6.540   2.016  0.6871  0.6827  0.0820
 1723SOL     vw 6892   4.578   6.502   2.092 -0.0412  0.1769 -0.3659
 1724SOL     ow 6893   2.654   2.577   4.129 -0.6192  0.2500 -0.1992
 1724SOL     hw 6894   2.602   2.657   4.119  0.6341  0.8878 -2.1947
 1724SOL     hw 6895   2.680   2.554   4.040  0.5549 -1.3916  0.5065
 1724SOL     vw 6896   2.650   2.584   4.116 -0.2990  0.1174 -0.3695
 1725SOL     ow 6897   6.207   6.737   0.462 -0.1192  0.1914  0.0492
 1725SOL     hw 6898   6.271   6.806   0.447 -1.6013  1.4902 -0.6519
 1725SOL     hw 6899   6.167   6.760   0.547 -0.0817 -0.2505  0.1869
 1725SOL     vw 6900   6.210   6.749   0.472 -0.3097  0.3042 -0.0251
 1726SOL     ow 6901   2.083   1.311   0.615 -0.0507  0.0247 -0.3310
 1726SOL     hw 6902   2.035   1.237   0.578 -0.0776 -0.3331  0.4135
 1726SOL     hw 6903   2.174   1.283   0.616  0.0326  0.2661 -0.6672
 1726SOL     vw 6904   2.089   1.298   0.610 -0.0433  0.0093 -0.2772
 1727SOL     ow 6905   1.289   0.064   6.019 -0.4704  0.6234  0.2287
 1727SOL     hw 6906   1.287  -0.030   6.004 -1.5874  0.4844  1.2064
 1727SOL     hw 6907   1.379   0.089   5.998 -0.5027 -0.4278 -1.3266
 1727SOL     vw 6908   1.301   0.055   6.014 -0.6220  0.4664  0.1523
 1728SOL     ow 6909   1.421   1.485   6.500 -0.0613 -0.9015  0.0679
 1728SOL     hw 6910   1.393   1.575   6.483 -2.2789 -1.7548 -1.2031
 1728SOL     hw 6911   1.498   1.472   6.444  0.2481  0.1556  0.2266
 1728SOL     vw 6912   1.428   1.495   6.490 -0.3131 -0.8746 -0.0787
 1729SOL     ow 6913   1.889   0.067   6.672 -0.1830  0.7373  0.3560
 1729SOL     hw 6914   1.862  -0.023   6.690 -0.2486  0.4444 -1.1096
 1729SOL     hw 6915   1.974   0.058   6.628 -0.3982  1.3644 -0.1980
 1729SOL     vw 6916   1.897   0.054   6.668 -0.2200  0.7814  0.0896
 1730SOL     ow 6917   3.342   1.104   3.506  0.3510 -0.0216  0.0533
 1730SOL     hw 6918   3.401   1.112   3.431 -0.3878  1.0835 -0.4511
 1730SOL     hw 6919   3.366   1.021   3.547  0.5253 -0.8645 -1.6324
 1730SOL     vw 6920   3.353   1.094   3.501  0.2764  0.0130 -0.2357
 1731SOL     ow 6921   5.033   7.012   0.930 -0.0328  0.3526 -0.2233
 1731SOL     hw 6922   4.997   6.926   0.908 -0.9363  0.3201  1.2073
 1731SOL     hw 6923   5.098   7.030   0.862 -1.4448 -0.4327 -1.8728
 1731SOL     vw 6924   5.037   7.003   0.918 -0.3386  0.2446 -0.2522
 1732SOL     ow 6925   3.452   3.180   4.323 -0.0144  0.3889 -0.3666
 1732SOL     hw 6926   3.398   3.103   4.308  0.2402  0.1493 -0.0619
 1732SOL     hw 6927   3.392   3.254   4.315 -0.2083  0.1705 -0.9015
 1732SOL     vw 6928   3.437   3.180   4.320 -0.0063  0.3285 -0.3972
 1733SOL     ow 6929   6.805   2.901   1.080  0.0410  0.1447  0.1096
 1733SOL     hw 6930   6.816   2.996   1.085  0.7311  0.1891 -1.5452
 1733SOL     hw 6931   6.840   2.877   0.994  1.5047 -1.8396  1.1591
 1733SOL     vw 6932   6.811   2.910   1.069  0.3250 -0.1111  0.0297
 1734SOL     ow 6933   4.327   3.745   5.319  0.0187  0.2162 -0.4591
 1734SOL     hw 6934   4.391   3.813   5.300  0.5028 -0.2531 -0.5487
 1734SOL     hw 6935   4.288   3.771   5.402  0.3870  0.4672 -0.3607
 1734SOL     vw 6936   4.330   3.757   5.328  0.1309  0.1873 -0.4580
 1735SOL     ow 6937   3.510   3.379   3.893 -0.6111 -0.2269  0.0606
 1735SOL     hw 6938   3.523   3.291   3.928  0.1991  0.1151  0.6388
 1735SOL     hw 6939   3.462   3.365   3.811  0.4429 -1.3047 -0.4161
 1735SOL     vw 6940   3.506   3.366   3.887 -0.3651 -0.3239  0.0739
 1736SOL     ow 6941   2.766   0.697   2.412 -0.5423  0.1829 -0.2650
 1736SOL     hw 6942   2.853   0.737   2.406 -0.9825  1.0375 -1.2818
 1736SOL     hw 6943   2.749   0.665   2.324 -0.9612 -0.6500  0.1110
 1736SOL     vw 6944   2.775   0.698   2.400 -0.6557  0.1858 -0.3495
 1737SOL     ow 6945   3.203   2.951   6.578 -0.3397 -0.0515 -0.3952
 1737SOL     hw 6946   3.268   2.890   6.614 -1.6252 -0.9670  0.4521
 1737SOL     hw 6947   3.207   3.027   6.637  0.5216  0.2610 -0.8333
 1737SOL     vw 6948   3.212   2.953   6.591 -0.3957 -0.1312 -0.3412
 1738SOL     ow 6949   1.983   4.649   2.385  0.2136  0.3099 -0.4356
 1738SOL     hw 6950   2.000   4.564   2.425 -0.2909  0.7517  0.7459
 1738SOL     hw 6951   1.935   4.698   2.451  0.0635  1.3505 -1.2857
 1738SOL     vw 6952   1.979   4.644   2.399  0.1273  0.5054 -0.3920
 1739SOL     ow 6953   5.924   4.859   3.163  0.3831  0.4684 -0.3925
 1739SOL     hw 6954   5.993   4.792   3.166 -0.0829 -0.0076  2.3631
 1739SOL     hw 6955   5.967   4.938   3.196 -0.0923  0.4229  0.3685
 1739SOL     vw 6956   5.939   4.861   3.168  0.2589  0.3994  0.0716
 1740SOL     ow 6957   5.292   5.383   5.678  0.0516  0.0597  0.3041
 1740SOL     hw 6958   5.266   5.473   5.662 -0.3626 -0.1315 -0.1525
 1740SOL     hw 6959   5.377   5.374   5.634  0.3359  0.3612  0.7841
 1740SOL     vw 6960   5.300   5.393   5.670  0.0343  0.0744  0.3073
 1741SOL     ow 6961   3.609   1.973   5.323 -0.0962  0.1513 -0.7619
 1741SOL     hw 6962   3.617   2.068   5.338  1.5678 -0.1469  0.5585
 1741SOL     hw 6963   3.614   1.935   5.411  0.4221 -1.2283 -1.3752
 1741SOL     vw 6964   3.611   1.981   5.337  0.1919 -0.0701 -0.6688
 1742SOL     ow 6965   3.816   4.474   0.470 -0.4617 -0.1361  0.2571
 1742SOL     hw 6966   3.799   4.568   0.474  0.5031  0.0332  0.4607
 1742SOL     hw 6967   3.784   4.440   0.554 -0.6939  0.0176  0.2330
 1742SOL     vw 6968   3.809   4.482   0.481 -0.3650 -0.0935  0.2808
 1743SOL     ow 6969   2.284   5.709   5.547  0.0313 -0.3375 -0.0168
 1743SOL     hw 6970   2.209   5.717   5.488  0.4550  1.2781 -0.3823
 1743SOL     hw 6971   2.357   5.684   5.490  0.1715 -0.0405  0.0327
 1743SOL     vw 6972   2.284   5.706   5.532  0.1056 -0.0851 -0.0587
 1744SOL     ow 6973   1.577   3.675   6.911  0.2153 -0.4183 -0.0293
 1744SOL     hw 6974   1.513   3.606   6.930  0.9772 -1.1145  0.0970
 1744SOL     hw 6975   1.626   3.642   6.836 -2.0270  1.7976 -2.6715
 1744SOL     vw 6976   1.575   3.661   6.904  0.0198 -0.2178 -0.3612
 1745SOL     ow 6977   0.291   4.597   2.130 -0.5987 -0.2098  0.0351
 1745SOL     hw 6978   0.204   4.634   2.116  0.0023  0.8549 -1.1325
 1745SOL     hw 6979   0.275   4.510   2.167 -2.1568 -0.2384 -0.6292
 1745SOL     vw 6980   0.277   4.591   2.133 -0.7250 -0.0732 -0.2067
 1746SOL     ow 6981   0.649   3.188   6.043  0.5069 -0.0727  0.0210
 1746SOL     hw 6982   0.726   3.172   6.097  0.1186 -0.4075  0.4854
 1746SOL     hw 6983   0.583   3.223   6.104  0.6758  1.3993 -0.5945
 1746SOL     vw 6984   0.650   3.190   6.058  0.4779  0.0772  0.0010
 1747SOL     ow 6985   2.903   5.382   0.027 -0.4329  0.4972  0.6607
 1747SOL     hw 6986   2.909   5.301   0.077 -4.0801 -0.1333  0.3370
 1747SOL     hw 6987   2.951   5.363  -0.054  1.7463 -0.0045  1.9800
 1747SOL     vw 6988   2.910   5.369   0.023 -0.6266  0.3479  0.7920
 1748SOL     ow 6989   0.653   6.455   1.228 -0.6368  0.0192 -0.4687
 1748SOL     hw 6990   0.615   6.543   1.221  0.0439  0.3591  0.0859
 1748SOL     hw 6991   0.624   6.423   1.313 -1.0393 -0.3748 -0.7487
 1748SOL     vw 6992   0.644   6.463   1.238 -0.6000  0.0119 -0.4325
 1749SOL     ow 6993   4.577   6.379   2.495 -0.0692 -0.4662  0.1400
 1749SOL     hw 6994   4.498   6.429   2.514 -0.3769 -1.3646  1.3565
 1749SOL     hw 6995   4.646   6.423   2.545  0.0829 -0.0459 -0.4336
 1749SOL     vw 6996   4.576   6.391   2.504 -0.0894 -0.5291  0.2248
 1750SOL     ow 6997   3.292   4.656   3.004 -0.1884  0.5105  0.2277
 1750SOL     hw 6998   3.358   4.679   2.938  0.6080 -0.1507  0.7826
 1750SOL     hw 6999   3.289   4.732   3.063  0.6466  0.2225  0.6448
 1750SOL     vw 7000   3.300   4.669   3.003  0.0268  0.3853  0.3558
 1751SOL     ow 7001   7.045   3.438   0.908  0.4354  0.0061 -0.4083
 1751SOL     hw 7002   7.050   3.374   0.979  2.7783 -0.8432 -1.2256
 1751SOL     hw 7003   7.072   3.389   0.830 -1.4341  1.0689 -1.8164
 1751SOL     vw 7004   7.049   3.423   0.907  0.4978  0.0343 -0.7019
 1752SOL     ow 7005   0.358   2.259   5.437  0.2012  0.0709  0.4399
 1752SOL     hw 7006   0.350   2.300   5.351  0.2112  0.0293  0.4190
 1752SOL     hw 7007   0.300   2.310   5.493  0.4864  0.3368  0.4956
 1752SOL     vw 7008   0.349   2.271   5.433  0.2401  0.1005  0.4444
 1753SOL     ow 7009   0.380   1.951   0.736  0.3695 -0.1632 -0.0626
 1753SOL     hw 7010   0.294   1.914   0.715 -0.9255  1.7295  1.5600
 1753SOL     hw 7011   0.403   2.005   0.661  0.0918 -0.5890 -0.4546
 1753SOL     vw 7012   0.372   1.953   0.724  0.1620  0.0303  0.0998
 1754SOL     ow 7013   2.360   6.443   3.510  0.2217 -0.0256  0.3396
 1754SOL     hw 7014   2.409   6.521   3.534  1.5192 -0.9486  0.8411
 1754SOL     hw 7015   2.409   6.406   3.436 -0.7858  0.0155 -0.3639
 1754SOL     vw 7016   2.373   6.448   3.503  0.2599 -0.1416  0.3130
 1755SOL     ow 7017   3.075   1.805   2.713 -0.1720 -0.3638  0.0775
 1755SOL     hw 7018   3.118   1.768   2.790 -0.5787  0.6566  0.8075
 1755SOL     hw 7019   2.985   1.774   2.718 -0.0358 -0.8346 -0.3484
 1755SOL     vw 7020   3.069   1.796   2.724 -0.2077 -0.2912  0.1175
 1756SOL     ow 7021   6.739   4.103   2.474 -0.0638  0.0301  0.0930
 1756SOL     hw 7022   6.665   4.050   2.504  1.8194 -1.8701  1.6695
 1756SOL     hw 7023   6.744   4.086   2.380 -0.2301 -1.6945  0.3634
 1756SOL     vw 7024   6.730   4.094   2.466  0.1624 -0.4478  0.3368
 1757SOL     ow 7025   5.891   4.975   2.052  0.0461 -0.3297 -0.1139
 1757SOL     hw 7026   5.933   4.891   2.032  0.1284 -0.5581  0.9558
 1757SOL     hw 7027   5.940   5.039   2.001 -0.3517 -0.9816 -1.3681
 1757SOL     vw 7028   5.903   4.972   2.043  0.0043 -0.4458 -0.1382
 1758SOL     ow 7029   3.143   2.072   3.294  0.0387 -0.4663 -0.0843
 1758SOL     hw 7030   3.048   2.072   3.309 -0.1604 -2.4075 -1.0752
 1758SOL     hw 7031   3.173   1.988   3.327  0.9583 -1.0262 -2.1722
 1758SOL     vw 7032   3.134   2.061   3.300  0.1339 -0.7962 -0.4905
 1759SOL     ow 7033   2.007   3.863   0.576 -0.1602  0.3150 -0.1784
 1759SOL     hw 7034   1.950   3.787   0.583  1.0690 -0.6028  0.2715
 1759SOL     hw 7035   2.034   3.865   0.484  2.0862 -1.5992  0.3199
 1759SOL     vw 7036   2.003   3.853   0.565  0.2983 -0.0587 -0.0533
 1760SOL     ow 7037   1.074   3.650   5.198 -0.2112  0.1045 -0.5002
 1760SOL     hw 7038   1.107   3.576   5.146 -0.2775 -0.2931  0.0115
 1760SOL     hw 7039   1.152   3.701   5.219 -0.0948 -0.0932 -0.4454
 1760SOL     vw 7040   1.089   3.647   5.194 -0.2046  0.0261 -0.4253
 1761SOL     ow 7041   5.105   3.243   2.099  0.4395 -0.1181 -0.2624
 1761SOL     hw 7042   5.120   3.281   2.185 -0.6374  1.3478 -0.6935
 1761SOL     hw 7043   5.179   3.273   2.046 -0.4051  1.4418 -0.6004
 1761SOL     vw 7044   5.117   3.252   2.103  0.1862  0.2812 -0.3638
 1762SOL     ow 7045   3.626   4.167   4.510 -0.2930 -0.2444  0.0908
 1762SOL     hw 7046   3.663   4.105   4.447  1.4641  1.1880 -0.3904
 1762SOL     hw 7047   3.536   4.178   4.482 -0.8549 -2.9361  0.5272
 1762SOL     vw 7048   3.619   4.160   4.498 -0.1353 -0.4106  0.0846
 1763SOL     ow 7049   4.116   3.859   6.218 -0.7053 -0.2628 -0.3034
 1763SOL     hw 7050   4.092   3.778   6.263 -1.0627  0.5464  1.0250
 1763SOL     hw 7051   4.052   3.867   6.148 -0.7461 -1.0607 -0.3693
 1763SOL     vw 7052   4.105   3.849   6.215 -0.7579 -0.2613 -0.1369
 1764SOL     ow 7053   3.147   1.947   6.839  0.3591 -0.0201  0.0212
 1764SOL     hw 7054   3.082   1.949   6.769  0.0162  0.8742  0.3439
 1764SOL     hw 7055   3.230   1.933   6.794  0.0298 -0.4532 -0.4645
 1764SOL     vw 7056   3.149   1.946   6.824  0.2706  0.0407 -0.0002
 1765SOL     ow 7057   6.826   5.438   7.005 -0.0809 -0.4865  0.4484
 1765SOL     hw 7058   6.900   5.428   6.945  1.4832  0.3077  2.1212
 1765SOL     hw 7059   6.760   5.486   6.955  1.9902  2.0558 -0.0841
 1765SOL     vw 7060   6.827   5.443   6.991  0.3986 -0.0463  0.5987
 1766SOL     ow 7061   1.753   4.888   6.553  0.1342  0.0363 -0.1180
 1766SOL     hw 7062   1.784   4.965   6.506 -0.2943  0.0997 -0.3012
 1766SOL     hw 7063   1.691   4.846   6.493  1.0608 -0.9646 -0.4011
 1766SOL     vw 7064   1.749   4.893   6.539  0.1999 -0.0875 -0.1795
 1767SOL     ow 7065   0.871   5.280   5.473  0.2694  0.1705 -0.1498
 1767SOL     hw 7066   0.847   5.187   5.478 -0.0551  0.1665 -1.3805
 1767SOL     hw 7067   0.951   5.281   5.420  0.3293  0.5838 -0.0542
 1767SOL     vw 7068   0.878   5.268   5.467  0.2345  0.2244 -0.2995
 1768SOL     ow 7069   4.445   2.970   3.225 -0.3796  0.3690  0.4309
 1768SOL     hw 7070   4.506   2.940   3.157  0.9194 -2.5481  2.7043
 1768SOL     hw 7071   4.501   2.996   3.297 -1.7919  1.3000  1.2359
 1768SOL     vw 7072   4.461   2.970   3.225 -0.3943  0.1070  0.8371
 1769SOL     ow 7073   3.188   2.811   6.950  0.1291  0.3995 -0.3589
 1769SOL     hw 7074   3.270   2.842   6.911 -0.0381  1.3946  0.0518
 1769SOL     hw 7075   3.214   2.773   7.034  0.1449  1.0331 -0.0679
 1769SOL     vw 7076   3.202   2.810   6.956  0.1091  0.6143 -0.2663
 1770SOL     ow 7077   6.654   1.292   4.440 -0.3922 -0.3526 -0.0763
 1770SOL     hw 7078   6.673   1.386   4.448  0.6187 -0.5428 -0.0445
 1770SOL     hw 7079   6.609   1.284   4.356  0.0620  0.0936 -0.3721
 1770SOL     vw 7080   6.651   1.303   4.430 -0.1988 -0.3188 -0.1111
 1771SOL     ow 7081   1.246   1.474   2.893 -0.5277  0.1712  0.7525
 1771SOL     hw 7082   1.340   1.453   2.899 -0.8729 -1.4857  0.7100
 1771SOL     hw 7083   1.235   1.504   2.803  0.1582  1.5237  1.0890
 1771SOL     vw 7084   1.257   1.475   2.882 -0.4827  0.1310  0.7912
 1772SOL     ow 7085   1.297   4.625   1.890  0.0905  0.1565  0.2055
 1772SOL     hw 7086   1.233   4.671   1.944  0.5012  1.2579 -0.2014
 1772SOL     hw 7087   1.337   4.561   1.949  1.3340  2.1036  1.5900
 1772SOL     vw 7088   1.294   4.623   1.905  0.3087  0.5584  0.3345
 1773SOL     ow 7089   3.315   6.269   0.865 -0.9109 -0.2201 -0.3240
 1773SOL     hw 7090   3.230   6.265   0.907 -0.6196 -0.1731  0.2739
 1773SOL     hw 7091   3.374   6.224   0.925  0.0038  2.0033  0.5362
 1773SOL     vw 7092   3.312   6.263   0.878 -0.7519  0.0794 -0.1316
 1774SOL     ow 7093   5.393   2.187   4.396  0.5530  0.2334  0.4186
 1774SOL     hw 7094   5.374   2.217   4.485 -0.1530  0.0693  0.3264
 1774SOL     hw 7095   5.437   2.103   4.408 -1.6959 -1.0068  0.5932
 1774SOL     vw 7096   5.396   2.180   4.409  0.1633  0.0480  0.4294
 1775SOL     ow 7097   0.176   1.089   2.185 -0.4112  0.4893 -0.9091
 1775SOL     hw 7098   0.192   1.029   2.112 -0.2008  1.1382 -1.3996
 1775SOL     hw 7099   0.148   1.032   2.257 -2.0480 -0.0198 -1.9141
 1775SOL     vw 7100   0.175   1.074   2.185 -0.5994  0.5078 -1.1066
 1776SOL     ow 7101   3.958   3.869   4.852 -0.0610  0.7400  0.1297
 1776SOL     hw 7102   4.039   3.825   4.825 -0.3105  1.0136 -1.1196
 1776SOL     hw 7103   3.898   3.798   4.873  0.2976  0.5281  0.4733
 1776SOL     vw 7104   3.961   3.854   4.851 -0.0466  0.7482  0.0103
 1777SOL     ow 7105   2.059   5.360   6.239  0.2486  0.3581 -0.4396
 1777SOL     hw 7106   2.087   5.330   6.152 -0.3799  0.0627 -0.5445
 1777SOL     hw 7107   2.014   5.442   6.222 -3.5514 -1.6095 -0.9785
 1777SOL     vw 7108   2.057   5.367   6.225 -0.3356  0.0596 -0.5245
 1778SOL     ow 7109   0.204   0.187   4.746 -0.4744 -0.4756  0.5873
 1778SOL     hw 7110   0.297   0.204   4.734 -0.3359 -2.2944 -1.4383
 1778SOL     hw 7111   0.187   0.207   4.839  1.4312  1.8551  0.5146
 1778SOL     vw 7112   0.214   0.192   4.757 -0.2047 -0.4080  0.3104
 1779SOL     ow 7113   6.156   5.490   1.181  0.4016  0.0216  1.1117
 1779SOL     hw 7114   6.068   5.491   1.142  0.9535 -3.7456 -0.7359
 1779SOL     hw 7115   6.144   5.446   1.265  0.5212 -0.5615  0.8251
 1779SOL     vw 7116   6.143   5.484   1.187  0.4902 -0.5527  0.8302
 1780SOL     ow 7117   0.891   6.805   6.914 -0.2379 -0.1729  0.5285
 1780SOL     hw 7118   0.939   6.725   6.895 -1.4836 -0.3978 -2.1327
 1780SOL     hw 7119   0.948   6.876   6.884 -0.7888 -0.3556 -1.0746
 1780SOL     vw 7120   0.905   6.804   6.908 -0.4750 -0.2265 -0.0341
 1781SOL     ow 7121   2.389   5.836   1.974  0.5320  0.8062  0.4451
 1781SOL     hw 7122   2.398   5.742   1.959  0.5379  0.9688 -0.6330
 1781SOL     hw 7123   2.303   5.858   1.938 -0.1500  0.9546  2.0949
 1781SOL     vw 7124   2.379   5.826   1.967  0.4427  0.8473  0.5205
 1782SOL     ow 7125   4.679   6.138   6.947  0.0840  0.0535 -0.1841
 1782SOL     hw 7126   4.740   6.070   6.975  1.2859  0.5625 -1.4583
 1782SOL     hw 7127   4.655   6.183   7.027  0.5352 -0.8425  0.4716
 1782SOL     vw 7128   4.684   6.135   6.961  0.3018  0.0021 -0.2658
 1783SOL     ow 7129   0.987   1.010   0.683  0.0349  0.0452  0.0964
 1783SOL     hw 7130   0.997   0.915   0.696 -0.3559 -0.9604 -4.8570
 1783SOL     hw 7131   0.895   1.021   0.659 -0.2069  1.9520  1.7044
 1783SOL     vw 7132   0.977   0.999   0.681 -0.0486  0.1641 -0.3451
 1784SOL     ow 7133   3.085   3.781   0.049  0.2093 -0.5922 -0.4207
 1784SOL     hw 7134   3.025   3.766   0.122  0.8511  0.0785  0.2602
 1784SOL     hw 7135   3.030   3.775  -0.029 -0.6218 -0.6052  0.1570
 1784SOL     vw 7136   3.070   3.778   0.048  0.1843 -0.5053 -0.2547
 1785SOL     ow 7137   3.110   2.447   7.074 -0.3802 -0.4751  0.1016
 1785SOL     hw 7138   3.175   2.509   7.107 -0.9915  0.9427 -1.2367
 1785SOL     hw 7139   3.072   2.408   7.152  1.5091 -0.7574  0.9290
 1785SOL     vw 7140   3.114   2.450   7.088 -0.2117 -0.3252  0.0342
 1786SOL     ow 7141   6.424   6.650   1.078 -0.2685 -0.7272 -0.0589
 1786SOL     hw 7142   6.463   6.617   0.997 -0.0002 -0.5719  0.0051
 1786SOL     hw 7143   6.330   6.639   1.066 -0.2474 -0.4168 -0.5205
 1786SOL     vw 7144   6.417   6.645   1.066 -0.2306 -0.6657 -0.1114
 1787SOL     ow 7145   4.722   5.337   3.885  0.2190 -0.2566 -0.2122
 1787SOL     hw 7146   4.685   5.252   3.909 -0.3577  0.2635  0.8499
 1787SOL     hw 7147   4.646   5.390   3.860  0.5966 -0.1120 -1.1028
 1787SOL     vw 7148   4.707   5.333   3.885  0.1926 -0.1688 -0.1897
 1788SOL     ow 7149   3.559   3.139   3.982  0.6841  0.2077 -0.2163
 1788SOL     hw 7150   3.603   3.069   3.933  1.9304  0.6722  0.2098
 1788SOL     hw 7151   3.478   3.099   4.012  1.4988 -1.1742  0.2611
 1788SOL     vw 7152   3.554   3.124   3.980  0.9561  0.0865 -0.0970
 1789SOL     ow 7153   4.599   0.066   6.478  0.5197 -0.1023  0.0813
 1789SOL     hw 7154   4.616   0.027   6.393 -0.6122 -0.4624  0.0163
 1789SOL     hw 7155   4.637   0.004   6.541  1.1023  0.0268 -0.1321
 1789SOL     vw 7156   4.606   0.053   6.475  0.4470 -0.1328  0.0443
 1790SOL     ow 7157   0.767   0.991   1.091  0.2921 -0.3053  0.1225
 1790SOL     hw 7158   0.839   0.970   1.150  0.0718 -0.8741  0.1935
 1790SOL     hw 7159   0.737   0.907   1.059  0.8757  0.0423 -1.3850
 1790SOL     vw 7160   0.772   0.977   1.095  0.3401 -0.3345 -0.0671
 1791SOL     ow 7161   4.243   3.575   1.390 -0.0829 -0.1212 -0.4025
 1791SOL     hw 7162   4.285   3.609   1.312 -0.6791 -3.0416 -2.1416
 1791SOL     hw 7163   4.306   3.512   1.425 -0.1453  0.6039  1.1094
 1791SOL     vw 7164   4.257   3.571   1.385 -0.1695 -0.4109 -0.4324
 1792SOL     ow 7165   4.963   3.808   6.709  0.0029  0.1243 -0.5180
 1792SOL     hw 7166   4.965   3.894   6.667 -0.1796  0.3639 -0.0441
 1792SOL     hw 7167   4.877   3.773   6.688 -0.1134  0.2720 -0.2887
 1792SOL     vw 7168   4.952   3.815   6.701 -0.0362  0.1754 -0.4251
 1793SOL     ow 7169   5.954   6.824   5.544  0.0845 -0.2699  0.0329
 1793SOL     hw 7170   6.022   6.865   5.491 -1.1287  2.2359  0.2800
 1793SOL     hw 7171   6.000   6.759   5.597  1.5664 -1.7312 -2.8434
 1793SOL     vw 7172   5.969   6.821   5.544  0.1199 -0.1321 -0.3140
 1794SOL     ow 7173   0.031   5.254   0.910 -0.1767  0.2471  0.6880
 1794SOL     hw 7174  -0.033   5.322   0.890  1.6043  1.5442 -1.0195
 1794SOL     hw 7175  -0.019   5.185   0.953 -3.0085  0.5342 -1.8462
 1794SOL     vw 7176   0.016   5.254   0.913 -0.3154  0.4561  0.1284
 1795SOL     ow 7177   0.148   4.877   5.545  0.0966  0.2800  0.4803
 1795SOL     hw 7178   0.205   4.832   5.607  0.1241 -0.6652 -0.2059
 1795SOL     hw 7179   0.192   4.960   5.529  1.3905 -0.4834 -0.1527
 1795SOL     vw 7180   0.161   4.882   5.551  0.2709  0.0548  0.3061
 1796SOL     ow 7181   4.718   0.290   6.305 -0.1618  0.5406 -0.5845
 1796SOL     hw 7182   4.750   0.234   6.235  0.0087 -0.2144  0.0830
 1796SOL     hw 7183   4.770   0.370   6.298 -0.4929  0.6788 -1.6250
 1796SOL     vw 7184   4.729   0.293   6.295 -0.1833  0.4592 -0.6337
 1797SOL     ow 7185   4.518   5.918   2.388  0.4233  0.5569  0.3953
 1797SOL     hw 7186   4.488   5.853   2.452 -0.4390 -0.4417 -0.9748
 1797SOL     hw 7187   4.586   5.967   2.434  1.7499 -1.8949  1.2057
 1797SOL     vw 7188   4.523   5.916   2.403  0.4845  0.1016  0.3214
 1798SOL     ow 7189   6.818   6.455   2.131 -0.1303 -0.1739  0.0428
 1798SOL     hw 7190   6.847   6.364   2.143 -0.5520 -0.0151  2.9193
 1798SOL     hw 7191   6.882   6.507   2.178 -1.0835  0.8353  0.2531
 1798SOL     vw 7192   6.830   6.450   2.139 -0.3121 -0.0198  0.4500
 1799SOL     ow 7193   5.052   5.925   2.917  0.2715  0.9036  0.0911
 1799SOL     hw 7194   5.039   5.831   2.928  0.7163  0.6530 -1.3927
 1799SOL     hw 7195   5.097   5.934   2.833 -0.8830  2.5086 -0.4179
 1799SOL     vw 7196   5.056   5.914   2.907  0.1776  1.0822 -0.1720
 1800SOL     ow 7197   5.575   2.449   4.268 -0.3384 -0.5059  0.6999
 1800SOL     hw 7198   5.626   2.460   4.188 -0.5061  0.3516  0.6989
 1800SOL     hw 7199   5.623   2.383   4.318  0.6617  0.1324  0.6150
 1800SOL     vw 7200   5.588   2.442   4.264 -0.2284 -0.3086  0.6886
 1801SOL     ow 7201   7.002   3.349   3.495 -0.1715  0.3150 -0.2818
 1801SOL     hw 7202   6.910   3.323   3.500 -0.0604 -0.2123  5.0652
 1801SOL     hw 7203   7.000   3.439   3.463 -2.3174 -0.1795 -1.7861
 1801SOL     vw 7204   6.990   3.357   3.492 -0.4396  0.1801  0.2253
 1802SOL     ow 7205   0.457   1.209   0.851  0.4336 -0.2510 -0.3881
 1802SOL     hw 7206   0.392   1.254   0.797  0.8146  0.1929 -0.4863
 1802SOL     hw 7207   0.410   1.135   0.888 -0.1250  0.0540 -0.4698
 1802SOL     vw 7208   0.442   1.206   0.849  0.4101 -0.1522 -0.4118
 1803SOL     ow 7209   4.901   2.649   1.330 -0.2926  0.5121 -0.0812
 1803SOL     hw 7210   4.910   2.633   1.424  2.1537 -2.1847 -0.6328
 1803SOL     hw 7211   4.972   2.710   1.309 -1.4546  1.9245 -0.1065
 1803SOL     vw 7212   4.912   2.655   1.340 -0.1230  0.3427 -0.1574
 1804SOL     ow 7213   3.921   4.204   0.372 -0.1952  0.4982  0.4239
 1804SOL     hw 7214   3.883   4.175   0.455 -0.3970  1.8332  0.8125
 1804SOL     hw 7215   3.878   4.150   0.306 -1.4354  0.7198  1.0213
 1804SOL     vw 7216   3.910   4.193   0.374 -0.3853  0.7033  0.5540
 1805SOL     ow 7217   6.135   2.390   0.467  0.2173  0.1094  0.0759
 1805SOL     hw 7218   6.053   2.353   0.499  0.4782 -0.3541  0.2077
 1805SOL     hw 7219   6.200   2.365   0.532  0.4001  0.8086  0.1755
 1805SOL     vw 7220   6.133   2.382   0.480  0.2759  0.1404  0.1064
 1806SOL     ow 7221   4.460   5.024   6.356  0.5583 -0.1165  0.8390
 1806SOL     hw 7222   4.489   5.029   6.265  0.9993 -1.0035  0.9169
 1806SOL     hw 7223   4.516   4.957   6.395  0.1855  0.0573  1.6922
 1806SOL     vw 7224   4.471   5.016   6.349  0.5672 -0.2105  0.9618
 1807SOL     ow 7225   1.956   4.895   2.222  0.6759 -0.0361 -0.6155
 1807SOL     hw 7226   1.935   4.913   2.130 -1.7419 -1.3489 -0.4192
 1807SOL     hw 7227   1.900   4.955   2.271  1.8037  0.5152  0.0278
 1807SOL     vw 7228   1.946   4.905   2.216  0.5057 -0.1366 -0.5047
 1808SOL     ow 7229   5.426   1.902   5.496 -0.0187 -0.4544 -0.8272
 1808SOL     hw 7230   5.417   1.984   5.545  2.1720 -0.8146  0.3095
 1808SOL     hw 7231   5.336   1.871   5.484 -0.7581  0.1559  2.1970
 1808SOL     vw 7232   5.413   1.908   5.501  0.1729 -0.4213 -0.2782
 1809SOL     ow 7233   4.469   1.549   4.440 -0.1887 -0.6482  0.4380
 1809SOL     hw 7234   4.419   1.631   4.436  0.1676 -0.4739 -1.3286
 1809SOL     hw 7235   4.402   1.481   4.449 -0.6147 -0.2691  0.2236
 1809SOL     vw 7236   4.453   1.551   4.440 -0.1984 -0.5752  0.1764
 1810SOL     ow 7237   0.748   6.181   4.581  0.4200  0.3571 -0.4242
 1810SOL     hw 7238   0.736   6.268   4.617  1.9741  0.6211 -0.4685
 1810SOL     hw 7239   0.819   6.143   4.633  0.0908 -0.6985 -0.7192
 1810SOL     vw 7240   0.756   6.187   4.593  0.5816  0.2527 -0.4687
 1811SOL     ow 7241   2.782   4.500   7.067  0.2361  0.0280 -0.2058
 1811SOL     hw 7242   2.805   4.411   7.095 -1.8312 -1.3417 -2.4425
 1811SOL     hw 7243   2.712   4.526   7.128  0.2876 -0.2123 -0.0393
 1811SOL     vw 7244   2.776   4.491   7.079 -0.0298 -0.1843 -0.4790
 1812SOL     ow 7245   1.690   2.526   4.424 -0.1949  0.1514 -0.3400
 1812SOL     hw 7246   1.684   2.563   4.336 -2.1787  2.3342  0.5969
 1812SOL     hw 7247   1.609   2.553   4.467  1.0866 -0.0411  2.4373
 1812SOL     vw 7248   1.679   2.535   4.418 -0.2875  0.4141  0.1502
 1813SOL     ow 7249   4.961   3.550   3.283 -0.5452 -0.1094 -0.3703
 1813SOL     hw 7250   4.898   3.618   3.259  0.4240  0.6528 -0.8336
 1813SOL     hw 7251   5.017   3.540   3.205  0.6696  0.1193  0.4470
 1813SOL     vw 7252   4.960   3.557   3.269 -0.2573  0.0213 -0.3237
 1814SOL     ow 7253   0.010   2.483   5.625  0.4593 -0.6916 -0.2467
 1814SOL     hw 7254  -0.006   2.517   5.713  0.4052 -0.2940 -0.4061
 1814SOL     hw 7255  -0.076   2.453   5.595  0.2783  0.1039 -0.5467
 1814SOL     vw 7256  -0.004   2.484   5.633  0.4284 -0.5343 -0.3076
 1815SOL     ow 7257   3.379   1.651   5.501  0.8416 -0.9934 -0.1091
 1815SOL     hw 7258   3.475   1.648   5.499  0.8605 -0.1617 -1.3625
 1815SOL     hw 7259   3.358   1.744   5.495 -0.0644 -1.2479 -1.1315
 1815SOL     vw 7260   3.389   1.663   5.500  0.7246 -0.9173 -0.4094
 1816SOL     ow 7261   6.713   6.729   6.116  0.1109 -0.5879  0.1154
 1816SOL     hw 7262   6.802   6.763   6.114  0.1669 -0.7460 -1.0801
 1816SOL     hw 7263   6.674   6.766   6.195  0.8342  0.5198 -0.0311
 1816SOL     vw 7264   6.719   6.738   6.126  0.2136 -0.4623 -0.0618
 1817SOL     ow 7265   4.926   4.984   1.970  0.4209 -0.2793  0.4519
 1817SOL     hw 7266   4.964   4.970   2.057 -0.0238 -0.6327  0.5946
 1817SOL     hw 7267   4.897   5.075   1.971 -1.3485 -0.7949  1.3953
 1817SOL     vw 7268   4.927   4.994   1.982  0.1287 -0.3941  0.5952
 1818SOL     ow 7269   4.875   6.574   2.079 -0.0506  0.5311 -0.5100
 1818SOL     hw 7270   4.844   6.658   2.114 -1.9280 -0.3000 -0.0490
 1818SOL     hw 7271   4.877   6.516   2.155  2.1579  0.3327 -0.6326
 1818SOL     vw 7272   4.871   6.578   2.094 -0.0069  0.3951 -0.4655
 1819SOL     ow 7273   5.647   4.520   6.915  0.0846 -0.2892  0.2155
 1819SOL     hw 7274   5.727   4.552   6.873 -0.1801  0.5219  0.3293
 1819SOL     hw 7275   5.630   4.436   6.872  1.7919 -1.2054  1.1647
 1819SOL     vw 7276   5.656   4.513   6.904  0.2747 -0.3033  0.3555
 1820SOL     ow 7277   2.597   5.876   2.132  0.0009 -0.4191  0.2960
 1820SOL     hw 7278   2.528   5.874   2.066  0.2260 -2.6919  0.0515
 1820SOL     hw 7279   2.615   5.969   2.145 -1.6201  0.1513 -1.1808
 1820SOL     vw 7280   2.591   5.888   2.125 -0.1833 -0.6437  0.0689
 1821SOL     ow 7281   0.700   2.812   4.652  0.2997  0.3223 -0.2116
 1821SOL     hw 7282   0.705   2.764   4.570 -0.2793  0.1537 -0.1529
 1821SOL     hw 7283   0.627   2.873   4.641  0.8514  0.9991 -0.1824
 1821SOL     vw 7284   0.691   2.813   4.640  0.2961  0.3892 -0.2000
 1822SOL     ow 7285   5.082   1.209   2.953  0.3804  0.2140  0.1651
 1822SOL     hw 7286   5.015   1.224   3.020  0.8042 -1.8701  1.1325
 1822SOL     hw 7287   5.073   1.283   2.893 -0.3595  1.8904  2.2240
 1822SOL     vw 7288   5.072   1.221   2.954  0.3386  0.1602  0.5643
 1823SOL     ow 7289   7.017   4.156   2.572 -0.4748 -0.4174  0.1635
 1823SOL     hw 7290   7.063   4.187   2.494 -0.6997  1.7299  0.8290
 1823SOL     hw 7291   7.086   4.143   2.637 -0.6127  1.8243  0.8441
 1823SOL     vw 7292   7.032   4.158   2.570 -0.5226  0.1616  0.3411
 1824SOL     ow 7293   4.090   4.507   5.365  0.2749 -0.1981 -0.1291
 1824SOL     hw 7294   4.125   4.419   5.375  0.3990 -0.4275 -2.2271
 1824SOL     hw 7295   4.110   4.550   5.448  1.6452 -1.6444  0.3316
 1824SOL     vw 7296   4.097   4.501   5.378  0.4718 -0.4194 -0.3452
 1825SOL     ow 7297   2.977   3.131   3.194  0.1981 -0.3998 -0.5233
 1825SOL     hw 7298   3.023   3.076   3.257  1.6216 -0.7016 -1.7683
 1825SOL     hw 7299   2.934   3.198   3.247  1.7481 -0.3510  0.7330
 1825SOL     vw 7300   2.977   3.133   3.209  0.5903 -0.4332 -0.5217
 1826SOL     ow 7301   3.017   2.860   6.723 -0.2820  0.0714  0.4679
 1826SOL     hw 7302   2.951   2.929   6.713  0.4165  0.6318 -0.3969
 1826SOL     hw 7303   3.092   2.891   6.672  0.7864 -0.3972  1.6985
 1826SOL     vw 7304   3.018   2.873   6.715 -0.0489  0.0834  0.5162
 1827SOL     ow 7305   0.785   4.280   2.742 -0.4464  0.2597 -0.2290
 1827SOL     hw 7306   0.838   4.308   2.817  1.0139 -1.4960 -0.5362
 1827SOL     hw 7307   0.802   4.346   2.675  1.7520 -0.4552 -0.4557
 1827SOL     vw 7308   0.794   4.293   2.743  0.0363 -0.0663 -0.2993
 1828SOL     ow 7309   6.753   4.272   0.584 -0.0873  0.4456  0.8842
 1828SOL     hw 7310   6.671   4.319   0.567 -1.4464 -2.8954 -3.5002
 1828SOL     hw 7311   6.818   4.317   0.529  0.0992  0.6808  1.2875
 1828SOL     vw 7312   6.751   4.284   0.574 -0.2420  0.0358  0.3589
 1829SOL     ow 7313   2.102   0.570   0.095 -0.1362 -1.2392  0.2158
 1829SOL     hw 7314   2.105   0.643   0.034  0.7012  0.0844  1.7773
 1829SOL     hw 7315   2.010   0.565   0.122 -0.2831 -1.0806 -0.2484
 1829SOL     vw 7316   2.090   0.579   0.090 -0.0452 -1.0436  0.3606
 1830SOL     ow 7317   6.831   7.073   4.497  0.6441  0.1298 -0.2087
 1830SOL     hw 7318   6.830   6.999   4.559 -0.7397  1.3334  1.3004
 1830SOL     hw 7319   6.778   7.140   4.540  0.0815  1.2280 -2.5005
 1830SOL     vw 7320   6.824   7.072   4.511  0.3872  0.4335 -0.3119
 1831SOL     ow 7321   4.618   5.546   1.188 -0.1460  0.0861 -0.4404
 1831SOL     hw 7322   4.621   5.453   1.212  0.2766 -0.1832 -1.4750
 1831SOL     hw 7323   4.649   5.592   1.265  2.0265 -0.7962 -0.7191
 1831SOL     vw 7324   4.623   5.539   1.201  0.1962 -0.0658 -0.6137
 1832SOL     ow 7325   5.335   1.811   2.579  0.0512 -0.1104  0.1489
 1832SOL     hw 7326   5.418   1.834   2.538  0.2485  1.6653  1.4334
 1832SOL     hw 7327   5.275   1.881   2.555 -0.1087  0.4336  1.9560
 1832SOL     vw 7328   5.338   1.823   2.570  0.0560  0.1956  0.5567
 1833SOL     ow 7329   0.104   5.821   6.667 -0.2700 -0.2994  0.4001
 1833SOL     hw 7330   0.194   5.844   6.689 -0.1587 -1.0730  0.7563
 1833SOL     hw 7331   0.104   5.726   6.660 -0.3876 -0.1776 -2.5196
 1833SOL     vw 7332   0.116   5.811   6.669 -0.2708 -0.3855  0.0618
 1834SOL     ow 7333   2.126   4.714   3.697 -0.0226 -0.1421 -0.8628
 1834SOL     hw 7334   2.078   4.640   3.734  0.1291 -0.1053 -0.5934
 1834SOL     hw 7335   2.121   4.700   3.602 -0.9608  0.1097 -0.8600
 1834SOL     vw 7336   2.119   4.702   3.689 -0.1264 -0.1040 -0.8270
 1835SOL     ow 7337   0.666   1.277   0.994 -0.4892 -0.0073 -0.4710
 1835SOL     hw 7338   0.584   1.257   0.950 -1.2349  1.8601 -0.0392
 1835SOL     hw 7339   0.680   1.370   0.977  1.2095 -0.1332  0.0169
 1835SOL     vw 7340   0.657   1.287   0.986 -0.3634  0.2224 -0.3496
 1836SOL     ow 7341   0.233   0.564   4.274 -0.1913  0.3227 -0.2381
 1836SOL     hw 7342   0.190   0.487   4.238 -1.0760  0.6406  0.1113
 1836SOL     hw 7343   0.163   0.614   4.315  0.4512  1.0577 -0.0022
 1836SOL     vw 7344   0.218   0.560   4.274 -0.2233  0.4616 -0.1612
 1837SOL     ow 7345   6.615   4.191   6.070  0.3668  0.1970 -0.0508
 1837SOL     hw 7346   6.576   4.202   6.157 -0.7230 -0.1599 -0.4722
 1837SOL     hw 7347   6.578   4.262   6.017  0.5897  0.0803 -0.3720
 1837SOL     vw 7348   6.605   4.202   6.074  0.2527  0.1347 -0.1488
 1838SOL     ow 7349   4.943   5.277   4.447  0.1170 -0.8897  0.0314
 1838SOL     hw 7350   4.937   5.371   4.431  0.8436 -0.8498 -0.0516
 1838SOL     hw 7351   4.996   5.243   4.375  1.8020 -0.9962  1.2557
 1838SOL     vw 7352   4.949   5.285   4.435  0.4351 -0.8984  0.1819
 1839SOL     ow 7353   3.423   1.954   5.065 -0.0109 -0.0337  0.5895
 1839SOL     hw 7354   3.354   1.945   4.999  0.4114  0.4070  0.0722
 1839SOL     hw 7355   3.475   2.029   5.035 -0.1898  0.5887  1.7737
 1839SOL     vw 7356   3.421   1.962   5.052  0.0212  0.1066  0.6773
 1840SOL     ow 7357   5.179   3.958   1.261 -0.2390 -0.1604 -0.7740
 1840SOL     hw 7358   5.204   4.020   1.192 -1.9408 -0.3095 -1.5500
 1840SOL     hw 7359   5.196   3.872   1.223  0.8899 -0.2338 -0.1664
 1840SOL     vw 7360   5.185   3.955   1.247 -0.3147 -0.1899 -0.7962
 1841SOL     ow 7361   4.659   3.256   1.097 -0.1200 -0.3700 -0.3376
 1841SOL     hw 7362   4.642   3.242   1.191  1.9172 -2.0692 -0.1305
 1841SOL     hw 7363   4.718   3.331   1.095  0.9329 -1.1593 -0.0880
 1841SOL     vw 7364   4.665   3.264   1.109  0.2878 -0.6982 -0.2774
 1842SOL     ow 7365   3.375   4.971   6.682 -0.2138  0.3474  0.2788
 1842SOL     hw 7366   3.303   5.029   6.710 -1.3311 -0.3250 -1.0852
 1842SOL     hw 7367   3.450   5.029   6.673 -0.2122  0.8832  2.9212
 1842SOL     vw 7368   3.375   4.987   6.685 -0.3610  0.3293  0.4475
 1843SOL     ow 7369   2.521   1.485   3.516 -0.1989 -0.0711 -0.5958
 1843SOL     hw 7370   2.516   1.523   3.428 -0.4737  2.2254  0.3462
 1843SOL     hw 7371   2.447   1.425   3.520 -0.1505 -0.2509 -1.9547
 1843SOL     vw 7372   2.511   1.482   3.505 -0.2289  0.2083 -0.6506
 1844SOL     ow 7373   1.507   1.966   2.253 -0.1547  0.3137  0.6870
 1844SOL     hw 7374   1.560   1.915   2.192 -1.7776  0.4988 -0.9845
 1844SOL     hw 7375   1.502   2.053   2.212  0.0947  0.9565  1.9687
 1844SOL     vw 7376   1.513   1.971   2.239 -0.3359  0.4230  0.6356
 1845SOL     ow 7377   5.854   5.890   3.206 -0.0009 -0.1514 -0.3236
 1845SOL     hw 7378   5.874   5.797   3.209  1.7734  0.0987 -2.2973
 1845SOL     hw 7379   5.772   5.899   3.255  2.3812 -1.9306  4.6819
 1845SOL     vw 7380   5.846   5.879   3.213  0.5474 -0.3529  0.0764
 1846SOL     ow 7381   1.922   6.897   1.980  0.2801  0.4965  0.8174
 1846SOL     hw 7382   1.868   6.918   2.056  0.7082 -0.4005  1.3877
 1846SOL     hw 7383   1.891   6.956   1.912 -0.0252  1.4146  1.7213
 1846SOL     vw 7384   1.911   6.908   1.981  0.2963  0.4995  1.0118
 1847SOL     ow 7385   5.293   5.601   3.664 -0.1075 -0.5919  0.9594
 1847SOL     hw 7386   5.351   5.596   3.740 -1.4799  0.0701  2.0994
 1847SOL     hw 7387   5.244   5.682   3.676  0.7395  0.3868 -1.4952
 1847SOL     vw 7388   5.294   5.611   3.676 -0.1769 -0.3757  0.7859
 1848SOL     ow 7389   1.259   0.264   6.406 -0.4876 -0.4378  0.1166
 1848SOL     hw 7390   1.310   0.186   6.385  0.2795  0.6487 -2.5687
 1848SOL     hw 7391   1.295   0.332   6.349 -1.0559  1.9471  2.3928
 1848SOL     vw 7392   1.270   0.263   6.395 -0.4613  0.0202  0.0627
 1849SOL     ow 7393   3.322   3.135   5.313  0.2135 -0.3144  0.6303
 1849SOL     hw 7394   3.364   3.057   5.350  1.1506 -0.9078 -1.5148
 1849SOL     hw 7395   3.376   3.207   5.344  1.4606 -0.8663 -0.1853
 1849SOL     vw 7396   3.335   3.134   5.322  0.5018 -0.4655  0.2396
 1850SOL     ow 7397   6.962   3.183   2.524 -0.1185 -0.3750  0.0261
 1850SOL     hw 7398   6.898   3.254   2.515 -1.0811 -1.1779  0.3796
 1850SOL     hw 7399   6.942   3.143   2.608  1.3920 -0.1476  0.5331
 1850SOL     vw 7400   6.951   3.187   2.534 -0.0460 -0.4510  0.1397
 1851SOL     ow 7401   6.253   4.174   6.090  0.3646 -0.2998  0.0966
 1851SOL     hw 7402   6.322   4.240   6.088 -0.0643  0.1338 -1.2221
 1851SOL     hw 7403   6.201   4.195   6.168  0.5044  0.6324 -0.0518
 1851SOL     vw 7404   6.255   4.185   6.100  0.3264 -0.1197 -0.0966
 1852SOL     ow 7405   4.747   5.635   3.669  0.3597  0.4584  0.0876
 1852SOL     hw 7406   4.772   5.723   3.697  1.9121  0.2101 -0.3908
 1852SOL     hw 7407   4.771   5.632   3.576 -0.2721 -0.2560 -0.0567
 1852SOL     vw 7408   4.754   5.647   3.661  0.4809  0.3312  0.0054
 1853SOL     ow 7409   5.336   6.586   0.148 -0.8741 -0.1966  0.5939
 1853SOL     hw 7410   5.291   6.525   0.206 -1.0102 -0.1398  0.5491
 1853SOL     hw 7411   5.402   6.628   0.203  1.5660 -2.7897 -0.1132
 1853SOL     vw 7412   5.339   6.584   0.163 -0.5701 -0.5314  0.4947
 1854SOL     ow 7413   0.002   1.588   0.760 -0.6776  0.2378  0.4658
 1854SOL     hw 7414  -0.089   1.593   0.788 -1.2739  3.2559 -1.5576
 1854SOL     hw 7415  -0.002   1.585   0.664  1.2692  2.9575  0.1925
 1854SOL     vw 7416  -0.010   1.588   0.751 -0.4995  0.9948  0.1627
 1855SOL     ow 7417   5.731   2.386   3.366 -0.0618  0.5676  0.4480
 1855SOL     hw 7418   5.697   2.408   3.453 -0.8791 -0.7465  0.4823
 1855SOL     hw 7419   5.661   2.411   3.306 -0.2308 -0.1867  0.3306
 1855SOL     vw 7420   5.717   2.392   3.370 -0.1917  0.2948  0.4369
 1856SOL     ow 7421   6.279   4.223   3.419  0.4704 -0.0961 -0.0177
 1856SOL     hw 7422   6.326   4.260   3.344  0.3536 -0.9560 -0.5285
 1856SOL     hw 7423   6.189   4.214   3.389  0.1223  0.8101  0.6957
 1856SOL     vw 7424   6.273   4.227   3.405  0.4094 -0.0896  0.0091
 1857SOL     ow 7425   2.787   1.529   3.668  0.6635 -0.3255  0.3454
 1857SOL     hw 7426   2.871   1.523   3.622  0.4890 -0.4390  0.0382
 1857SOL     hw 7427   2.797   1.604   3.726  1.1896 -0.6958  0.7481
 1857SOL     vw 7428   2.800   1.538   3.670  0.7098 -0.3893  0.3580
 1858SOL     ow 7429   6.413   5.729   4.632  0.3795 -0.3160  0.4534
 1858SOL     hw 7430   6.458   5.799   4.680  0.5435  1.1888 -1.7699
 1858SOL     hw 7431   6.473   5.706   4.562  0.1835 -2.5382  0.9477
 1858SOL     vw 7432   6.427   5.735   4.629  0.3753 -0.4108  0.2255
 1859SOL     ow 7433   1.241   1.158   4.600  0.4205  0.2307  0.1954
 1859SOL     hw 7434   1.151   1.129   4.616  0.4067 -0.0929 -0.4426
 1859SOL     hw 7435   1.296   1.095   4.647  0.2859  1.3374  1.9289
 1859SOL     vw 7436   1.236   1.146   4.608  0.4010  0.3340  0.3397
 1860SOL     ow 7437   5.767   6.857   1.334 -0.2932  0.6475 -0.3065
 1860SOL     hw 7438   5.815   6.778   1.360 -2.0335  0.0857  1.5473
 1860SOL     hw 7439   5.714   6.829   1.259  0.0332  0.4299 -0.4594
 1860SOL     vw 7440   5.766   6.843   1.328 -0.4797  0.5448 -0.0821
 1861SOL     ow 7441   0.130   4.174   2.762  0.4740  0.1489  0.1265
 1861SOL     hw 7442   0.067   4.182   2.835  1.5612  0.4446  1.0599
 1861SOL     hw 7443   0.181   4.096   2.784  1.6674  0.9783  0.3839
 1861SOL     vw 7444   0.128   4.165   2.775  0.7749  0.2971  0.2835
 1862SOL     ow 7445   2.706   6.814   0.513 -0.5472  0.0568  0.4178
 1862SOL     hw 7446   2.694   6.729   0.554  1.8644 -0.0436  1.0267
 1862SOL     hw 7447   2.778   6.854   0.560 -1.0887  2.1236 -0.3864
 1862SOL     vw 7448   2.714   6.808   0.524 -0.3005  0.3159  0.3920
 1863SOL     ow 7449   3.308   1.107   0.247 -0.2665 -0.3711 -0.5281
 1863SOL     hw 7450   3.277   1.134   0.161  1.9397  1.6784 -0.7879
 1863SOL     hw 7451   3.402   1.094   0.236 -0.0149 -0.6044  1.4641
 1863SOL     vw 7452   3.317   1.109   0.234  0.0577 -0.1314 -0.2995
 1864SOL     ow 7453   4.703   4.811   4.555  0.2861  0.0143 -0.4075
 1864SOL     hw 7454   4.619   4.841   4.588  1.0877  2.1986 -0.1561
 1864SOL     hw 7455   4.750   4.780   4.633 -0.3899 -1.5895 -0.6056
 1864SOL     vw 7456   4.698   4.811   4.570  0.3028  0.0908 -0.4005
 1865SOL     ow 7457   4.548   2.099   6.465  0.8227  0.1738 -0.0840
 1865SOL     hw 7458   4.546   2.076   6.557  0.9941 -0.0433 -0.1356
 1865SOL     hw 7459   4.636   2.078   6.436  0.2417 -1.5267 -0.7400
 1865SOL     vw 7460   4.559   2.093   6.473  0.7689 -0.0792 -0.1774
 1866SOL     ow 7461   0.811   3.580   5.145  0.0674  0.0467  0.0144
 1866SOL     hw 7462   0.850   3.496   5.123  0.7071  0.8389 -2.1352
 1866SOL     hw 7463   0.719   3.571   5.121 -0.1611 -0.4523  1.0491
 1866SOL     vw 7464   0.804   3.568   5.139  0.1217  0.0854 -0.1328
 1867SOL     ow 7465   4.336   1.532   0.696 -0.4575 -0.4319 -0.0487
 1867SOL     hw 7466   4.414   1.540   0.641 -0.7317  0.8020 -0.2819
 1867SOL     hw 7467   4.358   1.463   0.758  0.7296 -0.2814 -0.2723
 1867SOL     vw 7468   4.349   1.524   0.697 -0.3369 -0.2493 -0.1090
 1868SOL     ow 7469   2.065   0.232   5.436  0.2018  0.1729  0.4401
 1868SOL     hw 7470   2.027   0.151   5.401  2.4244 -0.7709  0.0799
 1868SOL     hw 7471   2.159   0.221   5.426  0.7362  1.5961  3.0290
 1868SOL     vw 7472   2.072   0.219   5.431  0.5655  0.2362  0.7343
 1869SOL     ow 7473   3.872   3.881   1.625 -0.3749  0.0341  0.0765
 1869SOL     hw 7474   3.816   3.804   1.615  0.3870 -0.7099  1.2539
 1869SOL     hw 7475   3.894   3.883   1.718  3.0860 -0.8435 -0.5732
 1869SOL     vw 7476   3.868   3.871   1.636  0.1825 -0.1798  0.1462
 1870SOL     ow 7477   6.377   1.170   3.287  0.6176  0.3553  0.4634
 1870SOL     hw 7478   6.391   1.173   3.193  0.1454  1.2297  0.4033
 1870SOL     hw 7479   6.303   1.230   3.302  1.0778  0.7066  1.4425
 1870SOL     vw 7480   6.369   1.179   3.277  0.6161  0.5170  0.5847
 1871SOL     ow 7481   6.223   6.631   2.459 -0.3310 -0.0223  0.2100
 1871SOL     hw 7482   6.274   6.634   2.540  0.2043  0.2294 -0.1245
 1871SOL     hw 7483   6.233   6.718   2.420 -1.4452  0.1934  0.3804
 1871SOL     vw 7484   6.231   6.643   2.464 -0.4072  0.0393  0.1884
 1872SOL     ow 7485   0.312   6.883   6.959  0.1921 -0.0228  0.1194
 1872SOL     hw 7486   0.292   6.884   6.865 -0.8575  1.2273  0.3208
 1872SOL     hw 7487   0.228   6.866   7.001  0.8276 -1.5480  0.8245
 1872SOL     vw 7488   0.298   6.881   6.952  0.1375 -0.0594  0.2387
 1873SOL     ow 7489   6.148   1.018   3.241 -0.0791 -0.1723 -0.0212
 1873SOL     hw 7490   6.122   1.091   3.185  1.7354  0.7012  0.2071
 1873SOL     hw 7491   6.234   1.042   3.275 -0.3628 -1.4486  1.7982
 1873SOL     vw 7492   6.156   1.030   3.238  0.1228 -0.2254  0.2490
 1874SOL     ow 7493   6.006   4.979   2.597  0.1832 -0.2512  0.3689
 1874SOL     hw 7494   6.000   5.070   2.624  3.8029  0.4567 -0.6952
 1874SOL     hw 7495   5.947   4.972   2.521 -0.5024  1.0255  0.7576
 1874SOL     vw 7496   5.997   4.990   2.590  0.5703  0.0110  0.2798
 1875SOL     ow 7497   6.819   1.816   5.573 -0.3161 -0.2894  0.3715
 1875SOL     hw 7498   6.739   1.869   5.580 -0.4957 -0.6076  0.7500
 1875SOL     hw 7499   6.790   1.735   5.531 -0.3450 -0.7119  1.1810
 1875SOL     vw 7500   6.804   1.812   5.568 -0.3438 -0.3871  0.5283
 1876SOL     ow 7501   6.931   1.054   4.410  0.1685  0.8484 -0.1464
 1876SOL     hw 7502   6.955   1.091   4.326 -1.3281 -0.3368 -1.1475
 1876SOL     hw 7503   6.899   0.966   4.390  0.8726  0.0780  1.7977
 1876SOL     vw 7504   6.930   1.047   4.396  0.0639  0.5903 -0.0222
 1877SOL     ow 7505   2.683   1.282   5.219  0.6632 -0.2645  0.9605
 1877SOL     hw 7506   2.777   1.294   5.232  0.3725  2.9375  0.9808
 1877SOL     hw 7507   2.643   1.339   5.285 -1.2815 -1.1806  0.6235
 1877SOL     vw 7508   2.690   1.291   5.229  0.3682  0.0371  0.9189
 1878SOL     ow 7509   4.930   4.969   4.540  0.1608 -0.1138  1.2127
 1878SOL     hw 7510   4.996   4.926   4.594  1.4934 -0.5837 -0.7070
 1878SOL     hw 7511   4.860   4.904   4.530  0.8954 -0.8184  0.6056
 1878SOL     vw 7512   4.929   4.955   4.546  0.4339 -0.2689  0.8790
 1879SOL     ow 7513   4.729   5.854   2.741 -0.2207 -0.1416  0.1964
 1879SOL     hw 7514   4.811   5.848   2.692 -0.1432 -2.2615  0.4649
 1879SOL     hw 7515   4.668   5.797   2.694 -0.0467 -2.5439  2.5934
 1879SOL     vw 7516   4.732   5.846   2.729 -0.1874 -0.7381  0.5480
 1880SOL     ow 7517   3.209   0.908   1.387  0.0923  0.0346 -0.5905
 1880SOL     hw 7518   3.206   0.960   1.307 -2.4104  0.4309 -0.3277
 1880SOL     hw 7519   3.237   0.821   1.359 -1.0610  0.0844 -1.9961
 1880SOL     vw 7520   3.212   0.903   1.373 -0.3901  0.0935 -0.7414
 1881SOL     ow 7521   1.057   6.935   4.630 -0.4702  0.2760 -0.1171
 1881SOL     hw 7522   1.085   6.924   4.720  0.5927 -0.4040 -0.5103
 1881SOL     hw 7523   1.019   6.850   4.606 -2.8873  1.1378  0.3679
 1881SOL     vw 7524   1.055   6.922   4.638 -0.6488  0.2999 -0.1049
 1882SOL     ow 7525   4.098   4.885   3.210 -0.1829  0.3167 -0.3881
 1882SOL     hw 7526   4.046   4.911   3.286 -0.7741  0.9498 -0.9945
 1882SOL     hw 7527   4.189   4.891   3.240 -0.4456 -1.0598  0.7643
 1882SOL     vw 7528   4.103   4.889   3.224 -0.2956  0.2186 -0.3160
 1883SOL     ow 7529   5.307   4.317   6.688  0.0150  0.0759 -0.2427
 1883SOL     hw 7530   5.244   4.265   6.738 -0.6442 -0.2686 -1.3731
 1883SOL     hw 7531   5.258   4.394   6.659  0.6083  0.6684  0.2992
 1883SOL     vw 7532   5.292   4.320   6.691  0.0062  0.1087 -0.3202
 1884SOL     ow 7533   3.249   4.306   6.150 -0.0536  0.4053  0.0050
 1884SOL     hw 7534   3.237   4.291   6.056 -1.4040  0.7639  0.1110
 1884SOL     hw 7535   3.285   4.223   6.182  0.3368  0.2476 -0.8003
 1884SOL     vw 7536   3.252   4.293   6.142 -0.1802  0.4318 -0.0873
 1885SOL     ow 7537   5.616   3.769   1.793  0.3487 -0.1772 -0.2643
 1885SOL     hw 7538   5.618   3.836   1.860  0.0861  2.2086 -2.4824
 1885SOL     hw 7539   5.708   3.757   1.768  0.2027  1.9006 -2.1075
 1885SOL     vw 7540   5.629   3.776   1.798  0.2947  0.4117 -0.8001
 1886SOL     ow 7541   1.820   1.906   1.633 -0.1232  0.0653 -0.4508
 1886SOL     hw 7542   1.778   1.885   1.716  1.0386 -0.6745 -0.0362
 1886SOL     hw 7543   1.877   1.831   1.615 -0.0441  0.4069 -1.7057
 1886SOL     vw 7544   1.822   1.894   1.641  0.0405  0.0128 -0.5617
 1887SOL     ow 7545   4.214   0.258   0.293 -0.2224 -0.7811 -0.7515
 1887SOL     hw 7546   4.230   0.165   0.308  1.6051 -0.7914 -2.3919
 1887SOL     hw 7547   4.128   0.262   0.250 -1.0876 -1.5200  0.8437
 1887SOL     vw 7548   4.205   0.246   0.289 -0.0954 -0.8800 -0.7575
 1888SOL     ow 7549   1.878   6.616   2.126  0.0294  0.2234  0.4984
 1888SOL     hw 7550   1.855   6.663   2.207  0.8028  1.2541  0.1342
 1888SOL     hw 7551   1.846   6.673   2.056  0.4626 -0.0768  0.0560
 1888SOL     vw 7552   1.870   6.630   2.128  0.1886  0.3200  0.3920
 1889SOL     ow 7553   6.290   2.190   1.377 -0.0635 -0.0790 -0.1659
 1889SOL     hw 7554   6.255   2.275   1.401  2.8089  1.3511 -0.6438
 1889SOL     hw 7555   6.364   2.176   1.436  1.8832 -0.4101 -2.5174
 1889SOL     vw 7556   6.295   2.199   1.388  0.5722  0.0660 -0.5392
 1890SOL     ow 7557   1.600   5.581   2.276 -0.6639 -0.5976 -0.8183
 1890SOL     hw 7558   1.555   5.590   2.192 -0.8114  1.6056 -0.5534
 1890SOL     hw 7559   1.649   5.499   2.268  0.0519 -0.0118 -3.3999
 1890SOL     vw 7560   1.601   5.571   2.264 -0.5890 -0.2296 -1.1240
 1891SOL     ow 7561   3.373   3.463   6.552 -0.7028  0.1481  0.0576
 1891SOL     hw 7562   3.415   3.470   6.467 -0.1373  1.4958  0.4202
 1891SOL     hw 7563   3.322   3.543   6.561 -0.2338  0.3361  1.2427
 1891SOL     vw 7564   3.372   3.474   6.542 -0.5664  0.3506  0.2618
 1892SOL     ow 7565   1.809   4.646   5.427  0.1198 -0.2612  0.2705
 1892SOL     hw 7566   1.842   4.717   5.483 -1.6566  0.2101  0.8068
 1892SOL     hw 7567   1.714   4.647   5.441 -0.2816 -0.8074 -2.0041
 1892SOL     vw 7568   1.801   4.655   5.436 -0.1675 -0.2711  0.0412
 1893SOL     ow 7569   3.452   3.510   4.125 -0.1948  0.2127 -0.1273
 1893SOL     hw 7570   3.479   3.463   4.046 -0.3661 -0.7627  0.3710
 1893SOL     hw 7571   3.385   3.453   4.164 -0.5682  0.9948  0.3846
 1893SOL     vw 7572   3.447   3.496   4.120 -0.2667  0.1870  0.0060
 1894SOL     ow 7573   6.319   1.135   1.636  0.4034 -0.8111  0.0941
 1894SOL     hw 7574   6.272   1.167   1.713  0.3013 -0.3555 -0.1594
 1894SOL     hw 7575   6.295   1.042   1.631  0.8725 -0.9922  0.9465
 1894SOL     vw 7576   6.309   1.127   1.646  0.4516 -0.7749  0.1731
 1895SOL     ow 7577   4.435   1.254   2.600 -0.2133  0.0265  0.7541
 1895SOL     hw 7578   4.448   1.240   2.694  0.1557 -3.7318  0.2725
 1895SOL     hw 7579   4.348   1.293   2.593 -0.0291  0.8762  2.6379
 1895SOL     vw 7580   4.425   1.258   2.611 -0.1404 -0.3573  0.9390
 1896SOL     ow 7581   6.382   4.692   1.598 -0.3857  0.3563 -0.1310
 1896SOL     hw 7582   6.414   4.741   1.674 -0.8298  1.0393 -0.3729
 1896SOL     hw 7583   6.296   4.660   1.624 -0.9359  1.3710 -0.6593
 1896SOL     vw 7584   6.375   4.694   1.611 -0.5171  0.5803 -0.2325
 1897SOL     ow 7585   1.405   2.656   6.173 -0.0293 -0.4420 -0.0209
 1897SOL     hw 7586   1.330   2.716   6.179 -1.2205 -1.9440  0.7765
 1897SOL     hw 7587   1.398   2.617   6.086  0.5464  0.2760 -0.4051
 1897SOL     vw 7588   1.394   2.659   6.163 -0.1106 -0.5454  0.0336
 1898SOL     ow 7589   1.497   3.016   7.021 -0.3296  0.2561  0.4617
 1898SOL     hw 7590   1.504   3.014   7.116  0.7732 -1.0601  0.3780
 1898SOL     hw 7591   1.575   3.063   6.992 -0.0479 -0.3758  0.1733
 1898SOL     vw 7592   1.508   3.022   7.030 -0.1469 -0.0010  0.4125
 1899SOL     ow 7593   6.116   0.014   5.252  0.3032  0.4505  0.4209
 1899SOL     hw 7594   6.074  -0.072   5.258 -1.3483  1.1535 -0.4301
 1899SOL     hw 7595   6.049   0.075   5.284  1.4446  1.4416  0.9809
 1899SOL     vw 7596   6.101   0.010   5.257  0.2358  0.6740  0.3824
 1900SOL     ow 7597   4.167   1.033   4.215 -0.2701 -0.0142  0.1059
 1900SOL     hw 7598   4.073   1.025   4.199 -0.1525 -0.6955 -0.2666
 1900SOL     hw 7599   4.187   1.125   4.194 -0.4743 -0.3844 -1.8620
 1900SOL     vw 7600   4.157   1.044   4.211 -0.2816 -0.1529 -0.2031
 1901SOL     ow 7601   0.462   5.530   1.932  0.0090  0.1869  0.3694
 1901SOL     hw 7602   0.496   5.611   1.894  1.1449 -0.3546  0.1831
 1901SOL     hw 7603   0.494   5.460   1.875 -0.4070 -0.4474  0.8834
 1901SOL     vw 7604   0.471   5.531   1.920  0.1040  0.0317  0.4126
 1902SOL     ow 7605   5.341   0.975   1.331  0.0946 -0.5936 -0.0278
 1902SOL     hw 7606   5.392   0.996   1.252  0.0127 -0.4200 -0.0352
 1902SOL     hw 7607   5.259   1.023   1.320  0.2150 -0.3031  0.3171
 1902SOL     vw 7608   5.337   0.984   1.319  0.0997 -0.5324  0.0166
 1903SOL     ow 7609   0.886   5.338   4.905  0.4443 -0.0874  0.6049
 1903SOL     hw 7610   0.940   5.345   4.984  1.1339  1.4033  0.0241
 1903SOL     hw 7611   0.897   5.247   4.877  1.0889 -0.3292  1.6043
 1903SOL     vw 7612   0.895   5.327   4.912  0.6203  0.0775  0.6602
 1904SOL     ow 7613   0.435   5.790   6.236  0.0512  0.4036  0.0529
 1904SOL     hw 7614   0.454   5.872   6.283  2.3254  0.5283 -0.9132
 1904SOL     hw 7615   0.414   5.818   6.147 -2.5578  0.0761  0.5124
 1904SOL     vw 7616   0.435   5.805   6.231  0.0070  0.3767 -0.0136
 1905SOL     ow 7617   5.827   0.281   2.499  0.4626 -0.6283  0.8518
 1905SOL     hw 7618   5.812   0.375   2.507  2.3133 -0.1767 -0.3057
 1905SOL     hw 7619   5.894   0.263   2.565  0.1086 -1.1478  1.0752
 1905SOL     vw 7620   5.834   0.291   2.509  0.6599 -0.6373  0.7286
 1906SOL     ow 7621   1.702   3.918   6.023 -0.3817  0.5504 -0.5448
 1906SOL     hw 7622   1.712   3.975   5.947 -0.6045  0.3088 -0.7562
 1906SOL     hw 7623   1.743   3.836   5.996 -2.1693 -0.1940 -1.1310
 1906SOL     vw 7624   1.709   3.915   6.009 -0.6469  0.4205 -0.6502
 1907SOL     ow 7625   7.060   2.484   4.271  0.1536 -0.0101 -0.1624
 1907SOL     hw 7626   6.981   2.487   4.325  0.1348  1.5158 -0.2291
 1907SOL     hw 7627   7.043   2.545   4.200  1.1755 -0.0862 -0.4897
 1907SOL     vw 7628   7.047   2.493   4.269  0.2859  0.1811 -0.2146
 1908SOL     ow 7629   1.289   1.126   0.310  0.0332 -0.6717 -0.0639
 1908SOL     hw 7630   1.376   1.131   0.271  1.1232 -0.8679  2.1884
 1908SOL     hw 7631   1.253   1.043   0.279  0.9464 -0.9424 -0.4255
 1908SOL     vw 7632   1.296   1.116   0.301  0.2975 -0.7333  0.1855
 1909SOL     ow 7633   7.042   5.109   0.303  0.3615 -0.5617  0.0769
 1909SOL     hw 7634   7.083   5.155   0.229  0.0917  0.1925  0.3857
 1909SOL     hw 7635   6.951   5.097   0.276  0.6742 -1.8718 -0.4399
 1909SOL     vw 7636   7.035   5.114   0.290  0.3672 -0.6351  0.0495
 1910SOL     ow 7637   3.904   5.061   3.113  0.1894 -0.1059  0.6204
 1910SOL     hw 7638   3.948   4.981   3.143 -1.0481 -0.6845  0.9402
 1910SOL     hw 7639   3.811   5.039   3.114 -0.2302  1.5791  1.4115
 1910SOL     vw 7640   3.898   5.048   3.117 -0.0292  0.0398  0.7669
 1911SOL     ow 7641   2.977   2.099   2.631 -0.3420 -0.2575  0.2493
 1911SOL     hw 7642   2.977   2.193   2.651  0.5982 -0.1287 -0.3019
 1911SOL     hw 7643   2.891   2.084   2.592  0.4006  0.9690 -2.1215
 1911SOL     vw 7644   2.966   2.110   2.628 -0.1202 -0.0787 -0.1363
 1912SOL     ow 7645   1.845   2.275   4.388 -0.6255 -0.0557  0.0821
 1912SOL     hw 7646   1.867   2.195   4.436 -0.5968 -0.3842 -0.4710
 1912SOL     hw 7647   1.854   2.251   4.296 -0.6231  0.5854 -0.0886
 1912SOL     vw 7648   1.849   2.261   4.382 -0.6214 -0.0145 -0.0136
 1913SOL     ow 7649   2.279   1.613   6.860 -0.2570 -0.0073 -0.7161
 1913SOL     hw 7650   2.347   1.677   6.882 -0.0251 -0.4887 -0.0255
 1913SOL     hw 7651   2.203   1.640   6.911  0.3893 -1.3369  1.0220
 1913SOL     vw 7652   2.278   1.625   6.869 -0.1410 -0.2462 -0.3955
 1914SOL     ow 7653   5.266   4.128   6.486 -0.0953 -0.1041 -0.0689
 1914SOL     hw 7654   5.264   4.176   6.569 -0.4642  0.3920 -0.3618
 1914SOL     hw 7655   5.234   4.041   6.509  0.3919 -0.1614  0.4267
 1914SOL     vw 7656   5.262   4.123   6.500 -0.0799 -0.0463 -0.0420
 1915SOL     ow 7657   4.850   0.521   3.793  0.5840 -0.8915 -0.1200
 1915SOL     hw 7658   4.760   0.497   3.815 -0.1681  2.0896  0.4625
 1915SOL     hw 7659   4.859   0.498   3.700 -1.4201  0.3045 -0.6807
 1915SOL     vw 7660   4.839   0.515   3.784  0.2205 -0.3404 -0.1169
 1916SOL     ow 7661   1.253   5.453   6.250 -0.4502  0.2336  0.2324
 1916SOL     hw 7662   1.204   5.533   6.269 -0.8754 -0.0572  0.3758
 1916SOL     hw 7663   1.343   5.473   6.279 -0.8663  0.1469  1.6415
 1916SOL     vw 7664   1.259   5.467   6.256 -0.5611  0.1836  0.4373
 1917SOL     ow 7665   5.883   2.098   0.102  0.1203  0.3401  0.0046
 1917SOL     hw 7666   5.876   2.072   0.194  1.1256  0.4809  0.1367
 1917SOL     hw 7667   5.795   2.127   0.078  0.1036  1.3864  1.2606
 1917SOL     vw 7668   5.871   2.098   0.111  0.2503  0.4966  0.1878
 1918SOL     ow 7669   3.383   3.064   0.435 -0.3806 -0.2784 -0.3927
 1918SOL     hw 7670   3.355   2.973   0.437  3.8020 -1.7897 -0.5046
 1918SOL     hw 7671   3.386   3.091   0.527 -1.3779 -0.2996 -0.3440
 1918SOL     vw 7672   3.380   3.056   0.447  0.0397 -0.4807 -0.4010
 1919SOL     ow 7673   5.659   3.580   1.100  0.5176 -0.2615  0.1899
 1919SOL     hw 7674   5.681   3.673   1.111 -1.1971  0.4423 -1.6395
 1919SOL     hw 7675   5.582   3.567   1.155  0.4146 -0.4525  0.0013
 1919SOL     vw 7676   5.652   3.591   1.108  0.2775 -0.1941 -0.0763
 1920SOL     ow 7677   1.035   1.752   3.955  0.3670 -0.1668 -0.0357
 1920SOL     hw 7678   0.987   1.709   3.883  2.3603 -0.6861 -1.1197
 1920SOL     hw 7679   1.045   1.683   4.021  0.9148 -0.5142 -0.4682
 1920SOL     vw 7680   1.030   1.737   3.954  0.7023 -0.2811 -0.2359
 1921SOL     ow 7681   0.282   1.606   0.705 -0.1368  0.7504 -0.5598
 1921SOL     hw 7682   0.252   1.519   0.678  0.0745  0.7040 -0.6500
 1921SOL     hw 7683   0.253   1.664   0.635  0.9546  0.5369 -1.2147
 1921SOL     vw 7684   0.274   1.602   0.692  0.0351  0.7161 -0.6581
 1922SOL     ow 7685   2.434   2.106   1.382 -0.0825 -0.2684  0.1711
 1922SOL     hw 7686   2.430   2.011   1.395 -0.7424 -0.4034 -0.9567
 1922SOL     hw 7687   2.342   2.133   1.376  0.1222  0.2472 -0.8263
 1922SOL     vw 7688   2.421   2.097   1.383 -0.1426 -0.2182 -0.1093
 1923SOL     ow 7689   0.716   6.053   6.645 -0.6092  0.2861 -0.7413
 1923SOL     hw 7690   0.660   6.020   6.575 -0.7184  0.7882 -0.8952
 1923SOL     hw 7691   0.718   6.148   6.631  0.6597  0.2361 -1.0212
 1923SOL     vw 7692   0.709   6.061   6.634 -0.4562  0.3459 -0.7987
 1924SOL     ow 7693   5.814   5.960   0.458 -0.0006 -0.2925  0.2262
 1924SOL     hw 7694   5.906   5.983   0.476  1.0037 -0.9693 -3.1878
 1924SOL     hw 7695   5.763   6.020   0.513  2.4680  0.5520  1.7697
 1924SOL     vw 7696   5.820   5.971   0.467  0.4578 -0.2706 -0.0207
 1925SOL     ow 7697   2.112   2.368   5.410 -0.0712  0.3741  0.2347
 1925SOL     hw 7698   2.103   2.392   5.318  2.1194  0.0911 -0.0909
 1925SOL     hw 7699   2.103   2.451   5.458 -2.6473  0.3433 -0.0529
 1925SOL     vw 7700   2.109   2.382   5.404 -0.1220  0.3327  0.1538
 1926SOL     ow 7701   0.967   5.081   0.494  0.3178  0.2702  0.1601
 1926SOL     hw 7702   0.905   5.022   0.450  2.4455 -1.2481 -0.9770
 1926SOL     hw 7703   0.993   5.033   0.573  0.3569  0.7214  0.4233
 1926SOL     vw 7704   0.962   5.067   0.499  0.6037  0.1297  0.0448
 1927SOL     ow 7705   4.237   5.963   0.120  0.2536 -0.1865 -0.2385
 1927SOL     hw 7706   4.285   6.044   0.136  1.9492 -0.9436 -1.1524
 1927SOL     hw 7707   4.156   5.971   0.171 -0.0317  2.4251 -0.9860
 1927SOL     vw 7708   4.233   5.974   0.129  0.4396  0.0582 -0.4577
 1928SOL     ow 7709   5.000   2.345   1.381  0.2666  0.8778 -0.2122
 1928SOL     hw 7710   4.970   2.321   1.469  2.4220 -0.3311  0.2542
 1928SOL     hw 7711   5.056   2.273   1.354  3.6695  3.3750 -0.5182
 1928SOL     vw 7712   5.003   2.333   1.389  0.9997  1.0477 -0.1910
 1929SOL     ow 7713   5.868   5.255   4.474  0.5491 -0.0552 -0.3205
 1929SOL     hw 7714   5.942   5.208   4.436  0.9114  1.0730 -1.0779
 1929SOL     hw 7715   5.805   5.187   4.497  1.1327 -0.9135 -1.1886
 1929SOL     vw 7716   5.869   5.240   4.472  0.6738 -0.0196 -0.5350
 1930SOL     ow 7717   4.830   5.226   1.920  0.0773 -0.2848  0.4700
 1930SOL     hw 7718   4.775   5.250   1.846  1.4496  1.1544 -0.1419
 1930SOL     hw 7719   4.782   5.255   1.997 -1.6241 -2.2893  0.2703
 1930SOL     vw 7720   4.816   5.233   1.920  0.0341 -0.3593  0.3629
 1931SOL     ow 7721   6.121   0.712   3.249  0.2672 -0.0259 -0.2509
 1931SOL     hw 7722   6.154   0.634   3.294 -0.0790 -0.6105 -0.9796
 1931SOL     hw 7723   6.141   0.696   3.157 -1.4497 -0.1055 -0.6448
 1931SOL     vw 7724   6.128   0.700   3.243 -0.0050 -0.1135 -0.3990
 1932SOL     ow 7725   1.227   1.871   0.793  0.0508 -0.3526 -0.5242
 1932SOL     hw 7726   1.283   1.915   0.857 -0.8289  0.4888 -0.2983
 1932SOL     hw 7727   1.207   1.786   0.833  1.7225 -0.9681 -0.9368
 1932SOL     vw 7728   1.232   1.866   0.807  0.1553 -0.3228 -0.5488
 1933SOL     ow 7729   4.285   1.303   1.630  0.2555  0.0652  0.2608
 1933SOL     hw 7730   4.283   1.362   1.555  1.7450  1.7844  1.4851
 1933SOL     hw 7731   4.377   1.280   1.640 -0.0388 -0.8414  1.0521
 1933SOL     vw 7732   4.297   1.308   1.622  0.4132  0.1724  0.5267
 1934SOL     ow 7733   6.834   6.670   4.862  0.1805  0.2528  0.2431
 1934SOL     hw 7734   6.770   6.601   4.842  0.4235  0.1074 -0.0522
 1934SOL     hw 7735   6.911   6.622   4.891 -0.9314  0.4724  4.1033
 1934SOL     vw 7736   6.836   6.654   4.863  0.0660  0.2627  0.7136
 1935SOL     ow 7737   2.621   2.284   2.679  0.0669  0.6287  0.0514
 1935SOL     hw 7738   2.660   2.294   2.592  3.0973 -1.9188  0.9498
 1935SOL     hw 7739   2.633   2.369   2.721 -0.0148  1.4115 -1.4396
 1935SOL     vw 7740   2.628   2.297   2.673  0.4560  0.3959 -0.0268
 1936SOL     ow 7741   4.603   2.877   3.015 -0.1212 -0.5112  0.2358
 1936SOL     hw 7742   4.616   2.886   2.921  0.7116 -0.4304  0.3444
 1936SOL     hw 7743   4.606   2.782   3.030 -2.2629 -0.6657 -0.0606
 1936SOL     vw 7744   4.605   2.866   3.005 -0.2940 -0.5209  0.2109
 1937SOL     ow 7745   3.958   3.695   1.404 -0.1569  0.3000 -0.1596
 1937SOL     hw 7746   3.972   3.656   1.317  2.3557 -0.9080  0.6938
 1937SOL     hw 7747   3.896   3.767   1.388 -1.1698 -0.9770 -2.6174
 1937SOL     vw 7748   3.951   3.700   1.390  0.0408 -0.0278 -0.3713
 1938SOL     ow 7749   6.856   2.372   3.124  0.3371  0.0126  0.2970
 1938SOL     hw 7750   6.855   2.360   3.030  0.0361 -1.6989  0.4968
 1938SOL     hw 7751   6.764   2.367   3.150  0.1545  2.6607  0.4828
 1938SOL     vw 7752   6.844   2.370   3.115  0.2735  0.1363  0.3481
 1939SOL     ow 7753   0.237   1.227   4.002 -0.0307 -0.5205 -0.3627
 1939SOL     hw 7754   0.266   1.216   3.912 -2.2707  4.3034 -2.0320
 1939SOL     hw 7755   0.142   1.239   3.996 -0.0783  1.6117  2.3340
 1939SOL     vw 7756   0.228   1.227   3.989 -0.3326  0.3973 -0.2271
 1940SOL     ow 7757   4.790   0.162   6.651 -0.0092  0.0801  0.4392
 1940SOL     hw 7758   4.838   0.213   6.716  0.6116 -0.8128  0.6836
 1940SOL     hw 7759   4.780   0.076   6.690 -1.3201  0.0791  0.1538
 1940SOL     vw 7760   4.795   0.158   6.665 -0.1001 -0.0378  0.4337
 1941SOL     ow 7761   0.512   2.140   0.930  0.1181 -0.0090 -0.0505
 1941SOL     hw 7762   0.573   2.155   1.002  0.2389 -2.1541  0.3471
 1941SOL     hw 7763   0.563   2.159   0.851  1.3007 -1.6163  0.2861
 1941SOL     vw 7764   0.527   2.145   0.929  0.2901 -0.5040  0.0464
 1942SOL     ow 7765   2.527   1.073   6.151 -0.0381 -0.0192 -0.2677
 1942SOL     hw 7766   2.525   1.147   6.212 -0.9585 -0.6217  0.4657
 1942SOL     hw 7767   2.538   1.114   6.065 -0.5165  0.9856  0.1204
 1942SOL     vw 7768   2.528   1.088   6.148 -0.2227  0.0338 -0.1199
 1943SOL     ow 7769   0.460   0.258   4.698  0.2272 -0.4910 -0.2517
 1943SOL     hw 7770   0.521   0.208   4.644  1.5659  0.1729  0.6072
 1943SOL     hw 7771   0.423   0.323   4.638  0.9246 -0.4236 -0.6177
 1943SOL     vw 7772   0.463   0.260   4.683  0.4958 -0.3945 -0.1867
 1944SOL     ow 7773   5.153   4.538   6.605  0.2438 -0.2595  0.1490
 1944SOL     hw 7774   5.068   4.494   6.604 -0.3223  0.7784  0.5747
 1944SOL     hw 7775   5.176   4.549   6.513  0.0793 -0.8487  0.0359
 1944SOL     vw 7776   5.145   4.534   6.593  0.1473 -0.2000  0.1905
 1945SOL     ow 7777   1.847   2.355   1.761 -0.1117 -0.1480  0.8179
 1945SOL     hw 7778   1.886   2.307   1.834 -0.6008  0.4723  1.4943
 1945SOL     hw 7779   1.769   2.396   1.797 -1.2919 -1.1850 -0.4719
 1945SOL     vw 7780   1.842   2.354   1.775 -0.3319 -0.2031  0.7370
 1946SOL     ow 7781   2.476   4.529   6.937 -0.6142 -0.5513  0.1032
 1946SOL     hw 7782   2.512   4.617   6.943 -1.4586 -0.2699  1.5334
 1946SOL     hw 7783   2.413   4.523   7.009 -2.4436 -1.4757 -1.4546
 1946SOL     vw 7784   2.472   4.540   6.947 -0.9670 -0.6361  0.0863
 1947SOL     ow 7785   5.155   6.097   6.791  0.5166 -0.5918  0.0013
 1947SOL     hw 7786   5.243   6.062   6.800  0.7392 -0.0790 -0.1431
 1947SOL     hw 7787   5.134   6.131   6.878  0.5251 -0.5681 -0.0058
 1947SOL     vw 7788   5.164   6.097   6.804  0.5472 -0.5212 -0.0186
 1948SOL     ow 7789   1.772   1.888   1.322 -0.2130 -0.3397 -0.1498
 1948SOL     hw 7790   1.798   1.905   1.413  2.4028  3.2226 -1.3400
 1948SOL     hw 7791   1.725   1.967   1.296 -0.4237 -1.0463 -2.0682
 1948SOL     vw 7792   1.769   1.901   1.331  0.1044  0.0370 -0.5599
 1949SOL     ow 7793   1.476   0.206   0.422 -0.3634  0.2092  0.6655
 1949SOL     hw 7794   1.533   0.263   0.370 -2.4717 -0.4814 -2.7285
 1949SOL     hw 7795   1.392   0.251   0.425 -0.8091 -0.6557  1.8841
 1949SOL     vw 7796   1.473   0.219   0.415 -0.7004  0.0040  0.3785
 1950SOL     ow 7797   5.688   2.181   6.644  0.2958  0.2032  0.0156
 1950SOL     hw 7798   5.630   2.127   6.590  0.7754  0.6790 -1.0039
 1950SOL     hw 7799   5.690   2.137   6.729  0.0568 -0.9338 -0.5576
 1950SOL     vw 7800   5.681   2.168   6.648  0.3276  0.1160 -0.1945
 1951SOL     ow 7801   0.904   3.150   3.274 -0.3514  0.1261 -0.1198
 1951SOL     hw 7802   0.902   3.141   3.369  1.9857 -1.4003 -0.1384
 1951SOL     hw 7803   0.823   3.195   3.252 -1.7276 -0.9432  2.4283
 1951SOL     vw 7804   0.893   3.155   3.283 -0.2246 -0.2162  0.2139
 1952SOL     ow 7805   3.794   4.198   1.529  0.0769 -0.0861 -0.5153
 1952SOL     hw 7806   3.749   4.185   1.612 -0.8570 -0.1844 -1.0233
 1952SOL     hw 7807   3.812   4.291   1.526  2.1740 -0.3914  0.8140
 1952SOL     vw 7808   3.790   4.208   1.539  0.2306 -0.1395 -0.4070
 1953SOL     ow 7809   1.268   4.190   4.322 -0.1131  0.0351  0.2637
 1953SOL     hw 7810   1.236   4.145   4.244 -0.0762 -2.2870  1.4982
 1953SOL     hw 7811   1.192   4.194   4.380 -0.2637  2.1654  0.0057
 1953SOL     vw 7812   1.254   4.184   4.319 -0.1281  0.0095  0.3924
 1954SOL     ow 7813   3.032   6.560   6.517 -0.9146 -0.2735  0.3248
 1954SOL     hw 7814   3.049   6.559   6.611 -0.9101 -0.2301  0.3242
 1954SOL     hw 7815   3.018   6.469   6.494 -0.5817 -0.3233  0.3070
 1954SOL     vw 7816   3.032   6.548   6.527 -0.8701 -0.2744  0.3223
 1955SOL     ow 7817   3.787   5.508   5.457  0.3756 -0.2612  0.0701
 1955SOL     hw 7818   3.862   5.452   5.440  0.2637 -0.7213  1.0372
 1955SOL     hw 7819   3.738   5.509   5.374  1.0334 -0.5711 -0.3286
 1955SOL     vw 7820   3.791   5.501   5.444  0.4476 -0.3629  0.1450
 1956SOL     ow 7821   2.206   3.057   4.826 -0.3496  0.5934  0.4748
 1956SOL     hw 7822   2.226   3.027   4.737 -0.5102 -0.5669  0.8071
 1956SOL     hw 7823   2.118   3.023   4.843 -0.1786  0.4997  1.2032
 1956SOL     vw 7824   2.197   3.048   4.816 -0.3483  0.4278  0.6146
 1957SOL     ow 7825   2.048   1.406   2.994 -0.3805 -0.0486 -0.7232
 1957SOL     hw 7826   2.052   1.500   3.010  0.6741 -0.2199  0.1770
 1957SOL     hw 7827   1.978   1.374   3.051 -0.4542  0.1359 -0.7124
 1957SOL     vw 7828   2.039   1.414   3.003 -0.2511 -0.0468 -0.6028
 1958SOL     ow 7829   2.187   4.919   3.958 -0.0158  0.4738 -0.1881
 1958SOL     hw 7830   2.262   4.883   4.005 -2.2057 -1.3459  2.2190
 1958SOL     hw 7831   2.123   4.938   4.027 -2.0142  1.3291 -2.1689
 1958SOL     vw 7832   2.188   4.917   3.974 -0.5682  0.3467 -0.1318
 1959SOL     ow 7833   4.259   2.408   6.394  0.0763 -0.5682  0.0594
 1959SOL     hw 7834   4.351   2.386   6.409  0.6143  1.1140 -0.5555
 1959SOL     hw 7835   4.260   2.501   6.374 -1.7620 -0.5558 -0.0930
 1959SOL     vw 7836   4.272   2.417   6.393 -0.0951 -0.3446 -0.0420
 1960SOL     ow 7837   0.718   6.872   6.710 -0.3175 -0.7090  0.4942
 1960SOL     hw 7838   0.785   6.817   6.750  0.0335 -0.8916 -0.3119
 1960SOL     hw 7839   0.741   6.872   6.617 -1.3563 -0.6622  0.2317
 1960SOL     vw 7840   0.730   6.865   6.703 -0.4082 -0.7269  0.3531
 1961SOL     ow 7841   3.770   4.688   1.460 -0.1653  0.4085  0.1648
 1961SOL     hw 7842   3.824   4.612   1.481 -0.8090 -0.2084 -0.3575
 1961SOL     hw 7843   3.774   4.743   1.538 -0.1519 -0.4376  0.7630
 1961SOL     vw 7844   3.778   4.685   1.473 -0.2484  0.2151  0.1749
 1962SOL     ow 7845   0.333   0.589   5.010  0.0534 -0.4136 -0.0951
 1962SOL     hw 7846   0.383   0.507   5.007  2.0118  0.5529  2.3755
 1962SOL     hw 7847   0.270   0.581   4.939  0.7996 -3.6401 -0.5657
 1962SOL     vw 7848   0.331   0.577   5.000  0.4103 -0.7118  0.1686
 1963SOL     ow 7849   0.866   5.590   4.699 -0.0084 -0.3707 -0.5767
 1963SOL     hw 7850   0.960   5.607   4.707 -0.3212  2.0285 -1.1347
 1963SOL     hw 7851   0.845   5.614   4.609 -1.1453 -1.0661 -0.5178
 1963SOL     vw 7852   0.876   5.596   4.688 -0.1996 -0.1459 -0.6425
 1964SOL     ow 7853   4.974   5.559   2.627 -0.0422 -0.1702 -0.1361
 1964SOL     hw 7854   4.948   5.474   2.664 -0.3875  0.6231  1.5410
 1964SOL     hw 7855   5.069   5.554   2.620 -0.0254 -0.5751  0.2889
 1964SOL     vw 7856   4.983   5.547   2.631 -0.0854 -0.1190  0.1411
 1965SOL     ow 7857   1.648   1.963   6.090 -0.2202  0.3099  0.2111
 1965SOL     hw 7858   1.610   1.994   6.008 -4.9024 -1.4102  1.4311
 1965SOL     hw 7859   1.627   2.030   6.154  0.6194  0.1951  0.6285
 1965SOL     vw 7860   1.640   1.976   6.088 -0.7272  0.0677  0.4270
 1966SOL     ow 7861   1.939   4.954   1.233  0.1902 -0.0045 -0.0910
 1966SOL     hw 7862   1.896   5.015   1.293 -0.1493 -0.7213  0.4002
 1966SOL     hw 7863   1.941   5.001   1.149  1.0641  1.1764  0.5635
 1966SOL     vw 7864   1.934   4.968   1.230  0.2607  0.0567  0.0602
 1967SOL     ow 7865   1.912   4.700   1.092  1.1529  0.7131  0.1332
 1967SOL     hw 7866   1.929   4.711   0.998  1.5006  2.2744  0.3433
 1967SOL     hw 7867   1.820   4.676   1.097  0.5412  2.6917 -0.5464
 1967SOL     vw 7868   1.902   4.698   1.080  1.1181  1.1802  0.0713
 1968SOL     ow 7869   6.993   5.020   0.569  0.5932  0.2321  0.2685
 1968SOL     hw 7870   6.998   5.009   0.664 -0.7161  1.0366  0.4540
 1968SOL     hw 7871   6.900   5.032   0.551  0.8593  0.3762 -1.0868
 1968SOL     vw 7872   6.981   5.020   0.579  0.4556  0.3572  0.1142
 1969SOL     ow 7873   0.454   0.206   0.612  0.3583 -0.7138  0.2274
 1969SOL     hw 7874   0.379   0.172   0.661  0.3432 -0.2421  0.5368
 1969SOL     hw 7875   0.424   0.291   0.580  0.9237 -0.3203  0.7400
 1969SOL     vw 7876   0.440   0.213   0.614  0.4309 -0.5996  0.3359
 1970SOL     ow 7877   0.992   5.683   4.092  0.7547  0.0378 -0.3442
 1970SOL     hw 7878   0.953   5.766   4.064  1.1157 -0.0155 -1.0016
 1970SOL     hw 7879   0.927   5.617   4.070  0.4649  0.1412  0.1838
 1970SOL     vw 7880   0.978   5.686   4.086  0.7641  0.0446 -0.3612
 1971SOL     ow 7881   1.629   0.315   0.724  0.0458  0.0753  0.6308
 1971SOL     hw 7882   1.598   0.337   0.636  0.1635 -1.7860  0.0997
 1971SOL     hw 7883   1.548   0.307   0.775 -0.3136 -2.4102 -0.1982
 1971SOL     vw 7884   1.614   0.317   0.719  0.0139 -0.4982  0.4513
 1972SOL     ow 7885   4.569   2.611   7.018 -0.2420  0.2820  0.0312
 1972SOL     hw 7886   4.615   2.662   7.085 -0.3554  0.7579 -0.2578
 1972SOL     hw 7887   4.579   2.661   6.938 -1.6640  0.6282  0.0510
 1972SOL     vw 7888   4.577   2.624   7.017 -0.4447  0.3905 -0.0043
 1973SOL     ow 7889   3.838   3.074   3.763  0.7306 -0.3053 -0.9122
 1973SOL     hw 7890   3.867   3.037   3.846 -0.1685 -0.0362 -0.4726
 1973SOL     hw 7891   3.822   2.997   3.707  0.1383 -0.5428 -0.4296
 1973SOL     vw 7892   3.840   3.059   3.766  0.5339 -0.3011 -0.7905
 1974SOL     ow 7893   3.324   0.404   6.807  0.1704 -0.2939  0.0151
 1974SOL     hw 7894   3.234   0.400   6.839 -0.3535  2.5157 -0.8050
 1974SOL     hw 7895   3.315   0.430   6.715  1.7790  3.9675  0.8729
 1974SOL     vw 7896   3.311   0.407   6.799  0.3135  0.6390  0.0203
 1975SOL     ow 7897   0.772   4.205   6.420  0.1072  0.3252  0.6324
 1975SOL     hw 7898   0.801   4.294   6.440  0.0622  0.3628  0.5321
 1975SOL     hw 7899   0.742   4.209   6.329 -1.1485  0.5225  1.0428
 1975SOL     vw 7900   0.772   4.217   6.410 -0.0644  0.3562  0.6733
 1976SOL     ow 7901   0.657   3.827   4.924  0.5196 -0.1796 -0.3257
 1976SOL     hw 7902   0.585   3.827   4.987  1.4420  0.2483  0.7808
 1976SOL     hw 7903   0.642   3.905   4.870 -0.2528 -0.5215 -0.6238
 1976SOL     vw 7904   0.646   3.837   4.925  0.5394 -0.1683 -0.2191
 1977SOL     ow 7905   4.655   4.420   4.155  0.1279  0.0682  0.0817
 1977SOL     hw 7906   4.736   4.431   4.104 -0.1804  3.0036  0.0433
 1977SOL     hw 7907   4.674   4.348   4.214  2.1403 -0.4746 -1.1130
 1977SOL     vw 7908   4.668   4.412   4.156  0.3526  0.3839 -0.0808
 1978SOL     ow 7909   5.752   2.939   5.640  0.2242 -0.3332  0.5961
 1978SOL     hw 7910   5.674   2.900   5.600  0.9726 -1.5583  0.2541
 1978SOL     hw 7911   5.822   2.922   5.575  0.6070  1.5182  0.4890
 1978SOL     vw 7912   5.751   2.931   5.626  0.3736 -0.2506  0.5369
 1979SOL     ow 7913   4.808   1.696   4.015 -0.1083  0.3277  0.3117
 1979SOL     hw 7914   4.871   1.631   3.985  0.4296  1.2161 -0.5812
 1979SOL     hw 7915   4.739   1.695   3.949 -0.3101  0.3548  0.5222
 1979SOL     vw 7916   4.808   1.688   4.002 -0.0639  0.4484  0.2217
 1980SOL     ow 7917   6.954   3.658   6.626 -0.1570  0.1669  0.1973
 1980SOL     hw 7918   6.975   3.602   6.701 -0.0569  0.3680  0.3231
 1980SOL     hw 7919   7.037   3.698   6.602  0.0033 -0.6381 -0.6472
 1980SOL     vw 7920   6.968   3.656   6.633 -0.1225  0.0873  0.1025
 1981SOL     ow 7921   0.412   5.031   4.698 -0.0758  0.3406 -0.2228
 1981SOL     hw 7922   0.429   5.090   4.624 -0.3784  0.0551 -0.5222
 1981SOL     hw 7923   0.399   5.089   4.773  1.1024  0.6096 -0.2099
 1981SOL     vw 7924   0.413   5.047   4.698  0.0397  0.3383 -0.2608
 1982SOL     ow 7925   2.447   3.724   4.874  1.0315  0.1388 -0.0251
 1982SOL     hw 7926   2.455   3.651   4.936 -3.5486  0.3483  1.2160
 1982SOL     hw 7927   2.486   3.798   4.920  1.9331 -0.6555  0.5271
 1982SOL     vw 7928   2.453   3.724   4.889  0.5461  0.0616  0.2115
 1983SOL     ow 7929   0.414   5.472   6.248  0.3450  0.2579  0.2685
 1983SOL     hw 7930   0.325   5.450   6.277 -0.3026  0.7992 -1.1941
 1983SOL     hw 7931   0.465   5.393   6.262 -1.0958 -1.0928 -1.6669
 1983SOL     vw 7932   0.409   5.459   6.254  0.0695  0.1512 -0.1800
 1984SOL     ow 7933   1.802   3.982   6.766 -0.2169 -0.2311  0.6371
 1984SOL     hw 7934   1.839   3.984   6.677  1.5040  1.2583  1.3355
 1984SOL     hw 7935   1.878   3.989   6.824 -1.5175  3.2814  2.1612
 1984SOL     vw 7936   1.817   3.983   6.762 -0.1615  0.4288  0.9303
 1985SOL     ow 7937   5.428   3.193   6.911  0.5618 -0.0491  0.1375
 1985SOL     hw 7938   5.476   3.264   6.867 -0.3337  0.4052 -0.1228
 1985SOL     hw 7939   5.371   3.238   6.973 -2.2339 -0.2648 -2.0866
 1985SOL     vw 7940   5.427   3.209   6.913  0.0751 -0.0175 -0.1903
 1986SOL     ow 7941   6.720   2.680   2.352  1.1701 -0.1535  0.1900
 1986SOL     hw 7942   6.733   2.619   2.279  0.4574 -0.4730  0.3233
 1986SOL     hw 7943   6.716   2.766   2.310 -0.4489 -0.4416 -0.2995
 1986SOL     vw 7944   6.721   2.684   2.337  0.8626 -0.2335  0.1431
 1987SOL     ow 7945   6.514   0.492   2.585 -0.0298 -0.1471 -0.6306
 1987SOL     hw 7946   6.419   0.504   2.581 -0.2040 -1.5461 -1.2476
 1987SOL     hw 7947   6.550   0.581   2.587 -1.3878  0.4140  1.2557
 1987SOL     vw 7948   6.506   0.506   2.585 -0.2317 -0.2577 -0.4632
 1988SOL     ow 7949   1.966   5.985   7.003  0.4852 -0.1680  0.1461
 1988SOL     hw 7950   1.901   6.035   6.953  2.9663  2.2224 -0.9324
 1988SOL     hw 7951   1.968   5.899   6.960 -1.0041  0.1387 -0.6155
 1988SOL     vw 7952   1.957   5.980   6.990  0.6160  0.1879 -0.0966
 1989SOL     ow 7953   1.626   5.464   3.710  0.2194 -0.1734 -0.2907
 1989SOL     hw 7954   1.670   5.549   3.702 -0.9162  0.4614 -0.0296
 1989SOL     hw 7955   1.694   5.400   3.690  1.2786  0.7677  0.1919
 1989SOL     vw 7956   1.641   5.467   3.706  0.2095  0.0346 -0.1925
 1990SOL     ow 7957   2.767   0.351   4.128 -0.2608 -0.3009 -0.6730
 1990SOL     hw 7958   2.838   0.318   4.182 -0.2271 -0.1939 -0.6509
 1990SOL     hw 7959   2.797   0.338   4.038 -1.0334 -2.0777 -0.7219
 1990SOL     vw 7960   2.780   0.345   4.123 -0.3583 -0.5212 -0.6764
 1991SOL     ow 7961   5.466   5.503   0.747 -0.1493 -0.0179 -0.2711
 1991SOL     hw 7962   5.463   5.501   0.843 -0.2064 -0.5638 -0.2817
 1991SOL     hw 7963   5.374   5.503   0.720 -0.1335  0.2664 -0.3229
 1991SOL     vw 7964   5.454   5.502   0.756 -0.1550 -0.0525 -0.2793
 1992SOL     ow 7965   6.167   0.350   7.005 -0.1302  0.6095  0.5288
 1992SOL     hw 7966   6.139   0.428   6.957 -0.2302 -0.2937 -0.9402
 1992SOL     hw 7967   6.210   0.296   6.939 -2.8997 -2.0469  0.6992
 1992SOL     vw 7968   6.169   0.353   6.990 -0.5085  0.1399  0.3574
 1993SOL     ow 7969   1.245   3.231   2.824 -0.3213 -0.1191  0.2264
 1993SOL     hw 7970   1.187   3.210   2.898  1.2525 -2.5349  0.9122
 1993SOL     hw 7971   1.332   3.235   2.864  0.3116  0.6170 -1.1952
 1993SOL     vw 7972   1.249   3.228   2.839 -0.0302 -0.3407  0.1293
 1994SOL     ow 7973   4.406   5.521   1.481 -0.0838 -0.2694 -0.0367
 1994SOL     hw 7974   4.463   5.445   1.487  0.8509  0.4229  0.0503
 1994SOL     hw 7975   4.432   5.577   1.554  0.5709  0.9982 -1.1944
 1994SOL     vw 7976   4.417   5.519   1.491  0.1259 -0.0105 -0.1780
 1995SOL     ow 7977   3.324   3.710   4.026 -0.1884  0.0197  0.6378
 1995SOL     hw 7978   3.258   3.672   3.969 -0.3174  2.5018 -0.9847
 1995SOL     hw 7979   3.367   3.634   4.067 -3.3417 -1.6985  1.0513
 1995SOL     vw 7980   3.321   3.695   4.024 -0.6214  0.1204  0.4785
 1996SOL     ow 7981   6.982   0.062   4.251  0.0626  0.1366  0.8506
 1996SOL     hw 7982   6.928   0.031   4.325 -0.0272 -1.8038  0.0195
 1996SOL     hw 7983   7.018  -0.017   4.212 -0.8331  0.9803 -1.9328
 1996SOL     vw 7984   6.979   0.048   4.256 -0.0672 -0.0081  0.3738
 1997SOL     ow 7985   2.917   1.413   6.928  0.3781 -0.5476 -0.2697
 1997SOL     hw 7986   3.008   1.441   6.930  0.3077 -0.3587  0.3685
 1997SOL     hw 7987   2.896   1.407   6.834  1.2036 -1.1372 -0.4283
 1997SOL     vw 7988   2.926   1.416   6.916  0.4777 -0.6005 -0.2065
 1998SOL     ow 7989   0.608   4.105   5.937  0.0867  0.4650 -1.1156
 1998SOL     hw 7990   0.618   4.014   5.964  1.9861 -0.2701 -3.8807
 1998SOL     hw 7991   0.654   4.156   6.004 -3.0214 -0.2052  1.8146
 1998SOL     vw 7992   0.615   4.099   5.950 -0.0728  0.2797 -1.0939
 1999SOL     ow 7993   3.793   4.641   6.457  0.0025  0.9753 -0.2613
 1999SOL     hw 7994   3.830   4.589   6.529 -1.1852  0.7968  0.2570
 1999SOL     hw 7995   3.821   4.595   6.378 -0.1328  0.1406  0.1561
 1999SOL     vw 7996   3.801   4.628   6.456 -0.1721  0.8414 -0.1380
 2000SOL     ow 7997   1.938   5.314   0.408  0.0621 -0.1278 -0.3874
 2000SOL     hw 7998   1.889   5.254   0.465 -1.5779  2.4851  1.1400
 2000SOL     hw 7999   1.884   5.321   0.330  0.4302 -0.8621 -0.7173
 2000SOL     vw 8000   1.925   5.307   0.406 -0.1057  0.1199 -0.2294
 2001SOL     ow 8001   5.566   1.390   4.049 -0.1223  0.4892  1.0255
 2001SOL     hw 8002   5.507   1.359   3.981  3.0710 -1.5009 -1.1347
 2001SOL     hw 8003   5.584   1.481   4.026 -0.8451  0.5252  0.5874
 2001SOL     vw 8004   5.561   1.398   4.037  0.2036  0.2313  0.6826
 2002SOL     ow 8005   5.004   0.292   3.886  0.2919  0.2973  0.3398
 2002SOL     hw 8006   4.948   0.369   3.872 -0.6910 -0.4662 -0.0724
 2002SOL     hw 8007   5.044   0.307   3.972 -0.5008  0.9062  0.6196
 2002SOL     vw 8008   5.002   0.304   3.896  0.0575  0.2769  0.3222
 2003SOL     ow 8009   0.368   4.802   4.883 -0.3499 -0.0067 -0.4087
 2003SOL     hw 8010   0.417   4.824   4.962 -0.4860 -0.1319 -0.2874
 2003SOL     hw 8011   0.314   4.727   4.909  1.4688 -1.7098 -1.3015
 2003SOL     vw 8012   0.367   4.795   4.897 -0.1279 -0.2482 -0.5105
 2004SOL     ow 8013   5.560   4.268   6.790 -0.0362  0.6633  0.4199
 2004SOL     hw 8014   5.566   4.200   6.857  0.9351 -1.4732 -1.6903
 2004SOL     hw 8015   5.468   4.266   6.763 -0.4723  1.6574  1.7556
 2004SOL     vw 8016   5.549   4.258   6.795  0.0341  0.5126  0.3176
 2005SOL     ow 8017   4.401   2.110   6.200 -0.0183  0.0125 -0.1022
 2005SOL     hw 8018   4.419   2.025   6.160 -0.3925 -0.6119  1.0248
 2005SOL     hw 8019   4.433   2.102   6.290  0.7315  1.3642 -0.2284
 2005SOL     vw 8020   4.408   2.098   6.206  0.0312  0.1085  0.0300
 2006SOL     ow 8021   3.016   4.548   6.801  0.1257 -0.1020  0.3379
 2006SOL     hw 8022   2.963   4.475   6.769  0.4001  0.2601 -1.0043
 2006SOL     hw 8023   3.090   4.506   6.845 -0.6186 -0.6104  1.1260
 2006SOL     vw 8024   3.019   4.533   6.803  0.0635 -0.1214  0.2646
 2007SOL     ow 8025   3.214   0.673   4.558 -0.0217  0.1933 -0.3385
 2007SOL     hw 8026   3.155   0.630   4.496 -0.3742 -0.5811  0.5281
 2007SOL     hw 8027   3.205   0.624   4.639  0.6823  1.0007  0.2490
 2007SOL     vw 8028   3.205   0.661   4.560  0.0247  0.1976 -0.1469
 2008SOL     ow 8029   4.987   0.774   1.549 -0.6522  0.0010 -0.7455
 2008SOL     hw 8030   4.976   0.869   1.539 -1.3002 -0.1203 -1.2316
 2008SOL     hw 8031   4.945   0.753   1.633  1.8132  0.5124  0.7390
 2008SOL     vw 8032   4.980   0.784   1.559 -0.4125  0.0525 -0.6138
 2009SOL     ow 8033   0.328   4.559   0.066 -0.7611 -0.2010  0.4730
 2009SOL     hw 8034   0.317   4.528   0.156  1.1653 -0.7109  0.5875
 2009SOL     hw 8035   0.294   4.488   0.011 -0.7493 -0.4514  0.7894
 2009SOL     vw 8036   0.322   4.545   0.070 -0.5054 -0.3011  0.5298
 2010SOL     ow 8037   1.728   6.926   2.157 -0.6127 -0.4164  0.3737
 2010SOL     hw 8038   1.685   6.999   2.111  0.4461 -0.7557 -1.2592
 2010SOL     hw 8039   1.692   6.929   2.245 -1.2188  1.5687  0.1235
 2010SOL     vw 8040   1.717   6.936   2.162 -0.5530 -0.1993  0.1253
 2011SOL     ow 8041   1.713   1.715   6.257  0.6648 -0.5518 -0.3762
 2011SOL     hw 8042   1.674   1.764   6.328  1.1626 -0.6351 -0.0355
 2011SOL     hw 8043   1.719   1.625   6.290  1.8347 -0.3948 -0.1177
 2011SOL     vw 8044   1.709   1.709   6.271  0.8848 -0.5420 -0.2973
 2012SOL     ow 8045   6.475   0.440   6.996  0.5520 -0.1019  0.1615
 2012SOL     hw 8046   6.546   0.381   6.972 -0.9863 -1.3299 -1.6319
 2012SOL     hw 8047   6.492   0.520   6.946  0.2191 -0.7164 -0.9573
 2012SOL     vw 8048   6.487   0.443   6.986  0.3052 -0.3450 -0.2227
 2013SOL     ow 8049   2.098   0.890   4.516  0.0405  0.8129 -0.0892
 2013SOL     hw 8050   2.048   0.906   4.596 -0.0020  0.3442 -0.0199
 2013SOL     hw 8051   2.118   0.977   4.483 -0.2947  1.0078  0.2112
 2013SOL     vw 8052   2.094   0.903   4.522 -0.0093  0.7768 -0.0403
 2014SOL     ow 8053   0.865   2.466   7.076 -0.6230 -0.4362  0.2117
 2014SOL     hw 8054   0.853   2.560   7.064  1.4020 -0.1563  0.0613
 2014SOL     hw 8055   0.921   2.458   7.153 -0.9884 -1.5477  0.3921
 2014SOL     vw 8056   0.871   2.477   7.084 -0.4040 -0.5459  0.2158
 2015SOL     ow 8057   6.591   3.727   7.062 -0.0553  0.0493  0.0012
 2015SOL     hw 8058   6.579   3.765   6.975 -1.9310 -1.4421 -0.4560
 2015SOL     hw 8059   6.663   3.665   7.052 -1.0275 -0.9960 -0.8543
 2015SOL     vw 8060   6.599   3.724   7.049 -0.4311 -0.2853 -0.1719
 2016SOL     ow 8061   6.007   1.672   6.864  0.0907  0.2962 -0.4036
 2016SOL     hw 8062   5.967   1.586   6.850  0.0035  0.2080  0.3821
 2016SOL     hw 8063   6.098   1.653   6.889  0.1461  0.4431 -0.4902
 2016SOL     vw 8064   6.014   1.658   6.865  0.0865  0.3040 -0.3114
 2017SOL     ow 8065   2.142   6.578   2.028 -0.1208  0.4277 -0.3065
 2017SOL     hw 8066   2.153   6.595   1.935  0.0273  1.3149 -0.1392
 2017SOL     hw 8067   2.211   6.515   2.049  0.6621  1.1730 -0.5518
 2017SOL     vw 8068   2.153   6.572   2.019  0.0021  0.6430 -0.3167
 2018SOL     ow 8069   2.114   6.198   7.014  0.1743 -0.0943  0.1159
 2018SOL     hw 8070   2.149   6.175   6.927  0.8893 -0.2242  0.4295
 2018SOL     hw 8071   2.057   6.125   7.037 -0.9218  0.4673 -0.7303
 2018SOL     vw 8072   2.111   6.185   7.005  0.1241 -0.0374  0.0455
 2019SOL     ow 8073   1.145   6.799   0.113  0.6797  0.6414  0.3980
 2019SOL     hw 8074   1.078   6.862   0.087 -0.1770 -0.4426 -0.0832
 2019SOL     hw 8075   1.169   6.755   0.031  1.1363  0.2183  0.7542
 2019SOL     vw 8076   1.139   6.801   0.098  0.6269  0.4427  0.3815
 2020SOL     ow 8077   5.733   6.869   7.009 -0.1330  0.6078 -0.2899
 2020SOL     hw 8078   5.783   6.949   7.028  0.2726  0.5122 -0.9315
 2020SOL     hw 8079   5.650   6.900   6.973 -0.5051  0.7657  0.6706
 2020SOL     vw 8080   5.729   6.883   7.007 -0.1287  0.6161 -0.2480
 2021SOL     ow 8081   5.798   2.235   6.365 -0.7135  0.5086  0.5721
 2021SOL     hw 8082   5.737   2.307   6.344  1.3765  2.3194  0.3592
 2021SOL     hw 8083   5.811   2.190   6.282  0.0552  1.6188  0.0674
 2021SOL     vw 8084   5.792   2.239   6.351 -0.3364  0.8940  0.4776
 2022SOL     ow 8085   1.808   4.074   5.813  0.4674 -0.2791  0.1711
 2022SOL     hw 8086   1.810   4.062   5.718  0.7116  2.0079 -0.1702
 2022SOL     hw 8087   1.891   4.036   5.844  0.1253 -1.5524 -0.4381
 2022SOL     vw 8088   1.820   4.068   5.805  0.4545 -0.1454  0.0458
 2023SOL     ow 8089   6.872   0.248   0.945 -0.0667 -0.8094 -0.1140
 2023SOL     hw 8090   6.909   0.309   1.009  1.1277 -2.0288  0.3963
 2023SOL     hw 8091   6.903   0.280   0.861 -2.3501  1.3193 -0.2732
 2023SOL     vw 8092   6.881   0.260   0.942 -0.2103 -0.6894 -0.0677
 2024SOL     ow 8093   6.773   1.567   0.268 -0.4053  0.2461  0.0775
 2024SOL     hw 8094   6.689   1.608   0.290  0.7169  1.3515  2.6983
 2024SOL     hw 8095   6.810   1.625   0.201 -1.4254  0.0578 -0.6924
 2024SOL     vw 8096   6.767   1.580   0.262 -0.3920  0.3671  0.3217
 2025SOL     ow 8097   4.879   4.736   5.538 -0.1590  0.4707  0.5135
 2025SOL     hw 8098   4.928   4.779   5.608 -0.6293  0.7609  0.6648
 2025SOL     hw 8099   4.836   4.807   5.491  0.2588  0.2877 -0.1574
 2025SOL     vw 8100   4.880   4.751   5.541 -0.1662  0.4847  0.4454
 2026SOL     ow 8101   5.358   6.012   3.556 -0.3765  0.4089  0.6068
 2026SOL     hw 8102   5.304   5.945   3.597 -2.0097 -0.0413 -2.0133
 2026SOL     hw 8103   5.328   6.094   3.595  0.2622 -0.1745  2.4130
 2026SOL     vw 8104   5.347   6.014   3.566 -0.5074  0.2725  0.4994
 2027SOL     ow 8105   5.896   0.790   4.094  0.0126 -0.5301  0.2873
 2027SOL     hw 8106   5.853   0.786   4.009  2.1113 -1.8714 -0.8071
 2027SOL     hw 8107   5.883   0.703   4.132 -0.5847 -0.0612  1.1942
 2027SOL     vw 8108   5.889   0.778   4.088  0.2108 -0.6452  0.2625
 2028SOL     ow 8109   3.373   3.077   1.895  0.2372  0.0707 -0.0597
 2028SOL     hw 8110   3.386   3.171   1.909  0.4841  0.0254  0.0211
 2028SOL     hw 8111   3.337   3.046   1.979 -0.2230  0.1625 -0.2207
 2028SOL     vw 8112   3.370   3.085   1.908  0.2091  0.0767 -0.0702
 2029SOL     ow 8113   2.783   1.835   3.547  0.9369 -0.0653 -0.0679
 2029SOL     hw 8114   2.703   1.885   3.536  0.6852 -0.1371  1.3378
 2029SOL     hw 8115   2.767   1.753   3.501 -0.4285 -0.7376  1.5267
 2029SOL     vw 8116   2.771   1.831   3.539  0.7235 -0.1634  0.3279
 2030SOL     ow 8117   6.608   3.421   0.468 -0.0057 -0.3147 -0.0427
 2030SOL     hw 8118   6.686   3.366   0.455  0.3569  0.1455  0.1398
 2030SOL     hw 8119   6.562   3.418   0.384  0.8002  0.3072 -0.5232
 2030SOL     vw 8120   6.613   3.414   0.455  0.1481 -0.1721 -0.0820
 2031SOL     ow 8121   6.779   2.866   6.724 -0.2074  0.4886  0.0911
 2031SOL     hw 8122   6.811   2.783   6.690  0.2601  0.0367  1.5859
 2031SOL     hw 8123   6.834   2.884   6.800  0.4812  2.7514 -0.8585
 2031SOL     vw 8124   6.790   2.858   6.730 -0.0551  0.7275  0.1631
 2032SOL     ow 8125   1.449   3.836   1.586  0.2510  0.3038 -0.1934
 2032SOL     hw 8126   1.497   3.840   1.503  0.4174  2.4189 -0.0343
 2032SOL     hw 8127   1.375   3.778   1.568  1.8290 -1.5765 -0.9603
 2032SOL     vw 8128   1.445   3.829   1.573  0.4811  0.3347 -0.2736
 2033SOL     ow 8129   1.813   2.323   1.439 -0.4114 -0.2358 -0.0017
 2033SOL     hw 8130   1.784   2.404   1.398 -1.4410 -1.1030 -1.0693
 2033SOL     hw 8131   1.755   2.256   1.402  0.1251 -1.3909  1.1819
 2033SOL     vw 8132   1.801   2.325   1.429 -0.4764 -0.5025  0.0136
 2034SOL     ow 8133   4.513   5.707   2.606 -0.0610 -0.0128  0.1205
 2034SOL     hw 8134   4.475   5.762   2.675  1.2958  0.5532  0.4567
 2034SOL     hw 8135   4.525   5.621   2.648 -1.1449 -0.2678 -0.0618
 2034SOL     vw 8136   4.510   5.703   2.621 -0.0248  0.0281  0.1408
 2035SOL     ow 8137   3.307   1.462   2.226  0.0838 -0.5954  0.2399
 2035SOL     hw 8138   3.367   1.411   2.170 -0.1079  2.6098 -3.3055
 2035SOL     hw 8139   3.221   1.426   2.207  0.0712  0.1666 -1.3921
 2035SOL     vw 8140   3.304   1.450   2.216  0.0569 -0.0721 -0.4432
 2036SOL     ow 8141   1.975   6.317   1.386 -0.2677  0.3317 -0.1627
 2036SOL     hw 8142   2.034   6.243   1.374 -0.8965  0.0431 -1.7246
 2036SOL     hw 8143   2.034   6.391   1.404  0.8087  0.3994 -3.2489
 2036SOL     vw 8144   1.991   6.317   1.387 -0.2086  0.3028 -0.7759
 2037SOL     ow 8145   2.003   2.176   2.003 -0.2594  0.0607 -0.3318
 2037SOL     hw 8146   1.910   2.201   1.996 -0.1555  0.2028 -1.5241
 2037SOL     hw 8147   2.006   2.086   1.969 -0.1019 -0.3308  0.6764
 2037SOL     vw 8148   1.991   2.167   1.997 -0.2248  0.0279 -0.3561
 2038SOL     ow 8149   6.692   1.422   0.020 -0.3015  0.0967  0.1369
 2038SOL     hw 8150   6.710   1.497   0.076 -1.8486  0.1427  0.6352
 2038SOL     hw 8151   6.597   1.425   0.007 -0.3756 -1.6686  0.0492
 2038SOL     vw 8152   6.682   1.432   0.026 -0.5155 -0.1301  0.1911
 2039SOL     ow 8153   2.890   4.635   0.216  0.3804 -0.0380 -0.3929
 2039SOL     hw 8154   2.921   4.723   0.240  0.2505  0.8660 -3.2263
 2039SOL     hw 8155   2.813   4.622   0.271  0.6335  1.4379  0.3911
 2039SOL     vw 8156   2.884   4.645   0.227  0.3966  0.2761 -0.6633
 2040SOL     ow 8157   6.864   4.781   2.096  0.2973  0.0312  0.0256
 2040SOL     hw 8158   6.887   4.872   2.112  0.3015  0.0409 -0.0332
 2040SOL     hw 8159   6.809   4.784   2.017  0.1024  0.0083  0.1606
 2040SOL     vw 8160   6.860   4.794   2.087  0.2720  0.0296  0.0356
 2041SOL     ow 8161   4.303   1.458   5.277  0.4585 -0.5185  0.5738
 2041SOL     hw 8162   4.324   1.399   5.205  0.7999 -0.0546  0.2908
 2041SOL     hw 8163   4.381   1.512   5.287  0.1600 -0.1372  0.8539
 2041SOL     vw 8164   4.316   1.457   5.269  0.4642 -0.4070  0.5734
 2042SOL     ow 8165   0.821   2.191   1.939  0.0323 -0.0164 -0.0661
 2042SOL     hw 8166   0.784   2.221   2.022  1.1443  0.5264  0.2519
 2042SOL     hw 8167   0.778   2.107   1.922 -0.3107 -0.0596  0.9808
 2042SOL     vw 8168   0.810   2.183   1.947  0.1337  0.0495  0.1140
 2043SOL     ow 8169   4.216   4.534   3.174 -0.1673 -0.1144 -0.3081
 2043SOL     hw 8170   4.139   4.509   3.225 -0.1105 -0.6175 -0.4594
 2043SOL     hw 8171   4.279   4.564   3.239 -0.6168  0.6450 -0.2128
 2043SOL     vw 8172   4.214   4.534   3.189 -0.2193 -0.0806 -0.3155
 2044SOL     ow 8173   3.063   1.133   1.739 -0.2310  0.4550  0.4876
 2044SOL     hw 8174   3.074   1.159   1.831  1.8702  1.1482  0.0872
 2044SOL     hw 8175   3.071   1.214   1.689 -1.9312  0.1723 -0.3350
 2044SOL     vw 8176   3.065   1.147   1.745 -0.1782  0.5093  0.3263
 2045SOL     ow 8177   3.354   4.008   4.651  0.2173  0.3014 -0.0274
 2045SOL     hw 8178   3.304   3.979   4.728  0.9052  1.5445  0.9225
 2045SOL     hw 8179   3.324   3.950   4.580 -2.3173  0.7504  0.5647
 2045SOL     vw 8180   3.343   3.996   4.652 -0.0263  0.5246  0.1764
 2046SOL     ow 8181   4.861   5.646   3.385  0.1905 -0.2860 -0.1331
 2046SOL     hw 8182   4.792   5.690   3.337  2.4262 -0.4446 -3.8971
 2046SOL     hw 8183   4.921   5.716   3.411  0.3824 -0.4638 -0.0920
 2046SOL     vw 8184   4.860   5.661   3.382  0.5107 -0.3307 -0.6244
 2047SOL     ow 8185   3.260   1.015   5.008 -0.1475 -0.7310  0.2122
 2047SOL     hw 8186   3.225   1.083   5.065 -0.4807 -0.1101 -0.7052
 2047SOL     hw 8187   3.347   1.047   4.983 -1.9619  1.8073 -3.9401
 2047SOL     vw 8188   3.267   1.028   5.012 -0.4307 -0.3142 -0.4566
 2048SOL     ow 8189   1.883   4.291   2.985  0.1992  0.3311  0.2830
 2048SOL     hw 8190   1.933   4.373   2.992 -1.5631  1.4683  0.1465
 2048SOL     hw 8191   1.819   4.308   2.916 -0.6520 -0.9148  0.7389
 2048SOL     vw 8192   1.881   4.304   2.977 -0.1456  0.3166  0.3252
 2049SOL     ow 8193   3.501   4.771   6.542 -0.7525 -0.1262 -0.2232
 2049SOL     hw 8194   3.436   4.712   6.503 -0.0633 -0.3469 -1.0732
 2049SOL     hw 8195   3.449   4.830   6.598 -1.5940 -0.7495 -0.3219
 2049SOL     vw 8196   3.485   4.771   6.544 -0.7725 -0.2375 -0.3483
 2050SOL     ow 8197   2.914   4.075   1.289  0.1395 -0.3807  0.8311
 2050SOL     hw 8198   2.858   4.014   1.335 -0.7352 -0.5243 -0.3790
 2050SOL     hw 8199   2.889   4.067   1.197  1.1881  0.5560  0.4322
 2050SOL     vw 8200   2.903   4.066   1.283  0.1624 -0.2759  0.6188
 2051SOL     ow 8201   5.097   3.568   6.536  0.6007 -0.6117 -0.2303
 2051SOL     hw 8202   5.156   3.495   6.520  0.6773 -0.5308 -0.3222
 2051SOL     hw 8203   5.010   3.530   6.534  0.6252 -0.6518 -0.5617
 2051SOL     vw 8204   5.093   3.554   6.534  0.6142 -0.6062 -0.2859
 2052SOL     ow 8205   4.955   1.361   0.725 -0.2151 -0.3544  0.0840
 2052SOL     hw 8206   4.987   1.413   0.799  2.4966  0.0277 -1.2154
 2052SOL     hw 8207   4.988   1.273   0.741  1.0813 -0.0982 -0.9804
 2052SOL     vw 8208   4.964   1.357   0.736  0.3138 -0.2701 -0.2279
 2053SOL     ow 8209   3.502   4.584   3.859  0.3981  0.0514  0.1477
 2053SOL     hw 8210   3.477   4.498   3.893 -1.2980 -0.0448 -1.2176
 2053SOL     hw 8211   3.419   4.626   3.837  1.2909  1.1316 -1.3460
 2053SOL     vw 8212   3.487   4.578   3.861  0.2922  0.1810 -0.2295
 2054SOL     ow 8213   4.484   2.140   5.047  0.2660  0.2202 -0.0375
 2054SOL     hw 8214   4.554   2.092   5.092  0.1282  1.0369  1.1002
 2054SOL     hw 8215   4.458   2.083   4.975  1.6568 -0.3886 -0.0942
 2054SOL     vw 8216   4.490   2.126   5.043  0.4313  0.2477  0.1051
 2055SOL     ow 8217   6.381   0.371   0.143  0.0849 -0.6327  0.1031
 2055SOL     hw 8218   6.415   0.283   0.157 -2.3015 -1.5806  0.4517
 2055SOL     hw 8219   6.413   0.396   0.056  2.5261 -0.9163  0.8538
 2055SOL     vw 8220   6.390   0.363   0.133  0.0920 -0.7952  0.2481
 2056SOL     ow 8221   2.990   4.775   5.606  0.1392  0.2111  0.4148
 2056SOL     hw 8222   2.951   4.691   5.633 -0.8966  0.2155 -0.9747
 2056SOL     hw 8223   2.933   4.841   5.644 -0.9049  0.2226 -1.0772
 2056SOL     vw 8224   2.977   4.772   5.615 -0.1352  0.2131  0.0343
 2057SOL     ow 8225   0.795   4.859   0.459 -0.3760 -0.5853  0.4275
 2057SOL     hw 8226   0.877   4.827   0.498  0.4255 -0.5178 -1.1094
 2057SOL     hw 8227   0.740   4.881   0.533  0.7087 -1.3990  1.5086
 2057SOL     vw 8228   0.799   4.858   0.474 -0.1271 -0.6838  0.3673
 2058SOL     ow 8229   2.321   5.584   1.933 -0.3748 -0.1548 -0.2956
 2058SOL     hw 8230   2.386   5.516   1.918 -0.3444 -0.3305  0.5778
 2058SOL     hw 8231   2.238   5.536   1.944 -0.2935 -0.0974  0.6909
 2058SOL     vw 8232   2.318   5.568   1.932 -0.3600 -0.1705 -0.0502
 2059SOL     ow 8233   0.655   5.592   6.391 -0.2262  0.3792  0.3121
 2059SOL     hw 8234   0.702   5.607   6.474 -0.6738  2.2891  0.2826
 2059SOL     hw 8235   0.725   5.581   6.326  0.1587  0.4880  0.6972
 2059SOL     vw 8236   0.671   5.593   6.394 -0.2345  0.6454  0.3588
 2060SOL     ow 8237   6.621   5.663   3.125 -0.1417  0.4573  0.3556
 2060SOL     hw 8238   6.630   5.751   3.087 -1.3142  0.9184  1.0846
 2060SOL     hw 8239   6.710   5.638   3.151  0.2615  1.2594 -0.2133
 2060SOL     vw 8240   6.634   5.671   3.123 -0.2432  0.6239  0.3767
 2061SOL     ow 8241   4.769   0.198   3.805 -0.3978 -0.3678 -1.0758
 2061SOL     hw 8242   4.862   0.205   3.830 -0.4430  0.0155 -1.0057
 2061SOL     hw 8243   4.770   0.206   3.709 -0.3853 -0.0209 -1.0497
 2061SOL     vw 8244   4.782   0.200   3.796 -0.4022 -0.2714 -1.0632
 2062SOL     ow 8245   6.958   1.323   1.112  0.3726  0.0640  0.0839
 2062SOL     hw 8246   6.920   1.298   1.028  1.8228 -1.9293 -0.0508
 2062SOL     hw 8247   6.920   1.409   1.131  1.0228  1.2511 -3.2773
 2062SOL     vw 8248   6.948   1.331   1.104  0.6495 -0.0424 -0.3774
 2063SOL     ow 8249   5.828   0.010   4.527 -0.0840  0.5588  0.0657
 2063SOL     hw 8250   5.760   0.038   4.465 -1.1306  0.4578  1.1289
 2063SOL     hw 8251   5.829   0.079   4.594 -0.4714 -0.3713  1.0498
 2063SOL     vw 8252   5.819   0.023   4.528 -0.2730  0.4228  0.3359
 2064SOL     ow 8253   1.965   0.371   2.586 -0.2259  0.0906  0.7101
 2064SOL     hw 8254   2.039   0.391   2.643  2.5308  1.1981 -2.8825
 2064SOL     hw 8255   1.999   0.306   2.525 -2.8839 -0.7360 -0.0096
 2064SOL     vw 8256   1.979   0.365   2.586 -0.2128  0.1277  0.1411
 2065SOL     ow 8257   3.900   2.449   1.848 -0.1202 -0.4350  0.1840
 2065SOL     hw 8258   3.881   2.490   1.764 -0.6596 -0.8040  0.1189
 2065SOL     hw 8259   3.994   2.465   1.862 -0.4904  1.5478  0.5837
 2065SOL     vw 8260   3.910   2.456   1.839 -0.2402 -0.2223  0.2281
 2066SOL     ow 8261   1.567   4.140   4.460  0.1574  0.2996  0.0241
 2066SOL     hw 8262   1.617   4.155   4.540  0.9570 -1.0548 -0.1908
 2066SOL     hw 8263   1.634   4.120   4.394 -0.6779 -3.2940  0.1026
 2066SOL     vw 8264   1.583   4.140   4.462  0.1526 -0.3531  0.0064
 2067SOL     ow 8265   5.246   0.724   1.383  0.1818 -0.1622  0.5827
 2067SOL     hw 8266   5.270   0.813   1.357 -0.6135  0.3862  1.6129
 2067SOL     hw 8267   5.329   0.678   1.393  0.6586  0.7595  0.9907
 2067SOL     vw 8268   5.260   0.730   1.381  0.1397  0.0317  0.7725
 2068SOL     ow 8269   5.642   2.906   0.256  0.1178 -0.2914 -0.2815
 2068SOL     hw 8270   5.716   2.874   0.203  0.6539  1.9699 -0.9874
 2068SOL     hw 8271   5.672   2.896   0.347  0.9708 -0.1456 -0.5383
 2068SOL     vw 8272   5.656   2.900   0.261  0.3011  0.0261 -0.4085
 2069SOL     ow 8273   6.094   5.370   7.049 -0.1917 -0.9045 -0.4231
 2069SOL     hw 8274   6.042   5.420   7.112  1.9803  1.0097 -0.0341
 2069SOL     hw 8275   6.107   5.430   6.975  2.4739 -0.7886  0.0477
 2069SOL     vw 8276   6.089   5.385   7.048  0.4466 -0.6366 -0.3097
 2070SOL     ow 8277   6.884   5.883   6.839 -0.4661  0.4248 -0.1405
 2070SOL     hw 8278   6.882   5.965   6.888 -1.0635 -0.0676  0.6777
 2070SOL     hw 8279   6.799   5.878   6.796 -0.6980 -0.0979  0.3744
 2070SOL     vw 8280   6.873   5.893   6.840 -0.5758  0.2909  0.0353
 2071SOL     ow 8281   0.252   6.967   4.711 -0.0947 -0.6224 -0.0063
 2071SOL     hw 8282   0.308   6.954   4.635  1.3034 -0.2008  0.9078
 2071SOL     hw 8283   0.248   6.882   4.754  0.5401 -0.4586  0.3804
 2071SOL     vw 8284   0.259   6.954   4.707  0.1735 -0.5453  0.1655
 2072SOL     ow 8285   5.587   6.035   0.287 -0.4927 -0.2916 -0.0889
 2072SOL     hw 8286   5.637   5.961   0.321  1.4561  0.8070 -0.3722
 2072SOL     hw 8287   5.583   6.097   0.360 -1.9898 -0.5659  0.1037
 2072SOL     vw 8288   5.593   6.034   0.301 -0.4330 -0.1826 -0.1008
 2073SOL     ow 8289   6.431   1.481   1.365 -0.2795 -0.2967 -0.5176
 2073SOL     hw 8290   6.526   1.476   1.354 -0.1844  0.3784 -0.0474
 2073SOL     hw 8291   6.396   1.462   1.278  0.3088  0.2237 -0.8790
 2073SOL     vw 8292   6.439   1.478   1.352 -0.1893 -0.1389 -0.5033
 2074SOL     ow 8293   0.401   1.410   6.894 -1.1818  0.0035  0.4085
 2074SOL     hw 8294   0.450   1.396   6.976  1.8238  1.5113 -0.9807
 2074SOL     hw 8295   0.348   1.487   6.911 -0.9735  0.0050  1.1073
 2074SOL     vw 8296   0.401   1.418   6.907 -0.7578  0.2026  0.3173
 2075SOL     ow 8297   6.133   3.411   6.924 -0.5251  0.4180  0.4862
 2075SOL     hw 8298   6.089   3.434   7.007  0.9972 -2.0561  2.0939
 2075SOL     hw 8299   6.093   3.328   6.898 -0.0437  0.5052 -0.5770
 2075SOL     vw 8300   6.122   3.403   6.932 -0.2608  0.1031  0.5579
 2076SOL     ow 8301   0.394   5.666   0.883  0.2873  0.1136  0.1243
 2076SOL     hw 8302   0.479   5.707   0.870  1.0721 -1.2262  0.8208
 2076SOL     hw 8303   0.331   5.732   0.854  1.4471  1.9673  1.5961
 2076SOL     vw 8304   0.397   5.680   0.877  0.5439  0.1814  0.4105
 2077SOL     ow 8305   0.145   3.254   3.324  0.4206 -0.2025  0.5642
 2077SOL     hw 8306   0.113   3.188   3.262 -0.5840  0.4831  0.3372
 2077SOL     hw 8307   0.239   3.256   3.309  0.3474 -0.9217 -0.0827
 2077SOL     vw 8308   0.153   3.245   3.314  0.2784 -0.2069  0.4488
 2078SOL     ow 8309   5.663   5.318   4.274 -0.2447 -0.4210  0.0073
 2078SOL     hw 8310   5.642   5.225   4.273  0.3998 -0.5858  0.7000
 2078SOL     hw 8311   5.689   5.338   4.184  2.2947 -1.5765  0.3838
 2078SOL     vw 8312   5.664   5.309   4.262  0.1752 -0.5953  0.1485
 2079SOL     ow 8313   3.366   3.296   0.239  0.4952  0.4278  0.4911
 2079SOL     hw 8314   3.413   3.297   0.155  1.6548 -0.3945  1.1162
 2079SOL     hw 8315   3.324   3.382   0.243 -0.3556  0.1498 -1.3522
 2079SOL     vw 8316   3.366   3.308   0.228  0.5358  0.2829  0.3303
 2080SOL     ow 8317   2.795   5.936   0.142 -0.4228 -0.2880 -0.0291
 2080SOL     hw 8318   2.749   5.981   0.072  0.5481 -0.0006 -0.5014
 2080SOL     hw 8319   2.833   6.006   0.195 -0.0195 -0.5179 -0.0044
 2080SOL     vw 8320   2.794   5.951   0.140 -0.2415 -0.2804 -0.0882
 2081SOL     ow 8321   1.660   1.162   0.720  0.1552 -0.2610 -0.2007
 2081SOL     hw 8322   1.642   1.122   0.805  1.1209  0.0144  0.1424
 2081SOL     hw 8323   1.647   1.256   0.734  0.1828 -0.2267 -0.3965
 2081SOL     vw 8324   1.656   1.169   0.733  0.2863 -0.2201 -0.1812
 2082SOL     ow 8325   3.120   7.034   2.564 -0.5357  0.7702 -1.0921
 2082SOL     hw 8326   3.171   6.966   2.522  2.3157  3.3331 -2.1332
 2082SOL     hw 8327   3.085   7.086   2.492 -1.9150  0.9598 -0.3252
 2082SOL     vw 8328   3.122   7.032   2.549 -0.3417  1.1334 -1.1283
 2083SOL     ow 8329   5.952   5.015   6.856 -0.0377  0.5448  0.5583
 2083SOL     hw 8330   6.031   5.030   6.908 -0.3679  1.7831  0.7410
 2083SOL     hw 8331   5.889   4.976   6.917 -0.3628  1.8229  1.0892
 2083SOL     vw 8332   5.954   5.012   6.871 -0.1242  0.8767  0.6526
 2084SOL     ow 8333   3.416   2.398   6.065 -0.3850  0.1631 -0.5294
 2084SOL     hw 8334   3.364   2.467   6.106 -0.8153  0.1095 -0.9733
 2084SOL     hw 8335   3.365   2.318   6.078 -0.3340  0.0813 -0.8106
 2084SOL     vw 8336   3.403   2.397   6.072 -0.4350  0.1452 -0.6247
 2085SOL     ow 8337   1.225   6.481   4.198  0.1213 -0.5597  0.5655
 2085SOL     hw 8338   1.296   6.506   4.139  0.1655 -1.7536  0.0773
 2085SOL     hw 8339   1.270   6.449   4.277  0.1360 -0.9967  0.3870
 2085SOL     vw 8340   1.240   6.480   4.201  0.1290 -0.7749  0.4773
 2086SOL     ow 8341   1.574   6.132   3.429  0.2253  0.1109 -0.1068
 2086SOL     hw 8342   1.529   6.053   3.400 -1.3445  0.9687 -0.1238
 2086SOL     hw 8343   1.524   6.161   3.506  1.7405  0.2253  0.8820
 2086SOL     vw 8344   1.561   6.125   3.435  0.2181  0.2389  0.0215
 2087SOL     ow 8345   1.361   7.075   4.855  0.3836  0.4013  0.0224
 2087SOL     hw 8346   1.347   7.128   4.933  1.0167  1.5368 -0.6184
 2087SOL     hw 8347   1.437   7.021   4.875 -0.6412 -0.7916  0.9182
 2087SOL     vw 8348   1.369   7.075   4.868  0.3320  0.3938  0.0563
 2088SOL     ow 8349   3.318   0.955   0.895 -0.3778  0.1813  0.1328
 2088SOL     hw 8350   3.238   0.921   0.936 -0.4605 -0.9668 -0.9099
 2088SOL     hw 8351   3.352   0.880   0.846  1.6549  0.4636  1.0063
 2088SOL     vw 8352   3.312   0.940   0.894 -0.1204  0.0671  0.1104
 2089SOL     ow 8353   6.929   5.752   4.593 -0.1318  0.0781 -0.3247
 2089SOL     hw 8354   6.839   5.772   4.568 -0.5251 -2.0292 -0.8240
 2089SOL     hw 8355   6.983   5.809   4.538 -1.1463 -0.0768 -1.5131
 2089SOL     vw 8356   6.925   5.762   4.582 -0.3178 -0.2205 -0.5472
 2090SOL     ow 8357   1.562   4.183   6.694  0.0302  0.0686  0.3229
 2090SOL     hw 8358   1.514   4.129   6.632  1.2149 -0.2122 -0.3883
 2090SOL     hw 8359   1.590   4.259   6.643 -0.3656  0.6235  0.9334
 2090SOL     vw 8360   1.559   4.186   6.679  0.1342  0.1049  0.3097
 2091SOL     ow 8361   2.513   6.492   5.685 -0.9085 -0.5674 -0.2058
 2091SOL     hw 8362   2.463   6.540   5.620  0.0585  2.3088  1.0027
 2091SOL     hw 8363   2.601   6.485   5.648 -0.5105  0.5461  0.4631
 2091SOL     vw 8364   2.518   6.497   5.672 -0.7282 -0.0412  0.0417
 2092SOL     ow 8365   3.514   6.207   3.103 -0.5100  0.4087  0.0627
 2092SOL     hw 8366   3.546   6.118   3.119 -1.3453  0.4308  2.1786
 2092SOL     hw 8367   3.431   6.211   3.150 -0.9352  2.0342 -0.7760
 2092SOL     vw 8368   3.508   6.196   3.112 -0.6764  0.6261  0.2311
 2093SOL     ow 8369   4.351   6.531   2.586 -0.1130  0.0369  0.0420
 2093SOL     hw 8370   4.319   6.620   2.598  1.6364  0.5941  1.0026
 2093SOL     hw 8371   4.290   6.476   2.636 -1.7141  0.5494 -1.2706
 2093SOL     vw 8372   4.339   6.535   2.594 -0.0935  0.1779 -0.0044
 2094SOL     ow 8373   3.835   0.200   2.366 -0.4584 -0.2739 -0.3356
 2094SOL     hw 8374   3.830   0.287   2.405 -0.5364 -0.4479  0.0498
 2094SOL     hw 8375   3.863   0.215   2.276 -1.3890  0.2198 -0.5473
 2094SOL     vw 8376   3.838   0.213   2.359 -0.5916 -0.2318 -0.3128
 2095SOL     ow 8377   2.541   5.891   2.737  0.0302  0.0158  0.1320
 2095SOL     hw 8378   2.453   5.912   2.705  0.3377 -1.0829 -1.4991
 2095SOL     hw 8379   2.562   5.806   2.698  1.6413  0.0298  0.8818
 2095SOL     vw 8380   2.532   5.883   2.728  0.2834 -0.1273  0.0156
 2096SOL     ow 8381   2.476   1.053   4.732  0.0702 -0.1752  0.4223
 2096SOL     hw 8382   2.491   1.127   4.791  1.7904 -0.0197 -0.1366
 2096SOL     hw 8383   2.485   1.090   4.644 -3.1203 -0.2739 -0.0311
 2096SOL     vw 8384   2.479   1.068   4.728 -0.1239 -0.1677  0.2885
 2097SOL     ow 8385   3.087   4.459   6.271  0.0108  0.4033 -0.0553
 2097SOL     hw 8386   3.004   4.429   6.234  0.1434 -0.5494  0.3976
 2097SOL     hw 8387   3.153   4.408   6.224  0.3172  0.8238 -0.0820
 2097SOL     vw 8388   3.085   4.448   6.260  0.0689  0.3326  0.0007
 2098SOL     ow 8389   3.641   0.145   1.199  0.3826 -0.0082  0.5687
 2098SOL     hw 8390   3.601   0.121   1.283 -1.6807  2.2679  0.3324
 2098SOL     hw 8391   3.588   0.100   1.134  0.0161  0.7073  0.3688
 2098SOL     vw 8392   3.629   0.136   1.202  0.0621  0.3865  0.5112
 2099SOL     ow 8393   3.013   2.325   0.215 -0.2084 -0.4433 -0.3941
 2099SOL     hw 8394   3.045   2.249   0.263  0.0171  0.2851  0.6284
 2099SOL     hw 8395   2.920   2.306   0.200 -0.4673 -0.3599  0.9829
 2099SOL     vw 8396   3.005   2.312   0.219 -0.2129 -0.3362 -0.0775
 2100SOL     ow 8397   3.345   3.120   0.685  0.0195  0.1432 -0.4461
 2100SOL     hw 8398   3.383   3.149   0.768  3.0388 -0.9781 -1.2705
 2100SOL     hw 8399   3.289   3.046   0.710  2.0042 -1.1322  0.5724
 2100SOL     vw 8400   3.343   3.114   0.700  0.6797 -0.1731 -0.4205
 2101SOL     ow 8401   2.783   5.675   0.062  0.3362  0.3629  0.1266
 2101SOL     hw 8402   2.792   5.769   0.080  0.6182  0.1776  1.0001
 2101SOL     hw 8403   2.695   5.665   0.026  0.7486  1.1330 -1.1391
 2101SOL     vw 8404   2.773   5.686   0.060  0.4277  0.4401  0.0748
 2102SOL     ow 8405   2.719   2.059   1.478 -0.1163 -1.1111  0.0459
 2102SOL     hw 8406   2.815   2.052   1.472  0.0158  0.0567  0.6439
 2102SOL     hw 8407   2.697   2.020   1.562  0.1010  0.7939  1.0248
 2102SOL     vw 8408   2.729   2.053   1.488 -0.0702 -0.7057  0.2539
 2103SOL     ow 8409   1.593   3.694   1.806 -0.2876 -0.1053  0.3353
 2103SOL     hw 8410   1.650   3.675   1.732 -0.1827  1.4655 -0.0260
 2103SOL     hw 8411   1.587   3.612   1.854 -0.0144 -1.0352 -1.1767
 2103SOL     vw 8412   1.599   3.681   1.803 -0.2377 -0.0205  0.0882
 2104SOL     ow 8413   1.294   3.299   5.720  0.8338  0.9025  0.1641
 2104SOL     hw 8414   1.310   3.315   5.813  0.3156 -2.4677  0.9483
 2104SOL     hw 8415   1.369   3.246   5.692  0.1251  0.4394 -0.9001
 2104SOL     vw 8416   1.306   3.294   5.729  0.6720  0.3966  0.1271
 2105SOL     ow 8417   6.935   5.036   3.213  0.3188  0.5976  0.5478
 2105SOL     hw 8418   6.918   5.128   3.235 -3.0550  0.3430 -0.4397
 2105SOL     hw 8419   6.894   4.987   3.283  0.0745 -0.1367 -0.0956
 2105SOL     vw 8420   6.928   5.042   3.225 -0.1585  0.4673  0.3326
 2106SOL     ow 8421   1.099   5.318   4.065  0.1102  0.1398 -0.3869
 2106SOL     hw 8422   1.025   5.318   4.003  0.5483 -1.6727 -0.9804
 2106SOL     hw 8423   1.147   5.238   4.044  0.5446 -0.2984  2.0111
 2106SOL     vw 8424   1.096   5.307   4.054  0.2254 -0.1571 -0.1488
 2107SOL     ow 8425   1.688   0.269   3.024  0.0813 -0.7153 -0.0569
 2107SOL     hw 8426   1.749   0.248   3.095  1.3284  1.2594 -0.4574
 2107SOL     hw 8427   1.659   0.358   3.043  0.0063 -0.3637 -1.6961
 2107SOL     vw 8428   1.693   0.278   3.036  0.2359 -0.4084 -0.3260
 2108SOL     ow 8429   0.674   3.988   2.845 -0.0681 -0.3212  0.0579
 2108SOL     hw 8430   0.704   4.018   2.931 -0.2844  1.3053 -0.4134
 2108SOL     hw 8431   0.715   3.902   2.835 -1.0109 -1.0982  2.2937
 2108SOL     vw 8432   0.684   3.980   2.855 -0.2211 -0.2091  0.2908
 2109SOL     ow 8433   5.323   3.395   1.971 -0.4929 -0.6105  0.0893
 2109SOL     hw 8434   5.403   3.345   1.955 -1.2339 -1.0675 -2.5111
 2109SOL     hw 8435   5.326   3.413   2.066  2.9123 -0.1311  0.0424
 2109SOL     vw 8436   5.334   3.391   1.982 -0.1411 -0.6075 -0.2599
 2110SOL     ow 8437   3.962   4.696   3.594  0.5838  0.1606 -0.3429
 2110SOL     hw 8438   3.915   4.648   3.662 -1.5419  1.4493 -0.8091
 2110SOL     hw 8439   4.054   4.674   3.608 -0.0074 -1.3985  1.4945
 2110SOL     vw 8440   3.968   4.687   3.605  0.2252  0.1249 -0.1621
 2111SOL     ow 8441   5.499   2.003   4.862 -0.8533  0.3748  0.1838
 2111SOL     hw 8442   5.427   2.060   4.833 -1.8101 -0.1013  1.5334
 2111SOL     hw 8443   5.577   2.057   4.853 -1.4167  1.0593 -0.8972
 2111SOL     vw 8444   5.500   2.018   4.857 -1.0538  0.4025  0.2193
 2112SOL     ow 8445   3.155   1.382   0.336  0.4704  0.1687  0.4329
 2112SOL     hw 8446   3.217   1.412   0.402  1.5105  1.6585 -1.1450
 2112SOL     hw 8447   3.072   1.425   0.360  0.5370 -0.1807  1.3564
 2112SOL     vw 8448   3.152   1.391   0.348  0.6164  0.3192  0.3466
 2113SOL     ow 8449   1.068   5.158   0.218 -0.3154 -0.4486  0.1902
 2113SOL     hw 8450   1.001   5.095   0.190 -0.3177 -0.4343  0.1635
 2113SOL     hw 8451   1.124   5.169   0.142 -0.7122  0.1000 -0.0334
 2113SOL     vw 8452   1.066   5.151   0.204 -0.3680 -0.3741  0.1571
 2114SOL     ow 8453   5.977   5.412   0.444  0.2965  0.2808  0.0827
 2114SOL     hw 8454   6.047   5.435   0.384 -1.9592  1.8874 -2.1176
 2114SOL     hw 8455   5.940   5.331   0.408 -0.0465  0.3587  0.2525
 2114SOL     vw 8456   5.981   5.404   0.431 -0.0465  0.5033 -0.1852
 2115SOL     ow 8457   3.600   3.002   2.031 -0.0448 -0.0316 -0.4475
 2115SOL     hw 8458   3.575   2.917   2.067 -0.5748  0.9306  1.6151
 2115SOL     hw 8459   3.524   3.029   1.980 -1.5501  0.8469  2.0635
 2115SOL     vw 8460   3.587   2.994   2.029 -0.3134  0.2114  0.1559
 2116SOL     ow 8461   5.276   2.143   4.820 -0.1070  0.0854 -0.6419
 2116SOL     hw 8462   5.285   2.196   4.900  0.8020 -0.4480 -0.3780
 2116SOL     hw 8463   5.199   2.088   4.837  0.1404 -0.0999 -0.0775
 2116SOL     vw 8464   5.267   2.143   4.833  0.0455 -0.0095 -0.5326
 2117SOL     ow 8465   2.278   3.929   5.736  0.5539  0.3814 -0.0403
 2117SOL     hw 8466   2.188   3.947   5.765  1.1644  2.1279  0.8825
 2117SOL     hw 8467   2.280   3.834   5.723 -1.0848  0.1493  1.1126
 2117SOL     vw 8468   2.266   3.919   5.738  0.4183  0.5813  0.2337
 2118SOL     ow 8469   5.541   0.941   6.965  0.2514  0.4896 -0.3745
 2118SOL     hw 8470   5.532   1.000   7.040 -2.9083 -1.8886  1.3777
 2118SOL     hw 8471   5.524   0.996   6.888 -1.3825  2.0983  1.0596
 2118SOL     vw 8472   5.537   0.956   6.965 -0.3812  0.3881  0.0460
 2119SOL     ow 8473   6.678   5.022   0.002  0.6187 -0.1519  0.3677
 2119SOL     hw 8474   6.721   5.002   0.085  1.8629 -0.5586 -0.3443
 2119SOL     hw 8475   6.750   5.039  -0.059 -0.2171 -1.0197 -0.9233
 2119SOL     vw 8476   6.693   5.022   0.005  0.6723 -0.3202  0.1032
 2120SOL     ow 8477   6.733   5.605   5.959  0.5922  0.5891  0.4180
 2120SOL     hw 8478   6.715   5.511   5.952 -1.0223  0.9532 -0.9015
 2120SOL     hw 8479   6.819   5.616   5.919  0.4392 -0.2309 -0.1731
 2120SOL     vw 8480   6.742   5.594   5.953  0.3591  0.5288  0.1659
 2121SOL     ow 8481   1.404   6.855   2.848  0.1767  0.3956  0.5885
 2121SOL     hw 8482   1.332   6.801   2.881 -0.3192  0.9235  0.4047
 2121SOL     hw 8483   1.439   6.806   2.774  0.9701 -0.5565  1.5632
 2121SOL     vw 8484   1.399   6.842   2.843  0.2160  0.3397  0.6930
 2122SOL     ow 8485   4.614   4.443   2.301 -0.3079 -0.0707 -0.1208
 2122SOL     hw 8486   4.628   4.399   2.385 -0.2012  0.0136 -0.0953
 2122SOL     hw 8487   4.556   4.516   2.322 -1.2041 -0.7058 -0.3067
 2122SOL     vw 8488   4.608   4.447   2.315 -0.4122 -0.1431 -0.1420
 2123SOL     ow 8489   2.047   3.885   2.252 -0.0940  0.4859  0.6069
 2123SOL     hw 8490   2.066   3.953   2.188 -0.9705  0.1108 -0.0753
 2123SOL     hw 8491   2.009   3.814   2.200  0.4788 -0.3745  1.3582
 2123SOL     vw 8492   2.044   3.885   2.237 -0.1340  0.3229  0.6161
 2124SOL     ow 8493   4.130   2.664   6.660 -0.1683 -0.6672  0.2554
 2124SOL     hw 8494   4.170   2.703   6.582  1.2865 -2.9905 -0.2414
 2124SOL     hw 8495   4.130   2.570   6.642 -1.5813 -1.1023  2.2780
 2124SOL     vw 8496   4.135   2.657   6.647 -0.1628 -1.0310  0.4568
 2125SOL     ow 8497   6.571   4.049   1.556 -0.2449 -0.5540  0.1322
 2125SOL     hw 8498   6.558   4.134   1.513  2.1706 -0.4103 -0.4490
 2125SOL     hw 8499   6.490   4.002   1.541 -0.2127  0.2011 -3.0288
 2125SOL     vw 8500   6.559   4.054   1.548  0.0780 -0.4356 -0.3615
 2126SOL     ow 8501   3.429   1.177   5.837  0.1486  0.4799  0.0369
 2126SOL     hw 8502   3.511   1.133   5.812  0.8381  1.4874  0.4474
 2126SOL     hw 8503   3.365   1.147   5.773  0.8715 -0.2316 -0.3715
 2126SOL     vw 8504   3.432   1.167   5.825  0.3350  0.5189  0.0374
 2127SOL     ow 8505   2.006   3.879   0.302 -0.0759 -0.0847 -0.2042
 2127SOL     hw 8506   2.069   3.822   0.258 -0.2799 -1.4883  1.2219
 2127SOL     hw 8507   1.931   3.883   0.242 -0.1511 -1.5276 -0.2407
 2127SOL     vw 8508   2.005   3.872   0.288 -0.1128 -0.4601 -0.0209
 2128SOL     ow 8509   6.451   6.389   3.980 -0.0886 -0.3460  0.4851
 2128SOL     hw 8510   6.357   6.378   3.972  0.1391 -2.3945 -0.0068
 2128SOL     hw 8511   6.478   6.429   3.897 -0.5500  0.6902  0.8183
 2128SOL     vw 8512   6.442   6.393   3.968 -0.1194 -0.4795  0.4642
 2129SOL     ow 8513   5.012   5.239   4.746 -0.0213  0.0723 -0.6611
 2129SOL     hw 8514   5.040   5.206   4.832 -1.8950  0.8267  0.3108
 2129SOL     hw 8515   5.025   5.334   4.752  0.8107  0.0431 -1.6420
 2129SOL     vw 8516   5.018   5.247   4.758 -0.1588  0.1678 -0.6623
 2130SOL     ow 8517   3.261   0.851   0.381 -0.2013  1.1303 -0.3624
 2130SOL     hw 8518   3.181   0.806   0.355  0.7210  0.1059 -1.5404
 2130SOL     hw 8519   3.305   0.790   0.439  0.3213  1.1430 -0.7358
 2130SOL     vw 8520   3.256   0.837   0.385 -0.0107  0.9968 -0.5671
 2131SOL     ow 8521   0.904   3.854   5.028  0.4765 -0.3621 -0.4918
 2131SOL     hw 8522   0.813   3.857   4.996  1.3013  0.9189 -3.0209
 2131SOL     hw 8523   0.943   3.935   4.995  2.8799 -1.4719 -0.5770
 2131SOL     vw 8524   0.897   3.865   5.019  0.9024 -0.3396 -0.8366
 2132SOL     ow 8525   6.177   2.946   2.254  0.3903 -0.4548 -0.0123
 2132SOL     hw 8526   6.268   2.969   2.237 -0.1951  0.6782 -1.9450
 2132SOL     hw 8527   6.152   2.998   2.330  0.4735  1.7963 -1.4271
 2132SOL     vw 8528   6.185   2.956   2.262  0.3242 -0.0083 -0.4539
 2133SOL     ow 8529   4.754   0.209   3.547 -0.2424  0.0765  0.4706
 2133SOL     hw 8530   4.763   0.294   3.504 -0.9405 -0.7179 -1.3067
 2133SOL     hw 8531   4.663   0.183   3.531 -0.5338 -0.3021  2.4112
 2133SOL     vw 8532   4.743   0.217   3.539 -0.3726 -0.0782  0.4922
 2134SOL     ow 8533   3.554   4.620   1.245 -0.2400  0.1992  0.4269
 2134SOL     hw 8534   3.577   4.686   1.180  0.1145  0.3083  0.6585
 2134SOL     hw 8535   3.558   4.537   1.198 -0.0355  0.2822  0.2950
 2134SOL     vw 8536   3.558   4.617   1.230 -0.1663  0.2246  0.4400
 2135SOL     ow 8537   4.727   5.144   4.636  0.0903 -0.1147  0.4085
 2135SOL     hw 8538   4.720   5.116   4.728 -0.1590  0.4138  0.5537
 2135SOL     hw 8539   4.637   5.157   4.608  0.2223  1.4859  0.6485
 2135SOL     vw 8540   4.714   5.142   4.645  0.0751  0.1664  0.4592
 2136SOL     ow 8541   1.539   6.564   0.329  0.4161  0.5517 -0.4127
 2136SOL     hw 8542   1.622   6.558   0.375  0.3597  1.7239 -0.1251
 2136SOL     hw 8543   1.558   6.617   0.252  0.0613  0.3078 -0.6756
 2136SOL     vw 8544   1.552   6.570   0.325  0.3619  0.6740 -0.4094
 2137SOL     ow 8545   0.868   5.584   6.206 -0.0517 -0.1099 -0.9861
 2137SOL     hw 8546   0.885   5.494   6.233  0.9220  0.6432  1.1928
 2137SOL     hw 8547   0.953   5.628   6.216 -0.6719  1.1984 -1.3178
 2137SOL     vw 8548   0.882   5.578   6.211 -0.0050  0.1619 -0.7422
 2138SOL     ow 8549   2.140   5.445   0.638  0.1793  0.4902  0.6590
 2138SOL     hw 8550   2.081   5.419   0.709  1.2970  0.7960  1.7481
 2138SOL     hw 8551   2.196   5.512   0.677  0.8500  0.6455 -0.5157
 2138SOL     vw 8552   2.139   5.451   0.653  0.4152  0.5507  0.6477
 2139SOL     ow 8553   1.067   1.190   0.504 -0.6190  0.3202 -0.2878
 2139SOL     hw 8554   0.988   1.182   0.450  0.4806  0.2691 -1.9915
 2139SOL     hw 8555   1.049   1.139   0.582 -1.8834 -0.5875 -1.1305
 2139SOL     vw 8556   1.054   1.182   0.507 -0.6407  0.1937 -0.6238
 2140SOL     ow 8557   5.389   5.978   0.120 -0.4164  0.1848  0.3833
 2140SOL     hw 8558   5.466   6.004   0.171 -0.1395  0.0746  0.0241
 2140SOL     hw 8559   5.347   5.910   0.173  0.5237 -0.7755 -0.0670
 2140SOL     vw 8560   5.394   5.973   0.134 -0.2561  0.0436  0.2765
 2141SOL     ow 8561   5.087   6.948   0.287 -0.5535 -0.0864  0.0906
 2141SOL     hw 8562   5.156   7.015   0.291 -0.8106  0.3026 -1.4032
 2141SOL     hw 8563   5.014   6.985   0.336 -0.6961  0.7607 -0.7377
 2141SOL     vw 8564   5.087   6.962   0.294 -0.6063  0.0768 -0.2158
 2142SOL     ow 8565   0.664   1.926   2.671  0.0085 -0.0293 -1.1164
 2142SOL     hw 8566   0.686   1.834   2.683  3.7643  0.9415  0.6654
 2142SOL     hw 8567   0.627   1.953   2.755  1.8208  0.7422 -0.5350
 2142SOL     vw 8568   0.662   1.917   2.683  0.7432  0.2006 -0.8045
 2143SOL     ow 8569   2.717   6.570   0.627  0.1721  0.1419  0.2221
 2143SOL     hw 8570   2.767   6.490   0.609 -0.6044 -0.8779  2.2525
 2143SOL     hw 8571   2.700   6.567   0.721 -1.6855  1.6341 -0.0020
 2143SOL     vw 8572   2.721   6.559   0.637 -0.1754  0.2041  0.4604
 2144SOL     ow 8573   2.945   2.634   6.971 -0.5345  0.5512  0.8806
 2144SOL     hw 8574   2.879   2.569   6.947 -0.1675  0.5202 -0.0955
 2144SOL     hw 8575   3.021   2.582   6.997 -0.6749  0.5906  1.3798
 2144SOL     vw 8576   2.946   2.618   6.971 -0.5047  0.5524  0.8175
 2145SOL     ow 8577   3.411   6.013   7.014  0.0516 -0.1439  0.1541
 2145SOL     hw 8578   3.397   5.944   6.949  0.9850 -0.3377  0.1427
 2145SOL     hw 8579   3.505   6.010   7.032  0.3020  1.7660 -0.5811
 2145SOL     vw 8580   3.422   6.004   7.007  0.2078  0.0823  0.0556
 2146SOL     ow 8581   6.236   0.439   1.948 -0.0728 -0.0136 -0.0959
 2146SOL     hw 8582   6.145   0.412   1.936 -0.7519  2.4983 -1.4725
 2146SOL     hw 8583   6.285   0.389   1.883 -0.8740  0.2876 -0.9497
 2146SOL     vw 8584   6.230   0.429   1.938 -0.2685  0.3576 -0.3901
 2147SOL     ow 8585   0.025   4.028   6.415  0.2065  0.2216  0.6542
 2147SOL     hw 8586  -0.015   4.055   6.333  2.2608  1.8011  0.1026
 2147SOL     hw 8587   0.012   4.102   6.474  2.0258  0.6753  0.5295
 2147SOL     vw 8588   0.018   4.041   6.412  0.7179  0.4900  0.5648
 2148SOL     ow 8589   4.102   3.149   6.167 -0.0400  0.6313 -0.6164
 2148SOL     hw 8590   4.116   3.119   6.077  0.8923 -0.2774 -0.1976
 2148SOL     hw 8591   4.085   3.068   6.217 -1.3243  1.1899 -0.0984
 2148SOL     vw 8592   4.102   3.134   6.162 -0.0865  0.5851 -0.4928
 2149SOL     ow 8593   6.420   0.071   0.159 -0.1153  0.4796 -0.2147
 2149SOL     hw 8594   6.509   0.060   0.194 -0.5663 -0.0201  0.8263
 2149SOL     hw 8595   6.424   0.031   0.072  0.8591  1.1070 -0.4764
 2149SOL     vw 8596   6.433   0.064   0.152 -0.0463  0.4965 -0.1119
 2150SOL     ow 8597   5.460   0.953   3.230 -0.1844  0.5250 -0.0641
 2150SOL     hw 8598   5.410   0.933   3.151  0.8691 -0.0523 -0.6042
 2150SOL     hw 8599   5.546   0.980   3.198 -0.1707  1.6542  0.8414
 2150SOL     vw 8600   5.465   0.954   3.215 -0.0436  0.5978 -0.0159
 2151SOL     ow 8601   6.746   3.454   0.702  0.0439  0.2300  1.0758
 2151SOL     hw 8602   6.781   3.371   0.736  0.0353  0.0793  0.7244
 2151SOL     hw 8603   6.811   3.519   0.727  1.3803 -0.2673 -0.9007
 2151SOL     vw 8604   6.759   3.451   0.710  0.2193  0.1445  0.7687
 2152SOL     ow 8605   0.057   2.610   5.397 -0.1553  0.0344 -0.1919
 2152SOL     hw 8606   0.021   2.571   5.476 -1.1497 -0.3967 -0.8387
 2152SOL     hw 8607  -0.019   2.639   5.347  0.4999  1.3300 -0.4850
 2152SOL     vw 8608   0.042   2.608   5.401 -0.2001  0.1485 -0.3161
 2153SOL     ow 8609   3.725   4.934   6.553 -0.6667 -0.0093 -0.0387
 2153SOL     hw 8610   3.721   4.898   6.641  0.5980  0.0906  0.0854
 2153SOL     hw 8611   3.701   5.026   6.563 -2.0569 -0.3586 -0.0585
 2153SOL     vw 8612   3.721   4.942   6.566 -0.6831 -0.0424 -0.0248
 2154SOL     ow 8613   0.734   4.287   5.767  0.5555 -0.1157  0.3967
 2154SOL     hw 8614   0.797   4.254   5.832  1.7305 -3.0821 -1.9675
 2154SOL     hw 8615   0.789   4.320   5.696 -0.4752 -1.6498 -1.2087
 2154SOL     vw 8616   0.750   4.287   5.766  0.5746 -0.7098 -0.1268
 2155SOL     ow 8617   1.220   0.914   3.875  0.1819  0.0247  0.4873
 2155SOL     hw 8618   1.287   0.975   3.845  0.4742 -0.9414 -0.9124
 2155SOL     hw 8619   1.153   0.917   3.807  0.8383 -2.1855 -0.3693
 2155SOL     vw 8620   1.220   0.922   3.862  0.3071 -0.3944  0.1895
 2156SOL     ow 8621   5.419   3.078   0.392 -0.4209 -0.2105  0.1425
 2156SOL     hw 8622   5.506   3.059   0.355 -0.6024 -0.4325 -0.1710
 2156SOL     hw 8623   5.375   2.993   0.395 -0.1442 -0.3187  1.5764
 2156SOL     vw 8624   5.425   3.064   0.387 -0.4082 -0.2542  0.2903
 2157SOL     ow 8625   6.586   4.973   2.520 -0.7733  0.3968  0.0858
 2157SOL     hw 8626   6.631   4.946   2.600 -0.9180  2.3967  0.8789
 2157SOL     hw 8627   6.652   5.022   2.471 -1.5636  1.9620  0.5143
 2157SOL     vw 8628   6.601   4.976   2.524 -0.8967  0.8669  0.2470
 2158SOL     ow 8629   5.604   1.806   5.074 -0.4426  0.2305  0.0039
 2158SOL     hw 8630   5.593   1.856   5.155 -3.0222  0.1947 -0.2302
 2158SOL     hw 8631   5.586   1.715   5.100  0.0434  0.0241 -0.3658
 2158SOL     vw 8632   5.600   1.801   5.089 -0.7188  0.1985 -0.0758
 2159SOL     ow 8633   2.208   0.204   4.281 -0.1258 -0.4285 -0.3880
 2159SOL     hw 8634   2.220   0.160   4.197  1.7152 -3.2338  1.2310
 2159SOL     hw 8635   2.128   0.165   4.318  1.6629 -2.8968  1.1759
 2159SOL     vw 8636   2.199   0.193   4.275  0.3532 -1.1243  0.0319
 2160SOL     ow 8637   0.561   4.508   1.543  0.1453  0.9369  0.4524
 2160SOL     hw 8638   0.521   4.594   1.534 -1.4328  0.2674  0.7028
 2160SOL     hw 8639   0.500   4.448   1.500 -0.1508 -0.3731  2.5114
 2160SOL     vw 8640   0.548   4.512   1.536 -0.1020  0.6757  0.7571
 2161poe    c31 8641   4.992   2.113   5.918 -0.2971 -0.5349 -0.0557
 2161poe     o2 8642   5.064   2.214   5.985  0.0152 -0.6700 -0.1848
 2161poe    c23 8643   5.165   2.260   5.898 -0.0409  0.3087  0.2595
 2161poe    c23 8644   5.247   2.371   5.967 -0.1035  0.3429  0.2794
 2161poe     o2 8645   5.166   2.484   5.995 -0.6046  0.1687 -0.4322
 2161poe    c23 8646   5.231   2.601   5.953  0.2510 -0.3157 -0.4938
 2161poe    c23 8647   5.127   2.709   5.916  0.1758 -0.1331  0.2257
 2161poe     o2 8648   5.059   2.764   6.026  0.0233 -0.1822  0.1568
 2161poe    c23 8649   5.038   2.900   5.998  0.0713 -0.1652  0.2005
 2161poe    c23 8650   4.958   2.972   6.108 -0.1743  0.1127 -0.1594
 2161poe     o2 8651   4.819   2.966   6.132 -0.1038  0.0230  0.2295
 2161poe    c31 8652   4.765   3.076   6.203 -0.2808  0.3864 -0.4543
 2162poe    c31 8653   2.666   4.059   0.569 -0.6655  0.2738 -0.6717
 2162poe     o2 8654   2.661   3.971   0.679  0.7015  0.4832 -0.4293
 2162poe    c23 8655   2.762   3.873   0.677  0.1048 -0.1450  0.0319
 2162poe    c23 8656   2.708   3.740   0.734  0.2311 -0.1539  0.1320
 2162poe     o2 8657   2.614   3.668   0.657  0.0124  0.0396  0.2146
 2162poe    c23 8658   2.576   3.536   0.687  0.4288 -0.1131  0.0821
 2162poe    c23 8659   2.515   3.529   0.829  0.0108  0.7158 -0.0548
 2162poe     o2 8660   2.405   3.617   0.843 -0.8651 -0.3863  0.0848
 2162poe    c23 8661   2.322   3.583   0.952 -0.6170 -0.4204  0.2625
 2162poe    c23 8662   2.252   3.710   1.002  0.0286 -0.1765  0.5647
 2162poe     o2 8663   2.218   3.788   0.889 -0.1472 -0.3899  0.4691
 2162poe    c31 8664   2.125   3.883   0.937 -0.0335 -0.0860  0.0892
 2163poe    c31 8665   1.143   5.074   2.783  0.1248  0.7339 -0.2125
 2163poe     o2 8666   1.248   5.149   2.727  0.8186 -0.2986 -0.3199
 2163poe    c23 8667   1.203   5.265   2.661  0.3461 -0.5750 -0.4921
 2163poe    c23 8668   1.281   5.284   2.530  0.0156  0.6866 -0.5206
 2163poe     o2 8669   1.276   5.180   2.436 -0.2985  0.1365  0.0973
 2163poe    c23 8670   1.321   5.221   2.308 -0.6488  0.0278 -0.0612
 2163poe    c23 8671   1.330   5.103   2.209  0.0189  0.2163 -0.2285
 2163poe     o2 8672   1.359   4.987   2.284  0.2312  0.3298 -0.1351
 2163poe    c23 8673   1.389   4.872   2.209  0.1730  0.1554  0.1074
 2163poe    c23 8674   1.397   4.752   2.305  0.0034 -0.0020 -0.0750
 2163poe     o2 8675   1.276   4.734   2.375  0.2303  0.6979  0.5048
 2163poe    c31 8676   1.274   4.635   2.475 -0.2191  0.6499  0.4509
 2164poe    c31 8677   2.440   6.547   2.181  0.0656  0.2804 -0.7524
 2164poe     o2 8678   2.363   6.454   2.108 -0.0091 -0.3297  0.0884
 2164poe    c23 8679   2.420   6.328   2.139  0.1590 -0.2348  0.1670
 2164poe    c23 8680   2.323   6.216   2.095 -0.0765  0.0334 -0.0074
 2164poe     o2 8681   2.215   6.189   2.182 -0.0023 -0.0226  0.0676
 2164poe    c23 8682   2.162   6.065   2.139  0.5790 -0.1446 -0.3169
 2164poe    c23 8683   2.036   6.028   2.219  0.6170  0.1949 -0.0997
 2164poe     o2 8684   1.944   6.135   2.210  0.0274 -0.3038 -0.0958
 2164poe    c23 8685   1.822   6.103   2.272 -0.0107  0.4235  0.2226
 2164poe    c23 8686   1.705   6.198   2.242 -0.1092  0.1737 -0.1910
 2164poe     o2 8687   1.718   6.321   2.309  0.7429 -0.0258  0.0279
 2164poe    c31 8688   1.614   6.384   2.236  0.5368 -0.6267 -0.2038
 2165poe    c31 8689   5.705   4.621   3.996  0.3133 -0.0293  0.3453
 2165poe     o2 8690   5.782   4.520   4.056  0.8383  0.3609  0.3361
 2165poe    c23 8691   5.727   4.479   4.179  0.0744  0.0711 -0.0966
 2165poe    c23 8692   5.821   4.422   4.287  0.1839  0.3681 -0.0337
 2165poe     o2 8693   5.891   4.310   4.238 -0.2647 -0.0458  0.2573
 2165poe    c23 8694   6.000   4.282   4.324 -0.1139  0.1439  0.1278
 2165poe    c23 8695   6.090   4.163   4.285  0.1846  0.3379  0.2192
 2165poe     o2 8696   6.013   4.044   4.282  0.2377  0.3119 -0.1298
 2165poe    c23 8697   6.092   3.939   4.231  0.0253  0.1991 -0.2244
 2165poe    c23 8698   6.009   3.809   4.240  0.2068  0.0919 -0.0898
 2165poe     o2 8699   5.901   3.805   4.149  0.2719 -0.1024 -0.1586
 2165poe    c31 8700   5.826   3.686   4.159  0.1457 -0.0648 -0.6407
 2166poe    c31 8701   5.229   1.858   3.485 -0.1022  0.1750 -0.1513
 2166poe     o2 8702   5.272   1.923   3.603  0.2374 -0.1416 -0.0978
 2166poe    c23 8703   5.394   1.860   3.635 -0.0841 -0.5003  0.4441
 2166poe    c23 8704   5.465   1.939   3.747 -0.2104  0.2064  0.0313
 2166poe     o2 8705   5.386   1.939   3.863 -0.1248 -0.0606  0.0917
 2166poe    c23 8706   5.443   1.991   3.981  0.1249 -0.3611  0.1015
 2166poe    c23 8707   5.335   1.988   4.091 -0.2499  0.3930 -0.2421
 2166poe     o2 8708   5.223   2.066   4.058 -0.1571  0.4243 -0.4873
 2166poe    c23 8709   5.139   2.067   4.171 -0.3107 -0.5379 -0.5889
 2166poe    c23 8710   5.022   2.164   4.149  0.2283  0.3019  0.1459
 2166poe     o2 8711   5.070   2.292   4.181 -0.0418  0.4782 -0.1452
 2166poe    c31 8712   4.964   2.385   4.167 -0.1265  0.4413  0.2520
 2167poe    c31 8713   3.937   5.144   6.340  0.6913 -0.0329 -0.6836
 2167poe     o2 8714   4.035   5.245   6.327  0.2780  0.4958  0.2108
 2167poe    c23 8715   3.998   5.377   6.292  0.7814  0.5191 -0.2557
 2167poe    c23 8716   4.045   5.407   6.149 -0.2189  0.1437 -0.6699
 2167poe     o2 8717   4.184   5.418   6.128 -0.1650  0.0647 -0.3519
 2167poe    c23 8718   4.234   5.421   5.997  0.2414  0.0225 -0.2014
 2167poe    c23 8719   4.387   5.418   5.989  0.2246 -0.3099 -0.4509
 2167poe     o2 8720   4.439   5.542   6.032  0.1328 -0.3912 -0.1016
 2167poe    c23 8721   4.570   5.568   5.985  0.2171 -0.5629  0.0359
 2167poe    c23 8722   4.640   5.696   6.036 -0.0150 -0.2265 -0.4833
 2167poe     o2 8723   4.592   5.818   5.985 -0.4009  0.0757  0.5675
 2167poe    c31 8724   4.650   5.936   6.037 -0.4903  0.0322  0.7640
 2168poe    c31 8725   0.593   0.753   1.679  0.1203  0.1185  0.0865
 2168poe     o2 8726   0.499   0.832   1.610 -0.3426 -0.1985  0.3526
 2168poe    c23 8727   0.471   0.780   1.482  0.1324 -0.0130  0.1748
 2168poe    c23 8728   0.540   0.864   1.373 -0.1734 -0.2479 -0.2012
 2168poe     o2 8729   0.678   0.886   1.393 -0.2032 -0.5260  0.3118
 2168poe    c23 8730   0.766   0.783   1.354  0.0324 -0.0752 -0.3600
 2168poe    c23 8731   0.913   0.827   1.360  0.1751 -0.5404 -0.4243
 2168poe     o2 8732   0.944   0.927   1.266  0.2818 -0.1697  0.0035
 2168poe    c23 8733   1.056   1.001   1.309  0.6569 -0.6352 -0.1633
 2168poe    c23 8734   1.073   1.134   1.234 -0.6988 -0.0790  0.4643
 2168poe     o2 8735   0.966   1.225   1.249 -0.2581  0.4852  0.2580
 2168poe    c31 8736   0.999   1.360   1.226  1.1731  0.0490 -0.3561
 2169poe    c31 8737   0.984   2.535   2.019 -0.2628  0.1313 -0.5356
 2169poe     o2 8738   1.024   2.411   1.964  0.2079  0.2283 -0.4207
 2169poe    c23 8739   1.154   2.373   2.001  0.0476  0.0989  0.0054
 2169poe    c23 8740   1.178   2.228   1.956  0.0999  0.0788  0.0973
 2169poe     o2 8741   1.108   2.229   1.834 -0.1927 -0.0056  0.2649
 2169poe    c23 8742   1.127   2.113   1.756 -0.1767  0.1592  0.0223
 2169poe    c23 8743   1.047   2.112   1.625  0.3953 -0.0095 -0.3290
 2169poe     o2 8744   0.917   2.153   1.661  0.6410  0.4461  0.0426
 2169poe    c23 8745   0.821   2.075   1.594  0.6987  0.4122 -0.0005
 2169poe    c23 8746   0.687   2.150   1.600  0.4281 -0.1034  0.5595
 2169poe     o2 8747   0.689   2.286   1.562 -0.0888 -0.3077 -0.2225
 2169poe    c31 8748   0.690   2.290   1.421  0.2406 -0.2410 -0.2181
 2170poe    c31 8749   3.702   4.732   6.864  0.4169  0.0910 -0.6479
 2170poe     o2 8750   3.712   4.863   6.813  0.2398  0.3905  0.0750
 2170poe    c23 8751   3.632   4.949   6.891  0.3904 -0.0971  0.7847
 2170poe    c23 8752   3.630   5.095   6.842  0.1736 -0.2868  0.2175
 2170poe     o2 8753   3.586   5.111   6.709 -0.0807  0.0061  0.3337
 2170poe    c23 8754   3.587   5.246   6.670  0.1252 -0.1020 -0.0415
 2170poe    c23 8755   3.519   5.272   6.534  0.1797  0.0159 -0.0457
 2170poe     o2 8756   3.585   5.192   6.439  0.1868  0.1112 -0.1212
 2170poe    c23 8757   3.499   5.199   6.327  0.0504  0.8357  0.0221
 2170poe    c23 8758   3.554   5.163   6.188  0.4029  0.2105  0.3205
 2170poe     o2 8759   3.596   5.028   6.189 -0.3109 -0.0255 -0.4051
 2170poe    c31 8760   3.663   5.020   6.065  0.0975 -0.2071 -0.1762
 2171poe    c31 8761   5.259   2.425   2.795 -0.2548 -0.0679 -0.2159
 2171poe     o2 8762   5.326   2.301   2.790 -0.0102  0.0777 -0.5460
 2171poe    c23 8763   5.458   2.300   2.839 -0.2917 -0.5437  0.2073
 2171poe    c23 8764   5.499   2.151   2.846  0.6755 -0.2770  0.3088
 2171poe     o2 8765   5.386   2.083   2.894 -0.3714  0.3410 -1.2111
 2171poe    c23 8766   5.416   1.946   2.908 -0.6355  0.3751 -0.1899
 2171poe    c23 8767   5.322   1.869   3.003 -0.0801 -0.4059 -0.2591
 2171poe     o2 8768   5.194   1.862   2.945 -0.0016 -0.0015 -0.4856
 2171poe    c23 8769   5.092   1.844   3.041 -0.0918 -0.2429 -0.6260
 2171poe    c23 8770   4.952   1.855   2.979 -0.3819 -0.2896  0.0194
 2171poe     o2 8771   4.918   1.992   2.968 -0.3785 -0.2833  0.0848
 2171poe    c31 8772   4.783   1.997   2.929 -0.3473  0.4588  0.0651
 2172poe    c31 8773   5.833   1.160   3.869  0.0822 -0.0668  0.0580
 2172poe     o2 8774   5.880   1.220   3.988  0.8168  0.2678 -0.3916
 2172poe    c23 8775   5.936   1.347   3.966  0.0365  0.6902  0.0201
 2172poe    c23 8776   5.965   1.420   4.098  0.2336 -0.0012  0.3650
 2172poe     o2 8777   5.844   1.456   4.162  0.0065 -0.3960  0.1584
 2172poe    c23 8778   5.876   1.519   4.284  0.1232  0.0265 -0.0891
 2172poe    c23 8779   5.739   1.565   4.338  0.2283 -0.4189  0.5669
 2172poe     o2 8780   5.646   1.460   4.348  0.0825 -0.4207 -0.6464
 2172poe    c23 8781   5.525   1.498   4.409  0.0993 -0.6355 -0.4777
 2172poe    c23 8782   5.427   1.379   4.418  0.0837 -0.6078 -0.2588
 2172poe     o2 8783   5.465   1.288   4.317  0.1745 -0.1508 -0.6437
 2172poe    c31 8784   5.352   1.210   4.284  0.1290 -0.4332  0.1632
 2173poe    c31 8785   5.359   6.897   2.736  0.4272  0.2900  0.1544
 2173poe     o2 8786   5.271   6.953   2.830 -0.4055 -0.2910 -0.2687
 2173poe    c23 8787   5.138   6.926   2.790 -0.4438  0.2078 -0.4938
 2173poe    c23 8788   5.033   6.953   2.899  0.4552  0.3668  0.3483
 2173poe     o2 8789   5.046   6.857   3.002  0.4015  0.3550  0.3442
 2173poe    c23 8790   4.964   6.890   3.112 -0.3965 -0.0464 -0.1233
 2173poe    c23 8791   4.984   6.802   3.237  0.3504 -0.5533 -0.5896
 2173poe     o2 8792   5.119   6.830   3.268  0.0708  0.2497 -0.0640
 2173poe    c23 8793   5.160   6.740   3.368 -0.6731  0.4546  0.4356
 2173poe    c23 8794   5.314   6.736   3.376 -0.6657 -0.3273 -0.0504
 2173poe     o2 8795   5.388   6.689   3.266 -0.1242  0.1069  0.1249
 2173poe    c31 8796   5.522   6.676   3.309 -0.1333  0.4035  0.2433
 2174poe    c31 8797   4.016   5.023   2.573  0.1844  0.0127  0.3221
 2174poe     o2 8798   3.954   5.100   2.473 -0.3790  0.0208  0.6760
 2174poe    c23 8799   3.925   5.016   2.364  0.2282  0.1433  0.4186
 2174poe    c23 8800   3.805   5.062   2.279  0.1527  0.4935  0.7139
 2174poe     o2 8801   3.818   5.200   2.251  0.0835  0.3536 -0.0337
 2174poe    c23 8802   3.728   5.249   2.154  0.2154  0.0859 -0.2920
 2174poe    c23 8803   3.697   5.395   2.190 -0.4302 -0.1261  0.0247
 2174poe     o2 8804   3.821   5.457   2.213 -0.4319 -0.0212 -0.2480
 2174poe    c23 8805   3.833   5.591   2.169 -0.6560  0.0826  0.0040
 2174poe    c23 8806   3.949   5.664   2.238 -0.0510 -0.0960 -0.8035
 2174poe     o2 8807   4.074   5.656   2.173  0.2890 -0.2157 -0.1547
 2174poe    c31 8808   4.161   5.750   2.230  0.2059 -0.1363 -0.1576
 2175poe    c31 8809   4.308   6.329   3.829 -0.0368 -0.1236  0.4210
 2175poe     o2 8810   4.304   6.389   3.701  0.0992 -0.2788  0.3450
 2175poe    c23 8811   4.427   6.360   3.637 -0.1471 -0.7630  0.0826
 2175poe    c23 8812   4.447   6.458   3.520 -0.2887  0.2886  0.9255
 2175poe     o2 8813   4.337   6.474   3.433  0.7493 -0.0079 -0.4603
 2175poe    c23 8814   4.309   6.358   3.357 -0.1404 -0.0303 -0.1005
 2175poe    c23 8815   4.388   6.342   3.226  0.1409 -0.0393  0.0696
 2175poe     o2 8816   4.352   6.441   3.132  0.2476 -0.0042  0.0659
 2175poe    c23 8817   4.445   6.464   3.028 -0.1038 -0.1309 -0.2798
 2175poe    c23 8818   4.420   6.600   2.960 -0.2572 -0.1463 -0.2532
 2175poe     o2 8819   4.431   6.713   3.044  0.3154 -0.2214 -0.2250
 2175poe    c31 8820   4.562   6.765   3.051  0.2146 -0.0308  0.3558
 2176poe    c31 8821   5.455   1.671   0.911 -0.3017 -0.0263 -0.0639
 2176poe     o2 8822   5.422   1.545   0.965  0.1413 -0.3630 -0.5714
 2176poe    c23 8823   5.312   1.502   0.888 -0.2673 -0.2605 -0.0530
 2176poe    c23 8824   5.284   1.352   0.904  0.0380 -0.2730  0.3659
 2176poe     o2 8825   5.387   1.268   0.856 -0.1657 -0.0302 -0.5132
 2176poe    c23 8826   5.332   1.142   0.889  0.1653 -0.0168  0.1014
 2176poe    c23 8827   5.400   1.018   0.829  0.2976 -0.1619  0.5451
 2176poe     o2 8828   5.521   0.986   0.894  0.2860  0.1443  0.7205
 2176poe    c23 8829   5.603   0.947   0.786 -0.6379  0.0634  0.0363
 2176poe    c23 8830   5.742   0.894   0.825 -0.6273  0.1942  0.1765
 2176poe     o2 8831   5.832   0.980   0.891  0.1756 -0.3296 -0.2247
 2176poe    c31 8832   5.963   0.927   0.898  0.3431  0.1299  0.1432
 2177poe    c31 8833   5.848   2.132   2.201 -0.2099 -0.5090 -0.2335
 2177poe     o2 8834   5.824   2.248   2.124 -0.1466 -0.4738 -0.1998
 2177poe    c23 8835   5.936   2.321   2.081 -0.1443 -0.5813 -0.3763
 2177poe    c23 8836   5.884   2.445   2.005  0.0007 -0.1602  0.2028
 2177poe     o2 8837   5.799   2.419   1.895  0.2135 -0.1327  0.0290
 2177poe    c23 8838   5.752   2.546   1.856 -0.1816 -0.3155 -0.0963
 2177poe    c23 8839   5.673   2.524   1.726  0.5346 -0.0358 -0.5844
 2177poe     o2 8840   5.570   2.429   1.742  0.4733  0.0567 -0.4211
 2177poe    c23 8841   5.497   2.430   1.620 -0.5071  0.0684  0.1538
 2177poe    c23 8842   5.399   2.312   1.620 -0.1970 -0.1894  0.0180
 2177poe     o2 8843   5.464   2.188   1.638 -0.0717 -0.0508  0.5444
 2177poe    c31 8844   5.380   2.077   1.658  0.0345 -0.2974 -0.3328
 2178poe    c31 8845   4.531   2.055   1.550  0.4940 -0.2060  0.2905
 2178poe     o2 8846   4.630   2.023   1.455  0.0913 -0.7432  0.0513
 2178poe    c23 8847   4.757   2.044   1.512  0.1543  0.5654 -0.5382
 2178poe    c23 8848   4.862   1.966   1.430 -0.0122  0.1467 -0.3545
 2178poe     o2 8849   4.911   2.037   1.319 -0.0480  0.2191 -0.3241
 2178poe    c23 8850   5.007   1.966   1.245 -0.0820 -0.5696  0.3717
 2178poe    c23 8851   5.145   1.993   1.308 -0.0556  0.2028 -0.0057
 2178poe     o2 8852   5.173   2.131   1.315 -0.2859  0.2168  0.7472
 2178poe    c23 8853   5.313   2.142   1.300 -0.3958 -0.2367 -0.8466
 2178poe    c23 8854   5.372   2.268   1.234  0.2176 -0.0345  0.0651
 2178poe     o2 8855   5.341   2.305   1.101  0.5715  0.7416  0.1931
 2178poe    c31 8856   5.412   2.239   0.998 -0.1289  0.5677 -0.1825
 2179poe    c31 8857   5.884   0.263   4.755 -0.0424  0.0445 -0.2286
 2179poe     o2 8858   5.780   0.180   4.707  0.0466 -0.1860 -0.0271
 2179poe    c23 8859   5.672   0.250   4.650  0.0493  0.0850  0.2986
 2179poe    c23 8860   5.545   0.290   4.727 -0.2810  0.4108 -0.3994
 2179poe     o2 8861   5.566   0.393   4.821  0.0384 -0.1255  0.1291
 2179poe    c23 8862   5.459   0.402   4.912 -0.2524 -0.4584 -0.1757
 2179poe    c23 8863   5.378   0.532   4.893 -0.1600 -0.3306  0.2812
 2179poe     o2 8864   5.461   0.644   4.876 -0.7474 -0.0100 -0.5322
 2179poe    c23 8865   5.429   0.751   4.963  0.3545  0.1098 -0.2658
 2179poe    c23 8866   5.525   0.868   4.932  0.0708  0.4783  0.2417
 2179poe     o2 8867   5.654   0.812   4.937 -0.1611 -0.0669  0.2638
 2179poe    c31 8868   5.754   0.903   4.896 -0.5834  0.1119 -0.3856
 2180poe    c31 8869   0.393   5.633   5.345  0.3722  0.2096 -0.2678
 2180poe     o2 8870   0.429   5.597   5.476  0.2185 -0.0890 -0.3068
 2180poe    c23 8871   0.379   5.694   5.565 -0.2390 -0.6672  0.0673
 2180poe    c23 8872   0.418   5.664   5.711  0.1692  0.0774  0.1149
 2180poe     o2 8873   0.392   5.530   5.746  0.3783  0.1945  0.7327
 2180poe    c23 8874   0.450   5.491   5.869 -0.2344 -0.3419  0.8592
 2180poe    c23 8875   0.429   5.342   5.900 -0.2155 -0.4381  0.4246
 2180poe     o2 8876   0.503   5.253   5.820  0.2343  0.3296 -0.0250
 2180poe    c23 8877   0.486   5.119   5.860  0.2376  0.4571  0.4026
 2180poe    c23 8878   0.534   5.020   5.752 -0.3911 -0.5332  1.0088
 2180poe     o2 8879   0.669   5.034   5.714 -0.6853  0.0640  0.1505
 2180poe    c31 8880   0.758   4.980   5.809 -0.0536  0.8411  0.0093
 2181poe    c31 8881   3.247   5.826   2.749 -0.5628  0.0562  0.5769
 2181poe     o2 8882   3.291   5.938   2.821 -0.3812  0.2544  0.1645
 2181poe    c23 8883   3.181   6.016   2.861 -0.6974 -0.1484  0.0878
 2181poe    c23 8884   3.194   6.151   2.935  0.2639 -0.0262 -0.2879
 2181poe     o2 8885   3.246   6.265   2.870 -0.0539  0.2300 -0.0991
 2181poe    c23 8886   3.168   6.314   2.763  0.0234 -0.4294 -0.4644
 2181poe    c23 8887   3.240   6.403   2.660  0.1106  0.0204 -0.0165
 2181poe     o2 8888   3.301   6.514   2.722  0.0808  0.0313 -0.0073
 2181poe    c23 8889   3.386   6.566   2.622  0.1124 -0.0282 -0.0113
 2181poe    c23 8890   3.446   6.694   2.681  0.3360 -0.3960  0.5704
 2181poe     o2 8891   3.518   6.660   2.797  0.7114 -0.3942  0.3385
 2181poe    c31 8892   3.540   6.777   2.873  0.0060  0.1803 -0.3236
 2182poe    c31 8893   0.452   4.606   3.003 -0.1944 -0.8710 -0.1224
 2182poe     o2 8894   0.513   4.622   2.877 -0.2030 -0.0341 -0.0211
 2182poe    c23 8895   0.443   4.552   2.776  0.0425 -0.2501 -0.0417
 2182poe    c23 8896   0.486   4.573   2.630 -0.7676 -0.4124 -0.3089
 2182poe     o2 8897   0.478   4.704   2.577 -0.5728 -0.1118  0.3892
 2182poe    c23 8898   0.454   4.701   2.438 -0.2437  0.0692  0.3276
 2182poe    c23 8899   0.460   4.843   2.379 -0.0366 -0.0044  0.1742
 2182poe     o2 8900   0.572   4.914   2.426  0.0308  0.2216 -0.3214
 2182poe    c23 8901   0.547   5.052   2.410 -0.0695  0.2776  0.3125
 2182poe    c23 8902   0.666   5.139   2.457 -0.4339  0.3947  1.0256
 2182poe     o2 8903   0.686   5.112   2.594 -0.3946 -0.4466  0.8589
 2182poe    c31 8904   0.811   5.155   2.643 -0.4731  0.4733  0.2696
 2183poe    c31 8905   5.819   4.008   0.146 -0.0398  0.0103 -0.3768
 2183poe     o2 8906   5.921   4.106   0.143  0.3220 -0.3617 -0.2794
 2183poe    c23 8907   5.863   4.200   0.055 -0.6840 -0.0489  0.6883
 2183poe    c23 8908   5.943   4.331   0.061 -0.1070 -0.3626  0.0383
 2183poe     o2 8909   5.943   4.372   0.196  0.2627 -0.2895  0.0184
 2183poe    c23 8910   6.047   4.457   0.236  0.0807 -0.1781  0.2584
 2183poe    c23 8911   6.027   4.497   0.384  0.1351 -0.3437  0.3112
 2183poe     o2 8912   6.024   4.389   0.474 -0.0759 -0.3399  0.3085
 2183poe    c23 8913   6.036   4.441   0.605 -0.0132  0.6279 -0.0686
 2183poe    c23 8914   6.080   4.313   0.679 -0.2055  0.5673 -0.0598
 2183poe     o2 8915   6.045   4.192   0.615 -0.4119  0.3479  0.4630
 2183poe    c31 8916   6.097   4.090   0.696  0.2903  0.0620 -0.3350
 2184poe    c31 8917   4.579   1.714   1.451  0.1449  0.2264  0.3416
 2184poe     o2 8918   4.605   1.613   1.545  0.3349 -0.1094 -0.0659
 2184poe    c23 8919   4.672   1.507   1.481 -1.1892 -0.7529 -0.6624
 2184poe    c23 8920   4.702   1.391   1.578 -0.1817 -0.0756 -0.1403
 2184poe     o2 8921   4.586   1.330   1.629  0.0894 -0.5398 -0.0739
 2184poe    c23 8922   4.618   1.256   1.745 -0.8218 -0.1276  0.4542
 2184poe    c23 8923   4.625   1.103   1.724 -0.0566 -0.0791  0.3281
 2184poe     o2 8924   4.496   1.056   1.692  0.0576  0.0525 -0.3512
 2184poe    c23 8925   4.501   0.926   1.636  0.4149  0.0357 -0.2824
 2184poe    c23 8926   4.466   0.911   1.487 -0.0620 -0.3774 -0.1332
 2184poe     o2 8927   4.343   0.976   1.465  0.2835  0.5320  0.5394
 2184poe    c31 8928   4.365   1.013   1.331 -0.0813 -0.0477  0.3159
 2185poe    c31 8929   1.259   3.292   4.051 -0.1734 -0.0470 -0.1442
 2185poe     o2 8930   1.142   3.357   4.093  0.1055  0.1056  0.3999
 2185poe    c23 8931   1.123   3.338   4.232 -0.1130  0.1007  0.3693
 2185poe    c23 8932   1.008   3.240   4.264 -0.0117 -0.2096 -0.1932
 2185poe     o2 8933   0.885   3.299   4.228  0.0326  0.0541  0.0796
 2185poe    c23 8934   0.792   3.193   4.225  0.2678 -0.1346 -0.8228
 2185poe    c23 8935   0.651   3.241   4.183  0.0391 -0.1816 -0.1175
 2185poe     o2 8936   0.673   3.320   4.068  0.1489 -0.2417 -0.1385
 2185poe    c23 8937   0.545   3.367   4.034  0.1694 -0.1790 -0.1269
 2185poe    c23 8938   0.555   3.463   3.913  0.4123 -0.6002 -0.4456
 2185poe     o2 8939   0.667   3.547   3.928  0.1069 -0.2396 -0.1399
 2185poe    c31 8940   0.711   3.620   3.816 -0.0500 -0.1667 -0.1538
 2186poe    c31 8941   1.911   6.882   6.253 -0.0181 -0.0474 -0.4091
 2186poe     o2 8942   1.816   6.808   6.328 -0.0120 -0.1177 -0.4706
 2186poe    c23 8943   1.895   6.726   6.410 -0.5159  0.3488  0.4929
 2186poe    c23 8944   1.805   6.615   6.468  0.1044 -0.2427  0.3296
 2186poe     o2 8945   1.718   6.557   6.374 -0.3905  0.3514  0.4193
 2186poe    c23 8946   1.625   6.471   6.438  0.0027 -0.6711 -0.3513
 2186poe    c23 8947   1.509   6.448   6.339 -0.2464  0.0908 -0.2444
 2186poe     o2 8948   1.569   6.413   6.216 -0.0968  0.4568 -0.2785
 2186poe    c23 8949   1.459   6.398   6.129 -0.3245 -0.2974  0.1264
 2186poe    c23 8950   1.531   6.370   5.996 -0.2414  0.1177  0.0813
 2186poe     o2 8951   1.628   6.471   5.977 -0.0945 -0.0237  0.0801
 2186poe    c31 8952   1.703   6.443   5.861  0.3647 -0.4637  0.4791
 2187poe    c31 8953   6.791   2.178   2.853  0.1897  0.0976  0.5067
 2187poe     o2 8954   6.847   2.303   2.886  0.2602  0.0933  0.4055
 2187poe    c23 8955   6.892   2.343   2.758 -0.5205  0.0426  0.1132
 2187poe    c23 8956   6.922   2.492   2.777  0.4302 -0.1288 -0.0101
 2187poe     o2 8957   6.810   2.569   2.742  0.3384 -0.2544  0.0065
 2187poe    c23 8958   6.857   2.694   2.694 -0.0539  0.0602  0.4345
 2187poe    c23 8959   6.755   2.809   2.696 -0.3149 -0.1725  0.7764
 2187poe     o2 8960   6.653   2.781   2.602  0.2552  0.1430  0.0509
 2187poe    c23 8961   6.541   2.861   2.633  0.1264 -0.0777  0.1577
 2187poe    c23 8962   6.429   2.841   2.528  0.1383  0.0341  0.1237
 2187poe     o2 8963   6.417   2.703   2.504  0.1404  0.1586 -0.6183
 2187poe    c31 8964   6.308   2.673   2.420 -0.2703 -0.1472  0.0107
 2188poe    c31 8965   5.474   0.722   5.441 -0.1646 -0.0669  0.5900
 2188poe     o2 8966   5.591   0.795   5.468  0.1304 -0.2960 -0.0486
 2188poe    c23 8967   5.638   0.825   5.339 -0.1372  0.2823 -0.0160
 2188poe    c23 8968   5.776   0.892   5.356  0.1254 -0.2331 -0.1034
 2188poe     o2 8969   5.755   1.000   5.444  0.5969 -0.8163  0.7410
 2188poe    c23 8970   5.855   1.099   5.444  0.0068 -0.2088  0.6369
 2188poe    c23 8971   5.820   1.234   5.508  0.2447  0.2708 -0.2195
 2188poe     o2 8972   5.772   1.233   5.641  0.0503  0.2524 -0.2891
 2188poe    c23 8973   5.881   1.226   5.731  0.0911 -0.1017 -0.3639
 2188poe    c23 8974   5.827   1.218   5.875  0.6892 -0.0531 -0.1338
 2188poe     o2 8975   5.742   1.106   5.889  0.2084  0.3309  0.0611
 2188poe    c31 8976   5.734   1.075   6.026  0.2380 -0.3799 -0.0958
 2189poe    c31 8977   4.448   1.243   2.227 -0.2554  0.4522  0.3243
 2189poe     o2 8978   4.502   1.171   2.335  0.1967 -0.1202 -0.2749
 2189poe    c23 8979   4.572   1.066   2.273  0.2547 -0.3275  0.1395
 2189poe    c23 8980   4.611   0.981   2.396 -0.1375 -0.0403  0.4646
 2189poe     o2 8981   4.672   1.071   2.485 -0.0093  0.1366  0.1999
 2189poe    c23 8982   4.758   1.001   2.572  0.2754  0.1088 -0.1022
 2189poe    c23 8983   4.795   1.093   2.689  0.4941 -0.1961  0.0703
 2189poe     o2 8984   4.682   1.115   2.771  0.4109 -0.0750 -0.0775
 2189poe    c23 8985   4.706   1.214   2.868 -0.1291 -0.1131  0.0944
 2189poe    c23 8986   4.580   1.229   2.957 -0.1749  0.8985 -0.1248
 2189poe     o2 8987   4.473   1.240   2.867 -0.1337  0.4769 -0.2316
 2189poe    c31 8988   4.355   1.284   2.931  0.1784 -0.1322  0.7636
 2190poe    c31 8989   0.574   3.837   5.661 -0.5461 -0.6526 -0.5251
 2190poe     o2 8990   0.473   3.907   5.592 -0.2913 -0.3105 -0.5500
 2190poe    c23 8991   0.349   3.864   5.642 -0.1230  0.2605  0.3779
 2190poe    c23 8992   0.235   3.939   5.571 -0.5356 -0.2902  0.4505
 2190poe     o2 8993   0.238   4.077   5.597 -0.0272 -0.2436  0.1486
 2190poe    c23 8994   0.154   4.151   5.511  0.2837 -0.1743 -0.0973
 2190poe    c23 8995   0.169   4.303   5.537  0.1322 -0.2465  0.4196
 2190poe     o2 8996   0.298   4.358   5.532  0.0738 -0.1741 -0.5132
 2190poe    c23 8997   0.290   4.498   5.547  0.1796 -0.1867 -0.3429
 2190poe    c23 8998   0.426   4.568   5.567 -0.3500  0.5849  0.7261
 2190poe     o2 8999   0.500   4.525   5.679  0.0561  0.3099  0.3575
 2190poe    c31 9000   0.629   4.581   5.671  0.2563 -0.2547 -0.4991
 2191poe    c31 9001   1.400   5.780   5.391 -0.1990 -0.6334  0.2001
 2191poe     o2 9002   1.467   5.726   5.502 -0.1102 -0.3131  0.3030
 2191poe    c23 9003   1.548   5.823   5.565 -0.2231 -0.2033  0.2788
 2191poe    c23 9004   1.646   5.751   5.660  0.2499  0.3735  0.2319
 2191poe     o2 9005   1.566   5.679   5.751  0.1147  0.7444  0.4107
 2191poe    c23 9006   1.622   5.568   5.817 -0.2188  0.3959  0.1156
 2191poe    c23 9007   1.516   5.500   5.905 -0.4101  0.1175 -0.3278
 2191poe     o2 9008   1.412   5.448   5.825 -0.1839 -0.1035 -0.4802
 2191poe    c23 9009   1.292   5.418   5.891  0.0851  0.6686  0.3837
 2191poe    c23 9010   1.193   5.342   5.800  0.4030  0.5600  0.1271
 2191poe     o2 9011   1.228   5.209   5.769 -0.0398  0.5185 -0.2023
 2191poe    c31 9012   1.118   5.141   5.714  0.7285 -0.1207 -0.9616
 2192poe    c31 9013   4.449   1.831   5.157  0.0773  0.6573  0.2300
 2192poe     o2 9014   4.414   1.804   5.023  0.4656  0.0370  0.2456
 2192poe    c23 9015   4.507   1.728   4.950 -0.2915 -0.1353 -0.5548
 2192poe    c23 9016   4.433   1.669   4.828 -0.7143 -0.0493 -0.3430
 2192poe     o2 9017   4.396   1.761   4.729  0.4755  0.2964 -0.4833
 2192poe    c23 9018   4.281   1.716   4.661  0.1259  0.2151  0.1552
 2192poe    c23 9019   4.236   1.816   4.553 -0.1397 -0.3184 -0.2338
 2192poe     o2 9020   4.335   1.815   4.454 -0.1825  0.2808 -0.2863
 2192poe    c23 9021   4.333   1.931   4.374  0.4503  0.0012 -0.7267
 2192poe    c23 9022   4.464   1.937   4.294  0.6901  0.6790 -0.2954
 2192poe     o2 9023   4.579   1.950   4.375  0.2591 -0.2640  0.4974
 2192poe    c31 9024   4.665   2.048   4.322  0.9113 -1.1744 -0.1735
 2193poe    c31 9025   1.229   3.688   2.927  0.5366 -0.4474 -1.0454
 2193poe     o2 9026   1.330   3.632   3.008 -0.1263 -0.5838 -0.2967
 2193poe    c23 9027   1.287   3.548   3.112 -0.0211 -0.2093  0.0508
 2193poe    c23 9028   1.394   3.513   3.217  0.2284 -0.1980 -0.1983
 2193poe     o2 9029   1.445   3.622   3.292 -0.4686 -0.1032  0.1509
 2193poe    c23 9030   1.556   3.582   3.370  0.2131  0.1835 -0.6461
 2193poe    c23 9031   1.690   3.641   3.325  0.3030 -0.0107 -0.6349
 2193poe     o2 9032   1.702   3.779   3.355 -0.4656 -0.1350  0.2815
 2193poe    c23 9033   1.839   3.810   3.353 -0.5199  0.0842 -0.4561
 2193poe    c23 9034   1.862   3.955   3.397 -0.2422 -0.1107  0.0510
 2193poe     o2 9035   1.800   4.032   3.296  0.4844  0.3409 -0.0684
 2193poe    c31 9036   1.776   4.155   3.360 -0.0544  0.2329 -0.0491
 2194poe    c31 9037   1.230   5.373   3.594  0.4507  0.3897 -0.7511
 2194poe     o2 9038   1.266   5.447   3.709  0.1798 -0.2850 -0.2310
 2194poe    c23 9039   1.220   5.580   3.698  0.5111 -0.1289  0.2498
 2194poe    c23 9040   1.315   5.683   3.634  0.1024  0.3560  0.4282
 2194poe     o2 9041   1.434   5.680   3.710  0.4477 -0.2813 -0.1384
 2194poe    c23 9042   1.508   5.794   3.675  0.3285 -0.0911  0.2290
 2194poe    c23 9043   1.635   5.804   3.761  0.5258  0.4313 -0.1122
 2194poe     o2 9044   1.729   5.699   3.752 -0.0809 -0.0868 -0.5705
 2194poe    c23 9045   1.853   5.737   3.808 -0.4411 -0.1051  0.2633
 2194poe    c23 9046   1.956   5.623   3.812  0.0068  0.2946  0.1918
 2194poe     o2 9047   1.928   5.519   3.903  0.0888 -0.3251 -0.4805
 2194poe    c31 9048   2.019   5.413   3.886  0.1979 -0.3686  0.3492
 2195poe    c31 9049   4.558   5.034   3.826 -0.3852  0.3995  0.4386
 2195poe     o2 9050   4.641   5.101   3.917  0.4535  0.1725 -0.1444
 2195poe    c23 9051   4.653   5.033   4.040 -0.5257  0.5265  0.1572
 2195poe    c23 9052   4.718   5.123   4.146 -0.0194  0.0629  0.2467
 2195poe     o2 9053   4.859   5.123   4.149 -0.0046 -0.3916 -0.3594
 2195poe    c23 9054   4.917   5.016   4.221 -0.2666 -0.5039 -0.3140
 2195poe    c23 9055   5.069   5.039   4.219 -0.3673  0.1708 -0.2914
 2195poe     o2 9056   5.108   5.166   4.268 -0.3797  0.3303 -0.6907
 2195poe    c23 9057   5.248   5.184   4.260 -0.2907 -0.0180  0.0156
 2195poe    c23 9058   5.283   5.332   4.287  0.0383 -0.0867 -0.0335
 2195poe     o2 9059   5.202   5.398   4.192 -0.0057  0.2582  0.2423
 2195poe    c31 9060   5.201   5.536   4.221 -0.6187  0.2514  0.2706
 2196poe    c31 9061   0.765   6.457   6.237  0.1748 -0.2711 -0.4226
 2196poe     o2 9062   0.711   6.326   6.244  0.0260 -0.1955 -0.1129
 2196poe    c23 9063   0.806   6.229   6.281 -0.1826 -0.0748  0.7499
 2196poe    c23 9064   0.761   6.093   6.224  0.3500  0.0032  0.1398
 2196poe     o2 9065   0.749   6.079   6.084  0.8402 -0.1766  0.1134
 2196poe    c23 9066   0.725   5.941   6.064 -0.3324 -0.0333  0.4553
 2196poe    c23 9067   0.759   5.920   5.916 -0.0230  0.0810  0.5092
 2196poe     o2 9068   0.691   6.020   5.843  0.0787 -0.0045  0.2952
 2196poe    c23 9069   0.717   6.008   5.705 -0.1075  0.0751  0.2536
 2196poe    c23 9070   0.645   6.122   5.629  0.6834  0.4350  0.0376
 2196poe     o2 9071   0.668   6.236   5.708 -0.1410  0.4237  0.2996
 2196poe    c31 9072   0.613   6.349   5.643  0.0610  0.2883 -0.1084
 2197poe    c31 9073   6.682   3.804   4.947 -0.4420  0.5092 -0.1246
 2197poe     o2 9074   6.777   3.707   4.909 -0.4047  0.5384 -0.1063
 2197poe    c23 9075   6.727   3.575   4.906 -0.1441  0.4430 -0.2649
 2197poe    c23 9076   6.845   3.483   4.869 -0.3714  0.1301 -0.2130
 2197poe     o2 9077   6.886   3.522   4.740  0.0316  0.0569 -0.1060
 2197poe    c23 9078   7.002   3.451   4.701  0.3523  0.3045  0.3753
 2197poe    c23 9079   7.037   3.499   4.558  0.0262  0.1127  0.2290
 2197poe     o2 9080   7.074   3.635   4.554  0.8928 -0.1069  0.5484
 2197poe    c23 9081   7.102   3.690   4.427 -0.1575 -0.1355  0.2971
 2197poe    c23 9082   7.122   3.843   4.438 -0.0535 -0.1240 -0.0476
 2197poe     o2 9083   7.184   3.855   4.564 -0.0477  0.3027 -0.0914
 2197poe    c31 9084   7.283   3.955   4.554  0.0026  0.2129 -0.5425
 2198poe    c31 9085   2.001   6.339   1.031 -0.4016 -0.1121 -0.2811
 2198poe     o2 9086   1.924   6.438   1.096  0.0866 -0.1940  0.4310
 2198poe    c23 9087   2.001   6.556   1.093 -0.0880 -0.0909  0.0374
 2198poe    c23 9088   1.942   6.672   1.174  0.1112  0.1464 -0.1534
 2198poe     o2 9089   1.917   6.631   1.307  0.2516  0.1923 -0.1133
 2198poe    c23 9090   1.835   6.720   1.378  0.3323  0.0110  0.2091
 2198poe    c23 9091   1.831   6.663   1.521 -0.1654 -0.1045  0.1509
 2198poe     o2 9092   1.777   6.533   1.522  0.4643 -0.3651  0.3920
 2198poe    c23 9093   1.748   6.473   1.646  0.5241 -0.1439  0.5135
 2198poe    c23 9094   1.645   6.360   1.625  0.7525 -0.2895  0.1610
 2198poe     o2 9095   1.682   6.281   1.515 -0.0053  0.1382 -0.4105
 2198poe    c31 9096   1.571   6.204   1.475  0.2424 -0.6982  0.4703
 2199poe    c31 9097   3.045   0.971   0.082 -0.3689 -0.5286 -0.2380
 2199poe     o2 9098   2.967   1.084   0.048  0.1126  0.0842  0.6549
 2199poe    c23 9099   2.901   1.058  -0.074  0.4842  0.3644  0.3928
 2199poe    c23 9100   2.750   1.084  -0.059  0.3886  0.5662 -0.8640
 2199poe     o2 9101   2.716   1.221  -0.056 -0.2250  0.3984  0.5803
 2199poe    c23 9102   2.591   1.253  -0.114 -0.3663 -0.8607  0.1619
 2199poe    c23 9103   2.539   1.386  -0.057  0.4289 -0.5203  0.1019
 2199poe     o2 9104   2.639   1.484  -0.041 -0.3382  0.3455 -0.3241
 2199poe    c23 9105   2.606   1.584   0.053 -0.1121  0.1984 -0.0831
 2199poe    c23 9106   2.724   1.681   0.071 -0.0776  0.0429  0.5533
 2199poe     o2 9107   2.842   1.603   0.076 -0.1121 -0.0218  0.3777
 2199poe    c31 9108   2.958   1.683   0.086  0.2263 -0.4097 -0.3986
 2200poe    c31 9109   2.912   3.176   4.481 -0.3483 -0.3701  0.1010
 2200poe     o2 9110   2.914   3.126   4.349 -0.0758  0.2298 -0.1302
 2200poe    c23 9111   2.974   2.999   4.335 -0.2348  0.1558 -0.1465
 2200poe    c23 9112   2.908   2.928   4.215  0.0553 -0.0113 -0.2101
 2200poe     o2 9113   2.926   3.002   4.097  0.2684 -0.2511 -0.3287
 2200poe    c23 9114   2.864   2.957   3.978 -0.5640 -0.4169  0.1636
 2200poe    c23 9115   2.820   3.069   3.882  0.3501  0.6023  0.9013
 2200poe     o2 9116   2.720   3.154   3.933 -0.5463  0.1638 -0.0702
 2200poe    c23 9117   2.703   3.267   3.851  0.5419  0.3567 -0.0424
 2200poe    c23 9118   2.564   3.322   3.887  0.1418 -0.3536 -0.4883
 2200poe     o2 9119   2.565   3.320   4.027 -0.4445  0.3107 -0.4678
 2200poe    c31 9120   2.462   3.403   4.075 -0.5113  0.0728 -0.1909
 2201poe    c31 9121   5.129   6.551   6.726 -0.4890  0.1973  0.0091
 2201poe     o2 9122   5.072   6.474   6.830 -0.2334 -0.4177 -0.3047
 2201poe    c23 9123   5.178   6.413   6.901 -0.1616  0.0659  0.0049
 2201poe    c23 9124   5.148   6.333   7.029 -0.0250 -0.2825 -0.1816
 2201poe     o2 9125   5.098   6.204   7.000 -0.6649 -0.0560 -0.0833
 2201poe    c23 9126   5.090   6.132   7.121  0.3617 -0.2131 -0.1045
 2201poe    c23 9127   5.051   5.988   7.080 -0.4652 -0.1725  0.5044
 2201poe     o2 9128   4.920   5.982   7.028 -0.2742 -0.1598  0.0121
 2201poe    c23 9129   4.893   5.844   7.032  0.1991 -0.2534  0.1226
 2201poe    c23 9130   4.761   5.813   6.958  0.2727  0.0671 -0.1470
 2201poe     o2 9131   4.761   5.841   6.820  0.3483  0.2458 -0.1110
 2201poe    c31 9132   4.656   5.764   6.765  0.5097  0.0877 -0.1984
 2202poe    c31 9133   3.116   5.537   0.458 -0.0499 -0.6687 -0.2828
 2202poe     o2 9134   3.234   5.481   0.511 -0.0978 -0.4216  0.0907
 2202poe    c23 9135   3.310   5.418   0.410 -0.2258 -0.3394 -0.0567
 2202poe    c23 9136   3.433   5.355   0.477 -0.2080 -0.0996  0.1362
 2202poe     o2 9137   3.500   5.453   0.552 -0.2218 -0.0782  0.1207
 2202poe    c23 9138   3.609   5.408   0.630  0.3176  0.5559 -0.2496
 2202poe    c23 9139   3.660   5.533   0.704 -0.0571  0.5597  0.0055
 2202poe     o2 9140   3.555   5.609   0.761 -0.0992 -0.0607  0.7776
 2202poe    c23 9141   3.596   5.722   0.834  0.1720  0.3690 -0.0222
 2202poe    c23 9142   3.473   5.807   0.871 -0.2717 -0.0573 -0.5026
 2202poe     o2 9143   3.445   5.887   0.759  0.5354  0.5998 -0.2453
 2202poe    c31 9144   3.315   5.941   0.772  0.1607 -0.2695 -0.3310
 2203poe    c31 9145   6.560   4.129   6.421  0.5190 -0.4362  0.0127
 2203poe     o2 9146   6.529   4.216   6.314  0.2626 -0.4786  0.0517
 2203poe    c23 9147   6.437   4.313   6.359  0.4094 -0.2197 -0.2058
 2203poe    c23 9148   6.428   4.435   6.266  0.2270  0.0591  0.1719
 2203poe     o2 9149   6.407   4.399   6.131  0.6941 -0.1089  0.1419
 2203poe    c23 9150   6.433   4.510   6.048  0.6055  0.0098  0.2722
 2203poe    c23 9151   6.443   4.460   5.903 -0.4129 -0.5859  0.3974
 2203poe     o2 9152   6.541   4.361   5.879  0.0368 -0.0319 -0.0899
 2203poe    c23 9153   6.564   4.337   5.742 -0.2174  0.2051 -0.1757
 2203poe    c23 9154   6.675   4.234   5.715  0.0809  0.3590  0.4388
 2203poe     o2 9155   6.654   4.095   5.732  0.4575  0.1853 -0.4434
 2203poe    c31 9156   6.581   4.040   5.624 -0.6557  0.0333  0.3678
 2204poe    c31 9157   5.531   3.945   3.249  0.4191  0.0078 -0.0010
 2204poe     o2 9158   5.547   3.805   3.259 -0.0164 -0.0622 -0.2769
 2204poe    c23 9159   5.677   3.757   3.231  0.0925  0.2065 -0.2339
 2204poe    c23 9160   5.685   3.603   3.234 -0.6939  0.1699  0.3263
 2204poe     o2 9161   5.696   3.548   3.364 -0.3398  0.4640  0.4225
 2204poe    c23 9162   5.735   3.413   3.359  0.2788  0.6474  0.0980
 2204poe    c23 9163   5.715   3.332   3.489  0.0047 -0.0931 -0.3998
 2204poe     o2 9164   5.587   3.277   3.512  0.0143 -0.2042 -0.6080
 2204poe    c23 9165   5.589   3.205   3.634  0.0128 -0.0050 -0.4909
 2204poe    c23 9166   5.464   3.121   3.665  0.1874 -0.0430  0.1262
 2204poe     o2 9167   5.438   3.025   3.565  0.8481 -0.5551  0.4340
 2204poe    c31 9168   5.310   2.973   3.596 -0.0597  0.9827 -0.5583
 2205poe    c31 9169   1.297   6.530   3.321 -0.2226  0.2268 -0.4193
 2205poe     o2 9170   1.253   6.651   3.264  0.2012  0.4924 -0.1861
 2205poe    c23 9171   1.160   6.616   3.165  0.1154  0.4628 -0.0953
 2205poe    c23 9172   1.087   6.732   3.095  0.2650  0.4757 -0.2319
 2205poe     o2 9173   1.152   6.799   2.990  0.3977  0.0151 -0.4477
 2205poe    c23 9174   1.064   6.901   2.951  0.0356 -0.0364  0.2260
 2205poe    c23 9175   1.117   7.017   2.865 -0.5819  0.2776  0.2593
 2205poe     o2 9176   1.227   7.097   2.905 -0.1826  0.1898 -0.6349
 2205poe    c23 9177   1.207   7.224   2.964  0.3471 -0.1257  0.2467
 2205poe    c23 9178   1.186   7.334   2.859  0.4220 -0.5823 -0.2563
 2205poe     o2 9179   1.298   7.371   2.782  0.4241 -0.0209  0.0060
 2205poe    c31 9180   1.327   7.508   2.769 -0.2703  0.1171 -0.1183
 2206poe    c31 9181   4.419   2.505   6.712 -0.1349 -0.0940  0.4756
 2206poe     o2 9182   4.499   2.438   6.807  0.3301  0.2469  0.3276
 2206poe    c23 9183   4.619   2.402   6.741 -0.0985  0.2643 -0.4741
 2206poe    c23 9184   4.704   2.312   6.833 -0.8231 -0.1104 -0.1568
 2206poe     o2 9185   4.710   2.389   6.951 -0.2525 -0.5100  0.0775
 2206poe    c23 9186   4.797   2.316   7.035 -0.0721 -0.6101 -0.1940
 2206poe    c23 9187   4.882   2.410   7.123 -0.6205 -0.1523 -0.1481
 2206poe     o2 9188   4.796   2.481   7.209  0.0601 -0.1411  0.5298
 2206poe    c23 9189   4.860   2.602   7.241  0.1133 -0.1277  0.3733
 2206poe    c23 9190   4.767   2.687   7.330  0.2177  0.2444  0.1266
 2206poe     o2 9191   4.691   2.763   7.237  0.5700  0.8182  0.3000
 2206poe    c31 9192   4.571   2.799   7.302  0.2138 -0.0233  0.1329
 2207poe    c31 9193   3.547   2.907   3.725 -0.4012  0.8288 -0.1762
 2207poe     o2 9194   3.618   2.922   3.846  0.0954 -0.5788 -0.2706
 2207poe    c23 9195   3.694   2.811   3.888 -0.1934 -0.5057  0.4610
 2207poe    c23 9196   3.776   2.839   4.015  0.3751 -0.2665  0.0464
 2207poe     o2 9197   3.885   2.924   3.990  0.3293 -0.2367 -0.0545
 2207poe    c23 9198   3.971   2.941   4.101  0.0506 -0.6190  0.2220
 2207poe    c23 9199   4.051   3.072   4.110 -0.3307 -0.3827  0.1726
 2207poe     o2 9200   3.974   3.187   4.136  0.2316  0.1838 -0.6057
 2207poe    c23 9201   4.052   3.294   4.185  0.3747  0.0191 -0.4723
 2207poe    c23 9202   3.956   3.411   4.211  0.0596 -0.2630 -0.3648
 2207poe     o2 9203   3.899   3.445   4.086 -0.2293  0.0996 -0.1368
 2207poe    c31 9204   3.869   3.582   4.075 -0.3242  0.0663 -0.2799
 2208poe    c31 9205   5.328   1.514   6.844  0.5134 -0.0340  0.4311
 2208poe     o2 9206   5.284   1.465   6.720 -0.0515  0.4747  0.4234
 2208poe    c23 9207   5.371   1.523   6.626 -0.1562  0.7620  0.5032
 2208poe    c23 9208   5.312   1.513   6.484  0.3367 -0.2752  0.3623
 2208poe     o2 9209   5.284   1.375   6.486  0.4623 -0.3068  0.0405
 2208poe    c23 9210   5.246   1.316   6.364  0.6967  0.1973 -0.2794
 2208poe    c23 9211   5.222   1.165   6.384 -0.0503  0.4218  0.5615
 2208poe     o2 9212   5.125   1.160   6.486 -0.1228  0.5298  0.4990
 2208poe    c23 9213   5.077   1.028   6.497  0.1595  0.4085  0.2773
 2208poe    c23 9214   4.997   0.999   6.625  0.1434 -0.1433  0.1452
 2208poe     o2 9215   5.079   0.999   6.740  0.0424 -0.0338  0.2167
 2208poe    c31 9216   5.022   0.934   6.851  0.7113 -0.2874  0.4136
 2209poe    c31 9217   5.990   3.120   5.792  0.1966 -0.7469 -0.1233
 2209poe     o2 9218   5.931   3.001   5.841 -0.0949 -0.4076  0.3569
 2209poe    c23 9219   6.033   2.909   5.871  0.0939 -0.4561 -0.4081
 2209poe    c23 9220   5.966   2.790   5.942 -0.1155 -0.1393 -0.0740
 2209poe     o2 9221   5.866   2.761   5.846 -0.6145 -0.1419  0.4416
 2209poe    c23 9222   5.795   2.644   5.881  0.2860 -0.8965 -0.1695
 2209poe    c23 9223   5.702   2.620   5.761  0.0689 -0.0849 -0.1748
 2209poe     o2 9224   5.621   2.735   5.755  0.0264 -0.1004  0.0963
 2209poe    c23 9225   5.507   2.716   5.674 -0.3541  0.2522  0.5407
 2209poe    c23 9226   5.402   2.829   5.672 -0.4253  0.1847  0.4890
 2209poe     o2 9227   5.453   2.935   5.595  0.0011 -0.1510  0.3026
 2209poe    c31 9228   5.345   3.025   5.584  0.0628 -0.1241 -0.0986
 2210poe    c31 9229   2.273   1.081   2.909  0.3423 -0.1253 -0.5248
 2210poe     o2 9230   2.299   1.174   3.012 -0.2582 -0.5839  0.0502
 2210poe    c23 9231   2.260   1.130   3.140  0.1122 -0.3862  0.2313
 2210poe    c23 9232   2.290   1.243   3.241 -0.2914 -0.0411 -0.0354
 2210poe     o2 9233   2.234   1.364   3.195  0.1429  0.1788  0.0175
 2210poe    c23 9234   2.266   1.469   3.284  0.4881 -0.4357  0.6243
 2210poe    c23 9235   2.192   1.598   3.245  0.2716 -0.7721 -0.0898
 2210poe     o2 9236   2.250   1.650   3.127 -0.3609 -0.6008 -0.3297
 2210poe    c23 9237   2.169   1.761   3.095 -0.3243 -0.5526 -0.2564
 2210poe    c23 9238   2.137   1.741   2.946 -0.0545 -0.1403 -0.3701
 2210poe     o2 9239   2.029   1.651   2.945  0.3376 -0.6171 -0.1666
 2210poe    c31 9240   1.928   1.692   2.856  0.1959  0.7282  0.5910
 2211poe    c31 9241   1.874   3.723   1.560  0.2856 -0.4853  0.6143
 2211poe     o2 9242   1.749   3.664   1.588 -0.1140  0.0747  0.0417
 2211poe    c23 9243   1.742   3.538   1.526  0.5761  0.1553 -0.2079
 2211poe    c23 9244   1.600   3.479   1.535  0.4456  0.3790 -0.8010
 2211poe     o2 9245   1.488   3.545   1.480 -0.5207 -0.0281  0.6264
 2211poe    c23 9246   1.364   3.482   1.504 -0.3601 -0.4010  0.4843
 2211poe    c23 9247   1.246   3.576   1.472 -0.0388 -0.1588  0.0084
 2211poe     o2 9248   1.238   3.692   1.551  0.1266  0.1883 -0.4736
 2211poe    c23 9249   1.114   3.759   1.539  0.1626  0.3861  0.1979
 2211poe    c23 9250   1.121   3.904   1.590 -0.2842  0.3533  0.3485
 2211poe     o2 9251   1.198   3.978   1.499 -0.2968  0.2669  0.2676
 2211poe    c31 9252   1.229   4.110   1.538  0.3664  0.2299 -0.1210
 2212poe    c31 9253   2.270   5.323   4.668  0.1089 -0.1509 -0.2463
 2212poe     o2 9254   2.321   5.302   4.797 -0.3357 -0.0316 -0.0487
 2212poe    c23 9255   2.258   5.188   4.849 -0.5567  0.1510  0.0875
 2212poe    c23 9256   2.317   5.135   4.982 -0.1989  0.0435 -0.1148
 2212poe     o2 9257   2.274   5.213   5.091 -0.0041  0.1649 -0.1246
 2212poe    c23 9258   2.308   5.157   5.215 -0.1054  0.8413  0.2114
 2212poe    c23 9259   2.286   5.246   5.340 -0.5859 -0.1369  0.8332
 2212poe     o2 9260   2.367   5.360   5.330 -0.1886 -0.4552  0.3663
 2212poe    c23 9261   2.408   5.414   5.453 -0.1751  0.4216 -0.0111
 2212poe    c23 9262   2.524   5.513   5.431  0.1580  0.1176  0.3439
 2212poe     o2 9263   2.467   5.632   5.380 -0.1182 -0.1421  0.0423
 2212poe    c31 9264   2.557   5.740   5.389  0.3678 -0.5428  0.0506
 2213poe    c31 9265   3.052   0.571   4.261 -0.0528 -0.2145 -0.1241
 2213poe     o2 9266   3.038   0.598   4.398  0.4821  0.3634 -0.1769
 2213poe    c23 9267   2.904   0.575   4.435  0.4437  0.2774 -0.3678
 2213poe    c23 9268   2.867   0.652   4.563 -0.4875 -0.4510 -0.1844
 2213poe     o2 9269   2.846   0.788   4.534  0.6152 -0.1778  0.2398
 2213poe    c23 9270   2.777   0.858   4.635  0.0504  0.2173 -0.4080
 2213poe    c23 9271   2.776   1.009   4.605 -0.1989  0.2967 -0.0032
 2213poe     o2 9272   2.908   1.058   4.610 -0.1187  0.0959 -0.1585
 2213poe    c23 9273   2.898   1.192   4.651 -0.1972 -0.1069  0.4913
 2213poe    c23 9274   3.026   1.271   4.618 -0.1960 -0.4758 -0.4141
 2213poe     o2 9275   3.138   1.219   4.687 -0.2079  0.1382  0.0841
 2213poe    c31 9276   3.229   1.326   4.698  0.1757 -0.1833  0.0743
 2214poe    c31 9277   4.560   3.191   5.882 -0.0123  0.1814 -0.3507
 2214poe     o2 9278   4.633   3.299   5.825  0.3091 -0.1214 -0.5167
 2214poe    c23 9279   4.706   3.372   5.921 -0.1296 -0.2721 -0.0594
 2214poe    c23 9280   4.794   3.478   5.852  0.5347 -0.3143  0.7060
 2214poe     o2 9281   4.901   3.418   5.782 -0.1843 -0.5794 -0.1868
 2214poe    c23 9282   4.923   3.484   5.659  0.2588 -0.3501  0.0166
 2214poe    c23 9283   5.036   3.417   5.579  0.2692 -0.1908 -0.1007
 2214poe     o2 9284   5.008   3.295   5.514  0.1158 -0.3111  0.1911
 2214poe    c23 9285   5.107   3.271   5.417  0.0843  0.0652  0.0613
 2214poe    c23 9286   5.073   3.171   5.305  0.6873 -0.5025  0.3751
 2214poe     o2 9287   5.049   3.042   5.355 -0.5116 -0.3911  0.1193
 2214poe    c31 9288   5.008   2.956   5.251  0.3593 -0.4488 -0.1891
 2215poe    c31 9289   5.890   3.962   3.580  0.8377  0.0884  0.5643
 2215poe     o2 9290   5.821   3.907   3.690 -0.0531  0.6641  0.3058
 2215poe    c23 9291   5.755   3.789   3.651 -0.0274  0.5580  0.5833
 2215poe    c23 9292   5.644   3.739   3.746 -0.3333  0.3236  0.1069
 2215poe     o2 9293   5.528   3.817   3.724 -0.3609  0.1412 -0.4097
 2215poe    c23 9294   5.436   3.773   3.822  0.4669  0.1144  0.3662
 2215poe    c23 9295   5.299   3.842   3.817  0.3644 -0.1251 -0.2511
 2215poe     o2 9296   5.306   3.979   3.851 -0.1665 -0.1238 -0.1402
 2215poe    c23 9297   5.303   4.060   3.736  0.0037 -0.2929 -0.2652
 2215poe    c23 9298   5.293   4.203   3.793 -0.1916 -0.7524  0.8935
 2215poe     o2 9299   5.407   4.249   3.862  0.1983  0.4542 -0.4855
 2215poe    c31 9300   5.408   4.385   3.899 -0.2351  0.1914  0.5298
 2216poe    c31 9301   6.617   1.049   6.718  0.2168  0.2957 -0.3253
 2216poe     o2 9302   6.559   1.163   6.660  1.0279  0.7420 -0.2730
 2216poe    c23 9303   6.458   1.209   6.747  0.8537  0.4575 -0.3233
 2216poe    c23 9304   6.386   1.334   6.692 -0.1513  0.0901  0.1341
 2216poe     o2 9305   6.471   1.443   6.666 -0.3022  0.2325  0.2334
 2216poe    c23 9306   6.401   1.536   6.586 -0.0533  0.3525  0.1528
 2216poe    c23 9307   6.487   1.632   6.502 -0.1033 -0.0018 -0.3156
 2216poe     o2 9308   6.555   1.557   6.405 -0.1380 -0.0148 -0.3291
 2216poe    c23 9309   6.634   1.640   6.323  0.0947 -0.3408 -0.4402
 2216poe    c23 9310   6.687   1.557   6.205  0.2475 -0.1859 -0.4820
 2216poe     o2 9311   6.767   1.448   6.244  0.4008  0.1070  0.0265
 2216poe    c31 9312   6.771   1.368   6.127 -0.1126 -0.5110  0.4214
 2217poe    c31 9313   0.732   1.983   3.722 -0.2907  0.3219  0.9240
 2217poe     o2 9314   0.683   2.115   3.722 -0.1816  0.3725 -0.2124
 2217poe    c23 9315   0.705   2.155   3.856 -0.0907 -0.0450 -0.1011
 2217poe    c23 9316   0.627   2.284   3.889 -0.1476 -0.0699 -0.1373
 2217poe     o2 9317   0.652   2.395   3.806 -0.2842  0.1054  0.0557
 2217poe    c23 9318   0.783   2.447   3.813 -0.2162 -0.0591  0.0225
 2217poe    c23 9319   0.794   2.568   3.718  0.3164 -0.0022  0.1552
 2217poe     o2 9320   0.762   2.529   3.586  0.5523 -0.1392  0.1365
 2217poe    c23 9321   0.781   2.638   3.498  0.3009  0.0900  0.3606
 2217poe    c23 9322   0.769   2.583   3.355 -0.1154  0.0305  0.4171
 2217poe     o2 9323   0.645   2.518   3.369 -0.2437  0.1591 -0.1231
 2217poe    c31 9324   0.608   2.462   3.245 -0.3789  0.2638 -0.1314
 2218poe    c31 9325   0.666   4.314   0.081  0.2655  0.1785 -0.3270
 2218poe     o2 9326   0.718   4.282   0.208  0.4758 -0.7621 -0.6387
 2218poe    c23 9327   0.841   4.345   0.236 -0.3164  0.4752  0.1795
 2218poe    c23 9328   0.870   4.342   0.388 -0.0700 -0.6229  0.1217
 2218poe     o2 9329   0.788   4.431   0.460 -0.1346 -0.3324 -0.3069
 2218poe    c23 9330   0.838   4.416   0.591 -0.4668 -0.2856 -0.1749
 2218poe    c23 9331   0.753   4.479   0.703  0.2930  0.2283  0.1144
 2218poe     o2 9332   0.763   4.619   0.704 -0.1850  0.2617  0.2782
 2218poe    c23 9333   0.657   4.682   0.772 -0.1465  0.2869  0.3148
 2218poe    c23 9334   0.664   4.835   0.788 -0.6968  0.3095  0.3635
 2218poe     o2 9335   0.659   4.907   0.667 -0.0113  0.2251  0.2813
 2218poe    c31 9336   0.545   4.987   0.640 -0.0596 -0.0404 -0.3239
 2219poe    c31 9337   5.877   0.650   7.054 -0.3832 -0.1346  0.0662
 2219poe     o2 9338   5.748   0.707   7.052 -0.2806  0.0883 -0.2320
 2219poe    c23 9339   5.657   0.627   7.123 -0.0149  0.1034  0.1298
 2219poe    c23 9340   5.584   0.533   7.025  0.0216  0.2480 -0.0361
 2219poe     o2 9341   5.526   0.621   6.931  0.1471  0.0743 -0.2783
 2219poe    c23 9342   5.424   0.569   6.849  0.1975 -0.3102 -0.0988
 2219poe    c23 9343   5.368   0.679   6.757  0.2546  0.0064  0.2471
 2219poe     o2 9344   5.468   0.737   6.676 -0.1839 -0.2389 -0.4700
 2219poe    c23 9345   5.424   0.820   6.571  0.0168 -0.1656 -0.4956
 2219poe    c23 9346   5.544   0.857   6.481 -0.1665  0.4282 -0.5017
 2219poe     o2 9347   5.646   0.926   6.550  0.1246 -0.5744  0.0836
 2219poe    c31 9348   5.732   0.978   6.452 -0.0674  0.0338  0.2381
 2220poe    c31 9349   0.076   6.474   2.980  0.1232  0.0870  0.2442
 2220poe     o2 9350  -0.037   6.555   3.002  0.0226 -0.0548  0.2535
 2220poe    c23 9351  -0.140   6.462   3.027  0.0483 -0.3057 -0.5462
 2220poe    c23 9352  -0.257   6.510   3.115  0.8330  0.2246  0.2240
 2220poe     o2 9353  -0.362   6.578   3.050  0.2355 -0.2144  0.7118
 2220poe    c23 9354  -0.456   6.618   3.147 -0.6434 -0.1526 -0.1585
 2220poe    c23 9355  -0.593   6.682   3.115 -0.3888  0.2399 -0.4729
 2220poe     o2 9356  -0.593   6.815   3.068  0.4357  0.5079  0.2457
 2220poe    c23 9357  -0.704   6.887   3.117  0.1332  0.2259 -0.0210
 2220poe    c23 9358  -0.715   7.037   3.082 -0.0255  0.2936  0.3122
 2220poe     o2 9359  -0.745   7.069   2.948 -0.8427 -0.0512  0.4106
 2220poe    c31 9360  -0.877   7.051   2.900 -0.6292  0.0215 -0.2089
 2221poe    c31 9361   6.632   1.964   3.873  0.1336  0.0419 -0.0314
 2221poe     o2 9362   6.496   1.998   3.856  0.1236  0.1954  0.3732
 2221poe    c23 9363   6.467   2.074   3.741 -0.3990  0.1804  0.4962
 2221poe    c23 9364   6.427   2.219   3.772 -0.0399  0.3950 -0.0297
 2221poe     o2 9365   6.296   2.210   3.824 -0.1550 -0.0854 -0.3929
 2221poe    c23 9366   6.234   2.337   3.817 -0.1788 -0.0791 -0.0809
 2221poe    c23 9367   6.081   2.326   3.829 -0.1673 -0.1116  0.0433
 2221poe     o2 9368   6.041   2.234   3.928  0.0337 -0.2255  0.0183
 2221poe    c23 9369   5.900   2.222   3.933  0.0318 -0.1622  0.1022
 2221poe    c23 9370   5.866   2.095   4.013 -0.1113 -0.0732  0.1830
 2221poe     o2 9371   5.960   1.998   3.971 -0.1734 -0.1701  0.2679
 2221poe    c31 9372   5.936   1.879   4.043 -0.5519 -0.2920 -0.0539
 2222poe    c31 9373   5.778   1.635   5.462  0.0375  0.2141 -0.5161
 2222poe     o2 9374   5.891   1.637   5.377  0.4892  0.0563  0.0786
 2222poe    c23 9375   5.980   1.531   5.404 -0.3175 -0.6663 -0.0265
 2222poe    c23 9376   6.094   1.541   5.300 -0.5473  0.2020 -0.2009
 2222poe     o2 9377   6.048   1.527   5.168  0.1590 -0.2820 -0.3974
 2222poe    c23 9378   6.085   1.404   5.110 -0.0918 -0.2863 -0.5508
 2222poe    c23 9379   6.020   1.412   4.971 -0.2706  0.2478 -0.4391
 2222poe     o2 9380   6.061   1.532   4.909  0.6297  0.1293 -0.0819
 2222poe    c23 9381   6.025   1.551   4.774 -0.4265 -0.2661  0.1345
 2222poe    c23 9382   6.033   1.702   4.746 -0.1654 -0.2878  0.0950
 2222poe     o2 9383   6.001   1.772   4.864 -0.1049 -0.1140  0.0082
 2222poe    c31 9384   5.914   1.880   4.837  0.2122 -0.1563 -1.2447
 2223poe    c31 9385   4.742   3.801   0.496  0.1164 -0.2228 -0.7454
 2223poe     o2 9386   4.664   3.864   0.397 -0.5418  0.3159  0.1024
 2223poe    c23 9387   4.736   3.965   0.330 -0.8197 -0.0122 -0.7081
 2223poe    c23 9388   4.804   3.940   0.194  0.5303  0.5216 -0.1480
 2223poe     o2 9389   4.707   3.921   0.094  0.4490  0.5063 -0.0667
 2223poe    c23 9390   4.728   4.003  -0.019  0.7556  0.0712 -0.3312
 2223poe    c23 9391   4.596   4.004  -0.098  0.2519 -0.2205  0.4937
 2223poe     o2 9392   4.559   3.868  -0.111 -0.3108 -0.0523  0.3010
 2223poe    c23 9393   4.441   3.849  -0.186  0.0523 -0.1887 -0.2447
 2223poe    c23 9394   4.404   3.703  -0.156 -0.5274 -0.0779 -0.4153
 2223poe     o2 9395   4.399   3.676  -0.017  0.3337  0.0639 -0.3546
 2223poe    c31 9396   4.337   3.553   0.010  0.1115  0.3100  0.2734
 2224poe    c31 9397   5.148   4.019   1.948 -0.4117 -0.2672  0.4324
 2224poe     o2 9398   5.286   3.990   1.959 -0.3516  0.1327  0.7687
 2224poe    c23 9399   5.354   4.030   2.075  0.5995  0.2190  0.1901
 2224poe    c23 9400   5.498   3.977   2.070  0.4770 -0.1972  0.9304
 2224poe     o2 9401   5.561   3.994   1.945 -0.3863  0.1705  0.5389
 2224poe    c23 9402   5.612   4.123   1.917  0.1458 -0.0419  0.5159
 2224poe    c23 9403   5.679   4.118   1.779  0.0719 -0.3735  0.4900
 2224poe     o2 9404   5.585   4.096   1.677  0.2432 -0.2444  0.3024
 2224poe    c23 9405   5.641   4.114   1.549 -0.2332  0.4247  0.1795
 2224poe    c23 9406   5.557   4.067   1.428  0.3462  0.0816 -0.0962
 2224poe     o2 9407   5.536   3.929   1.409 -0.1429  0.0496  0.6341
 2224poe    c31 9408   5.490   3.919   1.276  0.0982 -0.5909  0.5943
 2225poe    c31 9409   2.750   4.728   2.052  0.0079  0.1588  0.5565
 2225poe     o2 9410   2.859   4.810   2.088 -0.0225  0.2972  0.3336
 2225poe    c23 9411   2.863   4.909   1.988  0.5090 -0.1147 -0.0548
 2225poe    c23 9412   2.956   5.022   2.037  0.2922  0.1421 -0.2324
 2225poe     o2 9413   3.079   4.983   2.093  0.2442 -0.1156 -0.3007
 2225poe    c23 9414   3.158   5.094   2.131  0.0536 -0.0215 -0.1830
 2225poe    c23 9415   3.304   5.058   2.165 -0.0398  0.1402  0.4059
 2225poe     o2 9416   3.326   4.973   2.275  0.5182 -0.3185 -0.0608
 2225poe    c23 9417   3.313   5.041   2.397  0.4780 -0.2425 -0.1072
 2225poe    c23 9418   3.355   4.955   2.518 -0.0657  0.0960  0.3286
 2225poe     o2 9419   3.259   4.853   2.528 -0.0054 -0.0498 -0.5245
 2225poe    c31 9420   3.291   4.764   2.632 -0.2245 -0.0202 -0.4302
 2226poe    c31 9421   6.055   0.860   0.246  0.7925  0.3131  0.2695
 2226poe     o2 9422   5.957   0.938   0.181  0.2288 -0.6489 -0.0482
 2226poe    c23 9423   6.006   1.054   0.118  0.5346 -0.8096 -0.1081
 2226poe    c23 9424   5.916   1.114   0.009  0.4882  0.2615  0.5094
 2226poe     o2 9425   5.795   1.162   0.063 -0.0247 -0.0889 -0.3048
 2226poe    c23 9426   5.718   1.224  -0.037 -0.3415 -0.2871 -0.1852
 2226poe    c23 9427   5.579   1.264   0.016 -0.3061 -0.0052 -0.2985
 2226poe     o2 9428   5.507   1.147   0.051 -0.0871  0.0045  0.1905
 2226poe    c23 9429   5.377   1.176   0.099  0.1196  0.4629  0.4834
 2226poe    c23 9430   5.286   1.054   0.079  0.3573  0.3381  0.1338
 2226poe     o2 9431   5.304   0.955   0.178  0.4486  0.1404 -0.0825
 2226poe    c31 9432   5.238   0.833   0.154  0.6247  0.0062  0.1104
 2227poe    c31 9433   1.521   2.626   4.086  0.0755  0.2542 -0.2251
 2227poe     o2 9434   1.635   2.569   4.146 -0.0178 -0.2316 -0.5050
 2227poe    c23 9435   1.750   2.604   4.074  0.4113 -0.3213  0.1251
 2227poe    c23 9436   1.878   2.534   4.124  0.5870 -0.0859  0.0062
 2227poe     o2 9437   1.901   2.547   4.263 -0.0035 -0.4204  0.1397
 2227poe    c23 9438   2.039   2.566   4.284  0.0186 -0.4784  0.0509
 2227poe    c23 9439   2.060   2.624   4.426  0.7517 -0.0457 -0.2252
 2227poe     o2 9440   1.994   2.531   4.508  0.0238  0.2054 -0.5095
 2227poe    c23 9441   2.007   2.566   4.644  0.5889 -0.0909 -0.4834
 2227poe    c23 9442   1.937   2.459   4.730  0.1334  0.5043 -0.1059
 2227poe     o2 9443   1.822   2.428   4.655  0.2599  0.7086 -0.3859
 2227poe    c31 9444   1.719   2.369   4.732  0.6176 -0.2288 -0.6107
 2228poe    c31 9445   2.058   1.990   6.710 -0.2317  0.0644  0.3769
 2228poe     o2 9446   2.038   1.853   6.685 -0.0701  0.1226 -0.0778
 2228poe    c23 9447   1.928   1.817   6.765  0.0402 -0.3146 -0.1199
 2228poe    c23 9448   1.884   1.671   6.741 -0.6639 -0.0915 -0.2107
 2228poe     o2 9449   1.982   1.574   6.768 -0.3796  0.4303  0.6456
 2228poe    c23 9450   1.928   1.447   6.739  0.5477  0.2438 -0.3086
 2228poe    c23 9451   2.033   1.338   6.771  0.0864  0.1093  0.7932
 2228poe     o2 9452   2.164   1.382   6.745  0.1178 -0.1426  0.5223
 2228poe    c23 9453   2.242   1.269   6.712  0.0733 -0.0885  0.2235
 2228poe    c23 9454   2.336   1.320   6.602 -0.0093  0.0649  0.2236
 2228poe     o2 9455   2.368   1.456   6.622 -0.6294  0.2383  0.0611
 2228poe    c31 9456   2.481   1.488   6.544 -0.7456 -0.2824 -0.3248
 2229poe    c31 9457   4.782   0.474   4.132  0.4085 -0.3453  0.0338
 2229poe     o2 9458   4.917   0.511   4.151  0.2236  0.1008  0.5173
 2229poe    c23 9459   4.967   0.435   4.259  0.0997 -0.4092  0.2227
 2229poe    c23 9460   5.021   0.300   4.209  0.0028 -0.3816  0.0416
 2229poe     o2 9461   5.126   0.314   4.115 -0.1040  0.3687  0.0223
 2229poe    c23 9462   5.254   0.266   4.149 -0.1205  0.2810 -0.0385
 2229poe    c23 9463   5.328   0.184   4.042 -0.6117  0.3266 -0.4129
 2229poe     o2 9464   5.378   0.264   3.937  0.3448  0.0731 -0.1549
 2229poe    c23 9465   5.423   0.187   3.828 -0.3485 -0.3659 -0.1371
 2229poe    c23 9466   5.488   0.280   3.724 -0.1594  0.1620  0.4517
 2229poe     o2 9467   5.403   0.378   3.669  0.3267  0.4683  0.2336
 2229poe    c31 9468   5.474   0.489   3.621  0.3231  0.4180  0.1116
 2230poe    c31 9469   6.949   5.397   0.302 -0.3679  1.0112  0.1062
 2230poe     o2 9470   7.039   5.494   0.252  0.0742  0.2487 -0.6029
 2230poe    c23 9471   7.171   5.458   0.218  0.1682  0.2299 -0.2202
 2230poe    c23 9472   7.182   5.368   0.094 -0.7401 -0.4331  0.1648
 2230poe     o2 9473   7.152   5.231   0.111 -0.1065 -0.5805  0.1501
 2230poe    c23 9474   7.204   5.148   0.010  0.0021  0.1514 -0.4012
 2230poe    c23 9475   7.195   4.997   0.037 -0.2712  0.2593  0.1295
 2230poe     o2 9476   7.065   4.949   0.012  0.0121 -0.3127 -0.2760
 2230poe    c23 9477   7.065   4.810   0.039 -0.0255 -0.3440 -0.4403
 2230poe    c23 9478   6.929   4.748   0.004 -0.2234 -0.1013 -0.0955
 2230poe     o2 9479   6.838   4.747   0.112 -0.0243  0.6749  0.0855
 2230poe    c31 9480   6.721   4.672   0.089  0.7866 -0.5967  0.0192
 2231poe    c31 9481   1.014   2.045   1.243 -0.0777  0.4882  0.0954
 2231poe     o2 9482   0.976   2.147   1.154  0.3508  0.0035 -0.6553
 2231poe    c23 9483   1.080   2.186   1.067  0.4397  0.2921 -0.4237
 2231poe    c23 9484   1.023   2.292   0.971 -0.0949  0.5505  0.1686
 2231poe     o2 9485   0.939   2.247   0.867  0.2852  0.4861 -0.1134
 2231poe    c23 9486   0.831   2.333   0.836  0.1517  0.4145  0.1481
 2231poe    c23 9487   0.751   2.276   0.718  0.2615  0.4844  0.0388
 2231poe     o2 9488   0.682   2.155   0.741  0.9536  0.1477  0.3747
 2231poe    c23 9489   0.701   2.059   0.639 -0.2027  0.1564  0.1338
 2231poe    c23 9490   0.613   2.059   0.512 -0.0500  0.2685  0.0276
 2231poe     o2 9491   0.475   2.059   0.539  0.0296 -0.2768  0.4755
 2231poe    c31 9492   0.412   2.080   0.414 -0.1510  0.1986  0.6456
 2232poe    c31 9493   4.869   4.058   1.406 -0.2659 -0.1124 -0.5798
 2232poe     o2 9494   4.927   3.931   1.382  0.3576  0.1690 -0.5996
 2232poe    c23 9495   4.831   3.828   1.395  0.2839  0.2910 -0.1536
 2232poe    c23 9496   4.876   3.700   1.322 -0.2861 -0.3867  0.6674
 2232poe     o2 9497   4.982   3.636   1.390  0.2237 -0.0067  0.2381
 2232poe    c23 9498   4.968   3.496   1.402 -0.6794  0.0648  0.0595
 2232poe    c23 9499   5.060   3.446   1.515  0.0087  0.3986 -0.3418
 2232poe     o2 9500   5.199   3.445   1.494  0.0176 -0.5299 -0.3009
 2232poe    c23 9501   5.262   3.404   1.614  0.3209 -0.2041 -0.3464
 2232poe    c23 9502   5.403   3.345   1.596  0.1469 -0.6053 -0.4095
 2232poe     o2 9503   5.494   3.441   1.547 -0.0897 -0.2970 -0.2537
 2232poe    c31 9504   5.610   3.372   1.505 -0.1785 -0.3945 -0.3384
 2233poe    c31 9505   4.537   0.660   2.522  0.2641 -0.3818  0.5172
 2233poe     o2 9506   4.559   0.571   2.629  0.1353 -0.6907  0.2876
 2233poe    c23 9507   4.695   0.535   2.638  0.3333  0.0194  0.2260
 2233poe    c23 9508   4.700   0.450   2.766 -0.0501 -0.0078  0.2220
 2233poe     o2 9509   4.594   0.357   2.769 -0.0352 -0.0460 -0.4745
 2233poe    c23 9510   4.592   0.278   2.886 -0.6729  0.3611 -0.2119
 2233poe    c23 9511   4.478   0.177   2.866 -0.1309 -0.2176 -0.3820
 2233poe     o2 9512   4.382   0.262   2.807 -0.0456  0.2488  0.1472
 2233poe    c23 9513   4.256   0.199   2.820 -0.0829  0.1279 -0.7923
 2233poe    c23 9514   4.158   0.305   2.768 -0.3595  0.0344 -0.4633
 2233poe     o2 9515   4.150   0.425   2.841  0.1823 -0.1935 -0.0263
 2233poe    c31 9516   4.013   0.450   2.865  0.2043 -0.3891  0.3018
 2234poe    c31 9517   7.065   4.367   1.001 -0.0233 -0.5032 -0.6498
 2234poe     o2 9518   6.937   4.359   0.944 -0.5999  0.0479  0.5427
 2234poe    c23 9519   6.872   4.481   0.914 -0.1072  0.2192  0.1564
 2234poe    c23 9520   6.731   4.487   0.851  0.0421 -0.3371 -0.2342
 2234poe     o2 9521   6.635   4.461   0.951  0.2933 -0.3751  0.0005
 2234poe    c23 9522   6.504   4.472   0.900  0.2228  0.1875  0.2949
 2234poe    c23 9523   6.396   4.415   0.995 -0.0478  0.3974  0.1147
 2234poe     o2 9524   6.373   4.506   1.100  0.4795  0.1034  0.4875
 2234poe    c23 9525   6.257   4.479   1.175  0.4061  0.2692  0.4337
 2234poe    c23 9526   6.150   4.589   1.181 -0.1449 -0.2877  0.9377
 2234poe     o2 9527   6.185   4.706   1.251  0.2804  0.4363 -0.4482
 2234poe    c31 9528   6.073   4.792   1.254  0.1024  0.1888  0.2208
 2235poe    c31 9529   3.994   1.060   3.407  0.2080 -0.0454 -0.4360
 2235poe     o2 9530   3.938   0.955   3.483 -0.1116  0.6112  0.2604
 2235poe    c23 9531   3.806   0.939   3.435  0.0761 -0.2263  0.0075
 2235poe    c23 9532   3.754   0.801   3.478 -0.1446 -0.1630 -0.0590
 2235poe     o2 9533   3.824   0.696   3.414  0.5485  0.4155 -0.2581
 2235poe    c23 9534   3.776   0.565   3.430  0.2198  0.4356 -1.0371
 2235poe    c23 9535   3.829   0.471   3.320 -0.1701 -0.6779 -0.2932
 2235poe     o2 9536   3.969   0.485   3.329 -0.2742  0.1284  0.0927
 2235poe    c23 9537   4.039   0.377   3.273 -0.1501  0.7073 -0.9043
 2235poe    c23 9538   4.188   0.417   3.271  0.0055  0.2447  0.3903
 2235poe     o2 9539   4.198   0.557   3.282 -0.3848  0.3045 -0.0103
 2235poe    c31 9540   4.332   0.596   3.304 -0.1311 -0.5433 -0.0243
 2236poe    c31 9541   0.280   5.468   2.437 -0.0063 -0.7392  0.0082
 2236poe     o2 9542   0.386   5.553   2.400  0.0695 -0.7930  0.1014
 2236poe    c23 9543   0.471   5.584   2.508 -0.3559  0.5473  0.0725
 2236poe    c23 9544   0.577   5.687   2.464  0.0637 -0.1223 -0.5070
 2236poe     o2 9545   0.501   5.800   2.425  0.1141  0.1535  0.1775
 2236poe    c23 9546   0.536   5.820   2.290  0.3203 -0.4087  0.1461
 2236poe    c23 9547   0.479   5.951   2.232  0.1508 -0.2913  0.5772
 2236poe     o2 9548   0.542   6.069   2.275 -0.4762  0.0453  0.5821
 2236poe    c23 9549   0.469   6.185   2.242 -0.3156 -0.1445 -0.4708
 2236poe    c23 9550   0.554   6.312   2.261 -0.1789 -0.2607 -0.3095
 2236poe     o2 9551   0.641   6.341   2.154  0.4441  0.2887  0.3389
 2236poe    c31 9552   0.668   6.479   2.147 -0.0520  0.3644 -0.1445
 2237poe    c31 9553   2.902   3.879   5.583 -0.0626  0.1785  0.4314
 2237poe     o2 9554   2.922   3.813   5.706 -0.0483 -0.3449  0.1523
 2237poe    c23 9555   3.020   3.868   5.791  0.1511  0.1099 -0.3733
 2237poe    c23 9556   2.995   3.814   5.933  0.0496  0.0800 -0.4034
 2237poe     o2 9557   3.016   3.676   5.949 -0.1495  0.0934 -0.0249
 2237poe    c23 9558   2.984   3.619   6.074 -0.3636  0.3834  0.0534
 2237poe    c23 9559   3.082   3.657   6.187  0.0361  0.4487 -0.3130
 2237poe     o2 9560   3.194   3.573   6.192  0.1588  0.6314  0.0442
 2237poe    c23 9561   3.307   3.650   6.226  0.3765  0.3536 -0.0445
 2237poe    c23 9562   3.427   3.559   6.195  0.1498 -0.1229  0.4666
 2237poe     o2 9563   3.428   3.460   6.296 -0.6198 -0.2022  0.4034
 2237poe    c31 9564   3.538   3.373   6.282 -0.5726 -0.1299  0.3197
 2238poe    c31 9565   6.952   1.392   3.130 -0.3734  0.4856  0.2207
 2238poe     o2 9566   7.090   1.421   3.125 -0.2351 -0.1687  0.1982
 2238poe    c23 9567   7.127   1.554   3.097 -0.2239 -0.0456  0.7844
 2238poe    c23 9568   7.279   1.576   3.083 -0.2944  0.0953  0.2267
 2238poe     o2 9569   7.339   1.493   3.180  0.3686  0.2771 -0.0205
 2238poe    c23 9570   7.479   1.506   3.178  0.4202 -0.2465  0.1241
 2238poe    c23 9571   7.544   1.412   3.282  0.4542 -0.1023  0.2337
 2238poe     o2 9572   7.498   1.280   3.266  0.3190  0.0170 -0.3963
 2238poe    c23 9573   7.568   1.199   3.358  0.4368  0.1959 -0.3279
 2238poe    c23 9574   7.499   1.063   3.382 -0.1898  0.5438 -0.1489
 2238poe     o2 9575   7.382   1.082   3.459 -0.0222 -0.0358  0.2556
 2238poe    c31 9576   7.340   0.965   3.524 -0.1560 -0.5630 -0.7498
 2239poe    c31 9577   2.516   4.589   0.209  0.0545 -0.4219  0.2415
 2239poe     o2 9578   2.636   4.515   0.202  0.1242 -0.2522 -0.4225
 2239poe    c23 9579   2.606   4.390   0.260 -0.6658  0.1241 -0.0033
 2239poe    c23 9580   2.729   4.297   0.257 -0.3941  0.4724  0.1617
 2239poe     o2 9581   2.793   4.287   0.131 -0.3171  0.2478  0.2189
 2239poe    c23 9582   2.824   4.149   0.123 -0.4246  0.2326  0.0523
 2239poe    c23 9583   2.872   4.130  -0.023 -0.2757 -0.2885  0.1677
 2239poe     o2 9584   2.998   4.190  -0.043 -0.5845  0.2417 -0.2231
 2239poe    c23 9585   3.057   4.155  -0.166  0.2664  0.6395  0.0639
 2239poe    c23 9586   3.202   4.204  -0.175  0.4377  0.1434  0.0863
 2239poe     o2 9587   3.209   4.332  -0.234 -0.0396  0.0826 -0.1055
 2239poe    c31 9588   3.342   4.379  -0.222  0.1892 -0.4942 -0.3077
 2240poe    c31 9589   3.532   6.455   3.852  0.0704  0.1260 -0.0135
 2240poe     o2 9590   3.482   6.377   3.959 -0.0619  0.0922 -0.1003
 2240poe    c23 9591   3.549   6.253   3.963 -0.2211  0.0102  0.0429
 2240poe    c23 9592   3.495   6.148   4.062  0.0788 -0.1030  0.0858
 2240poe     o2 9593   3.379   6.095   4.000 -0.0719  0.2467  0.0686
 2240poe    c23 9594   3.336   5.978   4.067  0.2176 -0.0726 -0.3014
 2240poe    c23 9595   3.241   5.901   3.974 -0.6683  0.1402  0.4129
 2240poe     o2 9596   3.163   5.994   3.903 -0.2583  0.2177  0.0570
 2240poe    c23 9597   3.080   5.931   3.808  0.1528 -0.5277  0.1851
 2240poe    c23 9598   2.981   6.028   3.739  0.3679 -0.2122  0.3185
 2240poe     o2 9599   3.053   6.150   3.738  0.1718 -0.0995  0.0634
 2240poe    c31 9600   2.992   6.232   3.641  0.5562 -0.0346 -0.1232
 2241poe    c31 9601   0.500   3.887   1.754  0.3638 -0.3070 -0.0644
 2241poe     o2 9602   0.407   3.789   1.716 -0.0763  0.1002 -0.0359
 2241poe    c23 9603   0.282   3.853   1.695 -0.2322 -0.0459  0.4315
 2241poe    c23 9604   0.185   3.756   1.625  0.0708  0.0437 -0.1194
 2241poe     o2 9605   0.245   3.697   1.511 -0.2690 -0.6573  0.0629
 2241poe    c23 9606   0.166   3.587   1.472 -0.4723 -0.3351 -0.4361
 2241poe    c23 9607   0.192   3.538   1.329 -0.5120  0.2869 -0.6602
 2241poe     o2 9608   0.315   3.470   1.311 -0.7569 -0.2837 -0.1960
 2241poe    c23 9609   0.319   3.395   1.192 -0.6097 -0.5018 -0.0554
 2241poe    c23 9610   0.278   3.247   1.198 -0.4569 -0.5467 -0.1209
 2241poe     o2 9611   0.331   3.197   1.318 -0.3345  0.4085  0.2338
 2241poe    c31 9612   0.261   3.075   1.333  0.4602 -0.1518 -0.4855
 2242poe    c31 9613   5.992   2.414   6.139 -0.2886 -0.0764 -0.0698
 2242poe     o2 9614   6.112   2.378   6.075 -0.3936  0.1695 -0.4147
 2242poe    c23 9615   6.151   2.247   6.111 -0.1755  0.2550 -0.3376
 2242poe    c23 9616   6.269   2.198   6.025 -0.4801 -0.3080 -0.4428
 2242poe     o2 9617   6.222   2.190   5.892 -0.3929 -0.0533 -0.4910
 2242poe    c23 9618   6.314   2.122   5.809  0.4687  0.6529 -0.1302
 2242poe    c23 9619   6.275   2.145   5.662  0.0103 -0.0281 -0.1188
 2242poe     o2 9620   6.235   2.277   5.633 -0.7058 -0.2262 -0.0610
 2242poe    c23 9621   6.248   2.312   5.497 -0.3125  0.0990  0.0595
 2242poe    c23 9622   6.217   2.463   5.483  0.3232  0.2232 -0.0497
 2242poe     o2 9623   6.100   2.466   5.561  0.1450  0.5012 -0.3295
 2242poe    c31 9624   6.027   2.585   5.538 -0.2601  0.1298 -0.9935
 2243poe    c31 9625   5.723   6.249   5.576  1.2201 -0.0717  0.7208
 2243poe     o2 9626   5.785   6.128   5.537  0.2161 -0.2382 -0.4167
 2243poe    c23 9627   5.888   6.098   5.628 -0.1065 -0.2317 -0.0440
 2243poe    c23 9628   5.913   5.948   5.606 -0.2397 -0.3185  0.3851
 2243poe     o2 9629   5.888   5.914   5.472  0.4258 -0.6386  0.3383
 2243poe    c23 9630   5.918   5.778   5.452  0.0765 -0.7176  0.3582
 2243poe    c23 9631   5.888   5.730   5.309 -0.1149 -0.2424  0.2399
 2243poe     o2 9632   5.749   5.743   5.288 -0.0113 -0.0869 -0.3816
 2243poe    c23 9633   5.717   5.707   5.156  0.4901 -0.4044 -0.4209
 2243poe    c23 9634   5.566   5.723   5.130  0.6817  0.6419 -0.9338
 2243poe     o2 9635   5.516   5.851   5.162 -0.2864  0.1329 -0.3592
 2243poe    c31 9636   5.381   5.864   5.123 -0.3328 -0.2155 -0.3232
 2244poe    c31 9637   1.789   3.247   0.247 -0.3169  0.1176 -0.6077
 2244poe     o2 9638   1.728   3.133   0.304 -0.0545  0.0157 -0.5256
 2244poe    c23 9639   1.780   3.105   0.432 -0.0455 -0.3162 -0.6018
 2244poe    c23 9640   1.691   3.002   0.503 -0.0111 -0.1255 -0.2807
 2244poe     o2 9641   1.567   3.055   0.544 -0.1227 -0.2523 -0.4533
 2244poe    c23 9642   1.496   2.967   0.629  0.2344  0.0149  0.1325
 2244poe    c23 9643   1.427   2.845   0.565 -0.3920  0.4384 -0.0077
 2244poe     o2 9644   1.328   2.904   0.483 -0.1194 -0.2342 -0.8371
 2244poe    c23 9645   1.240   2.808   0.429 -0.6944 -0.0946 -0.1613
 2244poe    c23 9646   1.159   2.879   0.319 -0.6466 -0.1912 -0.2590
 2244poe     o2 9647   1.233   2.988   0.270 -0.0330 -0.6003 -0.2491
 2244poe    c31 9648   1.169   3.038   0.155  0.2996 -0.4111 -0.3532
 2245poe    c31 9649   3.696   4.790   5.641  0.1974  0.4060  0.2180
 2245poe     o2 9650   3.704   4.799   5.500 -0.0686  0.3250  0.1960
 2245poe    c23 9651   3.587   4.842   5.434 -0.0125  0.1610 -0.0080
 2245poe    c23 9652   3.550   4.991   5.425 -0.2228  0.1087 -0.0135
 2245poe     o2 9653   3.509   5.052   5.545 -0.5327 -0.2063  0.0379
 2245poe    c23 9654   3.497   5.191   5.525  0.1373 -0.1078  0.2980
 2245poe    c23 9655   3.457   5.261   5.656 -0.2616  0.0018  0.1195
 2245poe     o2 9656   3.325   5.223   5.689 -0.1634 -0.1809  0.2992
 2245poe    c23 9657   3.282   5.287   5.807 -0.0164  0.6143 -0.0701
 2245poe    c23 9658   3.138   5.248   5.845  0.1739 -0.1502 -0.1233
 2245poe     o2 9659   3.131   5.109   5.871 -0.1499 -0.0577  0.3003
 2245poe    c31 9660   2.998   5.065   5.884 -0.1783  0.0038  0.2246
 2246poe    c31 9661   5.326   5.939   4.000 -0.8485  0.1812  0.6422
 2246poe     o2 9662   5.396   6.049   4.055  0.2451 -0.0261 -0.2890
 2246poe    c23 9663   5.523   5.999   4.088  0.1958  0.2872  0.3861
 2246poe    c23 9664   5.616   6.122   4.099 -0.0961  0.5647 -0.1906
 2246poe     o2 9665   5.543   6.198   4.193 -0.4867 -0.2055  0.1413
 2246poe    c23 9666   5.603   6.320   4.231 -0.5637 -0.1739  0.1607
 2246poe    c23 9667   5.508   6.414   4.308 -0.4426 -0.0087  0.1088
 2246poe     o2 9668   5.405   6.457   4.222 -0.3222  0.0858  0.0114
 2246poe    c23 9669   5.312   6.548   4.277 -0.3830 -0.0074  0.0648
 2246poe    c23 9670   5.197   6.577   4.179 -0.4591  0.4250  0.2820
 2246poe     o2 9671   5.123   6.460   4.152  0.2492  0.0691 -0.1202
 2246poe    c31 9672   5.020   6.487   4.060  0.2836  0.5100 -0.0286
 2247poe    c31 9673   6.678   0.169   6.116  0.5208 -0.5126  0.1626
 2247poe     o2 9674   6.724   0.300   6.138 -0.4139 -0.1055 -0.2877
 2247poe    c23 9675   6.618   0.393   6.125 -0.2558  0.1031 -0.0926
 2247poe    c23 9676   6.519   0.401   6.243 -0.1913  0.0296 -0.0317
 2247poe     o2 9677   6.595   0.462   6.346 -0.0832  0.2894 -0.2633
 2247poe    c23 9678   6.508   0.477   6.456 -0.3428  0.4346 -0.4867
 2247poe    c23 9679   6.573   0.540   6.580  0.0427  0.1923 -0.5629
 2247poe     o2 9680   6.668   0.456   6.643 -0.4099  0.3606  0.3608
 2247poe    c23 9681   6.725   0.529   6.749 -0.2533  0.1612  0.4140
 2247poe    c23 9682   6.819   0.437   6.830  0.2381  0.0795 -0.2441
 2247poe     o2 9683   6.749   0.347   6.914  0.0631  0.5284  0.0948
 2247poe    c31 9684   6.825   0.251   6.984  0.2623  0.2291 -0.5192
 2248poe    c31 9685   0.541   6.065   1.140  0.1663  0.0076 -0.5941
 2248poe     o2 9686   0.585   6.182   1.206  0.4993 -0.5157  0.1293
 2248poe    c23 9687   0.580   6.156   1.344  0.3688  0.4879  0.3176
 2248poe    c23 9688   0.517   6.243   1.455  0.0528 -0.1184  0.6204
 2248poe     o2 9689   0.576   6.369   1.477 -0.0951  0.0699 -0.0365
 2248poe    c23 9690   0.492   6.444   1.561 -0.0138 -0.4074  0.4711
 2248poe    c23 9691   0.546   6.586   1.587 -0.4305  0.0039 -0.8779
 2248poe     o2 9692   0.573   6.688   1.493  0.0710  0.5754 -0.1214
 2248poe    c23 9693   0.460   6.741   1.428 -0.5377 -0.3996  0.1277
 2248poe    c23 9694   0.503   6.800   1.293  0.2519 -0.2864  0.4270
 2248poe     o2 9695   0.545   6.692   1.213 -0.3009 -0.3806  0.2627
 2248poe    c31 9696   0.558   6.742   1.081  0.0983  0.5970  0.6667
 2249poe    c31 9697   1.837   0.331   6.900 -0.1948 -0.0560  0.5091
 2249poe     o2 9698   1.776   0.338   6.773 -0.1170  0.5471  0.5012
 2249poe    c23 9699   1.778   0.475   6.740 -0.0268  0.4982  0.2982
 2249poe    c23 9700   1.670   0.510   6.636  0.0940 -0.3967 -0.1396
 2249poe     o2 9701   1.704   0.466   6.507  0.0727  0.0885 -0.3144
 2249poe    c23 9702   1.603   0.519   6.424  0.2157  0.5243 -0.2089
 2249poe    c23 9703   1.592   0.435   6.296 -0.1663  0.4459 -0.1239
 2249poe     o2 9704   1.549   0.305   6.330  0.4995  0.2136 -0.1531
 2249poe    c23 9705   1.554   0.212   6.224 -0.0247 -0.0415  0.0398
 2249poe    c23 9706   1.539   0.066   6.272  0.2166  0.0133  0.2907
 2249poe     o2 9707   1.414   0.053   6.336 -0.0187  0.0639 -0.1522
 2249poe    c31 9708   1.374  -0.082   6.354  0.1575 -0.0597 -0.6702
 2250poe    c31 9709   3.176   2.337   5.684 -0.1485  0.3502 -0.7651
 2250poe     o2 9710   3.273   2.392   5.770 -0.6870  0.3510 -0.1449
 2250poe    c23 9711   3.318   2.518   5.723  0.5191  0.0223  0.0889
 2250poe    c23 9712   3.399   2.612   5.814  0.2867  0.4168 -0.1120
 2250poe     o2 9713   3.525   2.569   5.859  0.0930  0.2097  0.2337
 2250poe    c23 9714   3.591   2.681   5.912 -0.0176  0.6116 -0.4674
 2250poe    c23 9715   3.731   2.623   5.939 -0.4301 -0.0358  0.3200
 2250poe     o2 9716   3.706   2.504   6.010  0.2016 -0.2240  0.2287
 2250poe    c23 9717   3.827   2.437   6.040  0.2330 -0.3540 -0.1755
 2250poe    c23 9718   3.788   2.310   6.118  0.5002 -0.3363 -0.0139
 2250poe     o2 9719   3.695   2.234   6.045 -0.0445 -0.2945  0.6313
 2250poe    c31 9720   3.731   2.098   6.052  0.2347 -0.2214  0.6311
 2251poe    c31 9721   1.804   3.425   3.044 -0.1761 -0.1876 -0.3175
 2251poe     o2 9722   1.879   3.517   2.968  0.2295 -0.3721 -0.1478
 2251poe    c23 9723   1.993   3.451   2.919  0.3424  0.0315 -0.4394
 2251poe    c23 9724   2.042   3.491   2.779 -0.0561  0.0968 -0.5612
 2251poe     o2 9725   2.127   3.602   2.758  0.2885  0.0252  0.4166
 2251poe    c23 9726   2.265   3.588   2.778  0.2807 -0.0818  0.3921
 2251poe    c23 9727   2.345   3.710   2.728  0.0454 -0.0332  0.1337
 2251poe     o2 9728   2.327   3.808   2.828  0.4788 -0.3535  0.5293
 2251poe    c23 9729   2.395   3.925   2.793 -0.4607  0.1270  0.2717
 2251poe    c23 9730   2.374   4.030   2.903 -0.1630  0.0102  0.4405
 2251poe     o2 9731   2.239   4.068   2.898 -0.2426 -0.3290 -0.0513
 2251poe    c31 9732   2.216   4.155   3.008 -0.9112 -0.0728 -0.3881
 2252poe    c31 9733   2.203   0.455   3.925 -0.1256  0.4225 -0.0692
 2252poe     o2 9734   2.344   0.468   3.919 -0.0457 -0.3395  0.0400
 2252poe    c23 9735   2.380   0.601   3.890 -0.1376 -0.2512  0.3242
 2252poe    c23 9736   2.508   0.643   3.965 -0.1302  0.3972 -0.0482
 2252poe     o2 9737   2.626   0.614   3.893 -0.1457  0.2065  0.0031
 2252poe    c23 9738   2.737   0.656   3.969 -0.1664  0.5268 -0.1421
 2252poe    c23 9739   2.862   0.595   3.902 -0.2725 -0.2408  0.3499
 2252poe     o2 9740   2.862   0.454   3.898 -0.3342 -0.2486  0.6188
 2252poe    c23 9741   2.984   0.409   3.843  0.0412  0.1014  1.1523
 2252poe    c23 9742   3.018   0.265   3.884 -0.2176 -0.1405  0.5179
 2252poe     o2 9743   2.915   0.169   3.881 -0.3484  0.0085  0.1469
 2252poe    c31 9744   2.962   0.039   3.910  0.2909  0.3949  0.8824
 2253poe    c31 9745   2.949   5.390   0.824  0.2619 -0.2397  0.1118
 2253poe     o2 9746   3.013   5.512   0.792  0.3013 -0.2040  0.3219
 2253poe    c23 9747   2.909   5.607   0.798  0.1215 -0.3778  0.0110
 2253poe    c23 9748   2.960   5.752   0.780 -0.3508 -0.1477  0.5275
 2253poe     o2 9749   2.991   5.767   0.644  0.3112  0.5412  0.7522
 2253poe    c23 9750   2.994   5.905   0.613 -0.0803  0.4047  0.0897
 2253poe    c23 9751   3.041   5.915   0.467  0.2104 -0.0416  0.1489
 2253poe     o2 9752   3.171   5.876   0.430 -0.0938 -0.4150 -0.5356
 2253poe    c23 9753   3.180   5.890   0.290 -0.0017  0.1431 -0.4734
 2253poe    c23 9754   3.314   5.853   0.224 -0.1626 -0.2407 -0.5888
 2253poe     o2 9755   3.326   5.714   0.206 -0.4082 -0.3031 -0.2727
 2253poe    c31 9756   3.408   5.683   0.095  0.3183  0.0231  0.1700
 2254poe    c31 9757   2.542   2.029   2.079  0.0248 -0.4957 -0.1280
 2254poe     o2 9758   2.405   2.016   2.111  0.1319  0.3477  0.7118
 2254poe    c23 9759   2.386   1.888   2.168  0.3433 -0.3648 -0.7644
 2254poe    c23 9760   2.234   1.892   2.197  0.4346 -0.5578 -0.2491
 2254poe     o2 9761   2.218   1.997   2.289  0.1154 -0.1941 -0.7129
 2254poe    c23 9762   2.081   2.012   2.317  0.2905 -0.3035  0.2455
 2254poe    c23 9763   2.079   2.155   2.373 -0.1985 -0.2311  0.0508
 2254poe     o2 9764   2.159   2.234   2.288  0.6147 -0.3566  0.6831
 2254poe    c23 9765   2.127   2.367   2.323 -0.2425 -0.2186 -0.5310
 2254poe    c23 9766   2.221   2.476   2.269  0.2520  0.0473  0.8111
 2254poe     o2 9767   2.356   2.458   2.306  0.3455 -0.1939  0.3679
 2254poe    c31 9768   2.445   2.531   2.225 -0.2440  0.5762  0.4109
 2255poe    c31 9769   2.752   6.908   6.414 -0.0095 -0.4930 -0.3454
 2255poe     o2 9770   2.878   6.863   6.457 -0.1038 -0.1892  0.2669
 2255poe    c23 9771   2.962   6.966   6.504  0.2222 -0.1038 -0.4930
 2255poe    c23 9772   3.083   6.897   6.570  0.1381  0.4217  0.2311
 2255poe     o2 9773   3.053   6.835   6.693 -0.3055  0.2247  0.0280
 2255poe    c23 9774   3.163   6.772   6.755 -0.1141 -0.1508 -0.6800
 2255poe    c23 9775   3.123   6.663   6.856  0.5609 -0.0613 -0.3083
 2255poe     o2 9776   3.072   6.552   6.785 -0.6856  0.0263  0.4200
 2255poe    c23 9777   3.028   6.452   6.875 -0.2727  0.1847  0.8078
 2255poe    c23 9778   2.920   6.366   6.806  0.6600 -0.2459 -0.1427
 2255poe     o2 9779   2.805   6.441   6.777  0.5796 -0.2586  0.1362
 2255poe    c31 9780   2.692   6.363   6.743 -0.4118  0.9492  0.5762
 2256poe    c31 9781   6.825   6.939   5.318  0.1130 -0.3018 -0.3095
 2256poe     o2 9782   6.847   6.805   5.358 -0.1449 -0.4409 -0.6281
 2256poe    c23 9783   6.739   6.737   5.418 -0.5967  0.4384 -0.4161
 2256poe    c23 9784   6.658   6.668   5.307 -0.4429 -0.2874 -0.0872
 2256poe     o2 9785   6.720   6.549   5.266  0.1391  0.0880 -0.3076
 2256poe    c23 9786   6.635   6.436   5.270 -0.0877  0.2318 -0.9117
 2256poe    c23 9787   6.706   6.304   5.233 -0.1137 -0.0588  0.0583
 2256poe     o2 9788   6.814   6.287   5.323 -0.2196  0.1605  0.2280
 2256poe    c23 9789   6.864   6.158   5.299  0.2506  0.3222  0.3345
 2256poe    c23 9790   6.961   6.091   5.398 -0.2950 -0.3415  0.4335
 2256poe     o2 9791   7.087   6.156   5.403 -0.2942 -0.3444  0.4520
 2256poe    c31 9792   7.190   6.072   5.450  0.1475 -0.1987 -0.2456
 2257poe    c31 9793   4.561   0.642   6.939 -0.3128  0.3133  0.0404
 2257poe     o2 9794   4.582   0.596   7.071  0.1479  0.3028 -0.0369
 2257poe    c23 9795   4.718   0.563   7.092  0.0824 -0.2581 -0.4738
 2257poe    c23 9796   4.737   0.449   7.194  0.1741  0.2620  0.0947
 2257poe     o2 9797   4.632   0.468   7.286 -0.3509 -0.2420 -0.4004
 2257poe    c23 9798   4.635   0.366   7.383 -0.0017  0.2053  0.0618
 2257poe    c23 9799   4.557   0.416   7.506 -0.5051 -0.1838 -0.0948
 2257poe     o2 9800   4.439   0.487   7.476 -0.4899 -0.0731  0.1021
 2257poe    c23 9801   4.389   0.543   7.595  0.3794  0.6685  0.1286
 2257poe    c23 9802   4.250   0.608   7.584  0.1012  0.0740  0.1341
 2257poe     o2 9803   4.268   0.721   7.502 -0.1808 -0.0668 -0.1261
 2257poe    c31 9804   4.138   0.766   7.470 -0.5087 -0.6161  0.4274
 2258poe    c31 9805   6.833   2.868   0.237  0.3033 -0.0325 -0.4396
 2258poe     o2 9806   6.862   2.762   0.148 -0.3915  0.0561 -0.7814
 2258poe    c23 9807   6.749   2.693   0.099 -0.3898 -0.4775 -0.0525
 2258poe    c23 9808   6.801   2.584   0.003  0.5062  0.0341 -0.1647
 2258poe     o2 9809   6.862   2.634  -0.114  0.0979  0.4290 -0.2110
 2258poe    c23 9810   6.920   2.526  -0.182  0.5253  0.2929  0.3630
 2258poe    c23 9811   6.990   2.566  -0.313  0.0840  1.1063  0.3702
 2258poe     o2 9812   6.907   2.637  -0.402 -0.3951  0.1030 -0.0053
 2258poe    c23 9813   6.936   2.602  -0.535  0.6007  0.9842 -0.0322
 2258poe    c23 9814   6.834   2.656  -0.637 -0.2800  0.0977  0.3666
 2258poe     o2 9815   6.828   2.797  -0.632 -0.0420  0.1069  0.4095
 2258poe    c31 9816   6.732   2.841  -0.726 -0.0360 -0.4066  0.1570
 2259poe    c31 9817   6.281   0.404   5.558 -0.0541 -0.2297  0.6309
 2259poe     o2 9818   6.285   0.271   5.605  0.1428 -0.4372  0.0340
 2259poe    c23 9819   6.154   0.221   5.594  0.0158 -0.1246  0.1082
 2259poe    c23 9820   6.131   0.075   5.639  0.1497 -0.2608 -0.2648
 2259poe     o2 9821   6.237   0.043   5.725  0.1513  0.2428 -0.0737
 2259poe    c23 9822   6.219  -0.085   5.782 -0.2421  0.3300 -0.0044
 2259poe    c23 9823   6.320  -0.118   5.893  0.1121 -1.0873 -0.7230
 2259poe     o2 9824   6.450  -0.099   5.842  0.2977  0.1860  0.1711
 2259poe    c23 9825   6.565  -0.134   5.915  0.1138 -0.0222  0.3605
 2259poe    c23 9826   6.687  -0.143   5.823 -0.0157 -0.3292  0.2148
 2259poe     o2 9827   6.723  -0.025   5.753 -1.0554  0.0657  0.3260
 2259poe    c31 9828   6.840  -0.049   5.678 -1.0734  0.6528  0.1131
 2260poe    c31 9829   0.699   6.811   3.866 -0.1738 -0.3944  0.4065
 2260poe     o2 9830   0.821   6.875   3.897 -0.1230 -0.1544 -0.2797
 2260poe    c23 9831   0.809   6.955   4.012 -0.0456 -0.1400 -0.2809
 2260poe    c23 9832   0.940   7.032   4.037 -0.3355  0.2770 -0.0234
 2260poe     o2 9833   1.060   6.958   4.037 -0.3309  0.2826 -0.7142
 2260poe    c23 9834   1.167   7.048   4.053 -0.3984  0.1920  0.2930
 2260poe    c23 9835   1.300   6.991   4.105 -0.2371  0.5257  0.2479
 2260poe     o2 9836   1.290   6.924   4.228 -0.1508 -0.3542 -0.2152
 2260poe    c23 9837   1.420   6.879   4.262  0.0350  0.3777  0.0647
 2260poe    c23 9838   1.447   6.818   4.401 -0.3844  0.3681  0.1458
 2260poe     o2 9839   1.411   6.896   4.512  0.2904  0.4318  0.3264
 2260poe    c31 9840   1.423   6.811   4.625  0.2173 -0.2943 -0.2065
 2261poe    c31 9841   0.464   1.738   0.328  0.2930 -0.1676  0.0589
 2261poe     o2 9842   0.441   1.602   0.359  0.2238 -0.1892 -0.0883
 2261poe    c23 9843   0.336   1.544   0.284 -0.2287 -0.1389  0.5013
 2261poe    c23 9844   0.289   1.413   0.351 -0.3220 -0.2672  0.1862
 2261poe     o2 9845   0.206   1.420   0.464  0.3567  0.1346  0.6649
 2261poe    c23 9846   0.202   1.288   0.515 -0.2838 -0.1971 -0.2296
 2261poe    c23 9847   0.128   1.266   0.648  0.1728  0.1127  0.0769
 2261poe     o2 9848   0.176   1.347   0.754  0.0971  0.0263  0.1774
 2261poe    c23 9849   0.106   1.327   0.875 -0.0929  0.1559  0.0903
 2261poe    c23 9850   0.180   1.396   0.992 -0.4077  0.0282  0.3656
 2261poe     o2 9851   0.199   1.535   0.979 -0.2712  0.0249  0.5263
 2261poe    c31 9852   0.294   1.584   1.071 -0.1218  0.5015  0.1222
 2262poe    c31 9853   5.293   1.828   6.071 -0.4227 -0.2230 -0.1766
 2262poe     o2 9854   5.332   1.702   6.022  0.2765 -0.0558 -0.0586
 2262poe    c23 9855   5.459   1.669   6.074  0.0014 -0.5868  0.2772
 2262poe    c23 9856   5.483   1.531   6.011 -0.1329 -0.3325 -0.3336
 2262poe     o2 9857   5.478   1.549   5.871  0.1864 -0.1234 -0.3192
 2262poe    c23 9858   5.512   1.437   5.792 -0.1750 -0.3916 -0.0947
 2262poe    c23 9859   5.479   1.470   5.645  0.3652  0.4495 -0.0331
 2262poe     o2 9860   5.353   1.533   5.639  0.4292  0.6126  0.2985
 2262poe    c23 9861   5.321   1.557   5.504  0.0928  0.3766  0.3344
 2262poe    c23 9862   5.188   1.632   5.488 -0.1869 -0.1702  0.0761
 2262poe     o2 9863   5.186   1.771   5.514 -0.0126 -0.0977 -0.2948
 2262poe    c31 9864   5.050   1.805   5.500 -0.0987 -0.2044  0.2772
 2263poe    c31 9865   0.281   4.238   7.044 -0.6194 -0.0276  0.2711
 2263poe     o2 9866   0.264   4.370   6.996  0.3287  0.0676  0.1719
 2263poe    c23 9867   0.170   4.381   6.892 -0.1319  0.0585  0.5850
 2263poe    c23 9868   0.129   4.525   6.856 -0.2195 -0.1188 -0.0324
 2263poe     o2 9869   0.230   4.591   6.783 -0.0240 -0.3068  0.0704
 2263poe    c23 9870   0.168   4.703   6.723 -0.0299 -0.4768 -0.2439
 2263poe    c23 9871   0.274   4.787   6.649 -0.1213  0.0970  0.2668
 2263poe     o2 9872   0.369   4.842   6.736  0.3316 -0.0241 -0.1440
 2263poe    c23 9873   0.468   4.893   6.649  0.2159  0.3426 -0.0642
 2263poe    c23 9874   0.607   4.887   6.715  0.1351  0.2094  0.0949
 2263poe     o2 9875   0.639   4.754   6.750 -0.3011  0.1180  0.1584
 2263poe    c31 9876   0.773   4.748   6.795 -0.2405 -0.0441 -0.0448
 2264poe    c31 9877   3.492   5.837   3.089  0.6057  0.0470 -0.9971
 2264poe     o2 9878   3.524   5.955   3.160  0.6888 -0.2055 -0.6114
 2264poe    c23 9879   3.609   5.935   3.271 -0.2004 -0.3199  0.0546
 2264poe    c23 9880   3.755   5.970   3.237 -0.1917 -0.4263 -0.0185
 2264poe     o2 9881   3.794   6.105   3.222 -0.0304 -0.4272  0.3724
 2264poe    c23 9882   3.933   6.117   3.199 -0.2494 -0.0304 -0.7980
 2264poe    c23 9883   3.974   6.265   3.217 -0.1363 -0.1413 -0.1273
 2264poe     o2 9884   3.937   6.366   3.127 -0.7460 -0.1879  0.0703
 2264poe    c23 9885   3.995   6.486   3.173 -0.2581 -0.2295 -0.4399
 2264poe    c23 9886   3.999   6.593   3.062  0.0960  0.8608  0.5994
 2264poe     o2 9887   3.872   6.641   3.024 -0.1591 -0.2868 -0.0706
 2264poe    c31 9888   3.879   6.694   2.894  0.3650  0.0464  0.0904
 2265poe    c31 9889   3.240   0.556   1.953 -0.2097 -0.6561 -0.5435
 2265poe     o2 9890   3.117   0.615   1.916  0.0976  0.4597  0.1588
 2265poe    c23 9891   3.091   0.735   1.984  0.0720  0.5847 -0.0703
 2265poe    c23 9892   2.940   0.765   1.980  0.0783  0.5902 -0.2740
 2265poe     o2 9893   2.904   0.807   1.850  0.3224  0.4459 -0.3902
 2265poe    c23 9894   2.787   0.886   1.858 -0.2560 -0.4318  0.0653
 2265poe    c23 9895   2.763   0.940   1.716  0.1292 -0.0678  0.1355
 2265poe     o2 9896   2.797   0.837   1.626 -0.2704 -0.4305  0.3922
 2265poe    c23 9897   2.762   0.890   1.500 -0.2249  0.0427  0.5758
 2265poe    c23 9898   2.766   0.773   1.400  0.0601 -0.0651  0.7115
 2265poe     o2 9899   2.898   0.725   1.390 -0.0223 -0.1272 -0.2111
 2265poe    c31 9900   2.927   0.598   1.334 -0.0430 -0.1196 -0.2390
 2266poe    c31 9901   5.860   1.159   3.451  0.3077 -0.2890  0.1034
 2266poe     o2 9902   5.816   1.143   3.318  0.0537  0.4304  0.0973
 2266poe    c23 9903   5.719   1.233   3.268 -0.7588 -0.4615  0.0566
 2266poe    c23 9904   5.702   1.185   3.123 -0.1342  0.1855 -0.2362
 2266poe     o2 9905   5.663   1.050   3.110  0.1191  0.0998 -0.1125
 2266poe    c23 9906   5.679   1.009   2.976  0.2667 -0.7768  0.1683
 2266poe    c23 9907   5.651   0.857   2.967 -0.1955 -0.6666 -0.3309
 2266poe     o2 9908   5.713   0.769   3.058 -0.7854 -0.2024  0.5340
 2266poe    c23 9909   5.689   0.634   3.026 -0.1249 -0.0672 -0.5746
 2266poe    c23 9910   5.779   0.544   3.113 -0.3349  0.3436  0.0739
 2266poe     o2 9911   5.763   0.547   3.253  0.0034 -0.6026  0.1417
 2266poe    c31 9912   5.850   0.468   3.332  0.0230 -0.4280  0.2952
 2267poe    c31 9913   5.859   5.217   5.686  0.1549 -0.3710  0.0120
 2267poe     o2 9914   5.910   5.087   5.707 -0.2451 -0.5196  0.0701
 2267poe    c23 9915   5.941   5.029   5.582  0.2804 -0.1582  0.0303
 2267poe    c23 9916   5.936   4.876   5.584 -0.7482 -0.1333 -0.0368
 2267poe     o2 9917   5.977   4.818   5.463  0.0158 -0.0908  0.2013
 2267poe    c23 9918   5.958   4.679   5.479 -0.1510 -0.1806 -0.7130
 2267poe    c23 9919   5.988   4.616   5.342  0.2667 -0.2342 -0.5963
 2267poe     o2 9920   5.940   4.710   5.249 -0.0459  0.2980  0.0932
 2267poe    c23 9921   5.940   4.634   5.130 -0.3584  0.2158  0.1479
 2267poe    c23 9922   5.899   4.729   5.017 -0.5307  0.5371  0.4785
 2267poe     o2 9923   5.995   4.832   5.025 -0.1029  0.1848 -0.0612
 2267poe    c31 9924   5.991   4.915   4.912  0.5115  0.4819  0.1293
 2268poe    c31 9925   3.133   2.592   6.148 -0.2584  0.1811 -0.3272
 2268poe     o2 9926   3.255   2.650   6.106 -0.2844  0.2859 -0.2568
 2268poe    c23 9927   3.308   2.727   6.212 -0.1930 -0.1399  0.0113
 2268poe    c23 9928   3.441   2.673   6.268 -0.1902  0.3103  0.4497
 2268poe     o2 9929   3.411   2.549   6.328 -0.2367  0.1279  0.0574
 2268poe    c23 9930   3.530   2.483   6.367 -0.2366  0.1811  0.1478
 2268poe    c23 9931   3.516   2.349   6.440 -0.8056  0.0567 -0.1850
 2268poe     o2 9932   3.477   2.229   6.377 -0.0196 -0.0618 -0.4584
 2268poe    c23 9933   3.343   2.191   6.404 -0.0923  0.6762  0.2495
 2268poe    c23 9934   3.288   2.115   6.282 -0.1327  0.1597  0.5878
 2268poe     o2 9935   3.284   2.190   6.163  0.6761 -0.8887 -0.1245
 2268poe    c31 9936   3.217   2.108   6.071  0.0334  0.1536 -0.6063
 2269poe    c31 9937   0.342   0.929   5.194  0.1494 -0.3625  0.6372
 2269poe     o2 9938   0.407   0.805   5.190  0.5600 -0.1313  0.0498
 2269poe    c23 9939   0.544   0.827   5.164  0.5889  0.0511  0.3499
 2269poe    c23 9940   0.637   0.713   5.120  0.3511  0.0171 -0.0738
 2269poe     o2 9941   0.659   0.624   5.227 -0.5136 -0.3279 -0.1678
 2269poe    c23 9942   0.748   0.528   5.175 -0.1851 -0.2489  0.2377
 2269poe    c23 9943   0.796   0.430   5.283  0.3669  0.1387  0.3507
 2269poe     o2 9944   0.859   0.490   5.394  0.8490  0.1462  0.0733
 2269poe    c23 9945   0.923   0.400   5.483 -0.4154 -0.3598  0.4877
 2269poe    c23 9946   1.043   0.477   5.542 -0.2717 -0.1790 -0.0362
 2269poe     o2 9947   0.992   0.603   5.580 -0.2640 -0.1178 -0.2277
 2269poe    c31 9948   1.066   0.654   5.688 -0.2268  0.1185 -0.3661
 2270poe    c31 9949   2.203   1.999   0.320  1.1309  0.1867 -0.0308
 2270poe     o2 9950   2.209   2.117   0.243  0.3393  0.4620  0.3145
 2270poe    c23 9951   2.285   2.086   0.129  0.3639  0.0633  0.4385
 2270poe    c23 9952   2.323   2.216   0.056 -0.0134 -0.2056 -0.2464
 2270poe     o2 9953   2.209   2.298   0.070  0.0039 -0.1785 -0.2659
 2270poe    c23 9954   2.241   2.434   0.053 -0.4764 -0.0747 -0.3544
 2270poe    c23 9955   2.120   2.529   0.065  0.0397  0.5686 -0.1807
 2270poe     o2 9956   2.050   2.497   0.183  0.0689 -0.1497 -0.3545
 2270poe    c23 9957   1.961   2.601   0.217 -0.0824 -0.1465 -0.7484
 2270poe    c23 9958   1.853   2.555   0.315  0.0908  0.4519 -0.2677
 2270poe     o2 9959   1.888   2.479   0.429 -0.0690 -0.2174 -0.6599
 2270poe    c31 9960   1.772   2.458   0.506 -0.0768 -0.3451 -0.7053
 2271poe    c31 9961   6.921   1.283   6.872 -0.0980  0.1666 -0.0528
 2271poe     o2 9962   6.914   1.422   6.848 -0.1173  0.3203  0.8065
 2271poe    c23 9963   6.791   1.445   6.783  0.4919  0.4834 -0.3192
 2271poe    c23 9964   6.763   1.597   6.778 -0.9959  0.2375 -0.0427
 2271poe     o2 9965   6.841   1.669   6.685 -0.0141 -0.4151  0.2553
 2271poe    c23 9966   6.863   1.804   6.720 -0.4244 -0.3044  0.0888
 2271poe    c23 9967   6.929   1.880   6.603  0.3083 -0.7675  0.1933
 2271poe     o2 9968   7.045   1.815   6.555  0.5185 -0.1230 -0.1811
 2271poe    c23 9969   7.075   1.864   6.426  0.6464  0.0011 -0.1051
 2271poe    c23 9970   7.191   1.778   6.375  0.3203 -0.4367 -0.1169
 2271poe     o2 9971   7.162   1.642   6.352  0.0132 -0.3901 -0.0078
 2271poe    c31 9972   7.282   1.578   6.312  0.3112  0.0207  0.2239
 2272poe    c31 9973   6.622   3.295   2.818 -0.5957 -0.1893 -0.2710
 2272poe     o2 9974   6.541   3.229   2.914  0.2595 -0.6439  0.1504
 2272poe    c23 9975   6.407   3.265   2.891  0.3147  0.0157  0.8294
 2272poe    c23 9976   6.334   3.186   3.002  0.3495 -0.0011  0.8404
 2272poe     o2 9977   6.344   3.048   2.977 -0.5908  0.0784 -0.0634
 2272poe    c23 9978   6.252   2.995   2.885  0.0380 -0.1590 -0.5662
 2272poe    c23 9979   6.241   2.846   2.924 -0.0095  0.2450  1.0590
 2272poe     o2 9980   6.372   2.794   2.916 -0.2575 -0.2042 -0.4465
 2272poe    c23 9981   6.391   2.657   2.943 -0.0680 -0.1360 -0.2321
 2272poe    c23 9982   6.543   2.630   2.949 -0.1888 -0.7001  0.3660
 2272poe     o2 9983   6.602   2.742   3.011 -0.2865 -0.2926 -0.2612
 2272poe    c31 9984   6.715   2.706   3.088  0.0561  0.7953 -0.2501
 2273poe    c31 9985   5.076   3.950   4.053 -0.2945  0.1800 -0.7194
 2273poe     o2 9986   4.994   3.843   4.094  0.0028  0.0056 -0.5747
 2273poe    c23 9987   5.054   3.719   4.122  0.1066  0.1880  0.0170
 2273poe    c23 9988   4.966   3.629   4.210 -0.1875  0.2413 -0.2233
 2273poe     o2 9989   4.872   3.554   4.137 -0.0377  0.1756 -0.3474
 2273poe    c23 9990   4.803   3.455   4.211 -0.2267  0.4333 -0.1782
 2273poe    c23 9991   4.731   3.363   4.111  0.3015  0.0582 -0.2138
 2273poe     o2 9992   4.644   3.435   4.027  0.0082  0.4801  0.4494
 2273poe    c23 9993   4.512   3.453   4.075 -0.3505  0.0653 -0.3762
 2273poe    c23 9994   4.486   3.604   4.083  0.0499  0.1250 -0.1386
 2273poe     o2 9995   4.444   3.655   3.958  0.7273  0.0143 -0.4162
 2273poe    c31 9996   4.363   3.769   3.976  0.4602 -0.2627  0.1744
 2274poe    c31 9997   6.231   4.784   2.367  0.5393 -0.6071 -0.1490
 2274poe     o2 9998   6.231   4.815   2.505  0.1813 -0.2040 -0.2404
 2274poe    c23 9999   6.296   4.722   2.588 -0.2845 -0.1928  0.1462
 2274poe    c2310000   6.241   4.743   2.730 -0.1298  0.1352  0.1583
 2274poe     o210001   6.246   4.883   2.746  0.1632  0.1112  0.2887
 2274poe    c2310002   6.222   4.906   2.883 -0.3259  0.1243  0.2028
 2274poe    c2310003   6.205   5.058   2.902 -0.5689  0.1020  0.1722
 2274poe     o210004   6.078   5.101   2.858 -0.3423  0.2976 -0.3070
 2274poe    c2310005   6.060   5.240   2.866  0.1158  0.2947  1.1736
 2274poe    c2310006   5.925   5.283   2.807  0.5948 -0.1165 -0.2746
 2274poe     o210007   5.930   5.238   2.674  0.2107  0.0291 -0.3424
 2274poe    c3110008   5.806   5.258   2.611 -0.0058 -0.0702  0.0490
 2275poe    c3110009   4.028   4.408   3.462 -0.1471  0.5557  0.2224
 2275poe     o210010   4.014   4.432   3.324  0.4433 -0.5078 -0.0377
 2275poe    c2310011   3.911   4.357   3.265 -0.1519  0.0442  0.2770
 2275poe    c2310012   3.897   4.394   3.116 -0.3475  0.5506  0.4198
 2275poe     o210013   4.010   4.364   3.037 -0.6792 -0.2390  0.2323
 2275poe    c2310014   3.977   4.352   2.900  0.1292 -0.6827  0.0722
 2275poe    c2310015   4.107   4.359   2.818  0.0872 -0.0901  0.0553
 2275poe     o210016   4.182   4.473   2.853  0.0494 -0.0098 -0.1213
 2275poe    c2310017   4.313   4.471   2.800 -0.0767 -0.1003 -0.4350
 2275poe    c2310018   4.381   4.610   2.796 -0.0960 -0.0716  0.0691
 2275poe     o210019   4.379   4.642   2.933 -0.1698  0.5140 -0.0698
 2275poe    c3110020   4.471   4.745   2.964  0.2101  0.3203 -0.5453
 2276poe    c3110021   1.614   6.925   3.603 -0.0944 -0.2985 -0.1259
 2276poe     o210022   1.506   6.995   3.545 -0.1887  0.0367  0.4518
 2276poe    c2310023   1.507   7.126   3.598 -0.2921  0.4525 -0.5630
 2276poe    c2310024   1.363   7.178   3.589 -0.2568  0.6280 -0.1220
 2276poe     o210025   1.281   7.073   3.635  0.0815  0.0840 -0.7506
 2276poe    c2310026   1.144   7.104   3.625  0.0214  0.1129  0.0585
 2276poe    c2310027   1.055   6.988   3.673  0.0843 -0.0572 -0.2310
 2276poe     o210028   1.090   6.865   3.615  0.0985 -0.2074  0.0913
 2276poe    c2310029   0.991   6.767   3.636  0.0916 -0.1639  0.2639
 2276poe    c2310030   1.058   6.628   3.637 -0.4833 -0.4443  0.2941
 2276poe     o210031   1.160   6.625   3.735 -0.2209 -0.1426  0.0328
 2276poe    c3110032   1.215   6.496   3.749  0.2250 -0.0104 -0.4880
 2277poe    c3110033   5.996   0.281   1.660 -0.4855  0.2313  0.2268
 2277poe     o210034   5.950   0.156   1.708  0.6822 -0.2887  0.0290
 2277poe    c2310035   6.034   0.087   1.798  0.1358 -0.7024  0.2255
 2277poe    c2310036   5.965  -0.037   1.858 -0.7399 -0.2982  0.0694
 2277poe     o210037   5.840  -0.015   1.920 -0.1243  0.4557  1.0748
 2277poe    c2310038   5.788  -0.134   1.976  0.0195  0.3937  1.0775
 2277poe    c2310039   5.642  -0.124   2.025 -0.3670  0.2956 -0.0220
 2277poe     o210040   5.629  -0.082   2.159  0.1619 -0.5868  0.3135
 2277poe    c2310041   5.494  -0.073   2.201  0.0942  0.0956 -0.0415
 2277poe    c2310042   5.413   0.043   2.140 -0.3656 -0.2205 -0.0307
 2277poe     o210043   5.445   0.169   2.194  0.1616 -0.0979 -0.6138
 2277poe    c3110044   5.347   0.263   2.154 -0.0459  0.0515  0.2080
 2278poe    c3110045   1.298   2.730   2.153  0.2946  0.0059 -0.1853
 2278poe     o210046   1.325   2.754   2.289 -0.5490 -0.2544  0.0340
 2278poe    c2310047   1.330   2.632   2.361 -0.2924 -0.1622  0.1753
 2278poe    c2310048   1.367   2.657   2.508  0.0520  0.3714  0.0017
 2278poe     o210049   1.498   2.698   2.540  0.0795 -0.1276  0.5519
 2278poe    c2310050   1.599   2.600   2.530 -0.1167 -0.2668 -0.1012
 2278poe    c2310051   1.714   2.655   2.616 -0.1581 -0.0666 -0.1732
 2278poe     o210052   1.763   2.772   2.555  0.3614 -0.2546 -0.1167
 2278poe    c2310053   1.886   2.821   2.604  0.1549  0.1120  0.0341
 2278poe    c2310054   1.907   2.946   2.516 -0.3207 -0.1874 -0.5163
 2278poe     o210055   1.796   3.031   2.537 -0.1963 -0.0556 -0.3814
 2278poe    c3110056   1.815   3.154   2.471 -0.1619  0.1270 -0.0285
 2279poe    c3110057   6.782   1.747   2.549 -0.0833  0.6882  0.4670
 2279poe     o210058   6.813   1.839   2.447  0.2403  0.0879  0.0196
 2279poe    c2310059   6.716   1.938   2.422  0.3347  0.1252 -0.2068
 2279poe    c2310060   6.756   2.042   2.315 -0.5788  0.6326 -0.0649
 2279poe     o210061   6.792   1.982   2.193 -0.8463  0.1581  0.0867
 2279poe    c2310062   6.835   2.078   2.100 -0.9203 -0.0373 -0.1527
 2279poe    c2310063   6.875   1.994   1.978 -0.1221  0.2663 -0.1091
 2279poe     o210064   7.005   1.941   1.989  0.1069  0.8414  0.0213
 2279poe    c2310065   7.047   1.883   1.868 -0.1690  0.0709  0.2851
 2279poe    c2310066   7.201   1.875   1.861 -0.1957  0.2066 -0.6438
 2279poe     o210067   7.248   1.746   1.893  0.0100  0.3070 -0.5367
 2279poe    c3110068   7.387   1.732   1.876 -0.0097 -0.1288 -0.3488
 2280poe    c3110069   4.847   4.570   3.719  0.5844  0.2781  0.3881
 2280poe     o210070   4.862   4.606   3.854  0.1193  0.2050  0.4622
 2280poe    c2310071   4.981   4.551   3.907  0.1097 -0.1580  0.1112
 2280poe    c2310072   4.988   4.531   4.059  0.3328  0.1583  0.1450
 2280poe     o210073   4.912   4.420   4.104  0.4298 -0.2344 -0.6494
 2280poe    c2310074   4.984   4.333   4.187  0.1686  0.1636 -0.0028
 2280poe    c2310075   4.911   4.200   4.218 -0.3714  0.4092 -0.2040
 2280poe     o210076   4.796   4.213   4.299 -0.0184  0.4446  0.2955
 2280poe    c2310077   4.758   4.090   4.355  0.0792  0.2838  0.0106
 2280poe    c2310078   4.628   4.049   4.283  0.1008 -0.8063  0.5576
 2280poe     o210079   4.506   4.109   4.318 -0.0985 -0.4385 -0.6985
 2280poe    c3110080   4.401   4.106   4.224 -0.3849 -0.3668 -0.3834
 2281poe    c3110081   5.017   4.933   2.381  0.5131 -0.0372  0.3117
 2281poe     o210082   5.001   5.024   2.275 -0.2851 -0.1754  0.3043
 2281poe    c2310083   4.987   5.158   2.315  0.1974  0.0190 -0.1604
 2281poe    c2310084   4.848   5.214   2.348  0.0975 -0.3777  0.0995
 2281poe     o210085   4.776   5.253   2.233  0.2260  0.4161  0.2772
 2281poe    c2310086   4.641   5.218   2.257  0.1838  0.2078 -0.2392
 2281poe    c2310087   4.547   5.307   2.174 -0.0889 -0.0883 -0.2481
 2281poe     o210088   4.571   5.281   2.038 -0.3800 -0.0824 -0.3014
 2281poe    c2310089   4.487   5.366   1.963 -0.0100  0.7220  0.1866
 2281poe    c2310090   4.464   5.294   1.829  0.1457  0.2862  0.3938
 2281poe     o210091   4.581   5.288   1.750 -0.1801  0.2812 -0.0918
 2281poe    c3110092   4.558   5.197   1.645  0.4609 -0.0380  0.0400
 2282poe    c3110093   0.358   4.333   3.757  0.1232  0.0073 -0.1654
 2282poe     o210094   0.290   4.444   3.702 -0.2143 -0.0272  0.1855
 2282poe    c2310095   0.158   4.437   3.753 -0.1131 -0.5109  0.3887
 2282poe    c2310096   0.067   4.557   3.723  0.1237 -0.2991  0.5175
 2282poe     o210097   0.083   4.673   3.802 -0.3608  0.1924 -0.0984
 2282poe    c2310098  -0.009   4.775   3.768 -0.1524  0.3513 -0.1846
 2282poe    c2310099  -0.022   4.900   3.857 -0.4266  0.2748 -0.1183
 2282poe     o210100   0.105   4.959   3.874 -0.1284 -0.3749 -0.0630
 2282poe    c2310101   0.099   5.086   3.935  0.3615 -0.2699 -0.2318
 2282poe    c2310102   0.243   5.125   3.970  0.2127  0.1767 -0.1057
 2282poe     o210103   0.337   5.110   3.865 -0.0839 -0.2564 -0.3104
 2282poe    c3110104   0.353   5.235   3.802 -0.4833  0.2880  0.6272
 2283poe    c3110105   6.963   2.011   3.141 -0.8153 -0.5132 -0.0409
 2283poe     o210106   6.899   2.108   3.219  0.0564  0.2004 -0.1981
 2283poe    c2310107   6.826   2.051   3.325  0.2813 -0.0649 -0.1868
 2283poe    c2310108   6.791   2.173   3.413 -0.1385 -0.2529 -0.0884
 2283poe     o210109   6.904   2.258   3.424 -0.2060 -0.1619 -0.1041
 2283poe    c2310110   6.876   2.387   3.472  0.4162 -0.1741  0.2990
 2283poe    c2310111   6.996   2.483   3.465 -0.1063  0.4670  0.0720
 2283poe     o210112   7.041   2.512   3.334 -0.1619  0.3018  0.0164
 2283poe    c2310113   7.162   2.584   3.337 -0.3064  0.5435  0.0458
 2283poe    c2310114   7.244   2.578   3.207  0.3521 -0.1641  0.4916
 2283poe     o210115   7.283   2.445   3.178 -0.3427 -0.2551 -0.0380
 2283poe    c3110116   7.319   2.423   3.044 -0.1872 -0.3195  0.0150
 2284poe    c3110117   3.760   2.345   2.396  0.3583  0.6495  0.2301
 2284poe     o210118   3.703   2.281   2.508  0.3443 -0.0036 -0.1472
 2284poe    c2310119   3.573   2.230   2.486  0.4455 -0.2757 -0.1245
 2284poe    c2310120   3.542   2.122   2.591 -0.1206  0.1950  0.1992
 2284poe     o210121   3.603   2.171   2.708  0.3319 -0.7362  0.3592
 2284poe    c2310122   3.587   2.099   2.828 -0.2620 -0.0328  0.7063
 2284poe    c2310123   3.621   2.169   2.961  0.3329  0.2369  0.4151
 2284poe     o210124   3.752   2.222   2.964  0.3050  0.3194  0.2136
 2284poe    c2310125   3.844   2.140   3.032  0.3283 -0.2796 -0.5278
 2284poe    c2310126   3.978   2.214   3.045  0.2488 -0.2405  0.1421
 2284poe     o210127   3.983   2.292   3.162 -0.3659 -0.1867  0.1345
 2284poe    c3110128   4.112   2.345   3.185 -0.3473 -0.2073  0.0775
 2285poe    c3110129   1.626   4.510   1.177 -0.1586 -0.2125  0.0128
 2285poe     o210130   1.644   4.645   1.140 -0.2833  0.0265  0.8094
 2285poe    c2310131   1.518   4.705   1.115 -0.1378  0.1284  0.3119
 2285poe    c2310132   1.551   4.855   1.110  0.1851  0.0504 -0.0022
 2285poe     o210133   1.579   4.918   1.233 -0.0594  0.2467 -0.0448
 2285poe    c2310134   1.610   5.053   1.206  0.3560  0.1632  0.0076
 2285poe    c2310135   1.650   5.148   1.321 -0.1106  0.8279 -0.3753
 2285poe     o210136   1.782   5.134   1.369 -0.3055 -0.2337 -0.1204
 2285poe    c2310137   1.805   5.215   1.482  0.3055 -0.1100 -0.3306
 2285poe    c2310138   1.952   5.245   1.516  0.2231  0.1855 -0.2332
 2285poe     o210139   2.032   5.333   1.440  0.0171  0.3179 -0.2986
 2285poe    c3110140   2.037   5.288   1.307  0.1609  0.2607 -0.2735
 2286poe    c3110141   0.742   2.475   5.692 -0.2182 -0.1776 -0.1044
 2286poe     o210142   0.750   2.380   5.588  0.1053 -0.1294 -0.1254
 2286poe    c2310143   0.747   2.441   5.460  0.4525  0.4291  0.1263
 2286poe    c2310144   0.769   2.331   5.354 -0.1886  0.4473 -0.0337
 2286poe     o210145   0.671   2.230   5.360  0.2718  0.0031  0.0861
 2286poe    c2310146   0.700   2.121   5.275  0.2995  0.3075 -0.3021
 2286poe    c2310147   0.573   2.051   5.222  0.4657 -0.0732 -0.2037
 2286poe     o210148   0.505   2.008   5.337  0.5873 -0.0903 -0.1380
 2286poe    c2310149   0.403   1.916   5.306 -0.1090  0.5585  0.1788
 2286poe    c2310150   0.371   1.860   5.446 -0.4513  0.0006 -0.1183
 2286poe     o210151   0.353   1.964   5.540  0.2236 -0.1064  0.1347
 2286poe    c3110152   0.349   1.924   5.675  0.0572 -0.0272  0.1535
 2287poe    c3110153   4.098   6.163   6.078 -0.2383 -0.9971  0.1174
 2287poe     o210154   4.172   6.063   6.145  0.7023 -0.3811  0.0200
 2287poe    c2310155   4.166   5.955   6.054 -0.5849 -0.0396 -0.3142
 2287poe    c2310156   4.204   5.830   6.135 -0.0307  0.1270 -0.3102
 2287poe     o210157   4.301   5.868   6.229 -0.1471 -0.1758 -0.0660
 2287poe    c2310158   4.343   5.765   6.316 -0.2593  0.2350  0.4760
 2287poe    c2310159   4.474   5.811   6.384  0.4710 -0.1523 -0.6473
 2287poe     o210160   4.453   5.943   6.428 -0.1826 -0.4350 -0.0858
 2287poe    c2310161   4.574   5.987   6.485 -0.2332 -0.3095 -0.0760
 2287poe    c2310162   4.563   6.108   6.579 -0.0982 -0.0791 -0.3537
 2287poe     o210163   4.505   6.217   6.510  0.0616  0.2321 -0.0046
 2287poe    c3110164   4.499   6.323   6.603 -0.0322  0.0230  0.2301
 2288poe    c3110165   6.455   5.470   3.354  0.0264  0.4818 -0.2427
 2288poe     o210166   6.499   5.410   3.234 -0.2204 -0.1978  0.0031
 2288poe    c2310167   6.581   5.298   3.259 -0.3214 -0.1581  0.5334
 2288poe    c2310168   6.627   5.260   3.117 -0.9709  0.2622  0.2061
 2288poe     o210169   6.667   5.376   3.048 -0.2652 -0.0043  0.1526
 2288poe    c2310170   6.719   5.337   2.923  0.1464  0.1722  0.2700
 2288poe    c2310171   6.739   5.465   2.839 -0.0711  0.3467  0.4836
 2288poe     o210172   6.609   5.518   2.823 -0.2540 -0.0210  0.7218
 2288poe    c2310173   6.597   5.621   2.727 -0.2876 -0.1601  0.5766
 2288poe    c2310174   6.457   5.614   2.664 -0.2158  0.4614  0.3426
 2288poe     o210175   6.361   5.639   2.764 -0.2802  0.3846  0.2999
 2288poe    c3110176   6.238   5.597   2.708  0.1212 -0.0761 -0.2444
 2289poe    c3110177   1.574   5.103   3.592  0.1068 -0.0009  0.4236
 2289poe     o210178   1.543   4.989   3.515  0.4431  0.1354  0.0825
 2289poe    c2310179   1.599   4.860   3.532 -0.3165 -0.2198 -0.0769
 2289poe    c2310180   1.542   4.772   3.420 -0.7700  0.1889 -0.1708
 2289poe     o210181   1.586   4.815   3.293 -0.2860 -0.1178 -0.1088
 2289poe    c2310182   1.532   4.734   3.191  0.6296 -0.2823 -0.4749
 2289poe    c2310183   1.613   4.762   3.063  0.6063 -0.2704 -0.4870
 2289poe     o210184   1.629   4.902   3.057  0.3163 -0.2122  0.0368
 2289poe    c2310185   1.658   4.942   2.925 -0.7882  0.0115 -0.1464
 2289poe    c2310186   1.736   5.074   2.914 -0.0910 -0.4082 -0.3140
 2289poe     o210187   1.665   5.182   2.972  0.0034 -0.2459 -0.4999
 2289poe    c3110188   1.731   5.296   2.922 -0.6260  0.3370 -0.0223
 2290poe    c3110189   0.617   2.531   6.557 -0.4117  0.0843 -0.3869
 2290poe     o210190   0.676   2.404   6.543 -0.3502  0.0778 -0.0864
 2290poe    c2310191   0.590   2.302   6.589 -0.3736  0.1978  0.1380
 2290poe    c2310192   0.656   2.166   6.559  0.1251  0.5318 -0.2911
 2290poe     o210193   0.784   2.157   6.619 -0.1183  0.0231  0.1608
 2290poe    c2310194   0.867   2.049   6.583  0.0370 -0.0534  0.7384
 2290poe    c2310195   0.960   2.001   6.696  0.6057  0.2446  0.4033
 2290poe     o210196   1.028   2.107   6.758  0.3749  0.4783  0.2610
 2290poe    c2310197   1.128   2.067   6.850  0.4227 -0.2004 -0.0795
 2290poe    c2310198   1.216   2.190   6.877 -0.0052  0.1862 -0.4126
 2290poe     o210199   1.122   2.287   6.917 -0.2028 -0.3654  0.4987
 2290poe    c3110200   1.180   2.379   7.008 -0.1709  0.1943 -0.0752
 2291poe    c3110201   3.616   3.721   3.761 -0.4059  0.3467 -0.2189
 2291poe     o210202   3.576   3.785   3.880  0.0711  0.3065 -0.0339
 2291poe    c2310203   3.666   3.886   3.920  0.4366  0.0879 -0.3008
 2291poe    c2310204   3.618   3.902   4.066  0.1854 -0.0857 -0.3638
 2291poe     o210205   3.485   3.949   4.063  0.2288  0.0262 -0.4808
 2291poe    c2310206   3.454   4.025   4.177 -0.0096 -0.5991 -0.1296
 2291poe    c2310207   3.317   4.093   4.168  0.2527 -0.0349  0.1046
 2291poe     o210208   3.286   4.168   4.052 -0.1241  0.0824  0.2776
 2291poe    c2310209   3.152   4.156   4.011 -0.0435 -0.3654  0.1422
 2291poe    c2310210   3.123   4.201   3.866  0.4838 -0.8836 -0.1287
 2291poe     o210211   3.194   4.136   3.763  0.4265 -0.3170 -0.5305
 2291poe    c3110212   3.108   4.135   3.651  0.2617  0.0483 -0.4091
 2292poe    c3110213   1.961   1.090   0.128 -0.0953 -0.7963  0.3242
 2292poe     o210214   1.967   1.069   0.268  0.2013  0.0248  0.4424
 2292poe    c2310215   2.099   1.047   0.312  0.3052 -0.2100  0.0220
 2292poe    c2310216   2.095   0.979   0.450  0.7263 -0.1089  0.0862
 2292poe     o210217   2.012   1.057   0.535  0.3607 -0.2615 -0.1298
 2292poe    c2310218   1.989   0.997   0.660 -0.2261 -0.3883 -0.2928
 2292poe    c2310219   1.899   0.872   0.663 -0.5099 -0.1775  0.0636
 2292poe     o210220   1.762   0.905   0.652 -0.4454  0.0914  0.0544
 2292poe    c2310221   1.683   0.788   0.662 -0.2852 -0.0495 -0.3036
 2292poe    c2310222   1.537   0.828   0.686 -0.0414  0.5605  0.1876
 2292poe     o210223   1.514   0.932   0.593  0.3121  0.4268 -0.0459
 2292poe    c3110224   1.393   1.002   0.605  0.1239  0.0626  0.2104
 2293poe    c3110225   1.300   0.178   0.747 -0.0860 -0.0895 -0.5970
 2293poe     o210226   1.364   0.292   0.798  0.3583 -0.4891 -0.2497
 2293poe    c2310227   1.298   0.336   0.915  0.8772  0.3945 -0.2801
 2293poe    c2310228   1.387   0.425   1.004  0.2298  0.0830  0.6993
 2293poe     o210229   1.495   0.363   1.071  0.1498 -0.8307  0.0031
 2293poe    c2310230   1.557   0.462   1.149 -0.3703 -0.2199 -0.3515
 2293poe    c2310231   1.650   0.416   1.263  0.1391  0.7839 -0.3531
 2293poe     o210232   1.774   0.361   1.225 -0.2298 -0.2237 -0.1185
 2293poe    c2310233   1.831   0.270   1.316  0.1835  0.1907  0.0421
 2293poe    c2310234   1.974   0.222   1.282  0.1442  0.3440 -0.3482
 2293poe     o210235   1.975   0.128   1.176  0.1215 -0.4770  0.3624
 2293poe    c3110236   2.101   0.075   1.144  0.1045  0.0866 -0.6882
 2294poe    c3110237   1.242   0.463   0.540 -0.0350  0.5780 -0.3197
 2294poe     o210238   1.244   0.357   0.447 -0.0335  0.0234  0.3016
 2294poe    c2310239   1.113   0.305   0.436  0.1887 -0.5708  0.4225
 2294poe    c2310240   1.097   0.166   0.372  0.6140 -0.1078 -0.7060
 2294poe     o210241   1.180   0.075   0.440 -0.1688 -0.3537 -0.0773
 2294poe    c2310242   1.139  -0.056   0.405  0.0163 -0.3191 -0.4318
 2294poe    c2310243   1.244  -0.158   0.450  0.2332 -0.2513 -0.7855
 2294poe     o210244   1.375  -0.138   0.403  0.3770 -0.0264 -0.2964
 2294poe    c2310245   1.458  -0.225   0.477 -0.2101 -0.3712 -0.0370
 2294poe    c2310246   1.599  -0.190   0.425 -0.3729  0.2015 -0.1025
 2294poe     o210247   1.615  -0.055   0.389  0.6458  0.1472  0.1012
 2294poe    c3110248   1.749  -0.020   0.365  0.7869  0.0764  0.7659
 2295poe    c3110249   2.810   7.055   3.485  0.0327  0.0311 -0.1826
 2295poe     o210250   2.890   6.940   3.497 -0.3657 -0.1582  0.7294
 2295poe    c2310251   3.025   6.974   3.519 -0.2288  0.0130 -0.3288
 2295poe    c2310252   3.104   6.850   3.565  0.6090  0.7237  0.1802
 2295poe     o210253   3.047   6.790   3.680  0.3712  0.5015 -0.0516
 2295poe    c2310254   3.126   6.683   3.727 -0.1531  0.2601  0.2808
 2295poe    c2310255   3.035   6.603   3.822 -0.1992  0.2413  0.2209
 2295poe     o210256   2.910   6.558   3.776 -0.2707  0.3225  0.3335
 2295poe    c2310257   2.852   6.466   3.866  0.2035  0.1817  0.4973
 2295poe    c2310258   2.698   6.459   3.865  0.2029  0.1888 -0.1198
 2295poe     o210259   2.638   6.377   3.768  0.3768 -0.0745 -0.0055
 2295poe    c3110260   2.509   6.350   3.818  0.0861  0.1733 -0.6153
 2296poe    c3110261   4.216   3.084   1.070 -0.1550  0.2595 -0.3820
 2296poe     o210262   4.321   3.009   1.127 -0.4870 -0.0195 -0.1327
 2296poe    c2310263   4.322   3.031   1.266  0.6432  0.0896 -0.1528
 2296poe    c2310264   4.440   2.957   1.332 -0.0005 -0.9321 -0.1277
 2296poe     o210265   4.564   2.998   1.279 -0.1212  0.4856  0.6537
 2296poe    c2310266   4.663   2.898   1.278  0.3154  0.9095  0.6892
 2296poe    c2310267   4.795   2.957   1.227  0.5463 -0.0601  0.1317
 2296poe     o210268   4.793   3.002   1.093  0.2255 -0.9009 -0.1466
 2296poe    c2310269   4.911   2.968   1.024  0.5722 -0.4311  0.2124
 2296poe    c2310270   4.874   2.978   0.875 -0.1632  0.1865  0.4257
 2296poe     o210271   4.810   3.103   0.863  0.5168  0.5197  0.2191
 2296poe    c3110272   4.762   3.120   0.732 -0.1990  0.8870  0.5256
 2297poe    c3110273   0.911   6.609   0.321 -0.0243  0.1932  0.4719
 2297poe     o210274   1.023   6.624   0.405  0.3578  0.1696 -0.0281
 2297poe    c2310275   0.985   6.607   0.540  0.7412 -0.4987  0.0008
 2297poe    c2310276   1.089   6.646   0.647 -0.0494 -0.2216  0.6767
 2297poe     o210277   1.207   6.569   0.634  0.1964  0.2300  0.1870
 2297poe    c2310278   1.296   6.596   0.740  0.0666  0.3109  0.2763
 2297poe    c2310279   1.431   6.526   0.719 -0.1397  0.0173 -0.0938
 2297poe     o210280   1.425   6.386   0.725 -0.2306  0.0282  0.0672
 2297poe    c2310281   1.555   6.334   0.716 -0.1340  0.2201  0.3312
 2297poe    c2310282   1.560   6.198   0.788 -0.6502  0.0353  0.0291
 2297poe     o210283   1.529   6.215   0.924 -0.5782 -0.1078  0.0642
 2297poe    c3110284   1.643   6.219   1.007 -0.1478  0.6953 -0.5639
 2298poe    c3110285   6.850   2.307   1.047 -0.2549  0.1420 -0.4638
 2298poe     o210286   6.833   2.299   1.187 -0.0733 -0.4374 -0.4727
 2298poe    c2310287   6.858   2.165   1.222 -0.2148 -0.4203 -0.3092
 2298poe    c2310288   6.843   2.131   1.372  0.1319  0.2011 -0.1298
 2298poe     o210289   6.939   2.188   1.458  0.0718 -0.0669  0.1143
 2298poe    c2310290   6.907   2.193   1.595 -0.3024  0.0693  0.0219
 2298poe    c2310291   6.981   2.310   1.663  0.4351 -0.3137 -0.1129
 2298poe     o210292   6.959   2.435   1.600  0.2477 -0.3267 -0.0730
 2298poe    c2310293   6.987   2.543   1.686  0.3271 -0.0148 -0.4889
 2298poe    c2310294   6.910   2.659   1.620  0.3000  0.4745  0.3820
 2298poe     o210295   6.955   2.716   1.499 -0.0701  0.6495  0.3280
 2298poe    c3110296   7.074   2.789   1.515  0.1952  0.1915  0.4454
 2299poe    c3110297   2.032   1.010   4.872  0.2445 -0.2190 -0.0995
 2299poe     o210298   2.021   0.905   4.778 -0.1606 -0.2266 -0.0477
 2299poe    c2310299   2.006   0.784   4.850 -0.1972  0.0400  0.3975
 2299poe    c2310300   1.973   0.674   4.747  0.2085  0.3243 -0.0415
 2299poe     o210301   2.076   0.640   4.657 -0.5355  0.1633 -0.8352
 2299poe    c2310302   2.090   0.500   4.641 -0.1606  0.0743  0.1931
 2299poe    c2310303   2.153   0.490   4.501 -0.4932  0.0690  0.0415
 2299poe     o210304   2.263   0.578   4.495 -0.2840 -0.1856  0.1304
 2299poe    c2310305   2.346   0.561   4.383 -0.4422  0.2197 -0.0496
 2299poe    c2310306   2.452   0.671   4.400 -0.2939 -0.0399  0.7428
 2299poe     o210307   2.381   0.793   4.411 -0.4512 -0.0730  0.1614
 2299poe    c3110308   2.459   0.908   4.387  0.3081 -0.6944 -0.4087
 2300poe    c3110309   6.201   6.333   0.844  0.2400  0.5422 -0.3013
 2300poe     o210310   6.256   6.205   0.865 -0.5771  0.2865  0.3322
 2300poe    c2310311   6.384   6.228   0.918 -0.2932  0.0685 -0.2486
 2300poe    c2310312   6.459   6.101   0.966 -0.1471  0.4117  0.4488
 2300poe     o210313   6.389   6.027   1.062  0.6625 -0.0594  0.6799
 2300poe    c2310314   6.439   5.910   1.124  0.4844 -0.3154  0.3433
 2300poe    c2310315   6.469   5.795   1.026  0.1283  0.1311 -0.2934
 2300poe     o210316   6.351   5.748   0.964 -0.0370 -0.7642  0.6839
 2300poe    c2310317   6.376   5.644   0.871 -0.3491  0.0092 -0.2822
 2300poe    c2310318   6.423   5.684   0.730  0.6444  0.5228  0.1768
 2300poe     o210319   6.330   5.763   0.658  0.1368 -0.1988  0.0245
 2300poe    c3110320   6.385   5.812   0.538 -0.1923 -0.2193 -0.1343
 2301poe    c3110321   0.173   0.433   2.731 -0.0374  0.0909  0.1111
 2301poe     o210322   0.246   0.340   2.808  0.0471 -0.0864 -0.1785
 2301poe    c2310323   0.376   0.395   2.821  0.1477 -0.2892 -0.3153
 2301poe    c2310324   0.473   0.280   2.851  0.0651 -0.1652  0.4679
 2301poe     o210325   0.509   0.200   2.740 -0.0102 -0.1085  0.4024
 2301poe    c2310326   0.561   0.075   2.780  0.3366  0.0613  0.4857
 2301poe    c2310327   0.620   0.013   2.652 -0.1824  0.7592 -0.0979
 2301poe     o210328   0.532   0.008   2.542  0.0237  0.2856 -0.2452
 2301poe    c2310329   0.586  -0.049   2.425 -0.2825 -0.1018 -0.1992
 2301poe    c2310330   0.474  -0.125   2.352 -0.0902 -0.3708 -0.2145
 2301poe     o210331   0.369  -0.032   2.338 -0.1009 -0.3921 -0.2821
 2301poe    c3110332   0.259  -0.087   2.269 -0.4942 -0.1435  0.1386
 2302poe    c3110333   3.743   7.070   4.255  0.2378 -0.2775  0.0408
 2302poe     o210334   3.803   6.995   4.358  0.2658 -0.5985 -0.2074
 2302poe    c2310335   3.721   6.948   4.462 -0.3456 -0.2582 -0.5308
 2302poe    c2310336   3.781   6.824   4.532 -0.2521  0.1855  0.1853
 2302poe     o210337   3.906   6.849   4.594 -0.6418  0.4813  0.8581
 2302poe    c2310338   3.958   6.726   4.639 -0.6932  0.3349  0.5175
 2302poe    c2310339   4.104   6.754   4.679 -0.4721  0.3205 -0.2589
 2302poe     o210340   4.104   6.884   4.734 -0.3265  0.4588 -0.5783
 2302poe    c2310341   4.223   6.910   4.805 -0.4093 -0.3660 -0.1193
 2302poe    c2310342   4.214   7.061   4.834 -0.3599 -0.3546 -0.1617
 2302poe     o210343   4.095   7.101   4.897 -0.0322  0.0092  0.2284
 2302poe    c3110344   4.099   7.239   4.928 -0.2061  0.1083 -0.1819
 2303poe    c3110345   6.284   1.718   3.693 -0.4333 -0.1020 -0.3509
 2303poe     o210346   6.221   1.797   3.593 -0.1259  0.3815 -0.1657
 2303poe    c2310347   6.266   1.776   3.461 -0.0062 -0.2266 -0.0329
 2303poe    c2310348   6.197   1.866   3.356 -0.8905 -0.3378  0.4400
 2303poe     o210349   6.233   1.823   3.227  0.2730  0.1676  0.5826
 2303poe    c2310350   6.120   1.854   3.149  0.6282 -0.5002 -0.2114
 2303poe    c2310351   6.140   1.794   3.008 -0.2490 -0.1198 -0.5061
 2303poe     o210352   6.261   1.856   2.974 -0.3669  0.2688 -0.2220
 2303poe    c2310353   6.319   1.823   2.850  0.1878  0.9214 -0.1468
 2303poe    c2310354   6.460   1.885   2.852  0.2966  0.6704  0.3692
 2303poe     o210355   6.524   1.833   2.966  0.2759 -0.7557 -0.2543
 2303poe    c3110356   6.663   1.811   2.960  0.4173  0.1007 -0.1970
 2304poe    c3110357   3.468   4.237   3.576  1.2644 -0.2030  0.0815
 2304poe     o210358   3.475   4.193   3.443 -0.2708 -0.1122 -0.0472
 2304poe    c2310359   3.438   4.057   3.429 -0.0728 -0.1202 -0.4977
 2304poe    c2310360   3.427   4.020   3.280  0.0341  0.0646 -0.5522
 2304poe     o210361   3.313   4.069   3.212 -0.2569 -0.3212 -0.3448
 2304poe    c2310362   3.290   3.984   3.102  0.6801  0.0721 -0.8623
 2304poe    c2310363   3.171   4.035   3.019  0.1170 -0.2709 -0.2804
 2304poe     o210364   3.233   4.113   2.919 -0.5833  0.9018  0.1830
 2304poe    c2310365   3.163   4.109   2.797 -0.3657 -0.0376  0.0823
 2304poe    c2310366   3.249   4.183   2.692 -0.0381 -0.1964  0.2376
 2304poe     o210367   3.259   4.321   2.716  0.1732 -0.1384 -0.1794
 2304poe    c3110368   3.380   4.374   2.668  0.1455  0.1948  0.1149
 2305poe    c3110369   1.779   3.701   5.777 -0.9492  0.7540 -0.1433
 2305poe     o210370   1.828   3.716   5.908  0.2672 -0.1715 -0.4680
 2305poe    c2310371   1.948   3.645   5.925  0.2574 -0.0476  0.1616
 2305poe    c2310372   2.009   3.657   6.065  0.1431 -0.1814  0.2229
 2305poe     o210373   2.052   3.791   6.076  0.0771 -0.1135 -0.3614
 2305poe    c2310374   2.089   3.818   6.209 -0.1951 -0.1959 -0.2675
 2305poe    c2310375   2.175   3.945   6.225  0.1818 -0.5179  0.2994
 2305poe     o210376   2.111   4.069   6.204  0.3319 -0.4677  0.1426
 2305poe    c2310377   2.210   4.165   6.235 -0.0544  0.0116 -0.0891
 2305poe    c2310378   2.217   4.270   6.123 -0.1917  0.0433 -0.0691
 2305poe     o210379   2.230   4.215   5.994 -0.2383  0.2124 -0.1457
 2305poe    c3110380   2.234   4.330   5.912  0.5317  0.0745 -0.3069
 2306poe    c3110381   5.153   1.098   0.493 -0.0156 -0.1854  0.1884
 2306poe     o210382   5.284   1.147   0.513 -0.1652  0.1687  0.3168
 2306poe    c2310383   5.283   1.275   0.454  0.2877 -0.0032 -0.0767
 2306poe    c2310384   5.364   1.390   0.516  0.2035  0.0227 -0.0135
 2306poe     o210385   5.504   1.374   0.503  0.1957 -0.1510  0.1152
 2306poe    c2310386   5.558   1.502   0.525 -0.2840  0.1160 -0.2399
 2306poe    c2310387   5.711   1.489   0.528 -0.2946 -0.1454 -0.7240
 2306poe     o210388   5.770   1.398   0.618 -0.5312  0.3649 -0.0454
 2306poe    c2310389   5.911   1.405   0.615 -0.4956  0.0957  0.8026
 2306poe    c2310390   5.974   1.274   0.667 -0.0042  0.0667  0.1371
 2306poe     o210391   5.950   1.171   0.574  0.2776  0.2492 -0.1406
 2306poe    c3110392   6.068   1.093   0.571  0.0757 -0.0851  0.3807
 2307poe    c3110393   4.963   1.267   4.497 -0.2800 -0.1154  0.6397
 2307poe     o210394   4.946   1.333   4.620 -0.2433  0.4579  0.3389
 2307poe    c2310395   5.061   1.322   4.702 -0.0291 -0.6584 -0.0977
 2307poe    c2310396   5.018   1.362   4.844 -0.4982 -0.0708 -0.3960
 2307poe     o210397   4.929   1.268   4.900  0.0985 -0.6157 -0.3380
 2307poe    c2310398   4.908   1.305   5.035 -0.2479 -0.1406 -0.5200
 2307poe    c2310399   4.784   1.232   5.089 -0.3308  0.3343 -0.0531
 2307poe     o210400   4.791   1.101   5.035 -0.4773  0.1785  0.3052
 2307poe    c2310401   4.728   1.009   5.121  0.2126 -0.4010  0.2012
 2307poe    c2310402   4.689   0.892   5.027 -0.0585 -0.0912 -0.0765
 2307poe     o210403   4.584   0.938   4.945  0.0233  0.2006 -0.0210
 2307poe    c3110404   4.586   0.858   4.829  0.2998 -0.2536  0.2920
 2308poe    c3110405   3.273   2.571   3.700  0.2813  0.0548  0.2916
 2308poe     o210406   3.336   2.483   3.610  0.2485  0.0378  0.2856
 2308poe    c2310407   3.244   2.396   3.546 -0.0830  0.7080 -0.1571
 2308poe    c2310408   3.314   2.329   3.426  0.2979  0.3448  0.2627
 2308poe     o210409   3.447   2.295   3.459  0.2284 -0.1084  0.0792
 2308poe    c2310410   3.514   2.232   3.353  0.1271 -0.0517 -0.0186
 2308poe    c2310411   3.641   2.178   3.420  0.2397  0.3633  0.1053
 2308poe     o210412   3.703   2.276   3.500  0.1179  0.0671  0.5682
 2308poe    c2310413   3.829   2.326   3.462  0.5190 -0.7601  0.7934
 2308poe    c2310414   3.879   2.433   3.561 -0.5709  0.3547  0.1631
 2308poe     o210415   3.809   2.555   3.559 -0.4982  0.3957  0.1174
 2308poe    c3110416   3.896   2.655   3.512  0.0049  0.0379  0.2903
 2309poe    c3110417   0.503   0.524   0.474  0.6765  0.1589  0.9944
 2309poe     o210418   0.401   0.430   0.501  0.0274  0.7028  0.4945
 2309poe    c2310419   0.348   0.398   0.375  0.4602 -0.0709  0.5035
 2309poe    c2310420   0.211   0.329   0.383  0.4237 -0.0646 -0.0043
 2309poe     o210421   0.245   0.192   0.377  0.1321 -0.1208 -0.4038
 2309poe    c2310422   0.127   0.123   0.345 -0.2223  0.2955 -0.0133
 2309poe    c2310423   0.155  -0.011   0.274 -0.1504  0.5141 -0.4010
 2309poe     o210424   0.226   0.001   0.153 -0.1652 -0.5538 -0.5257
 2309poe    c2310425   0.149   0.048   0.044  0.1777 -0.1081 -0.5772
 2309poe    c2310426   0.026  -0.031  -0.004 -0.2446  0.6029 -0.6715
 2309poe     o210427   0.063  -0.159  -0.052 -0.1045  0.5731 -0.4855
 2309poe    c3110428  -0.050  -0.204  -0.124 -0.2515 -0.0757  0.1382
 2310poe    c3110429   2.394   5.138   6.114  0.1811 -0.2015 -0.1028
 2310poe     o210430   2.453   5.177   6.236 -0.0491  0.6792 -0.2601
 2310poe    c2310431   2.581   5.224   6.199  0.4116 -0.0563  0.3432
 2310poe    c2310432   2.640   5.267   6.335  0.6172 -0.3571  0.3489
 2310poe     o210433   2.579   5.200   6.444 -0.6634  0.1125 -0.0566
 2310poe    c2310434   2.622   5.247   6.569 -1.2278  0.6487 -0.0613
 2310poe    c2310435   2.547   5.171   6.680 -0.2631  0.1059  0.2253
 2310poe     o210436   2.412   5.174   6.643 -0.2072 -0.1165  0.0015
 2310poe    c2310437   2.323   5.151   6.751 -0.0896  0.1543  0.1551
 2310poe    c2310438   2.179   5.145   6.698 -0.1379  0.0798  0.2953
 2310poe     o210439   2.142   5.267   6.637  0.2656 -0.0187 -0.1517
 2310poe    c3110440   2.005   5.286   6.663  0.3304  0.8915 -0.4406
 2311poe    c3110441   5.503   3.455   4.897 -0.1619  0.8312  0.0744
 2311poe     o210442   5.542   3.513   5.019  0.4119  0.4448  0.0815
 2311poe    c2310443   5.542   3.415   5.120  0.4848 -0.0351 -0.3807
 2311poe    c2310444   5.544   3.459   5.268 -0.1799 -0.5102 -0.2292
 2311poe     o210445   5.662   3.517   5.318 -0.5843  0.2653 -0.1632
 2311poe    c2310446   5.724   3.427   5.408  0.2483  0.3878 -0.6062
 2311poe    c2310447   5.848   3.484   5.479  0.0804 -0.0618  0.0618
 2311poe     o210448   5.957   3.511   5.393 -0.0121  0.2530  0.0428
 2311poe    c2310449   6.082   3.523   5.457 -0.1920 -0.6342  0.5711
 2311poe    c2310450   6.209   3.523   5.370 -0.7614 -0.1435 -0.2705
 2311poe     o210451   6.219   3.610   5.260 -0.1180  0.1001 -0.0224
 2311poe    c3110452   6.358   3.614   5.233 -0.2060 -0.2255 -0.5293
 2312poe    c3110453   6.244   3.918   0.045  0.5781  0.0056  0.2651
 2312poe     o210454   6.284   3.910  -0.089 -0.0546  0.1460  0.0626
 2312poe    c2310455   6.402   3.985  -0.107  0.3840 -0.5201  0.0866
 2312poe    c2310456   6.468   3.965  -0.245  0.1778  0.5447 -0.1754
 2312poe     o210457   6.545   3.848  -0.249 -0.3366  0.1793  0.4167
 2312poe    c2310458   6.563   3.804  -0.382 -0.0785  0.6704  0.2880
 2312poe    c2310459   6.622   3.665  -0.414 -0.2963  0.7314 -0.3969
 2312poe     o210460   6.596   3.609  -0.541  0.1791 -0.0107 -0.1732
 2312poe    c2310461   6.608   3.469  -0.536 -0.5936 -0.0746 -0.0148
 2312poe    c2310462   6.527   3.408  -0.652 -0.6191 -0.6242  0.2892
 2312poe     o210463   6.389   3.438  -0.653 -0.5500 -0.3091  0.0115
 2312poe    c3110464   6.319   3.398  -0.769  0.0517 -0.3030 -0.3599
 2313poe    c3110465   1.401   1.914   4.143 -0.1532 -0.3331  0.3031
 2313poe     o210466   1.436   1.992   4.256  0.0518  0.3539 -0.2306
 2313poe    c2310467   1.466   2.123   4.211  0.0529  0.4551  0.0617
 2313poe    c2310468   1.469   2.217   4.332  0.5088  0.5857 -0.0518
 2313poe     o210469   1.339   2.241   4.379  0.4221 -0.4033  0.2489
 2313poe    c2310470   1.346   2.307   4.503  0.3487 -0.3399  0.2197
 2313poe    c2310471   1.209   2.370   4.532  0.4153 -0.0221 -0.1488
 2313poe     o210472   1.100   2.281   4.521  0.2533  0.1970 -0.3434
 2313poe    c2310473   0.988   2.344   4.578  0.3671 -0.0832  0.1965
 2313poe    c2310474   0.862   2.255   4.578  0.0000  0.4315  0.1599
 2313poe     o210475   0.803   2.248   4.450  0.1981 -0.4660  0.1105
 2313poe    c3110476   0.673   2.200   4.476 -0.0338 -0.1911 -0.5098
 2314poe    c3110477   6.326   4.581   3.552  0.3026 -0.5828  0.0469
 2314poe     o210478   6.237   4.669   3.617  0.4083 -0.1213 -0.4212
 2314poe    c2310479   6.298   4.728   3.730 -0.6005 -0.3808  0.2782
 2314poe    c2310480   6.198   4.795   3.826 -0.2298  0.0947  0.3382
 2314poe     o210481   6.093   4.847   3.746 -0.0002  0.0157 -0.0168
 2314poe    c2310482   6.005   4.926   3.823 -0.1616 -0.0621 -0.1209
 2314poe    c2310483   5.909   4.979   3.715 -0.2347 -0.3662 -0.2050
 2314poe     o210484   5.830   4.886   3.644  0.1716 -0.4758 -0.5142
 2314poe    c2310485   5.742   4.951   3.555  0.3022  0.5812  0.1078
 2314poe    c2310486   5.651   4.843   3.493  0.7331  0.1797  0.1628
 2314poe     o210487   5.735   4.733   3.469  0.0111 -0.3715  0.1327
 2314poe    c3110488   5.679   4.665   3.359  0.4967 -0.0856 -0.2949
 2315poe    c3110489   1.607   4.455   2.450  0.0017  0.6059  0.1096
 2315poe     o210490   1.650   4.589   2.450  0.3765  0.4863 -0.1025
 2315poe    c2310491   1.659   4.624   2.587  0.5358 -0.0416  0.0261
 2315poe    c2310492   1.724   4.761   2.617  0.2869  0.1386 -0.2548
 2315poe     o210493   1.863   4.752   2.598  0.3006  0.0148 -0.0966
 2315poe    c2310494   1.921   4.877   2.624 -0.0625  0.0592  0.5259
 2315poe    c2310495   2.075   4.877   2.621 -0.0695  0.1845 -0.0105
 2315poe     o210496   2.129   4.863   2.491  0.1539  0.0878  0.0911
 2315poe    c2310497   2.269   4.848   2.488  0.1310 -0.0568 -0.2583
 2315poe    c2310498   2.322   4.886   2.349  0.2817 -0.1605 -0.2292
 2315poe     o210499   2.264   4.816   2.241 -0.5798  0.1647  0.0180
 2315poe    c3110500   2.303   4.868   2.117  0.2895 -0.2823  0.0938
 2316poe    c3110501   0.306   4.764   1.561  0.0948  0.1398 -0.0006
 2316poe     o210502   0.447   4.756   1.557  0.0979  0.2988 -0.2167
 2316poe    c2310503   0.495   4.829   1.446 -0.3035  0.0981 -0.5280
 2316poe    c2310504   0.642   4.869   1.470 -0.2860 -0.2758  0.0199
 2316poe     o210505   0.721   4.759   1.510  0.1020  0.1271  0.3764
 2316poe    c2310506   0.848   4.804   1.549  0.3263  0.0772 -0.2862
 2316poe    c2310507   0.909   4.701   1.646  0.0381 -0.1040 -0.2985
 2316poe     o210508   0.893   4.569   1.598 -0.0818 -0.2602  0.1639
 2316poe    c2310509   0.965   4.488   1.688 -0.7564 -0.3559  0.6229
 2316poe    c2310510   0.936   4.344   1.641  0.3151 -0.7196  1.0659
 2316poe     o210511   0.802   4.330   1.601  0.6013 -0.0672 -0.1708
 2316poe    c3110512   0.781   4.199   1.553 -0.0470  0.1319 -0.4359
 2317poe    c3110513   5.198   5.338   0.146  0.1080 -0.3114  0.1007
 2317poe     o210514   5.261   5.237   0.221  0.4655 -0.0466  0.1612
 2317poe    c2310515   5.370   5.290   0.293  0.4060  0.2816  0.0107
 2317poe    c2310516   5.432   5.187   0.390 -0.3688 -0.3329 -0.1371
 2317poe     o210517   5.347   5.132   0.488  0.4822 -0.8481  0.3179
 2317poe    c2310518   5.352   5.199   0.612  0.2935 -0.5739  0.1775
 2317poe    c2310519   5.275   5.106   0.708 -0.0767 -0.2533  0.1935
 2317poe     o210520   5.155   5.060   0.650 -0.1149  0.2144 -0.1030
 2317poe    c2310521   5.043   5.088   0.731 -0.1195 -0.1200  0.0059
 2317poe    c2310522   4.903   5.051   0.679 -0.1741 -0.1729  0.1870
 2317poe     o210523   4.877   4.913   0.684 -0.3709 -0.1222  0.5701
 2317poe    c3110524   4.764   4.884   0.604  0.0197 -0.7111  0.2211
 2318poe    c3110525   0.301   6.112   4.760  0.0755  0.2638  0.3056
 2318poe     o210526   0.382   6.022   4.687 -0.3405 -0.2049  0.4174
 2318poe    c2310527   0.433   5.934   4.784  0.1829 -0.3987 -0.0292
 2318poe    c2310528   0.509   5.815   4.723  0.5144 -0.4139  0.4055
 2318poe     o210529   0.421   5.717   4.672  0.0216  0.3914 -0.3161
 2318poe    c2310530   0.386   5.622   4.770  0.1370  0.3363 -0.3283
 2318poe    c2310531   0.301   5.504   4.718  0.0275  0.1785  0.2032
 2318poe     o210532   0.377   5.424   4.631 -0.4635  0.0328 -0.1004
 2318poe    c2310533   0.294   5.348   4.546 -0.1517 -0.0542 -0.3298
 2318poe    c2310534   0.360   5.262   4.436  0.0657  0.0799 -0.3053
 2318poe     o210535   0.446   5.166   4.492 -0.1958 -0.3271 -0.6026
 2318poe    c3110536   0.515   5.085   4.399 -0.0343 -0.5709 -0.2752
 2319poe    c3110537   1.960   7.066   4.294 -0.0178 -0.2119 -0.0359
 2319poe     o210538   2.043   7.103   4.402 -0.4820  0.3349  0.1393
 2319poe    c2310539   1.974   7.108   4.525 -0.1093 -0.1376  0.3665
 2319poe    c2310540   2.081   7.097   4.636  0.0839 -0.0255  0.1938
 2319poe     o210541   2.138   6.968   4.649  0.2669  0.0554  0.1990
 2319poe    c2310542   2.268   6.963   4.702  0.1210 -0.2996  0.5291
 2319poe    c2310543   2.357   6.843   4.666  0.7310  0.2350  0.2280
 2319poe     o210544   2.394   6.826   4.531  0.4546  0.1085  0.1660
 2319poe    c2310545   2.416   6.690   4.503 -0.3003  0.0419 -0.1179
 2319poe    c2310546   2.380   6.657   4.357 -0.1828 -0.1084 -0.1128
 2319poe     o210547   2.243   6.678   4.330 -0.2692  0.1511  0.5001
 2319poe    c3110548   2.229   6.633   4.197  0.4414  0.6238  0.2583
 2320poe    c3110549   6.920   3.687   3.441 -0.1062  0.0519 -0.6112
 2320poe     o210550   7.026   3.595   3.455  0.0132  0.2426 -0.2477
 2320poe    c2310551   7.127   3.641   3.542 -0.1472 -0.6535  0.4291
 2320poe    c2310552   7.258   3.561   3.527  0.1566 -0.0176 -0.3765
 2320poe     o210553   7.255   3.427   3.571  0.5650  0.1125  0.0622
 2320poe    c2310554   7.292   3.416   3.706  0.2644  0.4282  0.1723
 2320poe    c2310555   7.334   3.272   3.738  0.0633  0.2952 -0.1667
 2320poe     o210556   7.239   3.193   3.671 -0.2441 -0.0324  0.6488
 2320poe    c2310557   7.265   3.054   3.672 -0.2244 -0.0352  0.1793
 2320poe    c2310558   7.126   2.999   3.634 -0.3260  0.2252  0.1734
 2320poe     o210559   7.100   3.065   3.512 -0.2147 -0.0488  0.0017
 2320poe    c3110560   6.978   3.020   3.459 -0.1612  0.0248 -0.1862
 2321poe    c3110561   3.152   2.821   5.082  0.2580  0.0246 -0.5617
 2321poe     o210562   3.187   2.833   5.218  0.3983  0.1950 -0.6118
 2321poe    c2310563   3.319   2.783   5.223  0.3494  0.1365  0.1910
 2321poe    c2310564   3.373   2.754   5.364  0.2721  0.1178  0.2172
 2321poe     o210565   3.431   2.875   5.410  0.0115  0.4201 -0.2428
 2321poe    c2310566   3.460   2.858   5.547 -0.4289  0.4073 -0.1495
 2321poe    c2310567   3.544   2.976   5.599  0.2800 -0.1174 -0.0994
 2321poe     o210568   3.470   3.095   5.595  0.1084 -0.2338 -0.3905
 2321poe    c2310569   3.532   3.212   5.644 -0.2455 -0.2226  0.0413
 2321poe    c2310570   3.582   3.298   5.527  0.1761 -0.2338  0.2126
 2321poe     o210571   3.475   3.323   5.439  0.1805 -0.0360  0.2635
 2321poe    c3110572   3.518   3.402   5.330 -0.0142 -0.1742  0.0858
 2322poe    c3110573   3.012   4.011   1.600  0.2456  0.2542  0.4890
 2322poe     o210574   3.089   4.061   1.492 -0.0642 -0.1411  0.0818
 2322poe    c2310575   3.180   4.159   1.536 -0.4304  0.0539  0.4118
 2322poe    c2310576   3.213   4.257   1.422  0.4465 -0.0438  0.5778
 2322poe     o210577   3.213   4.174   1.307  0.2943  0.7125  0.0249
 2322poe    c2310578   3.253   4.250   1.195 -0.1445  0.1277 -0.5343
 2322poe    c2310579   3.221   4.154   1.079 -0.0826  0.1134 -0.5396
 2322poe     o210580   3.096   4.090   1.096  0.1416 -0.2947 -0.4202
 2322poe    c2310581   3.028   4.105   0.973  0.3118  0.0651 -0.4720
 2322poe    c2310582   2.910   4.007   0.979  0.5034 -0.1241  0.3468
 2322poe     o210583   2.809   4.054   1.065  0.0872 -0.0169 -0.1928
 2322poe    c3110584   2.717   3.948   1.078  0.1826 -0.0756  0.0106
 2323poe    c3110585   6.044   6.460   3.110 -0.7255  0.3677 -0.5878
 2323poe     o210586   6.039   6.335   3.044  0.2596  0.2443 -0.4397
 2323poe    c2310587   6.028   6.355   2.905 -0.1238  0.0134 -0.4428
 2323poe    c2310588   5.998   6.213   2.853 -0.0686 -0.1364 -0.0665
 2323poe     o210589   6.079   6.126   2.928  0.0828 -0.1834 -0.2842
 2323poe    c2310590   6.069   5.990   2.891  0.1310 -0.3251  0.2089
 2323poe    c2310591   6.200   5.937   2.951  0.5264  0.0893 -0.2825
 2323poe     o210592   6.214   5.998   3.077 -1.0918 -0.9525  0.4166
 2323poe    c2310593   6.304   5.932   3.163 -0.0263 -0.0755 -0.0069
 2323poe    c2310594   6.319   5.983   3.308  0.6074 -0.8525  0.2092
 2323poe     o210595   6.196   6.006   3.372  0.4222 -0.4290 -0.2828
 2323poe    c3110596   6.218   6.047   3.505 -0.0805 -0.6044 -0.1418
 2324poe    c3110597   6.262   5.604   4.244 -1.0447 -0.8095  0.0895
 2324poe     o210598   6.277   5.572   4.380 -0.3161  0.0622  0.2184
 2324poe    c2310599   6.183   5.478   4.427 -0.5978  0.2297 -0.0007
 2324poe    c2310600   6.157   5.476   4.579  0.2484 -0.3617  0.1486
 2324poe     o210601   6.118   5.607   4.613 -0.0157 -0.3859 -0.0520
 2324poe    c2310602   6.093   5.612   4.752 -0.0394  0.0610 -0.0695
 2324poe    c2310603   6.072   5.754   4.808  0.3486  0.2240 -0.3318
 2324poe     o210604   6.158   5.835   4.731  0.2957  0.2311 -0.3830
 2324poe    c2310605   6.130   5.971   4.756 -0.4733  0.0557 -0.2593
 2324poe    c2310606   6.226   6.082   4.711 -0.1209 -0.1764 -0.0805
 2324poe     o210607   6.221   6.102   4.571 -0.2468  0.0994 -0.0369
 2324poe    c3110608   6.325   6.184   4.523 -0.8243  0.5360 -0.5543
 2325poe    c3110609   0.430   3.994   0.745 -0.6627  0.2523  0.3967
 2325poe     o210610   0.518   3.944   0.647 -0.2603  0.8871  0.4341
 2325poe    c2310611   0.650   3.995   0.654  0.3507 -0.6192  0.3974
 2325poe    c2310612   0.764   3.911   0.594  0.5692 -0.1445  0.1396
 2325poe     o210613   0.761   3.913   0.453 -0.0606  0.4002  0.1587
 2325poe    c2310614   0.875   3.848   0.403 -0.4104 -0.2470  0.1926
 2325poe    c2310615   0.864   3.837   0.249  0.0955  0.0730  0.1315
 2325poe     o210616   0.729   3.806   0.222  0.1772 -0.5560  0.4187
 2325poe    c2310617   0.712   3.789   0.083 -0.1997 -0.3413  0.4366
 2325poe    c2310618   0.565   3.745   0.071 -0.1472 -0.5229  0.4631
 2325poe     o210619   0.497   3.842   0.146  0.1904  0.3168 -0.2949
 2325poe    c3110620   0.359   3.843   0.114  0.1395 -0.4736 -0.1270
 2326poe    c3110621   6.261   3.112   4.944 -0.4053 -0.0159 -0.4349
 2326poe     o210622   6.181   3.227   4.927  0.3341  0.5076 -0.3985
 2326poe    c2310623   6.083   3.223   5.027  0.5669  0.5607 -0.1668
 2326poe    c2310624   6.026   3.365   5.044  0.0826  0.3471  0.0078
 2326poe     o210625   5.958   3.424   4.936 -0.4133  0.1013  0.1817
 2326poe    c2310626   5.913   3.555   4.964  0.5673  0.5554 -0.3307
 2326poe    c2310627   5.875   3.627   4.833 -0.1318  0.4144 -0.2050
 2326poe     o210628   5.827   3.528   4.745  0.0498  0.0300  0.1227
 2326poe    c2310629   5.799   3.594   4.623 -0.5859 -0.4558  0.0024
 2326poe    c2310630   5.779   3.490   4.512 -0.2588 -0.1621 -0.3323
 2326poe     o210631   5.879   3.396   4.544 -0.3480 -0.3010 -0.4563
 2326poe    c3110632   5.892   3.294   4.448 -0.2780 -0.0193 -0.7450
 2327poe    c3110633   4.117   1.486   3.335  0.5580  0.1011  0.0419
 2327poe     o210634   4.060   1.546   3.221 -0.2683  0.0881  0.4389
 2327poe    c2310635   3.921   1.524   3.229 -0.3503  0.4691  0.0990
 2327poe    c2310636   3.854   1.540   3.091 -0.4399 -0.0890  0.0757
 2327poe     o210637   3.884   1.664   3.032 -0.1024  0.0798  0.5904
 2327poe    c2310638   3.838   1.672   2.898  0.1671  0.3288  0.5137
 2327poe    c2310639   3.884   1.809   2.846 -0.0573  0.4539  0.6417
 2327poe     o210640   4.023   1.820   2.868  0.0146  0.2943  0.2679
 2327poe    c2310641   4.074   1.932   2.797  0.1085 -0.0677 -0.2435
 2327poe    c2310642   4.223   1.943   2.834  0.0319  0.3868 -0.0595
 2327poe     o210643   4.261   1.939   2.969 -0.0796  0.6925 -0.0182
 2327poe    c3110644   4.400   1.934   2.994 -0.2052  0.7421  0.7201
 2328poe    c3110645   0.272   1.722   7.031  0.3240 -0.1282 -0.3699
 2328poe     o210646   0.210   1.628   6.945 -0.1522  0.2660 -0.4585
 2328poe    c2310647   0.208   1.692   6.819  0.0398  0.2573 -0.4663
 2328poe    c2310648   0.111   1.610   6.732 -0.1903  0.1181 -0.0785
 2328poe     o210649   0.171   1.483   6.716 -0.2966 -0.0068  0.4639
 2328poe    c2310650   0.086   1.394   6.648 -0.2673  0.0362  0.3697
 2328poe    c2310651   0.163   1.276   6.587 -0.1365  0.4566 -0.2868
 2328poe     o210652   0.238   1.198   6.678 -0.0051  0.4450 -0.4050
 2328poe    c2310653   0.318   1.108   6.604 -0.1473 -0.3214  0.3635
 2328poe    c2310654   0.400   1.027   6.706  0.7153 -0.2745 -0.2809
 2328poe     o210655   0.433   1.116   6.811 -0.1513  0.1459 -0.3576
 2328poe    c3110656   0.520   1.057   6.905 -0.0355  0.3073 -0.3623
 2329poe    c3110657   5.283   3.677   5.661  0.1962 -0.7344  0.1166
 2329poe     o210658   5.410   3.724   5.622  0.0298 -0.3829 -0.0073
 2329poe    c2310659   5.394   3.797   5.502 -0.0290 -0.0627  0.1952
 2329poe    c2310660   5.535   3.830   5.447 -0.1252  0.2406  0.1254
 2329poe     o210661   5.587   3.902   5.556 -0.2777  0.1202  0.2798
 2329poe    c2310662   5.683   4.000   5.525  0.0058 -0.1563  0.2817
 2329poe    c2310663   5.721   4.088   5.646 -0.0635  0.1555  0.0779
 2329poe     o210664   5.765   4.002   5.749 -0.6354 -0.2716 -0.0357
 2329poe    c2310665   5.791   4.069   5.870 -0.4233 -0.6608  0.1370
 2329poe    c2310666   5.805   3.972   5.988 -0.0556 -0.1973  0.4753
 2329poe     o210667   5.705   3.873   5.981 -0.2177 -0.0012 -0.0379
 2329poe    c3110668   5.739   3.770   6.072 -0.1759 -0.4931 -0.6028
 2330poe    c3110669   3.100   4.301   2.382 -0.0476  0.1348 -0.3146
 2330poe     o210670   3.181   4.295   2.267 -0.1051 -0.6611 -0.3172
 2330poe    c2310671   3.118   4.360   2.159  0.5325  0.3134 -0.1197
 2330poe    c2310672   3.201   4.327   2.033  0.2467 -0.2909 -0.1546
 2330poe     o210673   3.331   4.381   2.039  0.0911  0.0364  0.3829
 2330poe    c2310674   3.418   4.337   1.937 -0.4614  0.5111 -0.3040
 2330poe    c2310675   3.562   4.378   1.973 -0.3957  0.3958 -0.4369
 2330poe     o210676   3.597   4.338   2.104  0.1636  0.2053 -0.6407
 2330poe    c2310677   3.736   4.335   2.126  0.0565  0.0348  0.0137
 2330poe    c2310678   3.757   4.232   2.240 -0.0809 -0.1442 -0.1230
 2330poe     o210679   3.682   4.278   2.350  0.0522 -0.3050  0.0342
 2330poe    c3110680   3.722   4.211   2.467 -0.1233  0.2234  0.4004
 2331poe    c3110681   2.709   2.467   4.506  0.4837 -0.2557 -0.1965
 2331poe     o210682   2.699   2.441   4.368 -0.5012  0.1256 -0.2041
 2331poe    c2310683   2.769   2.320   4.354 -0.0864  0.3360  0.0170
 2331poe    c2310684   2.767   2.268   4.209 -0.2335  0.1453  0.0857
 2331poe     o210685   2.633   2.290   4.172 -0.3113 -0.2995  0.1075
 2331poe    c2310686   2.594   2.212   4.061  0.0179 -0.1774 -0.0938
 2331poe    c2310687   2.442   2.193   4.064  0.0124 -0.1110  0.0394
 2331poe     o210688   2.411   2.135   4.189 -0.3034 -0.2655 -0.1102
 2331poe    c2310689   2.273   2.156   4.207 -0.2730 -0.1025 -0.0677
 2331poe    c2310690   2.234   2.171   4.356 -0.7155 -0.2580 -0.1660
 2331poe     o210691   2.290   2.281   4.424 -0.4010 -0.2993 -0.3528
 2331poe    c3110692   2.301   2.254   4.562 -0.1655  0.5498 -0.2028
 2332poe    c3110693   5.594   6.227   6.021  0.5974  0.6336 -0.3451
 2332poe     o210694   5.688   6.259   6.120  0.5774 -0.1878 -0.0535
 2332poe    c2310695   5.708   6.396   6.148  0.0150 -0.1360  0.1124
 2332poe    c2310696   5.841   6.429   6.217 -0.1195  0.5248  0.0626
 2332poe     o210697   5.831   6.413   6.357 -0.1081 -0.0712 -0.0030
 2332poe    c2310698   5.943   6.474   6.416 -0.1032 -0.2590  0.1845
 2332poe    c2310699   5.926   6.468   6.569 -0.1517 -0.0350  0.1888
 2332poe     o210700   5.924   6.336   6.619  0.2185 -0.0996  0.0347
 2332poe    c2310701   6.054   6.292   6.652  0.1507  0.0749  0.5451
 2332poe    c2310702   6.033   6.159   6.728 -0.4875 -0.2240 -0.1472
 2332poe     o210703   5.987   6.177   6.860 -0.0234  0.2085 -0.0394
 2332poe    c3110704   5.989   6.058   6.935  0.5872  0.1844 -0.0869
 2333poe    c3110705   4.503   0.313   6.717  0.7353 -0.4053 -0.1822
 2333poe     o210706   4.507   0.313   6.576  0.6851  0.0891 -0.1868
 2333poe    c2310707   4.420   0.408   6.519  0.3424  0.0539  0.2743
 2333poe    c2310708   4.417   0.396   6.366  0.1425 -0.2818  0.3030
 2333poe     o210709   4.379   0.265   6.331  0.0080 -0.0909 -0.2792
 2333poe    c2310710   4.372   0.235   6.193  0.1492 -0.0781 -0.2894
 2333poe    c2310711   4.332   0.089   6.163  0.0068 -0.2517  0.7132
 2333poe     o210712   4.214   0.051   6.230 -0.3456 -0.0879  0.1908
 2333poe    c2310713   4.170  -0.080   6.202  0.2631 -0.3240  0.3251
 2333poe    c2310714   4.038  -0.098   6.278  0.0541  0.4465  0.1526
 2333poe     o210715   4.055  -0.058   6.412  0.1493  0.4635  0.1350
 2333poe    c3110716   3.933  -0.069   6.481 -0.0260  0.5877 -0.1572
 2334poe    c3110717   0.415   6.318   3.214 -0.2568  0.5196  0.1135
 2334poe     o210718   0.313   6.282   3.305 -0.0786 -0.2865  0.0059
 2334poe    c2310719   0.269   6.402   3.365 -0.2523 -0.0199 -0.6525
 2334poe    c2310720   0.125   6.374   3.413 -0.1224 -0.6122 -0.6034
 2334poe     o210721   0.114   6.260   3.495  0.2047 -0.1246  0.1341
 2334poe    c2310722  -0.011   6.261   3.560  0.3160 -0.0540  0.3476
 2334poe    c2310723  -0.026   6.113   3.602  0.2550 -0.0822  0.2278
 2334poe     o210724   0.101   6.059   3.633  0.1314 -0.4168  0.1501
 2334poe    c2310725   0.085   5.941   3.709 -0.5480 -0.2502  0.2726
 2334poe    c2310726   0.221   5.873   3.730 -0.2946  0.0156 -0.4525
 2334poe     o210727   0.287   5.813   3.621  0.2111 -0.0472 -0.1132
 2334poe    c3110728   0.419   5.775   3.654  0.1011  0.0071  0.4049
 2335poe    c3110729   2.728   7.074   6.042 -0.4039 -0.2493 -0.1856
 2335poe     o210730   2.590   7.054   6.021 -0.5525  0.0668  0.4594
 2335poe    c2310731   2.525   6.954   6.096  0.0113 -0.3473  0.4000
 2335poe    c2310732   2.388   6.932   6.031  0.2683  0.2090 -0.3425
 2335poe     o210733   2.390   6.879   5.901 -0.3480  0.3826 -0.4286
 2335poe    c2310734   2.297   6.953   5.825 -0.3088  0.5937 -0.2697
 2335poe    c2310735   2.343   6.957   5.678  0.5141  0.2776 -0.0250
 2335poe     o210736   2.467   7.018   5.648  0.6508 -0.2027 -0.4518
 2335poe    c2310737   2.579   6.935   5.672  0.8471  0.2883  0.3513
 2335poe    c2310738   2.704   7.011   5.626  0.7267  0.0718 -0.3438
 2335poe     o210739   2.699   7.145   5.670  0.3755  0.1177 -0.5257
 2335poe    c3110740   2.823   7.211   5.683  0.4461 -0.0284 -0.4613
 2336poe    c3110741   1.815   0.872   5.377  0.1624  0.0375  0.3732
 2336poe     o210742   1.858   0.800   5.490  0.3098  0.0221  0.3069
 2336poe    c2310743   1.751   0.780   5.579  0.2804  0.8957  0.4721
 2336poe    c2310744   1.790   0.705   5.708 -0.0108  0.4689  0.3138
 2336poe     o210745   1.872   0.791   5.783  0.2303  0.4899  0.0256
 2336poe    c2310746   1.937   0.721   5.887  0.2872  0.0320 -0.3141
 2336poe    c2310747   2.027   0.815   5.969  0.3092 -0.3423  0.0933
 2336poe     o210748   2.123   0.878   5.886  0.6245 -0.2349  0.5331
 2336poe    c2310749   2.231   0.944   5.947 -0.1562  0.6791  0.9644
 2336poe    c2310750   2.301   1.029   5.839 -0.3341 -0.4837 -0.0842
 2336poe     o210751   2.206   1.087   5.752  0.2342 -0.0088 -0.3907
 2336poe    c3110752   2.268   1.192   5.680  0.0279  0.7623  0.5230
 2337poe    c3110753   4.576   6.948   4.668 -0.1514  0.1310  0.1273
 2337poe     o210754   4.481   7.050   4.647  0.2875  0.4977 -0.0926
 2337poe    c2310755   4.495   7.103   4.517  0.8212  0.2292 -0.1507
 2337poe    c2310756   4.373   7.194   4.492 -0.0618 -0.7396  0.5820
 2337poe     o210757   4.362   7.319   4.556 -0.1310 -0.2956 -0.2803
 2337poe    c2310758   4.238   7.384   4.543  0.0266 -0.0211 -0.4039
 2337poe    c2310759   4.240   7.528   4.599 -0.0502 -0.2743  0.2529
 2337poe     o210760   4.268   7.524   4.737  0.0982 -0.1695  0.2251
 2337poe    c2310761   4.275   7.653   4.792 -0.1024 -0.2599  0.4641
 2337poe    c2310762   4.328   7.644   4.936 -0.2601  0.2255  0.5570
 2337poe     o210763   4.460   7.594   4.945 -0.0614  0.6740  0.2111
 2337poe    c3110764   4.497   7.602   5.081  0.0705 -0.1533  0.2306
 2338poe    c3110765   4.643   5.464   4.901 -0.4444  0.0183  0.1686
 2338poe     o210766   4.639   5.505   5.036  0.2855  0.0283  0.1901
 2338poe    c2310767   4.700   5.412   5.122 -0.0848 -0.3536  0.0423
 2338poe    c2310768   4.851   5.432   5.142 -0.0498 -0.5612 -0.0044
 2338poe     o210769   4.892   5.555   5.199  0.7873 -0.6976 -0.3029
 2338poe    c2310770   5.033   5.562   5.204  0.7691 -0.4432 -0.1454
 2338poe    c2310771   5.082   5.684   5.284 -0.3197  0.0080 -0.1571
 2338poe     o210772   5.009   5.794   5.233 -0.5061 -0.2752 -0.5074
 2338poe    c2310773   5.032   5.912   5.307 -0.6142 -0.4573 -0.1815
 2338poe    c2310774   4.955   6.024   5.235  0.0086  0.1092  0.0207
 2338poe     o210775   4.822   5.980   5.216  0.0134  0.1884 -0.1980
 2338poe    c3110776   4.750   6.084   5.154 -0.0784  0.5335  0.4682
 2339poe    c3110777   4.392   0.843   4.462 -0.3046 -0.7873  0.1127
 2339poe     o210778   4.528   0.810   4.479 -0.1960 -0.2956  0.2116
 2339poe    c2310779   4.570   0.682   4.437  0.6135 -0.0229  0.1608
 2339poe    c2310780   4.710   0.648   4.492  0.3367 -0.4234  0.6415
 2339poe     o210781   4.719   0.628   4.631 -0.0298 -0.3097  0.6832
 2339poe    c2310782   4.852   0.609   4.674  0.2735  0.2339 -0.0014
 2339poe    c2310783   4.866   0.551   4.816 -0.5636  0.2132  0.0764
 2339poe     o210784   4.829   0.415   4.817  0.0349  0.0478  0.0879
 2339poe    c2310785   4.872   0.349   4.934  0.1590 -0.1196 -0.0501
 2339poe    c2310786   4.757   0.267   4.994 -0.1754  0.0806 -0.4096
 2339poe     o210787   4.689   0.206   4.886  0.0686 -0.0449 -0.4942
 2339poe    c3110788   4.599   0.112   4.941  0.1294 -0.1091 -0.5052
 2340poe    c3110789   6.898   7.000   0.945 -0.5899 -0.6978 -0.9845
 2340poe     o210790   6.777   7.047   1.000  0.2005  0.2894 -0.0237
 2340poe    c2310791   6.692   6.939   1.033 -0.2796  0.5135 -0.5041
 2340poe    c2310792   6.548   6.976   1.076 -0.3422 -0.6065  0.3036
 2340poe     o210793   6.475   7.044   0.976 -0.1220 -0.6471  0.1144
 2340poe    c2310794   6.339   7.008   0.974 -0.2768 -0.0590  0.1175
 2340poe    c2310795   6.264   7.112   0.888 -0.7171 -0.2036  0.3241
 2340poe     o210796   6.225   7.219   0.971  0.1624  0.2831  0.1190
 2340poe    c2310797   6.198   7.328   0.887  0.1723  0.0415 -0.2005
 2340poe    c2310798   6.182   7.461   0.964 -0.6268 -0.0765 -0.1562
 2340poe     o210799   6.306   7.525   0.979 -0.5741 -0.3015  0.3985
 2340poe    c3110800   6.305   7.617   1.086 -0.3586 -0.1507  0.2718
 2341poe    c3110801   3.751   6.811   5.737 -0.4697 -0.1157  0.0996
 2341poe     o210802   3.650   6.902   5.775 -0.0344  0.2980  0.2832
 2341poe    c2310803   3.567   6.841   5.871 -0.2605  0.0332 -0.0781
 2341poe    c2310804   3.487   6.947   5.949  0.0691 -0.0833  0.4225
 2341poe     o210805   3.548   7.070   5.981  0.1753 -0.0427  0.0770
 2341poe    c2310806   3.453   7.173   5.992  0.2158  0.0074 -0.0511
 2341poe    c2310807   3.503   7.301   6.061 -0.0642  0.3462 -0.4674
 2341poe     o210808   3.631   7.310   6.001  0.1581 -0.0527 -0.0592
 2341poe    c2310809   3.681   7.441   5.996  0.1574 -0.0450  0.1174
 2341poe    c2310810   3.809   7.436   5.911 -0.2985 -0.6747 -0.5439
 2341poe     o210811   3.880   7.317   5.936  0.2044 -0.2433  0.1211
 2341poe    c3110812   4.021   7.328   5.938  0.1842 -0.0234  0.4349
 2342poe    c3110813   1.075   2.166   5.670  0.1166  0.6785  0.4601
 2342poe     o210814   1.075   2.027   5.645 -0.3799  0.6764  0.4626
 2342poe    c2310815   0.973   1.961   5.716  0.1828 -0.4774  0.2074
 2342poe    c2310816   0.839   1.960   5.641  0.1166 -0.0234  0.3183
 2342poe     o210817   0.833   1.910   5.509 -0.1854 -0.0720  0.3478
 2342poe    c2310818   0.744   1.802   5.495  0.0189 -0.2111  0.1115
 2342poe    c2310819   0.755   1.738   5.355  0.0992 -0.0959  0.0651
 2342poe     o210820   0.882   1.685   5.326  0.2101  0.1061  0.1823
 2342poe    c2310821   0.876   1.545   5.322  0.6212  0.1016 -0.4276
 2342poe    c2310822   0.908   1.476   5.456  0.3744 -0.4261 -0.6323
 2342poe     o210823   1.045   1.488   5.487  0.3198 -0.1255 -0.4943
 2342poe    c3110824   1.069   1.407   5.600  0.1988  0.5332  0.0083
 2343poe    c3110825   4.096   4.380   0.632 -0.2188  0.1839 -0.1318
 2343poe     o210826   4.091   4.391   0.492 -0.1455  0.3415 -0.1221
 2343poe    c2310827   4.211   4.439   0.436 -0.0832  0.5202  0.1607
 2343poe    c2310828   4.195   4.450   0.283  0.1987  0.1314  0.1005
 2343poe     o210829   4.057   4.455   0.255  0.2632  0.6829 -0.1384
 2343poe    c2310830   4.036   4.427   0.118  0.0836  0.2295 -0.0186
 2343poe    c2310831   3.901   4.493   0.085  0.0222  0.1965  0.1632
 2343poe     o210832   3.799   4.436   0.164  0.3464 -0.7430 -0.0793
 2343poe    c2310833   3.672   4.477   0.120  0.4818  0.2705  0.4449
 2343poe    c2310834   3.559   4.389   0.178  0.6623 -0.1874  0.1073
 2343poe     o210835   3.542   4.254   0.143  0.5079 -0.2512  0.4215
 2343poe    c3110836   3.445   4.198   0.228  0.3459  0.4656  0.7114
 2344poe    c3110837   3.129   2.895   4.678  0.3268 -0.0278  0.6766
 2344poe     o210838   3.199   2.779   4.717  0.2436 -0.4289 -0.3322
 2344poe    c2310839   3.330   2.798   4.670  0.2606  0.2658 -0.0191
 2344poe    c2310840   3.404   2.663   4.687 -0.0066  0.0623 -0.4487
 2344poe     o210841   3.385   2.591   4.806  0.6423  0.1157 -0.3071
 2344poe    c2310842   3.479   2.630   4.904  0.5822  0.1446 -0.2607
 2344poe    c2310843   3.502   2.497   4.978  0.3009  0.2441  0.0073
 2344poe     o210844   3.369   2.455   4.998  0.2651  0.3623  0.0183
 2344poe    c2310845   3.357   2.328   5.060 -0.0021  0.0887 -0.5846
 2344poe    c2310846   3.205   2.309   5.059 -0.0641  0.5337 -0.1735
 2344poe     o210847   3.168   2.300   4.923 -0.0975 -0.3584 -0.1090
 2344poe    c3110848   3.054   2.219   4.903 -0.2828 -0.0630 -0.2409
 2345poe    c3110849   3.918   6.629   2.317 -0.7238 -0.0774 -0.0534
 2345poe     o210850   3.829   6.534   2.264  0.2468 -0.8392 -0.3494
 2345poe    c2310851   3.836   6.549   2.124 -0.2085 -0.1884 -0.3070
 2345poe    c2310852   3.784   6.413   2.074 -0.2922 -0.0860 -0.4994
 2345poe     o210853   3.660   6.375   2.130  0.0810 -0.3417  0.1698
 2345poe    c2310854   3.615   6.249   2.084  0.7465 -0.7273  0.5602
 2345poe    c2310855   3.488   6.218   2.164 -0.1391  0.2585 -0.4290
 2345poe     o210856   3.505   6.217   2.304 -0.3444 -0.0076 -0.4040
 2345poe    c2310857   3.409   6.136   2.367 -0.0683 -0.1878 -0.2106
 2345poe    c2310858   3.457   6.080   2.503 -0.1281  0.0378 -0.0954
 2345poe     o210859   3.489   6.182   2.594  0.0939 -0.0424 -0.0833
 2345poe    c3110860   3.516   6.125   2.720 -0.2212 -0.0872 -0.0346
 2346poe    c3110861   1.413   1.404   0.472 -0.1041  0.5695  1.0362
 2346poe     o210862   1.284   1.399   0.415  0.3014  0.3082  0.1268
 2346poe    c2310863   1.282   1.507   0.324  0.2108  0.2841  0.1004
 2346poe    c2310864   1.142   1.502   0.260  0.2182 -0.2384  0.1188
 2346poe     o210865   1.106   1.369   0.229  0.0905 -0.1614 -0.0651
 2346poe    c2310866   0.980   1.364   0.166  0.1220  0.0824 -0.1486
 2346poe    c2310867   0.965   1.214   0.135  0.6241 -0.1145  0.5300
 2346poe     o210868   1.014   1.133   0.239  0.4523 -0.4328  0.3649
 2346poe    c2310869   0.971   1.001   0.212 -0.4607 -0.0347 -0.1464
 2346poe    c2310870   1.045   0.889   0.287 -0.2735  0.6262  0.6762
 2346poe     o210871   1.180   0.902   0.250 -0.5452  0.2638 -0.4968
 2346poe    c3110872   1.243   0.791   0.311 -1.0928  0.2393  0.0282
 2347poe    c3110873   3.892   1.539   4.434  0.3055  0.3644  0.0997
 2347poe     o210874   3.786   1.446   4.441  0.7941 -0.2099 -0.0724
 2347poe    c2310875   3.677   1.502   4.509  0.7918 -0.3969  0.0783
 2347poe    c2310876   3.562   1.400   4.491  0.2927  0.1275  0.2630
 2347poe     o210877   3.561   1.363   4.356 -0.5460  0.2955  0.2190
 2347poe    c2310878   3.464   1.260   4.349  0.1934 -0.3974 -0.0566
 2347poe    c2310879   3.454   1.197   4.209  0.3246 -0.7790  0.1036
 2347poe     o210880   3.580   1.160   4.160  0.5594 -0.0599  0.1435
 2347poe    c2310881   3.543   1.107   4.035 -0.1918 -0.2429  0.4377
 2347poe    c2310882   3.659   1.083   3.936  0.2666  0.7172  0.7280
 2347poe     o210883   3.743   0.973   3.961  0.1754  0.3612 -0.4400
 2347poe    c3110884   3.843   0.951   3.864  0.5466 -0.6897  0.1563
 2348poe    c3110885   4.442   1.050   6.197  0.1916 -0.0055 -0.3689
 2348poe     o210886   4.491   1.115   6.312  0.2035 -0.7472  0.0518
 2348poe    c2310887   4.406   1.090   6.421 -0.1839  0.4823  0.0414
 2348poe    c2310888   4.478   1.150   6.543 -0.2638  0.0855  0.2848
 2348poe     o210889   4.509   1.286   6.522 -0.2715  0.0173 -0.1744
 2348poe    c2310890   4.560   1.350   6.637  0.5723 -0.2416 -0.3970
 2348poe    c2310891   4.602   1.494   6.602  0.0612 -0.0459 -0.2123
 2348poe     o210892   4.667   1.499   6.477 -0.3701 -0.0917 -0.4393
 2348poe    c2310893   4.732   1.620   6.447 -0.3429  0.0189  0.0620
 2348poe    c2310894   4.824   1.600   6.325 -0.4927  0.2929 -0.0938
 2348poe     o210895   4.755   1.533   6.222 -0.3129 -0.2221  0.1162
 2348poe    c3110896   4.830   1.498   6.108  0.0760  0.0722  0.2775
 2349poe    c3110897   3.646   5.090   4.290  0.6527  0.0779  0.0045
 2349poe     o210898   3.653   4.952   4.262 -0.3839  0.0650 -0.2432
 2349poe    c2310899   3.763   4.898   4.333 -0.0371  0.4872 -0.4552
 2349poe    c2310900   3.783   4.751   4.292 -0.4322  0.2627  0.1467
 2349poe     o210901   3.652   4.704   4.272 -0.0657 -0.3601 -0.8720
 2349poe    c2310902   3.648   4.563   4.279  0.0356 -0.3389 -0.3166
 2349poe    c2310903   3.504   4.513   4.306 -0.0316  0.0074 -0.0364
 2349poe     o210904   3.427   4.572   4.204 -0.3145 -0.1539  0.0848
 2349poe    c2310905   3.295   4.523   4.187 -0.2004 -0.4774  0.1227
 2349poe    c2310906   3.226   4.595   4.070 -0.0439  0.0074  0.3239
 2349poe     o210907   3.232   4.734   4.089  0.2093  0.0526 -0.0674
 2349poe    c3110908   3.185   4.807   3.977 -0.8361  0.0008  0.3208
 2350poe    c3110909   0.296   0.207   3.288  0.1382 -0.6166  0.6486
 2350poe     o210910   0.315   0.206   3.428  0.3261  0.4301  0.6407
 2350poe    c2310911   0.298   0.068   3.455  0.4342  0.2912  0.0098
 2350poe    c2310912   0.331   0.061   3.605  0.2342 -0.3566  0.0271
 2350poe     o210913   0.448   0.138   3.623 -0.1410  0.1279  0.4091
 2350poe    c2310914   0.498   0.136   3.754 -0.1183  0.4009  0.4064
 2350poe    c2310915   0.624   0.225   3.747  0.3409 -0.2864 -0.2980
 2350poe     o210916   0.602   0.337   3.664  0.5088 -0.1894 -0.2100
 2350poe    c2310917   0.693   0.446   3.670 -0.2192  0.4088  0.1558
 2350poe    c2310918   0.828   0.422   3.601 -0.3602  0.0202  0.0075
 2350poe     o210919   0.838   0.422   3.460  0.0021  0.2036  0.0306
 2350poe    c3110920   0.973   0.389   3.441 -0.0189 -0.0703  0.3443
 2351poe    c3110921   0.298   5.983   1.851  0.6461 -0.3859  0.1198
 2351poe     o210922   0.439   5.974   1.852  0.6771  0.1034  0.4861
 2351poe    c2310923   0.488   6.087   1.783 -0.1094  0.3305  0.2812
 2351poe    c2310924   0.640   6.115   1.789  0.0006 -0.2820  0.4491
 2351poe     o210925   0.712   6.010   1.728  0.0142 -0.3004  0.4975
 2351poe    c2310926   0.852   6.026   1.725 -0.0576  0.2802 -0.3213
 2351poe    c2310927   0.920   5.897   1.677 -0.0522 -0.0615  0.5881
 2351poe     o210928   0.875   5.778   1.738 -0.0956 -0.0707  0.5388
 2351poe    c2310929   0.970   5.676   1.755  0.1247  0.1083  0.3777
 2351poe    c2310930   0.901   5.551   1.813  0.8364 -0.2638  0.4382
 2351poe     o210931   0.824   5.606   1.917 -0.4605 -0.0913 -0.5818
 2351poe    c3110932   0.770   5.503   1.997  0.1176 -0.1883 -0.3133
 2352poe    c3110933   4.111   7.008   3.928 -0.2927  0.3003  0.4987
 2352poe     o210934   4.057   6.964   3.806 -0.3676  0.9216  0.3088
 2352poe    c2310935   4.088   7.052   3.700  0.2196  0.7777  0.3576
 2352poe    c2310936   4.004   7.024   3.574  0.0864 -0.3472  0.6878
 2352poe     o210937   4.063   6.915   3.506  0.4427  0.1366  0.2066
 2352poe    c2310938   4.014   6.891   3.376 -0.0790  0.1787  0.3927
 2352poe    c2310939   3.870   6.842   3.353  0.1286 -0.3542  0.2036
 2352poe     o210940   3.842   6.714   3.404 -0.1961 -0.6312 -0.6578
 2352poe    c2310941   3.702   6.693   3.403 -0.3077  0.0862 -0.3238
 2352poe    c2310942   3.678   6.562   3.480 -0.3230  0.0160 -0.4484
 2352poe     o210943   3.713   6.443   3.413  0.1905 -0.0818 -0.0151
 2352poe    c3110944   3.645   6.340   3.480  0.2149 -0.0057  0.1260
 2353poe    c3110945   5.715   2.378   5.433 -0.0343  0.3560 -0.0548
 2353poe     o210946   5.769   2.288   5.527 -0.5119  0.2920  0.1638
 2353poe    c2310947   5.688   2.174   5.544  0.0951 -0.1962 -0.1665
 2353poe    c2310948   5.761   2.041   5.572  0.0911 -0.1148  0.2317
 2353poe     o210949   5.811   1.992   5.450  0.2105  0.4710  0.0404
 2353poe    c2310950   5.948   2.021   5.437  0.2159  0.5294  0.2341
 2353poe    c2310951   5.973   2.003   5.286  0.1358 -0.3900  0.3245
 2353poe     o210952   6.096   2.053   5.239 -0.1770 -0.4524 -0.5787
 2353poe    c2310953   6.076   2.108   5.110 -0.5450  0.7370 -0.0311
 2353poe    c2310954   6.139   2.248   5.111  0.3004  0.3634  0.1641
 2353poe     o210955   6.051   2.349   5.156 -0.1046 -0.1683  0.5759
 2353poe    c3110956   6.130   2.465   5.160 -0.4601  0.1058 -0.2125
 2354poe    c3110957   1.945   4.264   2.446 -0.2077 -0.4135 -0.1198
 2354poe     o210958   2.035   4.372   2.452  0.1085 -0.6440 -0.6318
 2354poe    c2310959   2.144   4.337   2.534  0.4860 -0.8628 -1.2234
 2354poe    c2310960   2.261   4.431   2.497 -0.0507  0.2941 -0.0392
 2354poe     o210961   2.312   4.422   2.366 -0.0168  0.1602 -0.0171
 2354poe    c2310962   2.388   4.533   2.324 -0.1475  0.0792 -0.4689
 2354poe    c2310963   2.444   4.530   2.180 -0.3321 -0.1484 -0.5372
 2354poe     o210964   2.342   4.540   2.083 -0.4918  0.1045 -0.3446
 2354poe    c2310965   2.376   4.464   1.969  0.0658 -0.0894 -0.0530
 2354poe    c2310966   2.270   4.488   1.860  0.2012 -0.2515 -0.2203
 2354poe     o210967   2.149   4.418   1.879  0.1345  0.0010  0.3157
 2354poe    c3110968   2.066   4.444   1.767  0.4720 -0.2114  0.0142
 2355poe    c3110969   2.446   5.164   1.013 -0.0604  0.1188 -0.2043
 2355poe     o210970   2.359   5.132   1.120 -0.2461  0.4167 -0.2665
 2355poe    c2310971   2.426   5.154   1.243 -0.5681 -0.0587 -0.0073
 2355poe    c2310972   2.362   5.093   1.369  0.7254  0.0551  0.7128
 2355poe     o210973   2.379   4.953   1.359 -0.1888 -0.0367  0.3897
 2355poe    c2310974   2.384   4.893   1.487  0.3490  0.5230  0.6334
 2355poe    c2310975   2.447   4.753   1.494 -0.5471  0.0690 -0.2437
 2355poe     o210976   2.360   4.654   1.443 -0.1263 -0.2968 -0.2530
 2355poe    c2310977   2.427   4.533   1.412  0.1653 -0.0565 -0.5862
 2355poe    c2310978   2.318   4.432   1.371  0.1963 -0.3555  0.0452
 2355poe     o210979   2.250   4.491   1.262 -0.4544  0.3265  0.8044
 2355poe    c3110980   2.163   4.404   1.194  0.4827  0.0654 -0.0832
 2356poe    c3110981   1.825   0.842   6.891 -0.4562 -0.4813  0.2529
 2356poe     o210982   1.697   0.900   6.889 -0.1381  0.2238 -0.0422
 2356poe    c2310983   1.613   0.829   6.977 -0.0648 -0.2940 -0.3853
 2356poe    c2310984   1.469   0.882   6.984 -0.0444 -0.2471 -0.3202
 2356poe     o210985   1.463   1.013   7.036 -0.1074 -0.2570 -0.3022
 2356poe    c2310986   1.369   1.090   6.965  0.0252  0.0965 -0.0933
 2356poe    c2310987   1.366   1.229   7.033 -0.3669 -0.1921  0.4814
 2356poe     o210988   1.491   1.292   7.043 -0.2667 -0.3849  0.4588
 2356poe    c2310989   1.491   1.406   7.127  0.0081 -0.0417 -0.0031
 2356poe    c2310990   1.625   1.428   7.201 -0.1099 -0.3865  0.3146
 2356poe     o210991   1.651   1.322   7.291  0.0585 -0.4432  0.1992
 2356poe    c3110992   1.747   1.345   7.392  0.2441 -0.0755 -0.0566
 2357poe    c3110993   4.045   3.119   4.488  0.0904 -0.1770 -0.0992
 2357poe     o210994   4.182   3.089   4.497  0.1244  0.0072 -0.0039
 2357poe    c2310995   4.209   2.992   4.595  0.1490 -0.3347 -0.3436
 2357poe    c2310996   4.355   2.978   4.640  0.1105 -0.0777 -0.1336
 2357poe     o210997   4.442   2.914   4.550 -0.1789 -0.4996 -0.1157
 2357poe    c2310998   4.580   2.925   4.577 -0.2386  0.2683 -0.0956
 2357poe    c2310999   4.662   2.878   4.455 -0.1416  0.2150 -0.0115
 2357poe     o211000   4.642   2.959   4.341  0.3372  0.4499  0.0716
 2357poe    c2311001   4.723   2.919   4.233 -0.2987 -0.1372 -0.1908
 2357poe    c2311002   4.655   2.979   4.109 -0.0953 -0.0603 -0.2651
 2357poe     o211003   4.516   2.980   4.129 -0.0331 -0.6819  0.2109
 2357poe    c3111004   4.437   2.990   4.013  0.2058  0.0617  0.1077
 2358poe    c3111005   5.270   6.869   1.147  0.1752 -0.5092  0.1353
 2358poe     o211006   5.386   6.905   1.077  0.0483 -0.5525 -0.0975
 2358poe    c2311007   5.389   7.035   1.022 -0.1285 -0.2520  0.5962
 2358poe    c2311008   5.534   7.074   0.989 -0.1726 -0.5407  0.0356
 2358poe     o211009   5.621   7.122   1.089 -0.2732  0.0624 -0.1611
 2358poe    c2311010   5.749   7.124   1.031 -0.1097  0.4450  0.2080
 2358poe    c2311011   5.858   7.204   1.106  0.3763  0.0898 -0.1095
 2358poe     o211012   5.889   7.136   1.226  0.5141 -0.0904 -0.2474
 2358poe    c2311013   6.013   7.184   1.273  0.2094  0.3486  0.1086
 2358poe    c2311014   6.079   7.057   1.328 -0.2977 -0.1014 -0.3145
 2358poe     o211015   5.997   6.984   1.417  0.2028  0.2241  0.4255
 2358poe    c3111016   6.068   6.878   1.478  0.0490 -0.1927 -0.1074
 2359poe    c3111017   0.994   3.552   5.694 -0.3087  0.4135 -0.5463
 2359poe     o211018   1.077   3.464   5.621 -0.3305 -0.1584  0.1048
 2359poe    c2311019   1.057   3.488   5.483  0.6912  0.0643 -0.0113
 2359poe    c2311020   1.176   3.418   5.415  0.5181 -0.0175 -0.2300
 2359poe     o211021   1.160   3.284   5.454  0.2621  0.0881  0.0360
 2359poe    c2311022   1.263   3.201   5.405  0.1440 -0.2075  0.2810
 2359poe    c2311023   1.251   3.055   5.453  0.2531 -0.2632  0.1425
 2359poe     o211024   1.240   3.070   5.593  0.0055 -0.4132  0.1393
 2359poe    c2311025   1.230   2.944   5.656 -0.6333 -0.4464 -0.0219
 2359poe    c2311026   1.235   2.965   5.808  0.3653  0.7248 -0.1943
 2359poe     o211027   1.127   3.014   5.884 -0.2452 -0.3936 -0.3171
 2359poe    c3111028   1.170   3.062   6.009 -0.6183 -0.7173 -0.0593
 2360poe    c3111029   5.223   0.696   2.513 -0.0475  0.0116  0.3328
 2360poe     o211030   5.321   0.715   2.413 -0.6721 -0.6639 -0.4159
 2360poe    c2311031   5.417   0.611   2.417 -0.1933 -0.2052  0.1951
 2360poe    c2311032   5.528   0.601   2.311 -0.2835 -0.4404  0.1216
 2360poe     o211033   5.470   0.618   2.183 -0.0022 -0.3996 -0.0024
 2360poe    c2311034   5.571   0.585   2.092  0.2094 -0.7889  0.3694
 2360poe    c2311035   5.511   0.553   1.954 -0.3473 -0.1643  0.4646
 2360poe     o211036   5.435   0.667   1.920  0.2977  0.0999 -0.1160
 2360poe    c2311037   5.342   0.649   1.815 -0.2551 -0.1508  0.4105
 2360poe    c2311038   5.230   0.755   1.812 -0.1854 -0.0912 -0.3452
 2360poe     o211039   5.184   0.760   1.946  0.4267 -0.2796 -0.1261
 2360poe    c3111040   5.079   0.852   1.963  0.1637 -0.5655 -0.1994
 2361poe    c3111041   2.197   1.266   1.172  0.3497 -0.0067  0.0795
 2361poe     o211042   2.224   1.373   1.085 -0.6106  0.2265  0.0595
 2361poe    c2311043   2.330   1.452   1.136 -0.4860  0.2718 -0.2665
 2361poe    c2311044   2.363   1.575   1.050  0.0717  0.6290  0.4547
 2361poe     o211045   2.247   1.651   1.025 -0.0064  0.5349  0.5287
 2361poe    c2311046   2.277   1.769   0.954 -0.0724 -0.1836 -0.7308
 2361poe    c2311047   2.173   1.882   0.967  0.1804 -0.0201 -0.0633
 2361poe     o211048   2.064   1.846   0.885 -0.0118 -0.1381  0.2401
 2361poe    c2311049   1.954   1.931   0.908 -0.3197 -0.3735 -0.3507
 2361poe    c2311050   1.932   2.059   0.827 -0.1567 -0.0725  0.0781
 2361poe     o211051   1.896   2.021   0.695 -0.4057 -0.1356  0.1628
 2361poe    c3111052   1.883   2.129   0.605 -0.0999 -0.6756 -0.5366
 2362poe    c3111053   1.908   5.457   5.389 -0.7048 -0.7495 -0.1831
 2362poe     o211054   1.848   5.378   5.289 -0.1418 -0.0964 -1.0515
 2362poe    c2311055   1.822   5.247   5.336 -0.3953  0.2744 -0.1395
 2362poe    c2311056   1.796   5.140   5.229  0.0828  0.0939 -0.0806
 2362poe     o211057   1.863   5.181   5.111 -0.1377 -0.1591 -0.2971
 2362poe    c2311058   1.820   5.097   5.007 -0.7144 -0.3573  0.0922
 2362poe    c2311059   1.885   5.145   4.875  0.3139 -0.4770  0.5449
 2362poe     o211060   1.893   5.286   4.879 -0.1036 -0.4252 -0.3065
 2362poe    c2311061   1.927   5.331   4.750 -0.4632  0.1448 -0.2050
 2362poe    c2311062   1.913   5.485   4.755  0.0027  0.1724  0.2596
 2362poe     o211063   1.780   5.532   4.763 -0.0538  0.0862 -0.1572
 2362poe    c3111064   1.761   5.670   4.744 -0.1194  0.0735 -0.1816
 2363poe    c3111065   6.188   0.253   5.026  0.6384 -0.4790 -0.3010
 2363poe     o211066   6.286   0.202   5.114 -0.0201 -0.7732  0.2708
 2363poe    c2311067   6.351   0.304   5.186 -0.7831  0.0841 -0.2313
 2363poe    c2311068   6.466   0.239   5.264 -0.5999  0.3002 -0.3207
 2363poe     o211069   6.425   0.115   5.319  0.2150  0.2471  0.1899
 2363poe    c2311070   6.531   0.041   5.376  0.3745  0.3656  0.0501
 2363poe    c2311071   6.475  -0.072   5.465  0.3824  0.2743 -0.0607
 2363poe     o211072   6.382  -0.143   5.387  0.2540  0.1391  0.2185
 2363poe    c2311073   6.314  -0.251   5.449  0.0392  0.4254  0.4851
 2363poe    c2311074   6.215  -0.318   5.351  0.6754  0.0371  0.1021
 2363poe     o211075   6.098  -0.245   5.323  0.4963 -0.4841 -0.5348
 2363poe    c3111076   6.023  -0.299   5.217 -0.3662 -0.0293 -0.1669
 2364poe    c3111077   6.981   0.600   3.452 -0.4888 -0.1056 -0.6938
 2364poe     o211078   7.048   0.481   3.487  0.1923  0.4645 -0.0218
 2364poe    c2311079   6.981   0.363   3.449  0.4912  0.1485  0.4210
 2364poe    c2311080   7.062   0.246   3.508  0.9367  0.4650  0.4490
 2364poe     o211081   7.054   0.234   3.648  0.0680 -0.5387  0.3283
 2364poe    c2311082   6.932   0.194   3.707 -0.2316 -0.0397  0.0500
 2364poe    c2311083   6.952   0.047   3.750  0.2296 -0.0039 -0.0356
 2364poe     o211084   7.027   0.043   3.870  0.8289  0.3715 -0.3882
 2364poe    c2311085   7.083  -0.086   3.882  0.1828  0.1308  0.1100
 2364poe    c2311086   7.163  -0.101   4.013  0.7541 -0.0711 -0.2618
 2364poe     o211087   7.103  -0.133   4.136  0.1477  0.4607 -0.4174
 2364poe    c3111088   7.205  -0.166   4.227  0.1639 -0.1008 -0.6354
 2365poe    c3111089   6.894   3.667   0.307 -0.1721 -0.4769  0.0180
 2365poe     o211090   6.855   3.793   0.258  0.2565 -0.5076 -0.4079
 2365poe    c2311091   6.963   3.840   0.181 -0.0282  0.1286 -0.4310
 2365poe    c2311092   6.910   3.945   0.081 -0.0744  0.1356 -0.3990
 2365poe     o211093   6.828   4.028   0.159 -0.0331  0.0372 -0.2477
 2365poe    c2311094   6.778   4.140   0.088  0.2370  0.3197  0.0095
 2365poe    c2311095   6.685   4.203   0.194  0.4288  0.2246  0.2373
 2365poe     o211096   6.606   4.107   0.260  0.1904  0.0075 -0.3502
 2365poe    c2311097   6.496   4.175   0.316  0.3703  0.0929 -0.0955
 2365poe    c2311098   6.425   4.116   0.439  0.3466  0.1944 -0.0602
 2365poe     o211099   6.519   4.091   0.540 -0.2391  0.0214  0.4446
 2365poe    c3111100   6.463   4.113   0.668 -0.1156 -0.4246  0.5797
 2366poe    c3111101   4.269   2.038   1.039  0.5270 -0.3146  0.2523
 2366poe     o211102   4.223   2.085   1.164  0.0074 -0.1634  0.0093
 2366poe    c2311103   4.215   1.976   1.253  0.8110 -0.1911  0.0602
 2366poe    c2311104   4.154   2.026   1.385 -0.1929 -0.2042 -0.3897
 2366poe     o211105   4.015   2.051   1.386 -0.1594 -0.0224 -0.2659
 2366poe    c2311106   3.975   2.036   1.520 -0.1374 -0.1513 -0.2740
 2366poe    c2311107   3.822   2.015   1.512 -0.2609  0.4191  0.5194
 2366poe     o211108   3.776   2.126   1.439  0.5396  0.2229 -0.3042
 2366poe    c2311109   3.657   2.102   1.366  0.0011  0.4619  0.4788
 2366poe    c2311110   3.652   2.224   1.272 -0.1203 -0.1112 -0.2708
 2366poe     o211111   3.766   2.234   1.191 -0.5409 -0.5071 -0.9168
 2366poe    c3111112   3.743   2.351   1.115  0.1822  0.0361 -0.3135
 2367poe    c3111113   1.271   1.148   3.048 -0.0687  0.1788  0.1138
 2367poe     o211114   1.177   1.063   3.110 -0.2055  0.6511  0.5641
 2367poe    c2311115   1.230   1.028   3.236  0.4596  0.4157  0.2229
 2367poe    c2311116   1.112   0.949   3.297 -0.1079  0.5918 -0.6270
 2367poe     o211117   1.068   0.857   3.200 -0.2560 -0.0240  0.0212
 2367poe    c2311118   0.989   0.757   3.260  0.2279 -0.5683 -0.2380
 2367poe    c2311119   0.922   0.676   3.148 -0.1835  0.2952 -0.6211
 2367poe     o211120   0.937   0.741   3.023  0.2793  0.3875 -0.5194
 2367poe    c2311121   0.863   0.668   2.927  0.3706 -0.2427 -0.1181
 2367poe    c2311122   0.890   0.718   2.784  0.4659 -0.1728 -0.0759
 2367poe     o211123   1.020   0.752   2.740  0.6059 -0.7471 -0.1125
 2367poe    c3111124   1.022   0.786   2.603  0.0518  0.3481  0.1410
 2368poe    c3111125   2.906   6.859   4.142  0.0521  0.2419  0.5538
 2368poe     o211126   2.904   6.748   4.229 -0.1150 -0.1638  0.0364
 2368poe    c2311127   2.775   6.695   4.247 -0.3801  0.4966  0.1011
 2368poe    c2311128   2.767   6.639   4.390  0.1526 -0.6224 -0.2975
 2368poe     o211129   2.885   6.569   4.422  0.2422 -0.1989  0.3178
 2368poe    c2311130   2.911   6.565   4.561  0.2420  0.2468  0.3318
 2368poe    c2311131   3.051   6.501   4.570  0.1294 -0.0953 -0.2630
 2368poe     o211132   3.132   6.584   4.491  0.3470 -0.2239 -0.1780
 2368poe    c2311133   3.262   6.531   4.502  0.2871 -0.2887  0.2303
 2368poe    c2311134   3.378   6.603   4.431  0.3426 -0.4023  0.2045
 2368poe     o211135   3.373   6.574   4.293  0.0544  0.0325  0.1189
 2368poe    c3111136   3.482   6.628   4.222  0.1271  0.4351  0.5383
 2369poe    c3111137   3.766   1.541   1.401 -0.0661 -0.5647  0.3780
 2369poe     o211138   3.740   1.471   1.281  0.0800  0.5050 -0.2861
 2369poe    c2311139   3.605   1.431   1.286  0.2720 -0.1213 -0.0892
 2369poe    c2311140   3.572   1.339   1.167  0.2273 -0.1311 -0.0690
 2369poe     o211141   3.618   1.206   1.183 -0.4898 -0.3138  0.5404
 2369poe    c2311142   3.549   1.136   1.081  0.0017 -0.2189  0.1417
 2369poe    c2311143   3.604   0.992   1.069  1.1218  0.2226 -0.2224
 2369poe     o211144   3.625   0.952   1.202  0.0238 -0.3574 -0.2109
 2369poe    c2311145   3.605   0.815   1.231  0.0034 -0.3396 -0.1393
 2369poe    c2311146   3.656   0.781   1.372  0.2869 -0.0517 -0.1729
 2369poe     o211147   3.785   0.839   1.379  0.2810 -0.0711  0.1077
 2369poe    c3111148   3.845   0.795   1.498  0.2138  0.4568  0.3397
 2370poe    c3111149   3.711   6.363   1.710  0.3446 -0.3806  0.1311
 2370poe     o211150   3.733   6.239   1.646 -0.2041 -0.3298 -0.1567
 2370poe    c2311151   3.821   6.154   1.715  0.2238  0.0213 -0.2624
 2370poe    c2311152   3.836   6.025   1.632 -0.4366 -0.3468  0.1789
 2370poe     o211153   3.714   5.970   1.589 -0.4148 -0.1751 -0.1018
 2370poe    c2311154   3.748   5.850   1.523 -0.5647 -0.1789 -0.1742
 2370poe    c2311155   3.623   5.780   1.468 -0.0705 -0.8075 -0.5127
 2370poe     o211156   3.521   5.873   1.437  0.3450 -0.2935 -0.3497
 2370poe    c2311157   3.416   5.813   1.365  0.0457 -0.0436 -0.1236
 2370poe    c2311158   3.287   5.898   1.369 -0.0423 -0.1893  0.2000
 2370poe     o211159   3.298   6.004   1.276  0.0593 -0.1877  0.2131
 2370poe    c3111160   3.210   6.111   1.304  0.6083  0.3768 -0.2025
 2371poe    c3111161   3.646   3.785   1.024  0.3749 -0.4253 -0.6723
 2371poe     o211162   3.546   3.809   0.928 -0.2995  0.1787  0.1681
 2371poe    c2311163   3.418   3.803   0.987 -0.5541  0.0352 -0.3915
 2371poe    c2311164   3.309   3.767   0.884 -1.1747 -0.2323  0.3529
 2371poe     o211165   3.327   3.636   0.834 -0.0652  0.1042 -0.1618
 2371poe    c2311166   3.234   3.623   0.729 -0.2794 -0.0539  0.0435
 2371poe    c2311167   3.255   3.493   0.649 -0.3641 -0.0832  0.0698
 2371poe     o211168   3.347   3.506   0.543 -0.2825  0.0897  0.1617
 2371poe    c2311169   3.481   3.496   0.584 -0.3412 -0.1167  0.3009
 2371poe    c2311170   3.583   3.508   0.470 -0.0152 -0.1862  0.5815
 2371poe     o211171   3.600   3.639   0.420 -0.3447 -0.1262  0.6287
 2371poe    c3111172   3.683   3.638   0.306 -0.7588  0.6091  0.3121
 2372poe    c3111173   0.793   3.963   2.522 -0.3050 -0.0251  0.5648
 2372poe     o211174   0.712   4.075   2.549 -0.1714  0.2194 -0.0381
 2372poe    c2311175   0.669   4.149   2.437  0.3304 -0.7129 -0.8590
 2372poe    c2311176   0.760   4.260   2.383 -0.0428 -0.2726 -0.5898
 2372poe     o211177   0.780   4.370   2.469  0.3817 -0.7336 -0.0952
 2372poe    c2311178   0.876   4.462   2.422 -0.2239 -0.1772 -0.2627
 2372poe    c2311179   0.894   4.570   2.530 -0.6710 -0.2075 -0.1587
 2372poe     o211180   0.925   4.500   2.649  0.6216  0.3069 -0.1769
 2372poe    c2311181   0.874   4.583   2.752  0.0840  0.0543 -0.2345
 2372poe    c2311182   0.932   4.534   2.886 -0.0466 -0.2503 -0.2862
 2372poe     o211183   0.902   4.407   2.938 -0.1870 -0.1159 -0.0394
 2372poe    c3111184   0.950   4.393   3.070  0.2885 -0.4573 -0.2470
 2373poe    c3111185   3.955   3.318   1.386 -0.1006 -0.4582  0.0259
 2373poe     o211186   4.023   3.317   1.509  0.2046  0.0935 -0.1384
 2373poe    c2311187   4.022   3.186   1.561 -0.6466  0.1289 -0.0483
 2373poe    c2311188   4.110   3.163   1.686 -0.1610  0.1263 -0.3881
 2373poe     o211189   4.080   3.244   1.797  0.0754  0.5213 -0.6106
 2373poe    c2311190   4.168   3.218   1.904 -0.6115  0.1956 -0.1159
 2373poe    c2311191   4.166   3.338   2.000 -0.3025  0.0653  0.0553
 2373poe     o211192   4.044   3.347   2.072 -0.0002 -0.0164  0.5845
 2373poe    c2311193   4.042   3.453   2.164  0.3595  0.0240  0.5506
 2373poe    c2311194   3.902   3.454   2.229  0.4763  0.3932  0.8020
 2373poe     o211195   3.811   3.525   2.148  0.3438  0.1944  0.7777
 2373poe    c3111196   3.678   3.507   2.194  0.1771  0.4152  0.3891
 2374poe    c3111197   1.748   4.594   0.396 -0.2154 -1.3591  0.1028
 2374poe     o211198   1.660   4.611   0.287  0.0437  0.0902  0.0958
 2374poe    c2311199   1.730   4.670   0.180  0.0425  0.1697  0.1387
 2374poe    c2311200   1.630   4.719   0.074  0.1040 -0.1213 -0.0549
 2374poe     o211201   1.584   4.611  -0.005 -0.0577 -0.2887  0.2668
 2374poe    c2311202   1.447   4.623  -0.037 -0.0628 -0.0901  0.3629
 2374poe    c2311203   1.405   4.518  -0.142  0.5215  0.0389 -0.0090
 2374poe     o211204   1.479   4.533  -0.261  0.1898  0.0394 -0.2157
 2374poe    c2311205   1.413   4.471  -0.369 -0.1760 -0.1840  0.1322
 2374poe    c2311206   1.495   4.491  -0.498  0.2602 -0.0400  0.4270
 2374poe     o211207   1.620   4.432  -0.523  0.2279  0.2168 -0.3845
 2374poe    c3111208   1.655   4.424  -0.659 -0.0973 -0.2752 -0.4424
 2375poe    c3111209   3.770   0.380   4.846  0.4111  0.0075 -0.5466
 2375poe     o211210   3.775   0.507   4.907  0.4024 -0.4100  0.3346
 2375poe    c2311211   3.879   0.589   4.859 -0.2683 -0.0201 -0.4880
 2375poe    c2311212   3.875   0.719   4.942  0.2185 -0.3326  0.0315
 2375poe     o211213   3.869   0.689   5.080 -0.0029 -0.0444  0.0858
 2375poe    c2311214   3.897   0.800   5.162  0.1598  0.0873 -0.1451
 2375poe    c2311215   3.970   0.769   5.294 -0.3512 -0.4614  0.0137
 2375poe     o211216   4.104   0.730   5.281 -0.2494 -0.1690  0.1638
 2375poe    c2311217   4.144   0.681   5.407  0.2160 -0.5904 -0.1387
 2375poe    c2311218   4.298   0.677   5.412  0.2236 -0.4324 -0.2456
 2375poe     o211219   4.361   0.799   5.441 -0.3002 -0.1535 -0.2525
 2375poe    c3111220   4.402   0.884   5.336  0.0753 -0.1679 -0.1204
 2376poe    c3111221   1.516   2.156   5.799 -0.3078  0.0461  0.0294
 2376poe     o211222   1.576   2.032   5.828 -0.1964 -0.0629 -0.6610
 2376poe    c2311223   1.496   1.926   5.780 -0.4021 -0.2283  0.0370
 2376poe    c2311224   1.579   1.803   5.739  0.1985  0.1465  0.1146
 2376poe     o211225   1.620   1.734   5.855  0.0085  0.4347  0.3553
 2376poe    c2311226   1.748   1.676   5.837 -0.0814  0.3152  0.0913
 2376poe    c2311227   1.872   1.767   5.843  0.2069 -0.0877  0.2538
 2376poe     o211228   1.893   1.798   5.979 -0.1965  0.2723  0.2348
 2376poe    c2311229   2.023   1.845   6.008 -0.1100  0.1223  0.0896
 2376poe    c2311230   2.042   1.837   6.161  0.4123  0.3367  0.0359
 2376poe     o211231   1.931   1.901   6.219 -0.0514 -0.7056  0.3260
 2376poe    c3111232   1.973   1.971   6.334 -0.2274  0.1055 -0.0993
 2377poe    c3111233   2.542   3.073   1.210  0.3101  0.0182 -0.2818
 2377poe     o211234   2.502   2.949   1.155 -0.2642  0.0338  0.0908
 2377poe    c2311235   2.562   2.835   1.212  0.2326  0.0490 -0.3923
 2377poe    c2311236   2.496   2.703   1.167 -0.1041  0.0593  0.0635
 2377poe     o211237   2.568   2.655   1.056 -0.3993  0.2211 -0.2015
 2377poe    c2311238   2.489   2.616   0.946  0.0955 -0.1752 -0.4231
 2377poe    c2311239   2.513   2.710   0.826  0.3322  0.3142  0.0015
 2377poe     o211240   2.504   2.846   0.860  0.1308  0.1945  0.4284
 2377poe    c2311241   2.527   2.927   0.747 -0.1089  0.0520  0.2779
 2377poe    c2311242   2.507   3.073   0.790 -0.1156  0.0337  0.3384
 2377poe     o211243   2.394   3.083   0.874 -0.0961 -0.4191  0.4188
 2377poe    c3111244   2.323   3.205   0.866  0.5355 -0.0182  0.7783
 2378poe    c3111245   0.558   2.222   2.718  0.0767  0.5008 -0.4191
 2378poe     o211246   0.517   2.157   2.600 -0.2410  0.0266 -0.0481
 2378poe    c2311247   0.474   2.242   2.496 -0.1694 -0.2939 -0.3453
 2378poe    c2311248   0.434   2.148   2.382 -0.2751 -0.4165 -0.2084
 2378poe     o211249   0.536   2.050   2.374  0.1912  0.0786 -0.4088
 2378poe    c2311250   0.536   1.967   2.261 -0.2765 -0.1681 -0.2318
 2378poe    c2311251   0.642   1.856   2.275  0.1343  0.3063  0.4609
 2378poe     o211252   0.588   1.798   2.392 -0.5294 -0.1829 -0.0774
 2378poe    c2311253   0.657   1.679   2.425 -0.2898  0.0413  0.2428
 2378poe    c2311254   0.620   1.595   2.549 -0.0230 -0.3602  0.0517
 2378poe     o211255   0.643   1.675   2.663  0.1689 -0.1649 -0.1234
 2378poe    c3111256   0.642   1.601   2.783 -0.0088  0.1530  0.0724
 2379poe    c3111257   3.885   5.238   3.556 -0.1924  0.0158 -0.0445
 2379poe     o211258   3.850   5.328   3.453  0.1609 -0.0542 -0.2282
 2379poe    c2311259   3.716   5.317   3.410  0.1627 -0.4365 -0.1374
 2379poe    c2311260   3.696   5.399   3.281 -0.0783 -0.3550 -0.0487
 2379poe     o211261   3.779   5.358   3.174  0.0300 -0.2036 -0.0238
 2379poe    c2311262   3.747   5.430   3.057  0.2381  0.3278  0.2421
 2379poe    c2311263   3.812   5.348   2.943 -0.1491  0.3395  0.0127
 2379poe     o211264   3.952   5.347   2.961 -0.1433  0.0916 -0.0408
 2379poe    c2311265   4.013   5.265   2.864  0.0584  0.3981 -0.1769
 2379poe    c2311266   4.159   5.233   2.904 -0.2383 -0.4303  0.2732
 2379poe     o211267   4.146   5.181   3.035 -0.2975 -0.6994  0.1605
 2379poe    c3111268   4.276   5.139   3.071  0.0817 -0.0793 -0.4443
 2380poe    c3111269   0.347   2.719   1.232 -0.1422 -0.0531 -0.3050
 2380poe     o211270   0.367   2.649   1.353  0.5394  0.0684 -0.3406
 2380poe    c2311271   0.373   2.511   1.322 -0.2680 -0.0949  0.2031
 2380poe    c2311272   0.355   2.431   1.452 -0.1357  0.2609  0.4414
 2380poe     o211273   0.438   2.494   1.547 -0.0636  0.6856  0.1001
 2380poe    c2311274   0.422   2.426   1.670  0.1756 -0.0803 -0.2846
 2380poe    c2311275   0.515   2.479   1.781 -0.3979 -0.0173  0.1693
 2380poe     o211276   0.506   2.619   1.800  0.0950  0.0714 -0.2335
 2380poe    c2311277   0.609   2.669   1.883  0.1225  0.3103 -0.4099
 2380poe    c2311278   0.591   2.818   1.918 -0.3682  0.1425  0.0699
 2380poe     o211279   0.531   2.883   1.809  0.0155  0.2841 -0.0584
 2380poe    c3111280   0.552   3.022   1.812 -0.4071  0.3512 -0.1377
 2381poe    c3111281   3.508   3.070   5.013 -0.1438  0.5849  0.0450
 2381poe     o211282   3.649   3.065   5.025 -0.1687  0.5068  0.3180
 2381poe    c2311283   3.684   3.084   5.160 -0.0263 -0.1474  0.3799
 2381poe    c2311284   3.827   3.034   5.186 -0.0324 -0.5990 -0.4330
 2381poe     o211285   3.935   3.089   5.113 -0.1529 -0.4213 -0.4762
 2381poe    c2311286   4.057   3.026   5.143  0.1245  0.1886 -0.2902
 2381poe    c2311287   4.166   3.129   5.110  0.5833 -0.2229 -0.0814
 2381poe     o211288   4.151   3.170   4.976  0.0607  0.0683  0.0648
 2381poe    c2311289   4.249   3.266   4.943  0.5581 -0.5888 -0.3763
 2381poe    c2311290   4.186   3.333   4.819 -0.1779 -0.9356 -0.1940
 2381poe     o211291   4.047   3.342   4.839 -0.0034  0.7338  0.3817
 2381poe    c3111292   3.973   3.417   4.745  0.0867  0.5369  0.1533
 2382poe    c3111293   5.129   3.978   2.594  0.0588  0.1084  0.3701
 2382poe     o211294   5.141   4.079   2.496 -0.1374 -0.2580 -0.0369
 2382poe    c2311295   5.016   4.131   2.454  0.0839  0.8334  0.6298
 2382poe    c2311296   5.039   4.224   2.334  0.5546  0.1271  0.1673
 2382poe     o211297   5.167   4.277   2.361  0.5039  0.2240  0.2171
 2382poe    c2311298   5.190   4.369   2.257  0.1436 -0.5448 -0.5573
 2382poe    c2311299   5.330   4.421   2.295 -0.0711  0.4150 -1.0567
 2382poe     o211300   5.432   4.327   2.271 -0.3175 -0.0641 -0.2734
 2382poe    c2311301   5.553   4.400   2.266 -0.4136  0.0731 -0.6291
 2382poe    c2311302   5.676   4.323   2.215 -0.1510  0.1398 -0.0960
 2382poe     o211303   5.724   4.224   2.304 -0.6797  0.1200  0.1741
 2382poe    c3111304   5.830   4.148   2.250 -0.9793  0.0967 -0.3910
 2383poe    c3111305   0.320   2.696   6.428  0.2264 -0.5279  0.1664
 2383poe     o211306   0.302   2.809   6.510 -0.4795  0.0265 -0.7391
 2383poe    c2311307   0.302   2.923   6.427  1.1785  0.1454 -0.6089
 2383poe    c2311308   0.312   3.051   6.512 -0.0862 -0.0729 -0.1047
 2383poe     o211309   0.192   3.058   6.586  0.3368 -0.3777  0.6264
 2383poe    c2311310   0.186   3.180   6.657 -0.2467  0.5311 -0.9196
 2383poe    c2311311   0.044   3.218   6.704 -0.1418 -0.2731  0.0798
 2383poe     o211312  -0.053   3.239   6.605  0.0277 -0.2878 -0.0910
 2383poe    c2311313  -0.033   3.352   6.523 -0.5330 -0.1704 -0.0757
 2383poe    c2311314  -0.139   3.357   6.412 -0.2237  0.2627 -0.3539
 2383poe     o211315  -0.142   3.242   6.330  0.1039  0.3637 -0.5075
 2383poe    c3111316  -0.260   3.238   6.253  0.1026  0.1168 -0.4933
 2384poe    c3111317   5.022   0.006   3.520 -0.2762 -0.2842 -0.6075
 2384poe     o211318   5.107   0.089   3.444  0.1573  0.0527  0.2295
 2384poe    c2311319   5.079   0.221   3.486  0.5924  0.1012  0.3759
 2384poe    c2311320   5.156   0.312   3.389  0.0681  0.1484 -0.0009
 2384poe     o211321   5.282   0.258   3.353  0.1412 -0.3168  0.9303
 2384poe    c2311322   5.368   0.349   3.289  0.1791 -0.8584  0.2021
 2384poe    c2311323   5.484   0.259   3.241  0.7862 -0.0525  0.1367
 2384poe     o211324   5.563   0.198   3.340  0.8952 -0.0045  0.0793
 2384poe    c2311325   5.648   0.101   3.283 -0.0552 -0.5098 -0.5068
 2384poe    c2311326   5.738   0.029   3.385  0.3666  0.3055 -0.2919
 2384poe     o211327   5.665  -0.016   3.497 -0.0089  0.2238 -0.5675
 2384poe    c3111328   5.756  -0.061   3.595 -0.4009 -0.1129 -0.3599
 2385poe    c3111329   6.698   3.594   4.515 -0.2880 -0.1271  0.3824
 2385poe     o211330   6.697   3.660   4.391 -0.2276 -0.2953  0.2921
 2385poe    c2311331   6.691   3.799   4.413  0.2438 -0.2121 -0.1008
 2385poe    c2311332   6.745   3.872   4.288  0.0708 -0.1959 -0.1676
 2385poe     o211333   6.878   3.829   4.271  0.1271 -0.0986  0.0221
 2385poe    c2311334   6.907   3.849   4.134 -0.3776 -0.4380 -0.1340
 2385poe    c2311335   7.010   3.752   4.074 -0.1719 -0.4268  0.1994
 2385poe     o211336   6.975   3.616   4.079 -0.2223 -0.4377 -0.3689
 2385poe    c2311337   7.049   3.532   3.993 -0.0568 -0.8037  0.1247
 2385poe    c2311338   6.993   3.390   4.016 -0.6506 -0.5107  0.5294
 2385poe     o211339   6.871   3.364   3.951 -0.1911 -0.0772 -0.5505
 2385poe    c3111340   6.867   3.233   3.900 -0.0210 -0.2039 -0.2389
 2386poe    c3111341   4.609   5.471   0.776  0.8241  1.0257  0.5775
 2386poe     o211342   4.666   5.541   0.668  0.0328  0.3566 -0.2898
 2386poe    c2311343   4.598   5.524   0.546 -0.2363  0.7448 -0.1927
 2386poe    c2311344   4.646   5.629   0.443  0.6384 -0.0028 -0.5588
 2386poe     o211345   4.627   5.763   0.482 -0.2252 -0.2478 -0.1011
 2386poe    c2311346   4.724   5.846   0.423 -0.1999 -0.2226 -0.0248
 2386poe    c2311347   4.696   5.995   0.451  0.0211 -0.1756 -0.0526
 2386poe     o211348   4.729   6.019   0.586  0.5756  0.2332 -0.2530
 2386poe    c2311349   4.681   6.150   0.606  0.2798  0.0771  0.0849
 2386poe    c2311350   4.773   6.234   0.696  0.5432  0.2406 -0.3308
 2386poe     o211351   4.776   6.219   0.837 -0.1041  0.5282 -0.2821
 2386poe    c3111352   4.877   6.307   0.880 -0.1219  0.2717  0.2879
 2387poe    c3111353   6.515   2.293   1.608 -0.5526  0.1714 -0.2365
 2387poe     o211354   6.463   2.173   1.556 -0.5091  0.0808 -0.0718
 2387poe    c2311355   6.415   2.093   1.662 -0.5474  0.1234 -0.0572
 2387poe    c2311356   6.439   1.947   1.622  0.4164  0.2573  0.0078
 2387poe     o211357   6.360   1.918   1.509  0.4323  0.0680  0.0450
 2387poe    c2311358   6.394   1.802   1.436  0.1937  0.0495 -0.0398
 2387poe    c2311359   6.273   1.770   1.347 -0.0797  0.2770  0.2499
 2387poe     o211360   6.228   1.886   1.281  0.1565 -0.0664 -0.5256
 2387poe    c2311361   6.116   1.858   1.201  0.0083  0.2351 -0.4255
 2387poe    c2311362   6.069   1.997   1.153 -0.4947  0.3329  0.3230
 2387poe     o211363   6.060   2.088   1.259  0.3028  0.6097  0.1556
 2387poe    c3111364   5.992   2.206   1.223 -0.4924  0.0899 -0.0644
 2388poe    c3111365   1.876   2.516   3.583  0.5152 -0.1011  0.8517
 2388poe     o211366   1.879   2.656   3.598 -0.0242 -0.0310  0.3541
 2388poe    c2311367   2.007   2.700   3.637  0.1317 -0.2128  0.0485
 2388poe    c2311368   2.017   2.854   3.636 -0.0718 -0.1996  0.1641
 2388poe     o211369   2.023   2.889   3.499  0.1397 -0.1796  0.1788
 2388poe    c2311370   2.061   3.025   3.496 -0.1726 -0.0989 -0.2801
 2388poe    c2311371   2.095   3.066   3.352  0.5435  0.1594 -0.0434
 2388poe     o211372   2.182   2.989   3.271  0.7580  0.0352  0.3057
 2388poe    c2311373   2.179   3.036   3.138 -0.8446 -0.2833  0.2094
 2388poe    c2311374   2.202   2.913   3.049 -0.0018  0.2224 -0.2817
 2388poe     o211375   2.092   2.825   3.051  0.2078 -0.0314  0.2808
 2388poe    c3111376   2.117   2.706   2.981 -0.0090  0.0045  0.1421
 2389poe    c3111377   0.745   1.504   6.168  0.0368 -0.5818  0.4175
 2389poe     o211378   0.877   1.511   6.121 -0.1136 -0.1554  0.0524
 2389poe    c2311379   0.894   1.556   5.988  0.3701  0.1913  0.2272
 2389poe    c2311380   1.036   1.612   5.973  0.3209  0.1315 -0.4789
 2389poe     o211381   1.135   1.531   6.031 -0.4586 -0.3334  0.2144
 2389poe    c2311382   1.270   1.547   5.994 -0.3029 -0.2506  0.8077
 2389poe    c2311383   1.375   1.482   6.086  0.8116  0.0455 -0.2244
 2389poe     o211384   1.357   1.343   6.095  0.5419  0.0685 -0.4167
 2389poe    c2311385   1.476   1.279   6.135  0.1806 -0.1603  0.3172
 2389poe    c2311386   1.462   1.125   6.130 -0.0355 -0.1306 -0.0467
 2389poe     o211387   1.373   1.093   6.235  0.1302  0.0242  0.1421
 2389poe    c3111388   1.334   0.960   6.210  0.1381  0.0224  0.1398
 2390poe    c3111389   4.422   1.495   1.922  0.1726  0.1818 -0.0156
 2390poe     o211390   4.453   1.620   1.980  0.5388  0.0782  0.0143
 2390poe    c2311391   4.351   1.717   1.979 -0.2587 -0.7520  0.1092
 2390poe    c2311392   4.413   1.840   2.047  0.2419 -0.9678  0.0428
 2390poe     o211393   4.535   1.863   1.979 -0.3855  0.1790 -0.7217
 2390poe    c2311394   4.609   1.974   2.025 -0.4318  0.1099 -0.4762
 2390poe    c2311395   4.740   1.982   1.944 -0.0701 -0.4732  0.0439
 2390poe     o211396   4.786   1.850   1.931 -0.5427 -0.5900 -0.4759
 2390poe    c2311397   4.913   1.858   1.871 -0.3796 -0.1105 -0.0701
 2390poe    c2311398   4.993   1.726   1.868 -0.2223 -0.0229  0.2405
 2390poe     o211399   4.936   1.635   1.777  0.2691 -0.0322 -0.0599
 2390poe    c3111400   5.036   1.552   1.723  0.5705  0.4102 -0.1859
 2391poe    c3111401   4.609   0.835   3.118  0.5281 -0.2416  0.6362
 2391poe     o211402   4.507   0.867   3.025  0.7694 -0.1059  0.4150
 2391poe    c2311403   4.550   0.842   2.893  0.0165  0.4182  0.0630
 2391poe    c2311404   4.444   0.902   2.800 -0.0391 -0.0870 -0.2029
 2391poe     o211405   4.341   0.814   2.760 -0.2216  0.1488 -0.2575
 2391poe    c2311406   4.246   0.867   2.671 -0.3370  0.1373 -0.1412
 2391poe    c2311407   4.158   0.760   2.603 -0.1865 -0.1526  0.1170
 2391poe     o211408   4.227   0.681   2.509 -0.0496  0.4119 -0.2651
 2391poe    c2311409   4.135   0.596   2.444 -0.0178  0.2923 -0.1530
 2391poe    c2311410   4.180   0.520   2.318  0.3930  0.0345  0.1455
 2391poe     o211411   4.284   0.428   2.339  0.1524 -0.1736  0.4377
 2391poe    c3111412   4.298   0.344   2.226 -0.2755  0.3693 -0.0228
 2392poe    c3111413   0.723   4.114   5.390 -0.2785  0.8142 -0.3161
 2392poe     o211414   0.672   3.991   5.344 -0.1330  0.6172  0.0538
 2392poe    c2311415   0.576   4.030   5.248 -0.1731  0.5822  0.0797
 2392poe    c2311416   0.452   3.943   5.224 -0.0804  0.3077  0.5809
 2392poe     o211417   0.486   3.830   5.148 -0.3491  0.0099  0.8959
 2392poe    c2311418   0.415   3.715   5.188 -0.4883 -0.2681 -0.1171
 2392poe    c2311419   0.425   3.602   5.084 -0.2297 -0.8932  0.5801
 2392poe     o211420   0.551   3.544   5.057 -0.0387 -0.3038  0.1998
 2392poe    c2311421   0.552   3.439   4.964  0.8501 -0.0641 -0.0786
 2392poe    c2311422   0.538   3.489   4.819  0.3560 -0.2104 -0.0863
 2392poe     o211423   0.412   3.541   4.783  0.0943 -0.7673  0.0139
 2392poe    c3111424   0.402   3.542   4.642 -0.4357  0.0725  0.0552
 2393poe    c3111425   3.303   5.516   3.331 -0.4434  0.0560  0.3209
 2393poe     o211426   3.203   5.439   3.392 -0.6446 -0.0846 -0.1757
 2393poe    c2311427   3.259   5.334   3.468 -0.0640  0.3770  0.0485
 2393poe    c2311428   3.169   5.290   3.585 -0.1099 -0.1863 -0.1917
 2393poe     o211429   3.032   5.284   3.555 -0.2205 -0.9481  0.4324
 2393poe    c2311430   2.946   5.297   3.666 -0.1085  0.2351  0.3991
 2393poe    c2311431   2.805   5.245   3.632 -0.2423  0.2731  0.8931
 2393poe     o211432   2.756   5.319   3.523 -0.8665 -0.2988  0.7742
 2393poe    c2311433   2.639   5.260   3.471 -0.3430 -0.3496 -0.3609
 2393poe    c2311434   2.591   5.360   3.364  0.5936  1.0907  0.5246
 2393poe     o211435   2.703   5.391   3.284  0.3253 -0.0015 -0.3152
 2393poe    c3111436   2.665   5.413   3.150 -0.6731  0.2591  0.0045
 2394poe    c3111437   4.661   5.464   4.222 -0.6948  0.1697 -0.0295
 2394poe     o211438   4.625   5.586   4.283 -0.0505  0.2455  0.2066
 2394poe    c2311439   4.672   5.596   4.416 -0.4509 -0.2084  0.3840
 2394poe    c2311440   4.645   5.732   4.483 -0.3182  0.0608 -0.1040
 2394poe     o211441   4.513   5.781   4.497 -0.1817  0.3251  0.2906
 2394poe    c2311442   4.464   5.857   4.389 -0.1333 -0.0890 -0.0295
 2394poe    c2311443   4.328   5.912   4.435 -0.1465 -0.1234 -0.0280
 2394poe     o211444   4.258   5.819   4.514  0.0776 -0.2689  0.0014
 2394poe    c2311445   4.133   5.879   4.539 -0.0684 -0.3136 -0.6053
 2394poe    c2311446   4.070   5.796   4.653 -0.3479  0.1275 -0.4387
 2394poe     o211447   4.043   5.670   4.596  0.3976 -0.3112  0.1601
 2394poe    c3111448   3.967   5.588   4.682 -0.3188 -0.3922 -0.5348
 2395poe    c3111449   6.364   2.715   3.930  0.0667 -0.4123  0.1152
 2395poe     o211450   6.350   2.643   4.050 -0.2959 -0.7097 -0.1031
 2395poe    c2311451   6.221   2.669   4.100  0.0546  0.8526  0.0410
 2395poe    c2311452   6.214   2.633   4.250  0.3562 -0.2266 -0.1925
 2395poe     o211453   6.215   2.502   4.301  0.1477  0.0788  0.6100
 2395poe    c2311454   6.099   2.424   4.278  0.2722  0.0142  0.2051
 2395poe    c2311455   6.119   2.279   4.327 -0.2029 -0.1040  0.0509
 2395poe     o211456   6.234   2.237   4.258 -0.0757  0.2484  0.0431
 2395poe    c2311457   6.267   2.107   4.303 -0.2571 -0.0766 -0.7432
 2395poe    c2311458   6.416   2.080   4.275 -0.0599  0.3569 -0.1383
 2395poe     o211459   6.487   2.201   4.283 -0.1830  0.4105  0.1455
 2395poe    c3111460   6.624   2.180   4.312 -0.2062 -0.5269 -0.4100
 2396poe    c3111461   0.489   1.609   5.856  0.2802 -0.2014  0.0233
 2396poe     o211462   0.594   1.516   5.840  0.4947  0.0708 -0.1737
 2396poe    c2311463   0.545   1.387   5.810  0.1694  0.1806 -0.1196
 2396poe    c2311464   0.668   1.301   5.776  0.1905  0.2187 -0.1402
 2396poe     o211465   0.742   1.249   5.885 -0.0641 -0.3506 -0.2350
 2396poe    c2311466   0.767   1.112   5.864 -0.2846 -0.4743  0.2895
 2396poe    c2311467   0.872   1.040   5.951  0.2865 -0.5821 -0.4727
 2396poe     o211468   1.008   1.075   5.938  0.0789  0.4036 -0.0293
 2396poe    c2311469   1.055   1.030   5.813  0.4673  0.6449  0.0304
 2396poe    c2311470   1.206   1.052   5.793  0.6472  0.0750  0.7022
 2396poe     o211471   1.232   1.190   5.793  0.1026  0.1864 -0.3708
 2396poe    c3111472   1.350   1.215   5.719  0.1812 -0.2134 -0.3815
 2397poe    c3111473   6.620   6.650   1.871  0.6769 -0.2010  0.0890
 2397poe     o211474   6.626   6.643   2.012 -0.3785 -0.1837  0.1371
 2397poe    c2311475   6.542   6.735   2.078 -0.0073  0.2448  0.0118
 2397poe    c2311476   6.576   6.720   2.227 -0.2526  0.2219  0.0649
 2397poe     o211477   6.603   6.586   2.261  0.1030  0.4146  0.5540
 2397poe    c2311478   6.590   6.556   2.398 -0.5091 -0.0805  0.3940
 2397poe    c2311479   6.635   6.409   2.409  0.2651  0.1067 -0.2023
 2397poe     o211480   6.578   6.341   2.300 -0.1815 -0.0491  0.1282
 2397poe    c2311481   6.614   6.205   2.309  0.3387  0.0444 -0.4597
 2397poe    c2311482   6.523   6.115   2.223  0.3573 -0.1276 -0.3007
 2397poe     o211483   6.529   6.143   2.085  0.3904  0.0442 -0.2649
 2397poe    c3111484   6.421   6.075   2.025  0.1223  0.3245 -0.1009
 2398poe    c3111485   2.202   1.781   4.299  0.0405  0.9910 -0.0519
 2398poe     o211486   2.314   1.740   4.373 -0.0334 -0.2051 -0.5769
 2398poe    c2311487   2.330   1.603   4.399 -0.0960 -0.0583  0.2517
 2398poe    c2311488   2.478   1.560   4.399 -0.0957 -0.0538  0.0588
 2398poe     o211489   2.544   1.641   4.493 -0.0671 -0.4194  0.3561
 2398poe    c2311490   2.683   1.614   4.491 -0.0696 -0.4350  0.4110
 2398poe    c2311491   2.748   1.722   4.579 -0.3739  0.2124 -0.1450
 2398poe     o211492   2.683   1.844   4.552 -0.0252  0.4320  0.0003
 2398poe    c2311493   2.758   1.951   4.607 -0.2560  0.4811  0.2181
 2398poe    c2311494   2.697   2.022   4.729 -0.0226 -0.4770  0.9060
 2398poe     o211495   2.585   2.103   4.701  0.2129 -0.3073  0.4442
 2398poe    c3111496   2.550   2.187   4.809  0.0763  0.1949  0.0106
 2399poe    c3111497   4.107   3.259   2.532  0.4655  0.1499  0.2057
 2399poe     o211498   4.003   3.225   2.621  0.4650 -0.2953  0.0377
 2399poe    c2311499   3.888   3.299   2.586  0.4495 -0.1754  0.3461
 2399poe    c2311500   3.785   3.273   2.698  0.1286 -0.2406  0.0382
 2399poe     o211501   3.823   3.315   2.827 -0.5881 -0.4097  0.3104
 2399poe    c2311502   3.721   3.302   2.923 -0.5162  0.2033  0.4751
 2399poe    c2311503   3.776   3.334   3.063  0.2281 -0.3505  0.3134
 2399poe     o211504   3.835   3.460   3.085  0.0144 -0.1486 -0.2665
 2399poe    c2311505   3.881   3.492   3.214 -0.3654 -0.0136 -0.1634
 2399poe    c2311506   3.940   3.634   3.219  0.1330 -0.2347  0.3970
 2399poe     o211507   4.010   3.657   3.099 -0.4003  0.1361  0.1529
 2399poe    c3111508   4.087   3.774   3.116  0.1686 -0.1619 -0.3415
 2400poe    c3111509   5.713   6.644   5.843  0.2556  0.0370 -0.2618
 2400poe     o211510   5.655   6.772   5.851  0.1403 -0.0363  0.0843
 2400poe    c2311511   5.517   6.742   5.849  0.0193  0.5065  0.2195
 2400poe    c2311512   5.433   6.871   5.851 -0.6967  0.0621 -0.5431
 2400poe     o211513   5.510   6.963   5.776  0.2856 -0.2752  0.0237
 2400poe    c2311514   5.438   7.084   5.773 -0.0598 -0.4826 -0.2189
 2400poe    c2311515   5.504   7.186   5.678 -0.3215 -0.2318 -0.1374
 2400poe     o211516   5.633   7.210   5.731 -0.0155  0.2122 -1.0742
 2400poe    c2311517   5.651   7.333   5.798  0.0634 -0.4029  0.0611
 2400poe    c2311518   5.749   7.343   5.916  0.3865  0.5967 -0.2838
 2400poe     o211519   5.873   7.290   5.876  0.4392  0.4791  0.0331
 2400poe    c3111520   5.971   7.334   5.968 -0.0824  0.0621  0.7930
 2401poe    c3111521   1.045   2.685   4.773 -0.0068 -0.0039  0.2775
 2401poe     o211522   0.914   2.675   4.824 -0.0522  0.0016  0.1618
 2401poe    c2311523   0.894   2.544   4.873  0.0616  0.0725  0.3988
 2401poe    c2311524   0.784   2.550   4.981 -0.4837 -0.3724 -0.1245
 2401poe     o211525   0.689   2.634   4.919 -0.1925 -0.0313 -0.1124
 2401poe    c2311526   0.577   2.648   5.003 -0.1548  0.1120 -0.0849
 2401poe    c2311527   0.453   2.727   4.957 -0.2804  0.3477  0.6410
 2401poe     o211528   0.499   2.838   4.884  0.1358 -0.1762  0.0957
 2401poe    c2311529   0.393   2.927   4.861  0.1327 -0.1828  0.0850
 2401poe    c2311530   0.429   3.036   4.758  0.0490 -0.1016  0.1417
 2401poe     o211531   0.492   2.988   4.642  0.0443  0.0710  0.0679
 2401poe    c3111532   0.535   3.097   4.563  0.5610 -0.1010  0.1099
 2402poe    c3111533   5.139   6.832   5.342  0.7707  0.1325  0.8739
 2402poe     o211534   5.086   6.956   5.386 -0.1497 -0.0410  0.2779
 2402poe    c2311535   5.097   7.047   5.279 -0.1455  0.0461  0.3530
 2402poe    c2311536   5.036   7.187   5.302 -0.1254  0.1450 -0.1966
 2402poe     o211537   4.896   7.191   5.321 -0.1861 -0.1058 -0.5640
 2402poe    c2311538   4.845   7.321   5.337 -0.2334 -0.2398  0.4252
 2402poe    c2311539   4.693   7.325   5.363 -0.2537 -0.2492  0.3066
 2402poe     o211540   4.620   7.289   5.249  0.0352 -0.0522  0.0549
 2402poe    c2311541   4.480   7.270   5.258  0.0240  0.1586  0.3113
 2402poe    c2311542   4.439   7.124   5.281 -0.0885  0.1092 -0.2056
 2402poe     o211543   4.462   7.039   5.170  0.2674 -0.3750  0.2359
 2402poe    c3111544   4.414   6.907   5.184 -0.3735 -0.1557  0.1168
 2403poe    c3111545   6.678   3.740   1.746 -0.6976 -0.0142 -0.2259
 2403poe     o211546   6.739   3.866   1.730 -0.3042 -0.2179 -0.3330
 2403poe    c2311547   6.861   3.858   1.659  0.0815 -0.0887  0.3071
 2403poe    c2311548   6.935   3.993   1.643 -0.0858 -0.0487 -0.1434
 2403poe     o211549   6.839   4.095   1.625  0.1456  0.1999  0.0236
 2403poe    c2311550   6.912   4.208   1.586  0.8127 -0.3590 -0.3741
 2403poe    c2311551   6.828   4.337   1.577  0.0997 -0.7872  0.0793
 2403poe     o211552   6.719   4.319   1.489  0.0697 -0.0460 -0.0429
 2403poe    c2311553   6.616   4.414   1.503  0.0968  0.0531 -0.5054
 2403poe    c2311554   6.502   4.387   1.403 -0.2988  0.0985 -0.0702
 2403poe     o211555   6.454   4.256   1.417 -0.2155  0.0484 -0.2480
 2403poe    c3111556   6.314   4.264   1.433 -0.1228  0.5192  0.3754
 2404poe    c3111557   6.802   6.748   4.171 -0.2575  0.1777 -0.2715
 2404poe     o211558   6.688   6.664   4.165 -0.2289  0.1285 -0.1300
 2404poe    c2311559   6.602   6.681   4.276 -0.1527  0.4689 -0.1218
 2404poe    c2311560   6.478   6.772   4.266 -0.2840  0.3381  0.3177
 2404poe     o211561   6.384   6.714   4.179  0.1702  0.2267 -0.1036
 2404poe    c2311562   6.409   6.734   4.041  0.7417 -0.1752 -0.0613
 2404poe    c2311563   6.278   6.712   3.963  0.5102 -0.7579  0.4768
 2404poe     o211564   6.174   6.801   3.998  0.3489 -0.6112 -0.3616
 2404poe    c2311565   6.040   6.758   3.988  0.1733 -0.2129  0.2184
 2404poe    c2311566   5.989   6.704   3.853 -0.1031  0.1952  0.1554
 2404poe     o211567   5.995   6.787   3.740  0.1625 -0.5417 -0.3848
 2404poe    c3111568   5.941   6.707   3.637 -0.0213 -0.6367 -0.2149
 2405poe    c3111569   5.570   3.906   6.523  0.1933  0.3444 -0.7302
 2405poe     o211570   5.441   3.859   6.489  0.1526  0.0415 -0.1697
 2405poe    c2311571   5.449   3.818   6.354  0.1026  0.0678 -0.1809
 2405poe    c2311572   5.311   3.778   6.300  0.0902  0.0911 -0.1667
 2405poe     o211573   5.229   3.890   6.273  0.0803 -0.0552 -0.7453
 2405poe    c2311574   5.094   3.863   6.243 -0.1198  0.5265 -0.3697
 2405poe    c2311575   5.013   3.978   6.179 -0.3734  0.5087 -0.0867
 2405poe     o211576   5.063   3.993   6.048  0.2898 -0.2932  0.0677
 2405poe    c2311577   5.006   4.098   5.974  0.0774 -0.6588 -0.2952
 2405poe    c2311578   5.027   4.077   5.823  0.1638 -0.3950 -0.3209
 2405poe     o211579   5.155   4.098   5.768  0.3039 -0.4155 -0.0036
 2405poe    c3111580   5.159   4.061   5.632  0.6962 -0.0716 -0.0865
 2406poe    c3111581   6.368   0.702   5.379  0.0190 -0.0720 -0.4775
 2406poe     o211582   6.499   0.754   5.377 -0.0769  0.1706 -0.5295
 2406poe    c2311583   6.585   0.656   5.325 -0.0859 -0.1283  0.0129
 2406poe    c2311584   6.732   0.686   5.360 -0.1289  0.0855  0.0129
 2406poe     o211585   6.782   0.801   5.295 -0.0252  0.0175 -0.0283
 2406poe    c2311586   6.913   0.823   5.343 -0.0712 -0.2599  0.2258
 2406poe    c2311587   6.965   0.955   5.283  0.0585 -0.0123  0.8689
 2406poe     o211588   6.866   1.051   5.308 -0.3514 -0.1817 -0.0363
 2406poe    c2311589   6.915   1.184   5.306  0.0469 -0.3153  0.5343
 2406poe    c2311590   6.796   1.267   5.356 -0.0512 -0.3658  0.3842
 2406poe     o211591   6.680   1.220   5.291 -0.0771 -0.0761  0.2167
 2406poe    c3111592   6.576   1.314   5.275  0.0315 -0.0840 -0.5978
 2407poe    c3111593   0.411   2.622   5.469 -0.0296  0.0453  0.2213
 2407poe     o211594   0.322   2.725   5.506  0.1119  0.1520  0.2645
 2407poe    c2311595   0.387   2.850   5.517  0.5571 -0.0368 -0.1899
 2407poe    c2311596   0.293   2.959   5.570  0.3914 -0.0119 -0.5282
 2407poe     o211597   0.165   2.918   5.529  0.0596 -0.4072  0.8499
 2407poe    c2311598   0.076   3.009   5.589  0.0984 -0.0602  0.3833
 2407poe    c2311599  -0.065   2.986   5.532  0.1385  0.1975  0.1782
 2407poe     o211600  -0.117   2.857   5.555 -0.1314  0.3793  0.5974
 2407poe    c2311601  -0.241   2.831   5.493  0.4101 -0.4976 -0.1543
 2407poe    c2311602  -0.251   2.820   5.340 -0.5106 -0.1533 -0.1281
 2407poe     o211603  -0.175   2.708   5.299 -0.0806  0.0202  0.1840
 2407poe    c3111604  -0.229   2.660   5.178  0.5717 -0.0051 -0.0993
 2408poe    c3111605   1.482   3.956   3.176 -0.0339 -0.1613  0.6636
 2408poe     o211606   1.405   4.022   3.275 -0.0191  0.2442  0.4075
 2408poe    c2311607   1.327   4.119   3.209  0.1282  0.1225  0.0500
 2408poe    c2311608   1.272   4.216   3.315  0.1098  0.4067 -0.2198
 2408poe     o211609   1.212   4.128   3.407  0.3773  0.4490 -0.0047
 2408poe    c2311610   1.162   4.205   3.515 -0.3592  0.1113 -0.0994
 2408poe    c2311611   1.062   4.116   3.590 -0.1201  0.2536  0.3965
 2408poe     o211612   1.123   3.993   3.621  0.5363  0.5233  0.1813
 2408poe    c2311613   1.027   3.897   3.659  0.2836  0.4380 -0.6528
 2408poe    c2311614   1.077   3.752   3.670 -0.0836  0.3642  0.1201
 2408poe     o211615   1.117   3.689   3.550 -0.2143 -0.1546  0.3484
 2408poe    c3111616   1.012   3.620   3.486 -0.0199  0.2579 -0.4224
 2409poe    c3111617   2.776   3.639   2.170  0.4707  0.4940  0.6403
 2409poe     o211618   2.831   3.512   2.142  0.0958  0.4400  0.1253
 2409poe    c2311619   2.740   3.406   2.158  0.2975  0.1787 -0.4279
 2409poe    c2311620   2.829   3.282   2.174 -0.2940 -0.1770  0.1718
 2409poe     o211621   2.920   3.282   2.066 -0.0694 -0.6055  0.3602
 2409poe    c2311622   3.020   3.182   2.068  0.1065 -0.4376 -0.0295
 2409poe    c2311623   3.061   3.155   1.922 -0.0498  0.2840 -0.2131
 2409poe     o211624   3.055   3.277   1.852  0.0931  0.6738  0.4458
 2409poe    c2311625   3.108   3.263   1.722  0.2252  0.0568  0.5615
 2409poe    c2311626   3.139   3.406   1.673  0.2293 -0.1764 -0.1340
 2409poe     o211627   3.020   3.482   1.671  0.0363 -0.4765 -0.1800
 2409poe    c3111628   3.052   3.602   1.605  0.0456 -0.3210  0.1041
 2410poe    c3111629   3.158   0.936   6.397  0.0279  0.0362 -0.6382
 2410poe     o211630   3.259   1.031   6.374 -0.0091  0.2831  0.1716
 2410poe    c2311631   3.252   1.087   6.245  0.0821 -0.1393 -0.0169
 2410poe    c2311632   3.344   1.210   6.240  0.3098 -0.3400 -0.9693
 2410poe     o211633   3.466   1.162   6.292 -0.2788 -0.5904  0.2127
 2410poe    c2311634   3.565   1.262   6.300 -0.3109 -0.5642  0.2822
 2410poe    c2311635   3.693   1.201   6.359 -0.1924 -0.5859  0.0049
 2410poe     o211636   3.656   1.138   6.480  0.0674 -0.4237  0.1703
 2410poe    c2311637   3.780   1.111   6.543  0.2677 -0.5024 -0.2505
 2410poe    c2311638   3.760   1.064   6.688  0.4297  0.6366  0.1473
 2410poe     o211639   3.720   1.161   6.782 -0.5389  0.5329 -0.1476
 2410poe    c3111640   3.682   1.091   6.898 -0.3104  0.3994 -0.1521
 2411poe    c3111641   2.802   3.266   1.534 -0.4947  0.1515  0.7057
 2411poe     o211642   2.693   3.265   1.624 -0.8367 -0.4418  0.2907
 2411poe    c2311643   2.593   3.350   1.574 -0.0932  0.0978 -0.3062
 2411poe    c2311644   2.493   3.374   1.689  0.1128  0.2319 -0.1541
 2411poe     o211645   2.470   3.255   1.762  0.3166  0.2939  0.0140
 2411poe    c2311646   2.382   3.285   1.868 -0.0206  0.1607 -0.2251
 2411poe    c2311647   2.353   3.161   1.956 -0.0556  0.1830 -0.2056
 2411poe     o211648   2.473   3.135   2.025 -0.1760  0.1897  0.0064
 2411poe    c2311649   2.446   3.031   2.116  0.5559 -0.0384 -0.0333
 2411poe    c2311650   2.573   2.977   2.185  0.2091 -0.3395  0.3773
 2411poe     o211651   2.642   2.892   2.096 -0.3010 -0.6154  0.2438
 2411poe    c3111652   2.749   2.825   2.159 -0.4781 -0.0153  1.2086
 2412poe    c3111653   2.334   3.990   5.418  0.0349  0.1337 -0.2195
 2412poe     o211654   2.364   4.117   5.472 -0.3131  0.0650  0.1424
 2412poe    c2311655   2.323   4.226   5.393  0.1297 -0.0064 -0.1841
 2412poe    c2311656   2.358   4.352   5.473 -0.3805  0.1287 -0.1728
 2412poe     o211657   2.482   4.334   5.539 -0.4924  0.5092  0.1448
 2412poe    c2311658   2.522   4.450   5.609  0.1702  0.1934  0.2941
 2412poe    c2311659   2.649   4.425   5.693  0.2370  0.3558  0.2416
 2412poe     o211660   2.631   4.306   5.766  0.4521  0.1808  0.0113
 2412poe    c2311661   2.733   4.262   5.853  0.4333  0.0674 -0.0241
 2412poe    c2311662   2.687   4.171   5.969 -0.0614  0.1103 -0.1845
 2412poe     o211663   2.603   4.064   5.932  0.0601 -0.0882  0.1125
 2412poe    c3111664   2.627   3.985   6.046 -0.3068 -0.0747  0.1973
 2413poe    c3111665   2.616   3.471   6.633 -0.0716  0.4300 -0.0805
 2413poe     o211666   2.527   3.362   6.633  0.2890  0.1312  0.0817
 2413poe    c2311667   2.466   3.361   6.761 -0.6188  0.5284 -0.3376
 2413poe    c2311668   2.385   3.232   6.784 -0.2721  0.3683 -0.0134
 2413poe     o211669   2.277   3.208   6.696 -0.0648  0.0238 -0.1760
 2413poe    c2311670   2.217   3.086   6.734  0.2706 -0.1991 -0.3524
 2413poe    c2311671   2.079   3.066   6.669  0.0540 -0.2424  0.1154
 2413poe     o211672   2.113   3.092   6.535 -0.0227 -0.0747  0.1286
 2413poe    c2311673   1.999   3.074   6.454 -0.2838  0.7398  0.3084
 2413poe    c2311674   2.044   3.101   6.310 -0.4807  0.1350  0.1303
 2413poe     o211675   2.127   3.215   6.310 -0.0299 -0.1873 -0.2802
 2413poe    c3111676   2.124   3.261   6.177 -0.6785  0.2209 -0.1303
 2414poe    c3111677   6.230   0.685   1.572 -1.0239  0.3533 -0.3085
 2414poe     o211678   6.274   0.786   1.660 -0.0727  0.0069 -0.3785
 2414poe    c2311679   6.254   0.737   1.791 -0.0187 -0.1005 -0.4101
 2414poe    c2311680   6.322   0.833   1.891  0.4996 -0.8034 -0.0798
 2414poe     o211681   6.250   0.953   1.907  0.2000 -1.0694  0.5908
 2414poe    c2311682   6.316   1.068   1.956 -0.9191 -0.2757  0.2723
 2414poe    c2311683   6.218   1.187   1.953 -1.0097 -0.3567  0.0562
 2414poe     o211684   6.170   1.221   1.825 -0.0194  0.4956 -0.1009
 2414poe    c2311685   6.069   1.319   1.835  0.2810  0.7930  0.0197
 2414poe    c2311686   6.036   1.403   1.711  0.0216 -0.1856 -0.5868
 2414poe     o211687   6.146   1.482   1.670  0.2778 -0.2781 -0.0843
 2414poe    c3111688   6.131   1.617   1.709  0.1619 -0.5149  0.7064
 2415poe    c3111689   4.659   5.417   2.577  0.0337 -0.0893 -0.3650
 2415poe     o211690   4.591   5.478   2.685  0.1998 -0.6760  0.0740
 2415poe    c2311691   4.612   5.392   2.795  0.0047 -0.0050  0.6417
 2415poe    c2311692   4.565   5.461   2.925 -0.4220 -0.0261  0.4993
 2415poe     o211693   4.428   5.493   2.922 -0.4781 -0.2719  0.3710
 2415poe    c2311694   4.380   5.571   3.029  0.1471  0.1495  0.3498
 2415poe    c2311695   4.228   5.591   3.040  0.0881  0.0099 -0.1879
 2415poe     o211696   4.178   5.672   2.936 -0.3154  0.2490  0.1828
 2415poe    c2311697   4.037   5.673   2.930 -0.3074 -0.2288 -0.1782
 2415poe    c2311698   4.006   5.741   2.795  0.0686  0.0839 -0.1117
 2415poe     o211699   4.058   5.677   2.681  0.0631  0.0189 -0.0777
 2415poe    c3111700   4.060   5.765   2.571 -0.4807 -0.3082 -0.3581
 2416poe    c3111701   2.787   1.808   6.360  0.6811 -0.0905 -0.5649
 2416poe     o211702   2.708   1.908   6.300  0.3254 -0.1202 -0.1537
 2416poe    c2311703   2.575   1.878   6.335  0.2451  0.1976 -0.1812
 2416poe    c2311704   2.493   2.006   6.312 -0.3505 -0.1306  0.0960
 2416poe     o211705   2.564   2.123   6.346 -0.5985 -0.0505  0.3449
 2416poe    c2311706   2.490   2.235   6.303 -0.4718 -0.2621 -0.4448
 2416poe    c2311707   2.568   2.361   6.344 -0.0043 -0.5847 -0.3409
 2416poe     o211708   2.705   2.327   6.330  0.1910  0.1229 -0.1654
 2416poe    c2311709   2.788   2.441   6.333  0.0707  0.2074 -0.0024
 2416poe    c2311710   2.810   2.496   6.476  0.4343  0.3237 -0.1020
 2416poe     o211711   2.858   2.382   6.543 -0.2586 -0.0668 -0.2526
 2416poe    c3111712   2.904   2.395   6.676 -0.2928  0.0233 -0.2497
 2417poe    c3111713   4.250   1.207   5.545 -0.8448 -0.1975  0.5400
 2417poe     o211714   4.160   1.243   5.443  0.1453 -0.2881 -0.3825
 2417poe    c2311715   4.141   1.138   5.350 -0.1148 -0.4278 -0.1742
 2417poe    c2311716   4.033   1.188   5.252  0.2691  0.1415 -0.3119
 2417poe     o211717   4.063   1.325   5.233  0.0074  0.1960 -0.3411
 2417poe    c2311718   3.958   1.371   5.151 -0.4377  0.1639  0.2032
 2417poe    c2311719   3.999   1.517   5.123  0.2391 -0.1827 -0.6596
 2417poe     o211720   4.002   1.599   5.238  0.1141  0.0270 -0.8040
 2417poe    c2311721   4.058   1.721   5.196  0.1359  0.3422  0.1338
 2417poe    c2311722   4.087   1.800   5.326  0.0163  0.6081 -0.0001
 2417poe     o211723   4.175   1.739   5.417  0.0083  0.3812 -0.1427
 2417poe    c3111724   4.201   1.833   5.518  0.2306  0.2913 -0.1147
 2418poe    c3111725   1.609   0.586   2.229 -0.4325 -0.1687  0.6461
 2418poe     o211726   1.729   0.511   2.230 -0.2121  0.1832  0.4568
 2418poe    c2311727   1.716   0.407   2.136 -0.3090  0.2205  0.4281
 2418poe    c2311728   1.856   0.345   2.117 -0.4132  0.0963  0.0603
 2418poe     o211729   1.892   0.273   2.232 -0.3500  0.0196 -0.0077
 2418poe    c2311730   2.024   0.224   2.236 -0.3315  0.0720  0.0314
 2418poe    c2311731   2.074   0.125   2.343 -0.1105 -0.0445 -0.1774
 2418poe     o211732   2.072   0.173   2.476 -0.2289 -0.2619 -0.1009
 2418poe    c2311733   2.076   0.063   2.564  0.3805  0.0625  0.2825
 2418poe    c2311734   2.188   0.066   2.669  0.3063 -0.9574  0.4014
 2418poe     o211735   2.165   0.152   2.779  0.5372  0.1043 -0.3675
 2418poe    c3111736   2.130   0.076   2.892  0.4499  0.8373  0.1002
 2419poe    c3111737   1.162   4.075   3.974 -0.1141  0.0141 -0.1047
 2419poe     o211738   1.114   4.120   4.098  0.0424 -0.3833  0.0990
 2419poe    c2311739   0.997   4.056   4.144  0.2256 -0.4730  0.4466
 2419poe    c2311740   0.927   4.121   4.265  0.2995  0.7023 -0.1271
 2419poe     o211741   1.004   4.110   4.383  0.0579 -0.4860 -0.0668
 2419poe    c2311742   0.951   4.166   4.502  0.7433  0.0407 -0.0037
 2419poe    c2311743   1.038   4.138   4.626  0.4531 -0.1417  0.1597
 2419poe     o211744   1.174   4.167   4.604  0.5014 -0.2000  0.3799
 2419poe    c2311745   1.261   4.102   4.694  0.7506  0.1594  0.4008
 2419poe    c2311746   1.294   3.956   4.655  0.1268  0.0452  0.2928
 2419poe     o211747   1.375   3.945   4.541  0.7754  0.3428  0.7212
 2419poe    c3111748   1.440   3.819   4.536 -0.3885 -0.2367 -0.1249
 2420poe    c3111749   6.120   3.631   2.338 -0.0878  0.1444 -0.1602
 2420poe     o211750   6.077   3.532   2.246  0.2574  0.5592 -0.7713
 2420poe    c2311751   5.936   3.526   2.248  0.2707  0.3891 -0.1759
 2420poe    c2311752   5.887   3.485   2.108  0.2413  0.0432 -0.0654
 2420poe     o211753   5.929   3.357   2.067 -0.1157 -0.1308  0.1027
 2420poe    c2311754   5.881   3.324   1.938 -0.2094  0.9101 -0.1345
 2420poe    c2311755   5.960   3.377   1.817  0.3182  0.2437 -0.0835
 2420poe     o211756   6.091   3.326   1.829  0.3594  0.4099  0.1563
 2420poe    c2311757   6.149   3.300   1.703 -0.0737  0.0424  0.0315
 2420poe    c2311758   6.300   3.271   1.707 -0.0351  0.2009 -0.2649
 2420poe     o211759   6.354   3.362   1.800  0.5479 -0.3356 -0.0760
 2420poe    c3111760   6.494   3.347   1.801  0.6179  0.3119  0.3157
 2421poe    c3111761   0.707   0.693   6.766 -0.5525 -0.6111  0.1172
 2421poe     o211762   0.583   0.676   6.702 -0.3187  0.1303 -0.5422
 2421poe    c2311763   0.504   0.608   6.797 -0.0711  0.5573 -0.0268
 2421poe    c2311764   0.370   0.582   6.726 -0.1046  0.4280  0.0849
 2421poe     o211765   0.390   0.544   6.591 -0.2120  0.0947  0.1614
 2421poe    c2311766   0.288   0.471   6.527 -0.1105  0.0444  0.0560
 2421poe    c2311767   0.277   0.519   6.381  0.1426  0.0770  0.0483
 2421poe     o211768   0.406   0.532   6.327 -0.0597  0.4385 -0.3484
 2421poe    c2311769   0.411   0.515   6.187 -0.1865  0.2026 -0.3235
 2421poe    c2311770   0.533   0.587   6.127  0.1667  0.3313  0.5354
 2421poe     o211771   0.654   0.519   6.150 -0.0044 -0.2984 -0.3561
 2421poe    c3111772   0.766   0.590   6.102 -0.4225  0.5750 -0.0654
 2422poe    c3111773   0.275   0.887   1.887  0.3261  0.0660  0.4536
 2422poe     o211774   0.190   0.988   1.938 -0.0040 -0.0014  0.0426
 2422poe    c2311775   0.153   1.083   1.841 -0.2364 -0.0374  0.0969
 2422poe    c2311776   0.028   1.162   1.885  0.0341  0.2919  0.2729
 2422poe     o211777   0.046   1.263   1.981  0.5965  0.6914 -0.2470
 2422poe    c2311778  -0.058   1.358   1.981  0.0384  0.0857  0.2725
 2422poe    c2311779   0.007   1.490   2.025  0.0378  0.4171 -0.7087
 2422poe     o211780   0.084   1.442   2.133  0.2980  0.5592 -0.8279
 2422poe    c2311781   0.170   1.535   2.194 -0.3238  0.5852  0.0339
 2422poe    c2311782   0.238   1.462   2.312 -0.0082  0.0803 -0.4524
 2422poe     o211783   0.271   1.329   2.279  0.2412  0.1324 -0.4133
 2422poe    c3111784   0.357   1.279   2.379  0.2048  0.4161 -0.2375
 2423poe    c3111785   5.868   3.672   1.389 -0.4091 -0.2429  0.0122
 2423poe     o211786   5.897   3.605   1.268 -0.2257  0.0677 -0.1177
 2423poe    c2311787   6.032   3.568   1.251 -0.2386 -0.2512  0.4342
 2423poe    c2311788   6.071   3.567   1.102 -0.2667  0.5214  0.4170
 2423poe     o211789   5.947   3.540   1.041  0.1019 -0.1283 -0.0600
 2423poe    c2311790   5.963   3.521   0.902  0.1931 -0.1329 -0.0489
 2423poe    c2311791   5.850   3.428   0.852 -0.5098  0.3174  0.6809
 2423poe     o211792   5.817   3.335   0.952  0.0627 -0.4936  0.1280
 2423poe    c2311793   5.692   3.278   0.922 -0.2916  0.2187  0.2278
 2423poe    c2311794   5.680   3.144   0.998  0.2849 -0.1730 -0.3700
 2423poe     o211795   5.653   3.153   1.136 -0.8544 -0.5602 -0.5578
 2423poe    c3111796   5.664   3.025   1.194  0.3300 -0.2239 -0.0096
 2424poe    c3111797   4.872   5.581   2.268 -0.5151  0.4152 -0.3283
 2424poe     o211798   4.862   5.643   2.142  0.0405  0.2490 -0.4575
 2424poe    c2311799   4.846   5.553   2.035 -0.1933  0.0885 -0.2884
 2424poe    c2311800   4.785   5.619   1.909 -0.0301 -0.6314 -0.7539
 2424poe     o211801   4.646   5.642   1.917  0.1157  0.0904 -0.1573
 2424poe    c2311802   4.618   5.702   1.792 -0.0031 -0.1009 -0.2218
 2424poe    c2311803   4.470   5.741   1.771 -0.1489  0.0571  1.0153
 2424poe     o211804   4.382   5.635   1.739 -0.2144  0.3937  0.0551
 2424poe    c2311805   4.246   5.668   1.752 -0.2533  0.2017  0.1300
 2424poe    c2311806   4.173   5.545   1.693  0.3988  0.0212 -0.3056
 2424poe     o211807   4.173   5.435   1.781 -0.0534  0.8539  0.7513
 2424poe    c3111808   4.056   5.361   1.754  0.4463  0.6850 -1.0665
 2425poe    c3111809   6.919   3.435   5.949 -0.4187 -0.6570  0.5264
 2425poe     o211810   6.890   3.572   5.962 -0.1530 -0.5608  0.1392
 2425poe    c2311811   6.961   3.653   5.872 -0.2327  0.2056  0.7516
 2425poe    c2311812   7.066   3.743   5.940  0.1877  0.5058 -0.2656
 2425poe     o211813   7.172   3.678   6.007  0.1856  0.0934 -0.6620
 2425poe    c2311814   7.304   3.721   5.979  0.2303  0.2664 -0.1848
 2425poe    c2311815   7.340   3.857   6.041  0.4175 -0.0451  0.3906
 2425poe     o211816   7.278   3.956   5.962  0.2839 -0.1598  0.3526
 2425poe    c2311817   7.310   4.085   6.007  0.4032  0.0235 -0.2517
 2425poe    c2311818   7.253   4.202   5.924 -0.3686  0.0943  0.3663
 2425poe     o211819   7.118   4.213   5.962 -0.5629 -0.5184 -0.1358
 2425poe    c3111820   7.044   4.288   5.868  0.1582  0.2011 -0.1358
 2426poe    c3111821   4.509   6.004   4.760 -0.3106  0.3113 -0.5973
 2426poe     o211822   4.390   5.974   4.830 -0.0296  0.0870 -0.2143
 2426poe    c2311823   4.331   6.084   4.896  0.5724 -0.0899  0.6337
 2426poe    c2311824   4.194   6.065   4.962  0.5968  0.7832  0.9434
 2426poe     o211825   4.199   5.966   5.062 -0.2080 -0.2371  0.0006
 2426poe    c2311826   4.074   5.927   5.114 -0.0228 -0.0511  0.5931
 2426poe    c2311827   4.070   5.791   5.187 -0.2097 -0.4200 -0.1011
 2426poe     o211828   4.125   5.691   5.105  0.0292  0.0797 -0.5580
 2426poe    c2311829   4.116   5.568   5.173 -0.1157  0.3703 -0.0524
 2426poe    c2311830   4.121   5.443   5.083 -0.4173  0.2889  0.0415
 2426poe     o211831   4.250   5.428   5.028 -0.5547  0.0206 -0.2065
 2426poe    c3111832   4.267   5.305   4.960 -0.2566  0.0826 -0.2431
 2427poe    c3111833   5.521   4.760   6.615 -0.3105  0.0893 -0.3330
 2427poe     o211834   5.455   4.832   6.717  0.2986 -0.1444  0.2362
 2427poe    c2311835   5.536   4.941   6.758  0.2443  0.0165 -0.0734
 2427poe    c2311836   5.450   5.040   6.839  0.2756 -0.1229  0.1311
 2427poe     o211837   5.363   4.968   6.923  0.2281 -0.2021  0.0131
 2427poe    c2311838   5.250   5.046   6.957  0.1486 -0.3390  0.0669
 2427poe    c2311839   5.147   4.964   7.035  0.4223 -0.1307  0.6521
 2427poe     o211840   5.097   4.848   6.972  0.1046  0.6793 -0.6145
 2427poe    c2311841   4.980   4.807   7.039  0.4553  0.6055 -0.0409
 2427poe    c2311842   4.906   4.692   6.969  0.2214  0.7169  0.0244
 2427poe     o211843   4.870   4.729   6.837 -0.4262 -0.1726 -0.0615
 2427poe    c3111844   4.804   4.623   6.772 -0.4447 -0.2784  0.1276
 2428poe    c3111845   0.533   3.067   1.056  0.6423 -0.0682  0.4141
 2428poe     o211846   0.616   3.129   0.960  0.1277  0.4268  0.2874
 2428poe    c2311847   0.741   3.149   1.021  0.5641 -0.9268 -0.1358
 2428poe    c2311848   0.849   3.231   0.948  0.2794 -0.2518  0.1947
 2428poe     o211849   0.829   3.370   0.959 -0.3671 -0.2770 -0.6067
 2428poe    c2311850   0.734   3.420   0.867  0.1009  0.5128 -0.6726
 2428poe    c2311851   0.710   3.572   0.880 -0.3341  0.4375 -0.5901
 2428poe     o211852   0.657   3.625   0.999 -0.0746 -0.1022 -0.2272
 2428poe    c2311853   0.611   3.759   0.992 -0.3457 -0.1758  0.1232
 2428poe    c2311854   0.561   3.810   1.129 -0.1707 -0.6203  0.3584
 2428poe     o211855   0.664   3.811   1.225 -0.0319 -0.0134  0.2108
 2428poe    c3111856   0.610   3.884   1.333 -0.1424 -0.0151  0.1577
 2429poe    c3111857   1.737   4.254   0.218 -0.2814 -0.5665  0.4796
 2429poe     o211858   1.718   4.152   0.122 -0.3943 -0.3747  0.2955
 2429poe    c2311859   1.690   4.028   0.184 -0.1759 -0.5222  0.1017
 2429poe    c2311860   1.712   3.898   0.106  0.4502 -0.3873  0.0494
 2429poe     o211861   1.851   3.876   0.092  0.5423 -0.1450  0.5453
 2429poe    c2311862   1.889   3.795  -0.017 -0.6516  0.1330 -0.1011
 2429poe    c2311863   2.017   3.861  -0.072 -0.4608 -0.3541 -0.2470
 2429poe     o211864   1.995   3.987  -0.131  0.0624 -0.4574 -0.6729
 2429poe    c2311865   2.115   4.059  -0.150 -0.0982 -0.1296 -0.4645
 2429poe    c2311866   2.096   4.194  -0.221  0.1491  0.3632  0.3910
 2429poe     o211867   2.037   4.203  -0.348 -0.3453 -0.3078  0.5651
 2429poe    c3111868   1.998   4.334  -0.385  0.0636 -0.3740 -0.1291
 2430poe    c3111869   1.454   2.194   3.191 -0.3220 -0.1711 -0.1079
 2430poe     o211870   1.523   2.101   3.271 -0.6922 -0.3316  0.0212
 2430poe    c2311871   1.598   2.012   3.191  0.0084 -0.0682  0.3768
 2430poe    c2311872   1.735   1.983   3.255  0.3391  0.5520 -0.0411
 2430poe     o211873   1.721   1.890   3.360  1.0478  0.3067 -0.1633
 2430poe    c2311874   1.854   1.870   3.403  0.8302  0.4153  0.5698
 2430poe    c2311875   1.868   1.744   3.490 -0.3593  0.0307  0.2213
 2430poe     o211876   1.795   1.750   3.611 -0.2994 -0.0838  0.2628
 2430poe    c2311877   1.847   1.648   3.694 -0.3830 -0.1127  0.2804
 2430poe    c2311878   1.756   1.628   3.815 -0.1298 -0.0146  0.4887
 2430poe     o211879   1.625   1.578   3.794 -0.2249  0.5158 -0.2074
 2430poe    c3111880   1.586   1.539   3.924 -0.1465 -0.6278 -0.5182
 2431poe    c3111881   3.886   2.501   6.883  0.1726 -0.0302 -0.1738
 2431poe     o211882   3.985   2.598   6.906 -0.3752  0.5340 -0.1903
 2431poe    c2311883   3.998   2.632   7.043  0.3359  0.3169 -0.1996
 2431poe    c2311884   4.140   2.686   7.065  0.5356 -0.3904  0.2761
 2431poe     o211885   4.174   2.773   6.958 -0.0275 -0.2853  0.1814
 2431poe    c2311886   4.293   2.847   6.976  0.1991 -0.5404 -0.2532
 2431poe    c2311887   4.334   2.945   6.864 -0.2063  0.2370  0.2681
 2431poe     o211888   4.248   3.052   6.836 -0.4948 -0.0269  0.1418
 2431poe    c2311889   4.254   3.166   6.919  0.0813  0.2924 -0.3316
 2431poe    c2311890   4.123   3.246   6.922 -0.0906 -0.0087  0.2413
 2431poe     o211891   4.095   3.330   6.813  0.6196  0.1898  0.2091
 2431poe    c3111892   4.002   3.432   6.841  0.3361 -0.1752  0.6058
 2432poe    c3111893   4.854   4.578   5.834  0.0463 -0.0908  0.0256
 2432poe     o211894   4.932   4.516   5.734 -0.2373  0.0262 -0.2708
 2432poe    c2311895   5.065   4.552   5.764 -0.4247  0.3268  0.2060
 2432poe    c2311896   5.150   4.481   5.657  0.2348  1.2428  0.1002
 2432poe     o211897   5.097   4.513   5.531 -0.1313  0.4461  0.0442
 2432poe    c2311898   5.190   4.519   5.426 -0.1426  0.1851  0.0182
 2432poe    c2311899   5.140   4.593   5.301 -0.2404  0.0955  0.0045
 2432poe     o211900   5.032   4.510   5.264 -0.1681 -0.1912  0.4342
 2432poe    c2311901   4.982   4.540   5.136 -0.4842 -0.2131  0.5518
 2432poe    c2311902   4.890   4.426   5.087 -0.7729  0.2319  0.0384
 2432poe     o211903   4.797   4.386   5.185 -0.2513  0.2386  0.5389
 2432poe    c3111904   4.734   4.262   5.167  0.6942 -0.1867  0.1170
 2433poe    c3111905   3.365   3.289   2.331 -0.0222 -0.1704  0.1328
 2433poe     o211906   3.264   3.378   2.288 -0.0367 -0.3665 -0.2446
 2433poe    c2311907   3.191   3.431   2.395 -0.4231 -0.6804 -0.3508
 2433poe    c2311908   3.064   3.510   2.357 -0.2013 -0.2255 -0.1552
 2433poe     o211909   3.077   3.618   2.267  0.2584  0.0785  0.2716
 2433poe    c2311910   3.152   3.728   2.315  0.1429  0.2332  0.0981
 2433poe    c2311911   3.180   3.827   2.201 -0.2843  0.2394 -0.0028
 2433poe     o211912   3.290   3.807   2.115 -0.5837 -0.3645 -0.2452
 2433poe    c2311913   3.299   3.930   2.047  0.5690 -0.1012  0.3730
 2433poe    c2311914   3.392   3.920   1.924 -0.0197  0.2786 -0.1053
 2433poe     o211915   3.523   3.970   1.937  0.0381  0.1051 -0.0095
 2433poe    c3111916   3.600   3.890   2.023 -0.2537 -0.4307 -0.2410
 2434poe    c3111917   2.423   5.541   6.056  0.6150  0.0088 -0.0852
 2434poe     o211918   2.417   5.634   6.162 -0.1494  0.3316 -0.4013
 2434poe    c2311919   2.420   5.771   6.128  0.8413  0.3289 -0.3686
 2434poe    c2311920   2.374   5.872   6.234 -0.2744 -0.6773  0.1229
 2434poe     o211921   2.458   5.862   6.347  0.1362  0.2999 -0.0921
 2434poe    c2311922   2.396   5.905   6.466 -0.0528 -0.6469  0.1581
 2434poe    c2311923   2.501   5.978   6.552 -0.4287 -0.3907  0.4028
 2434poe     o211924   2.623   5.907   6.544 -0.3112 -0.1737  0.2665
 2434poe    c2311925   2.737   5.954   6.613 -0.0639 -0.2058 -0.1183
 2434poe    c2311926   2.836   5.836   6.619  0.9097  0.6203  0.2745
 2434poe     o211927   2.885   5.816   6.489  0.6090 -0.0066  0.2547
 2434poe    c3111928   2.995   5.728   6.491  0.1014 -0.6445  0.2563
 2435poe    c3111929   5.410   6.918   6.952  0.0294 -0.0120 -0.2324
 2435poe     o211930   5.525   6.940   6.874 -0.0060  0.2955 -0.1995
 2435poe    c2311931   5.517   6.910   6.736  0.6987  0.1289 -0.2107
 2435poe    c2311932   5.651   6.934   6.665  1.0053 -0.4087  0.1832
 2435poe     o211933   5.693   7.067   6.683  0.7677 -0.4062  0.7620
 2435poe    c2311934   5.805   7.089   6.599 -0.1723  0.6227 -0.2618
 2435poe    c2311935   5.899   7.196   6.658 -0.0575  0.3002  0.1469
 2435poe     o211936   5.983   7.163   6.766 -0.0993 -0.2635  0.0097
 2435poe    c2311937   6.111   7.126   6.721 -0.0980 -0.3654  0.0972
 2435poe    c2311938   6.207   7.238   6.679 -0.7503  0.2354  0.1973
 2435poe     o211939   6.275   7.301   6.786  0.1966 -0.4837  0.0253
 2435poe    c3111940   6.395   7.245   6.835  0.2955 -0.6702 -0.4208
 2436poe    c3111941   6.867   1.845   4.188 -0.5332 -0.3643  0.0088
 2436poe     o211942   6.841   1.842   4.327 -0.6256 -0.5041 -0.0111
 2436poe    c2311943   6.946   1.757   4.368  0.3152  0.3927 -0.5120
 2436poe    c2311944   6.965   1.766   4.521  0.0265 -0.0057 -0.4530
 2436poe     o211945   6.989   1.894   4.574  0.4539 -0.3942  0.2998
 2436poe    c2311946   6.997   1.880   4.715 -0.2110 -0.2010  0.3574
 2436poe    c2311947   7.025   1.996   4.811 -0.1431  0.2337 -0.1808
 2436poe     o211948   6.920   2.081   4.851 -0.1811  0.0029  0.2098
 2436poe    c2311949   6.965   2.193   4.923 -0.3293  0.4554 -0.3928
 2436poe    c2311950   6.857   2.298   4.955 -0.0915  0.4404  0.5059
 2436poe     o211951   6.797   2.349   4.838  0.0454  0.0704  0.2706
 2436poe    c3111952   6.722   2.467   4.857  0.0700  0.0390  0.5716
 2437poe    c3111953   3.395   0.141   4.160 -0.3530 -0.2872 -0.7743
 2437poe     o211954   3.461   0.250   4.101 -0.3070  0.0367 -0.1386
 2437poe    c2311955   3.436   0.365   4.177 -0.3624 -0.0227 -0.0671
 2437poe    c2311956   3.456   0.485   4.083 -0.1784  0.1215  0.1547
 2437poe     o211957   3.585   0.500   4.029 -0.0491 -0.0401  0.4202
 2437poe    c2311958   3.633   0.633   4.019  0.3273 -0.2375 -0.4403
 2437poe    c2311959   3.787   0.632   4.016  0.3356  0.0975 -0.0585
 2437poe     o211960   3.834   0.549   3.913  0.2628  0.3007 -0.2565
 2437poe    c2311961   3.973   0.527   3.926  0.1704 -0.1333 -0.0068
 2437poe    c2311962   4.003   0.470   3.786  0.3037  0.1862 -0.1076
 2437poe     o211963   3.908   0.368   3.768  0.3427  0.1728 -0.2389
 2437poe    c3111964   3.943   0.291   3.655 -0.6999 -0.1147 -0.3795
 2438poe    c3111965   2.933   1.462   3.039  0.9160  0.0424 -0.1100
 2438poe     o211966   2.876   1.573   2.974 -0.4710 -0.6445 -0.0995
 2438poe    c2311967   2.799   1.543   2.859  0.0252  0.0018 -0.6078
 2438poe    c2311968   2.730   1.662   2.789 -0.5667  0.1030  0.1368
 2438poe     o211969   2.813   1.769   2.750 -0.4033 -0.4481 -1.0646
 2438poe    c2311970   2.728   1.880   2.734 -0.0193  0.0678  0.3033
 2438poe    c2311971   2.685   1.929   2.594  0.4887 -0.2030  0.0523
 2438poe     o211972   2.765   2.034   2.543 -0.2934  0.3859  0.0160
 2438poe    c2311973   2.729   2.064   2.410 -0.8264  0.5197  0.1884
 2438poe    c2311974   2.772   2.202   2.355 -0.6846  0.2161 -0.4720
 2438poe     o211975   2.737   2.310   2.439  0.2248 -0.0300  0.2409
 2438poe    c3111976   2.794   2.424   2.379  0.9497 -0.2590  0.4806
 2439poe    c3111977   5.356   1.244   1.648  0.0829 -0.2363  0.1303
 2439poe     o211978   5.444   1.149   1.702  0.0203 -0.3155  0.0937
 2439poe    c2311979   5.425   1.133   1.841  0.1772  0.6494  0.2365
 2439poe    c2311980   5.501   1.003   1.876 -0.1352  0.2964 -0.3762
 2439poe     o211981   5.628   1.031   1.823  0.3458 -0.6717  0.2305
 2439poe    c2311982   5.721   0.930   1.852  0.5290 -0.6281 -0.1886
 2439poe    c2311983   5.848   0.961   1.770  0.2097  0.1831 -0.3848
 2439poe     o211984   5.807   1.019   1.648  0.1021  0.3626 -0.2636
 2439poe    c2311985   5.920   1.034   1.564  0.6538  0.6795  0.5174
 2439poe    c2311986   5.899   1.134   1.449  0.2511 -0.0638 -0.0646
 2439poe     o211987   5.878   1.268   1.487  0.2754 -0.2065  0.4570
 2439poe    c3111988   5.914   1.345   1.375 -0.0581 -0.1943  0.3578
 2440poe    c3111989   1.194   5.037   3.742  0.7723  0.0011 -0.1214
 2440poe     o211990   1.260   5.082   3.858 -0.1423  0.3677  0.2626
 2440poe    c2311991   1.227   5.008   3.974  0.2260 -0.3181 -0.0643
 2440poe    c2311992   1.332   5.041   4.082  0.5702  0.2723 -0.5726
 2440poe     o211993   1.312   5.168   4.138  0.8797  0.2089 -0.3134
 2440poe    c2311994   1.375   5.176   4.264  0.1335 -0.3476  0.1043
 2440poe    c2311995   1.477   5.291   4.263 -0.4050  0.1296 -0.3894
 2440poe     o211996   1.438   5.418   4.312  0.2101  0.2942 -0.3188
 2440poe    c2311997   1.517   5.456   4.422 -0.3912 -0.3372  0.3413
 2440poe    c2311998   1.536   5.608   4.430 -0.3379 -0.3279  0.0197
 2440poe     o211999   1.409   5.666   4.451 -0.0102  0.5485 -0.3689
 2440poe    c3112000   1.432   5.803   4.479  0.3815  0.4090 -0.0034
 2441poe    c3112001   0.425   0.529   3.939 -0.0372  0.1560 -0.5199
 2441poe     o212002   0.367   0.639   4.006  0.3499  0.3026 -0.4225
 2441poe    c2312003   0.357   0.752   3.923  0.6133  0.4397 -0.2726
 2441poe    c2312004   0.376   0.884   3.999 -0.0506  0.1392  0.4329
 2441poe     o212005   0.314   0.859   4.123 -0.1961 -0.1654  0.2995
 2441poe    c2312006   0.336   0.973   4.203 -0.2771  0.4045 -0.4735
 2441poe    c2312007   0.258   0.956   4.334  0.0912  0.0022 -0.3020
 2441poe     o212008   0.315   0.848   4.404 -0.3180 -0.3022 -0.4287
 2441poe    c2312009   0.309   0.840   4.545  0.3755  0.2641 -0.3638
 2441poe    c2312010   0.437   0.782   4.607  0.3216  0.1777 -0.3339
 2441poe     o212011   0.477   0.650   4.578  0.7787  0.2368  0.0145
 2441poe    c3112012   0.603   0.632   4.639  0.1785 -0.6474  1.0513
 2442poe    c3112013   2.272   3.340   4.402 -0.0015 -0.4012  0.1654
 2442poe     o212014   2.345   3.349   4.523  0.4640 -0.0078 -0.1438
 2442poe    c2312015   2.481   3.315   4.503  0.3468 -0.4622 -0.1709
 2442poe    c2312016   2.566   3.376   4.616  0.2371 -0.1263 -0.2695
 2442poe     o212017   2.582   3.514   4.593 -0.4737  0.0738  0.4064
 2442poe    c2312018   2.676   3.574   4.680  0.0005 -0.0242 -0.0362
 2442poe    c2312019   2.711   3.718   4.639 -0.1900 -0.1709 -0.7229
 2442poe     o212020   2.595   3.797   4.644  0.3346  0.6006 -0.5830
 2442poe    c2312021   2.632   3.930   4.615  0.0558  0.8276  0.0965
 2442poe    c2312022   2.511   4.010   4.564 -0.2704  0.0086 -0.4346
 2442poe     o212023   2.397   3.957   4.628 -0.0466 -0.0999 -0.1249
 2442poe    c3112024   2.286   4.036   4.593 -0.2770 -0.4286 -0.1373
 2443poe    c3112025   1.608   5.912   4.111  0.4472  0.0744 -0.3235
 2443poe     o212026   1.474   5.934   4.072  0.4690  0.4660 -0.1839
 2443poe    c2312027   1.452   6.073   4.067 -0.1993  0.3757  0.0601
 2443poe    c2312028   1.313   6.116   4.016  0.0103  0.1245 -0.7194
 2443poe     o212029   1.211   6.052   4.089  0.1214  0.9349  0.1543
 2443poe    c2312030   1.086   6.117   4.077 -0.1467  0.4088  0.0998
 2443poe    c2312031   0.967   6.036   4.134  0.5394 -0.4532  0.3347
 2443poe     o212032   0.908   5.941   4.049  0.6590  0.0343 -0.3084
 2443poe    c2312033   0.820   6.001   3.956 -0.0701  0.3087  0.5421
 2443poe    c2312034   0.694   5.914   3.938  0.2794 -0.1185  0.1401
 2443poe     o212035   0.611   5.912   4.052 -0.0574  0.0504 -0.1050
 2443poe    c3112036   0.494   5.836   4.030 -0.1862  0.2354 -0.0627
 2444poe    c3112037   4.614   1.834   6.140 -0.0025 -0.0978 -0.0897
 2444poe     o212038   4.506   1.907   6.085 -0.1295  0.2088  0.5511
 2444poe    c2312039   4.447   1.837   5.978  0.0813  0.3950  0.3144
 2444poe    c2312040   4.330   1.909   5.908  0.1521  0.6400  0.4454
 2444poe     o212041   4.368   2.022   5.833  0.3029  0.0809 -0.3375
 2444poe    c2312042   4.266   2.096   5.770 -0.1368  0.0682  0.3561
 2444poe    c2312043   4.197   2.213   5.843 -0.3887 -0.0793  0.3556
 2444poe     o212044   4.280   2.326   5.850 -0.3083 -0.0950 -0.2260
 2444poe    c2312045   4.240   2.437   5.772  0.0500  0.1328 -0.0913
 2444poe    c2312046   4.308   2.569   5.813 -0.1203  0.1908  0.0074
 2444poe     o212047   4.262   2.609   5.940  0.2804  0.5726  0.0322
 2444poe    c3112048   4.310   2.741   5.959  0.1943  0.4944  0.8345
 2445poe    c3112049   1.937   0.874   2.810  0.0531 -0.2966  0.3712
 2445poe     o212050   2.025   0.764   2.811 -0.1791 -0.4822  0.4042
 2445poe    c2312051   1.942   0.651   2.792 -0.1632 -0.4405  0.0824
 2445poe    c2312052   1.921   0.570   2.921 -0.4493 -0.0242  0.2960
 2445poe     o212053   2.038   0.505   2.965 -0.0181  0.7292  0.2828
 2445poe    c2312054   2.017   0.478   3.102 -0.1136 -0.2178  0.0873
 2445poe    c2312055   2.142   0.453   3.188  0.1739 -0.0425 -0.2787
 2445poe     o212056   2.216   0.573   3.180  0.4886 -0.2325 -0.2175
 2445poe    c2312057   2.333   0.572   3.259  0.4373 -0.2087 -0.1423
 2445poe    c2312058   2.408   0.701   3.222 -0.0544 -0.0539 -0.6032
 2445poe     o212059   2.486   0.712   3.105  0.0761  0.3241 -0.4818
 2445poe    c3112060   2.618   0.668   3.129 -0.2544 -0.1350  0.5814
 2446poe    c3112061   4.665   0.572   1.092 -0.1497 -0.2329 -0.3886
 2446poe     o212062   4.803   0.603   1.102 -0.2495  0.0154  0.2554
 2446poe    c2312063   4.854   0.608   0.971 -0.4205  0.0498  0.1899
 2446poe    c2312064   4.993   0.672   0.969 -0.4796  0.1735 -0.1964
 2446poe     o212065   5.094   0.598   1.034 -0.3757  0.5000  0.0215
 2446poe    c2312066   5.206   0.682   1.047  0.0828 -0.1304  0.2443
 2446poe    c2312067   5.342   0.638   0.989 -0.2342 -0.8804  0.0587
 2446poe     o212068   5.347   0.633   0.848  0.3550  0.5811  0.0136
 2446poe    c2312069   5.458   0.568   0.791 -0.0223 -0.2379  0.2107
 2446poe    c2312070   5.448   0.558   0.638  0.1341 -0.1195  0.1928
 2446poe     o212071   5.466   0.682   0.574  0.2012 -0.1636  0.1256
 2446poe    c3112072   5.359   0.693   0.482  0.1464  0.3792  0.2483
 2447poe    c3112073   3.482   1.110   3.193 -0.1053  0.2155 -0.2966
 2447poe     o212074   3.480   1.188   3.311 -0.2486  0.2579 -0.3277
 2447poe    c2312075   3.567   1.296   3.288  0.2268 -0.1407 -0.4274
 2447poe    c2312076   3.623   1.336   3.426 -0.0513  0.0029 -0.3551
 2447poe     o212077   3.513   1.358   3.512 -0.1009 -0.1869 -0.3696
 2447poe    c2312078   3.574   1.376   3.638  0.0490 -0.4535 -0.4014
 2447poe    c2312079   3.471   1.415   3.745  0.6312 -0.2573  0.0939
 2447poe     o212080   3.349   1.348   3.720  0.3038  0.5438 -0.5240
 2447poe    c2312081   3.261   1.341   3.830  0.4980  0.3214 -0.3811
 2447poe    c2312082   3.121   1.304   3.777  0.3947  0.2200 -0.0387
 2447poe     o212083   3.131   1.237   3.654  0.1312 -0.5558  0.3595
 2447poe    c3112084   3.029   1.143   3.629  0.0494 -0.3031 -0.2793
 2448poe    c3112085   5.200   5.817   2.216 -0.0828  0.1784  0.1386
 2448poe     o212086   5.215   5.948   2.266 -0.3743  0.4582 -0.4906
 2448poe    c2312087   5.340   5.954   2.331 -0.4222  0.2925 -0.3822
 2448poe    c2312088   5.352   6.090   2.402  0.3469  0.0079  0.0397
 2448poe     o212089   5.252   6.104   2.501  0.6172  0.3718  0.2623
 2448poe    c2312090   5.206   6.237   2.509 -0.5566 -0.0190  0.1175
 2448poe    c2312091   5.121   6.265   2.635 -0.2318 -0.2135  0.3827
 2448poe     o212092   4.981   6.250   2.621 -0.1937  0.0101 -0.2607
 2448poe    c2312093   4.915   6.276   2.743  0.1038 -0.2046 -0.0531
 2448poe    c2312094   4.877   6.423   2.769  0.5226 -0.0349 -0.3708
 2448poe     o212095   4.783   6.470   2.674  0.1562 -0.2210 -0.1050
 2448poe    c3112096   4.771   6.610   2.670  0.2533 -0.1820  0.6528
 2449poe    c3112097   4.029   1.917   3.988 -0.1909  0.2440 -0.4854
 2449poe     o212098   3.947   2.015   4.047 -0.2392  0.1629 -0.4157
 2449poe    c2312099   4.015   2.134   4.083  0.1165 -0.1277 -0.1271
 2449poe    c2312100   3.916   2.248   4.111  0.1811 -0.1122  0.0342
 2449poe     o212101   3.806   2.181   4.169 -0.4097 -0.0453 -0.9934
 2449poe    c2312102   3.698   2.268   4.196 -0.2933 -0.1392 -0.1919
 2449poe    c2312103   3.603   2.201   4.296 -0.7236  0.3419 -0.2769
 2449poe     o212104   3.516   2.097   4.255  0.0538 -0.2692 -0.3942
 2449poe    c2312105   3.429   2.053   4.357 -0.2033  0.3149 -0.3559
 2449poe    c2312106   3.327   1.957   4.292  0.0729 -0.2266  0.0015
 2449poe     o212107   3.373   1.832   4.246 -0.1265 -0.2991 -0.0023
 2449poe    c3112108   3.279   1.746   4.187 -0.6009  0.3665 -0.2257
 2450poe    c3112109   6.495   5.276   6.429  0.0965 -0.3114  0.4260
 2450poe     o212110   6.623   5.218   6.413 -0.0797 -0.5319 -0.2282
 2450poe    c2312111   6.668   5.200   6.546  0.0703  0.3255 -0.1552
 2450poe    c2312112   6.808   5.138   6.563  0.0679  0.0714 -0.9945
 2450poe     o212113   6.830   5.002   6.533 -0.3474 -0.2548  0.1350
 2450poe    c2312114   6.962   4.954   6.548 -0.2332 -0.0697 -0.2648
 2450poe    c2312115   6.965   4.808   6.499 -0.3676 -0.2434  0.2375
 2450poe     o212116   6.936   4.799   6.362 -0.2491 -0.2389  0.2117
 2450poe    c2312117   6.960   4.665   6.325  0.1631 -0.2181  0.4030
 2450poe    c2312118   6.873   4.625   6.205  0.3011  0.1911  0.1632
 2450poe     o212119   6.885   4.725   6.107 -0.3998  0.2875  0.1670
 2450poe    c3112120   6.832   4.686   5.982 -0.6982  0.0013  0.3834
 2451poe    c3112121   0.909   2.115   2.404 -0.0682  0.1717 -0.3562
 2451poe     o212122   1.043   2.088   2.438 -0.2621 -0.2487  0.0747
 2451poe    c2312123   1.106   2.180   2.524  0.6899 -0.6859 -0.1382
 2451poe    c2312124   1.258   2.186   2.497  0.7066 -0.2515  0.0458
 2451poe     o212125   1.329   2.072   2.539  0.4573 -0.3567  0.1838
 2451poe    c2312126   1.462   2.089   2.582  0.3544 -0.0627  0.3887
 2451poe    c2312127   1.494   1.945   2.624  0.2320 -0.3917 -0.6092
 2451poe     o212128   1.469   1.858   2.516 -0.4636 -0.4732 -0.3874
 2451poe    c2312129   1.510   1.729   2.556 -0.0455 -0.2352 -0.0435
 2451poe    c2312130   1.497   1.636   2.434  0.4064 -0.0923 -0.2035
 2451poe     o212131   1.383   1.676   2.361  0.1261 -0.3623  0.0848
 2451poe    c3112132   1.344   1.586   2.259 -0.1926 -0.5036  0.3308
 2452poe    c3112133   0.469   2.584   0.496 -0.4968  0.3355 -0.1020
 2452poe     o212134   0.574   2.668   0.535 -0.4372  0.1126  0.2208
 2452poe    c2312135   0.571   2.696   0.674  0.2797 -0.1276  0.2919
 2452poe    c2312136   0.709   2.739   0.726  0.2927 -0.0105  0.1621
 2452poe     o212137   0.735   2.869   0.678 -0.3429 -0.0083 -0.1836
 2452poe    c2312138   0.861   2.912   0.724 -0.5942 -0.1835  0.6738
 2452poe    c2312139   0.927   3.010   0.626 -0.3567 -0.3186  0.6975
 2452poe     o212140   0.829   3.095   0.569  0.2286 -0.2209 -0.1822
 2452poe    c2312141   0.877   3.193   0.479  0.4057 -0.4020 -0.2862
 2452poe    c2312142   0.756   3.261   0.413  0.2633 -0.2658  0.1077
 2452poe     o212143   0.638   3.185   0.411 -0.0308  0.1964 -0.3094
 2452poe    c3112144   0.534   3.269   0.364  0.1213  0.3896 -0.3006
 2453poe    c3112145   4.725   6.919   1.095  0.6767  0.0228 -0.0198
 2453poe     o212146   4.791   7.042   1.119  0.7474 -0.0918  0.3877
 2453poe    c2312147   4.819   7.054   1.256 -0.3768 -0.1057  0.6213
 2453poe    c2312148   4.861   7.201   1.277  0.0988 -0.1342 -0.1322
 2453poe     o212149   4.950   7.222   1.169  0.3430 -0.8941 -0.0887
 2453poe    c2312150   5.002   7.353   1.172  0.2565 -0.8715  0.4808
 2453poe    c2312151   5.118   7.373   1.072 -0.1733  0.0786  0.1700
 2453poe     o212152   5.092   7.314   0.947  0.1142  0.1878  0.0572
 2453poe    c2312153   5.202   7.331   0.861  0.0546  0.2777 -0.0020
 2453poe    c2312154   5.188   7.260   0.725  0.4821  0.0297  0.0811
 2453poe     o212155   5.192   7.120   0.744  0.0013  0.0549  0.3837
 2453poe    c3112156   5.228   7.050   0.627  0.8231  0.0781  0.6193
 2454poe    c3112157   5.878   4.936   6.507 -0.4202  0.4233 -0.0912
 2454poe     o212158   5.911   5.054   6.437 -0.4782  0.5015  0.0133
 2454poe    c2312159   5.979   5.152   6.511 -0.4778  0.4513  0.0795
 2454poe    c2312160   6.008   5.268   6.414 -0.3144  0.0270 -0.3788
 2454poe     o212161   6.091   5.229   6.307  0.0312 -0.0439 -0.0874
 2454poe    c2312162   6.100   5.344   6.225  0.6377  0.0688  0.1335
 2454poe    c2312163   6.181   5.322   6.096  0.0068  0.1558 -0.2753
 2454poe     o212164   6.127   5.243   5.992 -0.5708  0.1211  0.0458
 2454poe    c2312165   6.225   5.180   5.913 -0.1100  0.0569  0.6623
 2454poe    c2312166   6.191   5.035   5.873 -0.2289  0.1516  0.4154
 2454poe     o212167   6.186   4.951   5.986 -0.4250 -0.2220  0.1321
 2454poe    c3112168   6.165   4.819   5.942 -0.8362 -0.0075 -0.3142
 2455poe    c3112169   5.863   5.595   0.073 -0.0503 -0.2467  0.1235
 2455poe     o212170   5.995   5.572   0.117  0.0352 -0.1184 -0.0686
 2455poe    c2312171   6.047   5.663   0.211 -0.2743  0.1960 -0.1992
 2455poe    c2312172   6.193   5.625   0.241 -0.1797  0.6601 -0.0692
 2455poe     o212173   6.202   5.520   0.335  0.5434  0.3936 -0.4274
 2455poe    c2312174   6.333   5.500   0.382  0.3763 -0.1573 -0.1949
 2455poe    c2312175   6.339   5.365   0.456  0.2164 -0.0895 -0.0584
 2455poe     o212176   6.313   5.255   0.371 -0.3963 -0.0520  0.0707
 2455poe    c2312177   6.310   5.136   0.446  0.0814 -0.3527 -0.3818
 2455poe    c2312178   6.237   5.018   0.379 -0.0885 -0.3442 -0.2139
 2455poe     o212179   6.290   4.999   0.249  0.2034 -0.0502 -0.1399
 2455poe    c3112180   6.413   4.941   0.213  0.3592 -0.3270  0.8162
 2456poe    c3112181   5.462   1.917   0.255  0.0629 -0.5062  0.6654
 2456poe     o212182   5.391   2.021   0.319  0.2270  0.0616 -0.0665
 2456poe    c2312183   5.482   2.118   0.364  0.1848  0.0018  0.1476
 2456poe    c2312184   5.420   2.211   0.470 -0.3351  0.4100 -0.5058
 2456poe     o212185   5.292   2.236   0.416 -0.4660  0.1280 -0.3267
 2456poe    c2312186   5.219   2.333   0.487  0.2467  0.2105  0.3044
 2456poe    c2312187   5.076   2.348   0.433  0.4072 -0.1381 -0.2253
 2456poe     o212188   5.050   2.225   0.370 -0.3412  0.0121 -0.2208
 2456poe    c2312189   4.912   2.211   0.348 -0.3494  0.3370 -0.3860
 2456poe    c2312190   4.877   2.080   0.274  0.0727 -0.2840  0.4963
 2456poe     o212191   4.922   2.079   0.140  0.4755 -0.0104  0.6245
 2456poe    c3112192   4.889   1.959   0.074  0.1535  0.2112  0.3785
 2457poe    c3112193   2.638   3.291   2.946  0.3261 -1.0251 -0.1653
 2457poe     o212194   2.650   3.284   3.086 -0.3110  0.1217 -0.0470
 2457poe    c2312195   2.738   3.384   3.131  0.3559 -0.3199 -0.3608
 2457poe    c2312196   2.751   3.409   3.283  0.4773 -0.0289 -0.4170
 2457poe     o212197   2.834   3.316   3.349  0.1630  0.0466  0.0941
 2457poe    c2312198   2.845   3.328   3.489  0.1857  0.5585  0.0507
 2457poe    c2312199   2.961   3.245   3.547 -0.0478  0.3778  0.2608
 2457poe     o212200   2.977   3.111   3.506  0.2723  0.4586  0.1195
 2457poe    c2312201   3.106   3.073   3.550  0.1362  0.2265  0.3173
 2457poe    c2312202   3.143   2.936   3.490  0.6250  0.3789  0.2744
 2457poe     o212203   3.146   2.929   3.349  0.5509  0.5198  0.2657
 2457poe    c3112204   3.207   2.806   3.317  0.4314  0.6385 -0.4273
 2458poe    c3112205   3.021   5.643   4.151 -0.3477  0.1207  0.4644
 2458poe     o212206   3.125   5.674   4.240  0.2517  0.0883 -0.2142
 2458poe    c2312207   3.236   5.592   4.209  0.5989  0.4399  0.0759
 2458poe    c2312208   3.353   5.596   4.309  0.7814 -0.5528 -0.0835
 2458poe     o212209   3.310   5.541   4.431 -0.0267  0.7317  0.2303
 2458poe    c2312210   3.399   5.550   4.540  0.2943 -0.1468  0.0514
 2458poe    c2312211   3.333   5.496   4.668  0.4192 -0.0896  0.1400
 2458poe     o212212   3.228   5.584   4.702  0.2161 -0.3394  0.1546
 2458poe    c2312213   3.168   5.542   4.822  0.4297  0.3191  0.4940
 2458poe    c2312214   3.090   5.669   4.861  0.2190  0.4577 -0.3757
 2458poe     o212215   3.023   5.725   4.750 -0.0220  0.3111 -0.3049
 2458poe    c3112216   2.899   5.782   4.786 -0.0363  0.2321 -0.2264
 2459poe    c3112217   1.447   1.973   0.570  0.2537 -0.1835 -0.7313
 2459poe     o212218   1.318   2.014   0.528 -0.1901 -0.1133  0.6530
 2459poe    c2312219   1.320   2.030   0.388 -0.1848 -0.8377  0.5653
 2459poe    c2312220   1.192   2.081   0.319  0.8354  0.2147 -0.5889
 2459poe     o212221   1.087   1.988   0.315  0.5955  0.4956 -0.8672
 2459poe    c2312222   0.972   2.037   0.250  0.3764  0.1343 -0.7586
 2459poe    c2312223   0.879   1.918   0.225  0.1061  0.1593  0.1015
 2459poe     o212224   0.875   1.839   0.342  0.2298 -0.4843 -0.3204
 2459poe    c2312225   0.824   1.709   0.324  0.2202 -0.5759  0.3438
 2459poe    c2312226   0.815   1.637   0.460 -0.3176  0.1402  0.6952
 2459poe     o212227   0.943   1.605   0.512 -0.0338  0.1348 -0.0019
 2459poe    c3112228   0.938   1.491   0.595  0.6708  0.2020  0.1341
 2460poe    c3112229   3.997   2.605   5.157  0.0252  0.4624 -0.7496
 2460poe     o212230   4.106   2.522   5.189 -0.3145  0.4627  0.4595
 2460poe    c2312231   4.111   2.510   5.329  0.0385  0.3584  0.4398
 2460poe    c2312232   4.259   2.498   5.371  0.2497  0.2282 -0.3345
 2460poe     o212233   4.307   2.365   5.365 -0.1208  0.0880 -0.2500
 2460poe    c2312234   4.393   2.358   5.477 -0.3035  0.4262 -0.0858
 2460poe    c2312235   4.473   2.227   5.490  0.0961  0.7217  0.4600
 2460poe     o212236   4.555   2.203   5.377 -0.8136  0.0496 -0.0697
 2460poe    c2312237   4.625   2.082   5.391  0.2049  0.6119 -0.2512
 2460poe    c2312238   4.726   2.049   5.280 -0.2534 -0.0205 -0.4827
 2460poe     o212239   4.681   2.030   5.148 -0.1719  0.7242 -0.6179
 2460poe    c3112240   4.787   1.983   5.069  0.2846  0.4124  0.1743
 2461poe    c3112241   2.084   3.868   3.943  0.0231  0.3765 -0.3912
 2461poe     o212242   2.168   3.908   3.837 -0.0625  0.1549 -0.5428
 2461poe    c2312243   2.174   3.804   3.742 -0.2530 -0.0157 -0.3682
 2461poe    c2312244   2.309   3.792   3.668 -0.0274 -0.5532  0.1212
 2461poe     o212245   2.427   3.790   3.746  0.2962 -0.2065 -0.3556
 2461poe    c2312246   2.530   3.751   3.659  0.2706 -0.2453 -0.3685
 2461poe    c2312247   2.662   3.820   3.701  0.2965  0.0030 -0.8498
 2461poe     o212248   2.650   3.960   3.693 -0.0982  0.0297  0.0974
 2461poe    c2312249   2.755   4.029   3.756 -0.0585 -0.2781  0.3697
 2461poe    c2312250   2.718   4.077   3.898 -0.2071  0.0509  0.2223
 2461poe     o212251   2.602   4.155   3.915 -0.4275 -0.0347 -0.8685
 2461poe    c3112252   2.612   4.288   3.868 -0.6396  0.2882 -0.0112
 2462poe    c3112253   3.585   0.786   0.616  0.2948 -0.0738 -0.2132
 2462poe     o212254   3.449   0.769   0.586  0.2802 -0.0620 -0.1537
 2462poe    c2312255   3.392   0.643   0.615  0.4030 -0.1457 -0.2798
 2462poe    c2312256   3.241   0.648   0.645  0.4146 -0.1475 -0.2222
 2462poe     o212257   3.202   0.699   0.770 -0.3516 -0.0612 -0.4937
 2462poe    c2312258   3.061   0.708   0.772 -0.3595 -0.2744  0.0939
 2462poe    c2312259   3.008   0.751   0.911 -0.7994  0.2398 -0.2307
 2462poe     o212260   3.069   0.861   0.975  0.2094 -0.4524  0.0276
 2462poe    c2312261   3.010   0.891   1.099 -0.4185 -0.0963 -0.3469
 2462poe    c2312262   3.023   1.039   1.139  0.3189 -0.2176 -0.1113
 2462poe     o212263   3.154   1.059   1.187  0.2141 -0.2456  0.1871
 2462poe    c3112264   3.165   1.195   1.220 -0.0314 -0.1236 -0.2332
 2463poe    c3112265   2.222   0.371   5.728 -0.0491  0.0345  0.6187
 2463poe     o212266   2.098   0.326   5.678 -0.0622  0.2187  0.4863
 2463poe    c2312267   1.997   0.317   5.776 -0.5671  0.6844  0.0111
 2463poe    c2312268   1.869   0.257   5.714  0.1567  0.2240 -1.0786
 2463poe     o212269   1.836   0.353   5.617  0.0620  0.7682 -0.5153
 2463poe    c2312270   1.719   0.322   5.545  0.0006  0.0489 -0.1028
 2463poe    c2312271   1.707   0.432   5.438 -0.2162  0.2650  0.1418
 2463poe     o212272   1.833   0.435   5.375 -0.2860 -0.1590 -0.0252
 2463poe    c2312273   1.817   0.455   5.236 -0.1031 -0.2323 -0.0558
 2463poe    c2312274   1.951   0.439   5.161 -0.1906 -0.6338 -0.1299
 2463poe     o212275   2.034   0.550   5.187 -0.0569 -0.7555 -0.0378
 2463poe    c3112276   2.142   0.557   5.097  0.1669 -0.1362  0.2747
 2464poe    c3112277   4.260   5.072   1.420 -0.3041  0.1845  0.0269
 2464poe     o212278   4.224   4.942   1.379  0.0467  0.0894  0.0122
 2464poe    c2312279   4.083   4.937   1.375  0.0517  0.2638 -0.4358
 2464poe    c2312280   4.054   4.798   1.315 -0.4112  0.2359 -0.1527
 2464poe     o212281   4.133   4.785   1.199  0.0427  0.5534  0.1161
 2464poe    c2312282   4.097   4.673   1.121 -0.0936  0.4084  0.3860
 2464poe    c2312283   4.146   4.696   0.977  0.0025 -0.9159  0.1969
 2464poe     o212284   4.286   4.697   0.992  0.0220  0.2630 -0.0034
 2464poe    c2312285   4.350   4.724   0.869  0.2429  0.2282  0.1034
 2464poe    c2312286   4.502   4.743   0.891  0.2310 -0.1285  0.5096
 2464poe     o212287   4.512   4.854   0.977 -0.2761 -0.3559  0.8744
 2464poe    c3112288   4.648   4.890   0.996 -0.1427 -0.2594 -0.1942
 2465poe    c3112289   4.183   6.547   5.845 -0.0604 -0.6691  0.1869
 2465poe     o212290   4.235   6.438   5.917 -0.5280 -0.8425  0.2666
 2465poe    c2312291   4.351   6.379   5.861 -0.5649 -0.5858 -0.0835
 2465poe    c2312292   4.419   6.261   5.933  0.2979 -0.0251  0.0329
 2465poe     o212293   4.481   6.300   6.053 -0.0566  0.4796  0.0553
 2465poe    c2312294   4.605   6.362   6.024  0.0350  0.0176 -0.5345
 2465poe    c2312295   4.694   6.373   6.149 -0.6654 -0.6858  0.0371
 2465poe     o212296   4.641   6.472   6.234  0.4446  0.1663 -0.2436
 2465poe    c2312297   4.724   6.482   6.347 -0.2031  0.1665  0.2380
 2465poe    c2312298   4.700   6.617   6.417 -0.1036  0.0935  0.4134
 2465poe     o212299   4.729   6.728   6.336  0.7319 -0.3942  0.0351
 2465poe    c3112300   4.809   6.818   6.410 -0.0911  0.3986 -0.0140
 2466poe    c3112301   6.599   0.679   3.734  0.2597 -0.4869 -0.2588
 2466poe     o212302   6.678   0.766   3.656  0.0893  0.2442  0.3702
 2466poe    c2312303   6.687   0.888   3.726 -0.3685  0.3355  0.2747
 2466poe    c2312304   6.757   0.993   3.637 -0.1723  0.0172  0.0530
 2466poe     o212305   6.684   1.042   3.527  0.3768  0.4387 -0.1298
 2466poe    c2312306   6.751   1.118   3.429 -0.2019  0.2549 -0.6760
 2466poe    c2312307   6.878   1.068   3.360  0.5338  0.3100  0.6061
 2466poe     o212308   6.850   0.997   3.241  0.1497  0.4996  0.5835
 2466poe    c2312309   6.966   0.971   3.165 -0.1646  0.5301  0.0875
 2466poe    c2312310   6.920   0.959   3.019  0.1069  0.1141  0.0341
 2466poe     o212311   6.852   0.839   2.989  0.1958  0.1051 -0.1279
 2466poe    c3112312   6.932   0.724   2.972 -0.3747 -0.1939 -0.8805
 2467poe    c3112313   4.878   5.025   6.687  0.8065  1.0805 -0.4186
 2467poe     o212314   4.781   5.050   6.589  0.3338  0.3480 -0.1526
 2467poe    c2312315   4.804   4.967   6.478 -0.2064 -0.1031  0.0653
 2467poe    c2312316   4.744   4.827   6.462  0.0738 -0.1871 -0.2750
 2467poe     o212317   4.605   4.827   6.437  0.1022  0.1031 -0.4381
 2467poe    c2312318   4.566   4.692   6.429  0.2873  0.0650 -0.6987
 2467poe    c2312319   4.432   4.659   6.361 -0.0276  0.4660 -0.2761
 2467poe     o212320   4.341   4.725   6.446 -0.3067 -0.0114 -0.2011
 2467poe    c2312321   4.240   4.785   6.368 -0.3425 -0.6389 -0.6444
 2467poe    c2312322   4.120   4.807   6.462  0.0863 -0.0810 -0.2237
 2467poe     o212323   4.138   4.895   6.571  0.0985 -0.1785 -0.1472
 2467poe    c3112324   4.033   4.885   6.665 -0.2624  0.5397 -0.4676
 2468poe    c3112325   0.628   0.154   6.298 -0.3942  0.2778  0.0599
 2468poe     o212326   0.717   0.212   6.391  0.6215 -0.6243 -0.3367
 2468poe    c2312327   0.665   0.183   6.519 -0.0581 -0.0009 -0.4648
 2468poe    c2312328   0.736   0.250   6.638 -0.7589  0.3259 -0.2260
 2468poe     o212329   0.873   0.228   6.665 -0.7957  0.4465  0.0648
 2468poe    c2312330   0.928   0.321   6.755  0.6862 -0.2084 -0.1235
 2468poe    c2312331   1.075   0.358   6.733  0.6059  0.0253 -0.2791
 2468poe     o212332   1.088   0.480   6.664  0.1345  0.0116 -0.3912
 2468poe    c2312333   1.214   0.537   6.689  0.1667 -0.1846 -0.1020
 2468poe    c2312334   1.240   0.664   6.606  0.2260 -0.2360 -0.1628
 2468poe     o212335   1.372   0.712   6.621  0.1579 -0.1063  0.0250
 2468poe    c3112336   1.385   0.831   6.547 -0.0836 -0.1307 -0.0588
 2469poe    c3112337   3.706   4.701   0.938 -0.4432 -0.3136  0.2093
 2469poe     o212338   3.670   4.780   1.050  0.2719  0.2149  0.0732
 2469poe    c2312339   3.590   4.889   1.012  0.2405  0.1578 -0.0247
 2469poe    c2312340   3.594   4.996   1.123  0.2796  0.3922 -0.2492
 2469poe     o212341   3.516   4.944   1.228 -0.3809  0.2406 -0.8031
 2469poe    c2312342   3.528   5.021   1.346 -0.2454 -0.3627 -0.4158
 2469poe    c2312343   3.460   4.952   1.466 -0.4922  0.0769 -0.2993
 2469poe     o212344   3.504   4.825   1.508 -0.2238  0.1509 -0.3528
 2469poe    c2312345   3.427   4.781   1.618  0.0093  0.1335 -0.1952
 2469poe    c2312346   3.470   4.644   1.672 -0.1193  0.0661 -0.2644
 2469poe     o212347   3.502   4.570   1.556 -0.3078  0.1287 -0.3570
 2469poe    c3112348   3.548   4.439   1.579 -0.5963  0.0545 -0.1947
 2470poe    c3112349   6.359   4.339   7.026  0.4439 -0.2702  0.1798
 2470poe     o212350   6.387   4.478   7.024 -0.1417 -0.1527  0.0864
 2470poe    c2312351   6.274   4.562   7.028 -0.0776 -0.0442 -0.3678
 2470poe    c2312352   6.332   4.703   7.006 -0.0806 -0.0102 -0.1577
 2470poe     o212353   6.374   4.723   6.873 -0.3888  0.1214 -0.2378
 2470poe    c2312354   6.446   4.844   6.879  0.1478 -0.1940 -0.2269
 2470poe    c2312355   6.502   4.847   6.735  0.4044 -0.3620 -0.1312
 2470poe     o212356   6.385   4.824   6.660  0.4151  0.0860 -0.2891
 2470poe    c2312357   6.408   4.832   6.521  0.5988  0.8964 -0.2137
 2470poe    c2312358   6.273   4.819   6.449  0.5381 -0.3890  0.1134
 2470poe     o212359   6.210   4.705   6.504 -0.0854 -0.2276 -0.2518
 2470poe    c3112360   6.106   4.667   6.418 -0.5612  0.0162  0.2098
 2471poe    c3112361   3.570   0.942   1.746 -1.1265  0.0437  0.0621
 2471poe     o212362   3.509   0.899   1.866 -0.6131 -0.1000  0.2761
 2471poe    c2312363   3.420   1.000   1.909 -0.1811  0.6192 -0.4807
 2471poe    c2312364   3.370   0.965   2.051  0.4687 -0.6654 -0.5492
 2471poe     o212365   3.477   0.960   2.143 -0.3960  0.1710  0.5266
 2471poe    c2312366   3.450   0.875   2.251 -0.4249  0.2330  0.5684
 2471poe    c2312367   3.519   0.943   2.371  0.2608  0.2409  0.1756
 2471poe     o212368   3.658   0.937   2.345  0.2088  0.5089 -0.1698
 2471poe    c2312369   3.749   0.988   2.440  0.2362  0.5372 -0.2117
 2471poe    c2312370   3.891   0.957   2.391  0.1093  0.1260 -0.3251
 2471poe     o212371   3.894   1.004   2.258  0.1545  0.1574 -0.3133
 2471poe    c3112372   4.018   0.989   2.193  0.2021  0.6989 -0.3533
 2472poe    c3112373   5.020   2.505   2.140 -0.2633 -0.6356  0.0149
 2472poe     o212374   4.885   2.513   2.180 -0.1948 -0.5478  0.2288
 2472poe    c2312375   4.861   2.453   2.305  0.3825  0.0209  0.6204
 2472poe    c2312376   4.712   2.448   2.342  0.2830  0.2379  0.2496
 2472poe     o212377   4.651   2.569   2.302  0.3347  0.2354  0.1641
 2472poe    c2312378   4.513   2.584   2.328  0.0305 -0.2247 -1.1161
 2472poe    c2312379   4.461   2.716   2.268  0.2539  0.3829  0.0159
 2472poe     o212380   4.482   2.708   2.129  0.4864 -0.3103  0.0876
 2472poe    c2312381   4.415   2.810   2.058  0.3843 -0.9429 -0.7308
 2472poe    c2312382   4.441   2.817   1.906 -0.2581 -0.2801 -0.8132
 2472poe     o212383   4.579   2.836   1.880 -0.1293 -0.1340 -0.0520
 2472poe    c3112384   4.601   2.828   1.741  0.3124 -0.0109  0.0108
 2473poe    c3112385   1.796   6.571   4.407 -0.3222 -0.4385  0.7046
 2473poe     o212386   1.897   6.485   4.455  0.4017 -0.0600 -0.1158
 2473poe    c2312387   1.945   6.405   4.349  0.5298  0.0017 -0.1038
 2473poe    c2312388   1.959   6.261   4.403  0.5409  0.0676  0.0702
 2473poe     o212389   2.045   6.270   4.515  1.0249 -0.5187 -0.2508
 2473poe    c2312390   2.079   6.140   4.560  0.7896 -0.4480  0.1432
 2473poe    c2312391   2.046   6.138   4.710  0.1195 -0.0327  0.0044
 2473poe     o212392   2.118   6.233   4.785 -0.2224  0.3559 -0.1582
 2473poe    c2312393   2.072   6.240   4.918  0.2943  0.0199  0.0402
 2473poe    c2312394   2.133   6.359   4.994 -0.0412 -0.2582  0.7582
 2473poe     o212395   2.079   6.481   4.950  0.4525 -0.3091 -0.0197
 2473poe    c3112396   2.144   6.600   4.988 -0.6858  0.3657 -0.1223
 2474poe    c3112397   0.669   3.378   5.604  0.0788 -0.2819 -0.0402
 2474poe     o212398   0.548   3.323   5.652 -0.2884 -0.1135 -0.7721
 2474poe    c2312399   0.462   3.406   5.725  0.0857 -0.3973  0.0004
 2474poe    c2312400   0.353   3.321   5.792 -0.0944 -0.4347 -0.3374
 2474poe     o212401   0.405   3.219   5.874 -0.0587  0.1647  0.3962
 2474poe    c2312402   0.302   3.131   5.914 -0.3259  0.3224  0.0561
 2474poe    c2312403   0.341   3.017   6.010 -0.0936  0.5413  0.2257
 2474poe     o212404   0.460   2.956   5.966 -0.5293 -0.0887 -0.1038
 2474poe    c2312405   0.486   2.836   6.034  0.3198  0.2064  0.1052
 2474poe    c2312406   0.627   2.788   5.995  0.3135  0.2947 -0.0249
 2474poe     o212407   0.698   2.895   5.937  0.3112  0.0924 -0.4008
 2474poe    c3112408   0.832   2.858   5.917  0.4039  0.1669  0.0717
 2475poe    c3112409   1.721   2.647   6.420 -0.0373  0.1557  0.1792
 2475poe     o212410   1.582   2.622   6.426 -0.0488  0.1459 -0.1184
 2475poe    c2312411   1.553   2.543   6.538 -0.0945 -0.2588 -0.4130
 2475poe    c2312412   1.406   2.498   6.541  0.0083 -0.5605  0.2819
 2475poe     o212413   1.375   2.440   6.416  0.4392 -0.2931  0.0506
 2475poe    c2312414   1.242   2.393   6.412  0.1848  0.4336 -0.2401
 2475poe    c2312415   1.223   2.300   6.290 -0.2006  0.0750  0.0910
 2475poe     o212416   1.271   2.380   6.185  0.3865  0.0228  0.3108
 2475poe    c2312417   1.263   2.305   6.066  0.3953  0.1140  0.2521
 2475poe    c2312418   1.234   2.392   5.942  0.4438 -0.4097 -0.1344
 2475poe     o212419   1.334   2.491   5.928  0.0547 -0.0217 -0.1791
 2475poe    c3112420   1.340   2.530   5.792 -0.4192  0.6224 -0.0190
 2476poe    c3112421   6.431   3.364   4.708 -0.1580 -0.7768  0.5833
 2476poe     o212422   6.416   3.303   4.582  0.4032 -0.0432  0.1561
 2476poe    c2312423   6.354   3.379   4.480 -0.0056  0.0296  0.4549
 2476poe    c2312424   6.347   3.303   4.346  0.0485 -0.2145  0.5885
 2476poe     o212425   6.466   3.246   4.298  0.0497  0.5641 -0.3683
 2476poe    c2312426   6.426   3.187   4.176  0.2052 -0.1591 -0.0726
 2476poe    c2312427   6.543   3.128   4.095  0.1690 -0.1759 -0.1130
 2476poe     o212428   6.613   3.059   4.196  0.3010 -0.1870 -0.2109
 2476poe    c2312429   6.711   2.970   4.149 -0.0683 -0.7150  0.0141
 2476poe    c2312430   6.768   2.907   4.278  0.5195 -0.2580 -0.0210
 2476poe     o212431   6.794   3.011   4.369  0.1737 -0.3728  0.2117
 2476poe    c3112432   6.880   2.961   4.469  0.2570 -0.2028  0.2276
 2477poe    c3112433   4.340   4.906   0.109  0.2283 -0.4491 -0.0281
 2477poe     o212434   4.226   4.980   0.073  0.2664  0.0907  0.9193
 2477poe    c2312435   4.106   4.923   0.121  0.0202 -0.0445  0.1670
 2477poe    c2312436   3.974   4.972   0.060 -0.0182 -0.2286  0.1036
 2477poe     o212437   3.953   5.110   0.079  0.1774 -0.1853  0.0170
 2477poe    c2312438   3.819   5.145   0.052  0.2139  0.1671  0.2889
 2477poe    c2312439   3.792   5.297   0.050  0.4051  0.1959 -0.1306
 2477poe     o212440   3.845   5.338   0.174  0.6082 -0.0368 -0.1398
 2477poe    c2312441   3.826   5.474   0.203 -0.0020 -0.1340 -0.0546
 2477poe    c2312442   3.913   5.496   0.328 -0.3272  0.1145  0.1313
 2477poe     o212443   4.032   5.421   0.315 -0.2306  0.2116  0.4599
 2477poe    c3112444   4.148   5.464   0.383 -0.0495  0.5863 -0.0811
 2478poe    c3112445   3.902   6.739   4.114  0.2985  0.5278  0.0868
 2478poe     o212446   3.864   6.617   4.054 -0.0836  0.5782  0.2228
 2478poe    c2312447   3.813   6.521   4.144  0.3917 -0.5272 -0.6699
 2478poe    c2312448   3.916   6.417   4.192  0.2200 -0.5287 -0.3052
 2478poe     o212449   3.974   6.343   4.087  0.1792  0.6411 -1.1554
 2478poe    c2312450   4.039   6.224   4.125 -0.5397  0.5703 -0.1039
 2478poe    c2312451   3.997   6.105   4.037 -0.3501  0.5860 -0.2173
 2478poe     o212452   4.045   6.108   3.905 -0.5442  0.0106 -0.3056
 2478poe    c2312453   4.014   5.988   3.838  0.2818 -0.2304 -0.2755
 2478poe    c2312454   4.036   5.999   3.686 -0.4131 -0.0466 -0.3684
 2478poe     o212455   3.956   6.100   3.629  0.4852  0.7912 -0.1562
 2478poe    c3112456   3.821   6.064   3.611  0.6435 -0.0574  0.3248
 2479poe    c3112457   3.584   3.883   6.310 -0.1348  0.5647 -0.0492
 2479poe     o212458   3.688   3.857   6.402 -0.1859  0.0630 -0.1272
 2479poe    c2312459   3.749   3.737   6.360 -0.5908 -0.0089 -0.5196
 2479poe    c2312460   3.858   3.699   6.462 -0.6459  0.7245 -0.1802
 2479poe     o212461   3.975   3.777   6.459 -0.2507  0.1559  0.2572
 2479poe    c2312462   4.061   3.757   6.569 -0.4748 -0.0435  0.3951
 2479poe    c2312463   4.210   3.761   6.534 -0.6950 -0.5666 -0.6258
 2479poe     o212464   4.232   3.891   6.484  0.2300 -0.2503  0.5671
 2479poe    c2312465   4.368   3.925   6.466  0.1668 -0.5184 -0.5039
 2479poe    c2312466   4.402   4.075   6.450 -0.6473 -0.2576  0.1059
 2479poe     o212467   4.325   4.113   6.339 -0.1569 -0.2048 -0.2211
 2479poe    c3112468   4.372   4.237   6.291  0.1996 -0.1986  0.1410
 2480poe    c3112469   2.131   2.973   0.132  0.2039 -0.0228  0.3941
 2480poe     o212470   2.267   2.974   0.093  0.0470  0.0073 -0.1620
 2480poe    c2312471   2.325   3.103   0.094 -0.7043  0.3545 -0.3846
 2480poe    c2312472   2.476   3.086   0.072 -0.7383 -0.4252 -0.0849
 2480poe     o212473   2.545   2.997   0.157  0.1035 -0.1035 -0.4153
 2480poe    c2312474   2.685   2.999   0.140  0.1728  0.4499  0.1786
 2480poe    c2312475   2.752   2.931   0.260 -0.0988 -0.2902 -0.0810
 2480poe     o212476   2.686   2.808   0.279 -0.2163 -0.2487 -0.2169
 2480poe    c2312477   2.733   2.735   0.390 -0.2310  0.0690  0.0005
 2480poe    c2312478   2.638   2.615   0.414 -0.0368 -0.0405  0.2294
 2480poe     o212479   2.511   2.673   0.393  0.1957  0.5502  0.4215
 2480poe    c3112480   2.410   2.587   0.441  0.3514  0.6129  0.8702
 2481poe    c3112481   3.500   1.435   0.276  0.5057 -0.2898  0.0125
 2481poe     o212482   3.540   1.569   0.259 -0.2015 -0.0600  0.1288
 2481poe    c2312483   3.453   1.637   0.171  0.4678  0.4053 -0.1822
 2481poe    c2312484   3.503   1.781   0.151  0.1704  0.4542 -0.5904
 2481poe     o212485   3.642   1.785   0.179 -0.0425 -0.6872  0.7680
 2481poe    c2312486   3.713   1.890   0.118 -0.9068 -0.3564  0.3088
 2481poe    c2312487   3.854   1.912   0.177 -0.6431 -0.2204 -0.3588
 2481poe     o212488   3.914   1.784   0.184  0.1867  0.1829 -0.0912
 2481poe    c2312489   4.052   1.784   0.213  0.1760 -0.1342 -0.0365
 2481poe    c2312490   4.125   1.648   0.215  0.0823 -0.1861 -0.1709
 2481poe     o212491   4.073   1.563   0.314 -0.2604 -0.2048 -0.3614
 2481poe    c3112492   4.183   1.488   0.362 -0.4288 -0.2972 -0.1170
 2482poe    c3112493   2.152   3.393   5.072 -0.0415  0.0513 -0.2890
 2482poe     o212494   2.186   3.257   5.061  0.2023  0.0586  0.3373
 2482poe    c2312495   2.137   3.193   5.177 -0.2768  0.6885  0.4869
 2482poe    c2312496   2.172   3.043   5.175 -0.4209  0.6575  0.1647
 2482poe     o212497   2.307   3.023   5.140 -0.6338 -0.3660 -0.1026
 2482poe    c2312498   2.329   2.895   5.086 -0.1006 -0.5500  0.5470
 2482poe    c2312499   2.452   2.825   5.147  0.4872  0.1762  0.2017
 2482poe     o212500   2.413   2.795   5.279 -0.2018  0.2797  0.0238
 2482poe    c2312501   2.469   2.668   5.307  0.0754  0.3775 -0.0871
 2482poe    c2312502   2.420   2.611   5.441 -0.1105  0.3769 -0.1548
 2482poe     o212503   2.447   2.698   5.548  0.0080  0.3583 -0.1692
 2482poe    c3112504   2.430   2.615   5.661  0.4031  0.5359  0.0244
 2483poe    c3112505   0.566   4.377   2.113 -0.0492 -0.1326 -0.2190
 2483poe     o212506   0.499   4.415   1.995 -0.2738  0.1914  0.0141
 2483poe    c2312507   0.470   4.301   1.917  0.2251  0.1517 -0.1155
 2483poe    c2312508   0.395   4.342   1.789 -0.1887 -0.3991 -0.0511
 2483poe     o212509   0.286   4.417   1.840  0.0243  0.0597 -0.2669
 2483poe    c2312510   0.186   4.429   1.742 -0.3569 -0.1354  0.0939
 2483poe    c2312511   0.077   4.516   1.807 -0.1415  0.1630  0.0607
 2483poe     o212512   0.126   4.642   1.844  0.2894  0.0262 -0.0426
 2483poe    c2312513   0.020   4.735   1.851 -0.0296 -0.3629  0.2941
 2483poe    c2312514   0.095   4.856   1.908  0.2493 -0.3214 -0.1518
 2483poe     o212515   0.224   4.883   1.858  0.4348 -0.0301  0.4728
 2483poe    c3112516   0.269   5.009   1.904  0.6085  0.2463 -0.4397
 2484poe    c3112517   6.962   1.425   5.764 -0.3383 -0.1415 -0.9691
 2484poe     o212518   7.015   1.552   5.794 -0.3868 -0.2968 -0.1859
 2484poe    c2312519   6.961   1.602   5.914  0.5014 -0.4601  0.2866
 2484poe    c2312520   7.000   1.745   5.957 -0.1621  0.0102 -0.6483
 2484poe     o212521   6.950   1.847   5.873 -0.6602  0.8439  0.6300
 2484poe    c2312522   7.000   1.972   5.915  0.3558  0.6941 -0.0919
 2484poe    c2312523   6.966   2.076   5.807  0.3657  0.4857 -0.2942
 2484poe     o212524   7.000   2.035   5.676  0.1348 -0.1563 -0.1571
 2484poe    c2312525   7.004   2.136   5.577 -0.2887 -0.0492 -0.0684
 2484poe    c2312526   7.074   2.074   5.455  0.1339  0.3038 -0.0070
 2484poe     o212527   7.023   1.943   5.447 -0.3437  0.5433 -0.9953
 2484poe    c3112528   7.055   1.889   5.320  0.4362 -0.5234 -0.3602
 2485poe    c3112529   6.025   5.775   1.366 -0.2074 -0.2139 -0.2152
 2485poe     o212530   5.989   5.869   1.267  0.2288 -0.1911 -0.3521
 2485poe    c2312531   6.093   5.964   1.270  0.0097  0.0441 -0.1755
 2485poe    c2312532   6.072   6.069   1.159 -0.0658  0.4920  0.2583
 2485poe     o212533   5.939   6.116   1.149 -0.2095 -0.0425 -0.4249
 2485poe    c2312534   5.914   6.194   1.034  0.5374  0.8060 -0.0243
 2485poe    c2312535   5.763   6.222   1.020  0.4716  0.1611 -0.6335
 2485poe     o212536   5.708   6.109   0.956  0.2247  0.1745 -0.4422
 2485poe    c2312537   5.612   6.142   0.859  0.0253  0.1221 -0.2638
 2485poe    c2312538   5.543   6.012   0.812  0.0411  0.0029  0.0419
 2485poe     o212539   5.551   5.916   0.915  0.3442 -0.2803 -0.2465
 2485poe    c3112540   5.487   5.795   0.882  0.1436 -0.2646  0.0816
 2486poe    c3112541   6.560   2.186   0.054  0.2477 -0.5954 -1.0864
 2486poe     o212542   6.510   2.287  -0.031  0.0556  0.2349 -0.0091
 2486poe    c2312543   6.587   2.300  -0.148  0.1327  0.4676  0.0673
 2486poe    c2312544   6.512   2.373  -0.261  0.1480 -0.0268 -0.2644
 2486poe     o212545   6.489   2.509  -0.233  0.2146 -0.0337 -0.1763
 2486poe    c2312546   6.405   2.554  -0.336 -0.4169 -0.1941  0.2596
 2486poe    c2312547   6.405   2.708  -0.337  0.0751 -0.1940 -0.2865
 2486poe     o212548   6.348   2.758  -0.218  0.4152 -0.1740 -0.1309
 2486poe    c2312549   6.320   2.896  -0.234 -0.1722 -0.3291 -0.4709
 2486poe    c2312550   6.270   2.953  -0.100  0.4846 -0.4700 -0.1583
 2486poe     o212551   6.364   2.925   0.001  1.0991  0.3618 -0.4840
 2486poe    c3112552   6.332   2.997   0.118  0.7098 -0.3014 -0.1781
 2487poe    c3112553   4.327   0.985   3.421  0.1827 -0.5600 -0.1192
 2487poe     o212554   4.402   0.902   3.507 -0.0766 -0.1412  0.5147
 2487poe    c2312555   4.538   0.935   3.523 -0.1265  0.1396  0.3561
 2487poe    c2312556   4.605   0.855   3.636  0.1285 -0.0305  0.0841
 2487poe     o212557   4.544   0.880   3.761 -0.0132 -0.1566  0.0408
 2487poe    c2312558   4.592   0.789   3.857 -0.0857 -0.0653  0.1629
 2487poe    c2312559   4.712   0.829   3.944  0.2864 -0.1403 -0.3140
 2487poe     o212560   4.688   0.922   4.047 -0.2016 -0.4503 -0.1440
 2487poe    c2312561   4.800   0.981   4.110 -0.4816 -0.1204  0.0514
 2487poe    c2312562   4.778   1.117   4.178 -0.1503 -0.1148  0.1521
 2487poe     o212563   4.728   1.225   4.102 -0.0744 -0.0843  0.1460
 2487poe    c3112564   4.815   1.286   4.009 -0.4326 -0.3715 -0.3881
 2488poe    c3112565   3.247   3.962   4.995  0.0609  0.2913 -0.1438
 2488poe     o212566   3.222   3.946   4.857  0.0524 -0.5234 -0.0564
 2488poe    c2312567   3.103   3.872   4.843 -0.3138 -0.1335  0.9061
 2488poe    c2312568   3.024   3.893   4.712  0.3797 -0.0462  0.4926
 2488poe     o212569   3.106   3.830   4.616  0.1752  0.0956  0.2256
 2488poe    c2312570   3.081   3.884   4.488 -0.4592 -0.5203  0.0826
 2488poe    c2312571   3.186   3.827   4.392 -0.1560  0.4061 -0.1515
 2488poe     o212572   3.314   3.852   4.444 -0.1565  0.0745  0.0142
 2488poe    c2312573   3.407   3.749   4.424  0.2120  0.4154 -0.0403
 2488poe    c2312574   3.538   3.784   4.496  0.0334  0.7037  0.1431
 2488poe     o212575   3.639   3.688   4.478 -0.3750  0.2485  0.2829
 2488poe    c3112576   3.770   3.725   4.518 -0.0350  0.2350 -0.8041
 2489poe    c3112577   4.019   2.490   0.715 -0.0372  0.0391 -0.6058
 2489poe     o212578   3.959   2.597   0.645  0.4184  0.5887 -0.1617
 2489poe    c2312579   3.819   2.606   0.662  0.3306  0.0800 -0.5913
 2489poe    c2312580   3.776   2.714   0.561 -0.2597 -0.1376 -0.5722
 2489poe     o212581   3.873   2.815   0.570 -0.2815 -0.2004  0.4739
 2489poe    c2312582   3.838   2.925   0.490  0.5773 -0.1665  0.1322
 2489poe    c2312583   3.923   3.046   0.535 -0.4668  0.4757  0.4178
 2489poe     o212584   4.047   2.991   0.573 -0.4778  0.2092  0.0728
 2489poe    c2312585   4.130   3.097   0.616 -0.2459  0.1398 -0.1991
 2489poe    c2312586   4.267   3.040   0.655 -0.3655  0.0589  0.1034
 2489poe     o212587   4.315   2.970   0.543 -0.1686  0.0683  0.1813
 2489poe    c3112588   4.443   2.915   0.565 -0.1975  0.1594  0.5801
 2490poe    c3112589   6.806   0.245   2.281  0.5724  0.1294  0.0705
 2490poe     o212590   6.825   0.312   2.404 -0.1178  0.2690  0.1063
 2490poe    c2312591   6.943   0.389   2.410  0.2535 -0.2769 -0.0961
 2490poe    c2312592   6.943   0.494   2.522  0.0180 -0.1957 -0.1725
 2490poe     o212593   6.843   0.594   2.511  0.0684 -0.1544 -0.2565
 2490poe    c2312594   6.860   0.706   2.596  0.0087 -0.1174 -0.2942
 2490poe    c2312595   6.763   0.823   2.574 -0.2734 -0.3435 -0.2659
 2490poe     o212596   6.630   0.778   2.594 -0.2168 -0.1718  0.5195
 2490poe    c2312597   6.539   0.874   2.643  0.6873  0.6901  0.5478
 2490poe    c2312598   6.495   0.984   2.544 -0.4135 -0.3701 -0.1688
 2490poe     o212599   6.406   0.919   2.457 -0.2093 -0.2474 -0.4727
 2490poe    c3112600   6.327   1.014   2.390  0.1183  0.3769  0.0202
 2491poe    c3112601   5.510   6.550   4.774  0.0905 -0.1273  0.2216
 2491poe     o212602   5.549   6.632   4.882 -0.3735  0.0642  0.2481
 2491poe    c2312603   5.436   6.645   4.965 -0.7939 -0.8186 -0.1645
 2491poe    c2312604   5.484   6.729   5.085 -0.0223 -0.5152 -0.6748
 2491poe     o212605   5.567   6.640   5.157  0.1387  0.1553 -0.0133
 2491poe    c2312606   5.603   6.694   5.282  0.3167 -0.1580  0.0702
 2491poe    c2312607   5.711   6.601   5.342  0.6830 -0.0158 -0.3678
 2491poe     o212608   5.785   6.536   5.241  0.4637  0.3848 -0.7941
 2491poe    c2312609   5.860   6.426   5.287  0.4729  0.5334 -0.4511
 2491poe    c2312610   5.956   6.396   5.171  0.3080 -0.4404 -0.3405
 2491poe     o212611   5.880   6.371   5.055 -0.3970 -0.0276  0.0324
 2491poe    c3112612   5.955   6.338   4.940 -0.6401 -0.1280 -0.0987
 2492poe    c3112613   3.411   7.016   1.011 -0.8612  0.0513  0.0863
 2492poe     o212614   3.453   7.148   1.036  0.5655 -0.3489 -0.0880
 2492poe    c2312615   3.377   7.242   0.963  0.0963 -0.3759  0.3652
 2492poe    c2312616   3.424   7.387   0.985  0.1030 -0.2547 -0.3975
 2492poe     o212617   3.556   7.411   0.943  0.2210  0.2328  0.2283
 2492poe    c2312618   3.596   7.546   0.954  0.0500  0.3483 -0.5309
 2492poe    c2312619   3.723   7.557   0.867  0.2692  0.2280 -0.2282
 2492poe     o212620   3.685   7.535   0.733  0.4862 -0.2105 -0.2178
 2492poe    c2312621   3.805   7.531   0.659  0.7450 -0.2061  0.2004
 2492poe    c2312622   3.781   7.513   0.508  0.1211  0.0206  0.2724
 2492poe     o212623   3.724   7.389   0.471 -0.3361  0.2866  0.0853
 2492poe    c3112624   3.697   7.382   0.332  0.0364  0.3632  0.0093
 2493poe    c3112625   1.363   6.738   5.016  0.3447 -0.1185  0.1747
 2493poe     o212626   1.232   6.697   5.051  0.3183 -0.1230  0.0702
 2493poe    c2312627   1.234   6.569   5.110 -0.2575 -0.1525  0.0272
 2493poe    c2312628   1.140   6.552   5.231 -0.2708  0.0335  0.0420
 2493poe     o212629   1.007   6.552   5.184 -0.2442  0.3005 -0.0328
 2493poe    c2312630   0.915   6.519   5.286  0.1985 -0.1723  0.2137
 2493poe    c2312631   0.776   6.501   5.222  0.2298 -0.0886  0.1214
 2493poe     o212632   0.744   6.629   5.171  0.2500  0.0234  0.3828
 2493poe    c2312633   0.617   6.633   5.111  0.0483  0.0410  0.8167
 2493poe    c2312634   0.593   6.764   5.034  0.3138 -0.0534  0.5726
 2493poe     o212635   0.673   6.764   4.918 -0.5821  0.0885 -0.0594
 2493poe    c3112636   0.637   6.854   4.816  0.0993  0.8303  0.3418
 2494poe    c3112637   1.308   1.795   3.767  0.3148  0.7135  0.1399
 2494poe     o212638   1.294   1.867   3.646 -0.0399  0.1524 -0.1567
 2494poe    c2312639   1.155   1.879   3.630 -0.0637 -0.3967 -0.4003
 2494poe    c2312640   1.097   1.974   3.524 -0.1502 -0.2868 -0.2558
 2494poe     o212641   1.140   2.108   3.537  0.3241 -0.4043 -0.5730
 2494poe    c2312642   1.126   2.184   3.419  0.4756 -0.4787 -0.6395
 2494poe    c2312643   1.168   2.326   3.459 -0.2659 -0.5641  0.4835
 2494poe     o212644   1.301   2.333   3.506  0.1018  0.1394 -0.6280
 2494poe    c2312645   1.313   2.458   3.572  0.2156 -0.1972 -0.0044
 2494poe    c2312646   1.438   2.464   3.662  0.1253 -0.2072  0.1219
 2494poe     o212647   1.429   2.347   3.739 -0.3059 -0.1971  0.0880
 2494poe    c3112648   1.531   2.342   3.836  0.2935  0.5091 -0.4993
 2495poe    c3112649   2.490   2.045   3.499  0.0848  0.5656  0.0592
 2495poe     o212650   2.539   1.913   3.494 -0.0092  0.5403 -0.2155
 2495poe    c2312651   2.447   1.814   3.534 -0.3193  0.9506  0.0933
 2495poe    c2312652   2.406   1.802   3.682  0.2795  0.1256  0.2002
 2495poe     o212653   2.495   1.720   3.754 -0.0479 -0.1869  0.2534
 2495poe    c2312654   2.447   1.685   3.882 -0.4750 -0.0337  0.1347
 2495poe    c2312655   2.549   1.586   3.940  0.0330  0.2864 -0.2007
 2495poe     o212656   2.563   1.470   3.862  0.1681  0.3244 -0.2323
 2495poe    c2312657   2.590   1.357   3.942  0.1387  0.2038 -0.3914
 2495poe    c2312658   2.571   1.244   3.839  0.0890 -0.1677  0.0232
 2495poe     o212659   2.608   1.299   3.715 -0.0965  0.2507  0.1537
 2495poe    c3112660   2.663   1.201   3.630  0.3008  0.4185  0.2146
 2496poe    c3112661   5.280   2.441   7.034  0.4376 -0.4507  0.8935
 2496poe     o212662   5.252   2.304   7.015 -0.1490 -0.2352  0.1581
 2496poe    c2312663   5.299   2.279   6.885  0.5267  0.2470  0.3050
 2496poe    c2312664   5.285   2.128   6.859  0.1761  0.2797  0.3041
 2496poe     o212665   5.373   2.052   6.938  0.4622 -0.0201 -0.2946
 2496poe    c2312666   5.348   1.915   6.921  0.1764  0.0826 -0.7388
 2496poe    c2312667   5.460   1.838   6.994 -0.6693 -0.2539  0.2358
 2496poe     o212668   5.569   1.833   6.904 -0.2174  0.2806  0.7415
 2496poe    c2312669   5.655   1.722   6.919 -0.6336 -0.1243  0.2037
 2496poe    c2312670   5.741   1.707   7.046 -0.5733 -0.2858  0.1447
 2496poe     o212671   5.675   1.633   7.146 -0.3611 -0.7426 -0.0523
 2496poe    c3112672   5.765   1.619   7.253 -0.8159 -0.4409  0.3755
 2497poe    c3112673   4.407   6.615   1.491  0.2138  0.6125  0.6376
 2497poe     o212674   4.421   6.723   1.402 -0.1170 -0.0162 -0.1843
 2497poe    c2312675   4.348   6.693   1.285 -0.3764 -0.2039  0.0222
 2497poe    c2312676   4.356   6.803   1.176 -0.4698 -0.0572  0.1627
 2497poe     o212677   4.283   6.920   1.204 -0.1045  0.1305  0.3422
 2497poe    c2312678   4.321   7.035   1.131  0.0305  0.2536  0.6060
 2497poe    c2312679   4.229   7.153   1.167 -0.2329  0.1860  0.1594
 2497poe     o212680   4.249   7.184   1.303 -0.7621  0.0639  0.2664
 2497poe    c2312681   4.185   7.303   1.343  0.0225  0.2934  0.8652
 2497poe    c2312682   4.228   7.318   1.490 -0.3731  0.6714  0.9437
 2497poe     o212683   4.214   7.190   1.548  0.0896  0.3098  0.2785
 2497poe    c3112684   4.232   7.204   1.687 -0.0011  0.1715  0.3042
 2498poe    c3112685   1.618   2.944   5.417  0.0984  0.3200 -0.0596
 2498poe     o212686   1.589   3.080   5.439 -0.1348  0.3386 -0.4826
 2498poe    c2312687   1.707   3.154   5.461 -0.1166  0.1422  0.0719
 2498poe    c2312688   1.663   3.293   5.511  0.6470  0.2800  0.3663
 2498poe     o212689   1.568   3.355   5.428  0.5294  0.0787  0.3498
 2498poe    c2312690   1.523   3.479   5.479  0.2014  0.0185  0.2101
 2498poe    c2312691   1.609   3.596   5.427 -0.1966  0.2513  0.0779
 2498poe     o212692   1.603   3.615   5.288 -0.1373 -0.2374  0.0098
 2498poe    c2312693   1.676   3.730   5.253 -0.0620 -0.3129 -0.0840
 2498poe    c2312694   1.679   3.774   5.106 -0.5223  0.5573  0.1619
 2498poe     o212695   1.550   3.825   5.081 -0.5817  0.1105 -0.4700
 2498poe    c3112696   1.557   3.885   4.954  0.9142  0.3358 -0.2985
 2499poe    c3112697   3.839   5.949   6.543  0.2410  0.1420  0.1685
 2499poe     o212698   3.899   6.061   6.481 -0.0897  0.1775 -0.0940
 2499poe    c2312699   3.816   6.175   6.479 -0.2319  0.0759  0.0010
 2499poe    c2312700   3.894   6.299   6.433  0.7851 -0.5099  0.1083
 2499poe     o212701   3.987   6.354   6.523  0.6051  0.1916 -0.1270
 2499poe    c2312702   3.933   6.395   6.647  0.3854  0.0429 -0.1729
 2499poe    c2312703   4.031   6.486   6.724  0.1879  0.3952 -0.3347
 2499poe     o212704   4.068   6.611   6.672  0.1657  0.4532 -0.2091
 2499poe    c2312705   4.166   6.677   6.750  0.0900 -0.0386  0.3062
 2499poe    c2312706   4.244   6.774   6.660  0.1283 -0.1065  0.2662
 2499poe     o212707   4.322   6.699   6.569 -0.0661  0.0872 -0.0617
 2499poe    c3112708   4.401   6.786   6.491  0.4100 -0.1839  0.1101
 2500poe    c3112709   4.363   2.249   4.630  0.4045 -0.5734  0.2295
 2500poe     o212710   4.392   2.358   4.715  0.2352 -0.0759 -0.3403
 2500poe    c2312711   4.281   2.444   4.702  0.1046 -0.1443  0.2735
 2500poe    c2312712   4.311   2.574   4.777  0.1461 -0.0011  0.0119
 2500poe     o212713   4.312   2.567   4.918 -0.2313 -0.3403 -0.0010
 2500poe    c2312714   4.352   2.690   4.974  0.0709 -0.3227 -0.2523
 2500poe    c2312715   4.429   2.658   5.104 -0.4067 -1.1565 -0.1686
 2500poe     o212716   4.545   2.581   5.086  0.0137 -0.5548 -0.0522
 2500poe    c2312717   4.604   2.554   5.212 -0.6212 -0.0547  0.3540
 2500poe    c2312718   4.699   2.434   5.198  0.2452  0.6387  0.1885
 2500poe     o212719   4.770   2.453   5.078  0.3599 -0.1694  0.1223
 2500poe    c3112720   4.889   2.377   5.080  0.2036 -0.4148  0.0693
 2501poe    c3112721   0.838   6.375   3.087  0.1727  0.4500  0.1647
 2501poe     o212722   0.794   6.486   3.160 -0.3205 -0.0001  0.5586
 2501poe    c2312723   0.757   6.454   3.293 -0.1890 -0.4379  0.4883
 2501poe    c2312724   0.719   6.571   3.385  0.1960  0.2852 -0.2538
 2501poe     o212725   0.607   6.636   3.329  0.0271 -0.2933 -0.5988
 2501poe    c2312726   0.567   6.754   3.394 -0.0724 -0.5050 -0.2732
 2501poe    c2312727   0.417   6.782   3.369 -0.0401 -0.5667 -0.5368
 2501poe     o212728   0.391   6.815   3.234 -0.0264  0.1374 -0.3728
 2501poe    c2312729   0.253   6.800   3.211 -0.0633 -0.1223  0.0067
 2501poe    c2312730   0.215   6.853   3.072 -0.0478  0.1578  0.1102
 2501poe     o212731   0.314   6.814   2.980 -0.5214 -0.1100 -0.2896
 2501poe    c3112732   0.310   6.858   2.846 -0.1009  0.1229 -0.2255
 2502poe    c3112733   6.520   1.374   2.121  0.0963 -0.1020  0.1176
 2502poe     o212734   6.613   1.270   2.140 -0.1218 -0.3256 -0.0259
 2502poe    c2312735   6.704   1.321   2.235 -0.3470 -0.3374  0.1970
 2502poe    c2312736   6.781   1.211   2.309  0.3325 -0.0323 -0.0465
 2502poe     o212737   6.844   1.116   2.227  0.3010 -0.1718  0.0891
 2502poe    c2312738   6.934   1.032   2.296 -0.1296 -0.4934  0.2621
 2502poe    c2312739   6.961   0.910   2.206  0.2855 -0.3217  0.1507
 2502poe     o212740   6.839   0.847   2.173  0.2076 -0.2038  0.2126
 2502poe    c2312741   6.881   0.732   2.104 -0.3178  0.0386 -0.5208
 2502poe    c2312742   6.781   0.657   2.013 -0.3738  0.0244 -0.4477
 2502poe     o212743   6.681   0.584   2.080  0.3870 -0.2506  0.4174
 2502poe    c3112744   6.575   0.549   1.993  0.2891  0.4079  0.2710
 2503poe    c3112745   6.356   6.700   2.800 -0.3165 -0.1149  0.2702
 2503poe     o212746   6.338   6.590   2.714  0.1982  0.1563 -0.1920
 2503poe    c2312747   6.326   6.466   2.780  0.5170  0.0231 -0.3834
 2503poe    c2312748   6.324   6.362   2.666 -0.3737  0.1045 -0.4439
 2503poe     o212749   6.210   6.368   2.583 -0.6095  0.0830 -0.1248
 2503poe    c2312750   6.214   6.267   2.486 -0.3920  0.2595 -0.3028
 2503poe    c2312751   6.170   6.316   2.346  0.3100  0.0770 -0.5911
 2503poe     o212752   6.061   6.405   2.349  0.2773  0.0255  0.1114
 2503poe    c2312753   6.022   6.447   2.220 -0.1983 -0.7714 -0.0129
 2503poe    c2312754   5.905   6.543   2.250  0.0245 -0.4153 -0.2877
 2503poe     o212755   5.942   6.637   2.349 -0.2197 -0.2663 -0.3376
 2503poe    c3112756   5.842   6.735   2.364  0.0372  0.0179 -0.4928
 2504poe    c3112757   3.056   1.805   2.206  0.3161 -0.5756  0.1978
 2504poe     o212758   3.049   1.767   2.342  0.5266  0.4475  0.4971
 2504poe    c2312759   2.997   1.637   2.354  0.5299  0.4157  0.1815
 2504poe    c2312760   3.041   1.560   2.479  0.1401 -0.3810 -0.1654
 2504poe     o212761   3.179   1.531   2.490  0.1730 -0.1150  0.1225
 2504poe    c2312762   3.184   1.463   2.614  0.4248  0.3746  0.3845
 2504poe    c2312763   3.291   1.353   2.607  0.0596  0.0554 -0.2970
 2504poe     o212764   3.397   1.416   2.540  0.2433 -0.3638 -0.4040
 2504poe    c2312765   3.514   1.341   2.516  0.5626  0.1029 -0.3268
 2504poe    c2312766   3.612   1.434   2.442  0.7057  0.3331  0.1517
 2504poe     o212767   3.543   1.520   2.353 -0.3131  0.0094  0.6139
 2504poe    c3112768   3.630   1.577   2.258 -0.6532 -0.3927  0.0577
 2505poe    c3112769   3.266   0.986   6.840 -0.0920  0.1793  0.0891
 2505poe     o212770   3.277   0.889   6.738 -0.4086  0.3135 -0.0755
 2505poe    c2312771   3.214   0.769   6.777 -0.1692  0.3572  0.4587
 2505poe    c2312772   3.195   0.680   6.653 -0.1951  0.8558  0.0992
 2505poe     o212773   3.319   0.646   6.595 -0.1774  0.8501  0.1402
 2505poe    c2312774   3.309   0.608   6.460 -0.2043 -0.2979  0.4553
 2505poe    c2312775   3.448   0.595   6.395  0.0921  0.1564  0.9954
 2505poe     o212776   3.508   0.721   6.371  0.1460 -0.0832 -0.1405
 2505poe    c2312777   3.601   0.717   6.265 -0.0021 -0.2025 -0.2682
 2505poe    c2312778   3.602   0.858   6.203  0.1561 -0.1068 -0.0526
 2505poe     o212779   3.481   0.881   6.134  0.1363 -0.0233  0.0109
 2505poe    c3112780   3.476   0.839   6.000  0.6171 -0.4243  0.1133
 2506poe    c3112781   5.615   4.980   4.159 -0.1408  0.3713  0.2187
 2506poe     o212782   5.586   5.065   4.269  0.4937  0.5757  0.2340
 2506poe    c2312783   5.578   5.000   4.393 -0.5009 -0.0080 -0.1279
 2506poe    c2312784   5.511   5.084   4.504 -0.1646  0.4313 -0.2555
 2506poe     o212785   5.582   5.199   4.541  0.2678 -0.0457  0.4174
 2506poe    c2312786   5.503   5.282   4.624  0.1540  0.0218  0.2402
 2506poe    c2312787   5.594   5.400   4.665  0.0047  0.3406 -0.3255
 2506poe     o212788   5.636   5.461   4.545 -0.1590  0.0004 -0.5596
 2506poe    c2312789   5.715   5.572   4.584 -0.4928  0.0496 -0.0110
 2506poe    c2312790   5.750   5.646   4.454 -0.1686 -0.3325 -0.1423
 2506poe     o212791   5.824   5.554   4.377  0.3583  0.1486 -0.2218
 2506poe    c3112792   5.840   5.606   4.247  0.7098  0.0494 -0.2200
 2507poe    c3112793   5.210   4.498   0.058  0.3593 -0.0436 -0.1531
 2507poe     o212794   5.277   4.498   0.182 -0.4237  0.3573  0.2804
 2507poe    c2312795   5.393   4.418   0.182 -0.6436  0.0273 -0.3192
 2507poe    c2312796   5.493   4.449   0.295 -0.4033 -0.3144 -0.4356
 2507poe     o212797   5.449   4.430   0.428 -0.2979 -0.5060 -0.4283
 2507poe    c2312798   5.521   4.521   0.508  0.1280 -0.4992 -0.8105
 2507poe    c2312799   5.454   4.540   0.646  0.3392  0.2167 -0.8026
 2507poe     o212800   5.344   4.627   0.643  0.1117 -0.0260  0.2571
 2507poe    c2312801   5.319   4.662   0.778 -0.3097  0.1837  0.1282
 2507poe    c2312802   5.175   4.713   0.798 -0.1795  0.3551  0.6275
 2507poe     o212803   5.083   4.608   0.779  0.1342  0.2724 -0.4921
 2507poe    c3112804   4.958   4.662   0.816  0.1619  0.1274 -0.1832
 2508poe    c3112805   5.639   6.380   1.926  0.3081 -0.2284 -0.7519
 2508poe     o212806   5.615   6.245   1.959 -0.0209 -0.1339 -0.6031
 2508poe    c2312807   5.481   6.204   1.948  0.0547 -0.4750 -0.2780
 2508poe    c2312808   5.479   6.052   1.970 -0.7542 -0.4319 -0.0220
 2508poe     o212809   5.593   5.992   1.913 -0.3227 -0.3853  0.7735
 2508poe    c2312810   5.602   5.859   1.959 -0.1788 -0.6805 -0.0841
 2508poe    c2312811   5.706   5.798   1.863  0.3841 -0.3625  0.3125
 2508poe     o212812   5.824   5.874   1.858 -0.0273  0.2634 -0.1423
 2508poe    c2312813   5.910   5.812   1.765  0.1495 -0.4511  0.4791
 2508poe    c2312814   6.057   5.857   1.768  0.1252 -0.3361  0.0865
 2508poe     o212815   6.055   5.998   1.763  0.0394 -0.3239  0.4541
 2508poe    c3112816   6.187   6.036   1.731  0.1777 -0.9814  0.2184
 2509poe    c3112817   4.835   5.636   1.420  0.0035  0.6689 -0.0489
 2509poe     o212818   4.707   5.690   1.396 -0.2472  0.0649 -0.0981
 2509poe    c2312819   4.701   5.830   1.412  0.0436  0.1264 -0.4938
 2509poe    c2312820   4.563   5.892   1.382 -0.2107 -0.2506 -0.1167
 2509poe     o212821   4.526   5.910   1.247 -0.1868 -0.2202 -0.1189
 2509poe    c2312822   4.406   5.980   1.224  0.0581  0.2879  0.1341
 2509poe    c2312823   4.369   5.977   1.074 -0.4346  0.0069  0.2618
 2509poe     o212824   4.352   5.847   1.023 -0.1040 -0.0509  0.2954
 2509poe    c2312825   4.380   5.854   0.885 -0.1377  0.4838  0.3155
 2509poe    c2312826   4.278   5.783   0.794  0.6194 -0.1458 -0.0534
 2509poe     o212827   4.237   5.685   0.887 -0.1634 -0.3110 -0.5575
 2509poe    c3112828   4.139   5.598   0.837 -0.2475 -0.0916 -0.7746
 2510poe    c3112829   6.787   5.252   4.084  0.2740  0.0962  0.2152
 2510poe     o212830   6.691   5.254   3.981  0.5818 -0.1276 -0.0789
 2510poe    c2312831   6.655   5.124   3.939 -0.2183  0.1243 -0.1979
 2510poe    c2312832   6.567   5.129   3.813 -0.1767  0.6435 -0.2111
 2510poe     o212833   6.479   5.238   3.823 -0.2216  0.5812  0.0744
 2510poe    c2312834   6.368   5.228   3.737 -0.2006 -0.3099  0.1404
 2510poe    c2312835   6.257   5.330   3.769 -0.1519 -0.2494  0.1182
 2510poe     o212836   6.310   5.461   3.766 -0.1782 -0.2410  0.0445
 2510poe    c2312837   6.228   5.562   3.819  0.2257  0.0247  0.1672
 2510poe    c2312838   6.296   5.700   3.829 -0.1399  0.2385 -0.2736
 2510poe     o212839   6.385   5.705   3.938 -0.4224  0.1608 -0.0384
 2510poe    c3112840   6.436   5.836   3.952  0.4096 -0.1786  0.1983
 2511poe    c3112841   6.275   0.159   4.338 -0.4374  0.6617  0.2106
 2511poe     o212842   6.285   0.199   4.203 -0.0618  0.0197  0.0438
 2511poe    c2312843   6.218   0.323   4.202 -1.0226 -0.4877 -0.1280
 2511poe    c2312844   6.208   0.371   4.056  0.3812 -0.1447 -0.1201
 2511poe     o212845   6.166   0.260   3.980 -0.0340 -0.0039 -0.0993
 2511poe    c2312846   6.160   0.297   3.844  0.8268 -0.1611 -0.1873
 2511poe    c2312847   6.129   0.169   3.764  0.2831 -0.1895  0.0640
 2511poe     o212848   6.244   0.091   3.788  0.6746  0.2531 -0.3667
 2511poe    c2312849   6.263  -0.014   3.696  0.3330  0.3203 -0.5158
 2511poe    c2312850   6.373  -0.100   3.762  0.1710  0.4902 -0.0245
 2511poe     o212851   6.499  -0.046   3.794  0.6868 -0.4414 -0.4343
 2511poe    c3112852   6.590  -0.109   3.707  0.2062  0.2668 -1.4708
 2512poe    c3112853   3.613   7.080   0.206 -0.4758 -0.0718 -0.0284
 2512poe     o212854   3.644   6.961   0.275  0.2782 -0.0703 -0.3581
 2512poe    c2312855   3.607   6.976   0.410  0.0356 -0.2738 -0.4001
 2512poe    c2312856   3.563   6.833   0.446  0.3671 -0.3842 -0.4275
 2512poe     o212857   3.669   6.752   0.399  0.3917 -0.5268 -0.1330
 2512poe    c2312858   3.657   6.613   0.415 -0.3282 -0.3833  0.6589
 2512poe    c2312859   3.797   6.553   0.390 -0.3141  0.1368 -0.5474
 2512poe     o212860   3.848   6.596   0.266  0.2946  0.1856 -0.2809
 2512poe    c2312861   3.959   6.520   0.221  0.0245 -0.5099  0.2171
 2512poe    c2312862   4.030   6.578   0.098 -0.1230 -0.2611  0.2468
 2512poe     o212863   4.077   6.707   0.128 -0.0897 -0.2121 -0.0098
 2512poe    c3112864   4.167   6.751   0.029 -0.3137 -0.2033 -0.2108
 2513poe    c3112865   1.494   3.881   6.586 -0.0367  0.3295  0.2791
 2513poe     o212866   1.434   4.002   6.548  0.4575  0.5251  0.1266
 2513poe    c2312867   1.300   3.977   6.513  0.5848 -0.3224  0.2321
 2513poe    c2312868   1.223   4.091   6.443  0.4960 -0.2060  0.5136
 2513poe     o212869   1.282   4.101   6.315 -0.2998 -0.4338  0.1262
 2513poe    c2312870   1.232   4.216   6.251  0.1036 -0.1011  0.4001
 2513poe    c2312871   1.254   4.220   6.098 -0.1006 -0.2516  0.3656
 2513poe     o212872   1.391   4.195   6.073 -0.1690 -0.3385  0.0772
 2513poe    c2312873   1.422   4.226   5.939 -0.0169 -0.6082  0.0494
 2513poe    c2312874   1.574   4.245   5.919 -0.1792  0.2279 -0.4602
 2513poe     o212875   1.620   4.358   5.989 -0.0092  0.0856 -0.3415
 2513poe    c3112876   1.753   4.336   6.032  0.0063  0.4924 -0.1769
 2514poe    c3112877   1.834   0.568   3.507  0.0043  0.2877 -0.3259
 2514poe     o212878   1.804   0.609   3.638 -0.1890 -0.0166 -0.2749
 2514poe    c2312879   1.810   0.501   3.729 -1.0693 -0.1863 -0.4092
 2514poe    c2312880   1.766   0.545   3.870  0.3867  0.4172 -0.1188
 2514poe     o212881   1.841   0.645   3.935  0.1631  0.4136  0.1432
 2514poe    c2312882   1.794   0.687   4.061 -0.1568  0.5982 -0.0356
 2514poe    c2312883   1.886   0.799   4.113 -0.0509  0.2398  0.5601
 2514poe     o212884   1.849   0.916   4.044 -0.1557  0.2117  0.5694
 2514poe    c2312885   1.938   1.020   4.077  0.0549  0.1391  0.2311
 2514poe    c2312886   1.890   1.140   3.994 -0.6511 -0.2274  0.1030
 2514poe     o212887   1.867   1.090   3.864  0.2241 -0.3613 -0.0064
 2514poe    c3112888   1.840   1.204   3.785 -0.1569  0.0174  0.6672
 2515poe    c3112889   5.563   5.012   1.409  0.5362 -0.2055  0.3148
 2515poe     o212890   5.509   4.905   1.483  0.0374 -0.1539  0.0262
 2515poe    c2312891   5.607   4.873   1.579  0.3622  0.0340 -0.2415
 2515poe    c2312892   5.562   4.775   1.688 -0.2742  0.5212 -0.0615
 2515poe     o212893   5.488   4.830   1.795 -0.0039  0.3175  0.2343
 2515poe    c2312894   5.471   4.745   1.906 -0.3828 -0.4269 -0.3845
 2515poe    c2312895   5.380   4.801   2.018 -0.1042 -0.4403 -0.1526
 2515poe     o212896   5.409   4.938   2.032 -0.2945 -0.4457  0.2930
 2515poe    c2312897   5.361   5.001   2.149 -0.2475 -0.5079  0.3462
 2515poe    c2312898   5.326   5.146   2.109 -0.2905 -0.5906  0.0844
 2515poe     o212899   5.237   5.167   2.001  0.0377 -0.6923 -0.2066
 2515poe    c3112900   5.188   5.298   2.020 -0.4709 -0.9198  0.0884
 2516poe    c3112901   4.327   4.617   5.747 -0.4154  0.0138  0.3658
 2516poe     o212902   4.370   4.703   5.642  0.0481 -0.1258  0.4376
 2516poe    c2312903   4.494   4.651   5.601  0.1213  0.2953  0.1311
 2516poe    c2312904   4.540   4.689   5.459 -0.2599  0.3659  0.0268
 2516poe     o212905   4.439   4.635   5.376 -0.0638  0.3767 -0.2199
 2516poe    c2312906   4.471   4.650   5.240  0.4818  1.0625 -0.0212
 2516poe    c2312907   4.355   4.673   5.141  0.8160  0.4815 -0.5585
 2516poe     o212908   4.288   4.795   5.162 -0.0680 -0.0864 -0.0155
 2516poe    c2312909   4.198   4.809   5.054  0.2856  0.1241 -0.2852
 2516poe    c2312910   4.126   4.945   5.065 -0.5079 -0.3267  0.1793
 2516poe     o212911   4.008   4.956   5.142 -0.3244  0.0894  0.4053
 2516poe    c3112912   3.949   5.079   5.108  0.0430  0.1751  0.0638
 2517poe    c3112913   4.450   3.092   6.334  0.2382  0.3558  0.0442
 2517poe     o212914   4.326   3.156   6.348  0.1752  0.2494 -0.0258
 2517poe    c2312915   4.310   3.191   6.484  0.0436  1.1658 -0.2671
 2517poe    c2312916   4.162   3.224   6.508 -0.1751 -0.2878  0.4940
 2517poe     o212917   4.128   3.299   6.393  0.3418  0.0838  0.5799
 2517poe    c2312918   4.022   3.390   6.411 -0.2449 -0.4342 -0.1922
 2517poe    c2312919   3.970   3.417   6.269 -0.1363  0.9738  0.0175
 2517poe     o212920   4.066   3.481   6.188  0.3385  0.5229  0.2165
 2517poe    c2312921   4.025   3.492   6.053  0.0405  0.4472  0.3006
 2517poe    c2312922   4.123   3.577   5.970  0.1393  0.6077  0.5783
 2517poe     o212923   4.247   3.516   5.941 -0.2370  0.1134 -0.0129
 2517poe    c3112924   4.335   3.594   5.865 -0.0544 -0.3448 -0.2736
 2518poe    c3112925   5.472   5.334   1.777 -0.6216 -0.2356  0.6732
 2518poe     o212926   5.569   5.326   1.878 -0.1950  0.3088  0.3154
 2518poe    c2312927   5.570   5.434   1.969  0.4455  0.3312  0.2869
 2518poe    c2312928   5.662   5.402   2.088 -0.0827 -0.5356  0.4771
 2518poe     o212929   5.776   5.350   2.023  0.1882 -0.2499  0.7143
 2518poe    c2312930   5.895   5.341   2.098  0.0639 -0.1067  0.9290
 2518poe    c2312931   6.013   5.311   2.004 -0.3129  0.3557  0.3019
 2518poe     o212932   6.020   5.187   1.938 -0.1117  0.6372 -0.2144
 2518poe    c2312933   6.141   5.171   1.868  0.1977  0.3779  0.3812
 2518poe    c2312934   6.147   5.046   1.779 -0.2731 -0.0350  0.9163
 2518poe     o212935   6.043   5.060   1.685  0.4384 -0.3639  0.0531
 2518poe    c3112936   6.012   4.942   1.614  0.2715 -0.3131  0.0401
 2519poe    c3112937   2.371   6.963   3.368  0.1152 -0.3434 -0.4109
 2519poe     o212938   2.324   6.884   3.475  0.4311 -0.1157 -0.1011
 2519poe    c2312939   2.191   6.851   3.440  0.0924  0.5638  0.5260
 2519poe    c2312940   2.113   6.794   3.560 -0.7078  0.2454 -0.1349
 2519poe     o212941   2.141   6.663   3.603  0.5814  0.4501 -0.2952
 2519poe    c2312942   2.081   6.641   3.729  0.3482  0.7424 -0.3530
 2519poe    c2312943   2.111   6.509   3.802 -0.1735  0.4512 -0.6569
 2519poe     o212944   2.100   6.401   3.712 -0.4255 -0.1533  0.0790
 2519poe    c2312945   2.115   6.277   3.777 -0.2591 -0.2047 -0.0543
 2519poe    c2312946   2.110   6.162   3.675 -0.3070 -0.3161  0.0742
 2519poe     o212947   2.179   6.206   3.560 -0.1140 -0.4761  0.1308
 2519poe    c3112948   2.197   6.099   3.470 -0.2355 -0.4490  0.0749
 2520poe    c3112949   4.264   5.600   4.077  0.3758  0.2268  0.0917
 2520poe     o212950   4.258   5.545   3.947 -0.6669  0.3714  0.0727
 2520poe    c2312951   4.212   5.412   3.959  0.0754  0.0962 -0.0587
 2520poe    c2312952   4.175   5.356   3.821  0.4229 -0.4751  0.0770
 2520poe     o212953   4.285   5.379   3.736  0.0626 -0.1121 -0.3019
 2520poe    c2312954   4.295   5.284   3.632  0.0116 -0.1472 -0.2747
 2520poe    c2312955   4.408   5.304   3.529  0.3827  0.1726  0.1926
 2520poe     o212956   4.540   5.315   3.577  0.5144 -0.3067 -0.0621
 2520poe    c2312957   4.638   5.286   3.480 -0.0900  0.3040 -0.8675
 2520poe    c2312958   4.778   5.287   3.546 -0.4280 -0.7221 -0.1144
 2520poe     o212959   4.801   5.166   3.614 -0.0094 -0.2697  0.5621
 2520poe    c3112960   4.857   5.060   3.539 -0.0062 -0.2783  0.5769
 2521poe    c3112961   0.130   5.798   2.896  0.4894  0.6297  0.0638
 2521poe     o212962   0.121   5.911   2.811  0.2086  0.6478  0.1175
 2521poe    c2312963   0.016   5.994   2.856 -0.1052  0.0596  0.4925
 2521poe    c2312964  -0.000   6.099   2.744  0.2652 -0.1518  0.2385
 2521poe     o212965   0.131   6.137   2.709  0.2002 -0.1249  0.0260
 2521poe    c2312966   0.134   6.216   2.592  0.3171  0.2328  0.2686
 2521poe    c2312967   0.272   6.285   2.584  0.2121  0.5307  0.9109
 2521poe     o212968   0.386   6.204   2.602  0.1566  0.2010 -0.1530
 2521poe    c2312969   0.430   6.246   2.729 -0.4952 -0.5839  0.3419
 2521poe    c2312970   0.497   6.130   2.805  0.7197  0.0656  0.2954
 2521poe     o212971   0.404   6.026   2.830  0.5814  0.0611 -0.2374
 2521poe    c3112972   0.469   5.918   2.893 -0.1593 -0.3564 -0.1835
 2522poe    c3112973   4.521   3.547   0.965  0.4431 -0.1625 -0.3517
 2522poe     o212974   4.531   3.678   0.915 -0.1598  0.1345  0.2785
 2522poe    c2312975   4.545   3.773   1.018 -0.4783  0.2465  0.2186
 2522poe    c2312976   4.501   3.912   0.969  0.1908  0.5096  0.3629
 2522poe     o212977   4.387   3.904   0.888  0.7183 -0.3484 -0.3195
 2522poe    c2312978   4.378   4.018   0.804  0.1289  0.0057  0.2111
 2522poe    c2312979   4.251   4.015   0.717  0.2229 -0.4327  0.0859
 2522poe     o212980   4.232   3.897   0.642  0.4825 -0.1476 -0.4345
 2522poe    c2312981   4.097   3.871   0.610  0.2600  0.0859  0.2880
 2522poe    c2312982   4.087   3.721   0.575 -0.0034  0.1727 -0.0030
 2522poe     o212983   4.199   3.680   0.500  0.2444  0.2129  0.3459
 2522poe    c3112984   4.188   3.550   0.446 -0.3304  0.3316  0.1653
 2523poe    c3112985   0.950   1.353   3.213  0.1866  0.5884  0.4760
 2523poe     o212986   1.062   1.435   3.188  0.3521  0.1806 -0.1380
 2523poe    c2312987   1.104   1.499   3.306 -0.6321  0.4031  0.0990
 2523poe    c2312988   1.222   1.591   3.269 -0.6908  0.3868 -0.1245
 2523poe     o212989   1.194   1.649   3.143 -0.2476  0.0410 -0.3880
 2523poe    c2312990   1.262   1.770   3.116 -0.1898  0.0160 -0.3545
 2523poe    c2312991   1.179   1.851   3.015 -0.3350  0.5093  0.1549
 2523poe     o212992   1.155   1.773   2.900  0.3424  0.0028  0.3515
 2523poe    c2312993   1.074   1.847   2.812  0.4876  0.0182  0.2305
 2523poe    c2312994   1.071   1.770   2.678 -0.3787 -0.1881  0.3617
 2523poe     o212995   1.011   1.643   2.692 -0.1190 -0.3527  0.0200
 2523poe    c3112996   1.024   1.573   2.571  0.0433 -0.2373 -0.0296
 2524poe    c3112997   5.096   2.443   3.831 -0.1799  0.3779  0.3557
 2524poe     o212998   4.976   2.421   3.760  0.1579 -0.4236  0.0207
 2524poe    c2312999   4.914   2.548   3.754  0.2438 -0.3477  0.6690
 2524poe    c2313000   4.765   2.531   3.720  0.2455 -0.0791  0.5208
 2524poe     o213001   4.744   2.468   3.596 -0.0818 -0.0143  0.5439
 2524poe    c2313002   4.606   2.441   3.586 -0.1821  0.7194 -0.2433
 2524poe    c2313003   4.573   2.321   3.495 -0.2903  0.5638 -0.0011
 2524poe     o213004   4.622   2.209   3.566 -0.1616  0.7074  0.1376
 2524poe    c2313005   4.588   2.087   3.505  0.5886  0.5074  0.1103
 2524poe    c2313006   4.685   2.047   3.393  0.0537 -0.3207 -0.0654
 2524poe     o213007   4.808   1.999   3.443  0.1560  0.0121  0.0041
 2524poe    c3113008   4.902   1.986   3.339 -0.1477 -0.0777 -0.2614
 2525poe    c3113009   1.348   0.711   3.674 -0.0247  0.3303 -0.2541
 2525poe     o213010   1.458   0.799   3.681 -0.5335  0.9197  0.4634
 2525poe    c2313011   1.475   0.847   3.550 -0.2436  0.3414  0.2866
 2525poe    c2313012   1.529   0.987   3.582  0.2280  0.0218  0.9143
 2525poe     o213013   1.433   1.061   3.655 -0.4036  0.3491 -0.2326
 2525poe    c2313014   1.463   1.198   3.647 -0.5458  0.3733 -0.3565
 2525poe    c2313015   1.357   1.283   3.720 -0.1440  0.5553  0.0183
 2525poe     o213016   1.386   1.297   3.857 -0.2152 -0.6847  0.1654
 2525poe    c2313017   1.277   1.357   3.923 -0.1623 -0.1205 -0.2514
 2525poe    c2313018   1.131   1.308   3.937 -0.2972  0.3145 -0.1221
 2525poe     o213019   1.116   1.213   4.040 -0.2343  0.1265 -0.2856
 2525poe    c3113020   0.982   1.172   4.037 -0.0418 -0.5134 -0.3768
 2526poe    c3113021   5.141   6.265   3.690  0.1117  0.1285  0.0064
 2526poe     o213022   5.281   6.274   3.704  0.1133 -0.0312  0.0965
 2526poe    c2313023   5.337   6.347   3.597 -0.4080  0.1802 -0.0346
 2526poe    c2313024   5.491   6.352   3.604 -0.3670 -0.1603 -0.6546
 2526poe     o213025   5.565   6.237   3.571  0.4503  0.1644  0.0093
 2526poe    c2313026   5.703   6.241   3.599  0.4823  0.6602 -0.2143
 2526poe    c2313027   5.756   6.132   3.695  0.4107  0.1557 -0.7424
 2526poe     o213028   5.746   6.004   3.636 -0.0441  0.0002 -0.3386
 2526poe    c2313029   5.746   5.901   3.732  0.2303  0.2573 -0.0589
 2526poe    c2313030   5.804   5.770   3.675 -0.0314 -0.1389  0.5787
 2526poe     o213031   5.725   5.722   3.568  0.1088 -0.0362  0.4284
 2526poe    c3113032   5.776   5.601   3.515 -0.5474 -0.0281 -0.2317
 2527poe    c3113033   1.136   4.805   6.881  0.2371 -0.0214  0.7460
 2527poe     o213034   1.233   4.798   6.779 -0.0861  0.5433  0.3950
 2527poe    c2313035   1.188   4.869   6.665 -0.5251 -0.6699 -0.2090
 2527poe    c2313036   1.284   4.877   6.545 -0.5911  0.2090 -0.2096
 2527poe     o213037   1.389   4.969   6.565 -0.2569 -0.2807  0.3317
 2527poe    c2313038   1.349   5.103   6.547 -0.4120 -0.3404  0.2338
 2527poe    c2313039   1.461   5.208   6.558 -0.6906 -0.0123  0.0030
 2527poe     o213040   1.564   5.202   6.462 -0.2689 -0.2294  0.4593
 2527poe    c2313041   1.683   5.276   6.480  0.1324 -0.7550 -0.0025
 2527poe    c2313042   1.798   5.224   6.392 -0.1327 -0.0206 -0.7966
 2527poe     o213043   1.832   5.091   6.422 -0.3293  0.1209  0.0808
 2527poe    c3113044   1.931   5.049   6.330 -0.8001  0.2307 -0.4797
 2528poe    c3113045   5.631   4.191   2.869 -0.0899  0.1521 -0.2875
 2528poe     o213046   5.642   4.054   2.838 -0.0132  0.0325  0.2406
 2528poe    c2313047   5.528   3.999   2.774  0.2628 -0.1352 -0.1149
 2528poe    c2313048   5.532   3.847   2.799 -0.1562 -0.1491 -0.1279
 2528poe     o213049   5.669   3.818   2.782 -0.1212  0.0836 -0.2607
 2528poe    c2313050   5.682   3.677   2.773  0.0603  0.1092 -0.4041
 2528poe    c2313051   5.832   3.643   2.768  0.0801  0.0839  0.2635
 2528poe     o213052   5.908   3.664   2.885 -0.0566 -0.1551  0.3959
 2528poe    c2313053   6.044   3.636   2.863 -0.1099 -0.1222  0.0243
 2528poe    c2313054   6.139   3.693   2.970 -0.1840 -0.3642  0.2212
 2528poe     o213055   6.136   3.834   2.979  0.1365 -0.3504  0.1217
 2528poe    c3113056   6.216   3.871   3.089  0.1424 -0.2129  0.0710
 2529poe    c3113057   3.228   2.603   6.570  1.1505 -0.4407 -0.2616
 2529poe     o213058   3.299   2.721   6.601  0.5060 -0.1315  0.0780
 2529poe    c2313059   3.393   2.696   6.704  0.0862 -0.5493  0.3663
 2529poe    c2313060   3.458   2.818   6.771 -0.4969  0.0944 -0.2210
 2529poe     o213061   3.364   2.919   6.804  0.0801  0.4825  0.2506
 2529poe    c2313062   3.430   3.041   6.831  0.6117  0.2040  0.2294
 2529poe    c2313063   3.325   3.150   6.861  0.0118 -0.2965 -0.0157
 2529poe     o213064   3.229   3.153   6.758  0.3526  0.0014 -0.3263
 2529poe    c2313065   3.131   3.251   6.786  0.2790 -0.1465 -0.0678
 2529poe    c2313066   3.019   3.261   6.681 -0.3799  0.2536  0.6600
 2529poe     o213067   2.942   3.143   6.681  0.0203 -0.0114  0.9966
 2529poe    c3113068   2.833   3.152   6.593  0.3810 -0.3535  0.5128
 2530poe    c3113069   5.825   0.407   6.336  0.5056  0.6462 -0.1695
 2530poe     o213070   5.724   0.441   6.244  0.2538 -0.1603 -0.1988
 2530poe    c2313071   5.739   0.559   6.169 -0.5748  0.0767 -0.0030
 2530poe    c2313072   5.610   0.594   6.092 -0.3728  0.0346 -0.3663
 2530poe     o213073   5.489   0.585   6.165  0.0044  0.0539  0.2703
 2530poe    c2313074   5.372   0.588   6.087  0.1114 -0.5926  0.0745
 2530poe    c2313075   5.246   0.569   6.174  0.0039  0.0105  0.0557
 2530poe     o213076   5.276   0.454   6.251  0.0540 -0.0392 -0.0395
 2530poe    c2313077   5.164   0.408   6.323 -0.0297  0.0607 -0.1038
 2530poe    c2313078   5.203   0.274   6.390 -0.1777  0.1132  0.0870
 2530poe     o213079   5.298   0.275   6.494 -0.0492 -0.2218 -0.0273
 2530poe    c3113080   5.322   0.144   6.540  0.2874 -0.1377  0.0387
 2531poe    c3113081   1.344   0.159   1.969  0.4914 -0.5195  0.0648
 2531poe     o213082   1.289   0.215   1.853  0.1126 -0.3850  0.3076
 2531poe    c2313083   1.213   0.110   1.797  0.5415 -0.3977 -0.2586
 2531poe    c2313084   1.105   0.172   1.707  0.7609  0.2454 -0.0915
 2531poe     o213085   1.158   0.234   1.592  0.4714 -0.0359 -0.3807
 2531poe    c2313086   1.055   0.319   1.546 -0.1467 -0.4076  0.2872
 2531poe    c2313087   1.098   0.390   1.416 -0.1759 -0.1606  0.4122
 2531poe     o213088   1.205   0.476   1.449  0.0697 -0.4317  0.3290
 2531poe    c2313089   1.254   0.560   1.347 -0.0112  0.1768  0.7864
 2531poe    c2313090   1.357   0.649   1.418  0.6294  0.3076 -0.2870
 2531poe     o213091   1.422   0.554   1.500  0.3122  0.2485 -0.1020
 2531poe    c3113092   1.533   0.614   1.562  0.2583  0.0491  0.1920
 2532poe    c3113093   6.876   3.243   0.372  0.3269 -0.2532  0.3305
 2532poe     o213094   6.801   3.236   0.491 -0.6999 -0.5024 -0.3165
 2532poe    c2313095   6.854   3.145   0.585 -0.0119  0.0053 -0.2050
 2532poe    c2313096   6.755   3.124   0.701 -0.0379  0.2071 -0.1899
 2532poe     o213097   6.719   3.232   0.783  0.6081  0.1472  0.1816
 2532poe    c2313098   6.633   3.190   0.887  0.2517 -0.1554 -0.2295
 2532poe    c2313099   6.576   3.317   0.954 -0.0625 -0.2020 -0.4033
 2532poe     o213100   6.511   3.398   0.859 -0.3931 -0.0698 -0.0641
 2532poe    c2313101   6.472   3.523   0.909  0.2789  0.1802 -0.1638
 2532poe    c2313102   6.431   3.625   0.801  0.0151  0.1673 -0.0772
 2532poe     o213103   6.495   3.617   0.675  0.1127  0.2054 -0.0299
 2532poe    c3113104   6.492   3.741   0.608 -0.1639  0.3478  0.2400
 2533poe    c3113105   0.857   0.755   2.110  0.1665  0.0653 -0.2616
 2533poe     o213106   0.827   0.697   2.236  0.4245  0.2958 -0.0930
 2533poe    c2313107   0.708   0.750   2.290  0.5055 -0.0012  0.3808
 2533poe    c2313108   0.673   0.677   2.421 -0.0354 -0.3067  0.0688
 2533poe     o213109   0.713   0.542   2.420  0.1780 -0.2424 -0.0586
 2533poe    c2313110   0.723   0.478   2.545  0.2131 -0.1181  0.0029
 2533poe    c2313111   0.754   0.330   2.516 -0.2387 -0.1446 -0.3690
 2533poe     o213112   0.886   0.321   2.466 -0.0144 -0.0114  0.1945
 2533poe    c2313113   0.938   0.191   2.455  0.4168  0.2125 -0.4494
 2533poe    c2313114   1.090   0.194   2.481  0.4380 -0.3251 -0.4977
 2533poe     o213115   1.153   0.260   2.374 -0.1963  0.3626 -0.4618
 2533poe    c3113116   1.294   0.248   2.378 -0.2158  0.2328 -0.1218
 2534poe    c3113117   3.240   2.001   5.380  0.4233  0.8745  0.0221
 2534poe     o213118   3.310   1.928   5.479  0.2406  0.2780 -0.2847
 2534poe    c2313119   3.351   2.021   5.577 -0.9186 -0.0185  0.5086
 2534poe    c2313120   3.436   1.955   5.687 -0.2722 -0.1540 -0.0597
 2534poe     o213121   3.554   1.904   5.629  0.0170  0.5332 -0.0820
 2534poe    c2313122   3.599   1.800   5.712  0.0121  0.4149 -0.2270
 2534poe    c2313123   3.713   1.721   5.644 -0.3591  0.0500 -0.4301
 2534poe     o213124   3.654   1.631   5.554 -0.2771 -0.0720 -0.3616
 2534poe    c2313125   3.746   1.541   5.495  0.1009 -0.0465  0.1848
 2534poe    c2313126   3.678   1.432   5.411  1.0011 -0.4791  0.0138
 2534poe     o213127   3.609   1.334   5.486  0.2067  0.2548  0.2462
 2534poe    c3113128   3.543   1.247   5.398  0.5786  0.3757 -0.1549
 2535poe    c3113129   4.497   1.187   5.825  0.3292 -0.1709 -0.0940
 2535poe     o213130   4.576   1.088   5.764  0.4764  0.0733 -0.3032
 2535poe    c2313131   4.635   1.143   5.649  0.0478 -0.0282 -0.5731
 2535poe    c2313132   4.747   1.044   5.612  0.2879  0.0319 -0.0164
 2535poe     o213133   4.678   0.921   5.604 -0.1919  0.3199 -0.2974
 2535poe    c2313134   4.769   0.822   5.562 -0.1518  0.3383 -0.2547
 2535poe    c2313135   4.693   0.691   5.588 -0.5018  0.4808 -0.5418
 2535poe     o213136   4.613   0.703   5.703 -0.1574 -0.6640 -0.1624
 2535poe    c2313137   4.566   0.579   5.751  0.1195 -0.6872  0.0532
 2535poe    c2313138   4.474   0.591   5.874  0.1382  0.2780 -0.0149
 2535poe     o213139   4.525   0.669   5.980  0.3720  0.0743  0.0249
 2535poe    c3113140   4.435   0.682   6.088  0.0781 -0.4370 -0.1516
 2536poe    c3113141   6.684   3.741   2.185  0.2610  0.4575  0.4058
 2536poe     o213142   6.602   3.839   2.125  0.1302  0.2048  0.1698
 2536poe    c2313143   6.476   3.798   2.077  0.2251  0.1577 -0.0395
 2536poe    c2313144   6.383   3.920   2.072  0.3099  0.2633  0.8400
 2536poe     o213145   6.419   4.016   1.975 -0.1256 -0.2980  0.1083
 2536poe    c2313146   6.313   4.109   1.964 -0.1014 -0.2549  0.2474
 2536poe    c2313147   6.337   4.228   1.871  0.0966 -0.3202  0.2144
 2536poe     o213148   6.438   4.310   1.926 -0.2387 -0.2268  0.6930
 2536poe    c2313149   6.450   4.430   1.852 -0.1051 -0.2559  0.6672
 2536poe    c2313150   6.582   4.501   1.886  0.1243 -0.4371  0.1618
 2536poe     o213151   6.682   4.403   1.870  0.0538 -0.5323  0.3028
 2536poe    c3113152   6.784   4.445   1.958 -0.2168  0.1040  0.3172
 2537poe    c3113153   3.810   4.960   3.821 -0.1263 -0.5830  0.2788
 2537poe     o213154   3.677   4.995   3.852 -0.1228 -0.1395 -0.1889
 2537poe    c2313155   3.669   5.126   3.904 -0.1167 -0.2819  0.1696
 2537poe    c2313156   3.523   5.175   3.901 -0.2981 -0.8266 -0.1710
 2537poe     o213157   3.468   5.151   4.029 -0.0815 -0.2662  0.0297
 2537poe    c2313158   3.329   5.171   4.025 -0.1344 -0.5487  0.4939
 2537poe    c2313159   3.283   5.221   4.164  0.1278  0.2674  0.2901
 2537poe     o213160   3.296   5.124   4.265  0.2234  0.0492  0.0709
 2537poe    c2313161   3.284   5.192   4.388  0.9152 -0.3589  0.3709
 2537poe    c2313162   3.316   5.107   4.512  0.2042 -0.3797  0.5449
 2537poe     o213163   3.455   5.084   4.522  0.3300  0.0862 -0.1110
 2537poe    c3113164   3.494   5.027   4.644  0.2178 -0.0228 -0.1258
 2538poe    c3113165   5.593   6.289   3.226  0.0804  0.5939  0.2029
 2538poe     o213166   5.649   6.170   3.173 -0.0971  0.3961  0.4583
 2538poe    c2313167   5.592   6.154   3.045  0.7230 -0.3327  0.1753
 2538poe    c2313168   5.602   6.009   2.994  0.3175 -0.2962 -0.0127
 2538poe     o213169   5.524   5.921   3.072  0.4521  0.3243  0.8411
 2538poe    c2313170   5.524   5.792   3.014  0.0323  0.4755  0.4989
 2538poe    c2313171   5.449   5.683   3.093 -0.0598  0.6067  0.5938
 2538poe     o213172   5.310   5.668   3.073  0.0325  0.0239  0.3618
 2538poe    c2313173   5.284   5.620   2.943  0.3975  0.5955  0.0696
 2538poe    c2313174   5.143   5.558   2.932  0.2832  0.8597  0.0236
 2538poe     o213175   5.040   5.652   2.949 -0.0690  0.4012  0.4994
 2538poe    c3113176   4.927   5.585   2.999 -0.1048 -0.2584 -0.4324
 2539poe    c3113177   0.817   5.360   0.448  0.2077 -0.7993  0.2359
 2539poe     o213178   0.957   5.368   0.432  0.1634  0.3959  0.3615
 2539poe    c2313179   1.010   5.498   0.446  0.3768  0.3789 -0.2760
 2539poe    c2313180   1.071   5.524   0.585  0.5558  0.7672 -0.4262
 2539poe     o213181   1.158   5.422   0.627 -0.3557  0.1726  0.0439
 2539poe    c2313182   1.216   5.455   0.751  0.1096 -0.2161 -0.0668
 2539poe    c2313183   1.370   5.445   0.754  0.1426  0.2552 -0.1097
 2539poe     o213184   1.424   5.509   0.641 -0.3820  0.1521 -0.4234
 2539poe    c2313185   1.521   5.425   0.583  0.0170  0.0116  0.4363
 2539poe    c2313186   1.542   5.461   0.435 -0.3475 -0.0947  0.3580
 2539poe     o213187   1.428   5.450   0.353  0.0945 -0.5130 -0.2179
 2539poe    c3113188   1.461   5.499   0.225  0.6837  0.4324  0.2856
 2540poe    c3113189   2.741   6.688   1.583  0.2074 -0.0744 -0.0885
 2540poe     o213190   2.734   6.828   1.597  0.1103 -0.0812 -0.0653
 2540poe    c2313191   2.669   6.860   1.718 -0.4726  0.1125 -0.4297
 2540poe    c2313192   2.665   7.012   1.741 -0.3567  0.0351  0.1133
 2540poe     o213193   2.787   7.078   1.716 -0.3183  0.1751  0.6502
 2540poe    c2313194   2.768   7.214   1.749 -0.2856  0.2852  0.2317
 2540poe    c2313195   2.894   7.295   1.713 -0.3131  0.0667 -0.3665
 2540poe     o213196   3.000   7.216   1.762 -0.2830  0.2914 -0.0681
 2540poe    c2313197   3.119   7.292   1.755  0.1638 -0.3598  0.3444
 2540poe    c2313198   3.235   7.205   1.808  0.1930 -0.4518  0.1279
 2540poe     o213199   3.206   7.085   1.738 -0.5057 -0.4299  0.3706
 2540poe    c3113200   3.323   7.007   1.745 -0.1202  0.0833 -0.2784
 2541poe    c3113201   2.485   6.608   0.283  0.2238  0.3201  0.7212
 2541poe     o213202   2.583   6.709   0.269  0.5074 -0.0271  0.1727
 2541poe    c2313203   2.633   6.702   0.138  0.4933  0.5607  0.1346
 2541poe    c2313204   2.761   6.788   0.136  0.5888  0.4151 -0.3443
 2541poe     o213205   2.726   6.904   0.209  0.1769  0.1100 -0.0536
 2541poe    c2313206   2.843   6.982   0.215  0.5668 -0.4715  0.0128
 2541poe    c2313207   2.800   7.126   0.252  0.2957 -0.5579  0.0391
 2541poe     o213208   2.723   7.112   0.369  0.5201 -0.2239  0.2261
 2541poe    c2313209   2.682   7.234   0.427  0.4459 -0.3666  0.4729
 2541poe    c2313210   2.609   7.220   0.562  0.1604 -0.2591  0.3311
 2541poe     o213211   2.502   7.129   0.548  0.2734 -0.3364 -0.0200
 2541poe    c3113212   2.466   7.094   0.679 -0.3265 -0.5600 -0.2371
 2542poe    c3113213   2.898   0.219   2.709 -0.2167  0.0177  0.2615
 2542poe     o213214   2.950   0.348   2.688 -0.2441 -0.1169 -0.6429
 2542poe    c2313215   3.009   0.334   2.560  0.1830 -0.3880 -0.4190
 2542poe    c2313216   3.048   0.466   2.491  0.1815 -0.3673 -0.3802
 2542poe     o213217   3.154   0.528   2.562 -0.8333  0.5410  0.3669
 2542poe    c2313218   3.187   0.645   2.490 -0.3831  0.0605 -0.2226
 2542poe    c2313219   3.294   0.729   2.562 -0.0517 -0.5068 -0.0401
 2542poe     o213220   3.234   0.784   2.678  0.4772 -0.2237  0.1014
 2542poe    c2313221   3.304   0.898   2.724 -0.0185  0.1904 -0.1619
 2542poe    c2313222   3.221   0.936   2.848  0.2301  0.2283 -0.0065
 2542poe     o213223   3.216   0.824   2.934  0.1502  0.1725 -0.0830
 2542poe    c3113224   3.118   0.850   3.032  0.1015 -0.1867 -0.0356
 2543poe    c3113225   0.339   2.505   0.008  0.3997 -0.0643  0.0907
 2543poe     o213226   0.262   2.587   0.093  0.1110 -0.3897  0.1456
 2543poe    c2313227   0.201   2.500   0.187  0.4471 -0.4781  0.2839
 2543poe    c2313228   0.091   2.586   0.252  0.0897 -0.7716  0.0699
 2543poe     o213229   0.137   2.719   0.257 -0.0008 -0.7455  0.1952
 2543poe    c2313230   0.081   2.807   0.353  0.5749  0.0654 -0.2021
 2543poe    c2313231   0.156   2.941   0.360  0.3557  0.1659  0.2596
 2543poe     o213232   0.162   3.004   0.234 -0.1358  0.3380  0.3211
 2543poe    c2313233   0.223   3.130   0.235 -0.0516  0.2972  0.2924
 2543poe    c2313234   0.246   3.191   0.095  0.3997  0.3568  0.3900
 2543poe     o213235   0.344   3.119   0.023 -0.1423  0.3362 -0.3387
 2543poe    c3113236   0.412   3.191  -0.077  0.7377 -0.0014  0.0056
 2544poe    c3113237   4.293   2.672   3.399  0.7465 -0.2735 -0.6199
 2544poe     o213238   4.250   2.800   3.360 -0.3491 -0.4163  0.0674
 2544poe    c2313239   4.199   2.865   3.474  0.2533 -0.0311  0.1202
 2544poe    c2313240   4.164   3.014   3.457 -0.2267 -0.1779 -0.1789
 2544poe     o213241   4.123   3.023   3.322 -0.4213  0.0707 -0.1026
 2544poe    c2313242   4.153   3.148   3.263  0.3270 -0.0297  0.0545
 2544poe    c2313243   4.154   3.137   3.109  0.5763  0.1292  0.0441
 2544poe     o213244   4.241   3.043   3.052 -0.0654 -0.4877  0.0662
 2544poe    c2313245   4.220   3.050   2.913 -0.6262  0.5217  0.1946
 2544poe    c2313246   4.301   2.946   2.833 -0.0417  0.7001  0.5505
 2544poe     o213247   4.256   2.815   2.856  0.1638  0.5219 -0.0382
 2544poe    c3113248   4.339   2.726   2.785 -0.5911  0.3987 -0.7784
 2545poe    c3113249   3.013   4.809   4.450  0.0744 -0.1933  0.2461
 2545poe     o213250   3.088   4.787   4.567  0.0472 -0.0256  0.2966
 2545poe    c2313251   3.214   4.737   4.528 -0.1406 -0.3566  0.1042
 2545poe    c2313252   3.298   4.692   4.649 -0.1036  0.1934  0.2873
 2545poe     o213253   3.237   4.587   4.721  0.0716  0.1809  0.4196
 2545poe    c2313254   3.336   4.496   4.762 -0.0125  0.1296  0.5090
 2545poe    c2313255   3.275   4.374   4.834  0.1392  0.0921  0.5741
 2545poe     o213256   3.173   4.426   4.916 -0.2986 -0.1847  0.2101
 2545poe    c2313257   3.071   4.333   4.947 -0.6026  0.0893  0.0359
 2545poe    c2313258   2.995   4.395   5.066 -0.1220 -0.1514  0.4699
 2545poe     o213259   2.984   4.532   5.034  0.6874 -0.0732  0.4898
 2545poe    c3113260   2.902   4.608   5.120  0.0402  0.2985 -0.4443
 2546poe    c3113261   3.434   0.863   4.366  0.3150 -0.4510  0.1616
 2546poe     o213262   3.410   0.858   4.504 -0.3914 -0.1193  0.0554
 2546poe    c2313263   3.538   0.854   4.564 -0.1582  0.2005 -0.4135
 2546poe    c2313264   3.534   0.735   4.661 -0.3249  0.0426 -0.6131
 2546poe     o213265   3.439   0.757   4.764  0.1448  0.5393 -0.2854
 2546poe    c2313266   3.444   0.652   4.857 -0.3829  0.6575 -0.1206
 2546poe    c2313267   3.309   0.628   4.927  0.1209  0.2647  0.7416
 2546poe     o213268   3.214   0.623   4.823  0.5751  0.0520  0.3337
 2546poe    c2313269   3.087   0.578   4.863  0.4081 -0.0037 -0.2486
 2546poe    c2313270   3.056   0.434   4.816  0.1628 -0.0187 -0.0461
 2546poe     o213271   3.131   0.335   4.884 -0.2817  0.0536  0.5574
 2546poe    c3113272   3.066   0.213   4.855 -0.1209  0.0964 -0.0043
 2547poe    c3113273   0.238   1.193   1.381  0.1340  0.0890  0.2894
 2547poe     o213274   0.377   1.209   1.401  0.2993 -0.8120 -0.0819
 2547poe    c2313275   0.443   1.261   1.288  0.1403 -0.1004  0.1505
 2547poe    c2313276   0.592   1.268   1.325  0.1219  0.7414  0.0952
 2547poe     o213277   0.606   1.275   1.466 -0.4851 -0.3189  0.2247
 2547poe    c2313278   0.743   1.258   1.490 -0.3846 -0.2703 -0.2863
 2547poe    c2313279   0.773   1.286   1.639  0.4787 -0.2993 -0.4460
 2547poe     o213280   0.709   1.206   1.736  0.4589  0.1131 -0.1130
 2547poe    c2313281   0.758   1.233   1.865  0.3354 -0.1033 -0.0189
 2547poe    c2313282   0.703   1.139   1.973 -0.4229 -0.0761 -0.3724
 2547poe     o213283   0.563   1.129   1.979 -0.4308  0.0771 -0.2818
 2547poe    c3113284   0.532   1.022   2.065  0.4439  0.1469  0.1276
 2548poe    c3113285   6.113   2.699   0.644  0.0115  0.3570  0.4079
 2548poe     o213286   6.247   2.658   0.636 -0.1657 -0.1987  0.2352
 2548poe    c2313287   6.334   2.755   0.583 -0.0685 -0.3324  0.1478
 2548poe    c2313288   6.468   2.703   0.527 -0.0959 -0.2173 -0.0244
 2548poe     o213289   6.448   2.616   0.418 -0.1350  0.0190 -0.2081
 2548poe    c2313290   6.574   2.556   0.394 -0.0738  0.2614 -0.4962
 2548poe    c2313291   6.562   2.404   0.379  0.2829  0.1632  0.1751
 2548poe     o213292   6.492   2.338   0.483 -0.1728  0.0953 -0.1719
 2548poe    c2313293   6.532   2.205   0.459 -0.2743  0.0012  0.1891
 2548poe    c2313294   6.446   2.106   0.541 -0.0123 -0.2390  0.1763
 2548poe     o213295   6.312   2.133   0.506  0.1233  0.2124 -0.0022
 2548poe    c3113296   6.225   2.040   0.567 -0.1685  0.1692 -0.4789
 2549poe    c3113297   2.001   0.211   0.150  0.1064 -0.0586 -0.1244
 2549poe     o213298   2.126   0.271   0.175 -0.1091  0.2448  0.2453
 2549poe    c2313299   2.202   0.220   0.283 -0.1963 -0.2401  0.0806
 2549poe    c2313300   2.349   0.251   0.251 -0.3436 -0.0390 -0.4135
 2549poe     o213301   2.363   0.389   0.228 -0.4910 -0.0453 -0.5439
 2549poe    c2313302   2.499   0.416   0.204 -0.2409  0.0204  0.8546
 2549poe    c2313303   2.542   0.562   0.180  0.3942 -0.2103  0.5532
 2549poe     o213304   2.550   0.655   0.286  0.0138  0.4852 -0.0151
 2549poe    c2313305   2.594   0.786   0.257  0.4631  0.3811  0.1880
 2549poe    c2313306   2.539   0.900   0.345 -0.0501  0.2336  0.0598
 2549poe     o213307   2.611   0.909   0.466  0.3962  0.3161 -0.2113
 2549poe    c3113308   2.538   0.972   0.568  0.0746 -0.2281 -0.1034
 2550poe    c3113309   0.666   6.875   6.362 -0.0161  0.4132 -0.3470
 2550poe     o213310   0.777   6.853   6.446 -0.0163 -0.2647 -0.5202
 2550poe    c2313311   0.890   6.856   6.361  0.1003 -0.4814 -0.3736
 2550poe    c2313312   0.999   6.806   6.458 -0.0887 -0.1188  0.0313
 2550poe     o213313   1.048   6.897   6.554  0.6335 -0.2756 -0.1778
 2550poe    c2313314   1.119   6.825   6.652  0.2054 -0.1663  0.2196
 2550poe    c2313315   1.171   6.934   6.748  0.3840  0.1814 -0.2682
 2550poe     o213316   1.089   6.986   6.850  0.8668  0.1432  0.1431
 2550poe    c2313317   1.154   7.078   6.936  0.5497  0.6239 -0.1279
 2550poe    c2313318   1.056   7.112   7.050 -0.1390  0.2269 -0.5905
 2550poe     o213319   1.017   7.011   7.141 -0.1335  0.7839  0.0378
 2550poe    c3113320   0.881   7.024   7.174 -0.2041  0.3736 -0.0908
 2551poe    c3113321   3.088   2.936   1.120  0.2092  0.2103 -0.1942
 2551poe     o213322   3.203   2.979   1.190  0.0323 -0.2376  0.3854
 2551poe    c2313323   3.171   3.076   1.288 -0.0208  0.2725 -0.1324
 2551poe    c2313324   3.303   3.143   1.330  0.0380 -0.0381  0.1799
 2551poe     o213325   3.395   3.056   1.392 -0.1125 -0.1436  0.2556
 2551poe    c2313326   3.393   3.067   1.533 -0.0651  0.2734  0.2246
 2551poe    c2313327   3.513   3.002   1.605 -0.0904 -0.0321 -0.0054
 2551poe     o213328   3.526   2.867   1.567  0.1529 -0.0257  0.0564
 2551poe    c2313329   3.544   2.784   1.679  0.1488  0.0183  0.0899
 2551poe    c2313330   3.453   2.661   1.657  0.1287  0.1117 -0.3513
 2551poe     o213331   3.507   2.562   1.572 -0.5478 -0.5848  0.0173
 2551poe    c3113332   3.532   2.452   1.657  0.3901 -0.2665  0.1724
 2552poe    c3113333   6.718   2.555   4.379  0.1557  0.1163  0.3818
 2552poe     o213334   6.857   2.548   4.401  0.3103  0.2077 -0.5275
 2552poe    c2313335   6.897   2.537   4.536  0.0994 -0.4661 -0.5178
 2552poe    c2313336   7.006   2.627   4.596 -0.2048 -0.5027  0.1008
 2552poe     o213337   7.135   2.598   4.546  0.1346  0.1113  0.5987
 2552poe    c2313338   7.236   2.691   4.576  0.2181  0.0626  0.4659
 2552poe    c2313339   7.370   2.627   4.535 -0.0187  0.1141 -0.4148
 2552poe     o213340   7.360   2.561   4.411  0.1051 -0.1425 -0.2899
 2552poe    c2313341   7.478   2.496   4.370  0.1387 -0.2791  0.0239
 2552poe    c2313342   7.450   2.406   4.248  0.1167  0.3962 -0.4739
 2552poe     o213343   7.315   2.367   4.246  0.2052  0.0373  0.1603
 2552poe    c3113344   7.287   2.266   4.152 -0.3597 -0.0265  0.3888
 2553poe    c3113345   0.383   5.426   1.211 -0.2402  0.4208 -0.3279
 2553poe     o213346   0.399   5.550   1.144 -0.6316  0.5267 -0.2261
 2553poe    c2313347   0.359   5.644   1.241 -0.3037  0.1958  0.2344
 2553poe    c2313348   0.329   5.780   1.175  0.0463 -0.1528 -0.6533
 2553poe     o213349   0.229   5.757   1.078 -0.4139 -0.2372 -0.1627
 2553poe    c2313350   0.171   5.876   1.030 -0.0007 -0.1562 -0.4717
 2553poe    c2313351   0.104   5.846   0.895  0.0479 -0.5313 -0.4144
 2553poe     o213352   0.202   5.822   0.796  0.5696 -0.0802 -0.0106
 2553poe    c2313353   0.140   5.828   0.669  0.2868  0.4642  0.1460
 2553poe    c2313354   0.242   5.813   0.555 -0.3501  0.0786 -0.3752
 2553poe     o213355   0.331   5.922   0.560  0.1356 -0.2963 -0.7344
 2553poe    c3113356   0.356   5.980   0.434  0.6845  0.8224 -0.1231
 2554poe    c3113357   1.757   3.146   1.300 -0.6074 -0.1708 -0.1072
 2554poe     o213358   1.629   3.093   1.275 -0.7276  0.1817 -0.2434
 2554poe    c2313359   1.551   3.120   1.390 -0.0570  0.4391  0.1570
 2554poe    c2313360   1.418   3.043   1.381 -0.1315  0.6199 -0.3785
 2554poe     o213361   1.445   2.924   1.310 -0.2026  0.2165  0.2589
 2554poe    c2313362   1.329   2.845   1.300 -0.0230 -0.0304  0.1469
 2554poe    c2313363   1.370   2.716   1.225  0.0189  0.0535  0.0254
 2554poe     o213364   1.439   2.760   1.110  0.3222 -0.2407  0.0916
 2554poe    c2313365   1.430   2.663   1.008  0.5015 -0.3121  0.1449
 2554poe    c2313366   1.545   2.651   0.906  0.3812 -0.6105  0.0447
 2554poe     o213367   1.665   2.632   0.978  0.0443 -0.4367  0.6516
 2554poe    c3113368   1.758   2.567   0.894 -0.8931 -0.2543 -0.5504
 2555poe    c3113369   3.368   0.340   0.171  0.7268 -0.2645 -0.0073
 2555poe     o213370   3.457   0.393   0.076  0.6108  0.3354  0.2140
 2555poe    c2313371   3.426   0.527   0.044 -0.3544  0.1259  0.2387
 2555poe    c2313372   3.530   0.601  -0.042  0.0858 -0.1936  0.4909
 2555poe     o213373   3.558   0.542  -0.166  0.2873  0.5079  0.1966
 2555poe    c2313374   3.591   0.639  -0.263  0.7410  0.2941  0.1365
 2555poe    c2313375   3.661   0.576  -0.385 -0.0835 -0.2778 -0.0449
 2555poe     o213376   3.607   0.447  -0.401 -0.4337 -0.1389  0.0094
 2555poe    c2313377   3.674   0.389  -0.511 -0.1890 -0.1838  0.1824
 2555poe    c2313378   3.606   0.257  -0.550  0.2548 -0.3532 -0.0133
 2555poe     o213379   3.470   0.280  -0.579  0.2550 -0.1675  0.1386
 2555poe    c3113380   3.385   0.177  -0.532 -0.1545  0.1664  0.1317
 2556poe    c3113381   4.564   2.115   3.912 -0.4513 -0.2776  0.2875
 2556poe     o213382   4.557   1.980   3.953  0.1857 -0.4913 -0.2918
 2556poe    c2313383   4.466   1.906   3.876 -0.0335 -0.0583 -0.4510
 2556poe    c2313384   4.466   1.754   3.896  0.0723  0.0269  0.1942
 2556poe     o213385   4.590   1.695   3.860 -0.1020 -0.3746  0.2419
 2556poe    c2313386   4.580   1.639   3.731 -0.0114 -0.5627  0.3164
 2556poe    c2313387   4.702   1.554   3.693  0.3775 -0.0122  0.3192
 2556poe     o213388   4.818   1.634   3.708  0.3450  0.0846  0.0480
 2556poe    c2313389   4.930   1.553   3.683  0.0089 -0.2906 -0.2688
 2556poe    c2313390   5.056   1.580   3.767 -0.5803  0.9591  0.2386
 2556poe     o213391   5.027   1.560   3.904  0.0886 -0.0837  0.2440
 2556poe    c3113392   5.141   1.579   3.984 -0.0493 -0.0315  0.4289
 2557poe    c3113393   2.777   3.881   3.234  0.3082  0.3106  0.5620
 2557poe     o213394   2.726   4.012   3.219 -0.0047  0.1532  0.2458
 2557poe    c2313395   2.830   4.105   3.239  0.4076 -0.1200 -0.5809
 2557poe    c2313396   2.790   4.252   3.217  0.2384 -0.0978 -0.1374
 2557poe     o213397   2.688   4.295   3.304 -0.0735 -0.1844 -0.4577
 2557poe    c2313398   2.681   4.435   3.317 -0.1823 -0.1672 -0.6981
 2557poe    c2313399   2.593   4.472   3.438  0.2838 -0.3514 -0.2983
 2557poe     o213400   2.471   4.403   3.425 -0.1726  0.4353 -0.2397
 2557poe    c2313401   2.384   4.465   3.518 -0.1211 -0.1698  0.2204
 2557poe    c2313402   2.244   4.401   3.518  0.0331 -0.5101  0.4522
 2557poe     o213403   2.238   4.263   3.543 -0.1088 -0.5478  0.2162
 2557poe    c3113404   2.125   4.202   3.484  0.0097 -0.3018 -0.2663
 2558poe    c3113405   4.181   0.942   0.007 -0.2315  0.1393 -0.2411
 2558poe     o213406   4.200   1.075  -0.036  0.4513  0.1280  0.0164
 2558poe    c2313407   4.205   1.084  -0.176  0.2017 -0.0644 -0.0052
 2558poe    c2313408   4.275   1.217  -0.208 -0.6012  0.2311 -0.5717
 2558poe     o213409   4.225   1.334  -0.147 -0.2663  0.0456  0.0645
 2558poe    c2313410   4.299   1.438  -0.208 -0.4375  0.3889  0.4367
 2558poe    c2313411   4.229   1.567  -0.162 -0.3898  0.4930  0.2177
 2558poe     o213412   4.090   1.543  -0.164 -0.2870 -0.1163  0.2601
 2558poe    c2313413   4.005   1.655  -0.173 -0.2119 -0.0999 -0.2454
 2558poe    c2313414   3.873   1.578  -0.160 -0.1492 -0.3232 -0.9140
 2558poe     o213415   3.880   1.475  -0.063 -0.3621  0.2974 -0.2342
 2558poe    c3113416   3.753   1.429  -0.025 -0.2274 -0.0322 -0.1815
 2559poe    c3113417   4.984   6.914   5.964 -0.3569  0.3741 -0.6933
 2559poe     o213418   5.019   6.806   5.881 -0.4781 -0.3238  0.1404
 2559poe    c2313419   5.042   6.688   5.955 -0.0262 -0.3790 -0.0826
 2559poe    c2313420   5.089   6.585   5.851  0.5952 -0.1140 -0.0658
 2559poe     o213421   5.007   6.571   5.738  0.3034 -0.3306  0.1704
 2559poe    c2313422   5.058   6.512   5.620  0.4341 -0.5363  0.3285
 2559poe    c2313423   4.947   6.429   5.553  0.3695 -0.0316 -0.1967
 2559poe     o213424   4.847   6.525   5.525 -0.3157 -0.5704  0.3789
 2559poe    c2313425   4.751   6.452   5.453 -0.2770 -0.0762 -0.1801
 2559poe    c2313426   4.621   6.524   5.411 -0.5553 -0.5311 -0.1191
 2559poe     o213427   4.550   6.580   5.519 -0.2658 -0.0761 -0.1608
 2559poe    c3113428   4.418   6.622   5.491 -0.3452 -0.0135  0.2975
 2560poe    c3113429   5.148   3.194   0.626 -0.2870  0.2048 -0.4031
 2560poe     o213430   5.278   3.245   0.607 -0.1167 -0.2457 -0.4531
 2560poe    c2313431   5.266   3.380   0.568  0.3184 -0.0971 -0.0794
 2560poe    c2313432   5.407   3.439   0.582  0.2166  0.1677 -0.1459
 2560poe     o213433   5.496   3.345   0.526 -0.1808 -0.4760  0.2848
 2560poe    c2313434   5.626   3.400   0.516 -0.4433  0.0548 -0.2444
 2560poe    c2313435   5.714   3.306   0.432 -0.2116 -0.1484  0.2241
 2560poe     o213436   5.691   3.181   0.493 -0.5692 -0.0679  0.2571
 2560poe    c2313437   5.810   3.108   0.512 -0.5967 -0.2211 -0.1522
 2560poe    c2313438   5.792   2.968   0.573 -0.2773 -0.0168  0.4146
 2560poe     o213439   5.732   2.876   0.485  0.2467 -0.0482  0.0882
 2560poe    c3113440   5.716   2.746   0.537  0.0830  0.0573  0.3007
 2561poe    c3113441   6.035   4.071   4.900  0.1326 -0.0258 -0.2208
 2561poe     o213442   5.939   4.061   4.797 -0.2191  0.0673  0.0966
 2561poe    c2313443   5.983   4.107   4.671  0.2106 -0.4652  0.0506
 2561poe    c2313444   5.876   4.039   4.582 -0.0872  0.2884 -0.1729
 2561poe     o213445   5.749   4.070   4.636 -0.0155  0.1595  0.0736
 2561poe    c2313446   5.651   4.075   4.534  0.0796  0.2165 -0.0162
 2561poe    c2313447   5.528   4.130   4.609  0.4918  0.5357  0.4360
 2561poe     o213448   5.512   4.079   4.739 -0.2247 -0.2360  0.0565
 2561poe    c2313449   5.386   4.126   4.784 -0.3452 -0.4978 -0.0107
 2561poe    c2313450   5.350   4.086   4.928  0.0090 -0.0367  0.2065
 2561poe     o213451   5.442   4.116   5.031  0.0024  0.2644  0.1260
 2561poe    c3113452   5.365   4.102   5.148  0.5813 -0.2383  0.4515
 2562poe    c3113453   4.985   2.503   3.087  0.3351 -0.4400  0.3882
 2562poe     o213454   4.980   2.609   3.180 -0.6137 -0.2710  0.1522
 2562poe    c2313455   4.885   2.574   3.278 -0.3967  0.0190  0.4675
 2562poe    c2313456   4.905   2.684   3.384  1.1266  0.0752  0.1470
 2562poe     o213457   4.890   2.807   3.318 -0.0833 -0.0662  0.1270
 2562poe    c2313458   4.914   2.912   3.410  0.5445 -0.0381 -0.0592
 2562poe    c2313459   4.919   3.039   3.324 -0.3481  0.4505  0.5889
 2562poe     o213460   5.000   3.025   3.209 -0.0408  0.8343  0.7580
 2562poe    c2313461   5.006   3.144   3.134 -0.2357  0.2968 -0.1167
 2562poe    c2313462   5.139   3.221   3.126 -0.1369  0.1501  0.1211
 2562poe     o213463   5.181   3.282   3.246  0.1854  0.1202  0.0258
 2562poe    c3113464   5.311   3.335   3.230  0.0910  0.6140  0.8289
 2563poe    c3113465   2.677   7.079   5.250 -0.2973  0.2186 -0.0178
 2563poe     o213466   2.770   7.184   5.232 -0.0607  0.0608  0.2754
 2563poe    c2313467   2.712   7.294   5.299 -0.0053  0.0202  0.3900
 2563poe    c2313468   2.804   7.418   5.299  0.1491 -0.0886 -0.5757
 2563poe     o213469   2.921   7.399   5.374 -0.1757 -0.0481 -0.0518
 2563poe    c2313470   2.997   7.518   5.376 -0.0043 -0.1454 -0.6470
 2563poe    c2313471   3.089   7.531   5.499 -0.2437 -0.3024 -0.4512
 2563poe     o213472   3.187   7.430   5.501  0.2890  0.2129 -0.2582
 2563poe    c2313473   3.277   7.441   5.609 -0.0707  0.2155  0.0411
 2563poe    c2313474   3.334   7.299   5.626  0.3770  0.4768  0.7729
 2563poe     o213475   3.227   7.208   5.639  0.1714  0.5388 -0.3860
 2563poe    c3113476   3.284   7.080   5.651 -0.2490  0.3995  0.1309
 2564poe    c3113477   3.200   4.721   0.817 -0.0184 -0.4833 -0.2028
 2564poe     o213478   3.098   4.762   0.906  0.1436 -0.0181 -0.2268
 2564poe    c2313479   3.160   4.823   1.017 -0.1411  0.4001 -0.2962
 2564poe    c2313480   3.063   4.919   1.089  0.1375  0.4733 -0.0139
 2564poe     o213481   2.953   4.843   1.134  0.2462  0.0980 -0.3677
 2564poe    c2313482   2.848   4.929   1.173  0.0666 -0.0959 -0.4266
 2564poe    c2313483   2.718   4.846   1.187 -0.0509  0.1494 -0.0598
 2564poe     o213484   2.659   4.813   1.064 -0.0751 -0.1611  0.0365
 2564poe    c2313485   2.519   4.807   1.076 -0.1269  0.4553 -0.2275
 2564poe    c2313486   2.453   4.748   0.950  0.0711 -0.2849  0.0098
 2564poe     o213487   2.476   4.830   0.837 -0.3057 -0.3202 -0.0964
 2564poe    c3113488   2.429   4.783   0.713 -0.2478  0.3110 -0.3589
 2565poe    c3113489   2.691   1.496   5.515 -0.5844 -0.2106  0.1398
 2565poe     o213490   2.618   1.439   5.409  0.0457 -0.5488 -0.1182
 2565poe    c2313491   2.480   1.434   5.438  0.0783  0.2338  0.2061
 2565poe    c2313492   2.397   1.394   5.314  0.5731 -0.4262  0.0791
 2565poe     o213493   2.392   1.254   5.297  0.5487 -0.3734 -0.3507
 2565poe    c2313494   2.297   1.225   5.197 -0.0730  0.0651  0.1068
 2565poe    c2313495   2.319   1.084   5.138 -0.2487  0.0723  0.0237
 2565poe     o213496   2.453   1.064   5.101 -0.3341  0.0494 -0.2774
 2565poe    c2313497   2.476   0.931   5.060 -0.8801 -0.2069  0.2274
 2565poe    c2313498   2.629   0.918   5.048 -0.8424 -0.0201  0.4911
 2565poe     o213499   2.685   0.995   5.152  0.4038 -0.4799  0.1766
 2565poe    c3113500   2.826   0.992   5.151  0.4193  0.2232 -0.0294
 2566poe    c3113501   2.247   5.358   2.978 -0.5062 -0.0180 -0.6293
 2566poe     o213502   2.294   5.227   3.001  0.1683  0.3217 -0.0280
 2566poe    c2313503   2.295   5.215   3.141 -0.0537  0.1003 -0.0446
 2566poe    c2313504   2.364   5.089   3.195 -0.0949  0.0218 -0.1740
 2566poe     o213505   2.504   5.097   3.182 -0.0104  0.0359  0.6871
 2566poe    c2313506   2.568   4.972   3.190  0.3670  0.2366  0.8493
 2566poe    c2313507   2.717   4.988   3.154  0.1414  0.1861 -0.1322
 2566poe     o213508   2.742   5.034   3.023  0.0367  0.2914 -0.1150
 2566poe    c2313509   2.880   5.032   2.998 -0.0022 -0.4235 -0.3113
 2566poe    c2313510   2.919   5.145   2.901  0.0627 -0.1700  0.0049
 2566poe     o213511   2.900   5.259   2.981  0.0318 -0.0353 -0.1935
 2566poe    c3113512   2.986   5.356   2.925  0.1349 -0.0350 -0.0357
 2567poe    c3113513   1.344   4.027   0.328  0.1044 -0.3313 -0.1767
 2567poe     o213514   1.433   3.918   0.338 -0.2972 -0.6499 -0.0462
 2567poe    c2313515   1.423   3.858   0.466  0.2035 -0.1068  0.2532
 2567poe    c2313516   1.493   3.720   0.466 -0.2884 -0.3562  0.6118
 2567poe     o213517   1.629   3.748   0.443 -0.4075 -0.0646  0.2623
 2567poe    c2313518   1.687   3.622   0.417 -0.4530  0.0368 -0.3511
 2567poe    c2313519   1.836   3.621   0.457 -0.5353  0.6776 -0.0123
 2567poe     o213520   1.871   3.640   0.592  0.2479  0.2705 -0.1501
 2567poe    c2313521   1.844   3.530   0.676 -0.2385  0.1667 -0.4382
 2567poe    c2313522   1.895   3.532   0.822 -0.4667 -0.4089 -0.3477
 2567poe     o213523   1.813   3.619   0.895  0.1361 -0.0556 -0.0833
 2567poe    c3113524   1.850   3.618   1.031  0.7342  0.0519 -0.2429
 2568poe    c3113525   1.875   4.926   3.770 -0.3722  0.4101 -0.2888
 2568poe     o213526   2.005   4.980   3.763 -0.1970  0.0064 -0.2214
 2568poe    c2313527   2.022   5.057   3.646  0.1729 -0.4171 -0.4503
 2568poe    c2313528   2.171   5.088   3.623  0.1414  0.2367  0.2222
 2568poe     o213529   2.239   4.965   3.625 -0.0244  0.1470  0.4322
 2568poe    c2313530   2.368   4.987   3.572 -0.2018  0.1246 -0.0185
 2568poe    c2313531   2.438   4.860   3.624 -0.1820 -0.0440 -0.4566
 2568poe     o213532   2.393   4.832   3.754 -0.1021 -0.3328 -0.4900
 2568poe    c2313533   2.490   4.760   3.827 -0.1365  0.0839 -0.0322
 2568poe    c2313534   2.458   4.717   3.972  0.2996 -0.3428 -0.0621
 2568poe     o213535   2.417   4.831   4.045  0.3737 -0.0656 -0.4497
 2568poe    c3113536   2.508   4.862   4.148 -0.2566 -0.0865  0.1173
 2569poe    c3113537   3.178   4.482   0.350  0.6160 -0.3546  0.0357
 2569poe     o213538   3.189   4.537   0.221 -0.2234 -0.0239  0.0982
 2569poe    c2313539   3.249   4.665   0.228 -0.6698  0.1742  0.3751
 2569poe    c2313540   3.244   4.721   0.085 -0.4334 -0.1884  0.2221
 2569poe     o213541   3.111   4.755   0.051 -0.2055  0.2655 -0.2285
 2569poe    c2313542   3.104   4.792  -0.085  0.5633  0.7746 -0.1354
 2569poe    c2313543   2.964   4.855  -0.097  0.1611 -0.1090 -0.1205
 2569poe     o213544   2.862   4.773  -0.045 -0.1400 -0.1774 -0.7996
 2569poe    c2313545   2.744   4.849  -0.036  0.0196 -0.0582  0.4891
 2569poe    c2313546   2.661   4.856  -0.166 -0.0975 -0.4997  0.5360
 2569poe     o213547   2.585   4.753  -0.224 -0.7508  0.2711 -0.0101
 2569poe    c3113548   2.589   4.766  -0.364  0.3528 -0.0726 -0.0262
 2570poe    c3113549   1.975   4.028   5.532 -0.5183 -0.1872  0.0594
 2570poe     o213550   1.864   4.114   5.535 -0.0884  0.3625  0.2180
 2570poe    c2313551   1.831   4.130   5.399  0.2453  0.1449  0.1090
 2570poe    c2313552   1.688   4.185   5.377  0.2391 -0.0201 -0.2770
 2570poe     o213553   1.667   4.319   5.415 -0.2288 -0.0736 -0.3435
 2570poe    c2313554   1.530   4.346   5.435 -0.1730  0.4659 -0.6585
 2570poe    c2313555   1.507   4.453   5.543  0.0748 -0.0998 -0.0388
 2570poe     o213556   1.541   4.584   5.504  0.2477 -0.1704 -0.1272
 2570poe    c2313557   1.507   4.679   5.603 -0.1713  0.3981 -0.8096
 2570poe    c2313558   1.500   4.821   5.543 -0.2256  0.5412 -0.4672
 2570poe     o213559   1.415   4.848   5.434 -0.8835 -0.4131 -0.2043
 2570poe    c3113560   1.347   4.972   5.431  0.3410  0.2642 -0.2742
 2571poe    c3113561   1.070   3.556   6.093  0.2570 -0.3484 -0.3875
 2571poe     o213562   1.143   3.565   6.213  0.2300 -0.2267 -0.3805
 2571poe    c2313563   1.261   3.642   6.208 -0.0896  0.3071  0.1358
 2571poe    c2313564   1.340   3.615   6.338 -0.0942 -0.0660  0.0641
 2571poe     o213565   1.239   3.614   6.436 -0.1592  0.6714  0.0120
 2571poe    c2313566   1.306   3.569   6.552 -0.0944  0.4670 -0.1059
 2571poe    c2313567   1.233   3.542   6.685  0.3020  0.5751  0.1357
 2571poe     o213568   1.131   3.445   6.678  0.4985  0.3256  0.7284
 2571poe    c2313569   1.040   3.434   6.784 -0.2652 -0.2104  0.0313
 2571poe    c2313570   0.926   3.347   6.728 -0.2352  0.2746 -0.7988
 2571poe     o213571   0.834   3.416   6.647 -0.1376  0.7436 -0.5186
 2571poe    c3113572   0.733   3.331   6.596  0.2340 -0.2399  0.3606
 2572poe    c3113573   0.997   1.568   1.506  0.5902  0.2437 -0.2237
 2572poe     o213574   1.130   1.608   1.533  0.6094 -0.1393  0.2514
 2572poe    c2313575   1.172   1.677   1.417 -0.0099  0.2667  0.2623
 2572poe    c2313576   1.320   1.716   1.433  0.0655 -0.0259  0.2943
 2572poe     o213577   1.406   1.609   1.465  0.1371  0.0371  0.3137
 2572poe    c2313578   1.542   1.646   1.462  0.3041 -0.6316 -0.5676
 2572poe    c2313579   1.628   1.535   1.527 -0.1786 -0.5036  0.2976
 2572poe     o213580   1.597   1.416   1.459 -0.2729 -0.3319  0.0349
 2572poe    c2313581   1.663   1.309   1.525  0.3269  0.2327  0.3620
 2572poe    c2313582   1.612   1.175   1.467  0.5620  0.3997 -0.2439
 2572poe     o213583   1.474   1.189   1.490  0.4485 -0.0485 -0.6547
 2572poe    c3113584   1.412   1.062   1.485 -0.0127  0.1444 -0.0455
 2573poe    c3113585   1.465   5.884   3.232  0.0262 -0.4293  0.1977
 2573poe     o213586   1.579   5.918   3.308 -0.0047  0.2415 -0.0537
 2573poe    c2313587   1.694   5.849   3.264 -0.1917 -0.1749  0.1108
 2573poe    c2313588   1.816   5.938   3.292 -0.5825  0.4483 -0.1438
 2573poe     o213589   1.813   6.064   3.229 -0.2377  0.2981 -0.4643
 2573poe    c2313590   1.943   6.104   3.190 -0.0593  0.0261 -0.1536
 2573poe    c2313591   1.936   6.183   3.058  0.0355  0.0835 -0.1240
 2573poe     o213592   1.854   6.298   3.066  0.0890  0.1058  0.1046
 2573poe    c2313593   1.855   6.371   2.946 -0.2807 -0.4859 -0.2626
 2573poe    c2313594   1.759   6.491   2.947 -0.0703 -0.3186  0.1767
 2573poe     o213595   1.631   6.449   2.986 -0.4452  0.4913 -0.1479
 2573poe    c3113596   1.525   6.541   2.968 -0.8872 -0.0317 -0.2442
 2574poe    c3113597   0.970   6.333   0.124  0.2504  0.2065  0.0725
 2574poe     o213598   0.926   6.242   0.222 -0.0167  0.0514 -0.1921
 2574poe    c2313599   1.001   6.264   0.339 -0.1144  0.6002 -0.2307
 2574poe    c2313600   0.924   6.225   0.466  0.2986  0.1812 -0.1072
 2574poe     o213601   0.896   6.092   0.430  0.2307  0.2629 -0.3529
 2574poe    c2313602   0.811   6.035   0.527 -0.1503  0.4343 -0.5803
 2574poe    c2313603   0.794   5.892   0.474  0.0236  0.0791  0.3038
 2574poe     o213604   0.713   5.906   0.360  0.0380  0.2275  0.3119
 2574poe    c2313605   0.677   5.787   0.293 -0.3010  0.4893  0.0260
 2574poe    c2313606   0.574   5.701   0.367  0.0654  0.1017  0.0895
 2574poe     o213607   0.624   5.619   0.471  0.1124 -0.4840 -0.3880
 2574poe    c3113608   0.532   5.559   0.559  0.6899 -0.5315  0.1917
 2575poe    c3113609   0.459   2.755   3.667  0.2304  0.2881 -0.0814
 2575poe     o213610   0.377   2.641   3.675 -0.7612  0.9443 -0.6546
 2575poe    c2313611   0.293   2.643   3.789 -0.0677 -0.4566 -0.0978
 2575poe    c2313612   0.197   2.523   3.804  0.0292 -0.4993  0.1925
 2575poe     o213613   0.250   2.394   3.786  0.3843 -0.3125 -0.1261
 2575poe    c2313614   0.145   2.300   3.776 -0.0166  0.1351 -0.1618
 2575poe    c2313615   0.184   2.177   3.693  0.7592  0.0249  0.3478
 2575poe     o213616   0.237   2.215   3.568  0.2044 -0.5124 -0.0627
 2575poe    c2313617   0.324   2.111   3.531  0.4360 -0.5053  0.4541
 2575poe    c2313618   0.391   2.109   3.392  0.1105  0.5581  0.2730
 2575poe     o213619   0.293   2.061   3.303  0.0902  0.7644  0.1848
 2575poe    c3113620   0.351   2.030   3.178 -0.8730 -0.1704 -0.0436
 2576poe    c3113621   6.969   1.992   0.736  0.0338  0.0447 -0.3757
 2576poe     o213622   7.104   2.024   0.759 -0.1103  0.1996  0.2628
 2576poe    c2313623   7.114   2.164   0.747  0.0260  0.1360 -0.4112
 2576poe    c2313624   7.249   2.209   0.805  0.1735 -0.3970 -0.3309
 2576poe     o213625   7.253   2.183   0.944  0.6804  0.0903 -0.2499
 2576poe    c2313626   7.291   2.294   1.022  0.2226  0.2926 -0.3139
 2576poe    c2313627   7.239   2.267   1.165  0.3762 -0.1361 -0.3377
 2576poe     o213628   7.295   2.151   1.221 -0.0131 -0.0484  0.2375
 2576poe    c2313629   7.224   2.105   1.334  0.0752  0.5079  0.5283
 2576poe    c2313630   7.332   2.049   1.428  0.1863 -0.1762  0.0019
 2576poe     o213631   7.347   2.145   1.530  0.4715  0.1951 -0.3884
 2576poe    c3113632   7.386   2.076   1.646 -0.5132 -0.2573 -0.3215
 2577poe    c3113633   6.973   4.726   4.871  0.1064  0.0240 -0.1213
 2577poe     o213634   7.002   4.803   4.756  0.2982  0.1851  0.0348
 2577poe    c2313635   7.132   4.766   4.717  0.2341  0.1496 -0.1473
 2577poe    c2313636   7.184   4.816   4.581 -0.3338  0.3118 -0.3084
 2577poe     o213637   7.142   4.738   4.471  0.2684 -0.4512 -0.0093
 2577poe    c2313638   7.173   4.804   4.351  0.4325  0.1381  0.3513
 2577poe    c2313639   7.194   4.695   4.245 -0.5319  0.1913  0.0958
 2577poe     o213640   7.098   4.592   4.249 -0.1507 -0.1675  0.1098
 2577poe    c2313641   7.120   4.480   4.166  0.1214 -0.3660  0.4488
 2577poe    c2313642   6.996   4.391   4.190 -0.1510 -0.2124 -0.3804
 2577poe     o213643   6.979   4.375   4.329  0.1987 -0.1033 -0.3239
 2577poe    c3113644   6.886   4.270   4.344  0.0247  0.1652  0.4940
 2578poe    c3113645   5.655   4.423   5.297 -0.4447 -0.2245 -0.1038
 2578poe     o213646   5.606   4.511   5.198  0.0657  0.4568  0.2425
 2578poe    c2313647   5.498   4.462   5.122  0.0685  0.5076  0.2059
 2578poe    c2313648   5.491   4.517   4.979 -0.4054 -0.0963 -0.0111
 2578poe     o213649   5.596   4.467   4.900 -0.2567  0.0724  0.0792
 2578poe    c2313650   5.567   4.491   4.765 -0.1336  0.3582  0.1018
 2578poe    c2313651   5.685   4.542   4.680  0.1007  0.3359  0.4164
 2578poe     o213652   5.793   4.452   4.694  0.0893  0.1421 -0.6799
 2578poe    c2313653   5.915   4.503   4.645  0.4766  0.1665  0.2841
 2578poe    c2313654   6.043   4.450   4.712  0.3842  0.3357  0.5951
 2578poe     o213655   6.051   4.457   4.853  0.1542  0.0142  0.6257
 2578poe    c3113656   6.185   4.431   4.888  0.1606 -0.6886  0.1061
 2579poe    c3113657   1.514   0.755   2.620  0.1894  0.1079  0.0414
 2579poe     o213658   1.630   0.713   2.550  0.0891 -0.0401 -0.0369
 2579poe    c2313659   1.667   0.833   2.487  0.0246  0.0866  0.1618
 2579poe    c2313660   1.794   0.829   2.400  0.1619  0.0893  0.3629
 2579poe     o213661   1.919   0.796   2.456  0.3450 -0.0688 -0.1371
 2579poe    c2313662   2.004   0.711   2.382  0.5348  0.0828 -0.0965
 2579poe    c2313663   2.128   0.690   2.471 -0.0009  0.5039  0.7587
 2579poe     o213664   2.207   0.807   2.478  0.5785  0.1592  0.1330
 2579poe    c2313665   2.319   0.783   2.560  0.4095 -0.1631  0.2709
 2579poe    c2313666   2.439   0.869   2.518  0.1014 -0.1271 -0.5578
 2579poe     o213667   2.388   1.000   2.513 -0.3234 -0.2398  0.5671
 2579poe    c3113668   2.471   1.102   2.564  0.0607 -0.1651 -0.1897
 2580poe    c3113669   0.422   4.225   3.072  0.1254  0.0510 -0.2873
 2580poe     o213670   0.392   4.147   2.958  0.8117 -0.4504 -0.1302
 2580poe    c2313671   0.336   4.027   3.006  0.3983 -0.0240  0.4773
 2580poe    c2313672   0.334   3.916   2.899  0.1393  0.5777 -0.1552
 2580poe     o213673   0.246   3.950   2.795  0.4137  0.1384 -0.5347
 2580poe    c2313674   0.239   3.859   2.687  0.0355 -0.0173 -0.3802
 2580poe    c2313675   0.097   3.865   2.627 -0.1868  0.6347  0.1890
 2580poe     o213676   0.009   3.790   2.707  0.0806 -0.0943 -0.1856
 2580poe    c2313677  -0.121   3.833   2.674  0.0435 -0.1073 -0.0562
 2580poe    c2313678  -0.213   3.816   2.797  0.3661 -1.1975  0.0470
 2580poe     o213679  -0.177   3.901   2.904  0.1276 -0.4962 -0.4255
 2580poe    c3113680  -0.268   3.904   3.011  0.0922 -0.1598 -0.4631
 2581poe    c3113681   5.038   5.391   6.777 -0.1407 -0.4745 -0.4153
 2581poe     o213682   5.031   5.365   6.639  0.5120  0.5743 -0.6509
 2581poe    c2313683   4.898   5.383   6.597  0.4611  0.0142 -0.7395
 2581poe    c2313684   4.871   5.328   6.456 -0.2106 -0.0161 -0.6053
 2581poe     o213685   4.946   5.381   6.349 -0.6098  0.5960 -0.5859
 2581poe    c2313686   4.956   5.293   6.240  0.1105  0.5268 -0.4743
 2581poe    c2313687   5.014   5.353   6.111 -0.6045  0.8682 -0.6447
 2581poe     o213688   5.144   5.402   6.136 -0.3680  0.0411 -0.2172
 2581poe    c2313689   5.223   5.443   6.026 -0.1410 -0.2233 -0.1533
 2581poe    c2313690   5.363   5.478   6.078 -0.6144  0.9779  0.3495
 2581poe     o213691   5.355   5.526   6.210 -0.5724 -0.1748  0.7784
 2581poe    c3113692   5.480   5.570   6.257 -0.2602 -0.0616 -0.1404
 2582poe    c3113693   1.820   2.969   3.904 -0.1857 -0.2570 -0.4043
 2582poe     o213694   1.842   2.901   4.025  0.3566  0.3687 -0.1445
 2582poe    c2313695   1.914   2.986   4.110  0.4305 -0.3798  0.5542
 2582poe    c2313696   1.907   2.963   4.263  0.4216  0.2375  0.6478
 2582poe     o213697   1.781   3.007   4.310  0.0976 -0.1429  0.1425
 2582poe    c2313698   1.764   2.936   4.431  0.1931 -0.5238 -0.0655
 2582poe    c2313699   1.621   2.973   4.472  0.3356  0.2425 -0.2458
 2582poe     o213700   1.621   3.114   4.460 -0.1102  0.2880  0.2397
 2582poe    c2313701   1.494   3.170   4.484 -0.2959 -0.2775  0.5946
 2582poe    c2313702   1.510   3.323   4.491 -0.2017 -0.2506 -0.2051
 2582poe     o213703   1.549   3.369   4.363 -0.3995 -0.3514 -0.3033
 2582poe    c3113704   1.564   3.509   4.354 -0.9747 -0.2740 -0.0780
 2583poe    c3113705   2.196   5.786   4.821 -0.3298 -0.4978  0.1370
 2583poe     o213706   2.320   5.768   4.756 -0.3926  0.3580 -0.2219
 2583poe    c2313707   2.296   5.792   4.619 -0.3423  0.1035 -0.2758
 2583poe    c2313708   2.433   5.813   4.553 -0.2978 -0.1932 -0.2783
 2583poe     o213709   2.504   5.706   4.612  0.1298  0.5262  0.5448
 2583poe    c2313710   2.627   5.679   4.549 -0.2384 -0.4062  0.2047
 2583poe    c2313711   2.660   5.537   4.600  0.6213 -0.1930  0.2542
 2583poe     o213712   2.660   5.552   4.740 -0.0763  0.1930  0.2171
 2583poe    c2313713   2.689   5.429   4.803  0.6043  0.1289 -0.1999
 2583poe    c2313714   2.683   5.445   4.956  0.0862  0.1333 -0.2193
 2583poe     o213715   2.770   5.541   5.012 -0.2580  0.3312 -0.0188
 2583poe    c3113716   2.804   5.507   5.144 -0.0181 -0.6736 -0.3312
 2584poe    c3113717   2.973   1.788   5.469 -0.5531 -0.2782 -0.1296
 2584poe     o213718   2.849   1.810   5.406 -0.1617  0.4388 -0.6606
 2584poe    c2313719   2.838   1.722   5.297  0.2265  0.0374 -0.3729
 2584poe    c2313720   2.698   1.736   5.236  0.0917  0.1394 -0.0364
 2584poe     o213721   2.685   1.877   5.239 -0.4468  0.0916  0.0461
 2584poe    c2313722   2.575   1.925   5.165 -0.3510 -0.2095 -0.2970
 2584poe    c2313723   2.566   2.077   5.191  0.0495 -0.2650  0.1832
 2584poe     o213724   2.591   2.096   5.328 -0.6625 -0.1135  0.2941
 2584poe    c2313725   2.521   2.210   5.372 -0.3114  0.0157  0.5216
 2584poe    c2313726   2.544   2.258   5.517  0.3696  0.1184  0.3830
 2584poe     o213727   2.500   2.163   5.611 -0.5761  0.2358  0.0715
 2584poe    c3113728   2.482   2.210   5.743 -0.5197 -0.2355  0.2487
 2585poe    c3113729   1.995   5.696   0.820  0.4460 -0.7717  0.1906
 2585poe     o213730   1.973   5.742   0.689  0.0272 -0.4618  0.3691
 2585poe    c2313731   1.881   5.648   0.639 -0.1129 -0.0779 -0.1057
 2585poe    c2313732   1.867   5.649   0.486  0.2174  0.1328 -0.1360
 2585poe     o213733   1.985   5.600   0.428  0.4582  0.5737 -0.0241
 2585poe    c2313734   2.015   5.651   0.299 -0.0204  0.2007 -0.2864
 2585poe    c2313735   2.163   5.620   0.274 -0.1064 -0.1330 -0.3876
 2585poe     o213736   2.183   5.480   0.284 -0.5438 -0.1648  0.0728
 2585poe    c2313737   2.320   5.457   0.305 -0.4011 -0.2565 -0.9102
 2585poe    c2313738   2.329   5.309   0.350  0.2956  0.0400 -0.0233
 2585poe     o213739   2.226   5.290   0.445  0.5684 -0.2280  0.2168
 2585poe    c3113740   2.241   5.155   0.484  0.5674 -0.4976 -0.7013
 2586poe    c3113741   5.263   2.869   0.025  0.2228 -0.4072 -0.0472
 2586poe     o213742   5.330   2.921  -0.087  0.1226  0.0396  0.0982
 2586poe    c2313743   5.353   2.811  -0.172  0.0612  0.0718  0.0391
 2586poe    c2313744   5.446   2.848  -0.289 -0.4871  0.4645 -0.2756
 2586poe     o213745   5.554   2.928  -0.246 -0.5641  0.3553  0.1279
 2586poe    c2313746   5.655   2.957  -0.340 -0.0230  0.1879  0.6586
 2586poe    c2313747   5.636   3.083  -0.426 -0.0114 -0.1170  0.2075
 2586poe     o213748   5.644   3.200  -0.348  0.0257  0.3204 -0.4501
 2586poe    c2313749   5.634   3.316  -0.428 -0.3100  0.5297 -0.1076
 2586poe    c2313750   5.620   3.439  -0.335  0.2967  0.3261  0.2618
 2586poe     o213751   5.498   3.437  -0.264 -0.1305 -0.1940 -0.4704
 2586poe    c3113752   5.474   3.569  -0.220  0.2882 -0.3353  0.1875
 2587poe    c3113753   4.175   6.682   2.042  0.6087 -0.0246 -0.3094
 2587poe     o213754   4.314   6.661   2.032  0.6092 -0.4666  0.5363
 2587poe    c2313755   4.349   6.692   1.899  0.3365 -0.1211  0.5423
 2587poe    c2313756   4.492   6.743   1.873  0.2460 -0.0731  0.1277
 2587poe     o213757   4.591   6.645   1.893 -0.2810 -0.6318  0.0278
 2587poe    c2313758   4.686   6.629   1.789 -0.0843 -0.0755  0.1180
 2587poe    c2313759   4.733   6.482   1.782 -0.0540 -0.0762  0.3237
 2587poe     o213760   4.818   6.415   1.871  0.1877 -0.2105 -0.0046
 2587poe    c2313761   4.818   6.276   1.845  0.2986 -0.2140  0.0152
 2587poe    c2313762   4.902   6.236   1.968  0.1285  0.2757  0.2952
 2587poe     o213763   5.005   6.322   2.009 -0.0176  0.5415  0.1062
 2587poe    c3113764   5.073   6.271   2.122 -0.0339  0.5356  0.1135
 2588poe    c3113765   4.424   3.738   3.120  0.4456  0.1428  0.5788
 2588poe     o213766   4.458   3.611   3.069  0.2793  0.1464  0.4592
 2588poe    c2313767   4.455   3.509   3.166  0.1281 -0.1262  0.1711
 2588poe    c2313768   4.429   3.381   3.085 -0.7917  0.0027  0.2512
 2588poe     o213769   4.531   3.370   2.988 -0.4709 -0.5767  0.6520
 2588poe    c2313770   4.561   3.244   2.932 -0.4223 -0.1168 -0.3818
 2588poe    c2313771   4.710   3.248   2.891 -0.1889  0.1929  0.4773
 2588poe     o213772   4.734   3.346   2.793  0.3988  0.1670  0.5904
 2588poe    c2313773   4.869   3.375   2.766  0.3639  0.1898  0.4390
 2588poe    c2313774   4.897   3.484   2.661 -0.0522  0.0137  0.1402
 2588poe     o213775   4.847   3.605   2.712 -0.3437  0.1188 -0.3917
 2588poe    c3113776   4.858   3.713   2.622 -0.4485  0.4541 -0.0074
 2589poe    c3113777   3.157   3.697   5.318  0.6806  0.0498 -0.3173
 2589poe     o213778   3.153   3.599   5.420 -0.5782  0.4983  0.0792
 2589poe    c2313779   3.207   3.644   5.542  0.0349 -0.1899  0.0673
 2589poe    c2313780   3.227   3.522   5.635  0.1712  0.1452  0.4821
 2589poe     o213781   3.108   3.484   5.700 -0.1489  0.3842  0.0431
 2589poe    c2313782   3.128   3.427   5.827 -0.6487  0.3919  0.1276
 2589poe    c2313783   3.021   3.319   5.853 -0.5358  0.1010 -0.6145
 2589poe     o213784   3.015   3.204   5.772  0.2677  0.0987 -0.6758
 2589poe    c2313785   2.913   3.120   5.821  0.3760  0.3624  0.0140
 2589poe    c2313786   2.909   2.990   5.738 -0.1175  0.0477  0.5199
 2589poe     o213787   3.025   2.911   5.751  0.0565  0.1836 -0.1894
 2589poe    c3113788   3.007   2.787   5.686  0.7437  0.2310 -0.4795
 2590poe    c3113789   6.364   4.488   4.490  0.4276  0.0013  0.1415
 2590poe     o213790   6.413   4.544   4.610 -0.3514 -0.1718  0.5472
 2590poe    c2313791   6.548   4.514   4.631 -0.2765  0.0545  0.3949
 2590poe    c2313792   6.604   4.583   4.756  0.2779  0.3506 -0.0089
 2590poe     o213793   6.533   4.697   4.802  0.3154  0.1802  0.4830
 2590poe    c2313794   6.582   4.725   4.931  0.0732 -0.4368  0.7106
 2590poe    c2313795   6.504   4.844   4.990 -0.3911 -0.4572  0.1448
 2590poe     o213796   6.469   4.931   4.885 -0.0459 -0.0253  0.3859
 2590poe    c2313797   6.407   5.050   4.929  0.0026  0.1453  0.0023
 2590poe    c2313798   6.420   5.144   4.808  0.6016 -0.0104 -0.0567
 2590poe     o213799   6.400   5.071   4.688  0.7386 -0.2541  0.0678
 2590poe    c3113800   6.387   5.162   4.581 -0.0243 -0.0492  0.3261
 2591poe    c3113801   0.698   5.809   4.388  0.0546 -0.0269 -0.2814
 2591poe     o213802   0.752   5.683   4.419  0.5441  0.2227 -0.0994
 2591poe    c2313803   0.655   5.583   4.396  0.0958  0.5193  0.4780
 2591poe    c2313804   0.733   5.456   4.357 -0.0201  0.6694 -0.2383
 2591poe     o213805   0.818   5.407   4.458 -0.4527  0.1670 -0.1147
 2591poe    c2313806   0.926   5.358   4.382  0.0198  0.7308  0.1901
 2591poe    c2313807   1.043   5.304   4.466 -0.2054 -0.0577  0.0061
 2591poe     o213808   1.130   5.409   4.504  0.5038 -0.3395 -0.8218
 2591poe    c2313809   1.148   5.394   4.643 -0.2448  0.4599 -0.6299
 2591poe    c2313810   1.208   5.519   4.711  0.1770 -0.0293 -0.0893
 2591poe     o213811   1.113   5.616   4.747 -0.1713 -0.3953 -0.0108
 2591poe    c3113812   1.182   5.725   4.804 -0.1230 -0.2566 -0.3316
 2592poe    c3113813   1.268   1.341   5.280  0.0524 -0.1162 -0.0661
 2592poe     o213814   1.301   1.378   5.148  0.5729 -0.3242  0.0040
 2592poe    c2313815   1.292   1.276   5.051 -0.4815 -0.0226 -0.2258
 2592poe    c2313816   1.146   1.258   5.008 -0.2714 -0.2738 -0.8583
 2592poe     o213817   1.077   1.372   4.961 -0.2051  0.3423  0.4755
 2592poe    c2313818   0.942   1.339   4.939 -0.0537 -0.0532  0.1297
 2592poe    c2313819   0.848   1.445   4.880  0.2613  0.1935  0.0717
 2592poe     o213820   0.832   1.563   4.957 -0.3891  0.0880  0.1028
 2592poe    c2313821   0.738   1.642   4.888 -0.3651  0.0838  0.0644
 2592poe    c2313822   0.695   1.762   4.976  0.4144  0.4469 -0.0454
 2592poe     o213823   0.799   1.854   4.998  0.3675  0.5522 -0.2566
 2592poe    c3113824   0.797   1.966   4.912  0.1484  0.6103 -0.1775
 2593poe    c3113825   0.654   6.917   5.517 -0.1384  0.3514 -0.0211
 2593poe     o213826   0.596   6.904   5.645  0.2008 -0.2194  0.0798
 2593poe    c2313827   0.678   6.835   5.736 -0.4000 -0.5983  0.3323
 2593poe    c2313828   0.593   6.826   5.865 -0.2383 -0.1675  0.4692
 2593poe     o213829   0.538   6.954   5.882  0.3065  0.1264  0.0726
 2593poe    c2313830   0.490   6.965   6.014  0.5981 -0.1559  0.2035
 2593poe    c2313831   0.426   7.105   6.025 -0.0484 -0.4769  0.5966
 2593poe     o213832   0.364   7.152   5.908  0.0235 -0.6439  0.4912
 2593poe    c2313833   0.290   7.270   5.935  0.0436 -0.5203  0.0166
 2593poe    c2313834   0.188   7.311   5.827 -0.0810 -0.2834  0.2262
 2593poe     o213835   0.256   7.315   5.704 -0.4346 -0.9168  0.0091
 2593poe    c3113836   0.173   7.374   5.606  0.1042  0.6551  0.4775
 2594poe    c3113837   1.161   6.121   3.040  0.1132 -0.4041 -0.0093
 2594poe     o213838   1.173   6.179   2.912 -0.3502 -0.0158  0.1221
 2594poe    c2313839   1.308   6.212   2.887 -0.4280 -0.1796 -0.5212
 2594poe    c2313840   1.326   6.303   2.765  0.0937  0.0660 -0.2627
 2594poe     o213841   1.270   6.258   2.644 -0.0157 -0.0214 -0.1797
 2594poe    c2313842   1.301   6.347   2.539 -0.6100  0.3781 -0.0192
 2594poe    c2313843   1.231   6.295   2.411 -0.1396 -0.4015  0.0311
 2594poe     o213844   1.094   6.283   2.443 -0.2363 -0.1226 -0.2678
 2594poe    c2313845   1.016   6.250   2.330 -0.3295  0.3532 -0.3424
 2594poe    c2313846   0.881   6.206   2.390  0.1615 -0.0844  0.4620
 2594poe     o213847   0.897   6.105   2.487  0.1809 -0.3291  0.2060
 2594poe    c3113848   0.770   6.049   2.508 -0.0580  0.0302 -0.2556
 2595poe    c3113849   0.751   5.329   0.871  0.5469  0.1173 -0.3989
 2595poe     o213850   0.641   5.257   0.921  0.5111  0.3788 -0.0940
 2595poe    c2313851   0.696   5.143   0.982 -0.0433  0.1426 -0.0283
 2595poe    c2313852   0.577   5.077   1.053 -0.0038  0.4489  0.3217
 2595poe     o213853   0.486   5.002   0.976  0.0873  0.3603  0.3001
 2595poe    c2313854   0.375   4.968   1.057  0.1410 -0.5197  0.0185
 2595poe    c2313855   0.278   4.868   0.992 -0.2973 -0.0279 -0.0863
 2595poe     o213856   0.236   4.922   0.868  0.5287 -0.0302 -0.3741
 2595poe    c2313857   0.146   4.839   0.797 -0.0027  0.1211  0.1101
 2595poe    c2313858   0.002   4.848   0.850 -0.1252 -0.5569 -0.0964
 2595poe     o213859  -0.054   4.976   0.828 -0.1698 -0.5600  0.0010
 2595poe    c3113860  -0.177   4.994   0.896 -0.4919 -1.1121 -0.4234
 2596poe    c3113861   5.303   3.297   6.417  0.3606 -0.0691  0.0921
 2596poe     o213862   5.210   3.326   6.519 -0.1974 -0.2911 -0.3491
 2596poe    c2313863   5.196   3.224   6.615 -0.0657  0.4140  0.4250
 2596poe    c2313864   5.084   3.231   6.720 -0.5445  0.3077 -0.0808
 2596poe     o213865   5.110   3.305   6.837  0.5639  0.0687 -0.1686
 2596poe    c2313866   5.099   3.212   6.943 -0.4363  0.3586 -0.0128
 2596poe    c2313867   5.135   3.277   7.078  0.3340  0.2039 -0.1422
 2596poe     o213868   5.276   3.284   7.086  0.3597 -0.4626  0.0099
 2596poe    c2313869   5.316   3.342   7.208  0.1973 -0.1059 -0.1044
 2596poe    c2313870   5.458   3.401   7.196  0.1852 -0.0278  0.1304
 2596poe     o213871   5.566   3.316   7.164  0.0737 -0.3009  0.4789
 2596poe    c3113872   5.681   3.397   7.160 -0.1734  0.0330  0.0069
 2597poe    c3113873   6.789   5.451   1.204  0.1898 -0.0979 -0.3526
 2597poe     o213874   6.695   5.362   1.259 -0.0824  0.0764 -0.5278
 2597poe    c2313875   6.722   5.321   1.391 -0.4291  0.8664 -0.2043
 2597poe    c2313876   6.624   5.204   1.416 -0.0422  0.6496  0.3347
 2597poe     o213877   6.497   5.222   1.359  0.0426 -0.0912 -0.0971
 2597poe    c2313878   6.413   5.120   1.410 -0.1341  0.1144  0.0240
 2597poe    c2313879   6.272   5.124   1.348  0.0164  0.1182 -0.3200
 2597poe     o213880   6.273   5.106   1.208 -0.3642 -0.2997 -0.2689
 2597poe    c2313881   6.147   5.143   1.156 -0.2609 -0.0850 -0.3641
 2597poe    c2313882   6.154   5.144   1.002  0.0145  0.0590 -0.3525
 2597poe     o213883   6.257   5.230   0.960 -0.0423  0.2431 -0.1198
 2597poe    c3113884   6.252   5.267   0.824  0.2874 -0.0643 -0.2184
 2598poe    c3113885   6.152   6.371   0.180 -0.4417  0.0227  0.3980
 2598poe     o213886   6.213   6.492   0.221  0.2113 -0.2272  0.1720
 2598poe    c2313887   6.348   6.488   0.178  0.2592 -0.7380  0.3580
 2598poe    c2313888   6.412   6.628   0.169  0.5296 -0.8596  0.3863
 2598poe     o213889   6.427   6.687   0.296 -0.4736  0.1716  0.0459
 2598poe    c2313890   6.504   6.804   0.281  0.3329 -0.3279  0.2174
 2598poe    c2313891   6.505   6.870   0.420 -0.1835 -0.3804  0.2481
 2598poe     o213892   6.377   6.924   0.441  0.0534  0.2860  0.0288
 2598poe    c2313893   6.381   7.044   0.515 -0.0680  0.0560  0.4104
 2598poe    c2313894   6.233   7.086   0.523 -0.1228 -0.0897  0.1644
 2598poe     o213895   6.167   6.996   0.608  0.2689 -0.0459  0.5202
 2598poe    c3113896   6.029   7.018   0.628  0.1598  0.0914 -0.3632
 2599poe    c3113897   4.918   0.770   2.329 -0.0511  0.1792  0.0689
 2599poe     o213898   4.793   0.708   2.317 -0.1267  0.2806  0.3184
 2599poe    c2313899   4.774   0.662   2.185  0.1181 -0.1045  0.4152
 2599poe    c2313900   4.724   0.517   2.171  0.1295 -0.0333 -0.4129
 2599poe     o213901   4.815   0.422   2.221 -0.1095  0.0467  0.1807
 2599poe    c2313902   4.752   0.296   2.204  0.0206  0.0339 -0.2176
 2599poe    c2313903   4.851   0.179   2.217  0.2576  0.2397 -0.1425
 2599poe     o213904   4.916   0.182   2.342 -0.0438 -0.0918  0.0239
 2599poe    c2313905   5.008   0.080   2.375  0.4660  0.2157 -0.4497
 2599poe    c2313906   5.071   0.077   2.515 -0.4062 -0.0707 -0.0627
 2599poe     o213907   5.136   0.200   2.535  0.4117 -0.5262  0.1483
 2599poe    c3113908   5.259   0.189   2.602  0.5058 -0.0229  0.0600
 2600poe    c3113909   5.145   5.961   4.442 -0.2630  0.1357  0.6264
 2600poe     o213910   5.142   6.081   4.516 -0.0054  0.5952 -0.1046
 2600poe    c2313911   5.272   6.130   4.540  0.1209  0.3001 -0.1861
 2600poe    c2313912   5.271   6.247   4.640 -0.2050 -0.1988  0.3969
 2600poe     o213913   5.210   6.364   4.592  0.1250 -0.2866 -0.2402
 2600poe    c2313914   5.188   6.472   4.680  0.2790 -0.3588 -0.1136
 2600poe    c2313915   5.103   6.573   4.600  0.1640 -0.2935  0.0925
 2600poe     o213916   4.974   6.522   4.579  0.0753 -0.0635  0.0664
 2600poe    c2313917   4.885   6.628   4.551  0.3175  0.1468  0.0906
 2600poe    c2313918   4.771   6.561   4.473  0.4112  0.0001  0.0785
 2600poe     o213919   4.720   6.453   4.549  0.2643  0.0873  0.1056
 2600poe    c3113920   4.586   6.427   4.517  0.2813 -0.3223  0.3594
 2601poe    c3113921   2.466   3.577   2.422  0.0403 -0.5076  0.3959
 2601poe     o213922   2.326   3.587   2.408  0.0786 -0.3570  0.1099
 2601poe    c2313923   2.276   3.480   2.331  0.0919 -0.2874  0.0039
 2601poe    c2313924   2.124   3.462   2.319  0.0164  0.3472  0.0008
 2601poe     o213925   2.061   3.559   2.239 -0.4070  0.2748  0.2403
 2601poe    c2313926   2.087   3.525   2.104 -0.1651  0.0775  0.3369
 2601poe    c2313927   1.988   3.598   2.012 -0.5222  0.2522  0.8563
 2601poe     o213928   1.976   3.738   2.016  0.2110  0.3500 -0.0549
 2601poe    c2313929   1.876   3.781   1.926 -0.0347 -0.3092 -0.1037
 2601poe    c2313930   1.874   3.935   1.910  0.2693 -0.3191 -0.2473
 2601poe     o213931   2.005   3.985   1.896  0.0249  0.4407  0.1469
 2601poe    c3113932   2.034   4.012   1.761  0.2007 -0.4578 -0.0038
 2602poe    c3113933   1.784   6.048   5.834  0.0380 -0.4853 -0.1794
 2602poe     o213934   1.868   6.132   5.758 -0.0985 -0.1336  0.0523
 2602poe    c2313935   1.887   6.075   5.630 -0.1413  0.1951 -0.1015
 2602poe    c2313936   1.990   6.145   5.540  0.2437 -0.2087  0.0200
 2602poe     o213937   2.125   6.114   5.566  0.3632 -0.1026 -0.4634
 2602poe    c2313938   2.202   6.215   5.504 -0.1539  0.2963 -0.4659
 2602poe    c2313939   2.348   6.166   5.499 -0.1827  0.2056 -0.4303
 2602poe     o213940   2.404   6.159   5.628 -0.3679 -0.4911 -0.3804
 2602poe    c2313941   2.536   6.111   5.627 -0.1844 -0.0174  0.1356
 2602poe    c2313942   2.623   6.117   5.754  0.0572  0.6854 -0.0600
 2602poe     o213943   2.571   6.041   5.861  0.1177  0.3829 -0.2453
 2602poe    c3113944   2.642   6.077   5.977  0.7090 -0.1846 -0.4235
 2603poe    c3113945   0.266   1.581   3.833  0.1355  0.2734  0.4186
 2603poe     o213946   0.350   1.501   3.914  0.3675  1.0731  0.9732
 2603poe    c2313947   0.487   1.515   3.886  0.3290 -0.3354 -0.0232
 2603poe    c2313948   0.564   1.496   4.018  0.0625 -0.7642  0.0710
 2603poe     o213949   0.487   1.407   4.096 -0.2716 -0.0102  0.6076
 2603poe    c2313950   0.547   1.365   4.216  0.5421  0.1515  0.2593
 2603poe    c2313951   0.507   1.462   4.329 -0.2628 -0.1022  0.1938
 2603poe     o213952   0.372   1.438   4.362 -0.3175  0.4944  0.4075
 2603poe    c2313953   0.329   1.480   4.490 -0.7424  0.2193  0.3568
 2603poe    c2313954   0.393   1.402   4.607 -0.1070 -0.0111 -0.1315
 2603poe     o213955   0.341   1.271   4.617 -0.6122  0.2395  0.6225
 2603poe    c3113956   0.388   1.202   4.731 -0.1087 -0.5837 -0.0713
 2604poe    c3113957   2.448   6.008   1.644 -0.0640 -0.2334 -0.4062
 2604poe     o213958   2.479   5.897   1.564  0.2398 -0.0207 -0.5875
 2604poe    c2313959   2.427   5.779   1.621  0.1907  0.2186 -0.1370
 2604poe    c2313960   2.400   5.676   1.509 -0.0175  0.4799 -0.3284
 2604poe     o213961   2.519   5.629   1.451 -0.1083  0.1786 -0.2693
 2604poe    c2313962   2.486   5.528   1.357 -0.1364  0.2014 -0.2837
 2604poe    c2313963   2.604   5.463   1.284 -0.5322 -0.2256 -0.5412
 2604poe     o213964   2.686   5.565   1.233 -0.2065 -0.1698  0.0848
 2604poe    c2313965   2.809   5.518   1.181 -0.1442 -0.1078  0.1763
 2604poe    c2313966   2.910   5.634   1.169 -0.4625  0.1639  0.0945
 2604poe     o213967   2.867   5.745   1.244  0.3094  0.4380  0.1408
 2604poe    c3113968   2.926   5.861   1.190  0.0797  0.3795 -0.2423
 2605poe    c3113969   6.601   5.531   4.420 -0.4814 -0.3505  1.0730
 2605poe     o213970   6.584   5.663   4.466  0.4808  0.1535  0.0645
 2605poe    c2313971   6.628   5.756   4.370  0.0912  0.0439 -0.2245
 2605poe    c2313972   6.626   5.904   4.413  0.3082  0.1689 -0.6413
 2605poe     o213973   6.732   5.935   4.500 -0.1544 -0.0643  0.0142
 2605poe    c2313974   6.747   6.071   4.531  0.3255 -0.1130  0.0009
 2605poe    c2313975   6.897   6.107   4.537  0.3414 -0.1405 -0.2385
 2605poe     o213976   6.964   6.093   4.413  0.2561 -0.4677 -0.2482
 2605poe    c2313977   6.951   6.206   4.329  0.1061 -0.5518 -0.3380
 2605poe    c2313978   7.017   6.175   4.193  0.2593  0.0511 -0.4036
 2605poe     o213979   7.157   6.167   4.206  0.2076 -0.2381 -0.0391
 2605poe    c3113980   7.228   6.190   4.087 -0.3712 -0.1850 -0.3783
 2606poe    c3113981   1.405   2.690   7.039  0.0433  0.3275  0.6732
 2606poe     o213982   1.348   2.794   6.964  0.2022 -0.2110 -0.2126
 2606poe    c2313983   1.207   2.785   6.963  0.1495  0.4978  0.1265
 2606poe    c2313984   1.155   2.874   6.849 -0.3435 -0.2028 -0.2034
 2606poe     o213985   1.231   2.993   6.856 -0.4611 -0.1270 -0.2095
 2606poe    c2313986   1.206   3.090   6.756 -0.1654 -0.1795 -0.3347
 2606poe    c2313987   1.316   3.197   6.749  0.0241 -0.3612 -0.1665
 2606poe     o213988   1.442   3.139   6.723  0.1536 -0.1240 -0.0793
 2606poe    c2313989   1.537   3.243   6.733  0.0173 -0.0157  0.0869
 2606poe    c2313990   1.681   3.205   6.769  0.0083 -0.6803 -0.5532
 2606poe     o213991   1.674   3.174   6.906 -0.2539  0.2099 -0.3558
 2606poe    c3113992   1.801   3.180   6.967 -0.2181 -0.0647 -0.3982
 2607poe    c3113993   3.105   3.420   3.075 -0.1220 -0.2985  0.2844
 2607poe     o213994   3.143   3.309   2.997 -0.0046  0.2747 -0.4901
 2607poe    c2313995   3.284   3.319   2.996  0.0104  0.6397  1.3111
 2607poe    c2313996   3.349   3.184   2.959 -0.6960  0.5771  0.2449
 2607poe     o213997   3.264   3.137   2.857 -0.2553 -0.3728  0.3125
 2607poe    c2313998   3.319   3.023   2.796 -0.4034 -0.3581  0.1503
 2607poe    c2313999   3.272   3.023   2.649  0.2387 -0.1640 -0.0575
 2607poe     o214000   3.134   2.998   2.651  0.2425 -0.1747  0.0714
 2607poe    c2314001   3.092   3.013   2.517  0.3727  0.7550  0.1249
 2607poe    c2314002   2.939   3.035   2.514  0.1612 -0.5807  0.4787
 2607poe     o214003   2.884   3.158   2.556 -0.0826 -0.6600  0.3885
 2607poe    c3114004   2.743   3.161   2.563 -0.0663  0.7208  0.2929
 2608poe    c3114005   0.436   0.393   0.909 -0.3706 -0.1181  0.1085
 2608poe     o214006   0.314   0.334   0.870 -0.3847 -0.2269  0.3120
 2608poe    c2314007   0.292   0.216   0.942 -0.8834 -0.1598  0.2745
 2608poe    c2314008   0.199   0.131   0.854 -0.5348 -0.3537  0.0930
 2608poe     o214009   0.265   0.090   0.736  0.2014 -0.0565  0.3996
 2608poe    c2314010   0.217  -0.032   0.684 -0.2280  0.5544 -0.6614
 2608poe    c2314011   0.324  -0.129   0.631 -0.4239  0.1684 -0.3574
 2608poe     o214012   0.381  -0.076   0.513  0.5767  0.4365  0.2344
 2608poe    c2314013   0.491  -0.154   0.471  0.2913  0.5128 -0.6789
 2608poe    c2314014   0.624  -0.153   0.550  0.0752  0.6755 -0.3150
 2608poe     o214015   0.674  -0.021   0.542 -0.0500  0.7270 -0.2582
 2608poe    c3114016   0.780   0.009   0.630  0.0943  0.2756 -0.2750
 2609poe    c3114017   5.599   3.243   4.152  0.3389  0.5513  0.2204
 2609poe     o214018   5.575   3.209   4.287  0.4812  0.1359  0.1416
 2609poe    c2314019   5.564   3.069   4.306  0.4841  0.1261  0.0737
 2609poe    c2314020   5.569   3.028   4.455  0.2837  0.6359  0.2248
 2609poe     o214021   5.450   3.030   4.529  0.3285 -0.1179  0.3212
 2609poe    c2314022   5.496   3.020   4.662  0.0176  0.3583  0.4661
 2609poe    c2314023   5.379   3.041   4.760 -0.1797  0.3040  0.2421
 2609poe     o214024   5.293   3.143   4.713 -0.1440  0.2473  0.0512
 2609poe    c2314025   5.183   3.165   4.799 -0.0080  0.7456  0.1072
 2609poe    c2314026   5.079   3.256   4.730 -0.7102 -0.0940  0.0314
 2609poe     o214027   5.062   3.184   4.610  0.6261 -0.1987 -0.1139
 2609poe    c3114028   4.966   3.258   4.538  0.6867 -0.0287 -0.0208
 2610poe    c3114029   5.955   6.566   1.289 -0.7041  0.0544 -0.0690
 2610poe     o214030   5.893   6.632   1.397 -0.1058 -0.1524  0.4031
 2610poe    c2314031   5.871   6.536   1.498 -0.5326 -0.6486 -0.1584
 2610poe    c2314032   5.781   6.608   1.601  0.0833  0.0203 -0.0807
 2610poe     o214033   5.657   6.646   1.546  0.0705  0.2174  0.0838
 2610poe    c2314034   5.588   6.716   1.647  0.1967  0.3457  0.0811
 2610poe    c2314035   5.450   6.775   1.609  0.1005 -0.3290 -0.6440
 2610poe     o214036   5.360   6.674   1.569 -0.2073 -0.1846 -0.3245
 2610poe    c2314037   5.252   6.721   1.493 -0.0561  0.3741 -0.1981
 2610poe    c2314038   5.156   6.819   1.563 -0.2673 -0.0800  0.1456
 2610poe     o214039   5.066   6.757   1.653 -0.2297 -0.5444 -0.1306
 2610poe    c3114040   4.997   6.863   1.716  1.0163 -0.0640  0.4630
 2611poe    c3114041   6.481   6.634   0.735  0.3264 -0.0473  0.2744
 2611poe     o214042   6.563   6.621   0.848  0.3428 -0.2654  0.2376
 2611poe    c2314043   6.698   6.596   0.818  0.3310  0.1411 -0.1671
 2611poe    c2314044   6.755   6.537   0.948  0.1002 -0.2572 -0.2426
 2611poe     o214045   6.726   6.401   0.968  0.4203 -0.2118  0.5756
 2611poe    c2314046   6.836   6.335   1.028  0.6124 -0.4316 -0.0141
 2611poe    c2314047   6.809   6.229   1.136  0.0378 -0.2350  0.0414
 2611poe     o214048   6.753   6.284   1.253  0.5169 -0.2871  0.3006
 2611poe    c2314049   6.718   6.187   1.349 -0.4223 -0.5897 -0.3263
 2611poe    c2314050   6.822   6.188   1.463 -0.4297  0.1897 -0.3227
 2611poe     o214051   6.848   6.323   1.495 -0.1562  0.0647 -0.0063
 2611poe    c3114052   6.981   6.338   1.539 -0.2641  0.4060  0.2131
 2612poe    c3114053   5.319   4.633   3.097  0.2214 -0.4551  0.7047
 2612poe     o214054   5.373   4.760   3.069 -0.0817 -0.5563 -0.4185
 2612poe    c2314055   5.292   4.829   2.976  0.0584 -0.2208 -0.2946
 2612poe    c2314056   5.343   4.953   2.901  0.0161 -0.0274 -0.0049
 2612poe     o214057   5.408   5.043   2.989 -0.2123  0.1180  0.0149
 2612poe    c2314058   5.458   5.142   2.903  0.2034 -0.3471 -0.2787
 2612poe    c2314059   5.499   5.269   2.978 -1.2843 -0.0368  0.0390
 2612poe     o214060   5.567   5.254   3.101 -0.3101  0.9476 -0.3577
 2612poe    c2314061   5.617   5.372   3.160  0.5847  0.4225 -0.0430
 2612poe    c2314062   5.606   5.377   3.314  0.2408 -0.1332 -0.0476
 2612poe     o214063   5.474   5.360   3.360  0.1428  0.0355 -0.2672
 2612poe    c3114064   5.486   5.345   3.499 -0.1874 -0.0198 -0.2439
 2613poe    c3114065   0.898   5.901   4.728 -0.3563  0.2139  1.4472
 2613poe     o214066   0.929   6.035   4.695  0.0204 -0.1962  0.0940
 2613poe    c2314067   1.042   6.077   4.767  0.3107 -0.2439 -0.3290
 2613poe    c2314068   1.005   6.182   4.873  0.9309 -0.3136 -0.0406
 2613poe     o214069   0.972   6.310   4.823 -0.1379 -0.7296 -0.4286
 2613poe    c2314070   0.881   6.389   4.897 -0.4212 -0.4224 -1.1002
 2613poe    c2314071   0.731   6.384   4.862 -0.6979  0.6468 -0.1145
 2613poe     o214072   0.711   6.411   4.725 -0.3960  0.1734 -0.2564
 2613poe    c2314073   0.622   6.520   4.709  0.1832  0.6535 -0.2378
 2613poe    c2314074   0.575   6.530   4.563  0.0885 -0.8148 -0.3257
 2613poe     o214075   0.686   6.573   4.487  0.1709  0.3595  0.4360
 2613poe    c3114076   0.663   6.552   4.349  0.1540 -0.3858  0.5480
 2614poe    c3114077   0.750   4.100   3.859 -0.6316  0.0790  0.3730
 2614poe     o214078   0.809   4.214   3.802  0.0299 -0.3932  0.1019
 2614poe    c2314079   0.798   4.321   3.892  0.4725  0.1302 -0.4554
 2614poe    c2314080   0.852   4.458   3.845  0.0027  0.6396  0.4394
 2614poe     o214081   0.786   4.490   3.725  0.2710 -0.0542  0.0977
 2614poe    c2314082   0.846   4.594   3.650  0.4628 -0.3121 -0.1088
 2614poe    c2314083   0.798   4.623   3.506  0.1172 -0.9983 -0.1404
 2614poe     o214084   0.660   4.650   3.501  0.3056  0.0895  0.2295
 2614poe    c2314085   0.630   4.681   3.367 -0.0147 -0.2516  0.2214
 2614poe    c2314086   0.477   4.697   3.354 -0.0483 -0.6273  0.1436
 2614poe     o214087   0.417   4.571   3.333 -0.0037 -0.6187 -0.0306
 2614poe    c3114088   0.276   4.582   3.336  0.0151  0.0212 -0.9280
 2615poe    c3114089   2.781   6.684   2.030 -0.1102 -0.1898 -0.9421
 2615poe     o214090   2.713   6.802   2.063  0.8020  0.0913  0.0015
 2615poe    c2314091   2.796   6.888   2.137  0.5380  0.1583  0.2247
 2615poe    c2314092   2.719   7.016   2.175 -0.5064 -0.2768 -0.3772
 2615poe     o214093   2.636   6.991   2.287  0.4851 -0.5565  0.3159
 2615poe    c2314094   2.715   7.023   2.399  0.2446 -0.2983  0.4135
 2615poe    c2314095   2.637   7.010   2.531 -0.6579  0.3306 -0.0524
 2615poe     o214096   2.584   6.880   2.536 -0.5280  0.2483 -0.8074
 2615poe    c2314097   2.508   6.846   2.650  0.0451 -0.4129 -0.6155
 2615poe    c2314098   2.414   6.727   2.624 -0.1903 -0.3293 -0.1457
 2615poe     o214099   2.305   6.755   2.538 -0.4851  0.2631  0.4132
 2615poe    c3114100   2.226   6.640   2.518  0.1954 -0.1124 -0.1664
 2616poe    c3114101   0.853   0.468   1.840 -0.0506 -0.0722 -0.1819
 2616poe     o214102   0.844   0.349   1.914  0.0879  0.0876  0.0953
 2616poe    c2314103   0.767   0.250   1.849  0.1559  0.2135 -0.1767
 2616poe    c2314104   0.748   0.134   1.948  0.5249  0.2348 -0.0788
 2616poe     o214105   0.862   0.051   1.963  0.1462 -0.3062 -0.1546
 2616poe    c2314106   0.863  -0.045   2.065 -0.1167 -0.2613 -0.1076
 2616poe    c2314107   1.005  -0.101   2.084 -0.0856 -0.0961  0.1568
 2616poe     o214108   1.033  -0.190   1.978 -0.0958  0.4741 -0.3244
 2616poe    c2314109   1.161  -0.246   1.993 -0.3830 -0.1475 -0.1882
 2616poe    c2314110   1.199  -0.312   1.859  0.2727  0.1255 -0.1399
 2616poe     o214111   1.172  -0.221   1.755 -0.5775 -0.0033 -0.0374
 2616poe    c3114112   1.257  -0.250   1.647 -0.4867 -0.4465  0.1516
 2617poe    c3114113   1.162   4.448   5.383 -1.0927  0.2388  0.7036
 2617poe     o214114   1.158   4.566   5.307 -0.0307  0.1123  0.4445
 2617poe    c2314115   1.042   4.639   5.338 -0.2069 -0.1571  0.4222
 2617poe    c2314116   1.046   4.782   5.281  0.5822 -0.3554 -0.0299
 2617poe     o214117   1.098   4.770   5.150 -0.2812  0.5171 -0.4730
 2617poe    c2314118   1.132   4.897   5.099 -0.4087  0.4993 -0.6029
 2617poe    c2314119   1.238   4.882   4.988  0.4211 -0.2213  0.2710
 2617poe     o214120   1.332   4.781   5.020  0.9404  0.1522 -0.0680
 2617poe    c2314121   1.435   4.797   4.925  0.6211  0.6085 -0.3460
 2617poe    c2314122   1.542   4.687   4.941 -0.2198 -0.1734 -0.0423
 2617poe     o214123   1.596   4.699   5.071 -0.0108 -0.5498 -0.0944
 2617poe    c3114124   1.717   4.626   5.084  0.1046 -0.3173  0.1255
 2618poe    c3114125   4.533   4.511   1.952 -0.1410 -0.0359  0.3534
 2618poe     o214126   4.448   4.446   2.044 -0.0950  0.0105  0.4294
 2618poe    c2314127   4.317   4.423   1.999  0.0509 -0.2678  0.1389
 2618poe    c2314128   4.234   4.388   2.124 -0.1209 -0.0140  0.0974
 2618poe     o214129   4.315   4.304   2.203  0.1425  0.3131  0.1802
 2618poe    c2314130   4.243   4.231   2.300 -0.1108  0.5022  0.1348
 2618poe    c2314131   4.330   4.232   2.427  0.0159  0.4173  0.0492
 2618poe     o214132   4.460   4.192   2.390 -0.0674  0.2309 -0.0447
 2618poe    c2314133   4.497   4.063   2.435  0.2855  0.1428 -0.5859
 2618poe    c2314134   4.643   4.020   2.413  0.3187  0.0052 -0.1035
 2618poe     o214135   4.686   4.012   2.279 -0.4792  0.5212 -0.3937
 2618poe    c3114136   4.688   3.875   2.244 -0.1196  0.3622  0.2419
 2619poe    c3114137   6.391   3.931   1.104  0.1022  0.5535 -0.2200
 2619poe     o214138   6.515   3.997   1.087  0.4221 -0.0153 -0.1015
 2619poe    c2314139   6.555   4.068   1.202  0.3004  0.3303 -0.2738
 2619poe    c2314140   6.685   4.150   1.191  0.3149  0.3553  0.0912
 2619poe     o214141   6.785   4.063   1.143  0.2545  0.3522 -0.0275
 2619poe    c2314142   6.920   4.103   1.149  0.1905  0.6002 -0.2126
 2619poe    c2314143   7.011   4.001   1.079 -0.5245 -0.0331 -0.2265
 2619poe     o214144   7.009   3.999   0.938  0.0672  0.2736 -0.2419
 2619poe    c2314145   7.145   4.003   0.901  0.1625  0.0807  0.0786
 2619poe    c2314146   7.157   4.049   0.754  0.2367 -0.3091 -0.0397
 2619poe     o214147   7.110   3.959   0.657  0.0454  0.0971 -0.3289
 2619poe    c3114148   7.146   3.989   0.524 -0.2178 -0.3623 -0.5076
 2620poe    c3114149   4.470   4.050   2.884  0.1827  0.0188 -0.2569
 2620poe     o214150   4.442   4.145   2.984  0.6912 -0.2836  0.1765
 2620poe    c2314151   4.327   4.111   3.058  0.1164  0.2506 -0.4557
 2620poe    c2314152   4.301   4.208   3.174  0.2562  0.2876 -0.4548
 2620poe     o214153   4.421   4.206   3.248  0.0341  0.0351 -0.0959
 2620poe    c2314154   4.406   4.291   3.358 -0.0654 -0.0679 -0.0297
 2620poe    c2314155   4.549   4.310   3.412  0.0012 -0.1056 -0.1954
 2620poe     o214156   4.623   4.354   3.301  0.0428  0.0897 -0.0899
 2620poe    c2314157   4.728   4.437   3.346  0.3162 -0.3377  0.0617
 2620poe    c2314158   4.766   4.554   3.253  0.0111 -0.1010  0.2330
 2620poe     o214159   4.795   4.523   3.118 -0.0874  0.4979  0.0714
 2620poe    c3114160   4.907   4.596   3.074 -0.0771  0.4943  0.0921
 2621poe    c3114161   6.143   4.225   3.715 -0.2560 -0.3286 -0.1454
 2621poe     o214162   6.262   4.151   3.701  0.0564  0.1136  0.1480
 2621poe    c2314163   6.206   4.021   3.696  0.0208  0.1143  0.4962
 2621poe    c2314164   6.317   3.920   3.661  0.0817  0.2660  0.2426
 2621poe     o214165   6.372   3.969   3.541 -0.1019  0.1141  0.0964
 2621poe    c2314166   6.393   3.860   3.455  0.7275  0.3009  0.0541
 2621poe    c2314167   6.489   3.916   3.348  0.3241  0.1969 -0.3661
 2621poe     o214168   6.436   4.024   3.274 -0.0300  0.3752  0.1385
 2621poe    c2314169   6.533   4.080   3.188  0.0722  0.0444  0.0349
 2621poe    c2314170   6.470   4.210   3.134 -0.0999 -0.0568 -0.0078
 2621poe     o214171   6.415   4.300   3.228 -0.2215  0.3288 -0.4449
 2621poe    c3114172   6.417   4.429   3.173  0.3269  0.0612 -1.0670
 2622poe    c3114173   3.884   1.277   5.908 -0.3661  0.1276 -0.1269
 2622poe     o214174   3.816   1.373   5.985 -0.1017  0.1063  0.1376
 2622poe    c2314175   3.899   1.483   6.014  0.2940 -0.2006  0.1839
 2622poe    c2314176   3.831   1.583   6.110 -0.1784 -0.5114  0.1778
 2622poe     o214177   3.710   1.647   6.078  0.0114 -0.2416 -0.0054
 2622poe    c2314178   3.626   1.656   6.192 -0.0514  0.1642 -0.0821
 2622poe    c2314179   3.491   1.717   6.151 -0.1428  0.1208  0.1551
 2622poe     o214180   3.427   1.624   6.065 -0.1220 -0.0880  0.3647
 2622poe    c2314181   3.288   1.644   6.052 -0.0662  0.1321  0.1118
 2622poe    c2314182   3.228   1.587   5.922  0.7464 -0.2665 -0.0932
 2622poe     o214183   3.258   1.450   5.912  0.0243 -0.4143 -0.2548
 2622poe    c3114184   3.135   1.381   5.908 -0.5267  0.5118  0.3967
 2623poe    c3114185   3.136   6.617   1.266  0.2129 -0.2730  0.2187
 2623poe     o214186   3.246   6.705   1.258  0.4563 -0.6526 -0.7652
 2623poe    c2314187   3.319   6.708   1.380 -0.8505  0.0741  0.0170
 2623poe    c2314188   3.372   6.849   1.413  0.5127 -0.4254  0.0084
 2623poe     o214189   3.256   6.929   1.421  0.7676 -0.0817  0.2742
 2623poe    c2314190   3.304   7.058   1.391 -0.0077  0.3935  1.0347
 2623poe    c2314191   3.197   7.164   1.357  0.2461  0.2714 -0.1846
 2623poe     o214192   3.146   7.132   1.230 -0.0193 -0.0093 -0.0074
 2623poe    c2314193   3.045   7.228   1.212 -0.0005  0.0196  0.0414
 2623poe    c2314194   2.947   7.216   1.093 -0.2078 -0.4758  0.2619
 2623poe     o214195   2.898   7.084   1.080 -0.3506 -0.3910 -0.0482
 2623poe    c3114196   2.779   7.123   1.015 -0.3410  0.1857  0.2760
 2624poe    c3114197   1.079   6.260   5.482 -0.0091 -0.6462 -0.0497
 2624poe     o214198   1.212   6.282   5.441 -0.2355  0.3183 -0.2909
 2624poe    c2314199   1.255   6.178   5.356  0.0175 -0.1505  0.3996
 2624poe    c2314200   1.408   6.172   5.342 -0.0157  0.2819 -0.1899
 2624poe     o214201   1.466   6.290   5.290 -0.0382  0.3167 -0.1367
 2624poe    c2314202   1.601   6.302   5.330  0.0606  0.1307 -0.4056
 2624poe    c2314203   1.672   6.412   5.248  0.1089  0.1483 -0.3406
 2624poe     o214204   1.661   6.543   5.300  0.1045  0.0831 -0.1752
 2624poe    c2314205   1.737   6.629   5.218  0.1711  0.4411  0.2646
 2624poe    c2314206   1.747   6.769   5.283 -0.2964  0.7220 -0.2621
 2624poe     o214207   1.618   6.820   5.308 -0.2919  0.2860  0.7011
 2624poe    c3114208   1.628   6.959   5.327 -0.0446  0.4573 -0.5978
 2625poe    c3114209   3.698   6.012   5.146 -0.3918 -0.2144  0.1167
 2625poe     o214210   3.635   6.134   5.176  0.3775  0.2192 -0.0105
 2625poe    c2314211   3.555   6.111   5.290  0.1224 -0.3041 -0.2937
 2625poe    c2314212   3.461   6.232   5.308  0.0455 -0.4000 -0.0605
 2625poe     o214213   3.552   6.338   5.292 -0.0965 -0.2304  0.2481
 2625poe    c2314214   3.505   6.457   5.351  0.1550 -0.3279  0.6463
 2625poe    c2314215   3.622   6.556   5.332 -0.0770 -0.2696 -0.5538
 2625poe     o214216   3.653   6.576   5.196 -0.1541 -0.2240 -0.5645
 2625poe    c2314217   3.767   6.655   5.176 -0.1182 -0.0012  0.4918
 2625poe    c2314218   3.821   6.680   5.034 -0.4971 -0.1022  0.3317
 2625poe     o214219   3.744   6.755   4.943  0.2127  0.3132  0.0735
 2625poe    c3114220   3.623   6.694   4.907  0.5809 -0.1836 -0.3427
 2626poe    c3114221   6.655   5.552   6.245 -0.5360 -0.1141 -0.2913
 2626poe     o214222   6.595   5.663   6.182 -0.6504 -0.1132 -0.1838
 2626poe    c2314223   6.583   5.770   6.273 -0.5117  0.0583 -0.3642
 2626poe    c2314224   6.514   5.889   6.204  0.3609  0.7986  0.0122
 2626poe     o214225   6.564   5.883   6.072  0.1531 -0.4119 -0.0314
 2626poe    c2314226   6.551   6.010   6.012  0.7533 -0.4719 -0.2970
 2626poe    c2314227   6.593   6.010   5.864  0.2089 -0.4607 -0.4533
 2626poe     o214228   6.512   5.909   5.809 -0.2489 -0.3052 -0.0655
 2626poe    c2314229   6.551   5.886   5.676 -0.2325 -0.4979 -0.0283
 2626poe    c2314230   6.443   5.826   5.584 -0.3827  0.2278 -0.3323
 2626poe     o214231   6.400   5.704   5.640 -0.0991  0.2732 -0.0087
 2626poe    c3114232   6.280   5.658   5.582 -0.1095 -0.1302  0.3275
 2627poe    c3114233   5.158   2.856   1.348  0.1986  0.4801 -0.4427
 2627poe     o214234   5.114   2.750   1.266  0.3593  0.4338 -0.4695
 2627poe    c2314235   5.205   2.646   1.240 -0.1409 -0.1562  0.0972
 2627poe    c2314236   5.162   2.559   1.121 -0.0234 -0.3723  0.2116
 2627poe     o214237   5.030   2.512   1.123 -0.2605  0.2210 -0.7005
 2627poe    c2314238   5.007   2.438   1.005  0.0926 -0.1288 -0.5517
 2627poe    c2314239   4.933   2.308   1.042  0.3027  0.0764  0.6492
 2627poe     o214240   4.822   2.356   1.115 -0.1853 -0.1415  0.0698
 2627poe    c2314241   4.746   2.252   1.172 -0.2008 -0.0828  0.1556
 2627poe    c2314242   4.647   2.328   1.264 -0.4037 -0.1166 -0.0331
 2627poe     o214243   4.735   2.409   1.338 -0.0184 -0.5885  0.0309
 2627poe    c3114244   4.665   2.463   1.448  0.3800  0.2661 -0.1219
 2628poe    c3114245   2.631   1.007   2.168  0.5404 -0.6823  0.4434
 2628poe     o214246   2.514   1.063   2.111  0.6356 -0.2435  0.6711
 2628poe    c2314247   2.494   1.201   2.132  0.5873 -0.1134 -0.2239
 2628poe    c2314248   2.375   1.261   2.055  0.4654  0.2037  0.2135
 2628poe     o214249   2.264   1.261   2.143  0.2658  0.4144 -0.0385
 2628poe    c2314250   2.145   1.323   2.098  0.0796 -0.0408 -0.1867
 2628poe    c2314251   2.012   1.263   2.146  0.1076 -0.3077 -0.4401
 2628poe     o214252   1.991   1.303   2.280 -0.2544  0.4188 -0.7034
 2628poe    c2314253   1.859   1.278   2.324 -0.0835  0.1369 -0.3451
 2628poe    c2314254   1.847   1.323   2.471  0.3264  0.2429 -0.3405
 2628poe     o214255   1.887   1.227   2.565  0.3302  0.5847  0.0082
 2628poe    c3114256   1.870   1.283   2.693  0.4474 -0.0068  0.2870
 2629poe    c3114257   4.363   6.406   1.057  0.5104 -0.2781  0.2996
 2629poe     o214258   4.428   6.504   0.979  0.0615 -0.2114  0.0055
 2629poe    c2314259   4.564   6.468   0.963  0.1189  0.0453 -0.0945
 2629poe    c2314260   4.638   6.582   0.892  0.0912  0.0985 -0.0380
 2629poe     o214261   4.603   6.595   0.756 -0.4734 -0.2054  0.0761
 2629poe    c2314262   4.711   6.660   0.693 -0.7696  0.4299  0.2107
 2629poe    c2314263   4.695   6.656   0.540 -0.2296  0.2629  0.1569
 2629poe     o214264   4.562   6.701   0.530 -0.2707  0.0709 -0.1908
 2629poe    c2314265   4.512   6.713   0.399  0.4793 -0.0392 -0.4915
 2629poe    c2314266   4.361   6.744   0.408  0.5347  0.1293 -0.1328
 2629poe     o214267   4.301   6.673   0.513 -0.0643  0.4283 -0.2709
 2629poe    c3114268   4.162   6.658   0.491 -0.0584  0.3911 -0.2821
 2630poe    c3114269   0.867   4.531   6.475 -0.1915 -0.0271  0.5362
 2630poe     o214270   0.744   4.463   6.486 -0.2412  0.0455  0.4302
 2630poe    c2314271   0.643   4.558   6.460 -0.4256 -0.2456  0.0609
 2630poe    c2314272   0.505   4.494   6.484 -0.5129 -0.1083 -0.0713
 2630poe     o214273   0.475   4.398   6.385 -0.1794 -0.1679 -0.1183
 2630poe    c2314274   0.369   4.316   6.427 -0.0911 -0.0317  0.3776
 2630poe    c2314275   0.385   4.173   6.372 -0.1055  0.0652  0.1202
 2630poe     o214276   0.499   4.101   6.416  0.2110  0.0790 -0.6665
 2630poe    c2314277   0.471   3.968   6.380  0.1070 -0.0839  0.0053
 2630poe    c2314278   0.586   3.881   6.434 -0.1624 -0.2316  0.3450
 2630poe     o214279   0.646   3.945   6.544  0.2350  0.0224 -0.0175
 2630poe    c3114280   0.748   3.871   6.608  0.5686  0.8924  0.4764
 2631poe    c3114281   1.557   4.256   0.539  0.0336 -0.1658 -0.5832
 2631poe     o214282   1.537   4.395   0.545 -0.6343 -0.2789 -0.0895
 2631poe    c2314283   1.515   4.417   0.683  0.1034 -0.0600 -0.0050
 2631poe    c2314284   1.507   4.568   0.713 -0.9127 -0.1520  0.2131
 2631poe     o214285   1.409   4.637   0.638 -0.4428 -0.0482 -0.3142
 2631poe    c2314286   1.412   4.770   0.684  0.1366 -0.0849 -0.2342
 2631poe    c2314287   1.402   4.852   0.554 -0.1155  0.1217 -0.0851
 2631poe     o214288   1.285   4.803   0.491 -0.3950  0.4242  0.1903
 2631poe    c2314289   1.254   4.892   0.386  0.0655 -0.0452 -0.3536
 2631poe    c2314290   1.139   4.828   0.305 -0.2142 -0.2013  0.1597
 2631poe     o214291   1.172   4.693   0.281 -0.0251 -0.0892 -0.2262
 2631poe    c3114292   1.077   4.609   0.219 -0.1393 -0.0617 -0.0914
 2632poe    c3114293   2.960   4.684   0.581 -0.3348  0.0879 -0.4236
 2632poe     o214294   2.914   4.610   0.692  0.1056  0.1464 -0.1979
 2632poe    c2314295   2.856   4.485   0.661 -0.3262  0.2133  0.3268
 2632poe    c2314296   2.723   4.466   0.736 -0.6211  0.4897 -0.1229
 2632poe     o214297   2.737   4.444   0.874  0.0909 -0.8212 -0.3920
 2632poe    c2314298   2.611   4.416   0.932  0.0939 -0.3793 -0.1643
 2632poe    c2314299   2.628   4.364   1.076 -0.0253  0.0201 -0.0060
 2632poe     o214300   2.709   4.448   1.154 -0.5603  0.2940  0.2558
 2632poe    c2314301   2.792   4.378   1.244 -0.9533 -0.0366  0.3628
 2632poe    c2314302   2.875   4.477   1.327  0.3006 -0.2853 -0.5647
 2632poe     o214303   2.960   4.558   1.249 -0.0815  0.5858 -0.0905
 2632poe    c3114304   3.073   4.607   1.319 -0.2991  0.3894  0.4020
 2633poe    c3114305   3.231   2.430   1.311 -0.0574 -0.3184  0.3899
 2633poe     o214306   3.140   2.349   1.382  0.5572 -0.8130  0.6221
 2633poe    c2314307   3.114   2.399   1.512 -0.8214 -0.3334  0.1837
 2633poe    c2314308   3.189   2.315   1.617 -0.2341  0.3902  0.3515
 2633poe     o214309   3.168   2.176   1.601  0.0707  0.3900 -0.0463
 2633poe    c2314310   3.280   2.115   1.661 -0.3393 -0.1733  0.1469
 2633poe    c2314311   3.311   1.964   1.655  1.0453  0.0990  0.1963
 2633poe     o214312   3.322   1.927   1.519  0.2180  0.1921  0.1021
 2633poe    c2314313   3.407   1.815   1.512 -0.1478 -0.0905  0.1403
 2633poe    c2314314   3.440   1.769   1.369  0.3227 -0.1234  0.2600
 2633poe     o214315   3.487   1.875   1.288  0.1643 -0.5651 -0.4178
 2633poe    c3114316   3.509   1.816   1.162  0.0258 -0.1644 -0.6304
 2634poe    c3114317   2.247   5.850   1.120 -0.0834  0.3395 -0.3835
 2634poe     o214318   2.264   5.988   1.099 -0.3438  0.3776 -0.3421
 2634poe    c2314319   2.356   6.040   1.193  0.3867  0.2848 -1.0039
 2634poe    c2314320   2.341   6.190   1.224 -0.1239 -0.0216  0.2931
 2634poe     o214321   2.325   6.287   1.122 -0.1953  0.1770  0.4923
 2634poe    c2314322   2.443   6.340   1.065 -0.0840 -0.2517  0.3150
 2634poe    c2314323   2.406   6.445   0.958 -0.0718 -0.5138  0.0529
 2634poe     o214324   2.368   6.369   0.846 -0.0878 -0.5057  0.0525
 2634poe    c2314325   2.345   6.454   0.736  0.2235 -0.3477  0.1087
 2634poe    c2314326   2.380   6.375   0.608 -0.6835  0.1261 -0.4370
 2634poe     o214327   2.283   6.280   0.571  0.0540 -0.5190 -0.7290
 2634poe    c3114328   2.324   6.219   0.451 -0.0610 -0.3135 -0.8715
 2635poe    c3114329   0.022   6.491   6.904  0.2883  0.4666  0.3527
 2635poe     o214330   0.128   6.443   6.825 -0.2590 -0.5342  0.2115
 2635poe    c2314331   0.231   6.538   6.842 -0.4343 -0.3200  0.0832
 2635poe    c2314332   0.359   6.496   6.767 -0.0871 -0.1040  0.5464
 2635poe     o214333   0.337   6.471   6.630  0.2943 -0.5751  0.5728
 2635poe    c2314334   0.458   6.443   6.562  0.0348  0.1794 -0.2147
 2635poe    c2314335   0.449   6.457   6.409 -0.1076 -0.0348 -0.2269
 2635poe     o214336   0.351   6.372   6.355  0.4223 -0.5717 -0.3561
 2635poe    c2314337   0.294   6.423   6.237  0.3922  0.5655  0.1402
 2635poe    c2314338   0.171   6.516   6.232 -0.1441 -0.1601 -0.2643
 2635poe     o214339   0.066   6.461   6.307 -0.1772  0.1277 -0.1001
 2635poe    c3114340  -0.049   6.533   6.269 -0.1788  0.1548 -0.0445
 2636poe    c3114341   2.440   6.281   2.478 -0.0007 -0.1111 -0.0070
 2636poe     o214342   2.407   6.144   2.472 -0.4485  0.0001 -0.1422
 2636poe    c2314343   2.288   6.117   2.543 -0.5607 -0.0539 -0.3496
 2636poe    c2314344   2.245   5.970   2.524  0.0364 -0.2410 -0.2750
 2636poe     o214345   2.320   5.878   2.600 -0.2471 -0.2653 -0.0218
 2636poe    c2314346   2.278   5.746   2.573  0.3059 -0.4396 -0.0548
 2636poe    c2314347   2.361   5.651   2.661 -0.3347 -0.6200  0.3634
 2636poe     o214348   2.499   5.636   2.634 -0.2967 -0.5554  0.5191
 2636poe    c2314349   2.558   5.524   2.695  0.7053 -0.1771  0.2692
 2636poe    c2314350   2.707   5.515   2.660  0.4826  0.2931 -0.8203
 2636poe     o214351   2.782   5.624   2.709  0.3139  0.1548 -0.2501
 2636poe    c3114352   2.909   5.619   2.648  0.2387 -0.5525 -0.3576
 2637poe    c3114353   0.180   7.051   1.536 -0.0470 -0.3036 -0.3253
 2637poe     o214354   0.078   7.141   1.575  0.3386 -0.1779  0.4054
 2637poe    c2314355   0.135   7.266   1.609  0.2022  0.0793 -0.3126
 2637poe    c2314356   0.024   7.372   1.624  0.6397  0.4037  0.7050
 2637poe     o214357  -0.081   7.328   1.706  0.0789  0.1118 -0.1518
 2637poe    c2314358  -0.181   7.426   1.725 -0.5983 -0.4356 -0.7996
 2637poe    c2314359  -0.293   7.359   1.806  0.0771 -0.5716  0.0461
 2637poe     o214360  -0.242   7.269   1.902  0.0444  0.0431  0.6407
 2637poe    c2314361  -0.357   7.200   1.946 -0.2700  0.2766  0.1951
 2637poe    c2314362  -0.308   7.082   2.033  0.0930  0.1320 -0.2003
 2637poe     o214363  -0.201   7.019   1.967  0.0341 -0.0774 -0.0949
 2637poe    c3114364  -0.167   6.907   2.045 -0.2359 -0.2882 -0.2792
 2638poe    c3114365   4.432   4.616   4.327  0.4032 -0.2598 -0.3824
 2638poe     o214366   4.440   4.636   4.188 -0.3341  0.4525 -0.3333
 2638poe    c2314367   4.365   4.747   4.146 -0.5522  0.1479 -0.7644
 2638poe    c2314368   4.217   4.714   4.119 -0.6114 -0.2230 -0.0194
 2638poe     o214369   4.205   4.605   4.031 -0.0819 -0.4290  0.1626
 2638poe    c2314370   4.071   4.567   4.010 -0.2070  0.0628  0.0584
 2638poe    c2314371   4.046   4.474   3.889 -0.5964 -0.0011  0.1837
 2638poe     o214372   4.128   4.361   3.910 -0.0305  0.3493 -0.0949
 2638poe    c2314373   4.178   4.317   3.786  0.3339 -0.0593  0.1932
 2638poe    c2314374   4.282   4.203   3.786 -0.0615 -0.4244 -0.0220
 2638poe     o214375   4.415   4.248   3.802 -0.0730 -0.3607 -0.1048
 2638poe    c3114376   4.507   4.142   3.790  0.3553  0.0283 -0.2496
 2639poe    c3114377   0.909   6.677   1.045 -0.3532 -0.1378  0.0407
 2639poe     o214378   0.985   6.572   1.101 -0.5432 -0.0849  0.3934
 2639poe    c2314379   1.035   6.605   1.229  0.3351  0.4808 -0.0810
 2639poe    c2314380   1.152   6.512   1.266  0.1106  0.2802  0.1344
 2639poe     o214381   1.115   6.376   1.276 -0.1944  0.3708  0.2384
 2639poe    c2314382   1.207   6.311   1.361 -0.5443 -0.2339  0.1599
 2639poe    c2314383   1.193   6.159   1.346 -0.7932 -0.2079  0.1212
 2639poe     o214384   1.238   6.106   1.223 -0.1671  0.4991  0.0403
 2639poe    c2314385   1.220   5.966   1.231  0.2205  0.4550  0.1985
 2639poe    c2314386   1.292   5.891   1.118 -0.1184  0.5577 -0.0879
 2639poe     o214387   1.241   5.920   0.989  0.1356  0.5408 -0.1936
 2639poe    c3114388   1.323   5.843   0.905 -0.0755  0.2050 -0.0907
 2640poe    c3114389   3.475   4.148   6.573 -0.1566 -0.0138 -0.7460
 2640poe     o214390   3.472   4.218   6.450 -0.5106  0.0948 -0.6739
 2640poe    c2314391   3.580   4.303   6.423 -0.1618  0.0634  0.5619
 2640poe    c2314392   3.593   4.359   6.280 -0.2471 -0.2325  0.4390
 2640poe     o214393   3.505   4.454   6.224  0.2006  0.0127  0.1442
 2640poe    c2314394   3.562   4.495   6.102  0.0766 -0.1345  0.0363
 2640poe    c2314395   3.454   4.580   6.033  0.1586 -0.0497  0.0118
 2640poe     o214396   3.433   4.696   6.110  0.5133 -0.0007  0.0349
 2640poe    c2314397   3.329   4.771   6.052  0.4133  0.1789  0.4493
 2640poe    c2314398   3.261   4.866   6.153  0.0180  0.2353  0.1333
 2640poe     o214399   3.240   4.795   6.274  0.2583  0.1704  0.1375
 2640poe    c3114400   3.182   4.890   6.361  0.6485 -0.1093  0.7027
 2641poe    c3114401   5.349   6.486   0.936  0.0413  0.2532  0.3240
 2641poe     o214402   5.294   6.394   1.028 -0.2570 -0.2964 -0.3908
 2641poe    c2314403   5.257   6.275   0.962 -0.4928 -0.1788 -0.4712
 2641poe    c2314404   5.197   6.166   1.052 -0.0437  0.4943  0.6705
 2641poe     o214405   5.291   6.124   1.148  0.1662  0.2612  0.3650
 2641poe    c2314406   5.254   5.998   1.200 -0.6357  0.4349  0.2300
 2641poe    c2314407   5.311   5.973   1.341 -0.5464 -0.2206  0.0838
 2641poe     o214408   5.452   5.967   1.345 -0.5341 -0.0696 -0.1118
 2641poe    c2314409   5.495   5.997   1.476 -1.0050  0.0098  0.0289
 2641poe    c2314410   5.648   6.012   1.471 -0.9834 -0.0613  0.4790
 2641poe     o214411   5.694   6.129   1.407 -0.3714 -0.4715  0.1588
 2641poe    c3114412   5.819   6.163   1.463 -0.0529  0.0832 -0.8744
 2642poe    c3114413   4.377   1.208   0.468  0.1991  0.0322  0.1697
 2642poe     o214414   4.462   1.299   0.402 -0.4912 -0.1838 -1.0439
 2642poe    c2314415   4.466   1.290   0.262  0.1736 -0.2450 -1.0264
 2642poe    c2314416   4.533   1.410   0.192  0.2501  0.0771 -0.4060
 2642poe     o214417   4.483   1.529   0.248  0.6470  0.1046 -0.1050
 2642poe    c2314418   4.537   1.641   0.182  0.5891  0.2623  0.1118
 2642poe    c2314419   4.491   1.776   0.239  0.6898  0.3620 -0.0397
 2642poe     o214420   4.544   1.805   0.366  0.8326  0.6027 -0.1558
 2642poe    c2314421   4.514   1.935   0.413 -0.1830  0.4510 -0.3732
 2642poe    c2314422   4.568   1.978   0.551 -0.2227 -0.2322 -0.1419
 2642poe     o214423   4.532   1.885   0.651 -0.2361  0.0357  0.1025
 2642poe    c3114424   4.614   1.915   0.762  0.0357  0.1278 -0.1211
 2643poe    c3114425   5.157   5.699   5.775 -0.4167  0.2634 -0.0802
 2643poe     o214426   5.232   5.639   5.672 -0.1590  0.2172  0.1322
 2643poe    c2314427   5.345   5.713   5.633  0.1085 -0.2409  0.0215
 2643poe    c2314428   5.406   5.644   5.510 -0.2332  0.0092 -0.2900
 2643poe     o214429   5.460   5.516   5.536 -0.3121  0.0923  0.2845
 2643poe    c2314430   5.472   5.440   5.418 -0.1755  0.5765 -0.0150
 2643poe    c2314431   5.534   5.301   5.437  0.0381  0.6305 -0.3076
 2643poe     o214432   5.447   5.224   5.518  0.4717  0.1267 -0.3119
 2643poe    c2314433   5.497   5.099   5.558  0.1483  0.0186 -0.2408
 2643poe    c2314434   5.377   5.032   5.627 -0.0847  0.5545 -0.1153
 2643poe     o214435   5.300   5.109   5.716  0.0136  0.4136  0.0939
 2643poe    c3114436   5.356   5.124   5.845 -0.2016  0.3703  0.1919
 2644poe    c3114437   2.572   4.417   4.745 -0.2106  0.1501 -0.0532
 2644poe     o214438   2.461   4.501   4.723 -0.2646 -0.0748 -0.6538
 2644poe    c2314439   2.340   4.433   4.744  0.0211 -0.4471 -0.2050
 2644poe    c2314440   2.224   4.535   4.749  0.6886  0.2904  0.4003
 2644poe     o214441   2.249   4.641   4.659 -0.2023  0.0645 -0.1173
 2644poe    c2314442   2.121   4.695   4.631 -0.2432  0.2087  0.3469
 2644poe    c2314443   2.123   4.791   4.511  0.1614 -0.1291  0.0794
 2644poe     o214444   2.220   4.893   4.527  0.1550 -0.1005 -0.0649
 2644poe    c2314445   2.248   4.965   4.409 -0.0307  0.2531  0.1070
 2644poe    c2314446   2.364   5.061   4.443 -0.2812  0.5038  0.2636
 2644poe     o214447   2.478   4.989   4.482  0.0283  0.8753  0.0560
 2644poe    c3114448   2.576   5.081   4.524 -0.0381  0.5247  0.9974
 2645poe    c3114449   6.579   0.905   4.492 -0.5647  0.4042 -0.4996
 2645poe     o214450   6.657   1.010   4.545 -0.5599  0.0868  0.1326
 2645poe    c2314451   6.687   0.977   4.679  0.3168 -0.8209 -0.2818
 2645poe    c2314452   6.753   1.098   4.748 -0.2399 -0.4347 -0.4231
 2645poe     o214453   6.852   1.151   4.662  0.1807  0.1436  0.4059
 2645poe    c2314454   6.913   1.267   4.713  0.2870 -0.1288  0.9063
 2645poe    c2314455   7.013   1.327   4.612 -0.6072  0.2256  0.2103
 2645poe     o214456   6.951   1.329   4.485 -0.0683 -0.0463 -0.0590
 2645poe    c2314457   7.027   1.373   4.375 -0.2328  0.7214  0.1282
 2645poe    c2314458   6.950   1.372   4.241 -0.3555  0.7521  0.1983
 2645poe     o214459   6.926   1.242   4.190 -0.1734  0.6965  0.2497
 2645poe    c3114460   6.821   1.238   4.096 -0.0283  0.8863  0.0796
 2646poe    c3114461   3.560   5.870   4.504  0.1069  0.5075  0.3647
 2646poe     o214462   3.479   5.868   4.620 -0.2019 -0.4523  0.1432
 2646poe    c2314463   3.552   5.923   4.726  0.2888 -0.7063 -0.0594
 2646poe    c2314464   3.486   5.954   4.862 -0.0724 -0.0635 -0.3800
 2646poe     o214465   3.385   6.051   4.841 -0.1787 -0.0588  0.1512
 2646poe    c2314466   3.269   6.040   4.920 -0.2503 -0.2204  0.0227
 2646poe    c2314467   3.146   6.109   4.856 -0.0343  0.3768  0.2417
 2646poe     o214468   3.112   6.055   4.729 -0.4425  0.3641  0.3558
 2646poe    c2314469   3.005   6.126   4.671 -0.1269  0.5879  0.0424
 2646poe    c2314470   3.001   6.119   4.518 -0.5906  0.1260  0.0748
 2646poe     o214471   3.105   6.186   4.451 -0.4120 -0.1490  0.0767
 2646poe    c3114472   3.233   6.130   4.434 -0.1181  0.4578  0.2571
 2647poe    c3114473   6.761   0.820   0.960  0.3497 -0.2400  0.4768
 2647poe     o214474   6.722   0.839   1.094  0.1568  0.4758  0.3200
 2647poe    c2314475   6.618   0.751   1.131 -0.0383  0.7138  0.3428
 2647poe    c2314476   6.676   0.650   1.232 -0.0759 -0.3414 -0.6769
 2647poe     o214477   6.765   0.551   1.187  0.3897 -0.0971 -0.3046
 2647poe    c2314478   6.900   0.581   1.217  0.1334  0.4221  0.3348
 2647poe    c2314479   6.989   0.512   1.112 -0.5049  0.0437  0.0299
 2647poe     o214480   7.016   0.375   1.131 -0.0129  0.1376  0.0203
 2647poe    c2314481   7.116   0.340   1.225 -0.3342  0.3210  0.4359
 2647poe    c2314482   7.104   0.189   1.252 -0.2479  0.2624  0.1545
 2647poe     o214483   6.980   0.148   1.304 -0.0710 -0.1478  0.2514
 2647poe    c3114484   6.980   0.008   1.288  0.2688 -0.1178 -0.0059
 2648poe    c3114485   4.282   5.020   1.964  0.1342 -0.3629  0.0586
 2648poe     o214486   4.363   4.954   1.869  0.0483 -0.5481  0.1126
 2648poe    c2314487   4.298   4.913   1.751 -0.1802  0.1649 -0.0175
 2648poe    c2314488   4.377   4.826   1.652  0.4803  0.0198  0.6325
 2648poe     o214489   4.483   4.891   1.585  0.0518  0.4713  0.3825
 2648poe    c2314490   4.581   4.798   1.543 -0.2399  0.4431 -0.2448
 2648poe    c2314491   4.692   4.875   1.469  0.4354 -0.2289  0.0547
 2648poe     o214492   4.773   4.942   1.562  0.0336  0.0301  0.2223
 2648poe    c2314493   4.872   5.017   1.495 -0.4652  0.2207 -0.3047
 2648poe    c2314494   4.912   5.144   1.573  0.2662 -0.1677 -0.0405
 2648poe     o214495   5.034   5.129   1.642  0.0062  0.2661  0.5254
 2648poe    c3114496   5.111   5.247   1.637  0.0693  0.1880 -0.9814
 2649poe    c3114497   3.201   6.907   3.156 -0.2062  0.4982  0.3812
 2649poe     o214498   3.078   6.879   3.092 -0.0206  0.2633  0.1281
 2649poe    c2314499   2.968   6.854   3.175 -0.1537 -0.4523 -0.2577
 2649poe    c2314500   2.843   6.853   3.085 -0.6635 -0.0307  0.4344
 2649poe     o214501   2.881   6.787   2.966 -0.7852  0.6762 -0.0049
 2649poe    c2314502   2.771   6.737   2.894 -0.4762  0.2139 -0.1608
 2649poe    c2314503   2.820   6.643   2.782 -0.1470  0.0098  0.1507
 2649poe     o214504   2.897   6.705   2.682 -0.2947 -0.0193  0.0171
 2649poe    c2314505   2.953   6.614   2.590 -0.1620  0.2489 -0.1704
 2649poe    c2314506   2.997   6.677   2.457  0.2669  0.5127  0.0945
 2649poe     o214507   3.116   6.752   2.464  0.3471  0.3536  0.4624
 2649poe    c3114508   3.163   6.787   2.336 -0.2828 -0.0886  0.1025
 2650poe    c3114509   1.703   1.101   1.909  0.1995  0.2403  0.2482
 2650poe     o214510   1.759   1.039   1.795  0.0307 -0.1465  0.3740
 2650poe    c2314511   1.706   0.913   1.761  0.3757 -0.2333  0.1620
 2650poe    c2314512   1.741   0.799   1.859  0.6294  0.1175  0.4809
 2650poe     o214513   1.866   0.736   1.843  0.3925 -0.1849 -0.1871
 2650poe    c2314514   1.896   0.682   1.969  0.0668  0.2061  0.0627
 2650poe    c2314515   2.048   0.659   1.966  0.0129 -0.2121  0.3547
 2650poe     o214516   2.066   0.573   1.856  0.2678  0.0358  0.2017
 2650poe    c2314517   2.202   0.543   1.830  0.0867 -0.0887 -0.6344
 2650poe    c2314518   2.250   0.473   1.701  0.7219 -0.1665 -0.3580
 2650poe     o214519   2.189   0.512   1.580  0.2974  0.1842 -0.0381
 2650poe    c3114520   2.261   0.445   1.478  0.5224 -0.1988  0.3670
 2651poe    c3114521   6.099   1.596   2.388 -0.2210  0.2787  0.4217
 2651poe     o214522   6.018   1.528   2.294 -0.3277 -0.1291  0.8097
 2651poe    c2314523   6.019   1.388   2.310 -0.5938 -0.1559  0.5970
 2651poe    c2314524   5.881   1.347   2.257 -0.4891 -0.0611  0.2492
 2651poe     o214525   5.855   1.417   2.137  0.2981 -0.2106 -0.0141
 2651poe    c2314526   5.733   1.387   2.072  0.6536 -0.0157 -0.7815
 2651poe    c2314527   5.723   1.467   1.940 -0.1168  0.1543 -0.6247
 2651poe     o214528   5.708   1.605   1.968 -0.1076  0.0238  0.0407
 2651poe    c2314529   5.694   1.684   1.853 -0.0245  0.3284  0.2393
 2651poe    c2314530   5.756   1.825   1.866  0.0905  0.2860  0.1452
 2651poe     o214531   5.892   1.828   1.903  0.0581  0.2000  0.2724
 2651poe    c3114532   5.955   1.954   1.900  0.4071  0.0097 -0.5989
 2652poe    c3114533   1.717   4.687   4.033 -0.5301 -0.1626  0.1553
 2652poe     o214534   1.678   4.625   4.153 -0.0266 -0.4852  0.1518
 2652poe    c2314535   1.791   4.626   4.237  0.0203 -0.4428  0.0887
 2652poe    c2314536   1.765   4.536   4.359 -0.1504  0.3245  0.6208
 2652poe     o214537   1.636   4.570   4.404 -0.2156  0.6044  0.2301
 2652poe    c2314538   1.609   4.529   4.537 -0.2794 -0.2492 -0.0410
 2652poe    c2314539   1.484   4.592   4.600 -0.3118 -0.8694  0.5264
 2652poe     o214540   1.374   4.562   4.515  0.0814 -0.5366 -0.1093
 2652poe    c2314541   1.253   4.601   4.576  0.1622 -0.7723  0.2089
 2652poe    c2314542   1.147   4.594   4.464 -0.1948  0.0203  0.4896
 2652poe     o214543   1.177   4.686   4.361 -0.0978 -0.2318  0.2912
 2652poe    c3114544   1.066   4.700   4.276 -0.2715 -0.6499  0.4452
 2653poe    c3114545   3.381   6.467   5.701  0.3864 -0.0315 -0.1519
 2653poe     o214546   3.397   6.338   5.758  0.5159  0.1122  0.1392
 2653poe    c2314547   3.312   6.331   5.870  0.0541 -0.4047 -0.2404
 2653poe    c2314548   3.337   6.199   5.945  0.1167 -0.1150  0.2538
 2653poe     o214549   3.289   6.086   5.876  0.4915  0.1086 -0.3779
 2653poe    c2314550   3.292   5.979   5.968  0.6565  0.0506 -0.4475
 2653poe    c2314551   3.306   5.851   5.885 -0.1548 -0.3191 -0.0272
 2653poe     o214552   3.216   5.866   5.777 -0.5250 -0.1972  0.2936
 2653poe    c2314553   3.244   5.776   5.671  0.3098  0.4073 -0.0158
 2653poe    c2314554   3.146   5.814   5.559 -0.3470 -0.3947  0.2786
 2653poe     o214555   3.147   5.955   5.550  0.0219 -0.4017  0.2042
 2653poe    c3114556   3.057   6.010   5.456 -0.2718  0.7339  1.1363
 2654poe    c3114557   7.037   5.050   5.789  0.2081  0.3424 -0.3364
 2654poe     o214558   7.045   5.041   5.648  0.4399  0.4193 -0.3288
 2654poe    c2314559   7.002   5.157   5.581  0.3025  0.6316  0.1220
 2654poe    c2314560   7.041   5.153   5.432 -0.2369  0.2379 -0.0121
 2654poe     o214561   7.007   5.020   5.399  0.0633  0.2095 -0.2108
 2654poe    c2314562   7.023   4.991   5.262  0.3186 -0.0441 -0.1296
 2654poe    c2314563   6.981   4.844   5.247 -0.1488  0.0782 -0.0386
 2654poe     o214564   7.044   4.772   5.350 -0.4195 -0.5320 -0.2896
 2654poe    c2314565   7.055   4.635   5.321  0.5720 -0.4192 -0.4819
 2654poe    c2314566   6.922   4.559   5.308  0.0545  0.4515 -0.2963
 2654poe     o214567   6.852   4.574   5.430  0.1386  0.3556 -0.2368
 2654poe    c3114568   6.722   4.525   5.407  0.1952  0.0831  0.0279
 2655poe    c3114569   3.103   4.883   5.312 -0.0864  0.0679  0.1886
 2655poe     o214570   3.150   4.938   5.434  0.2780 -0.1843  0.1636
 2655poe    c2314571   3.114   5.071   5.462  0.1057 -0.1371 -0.2609
 2655poe    c2314572   2.965   5.111   5.470  0.1618 -0.1158  0.8248
 2655poe     o214573   2.898   5.028   5.563  0.0065 -0.2648  0.5790
 2655poe    c2314574   2.764   5.063   5.590  0.0523  0.8013 -0.4820
 2655poe    c2314575   2.691   4.938   5.642  0.9629  0.3426 -0.2924
 2655poe     o214576   2.759   4.889   5.756  0.1885 -0.1717 -0.0401
 2655poe    c2314577   2.680   4.801   5.831 -0.3016  0.4700  0.2063
 2655poe    c2314578   2.761   4.710   5.926 -0.7116 -0.5978 -0.4480
 2655poe     o214579   2.861   4.641   5.855  0.1683 -0.2600  0.4426
 2655poe    c3114580   2.968   4.597   5.937 -0.0604 -0.4786  0.6253
 2656poe    c3114581   2.175   2.005   5.304 -0.2392  0.3586  0.1112
 2656poe     o214582   2.136   2.074   5.421  0.0499  0.3795  0.1949
 2656poe    c2314583   2.160   1.999   5.538 -0.0334  0.1554  0.0690
 2656poe    c2314584   2.120   2.088   5.657  0.1339  0.3518 -0.0196
 2656poe     o214585   2.004   2.161   5.623 -0.1317 -0.0180  0.0883
 2656poe    c2314586   1.973   2.260   5.719  0.0742  0.1649 -0.0329
 2656poe    c2314587   1.840   2.320   5.671 -0.2987 -0.4133  0.2671
 2656poe     o214588   1.842   2.339   5.531  0.3861  0.2351  0.3619
 2656poe    c2314589   1.719   2.399   5.498  0.0175 -0.7173 -0.0274
 2656poe    c2314590   1.723   2.441   5.349 -0.2858  0.0602  0.1775
 2656poe     o214591   1.723   2.330   5.262  0.3131  0.0486  0.1829
 2656poe    c3114592   1.693   2.366   5.129 -0.1167  0.3442  0.3573
 2657poe    c3114593   2.399   4.361   6.642 -0.2252 -0.0927 -0.2448
 2657poe     o214594   2.466   4.282   6.738 -0.0410  0.0703 -0.2386
 2657poe    c2314595   2.437   4.150   6.700 -0.1996 -0.0526  0.2989
 2657poe    c2314596   2.521   4.034   6.757  0.1628  0.1188  0.1124
 2657poe     o214597   2.532   4.030   6.897  0.2832 -0.0247  0.0988
 2657poe    c2314598   2.575   3.901   6.937 -0.1389 -0.2732 -0.2439
 2657poe    c2314599   2.525   3.868   7.079 -0.6811  0.0292 -0.3609
 2657poe     o214600   2.556   3.965   7.176 -0.2452 -0.4595 -0.0058
 2657poe    c2314601   2.504   3.942   7.306  0.4006 -0.4276  0.2601
 2657poe    c2314602   2.366   4.009   7.319  0.4582 -0.3217  0.3291
 2657poe     o214603   2.356   4.148   7.299 -0.2047 -0.3909  0.1531
 2657poe    c3114604   2.219   4.166   7.324  0.0606  0.7961  0.8261
 2658poe    c3114605   1.963   6.120   0.282  0.1978  0.1683 -0.8466
 2658poe     o214606   1.941   6.207   0.173 -0.0094  0.6531 -0.4215
 2658poe    c2314607   1.837   6.296   0.207  0.0777  0.5503  0.1286
 2658poe    c2314608   1.785   6.385   0.092  0.0105  0.6365  0.2256
 2658poe     o214609   1.900   6.458   0.056  0.0362  0.2625 -0.4681
 2658poe    c2314610   1.866   6.540  -0.053  0.0161  0.1469 -0.5494
 2658poe    c2314611   2.004   6.589  -0.103  0.0474  0.4853 -0.1433
 2658poe     o214612   2.096   6.483  -0.099 -0.2515  0.2095 -0.4320
 2658poe    c2314613   2.219   6.537  -0.141 -0.1529  0.3484  0.0251
 2658poe    c2314614   2.334   6.435  -0.138 -0.5450 -0.0949  0.0094
 2658poe     o214615   2.376   6.420  -0.005  0.1120  0.3035 -0.1487
 2658poe    c3114616   2.502   6.359   0.016 -0.0374  0.3240  0.8861
 2659poe    c3114617   1.213   5.997   7.039 -0.2170 -0.0682  0.4653
 2659poe     o214618   1.105   5.907   7.024  0.2153 -0.5651  0.3055
 2659poe    c2314619   1.151   5.800   6.946 -0.1080 -0.8336  0.4833
 2659poe    c2314620   1.079   5.667   6.975 -0.3820 -0.6351  0.7198
 2659poe     o214621   0.940   5.662   6.952 -0.2899 -0.2471  0.0630
 2659poe    c2314622   0.889   5.556   7.030 -0.2343 -0.1706  0.2027
 2659poe    c2314623   0.736   5.567   7.014 -0.2398 -0.0263  0.3561
 2659poe     o214624   0.695   5.575   6.880 -0.1530  0.1500  0.3394
 2659poe    c2314625   0.554   5.564   6.880 -0.1184 -0.2802  0.5372
 2659poe    c2314626   0.505   5.443   6.799  0.3371 -0.0198 -0.1360
 2659poe     o214627   0.509   5.479   6.663 -0.7253  0.0624 -0.1579
 2659poe    c3114628   0.518   5.359   6.590 -0.1125 -0.1473  0.2583
 2660poe    c3114629   0.977   0.089   5.794  0.3026 -0.0917 -0.0927
 2660poe     o214630   0.842   0.130   5.792  0.3074 -0.0509  0.3228
 2660poe    c2314631   0.851   0.241   5.878  0.1098  0.2231 -0.0106
 2660poe    c2314632   0.725   0.330   5.885 -0.1451 -0.1522  0.1917
 2660poe     o214633   0.681   0.378   5.760  0.0939 -0.0244  0.1570
 2660poe    c2314634   0.552   0.428   5.787  0.1666  0.3592 -0.1806
 2660poe    c2314635   0.468   0.488   5.672  0.0869 -0.1994 -0.4196
 2660poe     o214636   0.483   0.628   5.662  0.1196 -0.1790 -0.1168
 2660poe    c2314637   0.364   0.690   5.620  0.3739  0.2581 -0.1939
 2660poe    c2314638   0.389   0.841   5.598 -0.2458  0.3808 -0.0758
 2660poe     o214639   0.511   0.864   5.531  0.5007  0.0111  1.1291
 2660poe    c3114640   0.535   1.002   5.522 -0.7839  0.2067  0.5500
 2661poe    c3114641   4.602   3.962   4.754  0.4518 -0.0480 -0.3808
 2661poe     o214642   4.640   4.087   4.701 -0.3480  0.2628 -0.2277
 2661poe    c2314643   4.765   4.116   4.758 -0.2338 -0.3654 -0.1483
 2661poe    c2314644   4.803   4.246   4.684  0.3655 -0.0231  0.7413
 2661poe     o214645   4.687   4.325   4.695  0.3040  0.0134 -0.1214
 2661poe    c2314646   4.706   4.460   4.657 -0.0838 -0.0142 -0.4184
 2661poe    c2314647   4.602   4.552   4.724 -0.0050 -0.2747  0.0630
 2661poe     o214648   4.472   4.513   4.685 -0.0124 -0.4034  0.2130
 2661poe    c2314649   4.374   4.601   4.736  0.3573  0.0940  0.0782
 2661poe    c2314650   4.234   4.537   4.725  0.6176 -0.5689  0.5789
 2661poe     o214651   4.221   4.422   4.806 -0.2406 -0.8358  0.0780
 2661poe    c3114652   4.085   4.399   4.835 -0.5320  0.3612 -0.2742
 2662poe    c3114653   4.571   1.699   1.015 -0.4011  0.2202 -0.2220
 2662poe     o214654   4.498   1.590   0.962  0.0881 -0.2781  0.1163
 2662poe    c2314655   4.533   1.464   1.015  0.3602 -0.1801  0.1728
 2662poe    c2314656   4.498   1.350   0.919  0.1255  0.1141 -0.0918
 2662poe     o214657   4.368   1.354   0.863 -0.0189  0.0029  0.2367
 2662poe    c2314658   4.282   1.250   0.905  0.1757 -0.2345  0.0512
 2662poe    c2314659   4.144   1.258   0.837  0.1746 -0.0249  0.0756
 2662poe     o214660   4.067   1.371   0.871  0.3607  0.0898  0.1132
 2662poe    c2314661   3.934   1.353   0.829  0.4319  0.4117 -0.2596
 2662poe    c2314662   3.845   1.477   0.844 -0.0993  0.0002  0.0454
 2662poe     o214663   3.851   1.592   0.762  0.9065  0.4282  0.7004
 2662poe    c3114664   3.777   1.698   0.818 -0.2325  0.1063 -0.1728
 2663poe    c3114665   7.045   0.733   0.314  0.0994  0.2677  0.3053
 2663poe     o214666   6.948   0.753   0.415 -0.0894  0.3236  0.1141
 2663poe    c2314667   6.846   0.658   0.431  0.3134 -0.0644  0.3760
 2663poe    c2314668   6.728   0.693   0.339  0.7863  0.7812  0.0835
 2663poe     o214669   6.722   0.648   0.206 -0.0592 -0.1378  0.4213
 2663poe    c2314670   6.589   0.639   0.160 -0.1037  0.1994  0.4822
 2663poe    c2314671   6.537   0.767   0.093 -0.0156 -0.1333 -0.2308
 2663poe     o214672   6.484   0.860   0.185  0.5056 -0.2436  0.1866
 2663poe    c2314673   6.454   0.986   0.129 -0.5140 -0.4845  0.1725
 2663poe    c2314674   6.444   1.095   0.237 -0.2621  0.0187 -0.3070
 2663poe     o214675   6.569   1.141   0.283 -0.0427 -0.3444 -0.5448
 2663poe    c3114676   6.562   1.211   0.405  0.1210  0.5753 -1.0553
 2664poe    c3114677   5.542   3.018   3.182 -0.0627 -0.1032 -0.2145
 2664poe     o214678   5.643   2.924   3.209 -0.0556 -0.0696 -0.1229
 2664poe    c2314679   5.633   2.821   3.113  0.4508 -0.3588  0.1257
 2664poe    c2314680   5.763   2.741   3.100  0.3993 -0.3949 -0.1950
 2664poe     o214681   5.809   2.692   3.225  0.2135 -0.3772 -0.1196
 2664poe    c2314682   5.945   2.654   3.226  0.3614  0.1231 -0.3671
 2664poe    c2314683   5.980   2.630   3.374 -0.4769  0.3921 -0.1197
 2664poe     o214684   5.966   2.755   3.438  0.4890  0.6482 -0.4034
 2664poe    c2314685   6.045   2.759   3.554 -0.5513  0.1465  0.3331
 2664poe    c2314686   6.055   2.904   3.604 -0.1441  0.3253 -0.2607
 2664poe     o214687   6.155   2.954   3.519  0.4790 -0.1282  0.1997
 2664poe    c3114688   6.148   3.094   3.536 -0.1084 -0.1733  0.3466
 2665poe    c3114689   3.865   1.898   2.432 -0.5428  0.1965  0.0547
 2665poe     o214690   3.944   2.012   2.460  0.3962 -0.4970  0.2880
 2665poe    c2314691   4.073   1.972   2.420  0.2472 -0.6470 -0.0433
 2665poe    c2314692   4.167   2.094   2.419 -0.3936 -0.1504  0.2732
 2665poe     o214693   4.203   2.123   2.552 -0.5004 -0.0244  0.2758
 2665poe    c2314694   4.272   2.246   2.558 -0.0614 -0.2346 -0.3442
 2665poe    c2314695   4.236   2.328   2.683  0.0157 -0.4870 -0.1568
 2665poe     o214696   4.098   2.346   2.708  0.1384 -0.2549  0.3731
 2665poe    c2314697   4.074   2.484   2.698 -0.2755 -0.3831 -0.4806
 2665poe    c2314698   3.936   2.521   2.755  0.2374  0.4751  0.2523
 2665poe     o214699   3.824   2.457   2.697  0.2240  0.4894  0.2624
 2665poe    c3114700   3.707   2.501   2.762 -0.4696 -0.8216 -0.0534
 2666poe    c3114701   3.086   6.528   0.707  0.2565  0.2487 -0.4674
 2666poe     o214702   3.211   6.520   0.772 -0.4604  0.0625  0.9416
 2666poe    c2314703   3.249   6.653   0.802  0.6755  0.0659 -0.4278
 2666poe    c2314704   3.366   6.650   0.901 -0.0063 -0.2241  0.3772
 2666poe     o214705   3.463   6.562   0.847  0.1642  0.2430 -0.0804
 2666poe    c2314706   3.544   6.510   0.950 -0.3912 -0.3888  0.0426
 2666poe    c2314707   3.646   6.415   0.883 -0.0141  0.2205 -0.2545
 2666poe     o214708   3.579   6.331   0.792 -0.0334  0.2857 -0.3008
 2666poe    c2314709   3.673   6.240   0.739 -0.1563 -0.2683  0.4227
 2666poe    c2314710   3.601   6.142   0.644 -0.2441  0.1786  0.0243
 2666poe     o214711   3.526   6.200   0.541  0.1596 -0.0661 -0.4130
 2666poe    c3114712   3.461   6.102   0.464  0.1642 -0.2689 -0.1580
 2667poe    c3114713   1.111   3.785   2.500 -0.0217  0.0870 -0.5763
 2667poe     o214714   1.216   3.769   2.408  0.0643 -0.1972 -0.4305
 2667poe    c2314715   1.281   3.886   2.365  0.0681  0.0486  0.2348
 2667poe    c2314716   1.392   3.857   2.261  0.0270  0.7752 -0.0224
 2667poe     o214717   1.489   3.777   2.324 -0.0687  0.6213 -0.0685
 2667poe    c2314718   1.555   3.692   2.233 -0.1698 -0.0592  0.4802
 2667poe    c2314719   1.689   3.651   2.295  0.1320 -0.2597 -0.2967
 2667poe     o214720   1.651   3.592   2.417  0.0735 -0.4395 -0.4007
 2667poe    c2314721   1.759   3.571   2.505 -0.1801  0.0859  0.0481
 2667poe    c2314722   1.713   3.498   2.633  0.1801  0.3965  0.3583
 2667poe     o214723   1.585   3.549   2.663  0.0500  0.2756  0.0116
 2667poe    c3114724   1.509   3.480   2.760  0.4930  0.3180  0.3905
 2668poe    c3114725   1.453   2.500   1.622 -0.1514  0.5140 -0.6653
 2668poe     o214726   1.563   2.575   1.577  0.6282 -0.0507  0.2700
 2668poe    c2314727   1.539   2.713   1.593 -0.1403 -0.1851  0.2871
 2668poe    c2314728   1.675   2.776   1.629  0.0183 -0.1803 -0.3077
 2668poe     o214729   1.769   2.759   1.526  0.3249  0.0048 -0.0603
 2668poe    c2314730   1.899   2.798   1.565  0.4577 -0.4949 -0.0015
 2668poe    c2314731   1.999   2.790   1.448 -0.0307 -0.0283 -0.4562
 2668poe     o214732   2.009   2.663   1.387  0.4018 -0.3100  0.1939
 2668poe    c2314733   2.097   2.656   1.278 -0.2862  0.2187 -0.4096
 2668poe    c2314734   2.106   2.516   1.215 -0.3846  0.1326 -0.2326
 2668poe     o214735   2.159   2.406   1.286 -0.0338  0.3771 -0.1143
 2668poe    c3114736   2.296   2.415   1.316 -0.1112  0.2278  0.2914
 2669poe    c3114737   0.030   3.474   2.410 -0.8224  0.3173  0.2713
 2669poe     o214738   0.104   3.370   2.471 -0.0960  0.5324 -0.2330
 2669poe    c2314739   0.163   3.406   2.594 -0.3182 -0.0467  0.0459
 2669poe    c2314740   0.256   3.291   2.636 -0.0117  0.3929  0.6016
 2669poe     o214741   0.176   3.178   2.607  0.2737  0.2681  0.2930
 2669poe    c2314742   0.256   3.063   2.592 -0.0690  0.1128 -0.3559
 2669poe    c2314743   0.155   2.951   2.559  0.3702 -0.4486  0.1738
 2669poe     o214744   0.055   2.990   2.467  0.2658 -0.6954  0.1816
 2669poe    c2314745  -0.007   2.872   2.423  0.2169 -0.5100 -0.2516
 2669poe    c2314746  -0.087   2.888   2.292 -0.0997  0.3146  0.0411
 2669poe     o214747  -0.005   2.955   2.199  0.0322  0.2423  0.1045
 2669poe    c3114748  -0.069   2.937   2.074  0.0367  0.1895  0.1104
 2670poe    c3114749   1.462   4.280   5.028  0.3124  0.3143  0.2214
 2670poe     o214750   1.321   4.280   5.031  0.3041 -0.0385 -0.1263
 2670poe    c2314751   1.280   4.148   5.057  0.0354  0.1492  0.4135
 2670poe    c2314752   1.135   4.133   5.108 -0.1095 -0.9118 -0.2634
 2670poe     o214753   1.026   4.143   5.019 -0.5355 -0.1873  0.3265
 2670poe    c2314754   0.959   4.265   4.997  0.0091  0.0147 -0.2296
 2670poe    c2314755   0.806   4.258   4.988  0.0319 -0.0382 -0.5967
 2670poe     o214756   0.756   4.187   4.876  0.1691 -0.1375 -0.5947
 2670poe    c2314757   0.616   4.187   4.867  0.1284  0.0828 -0.0105
 2670poe    c2314758   0.560   4.132   4.735  0.2043  0.0513 -0.0295
 2670poe     o214759   0.559   3.991   4.731  0.1126  0.0542 -0.1330
 2670poe    c3114760   0.589   3.941   4.603 -0.7412 -0.3618 -0.1743
 2671poe    c3114761   1.880   6.254   6.793 -0.6647 -0.1553 -0.0657
 2671poe     o214762   1.836   6.127   6.836 -0.3673 -0.2437 -0.0222
 2671poe    c2314763   1.742   6.078   6.744 -0.3532  0.4197 -0.3917
 2671poe    c2314764   1.655   5.971   6.811  0.0960  0.4961  0.3206
 2671poe     o214765   1.718   5.845   6.822 -0.0835  0.3692 -0.0899
 2671poe    c2314766   1.648   5.759   6.908  0.1381  0.1591 -0.1215
 2671poe    c2314767   1.691   5.611   6.922 -0.3779  0.0379  0.2330
 2671poe     o214768   1.821   5.591   6.972 -0.3298 -0.3413 -0.0414
 2671poe    c2314769   1.846   5.457   7.009  0.4791 -0.1934 -0.0361
 2671poe    c2314770   1.987   5.446   7.069  0.3442  0.1337  0.3408
 2671poe     o214771   2.082   5.477   6.970  0.1499  0.1510  0.1600
 2671poe    c3114772   2.204   5.409   6.988 -0.1030 -0.3839 -0.1040
 2672poe    c3114773   1.860   4.049   4.296  0.2879  0.3474 -0.2264
 2672poe     o214774   1.726   4.085   4.271  0.3377  0.6517 -0.0586
 2672poe    c2314775   1.711   4.160   4.152 -0.1832  0.1637 -0.3087
 2672poe    c2314776   1.692   4.082   4.021  0.4061 -0.6183  0.0640
 2672poe     o214777   1.592   3.984   4.026 -0.6593  0.4717  0.6532
 2672poe    c2314778   1.540   3.950   3.899  0.3830 -0.1278  0.3730
 2672poe    c2314779   1.466   3.815   3.905 -0.6333  0.3896 -0.3465
 2672poe     o214780   1.356   3.813   3.993  0.0237  0.1033  0.4773
 2672poe    c2314781   1.322   3.684   4.040  0.4058  0.0054  0.4862
 2672poe    c2314782   1.198   3.696   4.130 -0.2104 -0.0014 -0.3403
 2672poe     o214783   1.205   3.789   4.236  0.2253 -0.2605 -0.1353
 2672poe    c3114784   1.124   3.750   4.345  0.2320  0.6830  0.2153
 2673poe    c3114785   6.826   6.564   0.131 -0.2382 -0.1326  0.3548
 2673poe     o214786   6.934   6.582   0.219  0.1268 -0.4063 -0.0312
 2673poe    c2314787   6.971   6.718   0.222 -0.7675 -0.1527 -0.2698
 2673poe    c2314788   7.109   6.734   0.289 -0.8371 -0.3058 -0.0899
 2673poe     o214789   7.093   6.649   0.401 -0.0322 -0.2669  0.0576
 2673poe    c2314790   7.194   6.684   0.493 -0.0225  0.0481 -0.0698
 2673poe    c2314791   7.153   6.588   0.606 -0.3500 -0.4943 -0.6394
 2673poe     o214792   7.140   6.457   0.556 -0.3075 -0.5636 -0.4692
 2673poe    c2314793   7.103   6.371   0.661 -0.3207 -0.0819 -0.0726
 2673poe    c2314794   7.087   6.225   0.613  0.0198 -0.2091  0.1994
 2673poe     o214795   6.995   6.217   0.507 -0.0136  0.1398  0.2008
 2673poe    c3114796   6.979   6.089   0.451 -0.5239  0.1688  0.2767
 2674poe    c3114797   4.274   4.243   5.340  0.2099  0.4018 -0.1182
 2674poe     o214798   4.176   4.290   5.431 -0.2092 -0.1336 -0.2896
 2674poe    c2314799   4.182   4.222   5.555  0.0408 -0.0373 -0.2483
 2674poe    c2314800   4.068   4.261   5.650  0.3211  0.9948 -0.3290
 2674poe     o214801   3.949   4.212   5.593  0.3805 -0.2476  0.5891
 2674poe    c2314802   3.838   4.266   5.661  0.0342 -0.2697  0.0446
 2674poe    c2314803   3.701   4.235   5.597  0.2353 -1.1589  0.0328
 2674poe     o214804   3.697   4.276   5.462  0.5165 -0.6186  0.1832
 2674poe    c2314805   3.585   4.209   5.408  0.1495  0.3394 -0.2623
 2674poe    c2314806   3.545   4.286   5.281  0.4816  0.4963 -0.2736
 2674poe     o214807   3.475   4.403   5.318 -0.6754 -0.2882  0.0553
 2674poe    c3114808   3.456   4.502   5.220  0.4654 -0.6057 -0.4961
 2675poe    c3114809   0.094   5.414   1.585  0.6051 -0.5854  0.2656
 2675poe     o214810   0.074   5.390   1.723  0.3429 -0.0074  0.3343
 2675poe    c2314811  -0.034   5.303   1.747 -0.1579  0.6522  0.4978
 2675poe    c2314812  -0.070   5.284   1.896  0.1911  0.1383  0.5188
 2675poe     o214813  -0.111   5.411   1.939 -0.2174  0.2017 -0.0411
 2675poe    c2314814  -0.168   5.396   2.067  0.5987  0.2285  0.3323
 2675poe    c2314815  -0.318   5.432   2.070  0.5163 -0.0643 -0.2142
 2675poe     o214816  -0.329   5.568   2.035 -0.7049 -0.1488 -0.2216
 2675poe    c2314817  -0.457   5.624   2.048 -0.4565  0.3773 -0.0131
 2675poe    c2314818  -0.449   5.774   2.016  0.0924  0.5188  0.7561
 2675poe     o214819  -0.378   5.782   1.894 -0.3365  0.0399  0.4722
 2675poe    c3114820  -0.391   5.913   1.845 -0.2140 -0.1467 -0.0588
 2676poe    c3114821   6.683   5.561   4.758 -0.1961  0.2086  0.0968
 2676poe     o214822   6.740   5.593   4.883 -0.1998  0.2579  0.0861
 2676poe    c2314823   6.654   5.563   4.991 -0.2884 -0.2941 -0.1359
 2676poe    c2314824   6.732   5.590   5.120 -0.1151  0.0294 -0.3063
 2676poe     o214825   6.870   5.570   5.096 -0.1714 -0.5567 -0.1729
 2676poe    c2314826   6.957   5.566   5.207 -0.3390  0.4965  0.0125
 2676poe    c2314827   7.095   5.607   5.150 -0.2268 -0.5190 -0.4728
 2676poe     o214828   7.062   5.721   5.075  0.2112 -0.0570  0.0321
 2676poe    c2314829   7.157   5.822   5.103 -0.0918  0.1218  0.4173
 2676poe    c2314830   7.170   5.949   5.016  0.0321 -0.1233  0.0763
 2676poe     o214831   7.050   6.022   5.022  0.1360  0.0605 -0.0648
 2676poe    c3114832   7.067   6.157   4.987 -0.1766  0.1886  0.2678
 2677poe    c3114833   4.126   7.008   2.251 -0.7208 -0.4645 -0.0972
 2677poe     o214834   4.061   7.056   2.136 -0.1357 -0.2183 -0.3279
 2677poe    c2314835   4.141   7.148   2.064 -0.2452  0.0593 -0.0996
 2677poe    c2314836   4.047   7.251   1.998 -0.2476  0.3763  0.3973
 2677poe     o214837   3.977   7.336   2.086 -0.9978 -0.0000  0.1717
 2677poe    c2314838   3.878   7.391   2.002 -0.4727 -0.1690 -0.5684
 2677poe    c2314839   3.816   7.523   2.053  0.1493 -0.1864  0.2481
 2677poe     o214840   3.757   7.507   2.180  0.2475  0.0753  0.3275
 2677poe    c2314841   3.744   7.632   2.243  0.3092  0.4223 -0.3374
 2677poe    c2314842   3.688   7.638   2.387  0.2794 -0.3749 -0.3155
 2677poe     o214843   3.776   7.570   2.474 -0.2873 -0.3679  0.2724
 2677poe    c3114844   3.692   7.524   2.577 -0.3970  0.4716  0.5699
 2678poe    c3114845   1.562   0.504   4.491  0.0139 -0.2774  0.5790
 2678poe     o214846   1.425   0.528   4.517 -0.1235  0.0760 -0.4268
 2678poe    c2314847   1.370   0.629   4.435  0.2125  0.4302 -0.2222
 2678poe    c2314848   1.226   0.660   4.480  0.0502  0.1372 -0.5334
 2678poe     o214849   1.140   0.552   4.451  0.1200  0.0863 -0.5499
 2678poe    c2314850   1.006   0.591   4.437 -0.1330 -0.7156 -0.4027
 2678poe    c2314851   0.910   0.471   4.446 -0.9204 -0.0629  0.0370
 2678poe     o214852   0.893   0.430   4.580 -0.0751  0.2629  0.2513
 2678poe    c2314853   0.870   0.290   4.575 -0.1825  0.2791  0.2835
 2678poe    c2314854   0.831   0.222   4.707 -0.1347  0.1906  0.2523
 2678poe     o214855   0.939   0.195   4.794  0.4160  0.2078 -0.4231
 2678poe    c3114856   0.878   0.145   4.910  0.8467  0.0329 -0.2711
 2679poe    c3114857   6.294   1.125   4.016 -0.0439 -0.3359 -0.1065
 2679poe     o214858   6.261   1.074   4.143  0.7124 -0.2470  0.1299
 2679poe    c2314859   6.281   1.173   4.242 -0.9722  0.3100 -0.0375
 2679poe    c2314860   6.251   1.136   4.388 -0.0316 -0.1027  0.0599
 2679poe     o214861   6.112   1.120   4.405 -0.0847  0.2155 -0.0913
 2679poe    c2314862   6.078   1.111   4.541 -0.0445 -0.1716 -0.1060
 2679poe    c2314863   5.930   1.142   4.570  0.0693  0.1623  0.1383
 2679poe     o214864   5.840   1.049   4.512 -0.1549  0.1570  0.4913
 2679poe    c2314865   5.707   1.093   4.525 -0.2983 -0.0715 -0.1841
 2679poe    c2314866   5.609   0.985   4.475  0.1842 -0.5773 -0.0446
 2679poe     o214867   5.618   0.964   4.336  0.1184 -0.0423 -0.1313
 2679poe    c3114868   5.565   0.841   4.292  0.7093 -0.4456  0.2723
 2680poe    c3114869   5.865   3.645   6.938 -0.0129  0.1810 -0.2890
 2680poe     o214870   5.934   3.734   6.852  0.1692  0.1196 -0.2061
 2680poe    c2314871   5.849   3.754   6.742 -0.3225 -0.0482  0.1387
 2680poe    c2314872   5.910   3.695   6.613  0.7565  0.4462  0.4114
 2680poe     o214873   5.913   3.554   6.608 -0.2111  0.4247  0.2205
 2680poe    c2314874   5.982   3.487   6.505 -0.5525 -0.3505  0.4897
 2680poe    c2314875   6.005   3.336   6.529 -0.0805 -0.3417  0.0915
 2680poe     o214876   6.119   3.297   6.602 -0.2034 -0.0531  0.4422
 2680poe    c2314877   6.121   3.163   6.645  0.4009 -0.2324 -0.1224
 2680poe    c2314878   6.010   3.124   6.744  0.2593 -0.1013 -0.2295
 2680poe     o214879   6.002   3.206   6.859  0.5240 -0.0589 -0.2411
 2680poe    c3114880   5.922   3.147   6.959 -0.5155  0.6838 -0.6119
 2681poe    c3114881   6.071   0.743   2.887 -0.6369  0.7229 -0.4753
 2681poe     o214882   6.118   0.867   2.936  0.1505  0.1277  0.3122
 2681poe    c2314883   6.049   0.976   2.880  0.9990  0.1461 -0.7172
 2681poe    c2314884   6.113   1.116   2.894  0.8322  0.1718 -0.2112
 2681poe     o214885   6.093   1.170   3.023  0.1503 -0.2002 -0.1572
 2681poe    c2314886   6.170   1.287   3.037 -0.2889  0.0933 -0.1777
 2681poe    c2314887   6.134   1.380   3.154  0.0105  0.0108 -0.0209
 2681poe     o214888   6.168   1.329   3.281  0.0925 -0.0138 -0.0527
 2681poe    c2314889   6.126   1.412   3.386 -0.1883 -0.4345  0.1712
 2681poe    c2314890   6.188   1.382   3.524 -0.2582  0.3147  0.3704
 2681poe     o214891   6.328   1.390   3.528 -0.2376  0.2192 -0.0936
 2681poe    c3114892   6.381   1.353   3.654 -0.8858 -0.2705  0.0384
 2682poe    c3114893   5.452   2.132   6.397 -0.0419 -0.2621 -0.0247
 2682poe     o214894   5.520   2.056   6.494  0.8320 -0.0848 -0.4833
 2682poe    c2314895   5.541   1.919   6.465  0.1122 -0.2292 -0.3665
 2682poe    c2314896   5.674   1.909   6.388  0.0390 -0.0249 -0.5229
 2682poe     o214897   5.778   1.939   6.479  0.2813 -0.0897 -0.7754
 2682poe    c2314898   5.905   1.899   6.433  0.3957 -0.3731 -0.2127
 2682poe    c2314899   6.016   1.947   6.529 -0.0861  0.1672  0.0793
 2682poe     o214900   6.002   2.087   6.536 -0.7238  0.0955  0.3826
 2682poe    c2314901   6.092   2.146   6.627  0.4272 -0.3453 -0.4454
 2682poe    c2314902   6.067   2.298   6.621  0.4754 -0.2959  0.5143
 2682poe     o214903   5.926   2.311   6.631  0.4625 -0.0251 -0.0040
 2682poe    c3114904   5.896   2.448   6.638  0.2221 -0.0961  0.3457
 2683poe    c3114905   6.697   0.167   6.606  0.6336  0.6740  0.0041
 2683poe     o214906   6.769   0.104   6.502  0.0246 -0.1555  0.0763
 2683poe    c2314907   6.833  -0.016   6.539  0.7048  0.2255  0.1440
 2683poe    c2314908   6.873  -0.108   6.422  0.7135 -0.9887  1.0816
 2683poe     o214909   6.769  -0.193   6.380  0.0360  0.0540  0.5878
 2683poe    c2314910   6.758  -0.309   6.459  0.3248  0.4241  1.1781
 2683poe    c2314911   6.611  -0.356   6.460  0.4942 -0.1770 -0.1944
 2683poe     o214912   6.570  -0.401   6.333 -0.6821  0.2944  0.0097
 2683poe    c2314913   6.441  -0.459   6.330 -0.5971  0.0976  0.1192
 2683poe    c2314914   6.381  -0.483   6.190  0.1954  0.1718 -0.2430
 2683poe     o214915   6.469  -0.567   6.120  0.4346  0.1385  0.0926
 2683poe    c3114916   6.409  -0.689   6.083 -0.2004  0.5572 -0.2839
 2684poe    c3114917   3.310   2.255   0.957 -0.1490  0.0681  0.1902
 2684poe     o214918   3.200   2.173   0.988  0.2203 -0.2959  0.5446
 2684poe    c2314919   3.219   2.045   0.931 -0.5444 -0.2540  0.1905
 2684poe    c2314920   3.110   1.942   0.965 -0.4847 -0.5165 -0.4014
 2684poe     o214921   3.109   1.918   1.104 -0.2142 -0.3851 -0.3752
 2684poe    c2314922   3.012   1.819   1.130 -0.2812 -0.0885  0.5541
 2684poe    c2314923   3.020   1.747   1.265  0.1415 -0.6533  0.2294
 2684poe     o214924   2.965   1.809   1.379  0.5492  0.3512 -0.1132
 2684poe    c2314925   2.986   1.729   1.493  0.0194  0.3458 -0.0151
 2684poe    c2314926   2.958   1.784   1.634 -0.0106 -0.4496  0.2942
 2684poe     o214927   2.991   1.920   1.653  0.3409 -0.5691  0.5430
 2684poe    c3114928   2.962   1.980   1.776 -0.5074  0.1401  0.0052
 2685poe    c3114929   5.974   2.785   2.559 -0.2592  0.3062  0.4907
 2685poe     o214930   5.899   2.706   2.470  0.5693  0.0096  0.0478
 2685poe    c2314931   5.822   2.610   2.539  0.2506  0.0157 -0.2970
 2685poe    c2314932   5.724   2.551   2.436  0.1662  0.3638 -0.4179
 2685poe     o214933   5.624   2.637   2.386 -0.1754 -0.0354 -0.4314
 2685poe    c2314934   5.500   2.572   2.373 -0.3396  0.2285 -0.2102
 2685poe    c2314935   5.411   2.680   2.309 -0.1447  0.5735  0.0963
 2685poe     o214936   5.449   2.801   2.369  0.3798  0.2383  0.4415
 2685poe    c2314937   5.354   2.901   2.341  0.6790  0.4229  0.0884
 2685poe    c2314938   5.406   3.044   2.366  0.0922  0.5649  0.4909
 2685poe     o214939   5.510   3.073   2.276 -0.4038  0.0782 -0.2437
 2685poe    c3114940   5.545   3.209   2.276 -0.0920 -0.0029 -0.1716
 2686poe    c3114941   4.995   4.066   0.857 -0.5398  0.0145 -0.2594
 2686poe     o214942   5.032   4.183   0.926  0.0966 -0.1242 -0.3544
 2686poe    c2314943   4.930   4.281   0.929  0.1172 -0.1101 -0.1354
 2686poe    c2314944   4.927   4.368   1.055  0.1068  0.1001 -0.2810
 2686poe     o214945   5.024   4.469   1.075 -0.1506  0.2185  0.3854
 2686poe    c2314946   5.029   4.506   1.212 -0.1084  0.5828  0.2874
 2686poe    c2314947   5.146   4.605   1.229 -0.2297  0.8156 -0.1923
 2686poe     o214948   5.274   4.553   1.198 -0.5651 -0.2445  0.1539
 2686poe    c2314949   5.378   4.648   1.207 -0.1776 -0.6582  0.0646
 2686poe    c2314950   5.453   4.636   1.341 -0.4261 -0.1872  0.2484
 2686poe     o214951   5.532   4.519   1.342  0.3904  0.3456 -0.1055
 2686poe    c3114952   5.578   4.491   1.472  0.3262 -0.1136 -0.1782
 2687poe    c3114953   3.385   2.160   0.456  0.0290  0.0138  0.7428
 2687poe     o214954   3.300   2.050   0.438  0.0302  0.1725 -0.2961
 2687poe    c2314955   3.353   1.935   0.500  0.0287 -0.0290 -0.6636
 2687poe    c2314956   3.237   1.842   0.539  0.1079 -0.0671 -0.5176
 2687poe     o214957   3.155   1.781   0.442 -0.0431 -0.9493  0.1544
 2687poe    c2314958   3.023   1.750   0.482 -0.3257 -0.3208 -0.2769
 2687poe    c2314959   2.924   1.866   0.505  0.3820  0.2721 -0.1748
 2687poe     o214960   2.900   1.934   0.384 -0.2396  0.2346 -0.0750
 2687poe    c2314961   2.788   2.018   0.406 -0.4859 -0.0511 -0.2275
 2687poe    c2314962   2.712   2.040   0.275 -0.2841 -0.4932 -0.4218
 2687poe     o214963   2.778   2.131   0.189 -0.2188  0.0347  0.1747
 2687poe    c3114964   2.684   2.185   0.098 -0.4494  0.0354  0.4129
 2688poe    c3114965   6.019   6.983   4.864  0.1606 -0.3395  0.2044
 2688poe     o214966   6.051   6.982   4.727  0.5792  0.0024  0.2957
 2688poe    c2314967   6.179   6.929   4.699  0.2516 -0.3230 -0.6487
 2688poe    c2314968   6.187   6.926   4.546  0.1060  0.0052 -0.6637
 2688poe     o214969   6.066   6.887   4.485  0.0223 -0.2365 -0.3461
 2688poe    c2314970   6.062   6.755   4.437  0.1899 -0.3547 -0.0365
 2688poe    c2314971   5.945   6.747   4.337  0.1858 -0.4611 -0.0226
 2688poe     o214972   5.846   6.807   4.417 -0.0781 -0.5440 -0.2838
 2688poe    c2314973   5.720   6.775   4.362 -0.0861 -0.5529 -0.2598
 2688poe    c2314974   5.605   6.855   4.426  0.1001 -0.1213 -0.4566
 2688poe     o214975   5.597   6.819   4.563  0.0783  0.0745 -0.4072
 2688poe    c3114976   5.495   6.887   4.633 -0.0744  0.1382 -0.6882
 2689poe    c3114977   0.477   5.612   3.238  0.3185  0.2219  0.3344
 2689poe     o214978   0.539   5.509   3.312  0.1215 -0.5771 -0.5912
 2689poe    c2314979   0.466   5.389   3.300 -0.6087 -0.2934  0.7760
 2689poe    c2314980   0.535   5.280   3.386 -0.2235 -0.1915  0.5983
 2689poe     o214981   0.662   5.282   3.324 -0.3305  0.0037  0.3783
 2689poe    c2314982   0.766   5.217   3.394 -0.3289 -0.8626 -0.4062
 2689poe    c2314983   0.902   5.223   3.321  0.0966 -0.0484  0.4243
 2689poe     o214984   0.926   5.359   3.296  0.1389 -0.2532 -0.6631
 2689poe    c2314985   1.046   5.372   3.222  0.4495 -0.1151 -0.1364
 2689poe    c2314986   1.082   5.516   3.182  0.5099 -0.2787 -0.6777
 2689poe     o214987   1.101   5.588   3.302  0.2456 -0.5836 -0.4514
 2689poe    c3114988   1.113   5.722   3.260 -0.6334 -0.3962 -0.1212
 2690poe    c3114989   2.594   1.268   1.595 -0.3723  0.4599  0.3955
 2690poe     o214990   2.697   1.208   1.520 -0.2477  0.6076  0.4478
 2690poe    c2314991   2.804   1.283   1.466 -0.0378 -0.1928 -0.2826
 2690poe    c2314992   2.773   1.374   1.346 -0.1317  0.2470  0.0710
 2690poe     o214993   2.771   1.319   1.216  0.0366 -0.2137  0.2645
 2690poe    c2314994   2.756   1.408   1.108 -0.2812  0.0655  0.5377
 2690poe    c2314995   2.707   1.344   0.977 -0.6448  1.1335  0.1371
 2690poe     o214996   2.579   1.287   0.994 -0.4213  0.5977  0.0600
 2690poe    c2314997   2.530   1.256   0.866 -0.0180 -0.4442  0.1489
 2690poe    c2314998   2.402   1.172   0.888 -0.3082 -0.0046  0.1625
 2690poe     o214999   2.425   1.037   0.922 -0.3651 -0.0602 -0.0205
 2690poe    c3115000   2.307   0.962   0.902 -0.4300  0.0063  0.1190
 2691poe    c3115001   1.509   5.604   1.607 -0.0129 -0.1347 -0.7487
 2691poe     o215002   1.452   5.482   1.648 -0.0731  0.0369 -0.3071
 2691poe    c2315003   1.533   5.422   1.747 -0.0305  0.6686  0.0410
 2691poe    c2315004   1.447   5.307   1.801 -0.1126  0.4958 -0.4493
 2691poe     o215005   1.386   5.241   1.692 -0.6267 -0.3261  0.3284
 2691poe    c2315006   1.302   5.134   1.729  0.1025 -0.9308  0.2659
 2691poe    c2315007   1.265   5.060   1.599  0.1099 -0.0782 -0.2242
 2691poe     o215008   1.221   5.145   1.495 -0.1839  0.0063 -0.0312
 2691poe    c2315009   1.174   5.069   1.386 -0.3848  0.3993 -0.2213
 2691poe    c2315010   1.108   5.158   1.279 -0.6174  0.0995 -0.3270
 2691poe     o215011   1.180   5.271   1.236  0.1447 -0.3630 -0.2975
 2691poe    c3115012   1.097   5.348   1.151 -0.1636  0.1772  0.4679
 2692poe    c3115013   6.732   0.978   6.270 -0.3295  0.1147 -0.1554
 2692poe     o215014   6.593   0.986   6.292 -0.3027  0.4156 -0.0949
 2692poe    c2315015   6.550   0.871   6.362 -0.5072  0.5642  0.0219
 2692poe    c2315016   6.407   0.898   6.415 -0.3711  0.9934  0.1793
 2692poe     o215017   6.326   0.937   6.306 -0.0362  0.4360 -0.2795
 2692poe    c2315018   6.205   0.984   6.359  0.1324  0.0596  0.4474
 2692poe    c2315019   6.132   1.059   6.246  0.1852 -0.1469  0.2769
 2692poe     o215020   6.225   1.147   6.187  0.4432 -0.3857  0.3198
 2692poe    c2315021   6.159   1.258   6.128  0.5963 -0.2617  0.3798
 2692poe    c2315022   6.251   1.343   6.040 -0.0366  0.1389  0.1052
 2692poe     o215023   6.355   1.409   6.107  0.0960 -0.0018  0.0385
 2692poe    c3115024   6.312   1.538   6.144 -0.1622 -0.0033 -0.2561
 2693poe    c3115025   3.330   2.687   1.017  0.3053 -0.4328 -0.3109
 2693poe     o215026   3.391   2.814   1.007 -0.5545 -0.0117 -0.2782
 2693poe    c2315027   3.430   2.817   0.872 -0.1491 -0.4301 -0.1746
 2693poe    c2315028   3.568   2.878   0.838 -0.1691 -0.0996  0.3312
 2693poe     o215029   3.657   2.811   0.924 -0.0107 -0.0029  0.2428
 2693poe    c2315030   3.792   2.849   0.917 -0.1323  0.3717 -0.0770
 2693poe    c2315031   3.874   2.798   1.037  0.1819  0.4134 -0.2725
 2693poe     o215032   4.005   2.757   1.003  0.1140  0.0903 -0.1519
 2693poe    c2315033   4.065   2.695   1.115 -0.2140 -0.1055 -0.0838
 2693poe    c2315034   4.162   2.579   1.087  0.0081  0.0638 -0.0163
 2693poe     o215035   4.296   2.597   1.046  0.1404 -0.0616  0.3539
 2693poe    c3115036   4.372   2.480   1.067 -0.2755 -0.3927  0.0221
 2694poe    c3115037   2.987   5.975   6.956  0.7975  0.0160  0.2682
 2694poe     o215038   3.093   5.953   6.865  0.8020  0.1828  0.2326
 2694poe    c2315039   3.131   5.817   6.874 -0.0659 -0.1302 -0.6764
 2694poe    c2315040   3.249   5.784   6.781  0.1218 -0.2866 -0.3812
 2694poe     o215041   3.358   5.866   6.817 -0.5682  0.4252  0.1198
 2694poe    c2315042   3.471   5.864   6.732 -0.4434  0.1488  0.2921
 2694poe    c2315043   3.447   5.940   6.600  0.4533 -0.1641 -0.0610
 2694poe     o215044   3.407   6.073   6.626  0.4486 -0.0751 -0.5238
 2694poe    c2315045   3.441   6.160   6.520  0.1060  0.4195 -0.2321
 2694poe    c2315046   3.406   6.307   6.548  0.0078  0.3870 -0.1829
 2694poe     o215047   3.483   6.368   6.649  0.2987 -0.0967 -0.1100
 2694poe    c3115048   3.454   6.506   6.653 -0.6651 -0.3012  0.2515
 2695poe    c3115049   5.603   6.862   0.256  0.4134 -0.0975  0.5169
 2695poe     o215050   5.582   6.723   0.261  0.2916 -0.1005 -0.0394
 2695poe    c2315051   5.683   6.666   0.342  0.2666 -0.0647  0.0175
 2695poe    c2315052   5.675   6.513   0.345  0.3469 -0.0636  0.2996
 2695poe     o215053   5.716   6.457   0.222 -0.1071 -0.3289  0.2684
 2695poe    c2315054   5.676   6.323   0.198  0.0364 -0.3001 -0.1405
 2695poe    c2315055   5.711   6.279   0.055  0.2994  0.4275 -0.3062
 2695poe     o215056   5.632   6.345  -0.042  0.0512  0.1716 -0.2794
 2695poe    c2315057   5.646   6.257  -0.151 -0.4091 -0.3254  0.0566
 2695poe    c2315058   5.582   6.312  -0.280 -0.1068 -0.3130 -0.0886
 2695poe     o215059   5.609   6.450  -0.296 -0.4865 -0.1513  0.5991
 2695poe    c3115060   5.534   6.504  -0.402 -0.0902  0.0537  0.4183
 2696poe    c3115061   0.454   3.748   2.136 -0.1172  0.2106 -0.3233
 2696poe     o215062   0.548   3.674   2.211 -0.0121  0.3768 -0.2884
 2696poe    c2315063   0.673   3.739   2.215  0.0952  0.1466  0.1851
 2696poe    c2315064   0.779   3.653   2.286 -0.1887 -0.1943  0.1999
 2696poe     o215065   0.811   3.541   2.206  0.0101 -0.2296  0.3302
 2696poe    c2315066   0.918   3.551   2.114  0.0827 -0.4771  0.3856
 2696poe    c2315067   1.060   3.588   2.160  0.1653  0.2269 -0.4243
 2696poe     o215068   1.123   3.489   2.239  0.1208 -0.2763 -1.0148
 2696poe    c2315069   1.244   3.463   2.171  0.7427  0.0607 -0.0598
 2696poe    c2315070   1.305   3.329   2.217  0.5596  0.0500  0.1535
 2696poe     o215071   1.361   3.354   2.344  0.0476  0.2962  0.3318
 2696poe    c3115072   1.441   3.241   2.371  0.0803  0.2846  0.1890
 2697poe    c3115073   1.545   1.351   4.850  0.4288 -0.2430 -0.1451
 2697poe     o215074   1.618   1.460   4.901 -0.2181  0.1877 -0.1183
 2697poe    c2315075   1.748   1.408   4.920 -0.2677  0.2104  0.3125
 2697poe    c2315076   1.834   1.524   4.975 -0.4365  0.2907  0.4052
 2697poe     o215077   1.755   1.628   5.029 -0.2035  0.5248  0.2975
 2697poe    c2315078   1.834   1.725   5.094  0.3610  0.1047  0.2451
 2697poe    c2315079   1.735   1.826   5.154 -0.1683 -0.2293 -0.0613
 2697poe     o215080   1.617   1.828   5.077 -0.4017  0.4812  0.3054
 2697poe    c2315081   1.559   1.957   5.086 -0.1316  0.6393 -0.1932
 2697poe    c2315082   1.434   1.967   4.996 -0.0496  0.7489 -0.2957
 2697poe     o215083   1.483   1.981   4.864  0.1996  0.1859 -0.2671
 2697poe    c3115084   1.392   2.029   4.768  0.1758 -0.5912 -0.6462
 2698poe    c3115085   2.546   1.338   5.909 -0.2627 -0.2459  0.4036
 2698poe     o215086   2.560   1.197   5.907  0.0704 -0.2080 -0.1268
 2698poe    c2315087   2.669   1.146   5.833  0.0245 -0.2512 -0.1642
 2698poe    c2315088   2.782   1.099   5.926 -0.3222 -0.4302  0.1713
 2698poe     o215089   2.761   0.985   6.005  0.2299 -0.4585  0.2805
 2698poe    c2315090   2.856   0.987   6.109  0.1754 -0.2124  0.3254
 2698poe    c2315091   2.832   0.867   6.202  0.4375 -0.4599  0.0772
 2698poe     o215092   2.706   0.873   6.265  0.4333  0.7437 -0.0275
 2698poe    c2315093   2.697   0.776   6.367  0.1147  0.7187 -0.0779
 2698poe    c2315094   2.564   0.807   6.439 -0.1796 -0.3467 -0.1391
 2698poe     o215095   2.466   0.842   6.344  0.3452  0.6608 -0.3249
 2698poe    c3115096   2.346   0.884   6.404  0.2017  0.0998 -0.2185
 2699poe    c3115097   4.200   3.410   5.394 -0.1627  0.7083  0.4469
 2699poe     o215098   4.313   3.485   5.430  0.5015 -0.0986  0.0691
 2699poe    c2315099   4.388   3.429   5.535 -0.3500 -0.1904  0.6379
 2699poe    c2315100   4.521   3.506   5.528 -0.4493 -0.0477  0.3066
 2699poe     o215101   4.535   3.520   5.388 -0.1005  0.4341  0.3862
 2699poe    c2315102   4.641   3.606   5.353 -0.0799  0.3733  0.2997
 2699poe    c2315103   4.658   3.599   5.200  0.2706 -0.0167  0.3570
 2699poe     o215104   4.525   3.620   5.161  0.2241 -0.6168  0.1766
 2699poe    c2315105   4.510   3.613   5.021 -0.0289  0.7953  0.1195
 2699poe    c2315106   4.361   3.646   5.000 -0.2803 -0.4468 -0.1212
 2699poe     o215107   4.285   3.562   5.083 -0.5916  0.1788  0.2379
 2699poe    c3115108   4.151   3.602   5.070 -0.6067  0.0387 -0.0590
 2700poe    c3115109   2.837   6.079   1.797 -0.0302 -0.0381  0.2883
 2700poe     o215110   2.884   5.947   1.817  0.1171  0.0178  0.3167
 2700poe    c2315111   2.793   5.856   1.759 -0.1021  0.4761 -0.0611
 2700poe    c2315112   2.727   5.757   1.856 -0.0489 -0.3143 -0.8119
 2700poe     o215113   2.825   5.680   1.920 -0.1264 -0.0003 -0.3019
 2700poe    c2315114   2.764   5.581   1.999  0.6054  0.0751  0.3725
 2700poe    c2315115   2.863   5.480   2.060 -0.2986 -0.8747  0.2950
 2700poe     o215116   2.919   5.536   2.177  0.1621 -0.0800 -0.3012
 2700poe    c2315117   3.044   5.478   2.205  0.3560  0.3777 -0.2149
 2700poe    c2315118   3.117   5.576   2.299 -0.5189  0.5226  0.3225
 2700poe     o215119   3.133   5.704   2.241  0.2330  0.2462 -0.0949
 2700poe    c3115120   3.206   5.805   2.306 -0.3734  0.2066  0.6660
 2701lim     li15121   0.850   0.528   2.274 -0.6651  0.2247  1.0409
 2702lim     li15122   6.122   2.067   3.904 -0.2744  1.1905  0.0472
 2703lim     li15123   7.027   5.918   6.701  0.0177  0.4754 -1.2233
 2704lim     li15124   3.939   6.606   3.900 -0.0657  0.3510  0.8789
 2705lim     li15125   3.978   7.012   4.724 -0.5155  1.0691  0.1872
 2706lim     li15126   0.867   6.936   1.553 -0.1600 -0.5715 -0.0585
 2707lim     li15127   4.390   3.565   5.279  0.5997  0.6478 -0.4127
 2708lim     li15128   4.996   6.160   6.692  0.7017  0.0896  0.0259
 2709lim     li15129   6.572   2.609   2.452  0.3244  0.4055  0.0699
 2710lim     li15130   0.754   5.781   1.871  1.1479  1.1803 -0.7386
 2711lim     li15131   3.669   1.668   0.301  0.4439  0.0705 -1.1978
 2712lim     li15132   4.686   5.976   2.879 -0.0596  0.6960 -0.4932
 2713lim     li15133   0.477   5.636   6.343  1.2669  0.2101  0.4004
 2714lim     li15134   3.059   5.938   1.902 -0.4245 -0.5459  0.4566
 2715lim     li15135   1.425   5.614   5.640  0.2012  0.2912 -0.5057
 2716lim     li15136   0.646   4.116   6.522 -0.3567 -1.3291  0.4909
 2717lim     li15137   0.512   7.034   5.727  0.8566  0.4326  0.2383
 2718lim     li15138   3.099   3.192   2.853  0.0474  0.2655  0.6102
 2719lim     li15139   6.061   0.875   3.317 -0.1306  0.8019  0.9098
 2720lim     li15140   3.120   4.581   3.030 -0.1783  0.3990  0.3128
 2721lim     li15141   1.615   4.977   3.226  0.4551 -0.3599  0.0460
 2722lim     li15142   3.572   2.378   5.972 -0.7124  0.6165  0.2360
 2723lim     li15143   5.376   6.219   4.100 -0.0931  0.2422  0.3931
 2724lim     li15144   2.748   1.959   5.390  0.9319  0.9998  0.0384
 2725lim     li15145   2.937   4.615   0.036 -0.2425 -0.8671  0.7563
 2726lim     li15146   1.043   1.417   6.166  0.5370 -0.3553 -0.0036
 2727lim     li15147   2.660   5.936   2.900  0.1502 -0.0799  0.1765
 2728lim     li15148   5.200   2.121   0.332 -0.0126 -0.3272 -0.1625
 2729lim     li15149   4.033   5.269   0.220 -0.4654 -0.2106  0.2786
 2730lim     li15150   5.747   5.399   4.419 -0.2740  0.1295  0.0830
 2731lim     li15151   2.213   0.413   0.103  0.7657 -0.1446  0.6145
 2732lim     li15152   0.219   2.762   0.107 -0.1939 -0.2618 -0.1352
 2733lim     li15153   1.107   6.165   2.593  0.6224 -0.1923 -0.2322
 2734lim     li15154   2.537   2.836   5.571  0.6074 -0.8473 -0.1139
 2735lim     li15155   5.627   0.648   4.865  0.3203  1.5088  1.2300
 2736lim     li15156   5.771   2.905   5.824 -0.6062  1.0089 -0.0519
 2737lim     li15157   4.452   0.427   2.703  0.0351  0.2590  0.1486
 2738lim     li15158   4.273   2.880   3.207  0.0306  0.3757  0.2528
 2739lim     li15159   6.382   4.138   3.560  1.0161 -0.6049  0.3925
 2740lim     li15160   5.397   2.520   4.260  0.3799  0.2094  0.3997
 2741lim     li15161   1.343   0.414   1.556 -0.1710  0.9489  0.0302
 2742lim     li15162   5.238   2.157   2.845 -0.4827 -0.1071 -0.2603
 2743lim     li15163   6.636   3.158   4.341 -0.1812  0.3696  0.0193
 2744lim     li15164   4.531   4.533   4.087 -0.8156 -0.7997 -0.1054
 2745lim     li15165   6.149   6.619   0.328  0.1077 -0.5268  0.9467
 2746lim     li15166   3.942   5.332   2.283  0.8055  1.1508  0.6559
 2747lim     li15167   3.058   6.814   2.921  1.2045  0.0413  0.3124
 2748lim     li15168   2.481   4.105   2.301 -0.6901 -1.0139  0.4003
 2749lim     li15169   3.722   1.351   4.288 -0.8342  0.4763 -0.3915
 2750lim     li15170   2.544   4.224   3.356  0.1073 -1.5537  0.1793
 2751lim     li15171   5.916   3.837   5.246 -0.8228 -0.0788 -0.4559
 2752lim     li15172   5.195   0.639   3.905 -0.7258  0.3379 -0.2358
 2753lim     li15173   3.557   6.030   1.532  1.1969 -0.7298 -0.6705
 2754lim     li15174   1.649   4.082   6.839  0.1063  0.4112 -0.2530
 2755lim     li15175   4.583   5.900   2.217 -0.5121 -1.2250  0.3366
 2756lim     li15176   5.682   2.523   5.002 -0.2710  0.9909 -0.1418
 2757lim     li15177   0.583   4.208   3.460  0.8214 -0.8757  0.4198
 2758lim     li15178   6.055   6.543   2.467 -0.0667  1.2951 -0.8442
 2759lim     li15179   3.014   7.048   1.723  0.6636 -0.4583  0.5388
 2760lim     li15180   1.032   1.758   5.261  0.5521 -0.7318 -0.1252
 2761lim     li15181   5.464   6.399   1.333  0.5066 -0.9242  0.1323
 2762lim     li15182   4.680   0.255   6.505 -0.6274  0.1127  0.4863
 2763lim     li15183   5.114   3.950   1.436  0.0090  0.8995  0.4133
 2764lim     li15184   3.784   5.660   5.579  0.0641 -0.5794  0.1200
 2765lim     li15185   4.535   2.434   6.979 -0.1906 -0.1986 -0.7929
 2766lim     li15186   0.971   2.260   6.804 -1.4899 -0.6726  0.1850
 2767lim     li15187   0.600   3.902   0.301  0.0190 -0.4213  0.3580
 2768lim     li15188   0.084   3.263   3.517 -0.1943 -0.0875  0.6450
 2769lim     li15189   2.414   5.170   6.429 -1.3233 -0.5569  0.6524
 2770lim     li15190   4.530   2.223   6.116  0.0374  1.2412  0.1342
 2771lim     li15191   1.405   2.935   6.880  0.1364 -0.1296 -0.1142
 2772lim     li15192   5.909   3.374   4.770 -0.3193  0.3061 -0.6146
 2773lim     li15193   3.939   3.549   2.972 -0.8913 -0.3563 -0.7205
 2774lim     li15194   3.922   2.151   1.258 -0.1597  0.0749 -0.2219
 2775lim     li15195   3.301   1.272   3.564  0.3735 -0.3006  0.0827
 2776lim     li15196   6.379   2.352   4.274 -0.7569 -0.6600 -0.0190
 2777lim     li15197   3.406   3.850   3.946  0.3042 -0.1635 -0.4367
 2778lim     li15198   5.372   4.200   6.319 -0.0034  0.9513  1.0772
 2779lim     li15199   4.199   1.643   0.740  0.9022  0.8323 -0.5762
 2780lim     li15200   5.785   6.028   5.383 -0.5349 -0.5223 -0.8357
 2781lim     li15201   2.247   3.211   6.506 -0.2682  1.0142  0.4507
 2782lim     li15202   2.717   5.715   1.346 -0.2105 -0.0179 -0.8803
 2783lim     li15203   6.232   3.371   1.948 -0.4738 -0.0684  0.3272
 2784lim     li15204   4.069   2.728   6.819  0.1478 -0.1109 -0.4860
 2785lim     li15205   4.331   3.800   0.547 -0.8446 -0.8067 -0.7906
 2786lim     li15206   2.427   6.472   5.866 -0.4723 -0.3628  0.2120
 2787lim     li15207   4.690   3.102   0.993  0.2541 -0.7734  0.5839
 2788lim     li15208   5.774   4.089   3.964  0.2283  0.0959 -1.1032
 2789lim     li15209   1.666   6.169   3.271  0.8238 -0.9379  0.7283
 2790lim     li15210   4.319   5.142   6.345  0.8791 -0.1110  0.2595
 2791lim     li15211   4.036   1.382   6.974 -0.0310  0.2316 -0.8825
 2792lim     li15212   4.875   6.376   4.600 -0.8283 -0.4985  0.0046
 2793lim     li15213   1.650   2.906   2.513  0.9201 -0.6943 -0.6895
 2794lim     li15214   6.688   4.043   1.702  0.4505 -0.3032  0.6171
 2795lim     li15215   4.958   3.144   5.626 -0.3479 -0.7874  0.4998
 2796lim     li15216   5.329   4.794   6.839 -0.6174 -0.3448  0.5688
 2797lim     li15217   0.387   0.089   2.497 -0.0150  0.8200  0.2414
 2798lim     li15218   5.070   0.663   1.419 -0.0082  0.4726 -0.2927
 2799lim     li15219   3.517   0.388   6.828 -1.1870 -0.2203  0.2792
 2800lim     li15220   1.082   6.756   4.968  0.5725  0.9218  0.0755
 2801lim     li15221   2.016   2.209   5.456  0.5140 -0.6683  0.4402
 2802lim     li15222   5.703   4.027   4.805  0.3032  0.0390 -0.3853
 2803lim     li15223   2.524   4.151   5.567  0.5310 -0.4011  0.1799
 2804lim     li15224   6.261   4.699   6.698 -0.4270 -0.0024  0.3749
 2805lim     li15225   6.478   1.252   1.639 -0.0840 -1.0502  0.5104
 2806lim     li15226   3.045   6.670   4.326 -0.0148  1.0559  0.6358
 2807lim     li15227   1.711   6.505   6.167  0.2830 -0.8647 -0.2563
 2808lim     li15228   0.761   2.780   4.825  0.2798  1.0076 -0.9729
 2809lim     li15229   5.973   4.219   0.459 -1.2822  0.6270  0.0516
 2810lim     li15230   2.631   5.776   2.282  0.6554  0.2426 -1.0326
 2811lim     li15231   0.412   2.766   1.739  0.2883  0.2564  0.4136
 2812lim     li15232   3.973   3.214   4.934 -0.3497 -1.0430  0.6141
 2813lim     li15233   2.862   5.372   3.381  0.2713  0.7829  0.1938
 2814lim     li15234   4.136   1.411   5.383 -0.7272 -0.3662 -0.0466
 2815lim     li15235   5.302   0.696   2.085  0.7344  1.0959  0.3819
 2816lim     li15236   1.892   4.018   0.615 -0.6755 -0.5564  0.4851
 2817lim     li15237   1.375   1.861   2.351 -0.5919  0.0251 -0.1314
 2818lim     li15238   1.371   3.798   1.170 -0.3871 -0.3222 -0.5160
 2819lim     li15239   0.174   1.268   2.120  0.6296  0.6230 -0.3657
 2820lim     li15240   6.880   1.160   1.244 -0.2357  0.5312  0.6961
 2821lim     li15241   0.860   5.968   6.722 -0.1926  0.2100  0.4985
 2822lim     li15242   4.723   2.605   2.126  1.2872 -0.4894 -0.0694
 2823lim     li15243   2.572   1.130   5.218 -0.1254 -0.3007  1.3827
 2824lim     li15244   5.006   6.859   0.147  0.7452  0.1657  0.2837
 2825lim     li15245   5.550   3.778   5.708  0.1165  1.4874 -0.3903
 2826lim     li15246   1.715   3.172   4.308  0.7255 -0.2518 -0.6633
 2827lim     li15247   4.994   2.827   3.160 -0.3825  0.9467  0.4183
 2828lim     li15248   1.907   3.911   2.921  0.2260  0.4932  0.0834
 2829lim     li15249   2.576   2.448   4.245 -0.7616  1.0861  0.7142
 2830lim     li15250   5.954   4.881   5.270  0.2447 -0.5414 -1.0403
 2831lim     li15251   5.469   0.823   3.373  0.4945  0.8594 -0.0373
 2832lim     li15252   2.125   2.272   0.228  0.0785  0.5090 -0.1536
 2833lim     li15253   4.111   3.664   1.507 -0.5752  0.2382  0.2181
 2834lim     li15254   6.196   4.966   2.593  1.0828  0.9275 -0.1747
 2835lim     li15255   6.255   3.550   6.847  1.0467 -0.4269 -0.5835
 2836lim     li15256   6.564   3.436   0.652 -0.4739  0.5432  0.3864
 2837lim     li15257   6.565   0.337   2.681 -1.0352  0.3284  0.4235
 2838lim     li15258   1.514   3.677   2.501 -1.0875  0.0491 -0.1439
 2839lim     li15259   5.736   1.323   1.012 -0.6041 -0.8427 -0.6977
 2840lim     li15260   6.000   0.871   4.224 -0.5571 -0.2437  0.1097
 2841lim     li15261   4.503   4.330   2.194 -0.2943  0.4492  0.1075
 2842lim     li15262   1.120   3.288   5.637 -0.7920 -0.1876 -0.8069
 2843lim     li15263   1.061   6.583   4.182 -0.3942  0.2181 -0.6809
 2844lim     li15264   3.888   4.031   1.511  0.5072  0.5500  0.4736
 2845lim     li15265   6.930   1.468   0.332  0.5723 -0.1782  1.2926
 2846lim     li15266   0.610   2.440   3.528  0.1536 -0.0256  0.3143
 2847lim     li15267   3.227   1.032   0.413  0.9226 -0.2120 -0.1487
 2848lim     li15268   4.457   2.959   4.291  1.0147 -1.0429  0.4994
 2849lim     li15269   0.155   2.772   5.421 -1.2342  0.4959  1.1662
 2850lim     li15270   4.660   1.587   4.481 -0.6452 -0.1679 -0.1865
 2851lim     li15271   1.743   0.205   0.845  1.0672  0.3050 -0.4632
 2852lim     li15272   0.656   4.124   2.716  0.3761 -0.1310  0.5954
 2853lim     li15273   1.568   2.930   1.185 -0.1774 -0.7544 -0.4176
 2854lim     li15274   6.975   2.932   6.499  0.8968  0.8578  0.8442
 2855lim     li15275   4.185   4.583   2.996  0.2371  1.1972  0.2393
 2856lim     li15276   3.431   1.086   6.456  0.2546 -0.0396 -0.5719
 2857lim     li15277   6.585   5.723   6.001 -0.8887  0.8544 -0.0606
 2858lim     li15278   2.091   4.752   2.257  0.0880  0.0372  0.3601
 2859lim     li15279   3.191   4.529   6.417 -0.8408 -0.0147 -0.9075
 2860lim     li15280   3.858   3.257   3.716 -0.2972  0.3450  0.1699
 2861lim     li15281   6.583   5.377   3.896 -0.2780  0.0926 -0.8714
 2862lim     li15282   6.567   0.537   0.678 -1.5256 -0.0377  1.5486
 2863lim     li15283   5.217   5.450   6.281  0.9975 -0.1969 -0.2424
 2864lim     li15284   6.466   3.856   6.022  0.0017 -0.5963 -0.3969
 2865lim     li15285   3.589   3.802   0.541  0.1883 -0.2894  1.0775
 2866lim     li15286   7.043   4.909   5.522  0.3139  0.2882 -0.8499
 2867lim     li15287   2.512   2.833   0.269  0.8554 -0.7232  0.1566
 2868lim     li15288   7.035   4.523   4.402 -0.0043 -0.9207  0.2602
 2869lim     li15289   1.790   0.927   3.863  1.1935  0.2075 -0.9301
 2870lim     li15290   1.124   6.251   0.903  0.0395  0.2612  1.0996
 2871lim     li15291   4.827   1.411   0.602  0.5242 -0.8757 -0.1926
 2872lim     li15292   4.641   1.722   1.955  0.7463  0.0655  0.8205
 2873lim     li15293   0.151   3.586   3.049 -0.2758 -0.3203 -0.0755
 2874lim     li15294   1.775   0.228   6.634  0.2267  0.4705 -0.9754
 2875lim     li15295   5.627   2.300   1.845 -0.0287 -0.5078 -0.2335
 2876lim     li15296   2.164   6.389   3.543  0.2839  0.4891 -0.6369
 2877lim     li15297   2.800   1.435   7.073 -0.0043  0.0965  0.1928
 2878lim     li15298   3.252   2.429   4.829  0.0405  0.0549 -0.3540
 2879lim     li15299   1.320   5.378   1.571 -0.2026 -0.5978 -0.6372
 2880lim     li15300   2.612   3.148   1.751 -1.3062  0.0723 -1.1612
 2881lim     li15301   0.909   3.730   5.165 -0.1854 -0.4507  0.0747
 2882lim     li15302   4.490   0.548   0.136  0.3245 -0.4192  0.5209
 2883lim     li15303   0.938   2.861   2.718  0.4088  0.7578 -0.0987
 2884lim     li15304   3.121   1.982   2.656  0.3328  0.2296 -0.4201
 2885lim     li15305   5.813   3.492   1.151 -0.5385 -0.0425  0.1017
 2886lim     li15306   5.904   6.927   4.549 -0.2120 -0.7113 -0.6362
 2887lim     li15307   2.564   0.978   1.007 -0.3669 -0.2633  0.2927
 2888lim     li15308   1.720   4.859   6.736  0.4867 -0.8232 -0.7456
 2889lim     li15309   0.224   6.130   3.513  0.1377  0.0659 -0.0467
 2890lim     li15310   2.671   0.331   3.603 -0.4898 -0.8827 -0.0697
 2891lim     li15311   6.541   0.795   3.298  0.4251 -0.9683  0.9546
 2892lim     li15312   3.525   1.845   5.189 -0.2299  0.3708  0.0670
 2893lim     li15313   1.364   3.048   0.358 -0.4970 -1.3747 -0.4986
 2894lim     li15314   0.456   0.298   3.519  0.8079  0.3658  0.4106
 2895lim     li15315   4.793   6.928   5.552 -0.3616  0.2819 -0.4815
 2896lim     li15316   3.631   3.134   4.345 -0.0504  0.4199  0.7309
 2897lim     li15317   4.925   5.341   3.917 -0.3894  0.7384 -0.0272
 2898lim     li15318   0.441   3.438   1.446 -0.1604 -0.2733  0.3370
 2899lim     li15319   6.237   2.569   0.093 -0.1285  0.9740 -0.4678
 2900lim     li15320   5.282   4.194   2.471 -0.1621  1.0303  0.0500
 2901lim     li15321   2.615   6.872   0.352  0.2179 -0.0896 -0.4273
 2902lim     li15322   0.769   5.452   4.822  0.3096 -0.3539 -0.4960
 2903lim     li15323   6.022   1.657   5.036 -1.4059  0.3657  0.3194
 2904lim     li15324   2.280   3.216   4.906  0.2478 -0.6323 -0.1985
 2905lim     li15325   4.925   2.022   3.779  0.4009 -0.6529  0.4991
 2906lim     li15326   1.405   4.056   4.394  1.4820 -0.0684  0.6018
 2907lim     li15327   2.422   0.689   2.930  1.3727 -0.1732  0.5763
 2908lim     li15328   3.229   6.154   3.856 -0.1341  0.1477 -0.5161
 2909lim     li15329   3.157   4.837   5.572 -0.4506  0.3442 -0.1605
 2910lim     li15330   4.168   4.008   6.332  0.2434  1.0445 -1.9614
 2911lim     li15331   5.697   5.948   1.012 -0.7937  0.9854  0.6651
 2912lim     li15332   6.365   0.164   5.736  0.7226 -0.4264 -0.2949
 2913lim     li15333   0.752   5.388   5.568 -0.1491  1.2639  0.6928
 2914lim     li15334   1.801   6.368   1.399 -0.7869 -0.3368 -0.2915
 2915lim     li15335   3.190   3.125   6.226 -0.0279  0.1616 -0.9457
 2916lim     li15336   1.040   2.163   4.134 -0.0334  0.7723  0.7722
 2917lim     li15337   5.237   3.130   4.520 -0.8638  0.4529  0.5974
 2918lim     li15338   0.024   3.733   4.692  0.0946 -0.3600 -0.2776
 2919lim     li15339   1.329   5.072   6.143  0.7421 -0.3862  0.2901
 2920lim     li15340   3.664   4.790   6.446  0.4612 -0.1254  0.9019
 2921lim     li15341   4.336   5.864   7.072  0.1190 -0.3810  0.1825
 2922lim     li15342   5.784   4.887   3.034  1.5536  0.3974 -1.0158
 2923lim     li15343   2.092   1.703   0.592  0.6924  0.6172 -0.2390
 2924lim     li15344   2.924   6.910   1.053  0.2061  0.0230 -0.3120
 2925lim     li15345   0.353   6.040   4.507 -0.3900 -0.0866 -0.2013
 2926lim     li15346   0.750   1.110   0.957  0.1777 -1.1859 -0.7547
 2927lim     li15347   3.203   6.031   5.702 -0.8515 -0.4344  0.1511
 2928lim     li15348   0.782   3.460   4.086 -0.1588 -0.8346  0.6263
 2929lim     li15349   3.996   5.232   3.117  0.7189  0.1479  0.3792
 2930lim     li15350   1.582   3.250   5.083 -0.5148 -0.9517 -0.2706
 2931lim     li15351   3.993   0.095   0.568  0.9089  0.8678 -0.1072
 2932lim     li15352   2.196   4.877   3.774 -1.2727 -1.3922 -0.4988
 2933lim     li15353   2.455   4.083   3.978  0.5902  0.0731 -1.3274
 2934lim     li15354   3.168   0.033   5.287 -0.7680 -0.6462  1.2563
 2935lim     li15355   0.154   1.331   3.183  0.0793 -0.4360  0.6996
 2936lim     li15356   3.296   3.124   0.289 -0.6328  0.2286 -0.7480
 2937lim     li15357   0.027   6.373   6.460  0.0936 -0.0850  0.6540
 2938lim     li15358   1.169   0.534   4.829 -0.0211  1.1762  0.2004
 2939lim     li15359   4.979   6.494   1.929 -1.4829 -0.2551  0.3010
 2940lim     li15360   4.253   7.044   1.429  1.0693  1.1104  0.8208
 2941lim     li15361   1.321   3.983   3.438 -0.2358 -0.5517  1.0495
 2942lim     li15362   2.486   5.770   3.898 -0.1838 -0.1174 -0.2887
 2943lim     li15363   3.095   4.600   4.918 -0.9385  1.7261  0.6799
 2944lim     li15364   1.347   6.916   3.575 -0.1969 -0.2383  1.3877
 2945lim     li15365   1.051   0.903   3.034 -0.3633  0.0766  0.1189
 2946lim     li15366   4.217   6.546   6.296 -0.0092  0.0658 -0.9322
 2947lim     li15367   4.252   4.825   5.594 -0.9623 -0.6608  0.0844
 2948lim     li15368   4.919   0.056   1.021 -0.9085  0.1102  0.7271
 2949lim     li15369   4.567   0.906   5.745  0.8681  0.5924 -0.3838
 2950lim     li15370   2.058   6.350   0.029 -0.2684  0.9552 -0.3199
 2951lim     li15371   0.719   6.173   5.930  0.1301  0.5286 -1.4480
 2952lim     li15372   4.363   5.692   4.588  0.3374 -0.2241 -0.3420
 2953lim     li15373   4.062   1.736   3.028  0.0725  0.2163  0.2874
 2954lim     li15374   6.592   3.564   4.053  0.3004  0.6737 -0.0585
 2955lim     li15375   4.035   2.751   0.625  0.1179  0.0327 -0.3336
 2956lim     li15376   2.535   0.106   5.695  0.3124  1.7706  0.0290
 2957lim     li15377   5.714   5.238   1.880 -0.0860  1.3650  0.8771
 2958lim     li15378   6.111   2.366   5.720  0.2359 -0.4475  0.0514
 2959lim     li15379   6.814   6.804   2.791  0.6207 -0.3268  0.3784
 2960lim     li15380   3.123   5.707   4.606  0.3804  1.4023 -1.4205
 2961lim     li15381   4.708   0.298   4.733 -0.6042  0.2660 -0.9944
 2962lim     li15382   1.869   5.362   5.118 -0.2036 -0.6601  0.9211
 2963lim     li15383   0.658   3.037   0.549 -0.1031  0.5756  0.2400
 2964lim     li15384   1.120   1.509   3.038  0.2198 -0.6943  0.7815
 2965lim     li15385   3.741   6.801   0.245 -0.9881  0.0243 -0.6804
 2966lim     li15386   3.932   4.592   5.299  0.7066  0.2939  0.0335
 2967lim     li15387   0.317   1.242   6.841 -0.4877 -0.0444 -0.1859
 2968lim     li15388   1.467   3.831   1.787  0.5963 -0.5897  0.1682
 2969lim     li15389   6.896   2.663   1.345 -0.4594 -0.4396 -0.8609
 2970lim     li15390   6.306   0.033   5.218  0.2902  0.5506 -0.1967
 2971lim     li15391   6.879   0.366   6.220 -0.3516 -0.2328  0.3844
 2972lim     li15392   3.701   0.986   2.176  0.4188  0.0213  0.5618
 2973lim     li15393   6.273   0.130   4.044 -0.0635  0.4603 -0.1176
 2974lim     li15394   2.720   3.495   5.609 -0.9150 -0.3449 -0.5236
 2975lim     li15395   1.791   0.300   2.587 -0.6224 -0.2011 -0.3668
 2976lim     li15396   2.435   3.786   4.691 -0.4362 -0.6086 -0.8915
 2977lim     li15397   3.164   2.053   6.988  0.2599  0.0782 -0.5251
 2978lim     li15398   3.600   6.357   3.015  0.4971  0.5221 -0.1904
 2979lim     li15399   5.629   0.775   6.920  0.4153  0.1149 -0.3606
 2980lim     li15400   6.704   3.916   0.284 -0.2945  1.0708 -0.8872
 2981lim     li15401   2.037   5.791   6.670 -0.2532  0.4781  0.7422
 2982lim     li15402   1.172   1.948   0.632 -0.7241 -0.4117  0.9356
 2983lim     li15403   6.784   1.151   4.495 -0.0600  0.4994  0.2426
 2984lim     li15404   5.639   0.968   0.386 -0.5901  0.0261  0.9888
 2985lim     li15405   2.429   4.665   4.658  0.1170  0.5960 -0.2979
 2986lim     li15406   6.517   5.321   1.213 -0.0768 -0.6863 -0.1957
 2987lim     li15407   5.280   0.082   3.389  0.0800 -0.2293  0.7321
 2988lim     li15408   2.325   6.929   2.154 -0.1939  0.1296  0.7848
 2989lim     li15409   5.621   2.814   2.416 -0.8419  0.6692 -0.9101
 2990lim     li15410   2.493   1.816   4.477 -0.3351  0.3794 -0.2465
 2991lim     li15411   2.045   0.624   1.552  0.7153  0.0174  0.2196
 2992lim     li15412   7.007   6.488   0.354 -0.3342 -0.1825 -0.0011
 2993lim     li15413   6.846   3.980   0.866  0.3523  0.8092  0.0745
 2994lim     li15414   6.454   4.888   4.717 -1.1660 -0.9062 -0.3504
 2995lim     li15415   1.379   6.457   0.298 -0.3628  0.2902  0.2818
 2996lim     li15416   6.529   2.550   5.969 -0.3000  0.5621 -0.4440
 2997lim     li15417   6.401   1.802   3.108  0.1745 -0.3371 -0.4491
 2998lim     li15418   4.750   4.899   1.965  0.5900  1.1072 -0.6835
 2999lim     li15419   4.547   3.539   2.914 -0.2141 -0.2683 -0.5936
 3000lim     li15420   3.692   1.100   1.306 -0.4350 -0.2197 -0.1051
 3001lim     li15421   0.469   6.798   3.049  0.0851  0.2820 -0.8985
 3002lim     li15422   1.112   3.512   6.390  0.6247 -0.0852  0.4533
 3003lim     li15423   5.453   3.181   0.559 -0.5642 -0.5147 -1.1580
 3004lim     li15424   4.653   2.502   4.953 -0.2480 -0.0274 -0.0249
 3005lim     li15425   6.695   1.049   5.282  0.3842  0.6190  0.4291
 3006lim     li15426   6.994   1.859   5.613  1.0092  0.1888 -0.5108
 3007lim     li15427   5.884   5.532   0.560  0.8094 -0.0768 -0.4780
 3008lim     li15428   6.519   6.334   4.151 -0.7568 -0.3136  0.0656
 3009lim     li15429   5.918   1.577   2.164  0.1206 -1.0172  0.3021
 3010lim     li15430   2.397   2.934   0.974 -0.6410  0.6446 -0.1156
 3011lim     li15431   4.210   3.265   6.241 -0.8542 -0.5056 -0.1964
 3012lim     li15432   4.132   1.196   1.653 -0.2222  1.0501  0.5118
 3013lim     li15433   2.594   2.198   1.433  0.2941 -0.3779  0.1142
 3014lim     li15434   5.537   0.433   6.262  0.2025  0.2599 -1.2757
 3015lim     li15435   4.825   5.786   5.222 -0.0933 -0.1899 -0.3660
 3016lim     li15436   0.935   2.282   1.823  0.2298  0.6652  0.3330
 3017lim     li15437   2.056   0.950   5.745  0.2231  0.8891 -0.3895
 3018lim     li15438   2.102   5.412   0.444  0.0967  0.2322 -0.9161
 3019lim     li15439   3.494   4.416   3.096 -0.4632 -0.4619  0.6569
 3020lim     li15440   4.598   1.270   6.379  0.3143  0.7197  0.5514
 3021lim     li15441   5.629   1.087   1.654  0.0421 -0.6541 -0.3723
 3022lim     li15442   4.912   3.228   2.132 -0.2433 -0.1035 -0.7837
 3023lim     li15443   2.656   6.639   4.995  0.1054 -0.5573 -0.0250
 3024lim     li15444   2.552   0.878   6.188 -0.0924 -0.4959 -0.5749
 3025lim     li15445   1.043   5.211   0.399  0.3302 -0.6260 -0.1989
 3026lim     li15446   0.491   4.870   4.737 -0.8899  0.8999 -0.4472
 3027lim     li15447   5.026   3.522   3.470 -0.0534  0.3068 -0.4407
 3028lim     li15448   2.737   2.096   6.300  0.1721 -0.4307 -0.5114
 3029lim     li15449   5.722   6.510   5.069 -0.1715  0.8932  0.2669
 3030lim     li15450   0.131   2.456   4.379 -1.2881 -1.0753  0.1112
 3031lim     li15451   1.923   2.317   1.588 -0.5751 -0.1190 -0.2866
 3032lim     li15452   0.287   5.533   2.041  0.0322 -0.6132  0.8039
 3033lim     li15453   3.579   0.640   5.292 -0.1322 -0.7010 -0.6530
 3034lim     li15454   3.093   4.054   1.312  0.5808  0.3464 -0.1552
 3035lim     li15455   4.232   6.610   3.460  0.5703 -0.4521  0.3696
 3036lim     li15456   6.434   4.410   2.314 -0.3343 -0.4932 -0.6241
 3037lim     li15457   5.248   1.293   3.039 -0.9472  0.6915 -0.6907
 3038lim     li15458   2.599   2.982   3.288 -0.4359 -0.2592 -0.3853
 3039lim     li15459   3.522   2.421   3.566  0.8225 -0.7341 -0.2638
 3040lim     li15460   4.573   4.262   3.156 -0.7046  0.4175  0.3345
 3041lim     li15461   1.489   6.618   5.576  0.2245  0.0160 -0.4759
 3042lim     li15462   6.973   2.278   3.246  0.5902  0.6845  0.7696
 3043lim     li15463   5.131   4.354   0.453  0.5252  0.1200  0.1892
 3044lim     li15464   4.731   3.572   3.934 -0.0815  0.4155  0.6655
 3045lim     li15465   3.798   2.004   4.148  0.3531 -0.3197 -0.0888
 3046lim     li15466   2.233   1.537   6.697 -0.5184  1.2340  0.5935
 3047lim     li15467   0.559   4.213   5.787 -0.9768  0.2189  0.8078
 3048lim     li15468   0.113   0.024   4.715 -0.3232  0.8232  0.6327
 3049lim     li15469   2.892   5.524   0.142  0.6593  0.0139  0.7938
 3050lim     li15470   4.300   2.174   5.090  1.5231 -1.6428  0.0418
 3051lim     li15471   2.951   0.758   1.693 -0.2879 -0.3809  0.8827
 3052lim     li15472   1.389   4.591   1.706  0.3248 -0.2148  0.5287
 3053lim     li15473   0.510   1.962   2.535 -0.7398  0.8878  0.1259
 3054lim     li15474   4.366   5.582   3.783  0.0495  0.2155 -0.1307
 3055lim     li15475   5.379   4.261   1.028  1.4890  0.6726 -0.5945
 3056lim     li15476   2.636   5.820   6.399 -0.1414  0.3093  0.0503
 3057lim     li15477   5.483   3.018   6.965  1.9335 -0.0903  0.5088
 3058lim     li15478   5.193   5.229   5.644  0.1859  0.0593  0.2766
 3059lim     li15479   4.443   6.593   0.630 -0.3194 -0.7363  0.2293
 3060lim     li15480   2.235   1.362   3.022  1.3081 -0.4167 -0.0299
 3061lim     li15481   2.080   6.098   0.756 -0.4899  0.9441  0.1256
 3062lim     li15482   1.590   1.647   4.962 -0.8735  0.0663  0.7668
 3063lim     li15483   3.676   6.457   2.304  0.2715  0.1095 -0.3154
 3064lim     li15484   4.541   4.229   4.665  0.6449  0.3308  0.4854
 3065lim     li15485   0.063   3.197   2.467  0.2375  0.6536 -0.1824
 3066lim     li15486   0.054   5.017   0.438 -0.3797  1.1842 -0.2170
 3067lim     li15487   3.530   4.812   4.217  0.0193 -0.1596  0.2398
 3068lim     li15488   4.921   4.550   5.547  0.1448  0.0643 -0.6652
 3069lim     li15489   6.934   5.676   4.952  0.0003 -0.1620  0.5388
 3070lim     li15490   5.739   6.104   1.947 -0.8272  0.9864 -0.1237
 3071lim     li15491   1.662   1.033   0.586  0.3412  0.4822  0.2004
 3072lim     li15492   5.633   1.338   4.221 -1.5792 -0.5113 -0.2423
 3073lim     li15493   5.793   3.958   2.832  0.0659  0.2631  0.1509
 3074lim     li15494   0.714   5.460   3.292  0.6135 -0.3065 -0.6877
 3075lim     li15495   2.999   2.803   6.903  0.4294  0.9192  0.1300
 3076lim     li15496   4.186   0.109   6.402 -0.2543  0.3712  0.8486
 3077lim     li15497   3.251   0.860   4.587  0.5441 -1.3466  0.7887
 3078lim     li15498   5.472   5.940   3.431  0.1439  1.3878 -0.3732
 3079lim     li15499   1.952   4.523   5.413  0.4065  0.3484 -0.1122
 3080lim     li15500   5.841   0.229   2.321  1.5562 -0.5997 -1.3774
 3081lim     li15501   6.184   2.038   1.387  0.6084  0.4680  0.6052
 3082lim     li15502   3.752   0.065   2.458 -0.7242  0.0144 -0.5270
 3083lim     li15503   4.046   0.647   3.307 -0.1837  0.6117  0.1738
 3084lim     li15504   3.843   2.078   6.456 -0.2690  0.0763  0.0483
 3085lim     li15505   3.820   0.190   1.190 -0.7383 -1.0650 -0.0682
 3086lim     li15506   0.258   6.001   2.727 -0.2182  0.3446 -0.1383
 3087lim     li15507   6.526   4.780   1.165  0.1199 -0.0366 -0.7166
 3088lim     li15508   3.399   1.364   5.845  0.0659 -0.0248  1.0300
 3089lim     li15509   1.565   5.693   2.428  0.2718 -0.1433 -0.9430
 3090lim     li15510   4.573   1.228   2.471  0.3306 -0.2348 -0.6613
 3091lim     li15511   4.785   5.825   0.933 -0.4807 -0.2917 -1.3545
 3092lim     li15512   6.668   6.630   1.407  0.0574 -0.4104  0.0206
 3093lim     li15513   0.575   0.119   0.495 -0.5545 -1.1307 -0.1762
 3094lim     li15514   1.372   1.509   4.496  0.6842 -0.6574 -0.2896
 3095lim     li15515   2.283   5.778   5.727 -1.2608  0.2010  0.5388
 3096lim     li15516   6.329   2.400   1.042 -1.4252  0.1570  0.9776
 3097lim     li15517   5.786   2.195   3.353  0.2834  0.4893  0.2635
 3098lim     li15518   5.339   1.635   5.813 -0.1820  0.3214 -0.3774
 3099lim     li15519   0.497   6.928   7.013  0.9098 -0.1831 -0.1430
 3100lim     li15520   6.437   1.043   6.208 -0.0817 -0.5881 -0.3845
 3101lim     li15521   7.008   0.253   4.197 -1.6279  0.6157  0.8442
 3102lim     li15522   1.981   6.577   4.590  1.2798  0.7777  0.7991
 3103lim     li15523   0.507   1.736   6.574  0.1161 -0.3941  0.5320
 3104lim     li15524   3.754   0.410   3.843  0.4283 -0.2401  0.6353
 3105lim     li15525   5.419   1.884   4.981 -0.2804  0.1253  0.3726
 3106lim     li15526   0.869   0.649   5.465  0.4863 -0.7261 -0.2348
 3107lim     li15527   2.308   2.795   6.155 -0.4611  0.8019  0.0219
 3108lim     li15528   3.580   4.693   1.419  0.5180 -0.1502  0.3309
 3109lim     li15529   0.754   4.503   1.516  0.4428 -0.5843 -0.7260
 3110lim     li15530   0.694   6.300   1.128  0.3478 -0.4203  1.1723
 3111lim     li15531   4.276   5.692   1.065  0.1088  0.5578 -0.7914
 3112lim     li15532   1.287   4.996   2.447  0.4105  1.0698  0.7539
 3113lim     li15533   5.634   0.937   5.570  0.0716  0.7722  0.6933
 3114lim     li15534   1.261   0.874   4.061 -1.6864  0.1330  0.5267
 3115lim     li15535   0.305   0.654   5.181  0.0355 -1.1754  0.6251
 3116lim     li15536   1.267   4.634   0.437 -0.0927 -0.1070  0.0105
 3117lim     li15537   6.685   3.335   5.374  0.4147 -0.6140 -0.6661
 3118lim     li15538   3.757   2.290   2.671  0.5160  0.6645 -0.1180
 3119lim     li15539   6.124   6.183   3.092  0.9428  0.3926 -0.3605
 3120lim     li15540   6.115   0.308   0.090 -0.0840 -0.0280 -0.5372
 3121lim     li15541   0.457   2.101   5.487  1.0337  0.5576 -0.0548
 3122lim     li15542   4.872   1.114   4.871  0.2534  0.6162 -0.4493
 3123lim     li15543   4.904   5.160   4.600  0.2238  0.0804  0.4817
 3124lim     li15544   2.664   6.647   3.525  0.1242  0.9326  1.2468
 3125lim     li15545   1.919   1.511   1.218 -0.2908 -0.2011 -0.3925
 3126lim     li15546   6.508   0.769   2.336 -0.1322 -0.1994  0.1485
 3127lim     li15547   0.154   1.646   0.843  0.9256  0.9660 -0.3833
 3128lim     li15548   1.663   2.610   3.241 -0.6878  0.3602  0.4815
 3129lim     li15549   6.535   5.500   3.089 -0.5727  0.3129  0.2019
 3130lim     li15550   3.143   3.148   5.369  0.3984 -1.1222 -0.5537
 3131lim     li15551   0.563   5.000   2.677 -0.2624  0.3524 -0.5083
 3132lim     li15552   5.169   4.988   1.672  0.3860  0.0279  0.2471
 3133lim     li15553   6.884   1.815   2.244  0.6578 -0.4318  0.2429
 3134lim     li15554   2.379   0.134   4.336 -1.3979 -1.1058 -0.2536
 3135lim     li15555   2.639   2.087   3.076 -0.0001 -0.0551  0.3820
 3136lim     li15556   3.098   2.183   1.320  0.4154 -0.2871 -0.0203
 3137lim     li15557   6.877   4.897   6.168  0.8415 -1.2864 -0.0139
 3138lim     li15558   6.025   2.100   7.056 -0.0151  0.9133 -0.4601
 3139lim     li15559   5.750   6.677   7.002  0.1654  0.8361  0.7034
 3140lim     li15560   4.404   6.024   5.352 -0.2470  0.0615 -0.1552
 3141lim     li15561   2.925   4.703   0.873 -0.4259  1.2910 -0.4046
 3142lim     li15562   3.803   2.373   1.994  0.6012 -0.3442 -0.4698
 3143lim     li15563   1.665   3.908   6.208  0.0196  0.2782 -0.4498
 3144lim     li15564   1.375   1.325   6.578 -0.1075  0.4260 -0.4692
 3145lim     li15565   3.231   0.679   2.833 -0.1226  0.3015  0.4074
 3146lim     li15566   0.560   3.279   2.319  0.6668 -0.6465 -0.0269
 3147lim     li15567   5.237   1.656   2.618  0.4722 -0.7295  1.0550
 3148lim     li15568   2.002   6.474   2.102  0.5989 -0.5010  0.2953
 3149lim     li15569   2.041   5.500   1.487 -0.6712 -0.7630 -0.5000
 3150lim     li15570   4.885   2.484   1.257 -0.8673  0.2094  0.3181
 3151lim     li15571   4.729   0.032   3.866  0.5389  0.0532  0.5104
 3152lim     li15572   4.257   0.910   4.086 -0.3156 -0.5604 -0.2879
 3153lim     li15573   1.975   4.772   1.250  0.0523 -0.8444 -0.6355
 3154lim     li15574   1.005   3.020   3.195 -0.2729  0.6260  0.1018
 3155lim     li15575   1.535   4.577   4.256 -0.6293 -1.0694  0.6230
 3156lim     li15576   5.233   5.108   3.309  0.7309 -0.8887  0.8051
 3157lim     li15577   0.318   5.526   0.992 -0.1611 -0.1290  0.7088
 3158lim     li15578   3.407   5.576   0.640  0.7233  0.3852 -0.8554
 3159lim     li15579   6.626   2.046   4.635 -0.4011  0.3408 -0.0113
 3160lim     li15580   5.164   1.336   6.623 -0.5573 -0.7641 -0.2331
 3161lim     li15581   3.519   4.333   2.262  0.4657 -0.9337  0.3199
 3162lim     li15582   5.362   6.664   3.092 -0.1739 -0.4820  0.3194
 3163lim     li15583   0.319   1.392   4.048  0.3356  0.8462 -0.1568
 3164lim     li15584   5.437   3.768   1.722  0.0728  0.1979  1.0699
 3165lim     li15585   0.623   3.062   5.908 -0.2484  0.7454 -0.5040
 3166lim     li15586   1.466   2.530   6.294 -0.0748  0.3934  0.8924
 3167lim     li15587   1.188   0.136   4.526 -0.1174 -0.5517 -0.0410
 3168lim     li15588   3.373   2.934   1.159  0.2081  0.7081  0.2030
 3169lim     li15589   1.458   0.017   0.364 -0.2976  0.0517  0.1558
 3170lim     li15590   5.812   7.032   1.375  0.1866  0.3790  0.5962
 3171lim     li15591   6.971   0.054   1.848  0.8278  0.1853  0.5429
 3172lim     li15592   1.082   0.226   6.370 -0.7635 -0.3487  1.0488
 3173lim     li15593   3.385   6.414   0.757 -0.8683 -0.0262 -0.6015
 3174lim     li15594   2.886   6.683   6.499 -0.4008 -0.3379 -0.0694
 3175lim     li15595   2.218   0.739   4.558  1.1397  0.0812 -0.1571
 3176lim     li15596   2.613   1.466   3.676  0.3747 -0.4935  0.1158
 3177lim     li15597   6.931   4.954   3.042 -0.9237  0.1921 -0.9290
 3178lim     li15598   0.453   1.964   0.900 -1.4125 -0.1211 -0.1530
 3179lim     li15599   1.961   0.380   5.500 -0.3786  0.3428  0.3231
 3180lim     li15600   5.756   2.860   3.349 -0.1424  0.0649 -0.0454
 3181lim     li15601   6.724   0.136   0.987  1.0271 -0.2884  0.2127
 3182lim     li15602   3.644   6.315   5.138  0.3349  0.6977  0.2374
 3183lim     li15603   6.998   6.711   5.335 -0.0599  0.1909  0.4762
 3184lim     li15604   0.502   0.618   6.466 -0.0498  0.3696 -0.1444
 3185lim     li15605   5.844   2.198   6.536  0.6535  0.3469 -0.5618
 3186lim     li15606   1.774   1.831   6.116 -0.1540  1.2669 -0.1854
 3187lim     li15607   5.116   3.674   6.695 -0.0019 -0.7281 -0.0999
 3188lim     li15608   4.411   6.595   2.168  1.2892  0.2409  0.1085
 3189lim     li15609   6.904   3.735   6.236  0.5067  0.1879  1.0439
 3190lim     li15610   2.296   2.134   2.221 -0.2913  0.2977 -0.1846
 3191lim     li15611   3.756   3.099   1.984  0.7318 -1.5524 -0.4097
 3192lim     li15612   4.598   3.773   0.041 -0.8152 -0.3495  0.3012
 3193lim     li15613   6.821   1.369   6.400  1.0597 -0.6735  0.7515
 3194lim     li15614   6.487   2.875   3.020  0.5003 -0.0495  0.0053
 3195lim     li15615   1.251   4.663   5.143 -0.4313 -0.0607  0.7089
 3196lim     li15616   5.245   4.978   0.459 -0.2262  0.1754 -0.1730
 3197lim     li15617   2.347   3.780   0.775 -0.5667 -0.4931 -0.0584
 3198lim     li15618   6.824   5.638   1.876  0.3429  0.2190  0.5002
 3199lim     li15619   6.634   6.494   2.116  0.7634  1.4881  0.9060
 3200lim     li15620   2.397   5.140   2.873 -0.1567 -1.1422  0.5865
 3201lim     li15621   1.425   1.351   1.452  0.3720 -0.0660 -0.4731
 3202lim     li15622   3.048   4.833   2.182 -0.1763 -0.5029 -0.7194
 3203lim     li15623   0.468   4.643   7.050  0.3011  1.1960  1.0330
 3204lim     li15624   0.473   4.778   3.823 -0.1868  0.8110  0.0059
 3205lim     li15625   0.436   1.224   1.569 -0.5951 -0.2893 -0.2945
 3206lim     li15626   3.943   4.393   0.360 -0.1343 -0.1673 -0.6738
 3207lim     li15627   2.523   4.360   6.877 -1.1080  1.0003 -0.6464
 3208lim     li15628   6.708   5.719   0.134  1.1072 -1.4316 -1.0054
 3209lim     li15629   4.285   6.038   6.290  0.6453  0.2709 -0.0325
 3210lim     li15630   5.800   5.109   6.078  1.0474 -0.3416  0.4719
 3211lim     li15631   6.072   2.843   2.121 -0.1779  0.5234  0.6297
 3212lim     li15632   1.454   5.471   3.782  0.2368  0.9828  0.3989
 3213lim     li15633   5.877   4.734   3.559 -0.0010 -0.5393 -0.2362
 3214lim     li15634   6.640   6.556   6.082 -0.0332  0.6185  0.4745
 3215lim     li15635   1.845   2.446   4.473 -0.3628 -0.1494 -0.2818
 3216lim     li15636   4.443   4.933   6.810 -0.6392  0.0451 -0.8958
 3217lim     li15637   1.144   5.666   4.196  0.9863  0.2469  0.3054
 3218lim     li15638   0.366   4.542   1.981 -0.2806  0.3711 -0.5581
 3219lim     li15639   5.680   6.956   5.765 -0.5128 -0.1265 -0.0603
 3220lim     li15640   0.329   0.691   4.187  1.6096 -1.3474 -0.4782
 3221lim     li15641   5.637   6.072   6.407  0.6197  0.6835 -0.5418
 3222lim     li15642   2.647   3.191   4.093 -0.0413 -0.6918  0.1077
 3223lim     li15643   6.219   5.228   7.057 -0.4165  1.1169 -1.1462
 3224lim     li15644   3.688   4.174   4.686  0.0872  0.1945  0.3377
 3225lim     li15645   1.161   1.268   0.357  0.1218 -0.3623  0.5583
 3226lim     li15646   6.849   4.240   2.560 -1.5582  0.2247  0.2963
 3227lim     li15647   1.453   1.935   3.589 -0.0429  1.3431  0.4155
 3228lim     li15648   2.217   1.036   2.456 -0.2649 -0.2009 -0.0079
 3229lim     li15649   0.816   6.054   0.230 -0.5119  0.3996  0.3299
 3230lim     li15650   2.530   0.242   6.502 -0.9111 -0.4790 -0.1864
 3231lim     li15651   1.376   7.018   2.949 -0.8090  0.0121 -0.4685
 3232lim     li15652   2.961   3.409   1.963  0.2859  0.3485 -0.1079
 3233lim     li15653   3.382   6.187   6.914  0.4450 -0.4009  0.2864
 3234lim     li15654   6.231   5.760   4.592 -0.1103 -0.3240 -0.2393
 3235lim     li15655   3.358   1.524   2.403  0.2020 -0.1796 -0.6127
 3236lim     li15656   3.279   3.763   0.036  0.7473 -0.0407 -0.0890
 3237lim     li15657   4.371   4.838   1.098  0.6493 -0.8323 -0.1492
 3238lim     li15658   4.945   2.494   6.285 -0.2050 -0.5575  0.6720
 3239lim     li15659   3.726   0.090   5.920 -0.0186  1.1804 -0.9501
 3240lim     li15660   2.474   5.681   4.787 -0.0481  0.1948  1.1605
 3241ntf    cn115661   0.318   1.276   5.468 -0.3334  0.0610 -0.2915
 3241ntf    sn215662   0.369   1.448   5.439 -0.1519  0.0390 -0.1070
 3241ntf    nn315663   0.312   1.474   5.295  0.0767  0.2763 -0.1558
 3241ntf    sn215664   0.399   1.493   5.167  0.2044  0.1818 -0.0830
 3241ntf    cn115665   0.271   1.541   5.047  0.0676 -0.0937 -0.0477
 3241ntf    fn415666   0.371   1.225   5.578 -0.2898  0.1458 -0.2729
 3241ntf    fn415667   0.186   1.274   5.472 -0.3285  0.4420  0.1855
 3241ntf    fn415668   0.351   1.198   5.366 -0.0004  0.3376 -0.3964
 3241ntf    on515669   0.291   1.528   5.532  0.7708  0.3232  0.4377
 3241ntf    on515670   0.513   1.448   5.446 -0.1492 -0.0139 -0.1669
 3241ntf    on515671   0.445   1.367   5.114 -0.1291  0.1099 -0.1977
 3241ntf    on515672   0.493   1.603   5.168  0.2963  0.1075 -0.3460
 3241ntf    fn415673   0.202   1.649   5.079  0.2030  0.1988 -0.7191
 3241ntf    fn415674   0.324   1.560   4.927 -0.1506  0.6372 -0.0337
 3241ntf    fn415675   0.187   1.440   5.029 -0.6319  0.4231  0.2732
 3242ntf    cn115676   5.378   2.589   0.755 -0.4192 -0.4707 -0.0740
 3242ntf    sn215677   5.280   2.738   0.722 -0.0898 -0.2917 -0.2518
 3242ntf    nn315678   5.201   2.684   0.598 -1.0219 -0.1266  0.2548
 3242ntf    sn215679   5.156   2.764   0.470 -0.0017  0.1776  0.0748
 3242ntf    cn115680   4.999   2.831   0.532  0.1794  0.2720  0.4364
 3242ntf    fn415681   5.493   2.588   0.690 -0.3171  0.7882  0.0647
 3242ntf    fn415682   5.409   2.572   0.883  0.5445  0.0308 -0.2266
 3242ntf    fn415683   5.314   2.476   0.729 -0.6409 -0.4044  0.1784
 3242ntf    on515684   5.190   2.750   0.834 -0.1861 -0.0300 -0.3571
 3242ntf    on515685   5.378   2.841   0.700 -0.7543  0.3561 -0.2208
 3242ntf    on515686   5.108   2.674   0.368 -0.1581  0.3770 -0.0266
 3242ntf    on515687   5.241   2.875   0.434  0.3128 -0.2546 -0.5369
 3242ntf    fn415688   4.909   2.737   0.557  0.3041  0.0093 -0.0872
 3242ntf    fn415689   5.020   2.906   0.639  0.4175  0.1020  0.5105
 3242ntf    fn415690   4.943   2.914   0.446  0.1465 -0.0326  0.1597
 3243ntf    cn115691   3.049   1.453   6.355  0.2941 -0.1924 -0.1543
 3243ntf    sn215692   2.904   1.345   6.337 -0.0313  0.2116  0.0396
 3243ntf    nn315693   2.951   1.236   6.439 -0.6391  0.1245  0.2349
 3243ntf    sn215694   2.914   1.221   6.590 -0.2515 -0.4068  0.2802
 3243ntf    cn115695   2.791   1.087   6.583 -0.2520 -0.3902 -0.0246
 3243ntf    fn415696   3.077   1.523   6.245  0.6006  0.1593  0.1454
 3243ntf    fn415697   3.041   1.533   6.460  0.3215  0.0104 -0.3051
 3243ntf    fn415698   3.156   1.377   6.370  0.0997 -0.4798 -0.2150
 3243ntf    on515699   2.789   1.425   6.375 -0.0952  0.2323 -0.1896
 3243ntf    on515700   2.913   1.294   6.202  0.0724 -0.2864  0.2352
 3243ntf    on515701   2.844   1.329   6.655  0.3338  0.3319 -0.2962
 3243ntf    on515702   3.026   1.174   6.668  0.3393  0.0994 -0.2534
 3243ntf    fn415703   2.781   1.017   6.695  0.0362 -0.2655  0.0802
 3243ntf    fn415704   2.667   1.121   6.552 -0.2302 -0.0671  0.2369
 3243ntf    fn415705   2.829   1.001   6.489  0.3759  0.0226 -0.1555
 3244ntf    cn115706   1.940   2.779   6.881  0.1606 -0.3988  0.1340
 3244ntf    sn215707   1.790   2.687   6.925  0.1176 -0.3023  0.1895
 3244ntf    nn315708   1.846   2.542   6.944  0.4805 -0.1758  0.1003
 3244ntf    sn215709   1.766   2.407   6.950  0.0984  0.0523  0.1800
 3244ntf    cn115710   1.836   2.306   6.816 -0.0741  0.1859 -0.0126
 3244ntf    fn415711   2.034   2.767   6.974 -0.0162 -0.6238  0.2829
 3244ntf    fn415712   1.987   2.730   6.768  0.5399  0.1009  0.0701
 3244ntf    fn415713   1.931   2.909   6.857  0.2204 -0.4306 -0.0619
 3244ntf    on515714   1.752   2.761   7.043  0.2243  0.2824 -0.1375
 3244ntf    on515715   1.697   2.702   6.816  0.4033  0.4728  0.0400
 3244ntf    on515716   1.626   2.417   6.918  0.0952  0.1760  0.2336
 3244ntf    on515717   1.797   2.339   7.073 -0.0647  0.1631  0.2818
 3244ntf    fn415718   1.778   2.189   6.796  0.3362  0.0263 -0.2897
 3244ntf    fn415719   1.822   2.381   6.708 -0.0343 -0.0219 -0.1631
 3244ntf    fn415720   1.964   2.275   6.833 -0.0702  0.0714 -0.2442
 3245ntf    cn115721   5.374   5.369   5.029 -0.0615  0.2433  0.0752
 3245ntf    sn215722   5.266   5.235   5.086  0.0975  0.1204  0.0888
 3245ntf    nn315723   5.363   5.111   5.086  0.0375  0.0731  0.1403
 3245ntf    sn215724   5.412   5.009   4.978 -0.1668 -0.0376  0.1514
 3245ntf    cn115725   5.580   5.077   4.967 -0.2767  0.1529 -0.3668
 3245ntf    fn415726   5.500   5.355   5.068 -0.1363 -0.3098  0.1179
 3245ntf    fn415727   5.386   5.362   4.898 -0.0538 -0.2737  0.1012
 3245ntf    fn415728   5.337   5.492   5.061  0.1498  0.1088  0.8744
 3245ntf    on515729   5.241   5.283   5.220  0.7562 -0.8026  0.5556
 3245ntf    on515730   5.157   5.237   4.992  0.2253  0.0395 -0.0619
 3245ntf    on515731   5.354   5.027   4.847 -0.1116  0.5455  0.2071
 3245ntf    on515732   5.433   4.873   5.022  0.8671  0.1476  0.2584
 3245ntf    fn415733   5.582   5.194   4.905  0.1776  0.4647  0.2301
 3245ntf    fn415734   5.630   5.096   5.088 -0.2674  0.1742 -0.3739
 3245ntf    fn415735   5.673   5.006   4.905  0.0199  0.1300  0.1020
 3246ntf    cn115736   1.502   5.370   5.031  0.0786 -0.2173 -0.0952
 3246ntf    sn215737   1.426   5.331   5.192 -0.0244  0.0478 -0.0793
 3246ntf    nn315738   1.299   5.422   5.181  0.2440  0.4779  0.3416
 3246ntf    sn215739   1.147   5.395   5.208  0.3431 -0.2058  0.2521
 3246ntf    cn115740   1.099   5.570   5.228  0.0023 -0.3041  0.3008
 3246ntf    fn415741   1.422   5.365   4.926  0.2913  0.7553 -0.3151
 3246ntf    fn415742   1.544   5.495   5.030 -0.4240 -0.0481 -0.1931
 3246ntf    fn415743   1.615   5.303   5.013  0.0394 -0.2886 -0.0768
 3246ntf    on515744   1.405   5.188   5.183 -0.4476  0.1002  0.0542
 3246ntf    on515745   1.521   5.378   5.289 -0.1676  0.2450 -0.0355
 3246ntf    on515746   1.098   5.336   5.330  0.1108  0.3452  0.4326
 3246ntf    on515747   1.069   5.365   5.091  0.1756  0.2892  0.2311
 3246ntf    fn415748   1.104   5.640   5.116  0.4944 -0.1164  0.4397
 3246ntf    fn415749   0.973   5.587   5.264  0.0700  0.2811  0.2620
 3246ntf    fn415750   1.173   5.631   5.318 -0.1826  0.2478  0.0846
 3247ntf    cn115751   2.074   1.491   0.059 -0.2973  0.1612 -0.0306
 3247ntf    sn215752   2.062   1.670   0.088 -0.0051  0.2005 -0.1482
 3247ntf    nn315753   1.914   1.677   0.138 -0.1888  0.3204 -0.7027
 3247ntf    sn215754   1.829   1.792   0.205 -0.0682  0.1940 -0.3298
 3247ntf    cn115755   1.715   1.812   0.065 -0.1358  0.1182 -0.2854
 3247ntf    fn415756   2.078   1.419   0.170 -0.0852  0.0647 -0.0995
 3247ntf    fn415757   1.966   1.450  -0.006  0.0409 -0.1620 -0.3960
 3247ntf    fn415758   2.178   1.464  -0.018 -0.0655 -0.0735  0.3652
 3247ntf    on515759   2.178   1.677   0.174 -0.2085  0.4423  0.1080
 3247ntf    on515760   2.074   1.716  -0.048  0.0423 -0.7149 -0.4598
 3247ntf    on515761   1.902   1.917   0.204  0.1774  0.0598  0.3527
 3247ntf    on515762   1.746   1.749   0.314  0.0284 -0.0976 -0.3679
 3247ntf    fn415763   1.655   1.698   0.033 -0.0123 -0.0746  0.1547
 3247ntf    fn415764   1.626   1.904   0.098  0.0283  0.2165 -0.1121
 3247ntf    fn415765   1.780   1.856  -0.041  0.4034 -0.2354 -0.1080
 3248ntf    cn115766   0.349   0.766   2.526 -0.0311 -0.1148  0.1210
 3248ntf    sn215767   0.182   0.836   2.510 -0.0441 -0.1246  0.2110
 3248ntf    nn315768   0.202   0.959   2.605 -0.1142  0.2450 -0.2477
 3248ntf    sn215769   0.107   1.017   2.716  0.0615  0.2542 -0.1012
 3248ntf    cn115770   0.121   1.189   2.658  0.1221  0.2261 -0.1697
 3248ntf    fn415771   0.440   0.861   2.513  0.1648 -0.2698  0.3427
 3248ntf    fn415772   0.373   0.701   2.639  1.2378 -0.2830 -0.2307
 3248ntf    fn415773   0.382   0.683   2.428  0.0447 -0.5384  0.4978
 3248ntf    on515774   0.173   0.888   2.376  0.0729 -0.0819  0.2197
 3248ntf    on515775   0.100   0.724   2.549 -0.3303 -0.0507 -0.1717
 3248ntf    on515776   0.170   1.020   2.845 -0.3257 -0.0447  0.0965
 3248ntf    on515777  -0.034   0.987   2.723  0.0607  0.2121 -0.3043
 3248ntf    fn415778   0.060   1.207   2.542 -0.0389 -0.4674 -0.1964
 3248ntf    fn415779   0.068   1.271   2.747  0.0772  0.1149 -0.0934
 3248ntf    fn415780   0.245   1.230   2.636  0.2532  0.2061  0.5143
 3249ntf    cn115781   4.535   3.577   1.787 -0.1671 -0.0524 -0.2770
 3249ntf    sn215782   4.663   3.558   1.660  0.1360  0.0902  0.0062
 3249ntf    nn315783   4.644   3.406   1.627 -0.1942  0.1569 -0.1098
 3249ntf    sn215784   4.558   3.335   1.516 -0.0968 -0.0312 -0.0656
 3249ntf    cn115785   4.525   3.179   1.603  0.4356 -0.2743 -0.2958
 3249ntf    fn415786   4.580   3.527   1.901  0.2268  0.1285 -0.3514
 3249ntf    fn415787   4.508   3.703   1.818  0.0908 -0.0440 -0.0870
 3249ntf    fn415788   4.417   3.519   1.773 -0.1193 -0.1222 -0.3910
 3249ntf    on515789   4.617   3.648   1.557 -0.7730 -0.7186 -0.3092
 3249ntf    on515790   4.787   3.580   1.731  0.1897 -0.2290  0.0100
 3249ntf    on515791   4.633   3.298   1.399  0.0468  0.3530 -0.0995
 3249ntf    on515792   4.427   3.395   1.506  0.0371  0.2944  0.1092
 3249ntf    fn415793   4.503   3.211   1.729  0.4976 -0.3068 -0.2768
 3249ntf    fn415794   4.415   3.123   1.556  0.3704 -0.4158  0.0268
 3249ntf    fn415795   4.615   3.082   1.597  0.3869 -0.3307 -0.1156
 3250ntf    cn115796   0.224   6.723   0.934  0.0512 -0.2141  0.0824
 3250ntf    sn215797   0.115   6.626   1.043  0.0296 -0.1542  0.1132
 3250ntf    nn315798   0.124   6.482   0.982 -0.3032  0.0236 -0.3571
 3250ntf    sn215799   0.234   6.372   1.003 -0.0308  0.3303 -0.1634
 3250ntf    cn115800   0.149   6.285   1.139 -0.0587  0.1589 -0.2892
 3250ntf    fn415801   0.149   6.776   0.839 -0.1821 -0.1318  0.3100
 3250ntf    fn415802   0.295   6.815   0.997 -0.1531 -0.1826  0.2706
 3250ntf    fn415803   0.314   6.645   0.875  0.1633  0.2010 -0.3003
 3250ntf    on515804   0.167   6.635   1.178 -0.1525 -0.4926  0.2063
 3250ntf    on515805  -0.020   6.675   1.027  0.1291  0.0868  0.0093
 3250ntf    on515806   0.361   6.419   1.051  0.1635  0.1896 -0.5341
 3250ntf    on515807   0.237   6.273   0.897  0.5498 -0.3119  0.4484
 3250ntf    fn415808   0.143   6.353   1.252  0.4455 -0.4561  0.1143
 3250ntf    fn415809   0.024   6.252   1.113 -0.2049  0.5521 -0.1001
 3250ntf    fn415810   0.225   6.182   1.171 -0.0893  0.2334  0.0247
 3251ntf    cn115811   2.125   0.664   6.675  0.2438  0.1215 -0.1284
 3251ntf    sn215812   2.275   0.686   6.776  0.1627  0.3129 -0.0499
 3251ntf    nn315813   2.270   0.839   6.813  0.0620  0.3848 -0.3532
 3251ntf    sn215814   2.209   0.900   6.944 -0.1636 -0.0158 -0.2679
 3251ntf    cn115815   2.354   0.915   7.054 -0.3777 -0.1186  0.0304
 3251ntf    fn415816   2.020   0.691   6.751  0.0651 -0.1327 -0.2823
 3251ntf    fn415817   2.119   0.728   6.560 -0.3364 -0.0191 -0.1775
 3251ntf    fn415818   2.104   0.536   6.648 -0.0419  0.1500 -0.0468
 3251ntf    on515819   2.263   0.586   6.879  0.4041  0.1468 -0.1828
 3251ntf    on515820   2.380   0.654   6.683  0.3351 -0.5492  0.4333
 3251ntf    on515821   2.125   0.809   7.018 -0.1605 -0.2752 -0.5831
 3251ntf    on515822   2.164   1.037   6.935  0.4030  0.1987  0.0769
 3251ntf    fn415823   2.454   0.985   7.003 -0.4289  0.5306  0.7977
 3251ntf    fn415824   2.323   0.983   7.163  0.1972 -0.0113  0.1276
 3251ntf    fn415825   2.404   0.797   7.085  0.4444  0.2627  0.1708
 3252ntf    cn115826   7.033   2.290   0.321  0.0063 -0.4426 -0.2681
 3252ntf    sn215827   6.973   2.122   0.356 -0.1382 -0.3611 -0.1240
 3252ntf    nn315828   7.105   2.049   0.399  0.0536  0.0339 -0.0376
 3252ntf    sn215829   7.149   1.898   0.397  0.0832  0.0396  0.1726
 3252ntf    cn115830   7.238   1.899   0.238 -0.3674  0.1571 -0.0815
 3252ntf    fn415831   6.950   2.377   0.264 -0.1048 -0.4486 -0.1150
 3252ntf    fn415832   7.089   2.340   0.430  0.2072 -1.0847 -0.0700
 3252ntf    fn415833   7.131   2.282   0.232  0.4861 -0.2460  0.2370
 3252ntf    on515834   6.886   2.134   0.470 -0.0876 -0.1087 -0.1112
 3252ntf    on515835   6.911   2.085   0.231 -0.0641  0.1555 -0.3141
 3252ntf    on515836   7.034   1.811   0.383 -0.1542  0.3829 -0.0346
 3252ntf    on515837   7.244   1.852   0.495  0.4088  0.6449  0.1501
 3252ntf    fn415838   7.153   1.927   0.141 -0.1854  0.2199 -0.2225
 3252ntf    fn415839   7.336   1.986   0.231  0.0458 -0.3138 -0.2207
 3252ntf    fn415840   7.292   1.781   0.212 -0.0904  0.2987 -0.1436
 3253ntf    cn115841   5.259   4.578   3.555  0.3667  0.2546  0.2508
 3253ntf    sn215842   5.214   4.753   3.538  0.0949  0.1818  0.2138
 3253ntf    nn315843   5.165   4.785   3.684 -0.4189  0.0881  0.0616
 3253ntf    sn215844   5.216   4.896   3.782 -0.0820  0.0421 -0.0613
 3253ntf    cn115845   5.329   4.797   3.884  0.1206  0.2236 -0.1087
 3253ntf    fn415846   5.162   4.489   3.572 -0.4759  0.9785 -0.6536
 3253ntf    fn415847   5.338   4.543   3.455 -0.0510  0.0288 -0.0039
 3253ntf    fn415848   5.330   4.572   3.667  0.0137  0.0230  0.4659
 3253ntf    on515849   5.335   4.817   3.493  0.1241  0.0831  0.1511
 3253ntf    on515850   5.103   4.748   3.447  0.0962  0.5192  0.1932
 3253ntf    on515851   5.103   4.928   3.866 -0.3610  0.5605 -0.6214
 3253ntf    on515852   5.296   5.004   3.730  0.2675 -0.0565  0.2689
 3253ntf    fn415853   5.289   4.672   3.898  0.3230  0.1280 -0.3716
 3253ntf    fn415854   5.450   4.791   3.831  0.1540  0.5672 -0.0722
 3253ntf    fn415855   5.344   4.852   4.004 -0.4442  0.0574  0.0432
 3254ntf    cn115856   0.728   4.967   3.158 -0.0788 -0.1327 -0.3571
 3254ntf    sn215857   0.872   4.880   3.090  0.0696 -0.0542 -0.1433
 3254ntf    nn315858   0.991   4.973   3.136  0.0449 -0.0252 -0.1389
 3254ntf    sn215859   1.145   4.943   3.131  0.0269 -0.1284 -0.0701
 3254ntf    cn115860   1.156   4.863   3.294  0.1206  0.1432  0.0578
 3254ntf    fn415861   0.619   4.895   3.140 -0.3208  0.0647  0.2808
 3254ntf    fn415862   0.741   4.977   3.289  0.3396 -0.1339 -0.3974
 3254ntf    fn415863   0.701   5.086   3.107  0.3580  0.3236  0.4454
 3254ntf    on515864   0.872   4.753   3.158  0.1788  0.0382  0.0308
 3254ntf    on515865   0.854   4.877   2.947  0.1098  0.1286 -0.1537
 3254ntf    on515866   1.225   5.060   3.155 -0.2967  0.2564 -0.8201
 3254ntf    on515867   1.187   4.847   3.032 -0.2269 -0.6494  0.3184
 3254ntf    fn415868   1.272   4.802   3.313  0.1510  0.1842  0.0039
 3254ntf    fn415869   1.150   4.942   3.399  0.0466 -0.0113  0.1697
 3254ntf    fn415870   1.066   4.767   3.312 -0.2583  0.3810 -0.5383
 3255ntf    cn115871   0.507   0.924   2.847 -0.0050  0.5524  0.0714
 3255ntf    sn215872   0.513   0.902   3.028  0.0006 -0.1141 -0.0059
 3255ntf    nn315873   0.474   0.751   3.041 -0.1861 -0.1139 -0.5216
 3255ntf    sn215874   0.428   0.672   3.169 -0.0001  0.2960 -0.1993
 3255ntf    cn115875   0.248   0.689   3.150 -0.0210  0.1226 -0.1613
 3255ntf    fn415876   0.511   1.052   2.813 -0.1861  0.5241 -0.0578
 3255ntf    fn415877   0.609   0.863   2.788  0.0574  0.3368  0.3962
 3255ntf    fn415878   0.398   0.871   2.794  0.0499  0.2936  0.2168
 3255ntf    on515879   0.651   0.929   3.057  0.0915 -0.2191 -0.3385
 3255ntf    on515880   0.415   0.997   3.074  0.6765  0.5957 -0.0154
 3255ntf    on515881   0.453   0.743   3.292  0.9570  0.5403 -0.5232
 3255ntf    on515882   0.446   0.529   3.156 -0.7493  0.1796 -0.0070
 3255ntf    fn415883   0.205   0.810   3.179  0.2474  0.1079  0.3020
 3255ntf    fn415884   0.204   0.659   3.029 -0.0169  0.1398 -0.1670
 3255ntf    fn415885   0.186   0.608   3.234  0.4272 -0.5363 -0.4563
 3256ntf    cn115886   1.473   7.020   1.339  0.2493  0.0653  0.2494
 3256ntf    sn215887   1.318   7.073   1.260  0.1747 -0.3539  0.1145
 3256ntf    nn315888   1.359   7.066   1.108  0.5931 -0.4356  0.2277
 3256ntf    sn215889   1.345   6.945   1.009 -0.0511 -0.0779 -0.1249
 3256ntf    cn115890   1.175   6.960   0.944  0.0929  0.2911 -0.4162
 3256ntf    fn415891   1.568   7.111   1.323  0.1187  0.1580  0.0000
 3256ntf    fn415892   1.456   6.993   1.467 -0.0016 -0.3067  0.1398
 3256ntf    fn415893   1.509   6.907   1.281  0.4042  0.0097  0.4525
 3256ntf    on515894   1.208   6.990   1.301 -0.2502  0.1379 -0.0304
 3256ntf    on515895   1.304   7.211   1.297  0.4842 -0.1879 -0.3792
 3256ntf    on515896   1.344   6.817   1.075  0.6694 -0.0361 -0.0268
 3256ntf    on515897   1.426   6.957   0.891  0.4082  0.5569  0.2530
 3256ntf    fn415898   1.088   7.023   1.021 -0.4267 -0.0544 -0.7162
 3256ntf    fn415899   1.169   7.014   0.823  0.0360  0.5604 -0.2928
 3256ntf    fn415900   1.115   6.843   0.933  0.2398  0.1278  0.4555
 3257ntf    cn115901   1.744   1.184   3.289  0.0186  0.1713 -0.3340
 3257ntf    sn215902   1.770   1.363   3.313 -0.0714  0.1020  0.2834
 3257ntf    nn315903   1.633   1.418   3.258 -0.1734 -0.1141  0.3176
 3257ntf    sn215904   1.605   1.470   3.113  0.0382  0.1386  0.3657
 3257ntf    cn115905   1.647   1.646   3.126 -0.0433  0.2161 -0.3760
 3257ntf    fn415906   1.725   1.150   3.162 -0.1961 -0.6046 -0.0971
 3257ntf    fn415907   1.841   1.110   3.339 -0.3689 -0.1833 -0.1056
 3257ntf    fn415908   1.642   1.143   3.362  0.4900 -0.3103  0.0625
 3257ntf    on515909   1.771   1.387   3.455  0.2509  0.0526  0.2892
 3257ntf    on515910   1.886   1.399   3.236 -0.2201  0.1884  0.0983
 3257ntf    on515911   1.464   1.461   3.086  0.0914  0.1722  0.0675
 3257ntf    on515912   1.691   1.420   3.008 -0.3474 -0.2522  0.2346
 3257ntf    fn415913   1.575   1.695   3.225  0.0972 -0.3685  0.0193
 3257ntf    fn415914   1.773   1.665   3.161 -0.1155  0.3179 -0.1729
 3257ntf    fn415915   1.621   1.711   3.013  0.2042  0.5861 -0.2203
 3258ntf    cn115916   5.951   2.910   4.441 -0.1125  0.0186  0.0875
 3258ntf    sn215917   6.062   2.957   4.577  0.0277 -0.1846  0.0438
 3258ntf    nn315918   6.144   2.824   4.587  0.4617  0.1139  0.4816
 3258ntf    sn215919   6.120   2.697   4.677  0.0117  0.0121  0.2200
 3258ntf    cn115920   6.221   2.733   4.824 -0.0709  0.1711  0.2375
 3258ntf    fn415921   6.012   2.870   4.331 -0.0548  0.2727  0.0267
 3258ntf    fn415922   5.878   2.807   4.481  0.0672 -0.2244 -0.2009
 3258ntf    fn415923   5.871   3.009   4.405 -0.0732  0.0661  0.1306
 3258ntf    on515924   6.144   3.066   4.533 -0.2903  0.2148  0.4312
 3258ntf    on515925   5.972   2.982   4.688 -0.2875  0.1604 -0.2876
 3258ntf    on515926   6.181   2.577   4.626  0.7540  0.5076 -0.0709
 3258ntf    on515927   5.988   2.687   4.735 -0.1691  0.6947 -0.0667
 3258ntf    fn415928   6.213   2.638   4.915 -0.0503  0.0393  0.1030
 3258ntf    fn415929   6.350   2.737   4.796 -0.1085  0.0973  0.0538
 3258ntf    fn415930   6.197   2.848   4.885 -0.7727  0.2209 -0.1250
 3259ntf    cn115931   4.434   4.423   1.602 -0.1334  0.3053  0.2546
 3259ntf    sn215932   4.327   4.424   1.455  0.0558  0.1128  0.1167
 3259ntf    nn315933   4.423   4.489   1.350 -0.2995  0.5076  0.0357
 3259ntf    sn215934   4.534   4.421   1.262 -0.6622  0.2663 -0.2345
 3259ntf    cn115935   4.437   4.357   1.122 -0.0879 -0.3469 -0.3597
 3259ntf    fn415936   4.502   4.534   1.628  0.3331  0.2427 -0.6668
 3259ntf    fn415937   4.371   4.391   1.714  0.0635 -0.3403  0.1820
 3259ntf    fn415938   4.522   4.326   1.584 -0.5312  0.1163 -0.7193
 3259ntf    on515939   4.283   4.288   1.435  0.4529  0.0162 -0.1227
 3259ntf    on515940   4.226   4.517   1.498 -0.4615 -0.2196 -0.3693
 3259ntf    on515941   4.595   4.305   1.321  0.3584  0.6446 -0.5295
 3259ntf    on515942   4.619   4.523   1.205 -0.7824  0.5660  0.1214
 3259ntf    fn415943   4.319   4.308   1.158 -0.0384 -0.2605 -0.0796
 3259ntf    fn415944   4.409   4.453   1.035  0.8388  0.4023  0.1524
 3259ntf    fn415945   4.504   4.267   1.053 -0.0078 -0.3130 -0.3251
 3260ntf    cn115946   4.957   5.062   2.774 -0.0445 -0.1471 -0.2036
 3260ntf    sn215947   4.955   5.222   2.859 -0.2288 -0.3628  0.2030
 3260ntf    nn315948   4.817   5.217   2.933 -0.1870  0.7049  0.3769
 3260ntf    sn215949   4.791   5.182   3.084 -0.1478  0.0062  0.2275
 3260ntf    cn115950   4.633   5.093   3.072 -0.0730 -0.0774 -0.1362
 3260ntf    fn415951   4.864   5.062   2.679 -0.1747  0.4630 -0.0804
 3260ntf    fn415952   5.066   5.044   2.701  0.2539 -0.5991  0.3449
 3260ntf    fn415953   4.946   4.950   2.843  0.2960 -0.2654 -0.3392
 3260ntf    on515954   5.070   5.224   2.946 -0.1217 -0.0591  0.0590
 3260ntf    on515955   4.950   5.317   2.750 -0.3661  0.0528  0.5686
 3260ntf    on515956   4.761   5.300   3.162  0.2748  0.4639 -0.2931
 3260ntf    on515957   4.883   5.090   3.145  0.5004  0.3915 -0.1595
 3260ntf    fn415958   4.563   5.145   2.972  0.0728 -0.0331 -0.2148
 3260ntf    fn415959   4.651   4.965   3.044 -0.0194 -0.0899 -0.0455
 3260ntf    fn415960   4.554   5.103   3.177 -0.0963 -0.0433 -0.1570
 3261ntf    cn115961   1.870   3.662   4.693 -0.2934 -0.3600  0.0796
 3261ntf    sn215962   1.953   3.536   4.592 -0.0758 -0.0810 -0.0939
 3261ntf    nn315963   1.980   3.426   4.702  0.1000 -0.2103 -0.2656
 3261ntf    sn215964   1.885   3.321   4.769 -0.1282 -0.0035 -0.2639
 3261ntf    cn115965   1.899   3.180   4.655  0.0990 -0.1099 -0.1054
 3261ntf    fn415966   1.861   3.779   4.632 -0.6831 -0.3851  0.0881
 3261ntf    fn415967   1.742   3.638   4.715 -0.3397 -0.0619  0.1403
 3261ntf    fn415968   1.931   3.682   4.809 -0.3675  0.3421  0.0057
 3261ntf    on515969   1.864   3.497   4.485 -0.0369 -0.6624  0.0787
 3261ntf    on515970   2.075   3.601   4.555  0.0110 -0.1668  0.0372
 3261ntf    on515971   1.743   3.349   4.768 -0.1833 -0.2485  0.4046
 3261ntf    on515972   1.946   3.272   4.890  0.1653 -0.4185 -0.5806
 3261ntf    fn415973   1.834   3.076   4.704  0.0562  0.1286  0.3477
 3261ntf    fn415974   1.850   3.205   4.535 -0.0614 -0.3015 -0.0793
 3261ntf    fn415975   2.023   3.137   4.642  0.1330 -0.0830  0.1165
 3262ntf    cn115976   5.712   5.243   0.119 -0.0739  0.2117  0.0023
 3262ntf    sn215977   5.785   5.118   0.229 -0.0441  0.1854 -0.0481
 3262ntf    nn315978   5.696   4.995   0.193  0.1116  0.0449  0.0481
 3262ntf    sn215979   5.711   4.887   0.079  0.0494  0.2495 -0.1545
 3262ntf    cn115980   5.785   4.749   0.172 -0.5342  0.0054 -0.0514
 3262ntf    fn415981   5.727   5.364   0.173  0.1858  0.4430 -0.5841
 3262ntf    fn415982   5.772   5.230   0.002 -0.4749  0.2526 -0.2097
 3262ntf    fn415983   5.582   5.223   0.103 -0.1129  0.1703  0.3608
 3262ntf    on515984   5.923   5.116   0.185  0.0627 -0.0136  0.2915
 3262ntf    on515985   5.756   5.171   0.360 -0.4476 -0.1780  0.0088
 3262ntf    on515986   5.803   4.903  -0.031 -0.1296  0.3887 -0.2832
 3262ntf    on515987   5.584   4.830   0.044 -0.0239  0.2597  0.0965
 3262ntf    fn415988   5.705   4.710   0.270 -0.2948  0.5968  0.3879
 3262ntf    fn415989   5.811   4.639   0.104  0.1452  0.2528 -0.2021
 3262ntf    fn415990   5.898   4.781   0.233 -0.5950 -0.2074  0.1709
 3263ntf    cn115991   6.780   6.985   3.348  0.0726 -0.2850  0.0447
 3263ntf    sn215992   6.915   7.033   3.237  0.1052 -0.3624  0.0512
 3263ntf    nn315993   6.850   7.158   3.167  0.1604 -0.2945  0.1225
 3263ntf    sn215994   6.871   7.209   3.021  0.0802 -0.3286  0.0987
 3263ntf    cn115995   6.942   7.376   3.041 -0.5251 -0.0336 -0.1932
 3263ntf    fn415996   6.663   6.984   3.287  0.0535 -0.3440  0.0826
 3263ntf    fn415997   6.791   6.861   3.393 -0.7337 -0.2718  0.3056
 3263ntf    fn415998   6.774   7.061   3.456 -0.1408 -0.3302  0.0661
 3263ntf    on515999   7.022   7.069   3.326  0.2030 -0.4359 -0.0369
 3263ntf    on516000   6.936   6.918   3.152 -0.2735 -0.2616 -0.1836
 3263ntf    on516001   6.754   7.247   2.947  0.2202 -0.2995 -0.1101
 3263ntf    on516002   6.972   7.140   2.944 -0.0944  0.0281 -0.4585
 3263ntf    fn416003   6.986   7.433   2.931  0.3216 -0.0022  0.1546
 3263ntf    fn416004   6.854   7.467   3.080 -0.6529 -0.0668 -0.4012
 3263ntf    fn416005   7.046   7.373   3.123 -0.2967  0.2093 -0.4758
 3264ntf    cn116006   3.508   3.687   4.941  0.3560 -0.0281  0.1834
 3264ntf    sn216007   3.668   3.624   5.000  0.2788 -0.1774  0.2347
 3264ntf    nn316008   3.657   3.666   5.151  0.1187 -0.0644  0.1924
 3264ntf    sn216009   3.667   3.803   5.226  0.0605  0.0381  0.0123
 3264ntf    cn116010   3.513   3.788   5.322  0.1424  0.3379  0.1937
 3264ntf    fn416011   3.493   3.818   4.933 -0.7087 -0.1811 -0.5562
 3264ntf    fn416012   3.480   3.639   4.821 -0.1975 -0.0789  0.3303
 3264ntf    fn416013   3.408   3.643   5.016  0.1861 -0.0962 -0.0808
 3264ntf    on516014   3.669   3.482   4.978  0.1594 -0.1175 -0.1686
 3264ntf    on516015   3.755   3.698   4.912  0.3430 -0.0003  0.4446
 3264ntf    on516016   3.641   3.920   5.146 -0.0447  0.6016  0.8480
 3264ntf    on516017   3.763   3.815   5.333  0.2861  0.1450 -0.2008
 3264ntf    fn416018   3.418   3.752   5.236  0.2383  0.0847  0.1936
 3264ntf    fn416019   3.516   3.686   5.405 -0.3466  0.3453  0.2283
 3264ntf    fn416020   3.473   3.900   5.380 -0.8369  0.4598 -0.6718
 3265ntf    cn116021   1.918   5.201   4.287 -0.4311 -0.0973 -0.2762
 3265ntf    sn216022   1.875   5.029   4.245 -0.2844 -0.1639 -0.1545
 3265ntf    nn316023   1.844   4.975   4.389 -0.2226 -0.2824 -0.1859
 3265ntf    sn216024   1.703   4.972   4.458 -0.2874  0.1840 -0.2946
 3265ntf    cn116025   1.749   4.892   4.615 -0.5525  0.1910 -0.2112
 3265ntf    fn416026   2.014   5.203   4.378 -0.6107  0.0618 -0.0891
 3265ntf    fn416027   1.956   5.273   4.182 -0.3181  0.4786  0.1555
 3265ntf    fn416028   1.813   5.260   4.340 -0.1073 -0.0483  0.3191
 3265ntf    on516029   1.757   5.039   4.164 -0.4264  0.0109  0.0709
 3265ntf    on516030   1.992   4.973   4.182  0.3233  0.1874  0.6406
 3265ntf    on516031   1.602   4.891   4.394 -0.5418  0.1022  0.2017
 3265ntf    on516032   1.654   5.100   4.502 -0.2899 -0.0276  0.3293
 3265ntf    fn416033   1.772   4.762   4.610  0.2493  0.3287 -0.3033
 3265ntf    fn416034   1.855   4.951   4.669 -0.8003 -0.0648  0.5643
 3265ntf    fn416035   1.651   4.909   4.702 -0.4625  0.1177 -0.0943
 3266ntf    cn116036   0.079   6.148   2.131 -0.4053 -0.0587 -0.0445
 3266ntf    sn216037  -0.079   6.072   2.179 -0.3707  0.1768  0.4569
 3266ntf    nn316038  -0.044   6.012   2.320  0.7840 -0.0463  0.0853
 3266ntf    sn216039  -0.008   5.869   2.373  0.2517 -0.1744  0.1004
 3266ntf    cn116040  -0.172   5.803   2.418  0.0091 -0.0589 -0.6129
 3266ntf    fn416041   0.176   6.058   2.118  0.0880  0.4540  0.0467
 3266ntf    fn416042   0.084   6.214   2.017 -0.6740 -0.0541 -0.0531
 3266ntf    fn416043   0.113   6.239   2.221 -0.5138  0.0516 -0.1152
 3266ntf    on516044  -0.169   6.184   2.175 -0.4537  0.0910 -0.1703
 3266ntf    on516045  -0.086   5.970   2.077  0.4066  0.3623  0.2109
 3266ntf    on516046   0.068   5.864   2.496 -0.2139 -0.0289  0.3982
 3266ntf    on516047   0.046   5.776   2.277 -0.2719 -0.0964 -0.2744
 3266ntf    fn416048  -0.167   5.674   2.444 -0.0438 -0.0204 -0.4152
 3266ntf    fn416049  -0.223   5.860   2.526  0.7384 -0.4165 -0.0683
 3266ntf    fn416050  -0.263   5.824   2.324 -0.4930 -0.1290 -0.1465
 3267ntf    cn116051   6.573   6.150   4.911  0.0349 -0.0710  0.1175
 3267ntf    sn216052   6.537   5.987   4.983 -0.0355 -0.0532  0.1227
 3267ntf    nn316053   6.386   6.004   5.022 -0.1612 -0.5367 -0.1427
 3267ntf    sn216054   6.322   6.047   5.159  0.1039  0.1988 -0.2482
 3267ntf    cn116055   6.323   5.888   5.247 -0.1609  0.0476 -0.5165
 3267ntf    fn416056   6.516   6.170   4.793 -0.0075 -0.1741  0.1200
 3267ntf    fn416057   6.527   6.254   4.978  0.0012  0.2766 -0.4378
 3267ntf    fn416058   6.702   6.172   4.892 -0.0570  0.3622 -0.0122
 3267ntf    on516059   6.546   5.907   4.864  0.7349  0.1864  0.0161
 3267ntf    on516060   6.631   5.972   5.091  0.2659 -0.0558 -0.1418
 3267ntf    on516061   6.182   6.077   5.145 -0.0855 -0.3522  0.3824
 3267ntf    on516062   6.406   6.132   5.240  0.0399 -0.1381  0.1761
 3267ntf    fn416063   6.444   5.839   5.269 -0.1726 -0.0179 -0.6002
 3267ntf    fn416064   6.264   5.893   5.365  0.8909  0.2376  0.0147
 3267ntf    fn416065   6.259   5.797   5.175 -0.0773 -0.0552 -0.4619
 3268ntf    cn116066   6.021   5.908   2.486  0.3100 -0.0029 -0.4002
 3268ntf    sn216067   6.023   5.879   2.307 -0.2702  0.2799 -0.4533
 3268ntf    nn316068   6.084   5.734   2.312 -0.4340  0.2222 -0.0944
 3268ntf    sn216069   6.228   5.703   2.260 -0.4608 -0.3184  0.1474
 3268ntf    cn116070   6.215   5.700   2.079 -0.7053  0.1703  0.1562
 3268ntf    fn416071   5.961   5.821   2.565 -0.0645  0.6455  0.0444
 3268ntf    fn416072   6.146   5.919   2.530  0.0772  0.1020  0.2415
 3268ntf    fn416073   5.958   6.024   2.500  0.3518 -0.0138 -0.1024
 3268ntf    on516074   5.882   5.872   2.277 -0.2507 -0.4535 -0.3945
 3268ntf    on516075   6.099   5.989   2.256 -0.1543  0.1710 -0.5157
 3268ntf    on516076   6.258   5.565   2.291 -0.6876 -0.3545  0.2013
 3268ntf    on516077   6.333   5.801   2.278 -0.7158 -0.1587  0.8021
 3268ntf    fn416078   6.126   5.618   2.027 -0.0494 -0.3535 -0.1518
 3268ntf    fn416079   6.198   5.820   2.025 -0.2886  0.4058  0.5459
 3268ntf    fn416080   6.331   5.670   2.025 -0.9007  0.4200 -0.4107
 3269ntf    cn116081   6.835   0.266   0.258  0.0708 -0.2753  0.5806
 3269ntf    sn216082   6.729   0.144   0.340 -0.0290 -0.3728  0.3074
 3269ntf    nn316083   6.839   0.074   0.427  0.5837  0.5684  0.3099
 3269ntf    sn216084   6.841   0.006   0.568  0.3133  0.1782  0.1300
 3269ntf    cn116085   6.906  -0.159   0.528 -0.2647  0.0417 -0.2564
 3269ntf    fn416086   6.905   0.345   0.339 -0.7132  0.7953  0.2429
 3269ntf    fn416087   6.925   0.196   0.190 -0.3890 -0.1738 -0.1332
 3269ntf    fn416088   6.779   0.345   0.167  0.4963 -0.6127  0.0204
 3269ntf    on516089   6.632   0.221   0.416 -0.2326  0.0295 -0.3454
 3269ntf    on516090   6.686   0.056   0.235  0.4721 -0.0576 -0.1628
 3269ntf    on516091   6.712  -0.025   0.624  0.3835 -0.4878 -0.0690
 3269ntf    on516092   6.929   0.074   0.660  0.1943  0.3600  0.1093
 3269ntf    fn416093   6.923  -0.235   0.635 -0.8232  0.3001  0.0191
 3269ntf    fn416094   6.827  -0.223   0.444  0.1419 -1.0476  0.1767
 3269ntf    fn416095   7.023  -0.148   0.466 -0.3547 -0.7787 -0.5819
 3270ntf    cn116096   3.841   2.743   6.405  0.1156 -0.0921  0.4941
 3270ntf    sn216097   3.881   2.900   6.322 -0.0530 -0.3059  0.0096
 3270ntf    nn316098   3.836   3.011   6.423  0.5407 -0.4018  0.3829
 3270ntf    sn216099   3.703   3.022   6.505  0.3110 -0.1055 -0.0180
 3270ntf    cn116100   3.710   3.186   6.582 -0.0482  0.0304 -0.2753
 3270ntf    fn416101   3.913   2.720   6.514  0.2565 -0.1867  0.3829
 3270ntf    fn416102   3.714   2.743   6.439 -0.1189  0.6276 -0.3498
 3270ntf    fn416103   3.863   2.636   6.330 -0.1738  0.3360 -0.2056
 3270ntf    on516104   4.024   2.893   6.308 -0.0543 -0.8588  0.2262
 3270ntf    on516105   3.794   2.899   6.207  0.2244 -0.1203 -0.2039
 3270ntf    on516106   3.710   2.944   6.627 -0.5015  0.1576  0.2016
 3270ntf    on516107   3.585   3.024   6.424  0.2379  0.2844  0.0983
 3270ntf    fn416108   3.719   3.281   6.490  0.2916  0.3208  0.0505
 3270ntf    fn416109   3.600   3.206   6.653 -0.1799  0.5225 -0.6103
 3270ntf    fn416110   3.808   3.197   6.671 -0.6531  0.6199  0.3322
 3271ntf    cn116111   6.290   0.845   3.682 -0.0380 -0.3881  0.2917
 3271ntf    sn216112   6.127   0.915   3.645  0.0297 -0.2009  0.3438
 3271ntf    nn316113   6.034   0.826   3.735  0.2030 -0.4097  0.3177
 3271ntf    sn216114   5.887   0.778   3.708  0.0816 -0.0636  0.3543
 3271ntf    cn116115   5.941   0.611   3.659  0.3317  0.1009  0.0670
 3271ntf    fn416116   6.296   0.810   3.809  0.5315 -0.3801  0.2726
 3271ntf    fn416117   6.322   0.737   3.612  0.6914 -0.3924  0.6205
 3271ntf    fn416118   6.385   0.936   3.665 -0.4392  0.0459  0.3409
 3271ntf    on516119   6.139   1.055   3.678  0.0329 -0.1182 -0.0010
 3271ntf    on516120   6.119   0.883   3.504  0.0729 -0.2864  0.3610
 3271ntf    on516121   5.817   0.815   3.587 -0.1145  0.4859  0.6365
 3271ntf    on516122   5.813   0.765   3.831 -0.2018  0.2479  0.2168
 3271ntf    fn416123   6.035   0.604   3.566  0.2691 -0.2078  0.0280
 3271ntf    fn416124   6.000   0.555   3.763  0.4506  0.1647  0.0342
 3271ntf    fn416125   5.845   0.526   3.627  0.1488  0.3069  0.0619
 3272ntf    cn116126   0.035   0.785   6.493  0.3798  0.4355 -0.0287
 3272ntf    sn216127  -0.124   0.837   6.562  0.2044 -0.4098  0.2055
 3272ntf    nn316128  -0.103   0.788   6.710 -0.2436 -0.4764  0.2485
 3272ntf    sn216129  -0.056   0.867   6.837 -0.2044  0.0472 -0.0885
 3272ntf    cn116130   0.057   0.747   6.913 -0.3686 -0.0618 -0.0158
 3272ntf    fn416131   0.031   0.655   6.471  0.1013  0.4029  0.2170
 3272ntf    fn416132   0.055   0.844   6.376 -0.3460  0.2234 -0.2626
 3272ntf    fn416133   0.139   0.804   6.573  0.3398 -0.3758  0.2220
 3272ntf    on516134  -0.123   0.979   6.540 -0.0064 -0.3784  0.3888
 3272ntf    on516135  -0.220   0.757   6.489 -0.0306 -0.3535  0.4512
 3272ntf    on516136  -0.161   0.885   6.934  0.1294  0.0033  0.2871
 3272ntf    on516137   0.027   0.983   6.812  0.0999 -0.0437  0.4840
 3272ntf    fn416138   0.015   0.621   6.906  0.1806 -0.2191 -0.6257
 3272ntf    fn416139   0.177   0.760   6.858 -0.2491 -0.2656  0.1941
 3272ntf    fn416140   0.070   0.785   7.039  0.3414  0.4785 -0.2456
 3273ntf    cn116141   0.807   1.439   6.879 -0.3201  0.0215 -0.0119
 3273ntf    sn216142   0.816   1.595   6.973  0.2155  0.0471 -0.0995
 3273ntf    nn316143   0.972   1.588   6.989  0.1573 -1.3505 -0.0686
 3273ntf    sn216144   1.086   1.638   6.893 -0.1834 -0.0528  0.1891
 3273ntf    cn116145   1.148   1.769   7.003 -0.0831  0.2820 -0.2656
 3273ntf    fn416146   0.841   1.456   6.752 -0.1140 -0.2401  0.0086
 3273ntf    fn416147   0.887   1.351   6.935 -0.4013  0.1146  0.2512
 3273ntf    fn416148   0.685   1.388   6.875 -0.3619  0.1500 -0.5206
 3273ntf    on516149   0.755   1.697   6.891  0.6901  0.2376 -0.2159
 3273ntf    on516150   0.742   1.566   7.093  0.1500  0.7917  0.0439
 3273ntf    on516151   1.045   1.691   6.765  0.2040  0.3499  0.2319
 3273ntf    on516152   1.199   1.549   6.891  0.2768  0.5384 -0.2284
 3273ntf    fn416153   1.207   1.717   7.109  0.1237 -0.6306 -0.8092
 3273ntf    fn416154   1.238   1.847   6.946  0.3369 -0.0929 -0.1254
 3273ntf    fn416155   1.057   1.858   7.039 -0.2573 -0.0725  0.1825
 3274ntf    cn116156   1.929   1.644   5.450  0.4756 -0.0848 -0.2637
 3274ntf    sn216157   2.037   1.516   5.521 -0.0191 -0.2027  0.2816
 3274ntf    nn316158   2.020   1.399   5.418  0.2569 -0.0082  0.0144
 3274ntf    sn216159   1.949   1.259   5.420  0.3861 -0.0767 -0.1454
 3274ntf    cn116160   1.872   1.272   5.256 -0.1857 -0.2297  0.1044
 3274ntf    fn416161   1.986   1.694   5.342  0.8014  0.3484  0.1077
 3274ntf    fn416162   1.809   1.597   5.420  0.2585 -0.1724  0.7089
 3274ntf    fn416163   1.906   1.749   5.527  0.2338 -0.0469 -0.3868
 3274ntf    on516164   2.163   1.583   5.504 -0.0933 -0.1315  0.0064
 3274ntf    on516165   1.981   1.497   5.653 -0.3004 -0.3231  0.1453
 3274ntf    on516166   1.833   1.239   5.505  0.2118 -0.0731 -0.3811
 3274ntf    on516167   2.044   1.152   5.403  0.6438  0.0535  0.4465
 3274ntf    fn416168   1.787   1.172   5.239 -0.5056 -0.0156  0.4335
 3274ntf    fn416169   1.801   1.383   5.243 -0.1984 -0.2788 -0.2671
 3274ntf    fn416170   1.966   1.275   5.162 -0.2620 -0.2752  0.0267
 3275ntf    cn116171   0.117   6.639   2.392 -0.0297  0.3537 -0.1319
 3275ntf    sn216172  -0.062   6.632   2.417 -0.0227  0.2232 -0.1176
 3275ntf    nn316173  -0.106   6.780   2.388  0.1245  0.3402  0.2482
 3275ntf    sn216174  -0.138   6.891   2.495  0.0210  0.0374  0.5353
 3275ntf    cn116175  -0.255   6.998   2.406  0.3865 -0.0729 -0.0924
 3275ntf    fn416176   0.171   6.742   2.455  0.4696  0.2675 -0.4109
 3275ntf    fn416177   0.181   6.530   2.430 -0.3762  0.2326  0.1005
 3275ntf    fn416178   0.139   6.667   2.264  1.2157 -0.2203 -0.0565
 3275ntf    on516179  -0.099   6.537   2.316 -0.2775 -0.0675  0.2459
 3275ntf    on516180  -0.072   6.582   2.552  0.0572 -0.2268 -0.2782
 3275ntf    on516181  -0.025   6.980   2.510 -0.0477  0.1781  0.2349
 3275ntf    on516182  -0.220   6.861   2.609 -0.3790 -0.0618  0.2249
 3275ntf    fn416183  -0.209   7.048   2.292  0.4946 -0.0064 -0.0210
 3275ntf    fn416184  -0.361   6.923   2.382  0.2140  0.2404 -0.3172
 3275ntf    fn416185  -0.301   7.098   2.481  0.0237 -0.4492  0.1911
 3276ntf    cn116186   2.889   4.761   2.706  0.1184 -0.4073 -0.2936
 3276ntf    sn216187   2.728   4.740   2.789 -0.0170  0.4701 -0.3215
 3276ntf    nn316188   2.664   4.618   2.715  0.2781 -0.0521  0.2751
 3276ntf    sn216189   2.692   4.464   2.733  0.5522 -0.0388 -0.0340
 3276ntf    cn116190   2.584   4.436   2.876  0.0323 -0.0400 -0.4252
 3276ntf    fn416191   2.874   4.763   2.575 -0.0614  0.2686 -0.2711
 3276ntf    fn416192   2.952   4.874   2.736 -0.1140 -0.2787 -0.2841
 3276ntf    fn416193   2.981   4.669   2.728  0.2331 -0.2590 -0.1462
 3276ntf    on516194   2.757   4.718   2.928  0.4225 -0.6234 -0.5732
 3276ntf    on516195   2.654   4.860   2.759 -0.3614  0.5045  0.6395
 3276ntf    on516196   2.828   4.437   2.772  0.4780  0.0216  0.2719
 3276ntf    on516197   2.643   4.382   2.625 -0.0051 -0.0834  0.2522
 3276ntf    fn416198   2.463   4.486   2.856  0.0210  0.0495 -0.1274
 3276ntf    fn416199   2.569   4.306   2.899  0.3491 -0.1176 -0.6461
 3276ntf    fn416200   2.634   4.489   2.986  0.4178 -0.5629 -0.3498
 3277ntf    cn116201   1.018   3.435   0.105  0.2712  0.1787 -0.3795
 3277ntf    sn216202   1.140   3.480   0.231  0.3189 -0.1005 -0.3265
 3277ntf    nn316203   1.248   3.519   0.125 -0.2704  0.2547 -0.8021
 3277ntf    sn216204   1.368   3.437   0.063 -0.0127  0.0237 -0.0167
 3277ntf    cn116205   1.506   3.520   0.147  0.1516 -0.2556 -0.0094
 3277ntf    fn416206   0.902   3.412   0.164  0.1980 -0.3196 -0.7120
 3277ntf    fn416207   1.006   3.521   0.005  0.2364  0.2587 -0.3063
 3277ntf    fn416208   1.047   3.318   0.050 -0.4402 -0.0531 -0.2730
 3277ntf    on516209   1.087   3.599   0.293  0.5573  0.0746 -0.4606
 3277ntf    on516210   1.170   3.365   0.313  0.0369  0.0072 -0.0704
 3277ntf    on516211   1.395   3.481  -0.072 -0.3541 -0.1318 -0.1387
 3277ntf    on516212   1.376   3.297   0.095  1.1932  0.2238  0.6103
 3277ntf    fn416213   1.514   3.644   0.102  0.4549 -0.3587 -0.2423
 3277ntf    fn416214   1.482   3.509   0.277 -0.3766 -0.3476 -0.1126
 3277ntf    fn416215   1.625   3.471   0.119 -0.0325 -0.2763 -0.7919
 3278ntf    cn116216   3.250   4.350   0.714 -0.1910 -0.4222  0.2732
 3278ntf    sn216217   3.335   4.206   0.644  0.2529  0.0254 -0.1192
 3278ntf    nn316218   3.239   4.174   0.524 -0.2984  0.4461  0.2082
 3278ntf    sn216219   3.138   4.056   0.505  0.0683  0.1256  0.2449
 3278ntf    cn116220   2.996   4.134   0.424 -0.0666 -0.0388  0.3205
 3278ntf    fn416221   3.299   4.391   0.830 -0.2458 -0.0984  0.1838
 3278ntf    fn416222   3.257   4.452   0.630 -0.1129 -0.1616  0.5924
 3278ntf    fn416223   3.122   4.318   0.723 -0.3164 -0.0194 -0.0759
 3278ntf    on516224   3.466   4.256   0.609  0.2444  0.2547  0.1780
 3278ntf    on516225   3.337   4.107   0.750 -0.3519 -0.0960 -0.2164
 3278ntf    on516226   3.071   4.014   0.626  0.2314 -0.4769  0.1330
 3278ntf    on516227   3.183   3.953   0.415 -0.3398 -0.0934  0.2886
 3278ntf    fn416228   3.040   4.191   0.313 -0.3274 -0.1539  0.1582
 3278ntf    fn416229   2.896   4.052   0.399 -0.2636  0.2182  0.2542
 3278ntf    fn416230   2.948   4.233   0.498 -0.1054 -0.0348  0.2901
 3279ntf    cn116231   3.835   2.230   4.895  0.3108 -0.1053  0.1251
 3279ntf    sn216232   3.751   2.069   4.910  0.0719 -0.0209 -0.2878
 3279ntf    nn316233   3.783   2.020   4.765 -0.3429 -0.2165 -0.3153
 3279ntf    sn216234   3.913   1.942   4.723 -0.0693  0.1800 -0.2125
 3279ntf    cn116235   3.849   1.776   4.759 -0.2560  0.3449  0.2267
 3279ntf    fn416236   3.834   2.303   5.005 -0.0378  0.1721 -0.0588
 3279ntf    fn416237   3.963   2.213   4.864  0.4536  0.8608  0.1762
 3279ntf    fn416238   3.780   2.310   4.805 -0.4807 -0.4471  0.2976
 3279ntf    on516239   3.816   2.005   5.021  0.4230  0.1842 -0.3746
 3279ntf    on516240   3.615   2.110   4.939  0.2485  0.0886  0.4089
 3279ntf    on516241   4.029   1.946   4.809  0.1067  0.2007 -0.4521
 3279ntf    on516242   3.924   1.946   4.580 -0.3127 -0.3494 -0.2479
 3279ntf    fn416243   3.936   1.678   4.741  0.1035  0.6456  0.3193
 3279ntf    fn416244   3.812   1.765   4.886 -0.0418 -0.7645  0.2039
 3279ntf    fn416245   3.740   1.756   4.687 -0.1983  0.1408  0.1955
 3280ntf    cn116246   2.739   0.690   5.696 -0.2469  0.0281 -0.1556
 3280ntf    sn216247   2.571   0.631   5.662 -0.1474 -0.3275 -0.0280
 3280ntf    nn316248   2.541   0.710   5.530 -0.2819 -0.5150 -0.1109
 3280ntf    sn216249   2.419   0.705   5.432 -0.2425  0.0365 -0.1900
 3280ntf    cn116250   2.499   0.604   5.304 -0.3010  0.0777 -0.2588
 3280ntf    fn416251   2.758   0.817   5.663  0.0988  0.0968  0.2968
 3280ntf    fn416252   2.774   0.679   5.823 -0.0185 -0.2581 -0.2417
 3280ntf    fn416253   2.831   0.619   5.632  0.2995  0.2867  0.3234
 3280ntf    on516254   2.600   0.491   5.639  0.3061 -0.2184 -0.1399
 3280ntf    on516255   2.490   0.674   5.773  0.1365 -0.3502  0.1876
 3280ntf    on516256   2.400   0.832   5.365 -0.1957 -0.0615 -0.3893
 3280ntf    on516257   2.307   0.624   5.473  0.1694 -0.4076  0.0534
 3280ntf    fn416258   2.631   0.612   5.302 -0.3265  0.6127  0.1432
 3280ntf    fn416259   2.481   0.473   5.311  0.3414 -0.0177 -0.3877
 3280ntf    fn416260   2.454   0.635   5.183  0.0654  0.1983 -0.3649
 3281ntf    cn116261   5.958   6.817   0.973 -0.2266  0.0322 -0.1495
 3281ntf    sn216262   6.040   6.674   0.894  0.2134  0.0833  0.2151
 3281ntf    nn316263   5.917   6.579   0.877  0.2409  0.1172 -0.1687
 3281ntf    sn216264   5.830   6.561   0.747 -0.2099  0.0732  0.1367
 3281ntf    cn116265   5.668   6.619   0.805 -0.4438 -0.1822 -0.2609
 3281ntf    fn416266   5.855   6.768   1.039 -0.4238  0.2335 -0.3091
 3281ntf    fn416267   6.040   6.878   1.057 -0.2586  0.5536 -0.4949
 3281ntf    fn416268   5.914   6.912   0.893 -0.2032  0.1551 -0.0154
 3281ntf    on516269   6.114   6.712   0.776 -0.3534  0.4884 -0.0153
 3281ntf    on516270   6.120   6.625   1.004  0.4074  0.3019  0.1730
 3281ntf    on516271   5.808   6.422   0.714  0.0752  0.1717 -0.4861
 3281ntf    on516272   5.853   6.651   0.637 -0.1898  0.3085  0.3317
 3281ntf    fn416273   5.659   6.751   0.814 -0.9419 -0.2075 -0.3443
 3281ntf    fn416274   5.575   6.582   0.718 -0.2609 -0.1226 -0.4835
 3281ntf    fn416275   5.644   6.567   0.924  0.3028 -0.6832 -0.3257
 3282ntf    cn116276   1.055   5.548   2.324 -0.0252  0.3455  0.1704
 3282ntf    sn216277   1.101   5.714   2.266 -0.0933  0.3422  0.1064
 3282ntf    nn316278   1.246   5.679   2.217 -0.3051 -0.1762 -0.1616
 3282ntf    sn216279   1.286   5.635   2.072 -0.0825  0.0356 -0.1653
 3282ntf    cn116280   1.318   5.808   2.023  0.5563 -0.1070 -0.2575
 3282ntf    fn416281   1.147   5.501   2.407 -0.3449 -0.4929  0.0489
 3282ntf    fn416282   0.937   5.560   2.382  0.0538  0.2261  0.3566
 3282ntf    fn416283   1.048   5.453   2.233 -0.2490  0.2387  0.2989
 3282ntf    on516284   1.004   5.758   2.169  0.0065  0.5042  0.0790
 3282ntf    on516285   1.118   5.791   2.387 -0.4605 -0.4785  0.6836
 3282ntf    on516286   1.177   5.588   1.990 -0.2604 -0.1148  0.1596
 3282ntf    on516287   1.416   5.573   2.070 -0.0742  0.0467  0.0489
 3282ntf    fn416288   1.395   5.872   2.110 -0.3968  0.3973  0.2341
 3282ntf    fn416289   1.369   5.821   1.902  0.1054  0.1162 -0.4234
 3282ntf    fn416290   1.204   5.874   2.020  0.4065 -0.3527  0.0114
 3283ntf    cn116291   1.966   1.522   4.124  0.0767 -0.2365 -0.2223
 3283ntf    sn216292   1.920   1.475   4.293  0.0674 -0.0921 -0.1850
 3283ntf    nn316293   1.944   1.613   4.364  0.1006 -0.2488  0.1087
 3283ntf    sn216294   1.850   1.674   4.473  0.1995 -0.1294  0.1270
 3283ntf    cn116295   1.960   1.664   4.618  0.2618 -0.0090  0.0881
 3283ntf    fn416296   1.890   1.615   4.068  0.0176 -0.3878 -0.3963
 3283ntf    fn416297   2.092   1.556   4.104  0.0714 -0.2760 -0.3293
 3283ntf    fn416298   1.954   1.423   4.036 -0.2949 -0.2077 -0.2062
 3283ntf    on516299   1.783   1.430   4.288  0.2441 -0.7269  0.4851
 3283ntf    on516300   2.024   1.382   4.331 -0.0151 -0.0632  0.1168
 3283ntf    on516301   1.739   1.590   4.512 -0.1968  0.1534 -0.3809
 3283ntf    on516302   1.823   1.815   4.456  0.0218 -0.0799  0.7752
 3283ntf    fn416303   1.900   1.713   4.725 -0.6004 -0.4856 -0.1683
 3283ntf    fn416304   1.991   1.539   4.645  0.1542  0.0671  0.5710
 3283ntf    fn416305   2.069   1.737   4.604 -0.1079  0.4744 -0.3282
 3284ntf    cn116306   5.169   1.999   0.815 -0.3062  0.0106 -0.4255
 3284ntf    sn216307   5.009   1.928   0.768 -0.3327 -0.0233 -0.2874
 3284ntf    nn316308   5.049   1.812   0.670  0.3452 -0.0738  0.0462
 3284ntf    sn216309   5.066   1.826   0.514  0.2963 -0.1242  0.0364
 3284ntf    cn116310   5.191   1.699   0.481  0.2637 -0.0491 -0.3784
 3284ntf    fn416311   5.239   2.036   0.709  0.3543  0.4638  0.1578
 3284ntf    fn416312   5.164   2.095   0.906 -0.2002 -0.1168 -0.2837
 3284ntf    fn416313   5.244   1.907   0.874  0.0577  0.5171 -0.0891
 3284ntf    on516314   4.957   1.881   0.894 -0.0585 -0.1265 -0.2123
 3284ntf    on516315   4.941   2.038   0.704  0.2780  0.5919  0.1078
 3284ntf    on516316   5.123   1.949   0.466 -0.2625  0.2098  0.2142
 3284ntf    on516317   4.949   1.769   0.451  0.3582 -0.5392  0.2969
 3284ntf    fn416318   5.296   1.706   0.561 -0.6278  0.1889  0.7982
 3284ntf    fn416319   5.142   1.578   0.502  0.0246  0.1302  0.1010
 3284ntf    fn416320   5.240   1.711   0.358 -0.0289 -0.4870 -0.5381
 3285ntf    cn116321   1.219   1.355   0.854  0.0451 -0.2094  0.2284
 3285ntf    sn216322   1.278   1.515   0.918 -0.0380 -0.1128  0.0647
 3285ntf    nn316323   1.405   1.533   0.827 -0.1286 -0.1959 -0.0788
 3285ntf    sn216324   1.559   1.526   0.856 -0.1191  0.0117 -0.0727
 3285ntf    cn116325   1.614   1.691   0.803  0.3527 -0.0890  0.0951
 3285ntf    fn416326   1.193   1.380   0.726  0.1567  0.5728  0.3523
 3285ntf    fn416327   1.316   1.265   0.845 -0.0837 -0.3417  0.1683
 3285ntf    fn416328   1.116   1.301   0.915 -0.1546  0.0143  0.0927
 3285ntf    on516329   1.175   1.607   0.877  0.8725  0.5866 -0.7116
 3285ntf    on516330   1.295   1.492   1.059  0.5042  0.8489  0.1649
 3285ntf    on516331   1.612   1.423   0.769  0.0133 -0.0783  0.1139
 3285ntf    on516332   1.594   1.514   0.995 -0.2029 -0.1014 -0.0605
 3285ntf    fn416333   1.567   1.711   0.681 -0.0481 -0.4064  0.1915
 3285ntf    fn416334   1.567   1.786   0.882 -0.4008 -0.4478  0.0969
 3285ntf    fn416335   1.745   1.702   0.800  0.3402 -0.0479 -0.4763
 3286ntf    cn116336   5.875   2.730   6.406 -0.0186 -0.0737 -0.0592
 3286ntf    sn216337   6.029   2.826   6.419 -0.1096  0.1231 -0.4104
 3286ntf    nn316338   6.100   2.800   6.281 -0.3758 -0.4824 -0.4357
 3286ntf    sn216339   6.251   2.762   6.268 -0.1889  0.0239  0.2120
 3286ntf    cn116340   6.342   2.897   6.349 -0.0446 -0.2005  0.4249
 3286ntf    fn416341   5.813   2.754   6.291 -0.0863  0.3182  0.0586
 3286ntf    fn416342   5.903   2.602   6.390  0.0128 -0.0921  0.1463
 3286ntf    fn416343   5.789   2.747   6.504  0.0164  0.4753 -0.1172
 3286ntf    on516344   5.985   2.963   6.426 -0.1399  0.1219 -0.5759
 3286ntf    on516345   6.092   2.768   6.535 -0.4179  0.1392 -0.2340
 3286ntf    on516346   6.292   2.775   6.131 -0.1354 -0.3671  0.1890
 3286ntf    on516347   6.292   2.642   6.338  0.1101 -0.0186 -0.0337
 3286ntf    fn416348   6.468   2.870   6.380  0.1582  0.2831  0.0205
 3286ntf    fn416349   6.349   3.008   6.278  0.0460  0.0472  0.8158
 3286ntf    fn416350   6.292   2.941   6.463  0.2848 -0.5575  0.7107
 3287ntf    cn116351   0.903   4.932   4.580  0.0307  0.2463  0.3221
 3287ntf    sn216352   0.839   4.933   4.750  0.2258  0.0627  0.3978
 3287ntf    nn316353   0.911   4.807   4.811  0.4838  0.2049  0.3860
 3287ntf    sn216354   0.873   4.655   4.808 -0.0686  0.3506 -0.1011
 3287ntf    cn116355   0.763   4.652   4.953 -0.0463  0.1474 -0.0884
 3287ntf    fn416356   0.842   5.019   4.502  0.2322  0.2651  0.1833
 3287ntf    fn416357   1.033   4.959   4.570  0.1179 -0.0647  0.5929
 3287ntf    fn416358   0.886   4.815   4.520 -0.0718 -0.0698  0.9615
 3287ntf    on516359   0.890   5.055   4.807  0.2688  0.1614  0.1461
 3287ntf    on516360   0.696   4.916   4.738  0.2247  0.6369 -0.4634
 3287ntf    on516361   0.977   4.565   4.850 -0.0870  0.4220  0.0997
 3287ntf    on516362   0.796   4.612   4.694  0.2054 -0.1344 -0.1034
 3287ntf    fn416363   0.831   4.697   5.057  0.1039  0.4776 -0.3265
 3287ntf    fn416364   0.653   4.723   4.934 -0.2126  0.2526  1.1708
 3287ntf    fn416365   0.729   4.529   4.988  0.6746 -0.0647 -0.1321
 3288ntf    cn116366   1.622   0.951   4.898 -0.4251  0.4814  0.1487
 3288ntf    sn216367   1.531   0.897   4.750  0.4290 -0.2572 -0.1153
 3288ntf    nn316368   1.652   0.915   4.651  0.5224 -0.3781 -0.0234
 3288ntf    sn216369   1.664   0.921   4.494 -0.0120  0.2539 -0.0442
 3288ntf    cn116370   1.783   1.057   4.474  0.1510  0.1042 -0.0909
 3288ntf    fn416371   1.706   0.855   4.934 -0.2154  0.6726  0.1642
 3288ntf    fn416372   1.689   1.063   4.879 -0.5016  0.5018 -0.0008
 3288ntf    fn416373   1.534   0.960   4.997 -0.5391 -0.2951  0.1299
 3288ntf    on516374   1.499   0.759   4.772 -0.1392 -0.1310 -0.1386
 3288ntf    on516375   1.424   0.994   4.745  0.1197 -0.5606  0.5318
 3288ntf    on516376   1.541   0.952   4.425 -0.2127 -0.1219  0.1367
 3288ntf    on516377   1.735   0.807   4.441 -0.3276 -0.0579  0.1911
 3288ntf    fn416378   1.808   1.083   4.347  0.3967  0.5389  0.0460
 3288ntf    fn416379   1.740   1.174   4.518 -0.2393 -0.1501  0.2089
 3288ntf    fn416380   1.896   1.033   4.539  0.1124  0.4355  0.0983
 3289ntf    cn116381   2.268   4.533   4.227  0.0226 -0.0577 -0.1935
 3289ntf    sn216382   2.143   4.401   4.233  0.0179 -0.0374  0.2175
 3289ntf    nn316383   2.062   4.436   4.103  0.1634 -0.8492 -0.0977
 3289ntf    sn216384   2.106   4.413   3.954  0.0940 -0.0916 -0.2411
 3289ntf    cn116385   1.999   4.271   3.916  0.1608 -0.2032 -0.0160
 3289ntf    fn416386   2.365   4.514   4.140  0.0344 -0.3375 -0.1195
 3289ntf    fn416387   2.216   4.651   4.197  0.4561  0.2143  0.1093
 3289ntf    fn416388   2.312   4.558   4.349  0.0304  0.4651 -0.3006
 3289ntf    on516389   2.218   4.278   4.240 -0.0479 -0.0639  0.4765
 3289ntf    on516390   2.085   4.438   4.360 -0.1612 -0.5913  0.2987
 3289ntf    on516391   2.242   4.367   3.941 -0.0087 -0.5669  0.3465
 3289ntf    on516392   2.058   4.517   3.866  0.5630  0.2740 -0.0671
 3289ntf    fn416393   2.015   4.217   3.796 -0.2498  0.6945 -0.4871
 3289ntf    fn416394   2.025   4.174   4.002  0.5240 -0.4950 -0.4487
 3289ntf    fn416395   1.872   4.304   3.937  0.2191 -0.1108  0.1929
 3290ntf    cn116396   1.745   2.855   5.792 -0.2253 -0.2962  0.1893
 3290ntf    sn216397   1.831   2.700   5.834  0.3235 -0.0369  0.0389
 3290ntf    nn316398   1.884   2.665   5.690 -0.2784 -0.1638 -0.1553
 3290ntf    sn216399   2.023   2.714   5.637 -0.3204  0.2808  0.1390
 3290ntf    cn116400   1.978   2.777   5.472 -0.0022 -0.0134 -0.0612
 3290ntf    fn416401   1.687   2.921   5.891  0.3999  0.0090  0.3578
 3290ntf    fn416402   1.817   2.950   5.734 -0.3054 -0.3902 -0.0649
 3290ntf    fn416403   1.651   2.826   5.704 -0.4741 -0.1856  0.4182
 3290ntf    on516404   1.923   2.732   5.940  0.4044 -0.5114  0.1112
 3290ntf    on516405   1.722   2.613   5.871  0.2760  0.1547  0.3518
 3290ntf    on516406   2.106   2.601   5.605  0.2609  0.5723  0.6053
 3290ntf    on516407   2.085   2.826   5.703 -0.2252  0.1335  0.2979
 3290ntf    fn416408   2.073   2.856   5.422  0.3122 -0.6508 -0.4803
 3290ntf    fn416409   1.956   2.685   5.380 -0.1900  0.4235 -0.4620
 3290ntf    fn416410   1.870   2.853   5.476  0.0116  0.0126 -0.1780
 3291ntf    cn116411   7.016   1.800   3.647  0.0051  0.1193 -0.1917
 3291ntf    sn216412   7.002   1.648   3.549 -0.1299  0.0571 -0.0758
 3291ntf    nn316413   7.036   1.550   3.666  0.2033  0.0496 -0.1787
 3291ntf    sn216414   7.044   1.393   3.672  0.0378  0.0612  0.4327
 3291ntf    cn116415   6.879   1.356   3.737 -0.1142 -0.3576 -0.1839
 3291ntf    fn416416   6.940   1.787   3.754 -0.3623  0.5253 -0.3970
 3291ntf    fn416417   7.141   1.818   3.685  0.1449 -0.2021 -0.4958
 3291ntf    fn416418   6.979   1.910   3.583 -0.5528  0.3754  0.5610
 3291ntf    on516419   6.864   1.640   3.506 -0.1889  0.1652  0.0936
 3291ntf    on516420   7.098   1.658   3.442  0.3247  0.2572  0.3514
 3291ntf    on516421   7.143   1.355   3.771  0.5665  0.0686 -0.0853
 3291ntf    on516422   7.040   1.323   3.546 -0.0116  0.3758  0.2606
 3291ntf    fn416423   6.866   1.234   3.788 -0.2464 -0.3850 -0.2818
 3291ntf    fn416424   6.847   1.435   3.839 -0.4869 -0.5662 -0.1359
 3291ntf    fn416425   6.783   1.372   3.648 -0.1428 -0.2873 -0.1410
 3292ntf    cn116426   6.906   2.217   4.005  0.3715  0.0090 -0.0481
 3292ntf    sn216427   6.811   2.350   3.927 -0.1054 -0.3143 -0.0172
 3292ntf    nn316428   6.899   2.475   3.961 -0.2992 -0.0428 -0.4895
 3292ntf    sn216429   6.867   2.626   3.988 -0.1429 -0.0903 -0.0130
 3292ntf    cn116430   6.899   2.698   3.824  0.1959  0.1570  0.1606
 3292ntf    fn416431   6.864   2.095   3.975 -0.4603  0.3274 -0.2052
 3292ntf    fn416432   7.032   2.224   3.965  0.2412 -0.9427 -0.6601
 3292ntf    fn416433   6.902   2.228   4.137 -0.0760  0.2500 -0.0801
 3292ntf    on516434   6.802   2.322   3.785  0.5220  0.5287 -0.2260
 3292ntf    on516435   6.683   2.352   3.993 -0.1490  0.1310 -0.1118
 3292ntf    on516436   6.968   2.680   4.075 -0.2288  0.1260 -0.0478
 3292ntf    on516437   6.727   2.645   4.016 -0.0958 -0.5037  0.5253
 3292ntf    fn416438   6.796   2.656   3.751  0.3155  0.2049 -0.0351
 3292ntf    fn416439   6.911   2.830   3.822  0.2294  0.1490 -0.5424
 3292ntf    fn416440   7.007   2.642   3.773  0.1121 -0.0296  0.1876
 3293ntf    cn116441   0.910   1.255   2.324  0.1139  0.2546  0.0646
 3293ntf    sn216442   0.919   1.150   2.472 -0.2330  0.0025 -0.0898
 3293ntf    nn316443   1.074   1.134   2.492 -0.2559 -0.0062  0.0815
 3293ntf    sn216444   1.167   1.205   2.597  0.0014 -0.3513  0.0910
 3293ntf    cn116445   1.293   1.077   2.621  0.0265 -0.3370  0.0371
 3293ntf    fn416446   0.922   1.193   2.207 -0.0171 -0.1139  0.2452
 3293ntf    fn416447   0.799   1.325   2.313  0.3211  0.5652 -0.0592
 3293ntf    fn416448   1.010   1.341   2.327  0.1041  0.2722 -0.1127
 3293ntf    on516449   0.847   1.225   2.573  0.1261 -0.6124  0.6353
 3293ntf    on516450   0.855   1.027   2.436 -0.3745  0.1066 -0.1952
 3293ntf    on516451   1.114   1.207   2.731  0.0903  0.1288  0.1218
 3293ntf    on516452   1.227   1.327   2.549 -0.6201  0.0340  0.2852
 3293ntf    fn416453   1.357   1.058   2.507  0.3279  0.6218  0.0404
 3293ntf    fn416454   1.394   1.109   2.701 -0.1212  0.7172 -0.1887
 3293ntf    fn416455   1.247   0.962   2.667  0.4050 -0.3049  0.5065
 3294ntf    cn116456   6.598   1.568   4.055 -0.1221 -0.2869  0.0732
 3294ntf    sn216457   6.469   1.481   4.150 -0.3086 -0.1444 -0.0495
 3294ntf    nn316458   6.463   1.582   4.270  0.5498  0.1269 -0.2262
 3294ntf    sn216459   6.353   1.689   4.303  0.1334 -0.3981  0.1048
 3294ntf    cn116460   6.222   1.597   4.390  0.1458 -0.0542  0.4926
 3294ntf    fn416461   6.699   1.608   4.130  0.1529 -0.4158 -0.2291
 3294ntf    fn416462   6.646   1.502   3.951 -0.1245  0.4099 -0.3784
 3294ntf    fn416463   6.549   1.680   4.004 -0.1740 -0.3936 -0.1085
 3294ntf    on516464   6.352   1.475   4.065  0.0365 -0.3347 -0.5163
 3294ntf    on516465   6.535   1.358   4.183  0.3542  0.3601  0.5147
 3294ntf    on516466   6.287   1.750   4.190  0.1593 -0.1189  0.2386
 3294ntf    on516467   6.404   1.784   4.399  0.0752 -0.2784  0.0178
 3294ntf    fn416468   6.266   1.536   4.499 -0.3321 -0.1964  0.6067
 3294ntf    fn416469   6.120   1.668   4.434  0.5592  0.6527  0.3241
 3294ntf    fn416470   6.164   1.510   4.309  0.5518 -0.1040  0.2536
 3295ntf    cn116471   6.377   5.102   2.138  0.4824  0.3215 -0.1833
 3295ntf    sn216472   6.545   5.038   2.109  0.4166  0.2183 -0.3359
 3295ntf    nn316473   6.554   5.052   1.953 -0.5383  0.2966 -0.3873
 3295ntf    sn216474   6.590   4.937   1.852 -0.0281 -0.0477  0.1872
 3295ntf    cn116475   6.675   5.038   1.728 -0.1598  0.2198  0.3145
 3295ntf    fn416476   6.349   5.106   2.267 -0.3363 -0.3862 -0.3350
 3295ntf    fn416477   6.361   5.225   2.091  0.2641  0.2290 -0.3477
 3295ntf    fn416478   6.287   5.031   2.074 -0.0432  1.0567 -0.2722
 3295ntf    on516479   6.621   5.143   2.173  0.0927  0.1064  0.2344
 3295ntf    on516480   6.545   4.908   2.171  0.1791  0.1490 -0.4812
 3295ntf    on516481   6.477   4.888   1.778  0.4062  0.2725 -0.7022
 3295ntf    on516482   6.690   4.841   1.892  0.2510  0.1535 -0.0206
 3295ntf    fn416483   6.720   4.972   1.622  0.0591 -0.1833  0.6575
 3295ntf    fn416484   6.598   5.136   1.684  0.1657  0.3174 -0.0474
 3295ntf    fn416485   6.774   5.104   1.787 -0.0302  0.0281  0.3109
 3296ntf    cn116486   0.481   0.382   1.428 -0.0405  0.1168 -0.2307
 3296ntf    sn216487   0.492   0.224   1.338 -0.3628  0.0106 -0.0854
 3296ntf    nn316488   0.591   0.257   1.220 -0.4056 -0.0044 -0.1257
 3296ntf    sn216489   0.748   0.249   1.227 -0.4315 -0.2340  0.2026
 3296ntf    cn116490   0.790   0.275   1.052 -0.0202  0.2291  0.3700
 3296ntf    fn416491   0.597   0.429   1.471  0.1153 -0.1719 -0.3265
 3296ntf    fn416492   0.426   0.481   1.360 -0.2033  0.0173 -0.2432
 3296ntf    fn416493   0.413   0.371   1.540  0.2443 -0.0389 -0.0705
 3296ntf    on516494   0.529   0.124   1.435  0.3164  0.1488 -0.1923
 3296ntf    on516495   0.356   0.201   1.297 -0.3428  0.2853 -0.3122
 3296ntf    on516496   0.799   0.116   1.252 -0.2965 -0.2376 -0.0911
 3296ntf    on516497   0.809   0.362   1.292 -0.7286  0.0161  0.0445
 3296ntf    fn416498   0.750   0.175   0.976  0.0248  0.3995  0.1203
 3296ntf    fn416499   0.743   0.381   0.990  0.3539  0.3782  0.3360
 3296ntf    fn416500   0.922   0.278   1.040 -0.0948  0.0062 -0.5521
 3297ntf    cn116501   0.424   6.074   5.179 -0.0485 -0.0893  0.0463
 3297ntf    sn216502   0.594   6.125   5.218  0.0831 -0.5214  0.0410
 3297ntf    nn316503   0.642   6.012   5.316  0.3659 -0.4658 -0.0324
 3297ntf    sn216504   0.712   5.879   5.271  0.2876 -0.4454 -0.2132
 3297ntf    cn116505   0.882   5.944   5.278  0.0262  0.1791  0.5407
 3297ntf    fn416506   0.339   6.103   5.276  0.2034 -0.2850  0.3279
 3297ntf    fn416507   0.386   6.142   5.072 -0.4639 -0.2373  0.0980
 3297ntf    fn416508   0.407   5.945   5.157 -0.1430 -0.1618  0.5393
 3297ntf    on516509   0.659   6.135   5.090 -0.2485  0.5057 -0.0508
 3297ntf    on516510   0.584   6.248   5.292  0.1038 -0.5308  0.0598
 3297ntf    on516511   0.693   5.835   5.136  0.1215 -0.3097 -0.2346
 3297ntf    on516512   0.709   5.786   5.382 -0.0953 -0.0292  0.1319
 3297ntf    fn416513   0.967   5.843   5.289 -0.2104 -0.1001 -0.1334
 3297ntf    fn416514   0.909   6.013   5.169 -0.0745 -0.2657  0.2327
 3297ntf    fn416515   0.900   6.022   5.383 -0.5314  0.4245  0.4588
 3298ntf    cn116516   2.044   3.666   5.392 -0.1243 -0.3613 -0.5221
 3298ntf    sn216517   2.148   3.555   5.492 -0.1373 -0.0302 -0.1383
 3298ntf    nn316518   2.058   3.427   5.508 -0.1823  0.1113  0.8180
 3298ntf    sn216519   2.101   3.292   5.574 -0.0427 -0.1370  0.2258
 3298ntf    cn116520   2.017   3.303   5.735 -0.5192 -0.2362 -0.0148
 3298ntf    fn416521   1.952   3.617   5.311 -0.8479 -0.0349  0.0871
 3298ntf    fn416522   1.975   3.752   5.466 -0.1614 -0.3317 -0.5908
 3298ntf    fn416523   2.129   3.742   5.327  0.2967 -0.1286  0.2851
 3298ntf    on516524   2.266   3.541   5.410  0.4334 -0.1533  0.6868
 3298ntf    on516525   2.166   3.624   5.618  0.0427  0.1788 -0.2769
 3298ntf    on516526   2.241   3.271   5.603 -0.0452  0.1031  0.4102
 3298ntf    on516527   2.032   3.183   5.509 -0.1159  0.0133  0.0487
 3298ntf    fn416528   2.055   3.411   5.801  0.1851 -0.2557 -0.3769
 3298ntf    fn416529   1.885   3.299   5.725 -0.4776 -0.4139 -0.5711
 3298ntf    fn416530   2.059   3.202   5.808 -0.2044  0.0175  0.1561
 3299ntf    cn116531   6.294   2.338   1.909 -0.1136 -0.4223  0.5947
 3299ntf    sn216532   6.352   2.508   1.936 -0.0590 -0.3771  0.1946
 3299ntf    nn316533   6.387   2.529   1.785  0.0820 -0.1475  0.2588
 3299ntf    sn216534   6.376   2.664   1.705 -0.0663 -0.2823  0.0503
 3299ntf    cn116535   6.554   2.700   1.710 -0.1058 -0.0913  0.1197
 3299ntf    fn416536   6.188   2.336   1.829 -0.1190 -0.6078  0.6063
 3299ntf    fn416537   6.392   2.263   1.861  0.3492  0.4053  0.2202
 3299ntf    fn416538   6.253   2.280   2.021 -0.4634  0.0256  0.7032
 3299ntf    on516539   6.243   2.586   1.990  0.4562  0.3029  0.2696
 3299ntf    on516540   6.465   2.495   2.025  0.1480  0.3339  0.0449
 3299ntf    on516541   6.305   2.770   1.773  0.2534  0.0772 -0.1702
 3299ntf    on516542   6.347   2.638   1.566 -0.1126  0.1683 -0.0277
 3299ntf    fn416543   6.599   2.701   1.834  0.4751  0.1487 -0.0865
 3299ntf    fn416544   6.617   2.597   1.655  0.3065 -0.0662  0.5446
 3299ntf    fn416545   6.582   2.812   1.645 -0.1770 -0.1655 -0.0394
 3300ntf    cn116546   4.151   6.357   4.618 -0.0759  0.0435  0.1467
 3300ntf    sn216547   3.989   6.300   4.677 -0.1052  0.0186  0.0436
 3300ntf    nn316548   3.897   6.397   4.595  0.0712  0.6514  0.5822
 3300ntf    sn216549   3.741   6.383   4.594  0.0966  0.3252 -0.2856
 3300ntf    cn116550   3.707   6.230   4.501  0.3635  0.0343  0.0929
 3300ntf    fn416551   4.142   6.389   4.490  0.2833  0.0124  0.1125
 3300ntf    fn416552   4.190   6.468   4.678  0.2164  0.0172  0.0035
 3300ntf    fn416553   4.245   6.268   4.644 -0.4973 -0.5220 -0.2370
 3300ntf    on516554   3.985   6.162   4.633 -0.1096  0.1339 -0.3193
 3300ntf    on516555   3.998   6.312   4.821  0.2652  0.5566 -0.0266
 3300ntf    on516556   3.667   6.483   4.521 -0.2102  0.7471  0.5878
 3300ntf    on516557   3.692   6.352   4.726  0.4315  0.3832 -0.1469
 3300ntf    fn416558   3.588   6.229   4.445  0.1811  0.0708  0.4799
 3300ntf    fn416559   3.794   6.215   4.403  0.3832  0.1100  0.0984
 3300ntf    fn416560   3.724   6.122   4.576 -0.6759 -0.3498 -0.2137
 3301ntf    cn116561   0.765   0.889   3.885  0.2285  0.7345 -0.2079
 3301ntf    sn216562   0.842   0.916   3.723  0.3064  0.5291 -0.2044
 3301ntf    nn316563   0.868   1.070   3.728  0.5807  0.4747  0.0422
 3301ntf    sn216564   0.769   1.187   3.694 -0.1446 -0.2486 -0.3528
 3301ntf    cn116565   0.809   1.201   3.517  0.0905 -0.0454 -0.2841
 3301ntf    fn416566   0.649   0.951   3.900 -0.0844  0.2101 -0.4376
 3301ntf    fn416567   0.734   0.763   3.911  0.7769  0.7106  0.3465
 3301ntf    fn416568   0.844   0.928   3.984  0.7237 -0.7267 -0.0070
 3301ntf    on516569   0.965   0.842   3.740 -0.1847 -0.0757  0.7848
 3301ntf    on516570   0.749   0.865   3.626 -0.0682  0.1542  0.3452
 3301ntf    on516571   0.802   1.317   3.747 -0.6580 -0.1017 -0.3854
 3301ntf    on516572   0.631   1.150   3.712 -0.0850 -0.2943  0.0124
 3301ntf    fn416573   0.934   1.242   3.499  0.1834 -0.3482 -0.3284
 3301ntf    fn416574   0.791   1.091   3.446  0.7742 -0.2874 -0.0934
 3301ntf    fn416575   0.737   1.299   3.463  0.2334  0.3778  0.2764
 3302ntf    cn116576   0.015   1.688   1.481  0.4062 -0.1699 -0.3436
 3302ntf    sn216577  -0.001   1.545   1.592  0.5409  0.2226  0.1832
 3302ntf    nn316578  -0.106   1.606   1.692 -0.2678  0.0123 -0.5266
 3302ntf    sn216579  -0.254   1.570   1.731 -0.0570 -0.4087 -0.1165
 3302ntf    cn116580  -0.340   1.649   1.592  0.3428 -0.1562 -0.2233
 3302ntf    fn416581   0.012   1.805   1.541  0.6977 -0.1933 -0.2809
 3302ntf    fn416582   0.118   1.678   1.398  0.0684  0.1130 -0.8016
 3302ntf    fn416583  -0.089   1.696   1.399  0.1492  0.5176  0.0477
 3302ntf    on516584  -0.052   1.441   1.507  0.3202  0.1062  0.4554
 3302ntf    on516585   0.126   1.520   1.655  0.5657  0.7672  0.3526
 3302ntf    on516586  -0.299   1.636   1.850  0.8415 -0.9739  0.5526
 3302ntf    on516587  -0.286   1.430   1.720  0.1052 -0.4610  0.0636
 3302ntf    fn416588  -0.471   1.632   1.603  0.2479  0.5464 -0.2104
 3302ntf    fn416589  -0.316   1.779   1.589  0.1767 -0.1196 -0.0392
 3302ntf    fn416590  -0.312   1.596   1.474  0.0877  0.5327 -0.6001
 3303ntf    cn116591   5.870   0.934   2.201 -0.4010 -0.0441 -0.2511
 3303ntf    sn216592   5.941   0.768   2.227 -0.0623  0.1482  0.0673
 3303ntf    nn316593   5.863   0.728   2.357  0.0620 -0.1965  0.0361
 3303ntf    sn216594   5.910   0.673   2.496  0.0898  0.1091  0.1497
 3303ntf    cn116595   5.799   0.770   2.602  0.2373  0.3042  0.1264
 3303ntf    fn416596   5.927   1.027   2.277 -0.5610 -0.3463  0.2434
 3303ntf    fn416597   5.896   0.965   2.075 -0.0789  0.1489 -0.1392
 3303ntf    fn416598   5.739   0.947   2.216 -0.3451  0.4005 -0.1307
 3303ntf    on516599   5.902   0.693   2.110  0.3024 -0.0604  0.0797
 3303ntf    on516600   6.080   0.800   2.245 -0.1359  0.9163 -0.6365
 3303ntf    on516601   6.041   0.711   2.542  0.0592 -0.0387  0.3645
 3303ntf    on516602   5.866   0.537   2.519  0.4204 -0.0208  0.0259
 3303ntf    fn416603   5.670   0.768   2.570  0.3005  0.0420 -0.1151
 3303ntf    fn416604   5.800   0.719   2.724 -0.0598 -0.3305 -0.1287
 3303ntf    fn416605   5.843   0.894   2.602 -0.1402  0.4380 -0.1947
 3304ntf    cn116606   2.135   3.330   0.461  0.3436  0.0603 -0.1912
 3304ntf    sn216607   2.250   3.444   0.378  0.0151  0.2792 -0.3506
 3304ntf    nn316608   2.213   3.427   0.226 -0.4903 -0.3452 -0.1607
 3304ntf    sn216609   2.143   3.523   0.124 -0.4027 -0.0532  0.0488
 3304ntf    cn116610   2.220   3.462  -0.029 -0.0204  0.1154  0.1736
 3304ntf    fn416611   2.120   3.342   0.591  0.2360  0.2956 -0.2247
 3304ntf    fn416612   2.010   3.343   0.419  0.2795 -0.3143 -0.1194
 3304ntf    fn416613   2.159   3.201   0.445 -0.3967 -0.1655  0.4792
 3304ntf    on516614   2.203   3.567   0.437 -0.4494 -0.2041  0.2879
 3304ntf    on516615   2.383   3.400   0.415 -0.1035  0.1416 -0.0871
 3304ntf    on516616   2.174   3.663   0.127  0.0921 -0.1720  0.4646
 3304ntf    on516617   2.005   3.482   0.113 -0.3376 -0.1717 -0.3677
 3304ntf    fn416618   2.191   3.335  -0.053  0.3340  0.1289 -0.3471
 3304ntf    fn416619   2.180   3.526  -0.138 -0.4417 -0.1997  0.1407
 3304ntf    fn416620   2.352   3.472  -0.029 -0.0264  0.1992  0.0786
 3305ntf    cn116621   4.026   1.548   2.160 -0.2153  0.3169  0.0868
 3305ntf    sn216622   4.037   1.373   2.205 -0.0622  0.2622 -0.1634
 3305ntf    nn316623   4.133   1.384   2.330 -0.2869 -0.2200  0.0548
 3305ntf    sn216624   4.082   1.397   2.478 -0.1313  0.0509  0.0852
 3305ntf    cn116625   4.133   1.563   2.530 -0.1360 -0.0130  0.2937
 3305ntf    fn416626   3.980   1.568   2.037 -0.3690 -0.1255  0.0723
 3305ntf    fn416627   3.956   1.617   2.250 -0.3429  0.5357 -0.1799
 3305ntf    fn416628   4.145   1.605   2.164 -0.1795  0.2222  0.3877
 3305ntf    on516629   3.897   1.348   2.228 -0.1323  0.7750 -0.0280
 3305ntf    on516630   4.109   1.312   2.096 -0.1207 -0.1492  0.0219
 3305ntf    on516631   4.167   1.318   2.563 -0.2289 -0.3969 -0.2321
 3305ntf    on516632   3.940   1.401   2.505 -0.1209  0.4639  0.0773
 3305ntf    fn416633   4.262   1.582   2.508 -0.2129 -0.3362 -0.4481
 3305ntf    fn416634   4.067   1.658   2.465 -0.0694 -0.2500 -0.1252
 3305ntf    fn416635   4.112   1.582   2.660  0.2785  0.2567  0.3217
 3306ntf    cn116636   3.606   3.844   2.406 -0.0980 -0.3787  0.0665
 3306ntf    sn216637   3.483   3.888   2.532  0.2276 -0.1124  0.2914
 3306ntf    nn316638   3.411   3.753   2.564  0.1634 -0.1938 -0.1925
 3306ntf    sn216639   3.455   3.642   2.667  0.0770 -0.2418 -0.2068
 3306ntf    cn116640   3.363   3.698   2.813  0.1508 -0.2200 -0.1686
 3306ntf    fn416641   3.542   3.797   2.300  0.1439  0.1830 -0.3343
 3306ntf    fn416642   3.676   3.946   2.360 -0.0137 -0.4279  0.0837
 3306ntf    fn416643   3.698   3.750   2.428  0.2100 -0.0859  0.0367
 3306ntf    on516644   3.553   3.955   2.639 -0.2066 -0.1904  0.6265
 3306ntf    on516645   3.391   3.973   2.462 -0.1004  0.1553  1.0354
 3306ntf    on516646   3.589   3.659   2.717  0.0019 -0.0919 -0.0553
 3306ntf    on516647   3.404   3.510   2.642 -0.0518 -0.1672 -0.3415
 3306ntf    fn416648   3.394   3.825   2.836  0.1028 -0.2535  0.0890
 3306ntf    fn416649   3.233   3.702   2.788  0.3433  0.1110 -1.1558
 3306ntf    fn416650   3.380   3.626   2.922 -0.2380  0.1206  0.1214
 3307ntf    cn116651   1.902   1.917   4.058  0.1299  0.0462 -0.1355
 3307ntf    sn216652   1.840   2.079   4.001  0.2120  0.0164 -0.3109
 3307ntf    nn316653   1.972   2.126   3.930  0.3491  0.2325  0.0844
 3307ntf    sn216654   2.017   2.128   3.779  0.1265 -0.1197  0.0124
 3307ntf    cn116655   2.087   2.296   3.773 -0.2385  0.0264 -0.1653
 3307ntf    fn416656   1.810   1.839   4.111 -0.0798  0.1623 -0.3255
 3307ntf    fn416657   1.943   1.857   3.947 -0.2141  0.1716 -0.3328
 3307ntf    fn416658   2.010   1.922   4.134  0.0731 -0.2665 -0.0373
 3307ntf    on516659   1.726   2.046   3.919 -0.1541  0.3292  0.0699
 3307ntf    on516660   1.812   2.154   4.121 -0.0294 -0.2740 -0.1831
 3307ntf    on516661   1.918   2.133   3.675  0.3242 -0.6640 -0.2039
 3307ntf    on516662   2.133   2.045   3.757  0.0402 -0.3074  0.2556
 3307ntf    fn416663   2.120   2.338   3.652 -0.3498  0.4768 -0.0392
 3307ntf    fn416664   1.998   2.384   3.815 -0.0453 -0.0171  0.3456
 3307ntf    fn416665   2.196   2.316   3.845  0.0901  0.5165 -0.7919
 3308ntf    cn116666   3.023   5.889   3.361  0.2268  0.3267 -0.1118
 3308ntf    sn216667   2.844   5.891   3.328  0.1895  0.2940  0.0874
 3308ntf    nn316668   2.792   5.930   3.471 -0.4792 -0.0806 -0.0512
 3308ntf    sn216669   2.649   5.968   3.523 -0.4684 -0.0394 -0.0522
 3308ntf    cn116670   2.565   5.807   3.514 -0.5250  0.0033 -0.2744
 3308ntf    fn416671   3.050   5.791   3.446  0.2599  0.1860 -0.2819
 3308ntf    fn416672   3.085   5.855   3.249  0.2866  0.4626 -0.1205
 3308ntf    fn416673   3.077   6.003   3.400  0.3668  0.1190  0.3065
 3308ntf    on516674   2.826   5.994   3.228 -0.0610  0.3408  0.1815
 3308ntf    on516675   2.807   5.759   3.284  0.0254  0.4016 -0.0986
 3308ntf    on516676   2.564   6.058   3.450  0.0377  0.6932  0.2567
 3308ntf    on516677   2.656   5.998   3.664  0.6884 -0.0485 -0.0974
 3308ntf    fn416678   2.435   5.823   3.536 -0.4560  0.0566  0.0942
 3308ntf    fn416679   2.574   5.751   3.394  0.4973 -0.1975 -0.1073
 3308ntf    fn416680   2.621   5.727   3.603 -0.3535  0.6948  0.2422
 3309ntf    cn116681   5.470   3.551   4.274 -0.2320 -0.5309  0.0124
 3309ntf    sn216682   5.442   3.723   4.325  0.5749 -0.5140  0.4186
 3309ntf    nn316683   5.324   3.695   4.425  0.1015  0.5223  0.1612
 3309ntf    sn216684   5.323   3.680   4.581  0.0878  0.1771  0.1284
 3309ntf    cn116685   5.165   3.765   4.613 -0.0267  0.0413 -0.0766
 3309ntf    fn416686   5.486   3.485   4.387 -0.0026 -0.2282  0.1576
 3309ntf    fn416687   5.362   3.502   4.214 -0.3229 -0.1546 -0.1329
 3309ntf    fn416688   5.577   3.537   4.197 -0.0664  0.3117  0.0892
 3309ntf    on516689   5.569   3.756   4.383  0.2425 -0.0239  0.8673
 3309ntf    on516690   5.403   3.788   4.202 -0.1645 -0.3919  0.7123
 3309ntf    on516691   5.425   3.757   4.647 -0.0967  0.2593  0.3206
 3309ntf    on516692   5.297   3.545   4.624 -0.3829  0.1597 -0.2041
 3309ntf    fn416693   5.067   3.696   4.558  0.1797 -0.3073 -0.0087
 3309ntf    fn416694   5.147   3.789   4.742  0.4478  0.8023 -0.1443
 3309ntf    fn416695   5.146   3.884   4.558 -0.3293  0.1142  0.1810
 3310ntf    cn116696   6.101   6.015   3.949  0.0085 -0.0582  0.1811
 3310ntf    sn216697   6.092   6.055   4.126 -0.0825 -0.0569  0.1760
 3310ntf    nn316698   5.999   6.181   4.120 -0.0850 -0.0941 -0.6997
 3310ntf    sn216699   6.045   6.324   4.074 -0.0249  0.0696 -0.1328
 3310ntf    cn116700   6.059   6.404   4.237 -0.1182  0.2881 -0.2313
 3310ntf    fn416701   6.035   6.099   3.871  0.4167  0.1833  0.0911
 3310ntf    fn416702   6.224   6.013   3.900 -0.0706  0.5406 -0.0528
 3310ntf    fn416703   6.060   5.891   3.927  0.2676  0.0346 -0.9083
 3310ntf    on516704   6.025   5.940   4.182  0.3611 -0.7046 -0.5858
 3310ntf    on516705   6.224   6.087   4.175  0.0134 -0.0469 -0.0878
 3310ntf    on516706   5.929   6.387   4.016 -0.3486  0.0909  0.5263
 3310ntf    on516707   6.175   6.343   4.014  0.0402 -0.2955 -0.1082
 3310ntf    fn416708   6.147   6.346   4.317 -0.4033 -0.0436 -0.1537
 3310ntf    fn416709   6.095   6.531   4.232  0.3336  0.1311 -1.0594
 3310ntf    fn416710   5.943   6.399   4.302  0.1633  0.2536  0.2782
 3311ntf    cn116711   6.554   2.960   1.988 -0.1366  0.0780 -0.1205
 3311ntf    sn216712   6.561   3.033   2.155 -0.1026 -0.3321  0.0570
 3311ntf    nn316713   6.621   3.174   2.125  0.0620 -0.2921  0.5624
 3311ntf    sn216714   6.610   3.303   2.214  0.0358  0.1814 -0.1212
 3311ntf    cn116715   6.784   3.352   2.201  0.0969 -0.0313 -0.1123
 3311ntf    fn416716   6.518   2.834   1.999 -0.2188  0.1386  0.3496
 3311ntf    fn416717   6.455   3.013   1.918 -0.3127  0.2008  0.2138
 3311ntf    fn416718   6.673   2.971   1.931 -0.0508  0.3557  0.1034
 3311ntf    on516719   6.423   3.029   2.199 -0.3007 -0.0914 -0.5367
 3311ntf    on516720   6.650   2.951   2.234  0.1121 -0.1315  0.0221
 3311ntf    on516721   6.601   3.281   2.356  0.2420 -0.4815 -0.2079
 3311ntf    on516722   6.534   3.414   2.160 -0.1249  0.3973  0.5466
 3311ntf    fn416723   6.864   3.268   2.266  0.3699  0.1945 -0.1499
 3311ntf    fn416724   6.822   3.354   2.074 -0.6131  0.0928 -0.3259
 3311ntf    fn416725   6.815   3.474   2.243 -0.1489 -0.1636  0.4564
 3312ntf    cn116726   5.115   0.605   5.259 -0.2034 -0.3452 -0.0082
 3312ntf    sn216727   5.064   0.765   5.189  0.0444 -0.1893  0.1687
 3312ntf    nn316728   5.178   0.858   5.245  0.3635 -0.2856 -0.3154
 3312ntf    sn216729   5.167   0.955   5.368  0.2639 -0.0712 -0.4921
 3312ntf    cn116730   5.063   1.088   5.301 -0.1009 -0.1273 -0.0423
 3312ntf    fn416731   5.048   0.499   5.218 -0.2685 -0.3352  0.0724
 3312ntf    fn416732   5.237   0.578   5.217  0.1554  0.0472  0.7700
 3312ntf    fn416733   5.098   0.603   5.390 -0.3154  0.4495 -0.0046
 3312ntf    on516734   5.077   0.745   5.047 -0.0679  0.7064  0.0221
 3312ntf    on516735   4.931   0.789   5.241  0.0771 -0.0053  0.1718
 3312ntf    on516736   5.291   1.015   5.414  0.1163 -0.0596 -0.1018
 3312ntf    on516737   5.085   0.895   5.470  0.5219  0.4312  0.0202
 3312ntf    fn416738   5.103   1.209   5.336 -0.2633 -0.1509  0.2243
 3312ntf    fn416739   5.081   1.082   5.170  0.0176  0.1787 -0.0416
 3312ntf    fn416740   4.935   1.090   5.333 -0.1593  0.0106 -0.2829
 3313ntf    cn116741   2.984   0.176   3.137 -0.2369  0.1119  0.0800
 3313ntf    sn216742   2.854   0.301   3.117  0.0809  0.4281 -0.0058
 3313ntf    nn316743   2.748   0.219   3.035  0.1328  0.3558 -0.0004
 3313ntf    sn216744   2.591   0.222   3.033  0.1239 -0.0918  0.0347
 3313ntf    cn116745   2.553   0.053   2.977  0.2545 -0.2392  0.3866
 3313ntf    fn416746   3.014   0.114   3.024 -0.0169 -0.0904  0.2462
 3313ntf    fn416747   3.101   0.229   3.172 -0.2757  0.1894  0.0919
 3313ntf    fn416748   2.962   0.086   3.232  0.2393 -0.0350  0.0554
 3313ntf    on516749   2.818   0.334   3.252 -0.3614 -0.1994  0.0332
 3313ntf    on516750   2.915   0.402   3.033  0.5766  0.1751  0.0425
 3313ntf    on516751   2.539   0.301   2.924 -0.0819 -0.3145 -0.0293
 3313ntf    on516752   2.524   0.232   3.160 -0.5529  0.0214 -0.3283
 3313ntf    fn416753   2.595   0.048   2.851  0.2278  0.5326  0.3446
 3313ntf    fn416754   2.632  -0.035   3.036  0.2203 -0.8736 -0.4969
 3313ntf    fn416755   2.428   0.011   2.984  0.1255  0.0243 -0.2206
 3314ntf    cn116756   0.005   0.909   3.927  0.0834 -0.1511  0.5997
 3314ntf    sn216757  -0.065   0.752   3.984 -0.2870 -0.3068 -0.2657
 3314ntf    nn316758  -0.192   0.802   4.062  0.0655  0.1174  0.0396
 3314ntf    sn216759  -0.262   0.736   4.186 -0.1630  0.1869 -0.0525
 3314ntf    cn116760  -0.424   0.807   4.145 -0.2468  0.0188 -0.0121
 3314ntf    fn416761   0.115   0.898   3.853  0.0966 -0.0882  0.6097
 3314ntf    fn416762  -0.074   0.986   3.854  0.3861 -0.1593  0.2552
 3314ntf    fn416763   0.048   0.979   4.031  0.5846  0.0362  0.2748
 3314ntf    on516764  -0.093   0.673   3.867 -0.0493 -0.4011 -0.2602
 3314ntf    on516765   0.033   0.700   4.076 -0.7962 -0.4721  0.1875
 3314ntf    on516766  -0.228   0.803   4.309 -0.4560  0.4207 -0.0989
 3314ntf    on516767  -0.269   0.592   4.183  0.0845  0.1636  0.4714
 3314ntf    fn416768  -0.428   0.939   4.136  0.1296  0.0411  0.1361
 3314ntf    fn416769  -0.461   0.765   4.025 -0.0936  0.5252 -0.2397
 3314ntf    fn416770  -0.513   0.769   4.235  0.0489 -0.6029  0.0252
 3315ntf    cn116771   3.567   3.097   3.394 -0.1909 -0.0448  0.1841
 3315ntf    sn216772   3.745   3.066   3.372 -0.2101 -0.0558  0.0427
 3315ntf    nn316773   3.738   2.991   3.234 -0.5492  0.1409 -0.0471
 3315ntf    sn216774   3.758   2.843   3.186  0.6458  0.2853 -0.0163
 3315ntf    cn116775   3.670   2.844   3.027  0.2289  0.0138  0.2096
 3315ntf    fn416776   3.499   2.985   3.376 -0.0669 -0.1721  0.4870
 3315ntf    fn416777   3.531   3.141   3.513  0.1820  0.1493  0.2247
 3315ntf    fn416778   3.519   3.187   3.310  0.2991 -0.0868 -0.1491
 3315ntf    on516779   3.800   3.199   3.363  0.0543 -0.1747 -0.1077
 3315ntf    on516780   3.776   2.980   3.484  0.2675 -0.5232 -0.4356
 3315ntf    on516781   3.694   2.741   3.266 -0.1200  0.3679 -0.5206
 3315ntf    on516782   3.891   2.825   3.134  0.5182  0.2967 -0.3487
 3315ntf    fn416783   3.546   2.887   3.045  0.0856 -0.4933  0.4491
 3315ntf    fn416784   3.722   2.924   2.936 -0.5995  0.0894 -0.2039
 3315ntf    fn416785   3.659   2.725   2.970  0.4786  0.1785 -0.1825
 3316ntf    cn116786   5.844   3.258   2.823 -0.1468 -0.2633 -0.0963
 3316ntf    sn216787   5.910   3.093   2.785 -0.0449 -0.2757  0.1321
 3316ntf    nn316788   6.047   3.121   2.716 -0.4792  0.3409 -0.4906
 3316ntf    sn216789   6.086   3.168   2.571  0.2292  0.2043 -0.3515
 3316ntf    cn116790   6.209   3.298   2.600 -0.0082  0.3576 -0.0232
 3316ntf    fn416791   5.735   3.251   2.898 -0.4133  0.1263 -0.4441
 3316ntf    fn416792   5.940   3.319   2.892  0.0165 -0.2504 -0.3316
 3316ntf    fn416793   5.814   3.336   2.721 -0.1685  0.0966  0.1828
 3316ntf    on516794   5.925   3.021   2.909 -0.1539 -0.1830  0.1995
 3316ntf    on516795   5.817   3.035   2.691 -0.1773  0.5143 -0.2309
 3316ntf    on516796   5.989   3.243   2.494 -0.2811  0.0485  0.1312
 3316ntf    on516797   6.155   3.060   2.504  0.1993 -0.3750  0.5322
 3316ntf    fn416798   6.158   3.389   2.681  0.1178  0.0368  0.4152
 3316ntf    fn416799   6.328   3.267   2.648 -0.4321 -0.0461  0.7883
 3316ntf    fn416800   6.244   3.355   2.486  0.2128  0.0464 -0.1132
 3317ntf    cn116801   2.166   3.486   3.495  0.3954 -0.0244  0.3670
 3317ntf    sn216802   2.261   3.453   3.345  0.0888  0.0927  0.1458
 3317ntf    nn316803   2.359   3.575   3.333  0.1061  0.1066  0.4452
 3317ntf    sn216804   2.337   3.716   3.268 -0.1096  0.1174  0.5402
 3317ntf    cn116805   2.438   3.675   3.122 -0.1886  0.0040  0.5177
 3317ntf    fn416806   2.239   3.482   3.606 -0.0281 -0.1827  0.6465
 3317ntf    fn416807   2.124   3.612   3.494  0.3320 -0.0487  0.0279
 3317ntf    fn416808   2.059   3.408   3.506  0.2042  0.1754 -0.0552
 3317ntf    on516809   2.342   3.337   3.377 -0.3765 -0.1845  0.3194
 3317ntf    on516810   2.158   3.444   3.244 -0.5520  0.2579  0.7857
 3317ntf    on516811   2.407   3.825   3.331  0.2823 -0.0447  0.3915
 3317ntf    on516812   2.202   3.738   3.223 -0.0932 -0.6442  0.1028
 3317ntf    fn416813   2.404   3.558   3.070 -0.4660  0.3394 -0.0703
 3317ntf    fn416814   2.420   3.766   3.028  0.5942  0.2194  0.5681
 3317ntf    fn416815   2.567   3.670   3.148 -0.0364  0.0822 -0.2003
 3318ntf    cn116816   1.183   3.116   1.712  0.0436 -0.0635 -0.4111
 3318ntf    sn216817   1.086   3.219   1.826  0.0717 -0.5009  0.0145
 3318ntf    nn316818   1.114   3.137   1.957  0.2461 -0.6495 -0.1153
 3318ntf    sn216819   1.009   3.058   2.042 -0.2495 -0.1350 -0.2424
 3318ntf    cn116820   0.968   2.905   1.954 -0.0482 -0.0067 -0.5580
 3318ntf    fn416821   1.234   3.170   1.603  0.3650 -0.0577 -0.2606
 3318ntf    fn416822   1.288   3.061   1.771 -0.2341  0.3113  0.4594
 3318ntf    fn416823   1.120   3.007   1.672  0.1788 -0.1708 -0.3332
 3318ntf    on516824   1.155   3.345   1.814  0.1004 -0.5323 -0.1581
 3318ntf    on516825   0.951   3.221   1.775  0.1803 -0.4068 -0.2734
 3318ntf    on516826   0.881   3.123   2.055 -0.1772  0.0032 -0.2168
 3318ntf    on516827   1.058   3.007   2.168 -0.5002 -0.2120 -0.1760
 3318ntf    fn416828   1.067   2.817   1.954 -0.1920 -0.1697 -0.0355
 3318ntf    fn416829   0.861   2.854   2.012  0.1997  0.2064  0.0906
 3318ntf    fn416830   0.936   2.927   1.827 -0.5238  0.3239 -0.3813
 3319ntf    cn116831   2.265   2.473   4.938  0.3251  0.2842  0.3593
 3319ntf    sn216832   2.192   2.343   5.043 -0.0712  0.0429 -0.2107
 3319ntf    nn316833   2.113   2.279   4.923  0.2997 -0.2695 -0.2908
 3319ntf    sn216834   2.035   2.143   4.924 -0.2690  0.0555  0.0563
 3319ntf    cn116835   2.169   2.021   4.908 -0.4947 -0.1893  0.0249
 3319ntf    fn416836   2.336   2.426   4.837 -0.0203  0.1827  0.1599
 3319ntf    fn416837   2.177   2.557   4.885 -0.0460 -0.2271  0.1526
 3319ntf    fn416838   2.350   2.549   5.005  0.5941  0.0807  0.2527
 3319ntf    on516839   2.312   2.280   5.094 -0.2445 -0.2732 -0.1944
 3319ntf    on516840   2.112   2.417   5.136  0.4537  0.2958  0.0433
 3319ntf    on516841   1.954   2.129   4.805  0.2108  0.3563 -0.3084
 3319ntf    on516842   1.971   2.117   5.050 -0.2603 -0.1022  0.0283
 3319ntf    fn416843   2.253   2.026   5.010 -0.0536 -0.0648 -0.3430
 3319ntf    fn416844   2.129   1.895   4.902 -0.0125 -0.3362 -0.0963
 3319ntf    fn416845   2.234   2.050   4.797 -0.4945  0.0042  0.0759
 3320ntf    cn116846   2.573   5.618   6.751  0.1385 -0.0454  0.0341
 3320ntf    sn216847   2.476   5.680   6.892  0.2439  0.1067  0.0397
 3320ntf    nn316848   2.567   5.796   6.945  0.1610  0.1577  0.0699
 3320ntf    sn216849   2.520   5.943   6.974  0.0412  0.1381 -0.0242
 3320ntf    cn116850   2.412   5.918   7.118  0.0503 -0.1122 -0.0608
 3320ntf    fn416851   2.551   5.490   6.726 -0.6993  0.0008  0.4923
 3320ntf    fn416852   2.545   5.690   6.644  0.2673 -0.3425 -0.2004
 3320ntf    fn416853   2.703   5.633   6.768  0.2215 -0.8942  0.2107
 3320ntf    on516854   2.345   5.713   6.843 -0.1296 -0.4883  0.6185
 3320ntf    on516855   2.484   5.570   6.985  0.0047  0.1634  0.1275
 3320ntf    on516856   2.429   5.995   6.876  0.2270 -0.2176 -0.3881
 3320ntf    on516857   2.629   6.025   7.021  0.8716 -0.8459 -0.1777
 3320ntf    fn416858   2.420   6.022   7.199  0.2173 -0.2952  0.1605
 3320ntf    fn416859   2.283   5.914   7.092 -0.0905 -0.1339  0.6210
 3320ntf    fn416860   2.438   5.806   7.185 -0.8579 -0.3644 -0.1156
 3321ntf    cn116861   2.448   5.081   1.835  0.4542 -0.3929  0.3375
 3321ntf    sn216862   2.454   5.238   1.744  0.1063 -0.5125  0.1055
 3321ntf    nn316863   2.580   5.202   1.658  0.1484 -0.4745  0.1512
 3321ntf    sn216864   2.727   5.257   1.665 -0.0608  0.1200 -0.1128
 3321ntf    cn116865   2.810   5.166   1.532  0.2852  0.1129  0.1068
 3321ntf    fn416866   2.566   5.046   1.883  0.7224  0.2392  0.1440
 3321ntf    fn416867   2.356   5.081   1.930  0.1440  0.6346  0.0517
 3321ntf    fn416868   2.411   4.984   1.752 -0.0406  0.3877 -0.3739
 3321ntf    on516869   2.332   5.241   1.666  0.2207 -0.3009 -0.0648
 3321ntf    on516870   2.475   5.346   1.837 -0.5010 -0.1563 -0.1640
 3321ntf    on516871   2.800   5.219   1.783  0.1428 -0.0028 -0.2779
 3321ntf    on516872   2.747   5.394   1.622 -0.0230  0.1264 -0.0760
 3321ntf    fn416873   2.804   5.231   1.417  0.3761  0.7214  0.4406
 3321ntf    fn416874   2.937   5.134   1.549  0.0874 -0.6618  0.1590
 3321ntf    fn416875   2.744   5.056   1.499  0.1578  0.2256 -0.0184
 3322ntf    cn116876   5.146   2.658   1.751  0.3616 -0.1125  0.3392
 3322ntf    sn216877   4.969   2.620   1.748  0.3625 -0.0939  0.0510
 3322ntf    nn316878   4.968   2.487   1.831  0.1679 -0.2229 -0.1567
 3322ntf    sn216879   4.942   2.340   1.783  0.0523 -0.1628 -0.2821
 3322ntf    cn116880   5.075   2.247   1.866  0.0633  0.1402  0.0401
 3322ntf    fn416881   5.218   2.564   1.692  0.7044  0.4008 -0.0712
 3322ntf    fn416882   5.177   2.775   1.696 -0.0764 -0.1379  0.0346
 3322ntf    fn416883   5.188   2.673   1.875 -0.4611 -0.1962  0.6337
 3322ntf    on516884   4.911   2.735   1.812  0.1008  0.0489 -0.4317
 3322ntf    on516885   4.941   2.604   1.607 -0.3300  0.3262  0.1341
 3322ntf    on516886   4.958   2.307   1.643  0.4229  0.2482 -0.3401
 3322ntf    on516887   4.823   2.290   1.846  0.2551 -0.4701 -0.1348
 3322ntf    fn416888   5.058   2.242   1.997 -0.0434  0.1273  0.0257
 3322ntf    fn416889   5.090   2.124   1.820  0.0455 -0.0448  0.5189
 3322ntf    fn416890   5.191   2.309   1.853  0.0468  0.1639  0.0022
 3323ntf    cn116891   5.199   6.211   0.487 -0.0975 -0.1491  0.2897
 3323ntf    sn216892   5.293   6.367   0.476 -0.1577 -0.1439 -0.1791
 3323ntf    nn316893   5.234   6.453   0.593  0.2519  0.1589 -0.1920
 3323ntf    sn216894   5.122   6.562   0.582  0.0780  0.0108  0.0704
 3323ntf    cn116895   5.210   6.706   0.514  0.2301 -0.2301 -0.2463
 3323ntf    fn416896   5.074   6.231   0.448 -0.0096 -0.4452 -0.1442
 3323ntf    fn416897   5.253   6.121   0.407  0.1302 -0.0705  0.3517
 3323ntf    fn416898   5.199   6.165   0.611  0.9700 -0.2300  0.2683
 3323ntf    on516899   5.429   6.332   0.508 -0.1275  0.1669  0.0302
 3323ntf    on516900   5.267   6.413   0.342 -0.8648  0.5876  0.2047
 3323ntf    on516901   5.079   6.604   0.713 -0.7594 -0.1707 -0.1415
 3323ntf    on516902   5.015   6.538   0.488  0.6600  0.4001 -0.7052
 3323ntf    fn416903   5.325   6.736   0.571  0.0637  0.0032 -0.0285
 3323ntf    fn416904   5.231   6.680   0.386  0.0979  0.2391 -0.3647
 3323ntf    fn416905   5.130   6.812   0.520  0.2237 -0.2366 -0.2085
 3324ntf    cn116906   6.458   5.869   1.509  0.3606 -0.3372 -0.0116
 3324ntf    sn216907   6.471   5.687   1.514  0.2850 -0.3448 -0.0924
 3324ntf    nn316908   6.337   5.663   1.593  0.1102  0.2243 -0.2042
 3324ntf    sn216909   6.250   5.533   1.585  0.0091  0.2754  0.0868
 3324ntf    cn116910   6.366   5.420   1.668 -0.2231  0.0943  0.1695
 3324ntf    fn416911   6.335   5.895   1.467  0.4281 -0.5509 -0.3508
 3324ntf    fn416912   6.476   5.936   1.621  0.1799 -0.1475 -0.0952
 3324ntf    fn416913   6.537   5.928   1.421  0.2644  0.3700  0.3742
 3324ntf    on516914   6.470   5.655   1.373 -0.3563  0.3333 -0.2517
 3324ntf    on516915   6.589   5.657   1.590  0.2317 -0.4659 -0.0572
 3324ntf    on516916   6.233   5.471   1.456  0.4455  0.4406 -0.0482
 3324ntf    on516917   6.138   5.536   1.676  0.0618 -0.7684  0.2086
 3324ntf    fn416918   6.487   5.414   1.614 -0.4158  0.0022 -0.2524
 3324ntf    fn416919   6.387   5.468   1.789 -0.3621  0.3022  0.1114
 3324ntf    fn416920   6.323   5.295   1.676 -0.2617  0.1169  0.2991
 3325ntf    cn116921   5.740   4.671   1.074 -0.2803 -0.4870 -0.3398
 3325ntf    sn216922   5.805   4.666   0.904  0.2731 -0.1842 -0.1373
 3325ntf    nn316923   5.707   4.765   0.833  0.3719  0.3600  0.4720
 3325ntf    sn216924   5.745   4.871   0.723  0.0001 -0.0398 -0.0441
 3325ntf    cn116925   5.732   5.025   0.818 -0.1645 -0.3973  0.5186
 3325ntf    fn416926   5.825   4.612   1.157 -0.2773  0.3020  0.2202
 3325ntf    fn416927   5.730   4.795   1.116 -0.4313 -0.6567  0.1282
 3325ntf    fn416928   5.621   4.615   1.091 -0.3328 -0.2548  0.0695
 3325ntf    on516929   5.943   4.703   0.925  0.1988  0.1126 -0.1590
 3325ntf    on516930   5.787   4.532   0.854  0.2481 -0.0224 -0.5610
 3325ntf    on516931   5.640   4.870   0.624  0.2009 -0.3536 -0.2553
 3325ntf    on516932   5.882   4.867   0.678 -0.1130 -0.3858 -0.3676
 3325ntf    fn416933   5.617   5.027   0.884 -0.3499  0.0284  0.1889
 3325ntf    fn416934   5.818   5.042   0.917 -0.1066  0.2063  0.3706
 3325ntf    fn416935   5.730   5.130   0.737  0.1649 -0.4353  0.4582
 3326ntf    cn116936   2.834   6.246   0.511  0.1916  0.1561 -0.3053
 3326ntf    sn216937   2.867   6.299   0.340 -0.0650  0.0832 -0.3783
 3326ntf    nn316938   2.990   6.392   0.368  0.1974 -0.4109  0.1330
 3326ntf    sn216939   3.119   6.411   0.281 -0.1690  0.1380 -0.2948
 3326ntf    cn116940   3.106   6.578   0.209  0.1910  0.0968 -0.4549
 3326ntf    fn416941   2.794   6.342   0.591 -0.0845  0.0131 -0.2706
 3326ntf    fn416942   2.739   6.154   0.509  0.1065  0.2430 -0.2222
 3326ntf    fn416943   2.932   6.184   0.574 -0.2462 -0.7037 -0.4473
 3326ntf    on516944   2.894   6.177   0.268 -0.1031 -0.1031 -0.0792
 3326ntf    on516945   2.748   6.369   0.297  0.0237  0.3734 -0.1547
 3326ntf    on516946   3.138   6.333   0.161 -0.0560  0.0648 -0.2299
 3326ntf    on516947   3.238   6.426   0.361 -0.1206  0.2678 -0.3904
 3326ntf    fn416948   3.188   6.601   0.107  0.2611  0.3669 -0.3362
 3326ntf    fn416949   2.987   6.606   0.159 -0.0673 -0.0377  0.0832
 3326ntf    fn416950   3.124   6.677   0.294  0.2123 -0.1041 -0.2239
 3327ntf    cn116951   4.919   6.561   5.038  0.3665 -0.1063  0.0175
 3327ntf    sn216952   4.756   6.641   5.023  0.3136 -0.1367  0.4113
 3327ntf    nn316953   4.660   6.526   5.069  0.0148  0.0086  0.1492
 3327ntf    sn216954   4.557   6.441   4.985  0.0347  0.0477  0.0859
 3327ntf    cn116955   4.425   6.561   4.947 -0.2068 -0.1998  0.1414
 3327ntf    fn416956   4.931   6.445   4.977  0.8192 -0.1137  0.1135
 3327ntf    fn416957   5.020   6.633   4.992  0.3543  0.1248  0.3502
 3327ntf    fn416958   4.951   6.532   5.163  0.2563 -0.0599  0.0563
 3327ntf    on516959   4.752   6.746   5.121 -0.0484 -0.1220  0.3806
 3327ntf    on516960   4.743   6.672   4.883  0.8196 -0.7599  0.2179
 3327ntf    on516961   4.494   6.347   5.075 -0.1368  0.2947  0.2277
 3327ntf    on516962   4.601   6.384   4.860 -0.3603 -0.4282  0.1596
 3327ntf    fn416963   4.353   6.594   5.053 -0.6334 -0.5028 -0.0497
 3327ntf    fn416964   4.460   6.673   4.887 -0.6374 -0.3140 -0.3306
 3327ntf    fn416965   4.333   6.512   4.866  0.2990 -0.1283 -0.4841
 3328ntf    cn116966   3.324   6.526   3.282 -0.1015  0.4624  0.1361
 3328ntf    sn216967   3.231   6.379   3.335 -0.2485  0.4910 -0.0419
 3328ntf    nn316968   3.084   6.433   3.327 -0.4249  0.0570  0.2147
 3328ntf    sn216969   2.995   6.454   3.199 -0.1452  0.2762  0.0556
 3328ntf    cn116970   2.901   6.299   3.190 -0.2814  0.3493  0.2238
 3328ntf    fn416971   3.314   6.535   3.151 -0.2017  0.1476  0.1210
 3328ntf    fn416972   3.278   6.643   3.323 -0.2541  0.4467  0.0094
 3328ntf    fn416973   3.452   6.524   3.316 -0.2127 -0.4232  0.5397
 3328ntf    on516974   3.276   6.274   3.247 -0.7875  0.2984 -0.0953
 3328ntf    on516975   3.272   6.362   3.472 -0.2059 -0.2596 -0.1418
 3328ntf    on516976   3.067   6.461   3.074 -0.0472  0.6181  0.1300
 3328ntf    on516977   2.889   6.549   3.224 -0.3443  0.0368  0.1207
 3328ntf    fn416978   2.805   6.316   3.100 -0.1051 -0.5661 -0.1393
 3328ntf    fn416979   2.977   6.198   3.154  0.2684  0.5205  0.8777
 3328ntf    fn416980   2.842   6.259   3.302  0.2182  0.2991  0.4708
 3329ntf    cn116981   4.567   0.511   1.695 -0.1562 -0.3026 -0.1631
 3329ntf    sn216982   4.696   0.385   1.676  0.1207 -0.0270 -0.1099
 3329ntf    nn316983   4.610   0.255   1.681  0.0372  0.0444  0.2797
 3329ntf    sn216984   4.666   0.113   1.718  0.2728  0.1138  0.1860
 3329ntf    cn116985   4.601   0.115   1.887 -0.0487 -0.1624  0.0684
 3329ntf    fn416986   4.475   0.504   1.600 -0.1195  0.3811 -0.2591
 3329ntf    fn416987   4.501   0.492   1.808 -0.1105  0.0562 -0.0745
 3329ntf    fn416988   4.614   0.635   1.686 -0.2792 -0.2220  0.2955
 3329ntf    on516989   4.757   0.414   1.548 -0.1775 -0.4311 -0.3428
 3329ntf    on516990   4.778   0.406   1.793  0.1860 -0.0064 -0.1594
 3329ntf    on516991   4.807   0.093   1.741  0.3135 -0.3366 -0.3951
 3329ntf    on516992   4.603  -0.003   1.658 -0.0821  0.3025  0.1935
 3329ntf    fn416993   4.474   0.080   1.894  0.0557 -0.4370  0.6496
 3329ntf    fn416994   4.666   0.028   1.962  0.2692 -0.2339 -0.2902
 3329ntf    fn416995   4.597   0.236   1.941 -0.3787 -0.2780  0.3087
 3330ntf    cn116996   2.270   3.718   6.698 -0.5226 -0.2746  0.3767
 3330ntf    sn216997   2.133   3.742   6.581 -0.1097 -0.0745 -0.0652
 3330ntf    nn316998   2.012   3.691   6.667  0.1188  0.0191  0.3154
 3330ntf    sn216999   1.886   3.630   6.597  0.3309 -0.0343 -0.0261
 3330ntf    cn117000   1.925   3.453   6.593 -0.0815 -0.1174 -0.6285
 3330ntf    fn417001   2.251   3.789   6.809  0.2306 -0.2515  0.5007
 3330ntf    fn417002   2.302   3.592   6.723  0.0925 -0.1725  0.1084
 3330ntf    fn417003   2.382   3.774   6.655 -0.4201 -0.3454  0.5499
 3330ntf    on517004   2.128   3.884   6.555 -0.2170  0.0101  0.4113
 3330ntf    on517005   2.173   3.649   6.479 -0.2787 -0.3338  0.1063
 3330ntf    on517006   1.857   3.663   6.460  0.6991  0.1991 -0.0495
 3330ntf    on517007   1.768   3.638   6.680  0.4863  0.3036  0.1623
 3330ntf    fn417008   1.835   3.378   6.531  0.1208 -0.2150 -0.8051
 3330ntf    fn417009   2.033   3.424   6.523  0.2475  0.5312 -0.3951
 3330ntf    fn417010   1.942   3.398   6.713  0.6890  0.3873 -0.4976
 3331ntf    cn117011   3.756   1.730   3.517  0.0359 -0.1093 -0.2825
 3331ntf    sn217012   3.824   1.813   3.664 -0.3644 -0.0415 -0.1318
 3331ntf    nn317013   3.979   1.804   3.638 -0.2865  0.1945  0.2415
 3331ntf    sn217014   4.074   1.903   3.562 -0.1138 -0.1363  0.0226
 3331ntf    cn117015   4.225   1.808   3.597  0.0258  0.0035 -0.1927
 3331ntf    fn417016   3.802   1.606   3.511  0.4149  0.0069  0.1290
 3331ntf    fn417017   3.624   1.718   3.521  0.0260  0.0560 -0.1057
 3331ntf    fn417018   3.792   1.791   3.406  0.0455  0.3347 -0.0391
 3331ntf    on517019   3.770   1.946   3.654  0.0015  0.1347  0.1869
 3331ntf    on517020   3.781   1.726   3.771  0.0015  0.2417  0.2500
 3331ntf    on517021   4.100   2.032   3.620  0.7679 -0.0832 -0.4661
 3331ntf    on517022   4.070   1.892   3.418  0.1881 -0.3204  0.0292
 3331ntf    fn417023   4.337   1.864   3.555  0.0923  0.1148  0.1306
 3331ntf    fn417024   4.242   1.786   3.727  0.2936 -0.3808 -0.2919
 3331ntf    fn417025   4.213   1.687   3.545 -0.3600  0.0457 -0.2116
 3332ntf    cn117026   5.029   6.998   4.813  0.1351  0.0721  0.1201
 3332ntf    sn217027   5.139   7.109   4.719 -0.1685  0.2301 -0.0496
 3332ntf    nn317028   5.184   7.002   4.614 -0.0390  0.0559  0.1826
 3332ntf    sn217029   5.118   6.974   4.474  0.1384 -0.1344  0.1351
 3332ntf    cn117030   5.227   7.084   4.380 -0.1346  0.2183  0.2277
 3332ntf    fn417031   5.095   6.904   4.879 -0.0928 -0.2249 -0.0727
 3332ntf    fn417032   4.960   7.069   4.901  0.0319 -0.1205  0.1936
 3332ntf    fn417033   4.936   6.938   4.741 -0.2316  0.4959  0.2398
 3332ntf    on517034   5.051   7.214   4.674 -0.5625 -0.0257  0.1151
 3332ntf    on517035   5.250   7.146   4.804  0.0871  0.1428 -0.3459
 3332ntf    on517036   4.984   7.024   4.455  0.1602 -0.2334 -0.2745
 3332ntf    on517037   5.147   6.842   4.424  0.2131 -0.2668  0.5177
 3332ntf    fn417038   5.352   7.075   4.422 -0.0726  0.6991  0.1509
 3332ntf    fn417039   5.221   7.057   4.251  0.2357 -0.1290  0.2797
 3332ntf    fn417040   5.198   7.213   4.394 -0.2787  0.1947  0.1524
 3333ntf    cn117041   5.705   5.350   1.007 -0.1605 -0.0413 -0.1940
 3333ntf    sn217042   5.761   5.487   1.113 -0.0479 -0.1473 -0.1147
 3333ntf    nn317043   5.767   5.422   1.255  0.2629 -0.1254 -0.1181
 3333ntf    sn217044   5.725   5.487   1.392 -0.0106 -0.0562 -0.2336
 3333ntf    cn117045   5.545   5.483   1.373 -0.0385 -0.1833  0.0376
 3333ntf    fn417046   5.744   5.236   1.062 -0.2382  0.0984  0.1488
 3333ntf    fn417047   5.573   5.340   1.009 -0.1427 -0.2982 -0.2271
 3333ntf    fn417048   5.739   5.346   0.879  0.2818  0.0117 -0.0822
 3333ntf    on517049   5.890   5.521   1.059  0.0195  0.2366  0.2873
 3333ntf    on517050   5.655   5.584   1.098  0.0126 -0.0436  0.1362
 3333ntf    on517051   5.755   5.625   1.419  0.0725 -0.1635  0.2380
 3333ntf    on517052   5.748   5.402   1.507  0.7275  0.9449  0.3701
 3333ntf    fn417053   5.496   5.583   1.301 -0.2170 -0.3522 -0.0788
 3333ntf    fn417054   5.505   5.381   1.299 -0.3756 -0.0991  0.1007
 3333ntf    fn417055   5.474   5.469   1.484  0.3179  0.0711  0.3015
 3334ntf    cn117056   4.543   5.144   5.648 -0.0773  0.0438  0.2583
 3334ntf    sn217057   4.670   5.133   5.778 -0.0647 -0.4021  0.2123
 3334ntf    nn317058   4.599   5.020   5.861 -0.1879 -0.5172 -0.0493
 3334ntf    sn217059   4.516   5.028   5.994  0.3234  0.3271  0.2317
 3334ntf    cn117060   4.497   4.852   6.037  0.6733  0.2619  0.1290
 3334ntf    fn417061   4.420   5.170   5.688 -0.2726  0.1120 -0.3816
 3334ntf    fn417062   4.578   5.236   5.561 -0.0673  0.1742  0.4005
 3334ntf    fn417063   4.541   5.036   5.572  0.4265  0.4517 -0.3369
 3334ntf    on517064   4.791   5.095   5.709 -0.0278 -0.4078  0.2787
 3334ntf    on517065   4.665   5.263   5.841  0.0311 -0.2056 -0.1839
 3334ntf    on517066   4.379   5.065   5.970  0.4400  0.3327 -0.4423
 3334ntf    on517067   4.577   5.091   6.108 -0.2726  0.6993  0.3452
 3334ntf    fn417068   4.442   4.779   5.941  0.1207  0.8735 -0.0344
 3334ntf    fn417069   4.614   4.796   6.058  0.5371  0.0198  0.2492
 3334ntf    fn417070   4.423   4.834   6.145  0.1156 -0.0714 -0.2995
 3335ntf    cn117071   1.590   0.797   3.139 -0.4054  0.0353 -0.1883
 3335ntf    sn217072   1.490   0.679   3.044 -0.3737 -0.1942  0.0642
 3335ntf    nn317073   1.390   0.631   3.156 -0.1942 -0.0378  0.2924
 3335ntf    sn217074   1.345   0.487   3.199  0.0812 -0.1980  0.0525
 3335ntf    cn117075   1.352   0.512   3.379  0.5527  0.0749 -0.0017
 3335ntf    fn417076   1.522   0.906   3.169 -0.5515 -0.1161  0.0340
 3335ntf    fn417077   1.626   0.747   3.256  0.0302 -0.0770 -0.3681
 3335ntf    fn417078   1.705   0.825   3.079  0.0284 -0.4696  0.3907
 3335ntf    on517079   1.440   0.762   2.938 -0.3458 -0.3394 -0.0634
 3335ntf    on517080   1.582   0.576   3.004  0.1251  0.0312  0.6208
 3335ntf    on517081   1.439   0.380   3.178  0.7368  0.4203 -0.1946
 3335ntf    on517082   1.205   0.469   3.169 -0.0483  0.9351 -0.0686
 3335ntf    fn417083   1.478   0.529   3.416  0.4752  0.1150  0.2477
 3335ntf    fn417084   1.283   0.619   3.416  0.5060 -0.1075  0.4474
 3335ntf    fn417085   1.315   0.407   3.450 -0.3661  0.3055 -0.1241
 3336ntf    cn117086   6.532   3.485   5.760 -0.4613 -0.3587 -0.2548
 3336ntf    sn217087   6.427   3.627   5.719 -0.1948 -0.2110 -0.4336
 3336ntf    nn317088   6.287   3.565   5.752 -0.0505 -0.3845 -0.1489
 3336ntf    sn217089   6.190   3.573   5.875  0.2262 -0.1260  0.0523
 3336ntf    cn117090   6.162   3.399   5.918  0.0812 -0.1646 -0.1998
 3336ntf    fn417091   6.517   3.382   5.679  0.1917 -0.5582 -0.1327
 3336ntf    fn417092   6.660   3.514   5.743 -0.4006 -0.3787  0.1672
 3336ntf    fn417093   6.519   3.446   5.885 -0.2541  0.0875 -0.0905
 3336ntf    on517094   6.480   3.723   5.813 -0.7819 -0.5691  0.2761
 3336ntf    on517095   6.461   3.655   5.582  0.1736  0.1232 -0.2766
 3336ntf    on517096   6.058   3.622   5.841 -0.0224 -0.5202  0.4365
 3336ntf    on517097   6.251   3.639   5.988 -0.1726  0.7251 -0.2178
 3336ntf    fn417098   6.068   3.388   6.010  0.0729  0.2206 -0.1634
 3336ntf    fn417099   6.115   3.345   5.806  0.0225 -0.4058 -0.0604
 3336ntf    fn417100   6.269   3.328   5.950 -0.0396 -0.3700 -0.2483
 3337ntf    cn117101   3.261   2.603   0.558 -0.5081 -0.0969  0.1712
 3337ntf    sn217102   3.173   2.712   0.441 -0.2398  0.2834  0.3201
 3337ntf    nn317103   3.044   2.760   0.517 -0.4985 -0.1656  0.1662
 3337ntf    sn217104   3.027   2.879   0.617  0.1213 -0.0214  0.1022
 3337ntf    cn117105   2.911   2.805   0.736  0.4857 -0.2775  0.2980
 3337ntf    fn417106   3.223   2.618   0.684  0.0180 -0.0806  0.3299
 3337ntf    fn417107   3.246   2.474   0.535 -0.2303 -0.0003 -0.5816
 3337ntf    fn417108   3.390   2.630   0.549 -0.6261  0.3756 -0.1568
 3337ntf    on517109   3.268   2.814   0.407 -0.1378  0.1839  0.3048
 3337ntf    on517110   3.138   2.617   0.338 -0.0933  0.3519  0.2082
 3337ntf    on517111   2.960   2.990   0.554  0.6891  0.1444 -0.2173
 3337ntf    on517112   3.139   2.898   0.706  0.0280 -0.1569  0.2495
 3337ntf    fn417113   2.865   2.898   0.818 -0.4169 -0.3621 -0.1031
 3337ntf    fn417114   2.802   2.749   0.686  0.3914 -0.1420  0.3519
 3337ntf    fn417115   2.973   2.708   0.802  0.2435 -0.4978  0.2020
 3338ntf    cn117116   2.118   1.132   1.749  0.1561 -0.1842 -0.0656
 3338ntf    sn217117   2.118   1.139   1.567 -0.2570  0.6883 -0.0375
 3338ntf    nn317118   2.264   1.094   1.531 -0.6242 -0.3151 -0.2925
 3338ntf    sn217119   2.307   0.962   1.457 -0.0212 -0.2079 -0.1314
 3338ntf    cn117120   2.381   0.859   1.588  0.1361  0.3621  0.2330
 3338ntf    fn417121   2.127   1.012   1.802  0.2422 -0.1996 -0.1141
 3338ntf    fn417122   2.213   1.207   1.802  0.2590 -0.2758 -0.1193
 3338ntf    fn417123   2.003   1.181   1.793  0.2068  0.2125 -0.3615
 3338ntf    on517124   2.012   1.045   1.538  0.2674  0.1203 -0.1254
 3338ntf    on517125   2.092   1.275   1.526 -0.3406  0.5564 -0.4237
 3338ntf    on517126   2.420   0.995   1.374  0.1564  0.3243  0.3117
 3338ntf    on517127   2.205   0.879   1.398 -0.1392 -0.2145  0.0798
 3338ntf    fn417128   2.293   0.824   1.680  0.1787 -0.1392  0.0838
 3338ntf    fn417129   2.424   0.744   1.539 -0.3224 -0.0498  0.7839
 3338ntf    fn417130   2.478   0.914   1.659 -0.0151  0.9791 -0.0256
 3339ntf    cn117131   0.614   1.624   3.487  0.4700 -0.2242 -0.0475
 3339ntf    sn217132   0.763   1.647   3.385  0.6368  0.1200  0.2716
 3339ntf    nn317133   0.770   1.804   3.389  0.7764  0.1232 -0.1584
 3339ntf    sn217134   0.725   1.905   3.277  0.4871  0.0125 -0.1423
 3339ntf    cn117135   0.877   1.907   3.176  0.2561 -0.0944 -0.4924
 3339ntf    fn417136   0.594   1.501   3.531 -0.1331 -0.0369  0.2247
 3339ntf    fn417137   0.621   1.705   3.592  0.3190 -0.3767  0.0818
 3339ntf    fn417138   0.508   1.664   3.419 -0.0258 -0.6738  0.4526
 3339ntf    on517139   0.866   1.589   3.467  0.7927 -0.2403 -0.1817
 3339ntf    on517140   0.722   1.583   3.263 -0.1846  0.5673  0.2999
 3339ntf    on517141   0.703   2.039   3.326  0.4405 -0.1190  0.2014
 3339ntf    on517142   0.627   1.865   3.179  0.2821 -0.1829  0.1430
 3339ntf    fn417143   0.905   1.801   3.101 -0.0803 -0.2966 -0.3359
 3339ntf    fn417144   0.879   2.018   3.104  0.5289 -0.2451 -0.7198
 3339ntf    fn417145   0.981   1.918   3.256  0.1267  0.2680 -0.3715
 3340ntf    cn117146   6.012   3.901   0.997  0.2648  0.4131 -0.2270
 3340ntf    sn217147   5.838   3.952   1.006  0.0373 -0.4434  0.2601
 3340ntf    nn317148   5.851   4.053   1.126  0.3234  0.0804 -0.2119
 3340ntf    sn217149   5.847   4.209   1.107  0.2091  0.1292  0.2083
 3340ntf    cn117150   5.950   4.257   1.249  0.3849  0.0026  0.1246
 3340ntf    fn417151   6.039   3.800   0.917  0.0951  0.0938  0.1175
 3340ntf    fn417152   6.096   3.997   0.960  0.7000  0.0153 -0.2930
 3340ntf    fn417153   6.054   3.873   1.119 -0.2162  0.3503 -0.0757
 3340ntf    on517154   5.813   4.011   0.878 -0.4875 -0.2795  0.4365
 3340ntf    on517155   5.773   3.826   1.034 -0.0026 -0.3567  0.5672
 3340ntf    on517156   5.719   4.270   1.129  0.1674  0.0730  0.1250
 3340ntf    on517157   5.921   4.269   0.998 -0.0894 -0.0276 -0.0822
 3340ntf    fn417158   5.904   4.202   1.361  0.6053  0.5034  0.4629
 3340ntf    fn417159   6.072   4.210   1.233  0.3537  0.1289 -0.4831
 3340ntf    fn417160   5.952   4.387   1.270  0.5656  0.0199  0.0001
 3341ntf    cn117161   1.912   5.694   2.943  0.3417  0.0513 -0.0781
 3341ntf    sn217162   1.955   5.841   2.846 -0.2264  0.3012  0.0420
 3341ntf    nn317163   1.836   5.939   2.877 -0.1379  0.5847 -0.5017
 3341ntf    sn217164   1.696   5.941   2.806 -0.3684  0.0723 -0.0755
 3341ntf    cn117165   1.729   6.062   2.674  0.0309 -0.2372 -0.2626
 3341ntf    fn417166   1.891   5.725   3.070  0.1178  0.5425 -0.2331
 3341ntf    fn417167   1.800   5.640   2.897  0.1717  0.3684 -0.0397
 3341ntf    fn417168   2.000   5.595   2.935 -0.2204 -0.4817  0.1899
 3341ntf    on517169   2.076   5.883   2.912 -0.2253  0.3878 -0.0162
 3341ntf    on517170   1.974   5.804   2.708  0.3490  0.3843  0.0962
 3341ntf    on517171   1.592   6.004   2.883 -0.2836 -0.1744  0.2423
 3341ntf    on517172   1.652   5.831   2.724  0.1718 -0.4431  0.3153
 3341ntf    fn417173   1.748   6.188   2.709 -0.3181 -0.1364 -0.4326
 3341ntf    fn417174   1.832   6.015   2.605 -0.0123 -0.4921 -0.1523
 3341ntf    fn417175   1.633   6.068   2.584 -0.3531  0.5828  0.1901
 3342ntf    cn117176   4.945   4.944   6.051  0.0062  0.0475  0.4946
 3342ntf    sn217177   5.107   4.882   6.104  0.3331  0.2996 -0.1992
 3342ntf    nn317178   5.169   4.998   6.189 -0.2021 -0.2156  0.9084
 3342ntf    sn217179   5.308   5.001   6.261  0.3620  0.0185 -0.1767
 3342ntf    cn117180   5.247   4.998   6.432  0.4937 -0.1995 -0.1328
 3342ntf    fn417181   4.889   4.874   5.953  0.6261 -0.1319  0.2691
 3342ntf    fn417182   4.846   4.955   6.138  0.1870  0.1916  0.6821
 3342ntf    fn417183   4.967   5.067   6.007  0.1123 -0.0550  0.2580
 3342ntf    on517184   5.082   4.764   6.183 -0.3314  0.2987 -0.3991
 3342ntf    on517185   5.162   4.866   5.971 -0.2904 -0.1743 -0.4071
 3342ntf    on517186   5.381   5.125   6.247 -0.0664  0.2932  0.0011
 3342ntf    on517187   5.382   4.878   6.265  0.5107  0.1258  0.4443
 3342ntf    fn417188   5.346   5.014   6.519  0.1050 -0.5582  0.3846
 3342ntf    fn417189   5.153   5.089   6.453  0.0449 -0.6734 -0.0785
 3342ntf    fn417190   5.188   4.884   6.467  0.2136 -0.1553 -0.4545
 3343ntf    cn117191   6.131   3.340   0.319  0.0382  0.3605 -0.1375
 3343ntf    sn217192   6.120   3.485   0.211 -0.0976  0.2843 -0.2265
 3343ntf    nn317193   6.061   3.592   0.310 -0.0276 -0.4348  0.5967
 3343ntf    sn217194   6.121   3.716   0.385 -0.0864  0.0792 -0.2026
 3343ntf    cn117195   6.093   3.675   0.560  0.3315 -0.1370 -0.1856
 3343ntf    fn417196   6.130   3.227   0.249  0.0253  0.2031  0.1159
 3343ntf    fn417197   6.242   3.342   0.391  0.2156 -0.1522 -0.3884
 3343ntf    fn417198   6.029   3.338   0.403  0.5421  0.3750  0.4856
 3343ntf    on517199   6.255   3.509   0.168  0.2192 -0.5839  0.2674
 3343ntf    on517200   6.025   3.448   0.109 -0.6251 -0.2918  0.4638
 3343ntf    on517201   6.035   3.832   0.378 -0.3704 -0.0973  0.3330
 3343ntf    on517202   6.262   3.744   0.371 -0.0039 -0.0457  0.3623
 3343ntf    fn417203   6.146   3.558   0.592 -0.2461 -0.3121  0.1312
 3343ntf    fn417204   6.148   3.767   0.637  0.1579  0.2169 -0.4830
 3343ntf    fn417205   5.965   3.666   0.591  0.2711  0.2324 -0.3208
 3344ntf    cn117206   4.380   2.429   4.148 -0.3169 -0.2293 -0.1746
 3344ntf    sn217207   4.500   2.518   4.045  0.0667 -0.4130  0.1125
 3344ntf    nn317208   4.419   2.522   3.911 -0.6723 -0.5591  0.5480
 3344ntf    sn217209   4.304   2.622   3.876  0.0299  0.1312  0.1880
 3344ntf    cn117210   4.181   2.497   3.830 -0.0825  0.3220 -0.0355
 3344ntf    fn417211   4.367   2.303   4.110  0.2742 -0.2672 -0.2674
 3344ntf    fn417212   4.398   2.432   4.279  0.0311 -0.0167 -0.2258
 3344ntf    fn417213   4.258   2.479   4.136 -0.2316  0.0291  0.0412
 3344ntf    on517214   4.529   2.647   4.103  0.3443 -0.4563  0.0712
 3344ntf    on517215   4.608   2.422   4.037 -0.0925 -0.5637 -0.2143
 3344ntf    on517216   4.324   2.691   3.750 -1.0032 -0.0222 -0.0711
 3344ntf    on517217   4.247   2.689   3.990 -0.0732  0.4095 -0.0262
 3344ntf    fn417218   4.056   2.541   3.818 -0.3390 -0.2539  0.4308
 3344ntf    fn417219   4.207   2.435   3.717 -0.5132  0.5450 -0.2614
 3344ntf    fn417220   4.171   2.398   3.918 -0.4153  0.3798 -0.0051
 3345ntf    cn117221   0.529   0.061   5.151 -0.1279  0.3450  0.2143
 3345ntf    sn217222   0.425   0.152   5.269 -0.3522 -0.0818  0.3507
 3345ntf    nn317223   0.293   0.067   5.259 -0.1852 -0.2823 -0.1890
 3345ntf    sn217224   0.178   0.079   5.153 -0.3191  0.2853  0.0165
 3345ntf    cn117225   0.064   0.174   5.258 -0.0789  0.2020  0.3540
 3345ntf    fn417226   0.482   0.063   5.028  0.0696 -0.0694  0.1282
 3345ntf    fn417227   0.651   0.112   5.150 -0.0931  0.2579 -0.7994
 3345ntf    fn417228   0.532  -0.068   5.181  0.4151  0.1417 -0.6891
 3345ntf    on517229   0.486   0.145   5.399  0.2152 -0.1368  0.0864
 3345ntf    on517230   0.411   0.287   5.220 -0.6254 -0.4086 -0.5004
 3345ntf    on517231   0.095  -0.036   5.132  0.1847 -0.1501  0.3952
 3345ntf    on517232   0.207   0.168   5.042 -0.6702  0.1791 -0.1596
 3345ntf    fn417233  -0.048   0.189   5.189  0.0208 -0.2499  0.0891
 3345ntf    fn417234   0.034   0.110   5.370 -0.2037 -0.0516  0.1782
 3345ntf    fn417235   0.124   0.289   5.285  0.5570  0.0444 -0.3645
 3346ntf    cn117236   4.223   5.417   5.604 -0.0266  0.0499 -0.4585
 3346ntf    sn217237   4.126   5.274   5.547 -0.0103 -0.0552 -0.2208
 3346ntf    nn317238   4.086   5.208   5.684 -0.2567 -0.1046 -0.3173
 3346ntf    sn217239   3.966   5.233   5.782 -0.0427 -0.1729 -0.0404
 3346ntf    cn117240   3.851   5.110   5.713 -0.1548  0.0944 -0.3289
 3346ntf    fn417241   4.144   5.509   5.657  0.3183 -0.0327  0.2012
 3346ntf    fn417242   4.310   5.383   5.697 -0.4486  0.2902  0.0253
 3346ntf    fn417243   4.286   5.485   5.509  0.2097  0.4634 -0.0115
 3346ntf    on517244   4.013   5.334   5.481  0.0406  0.4740  0.1654
 3346ntf    on517245   4.214   5.200   5.460 -0.6089 -0.4470 -0.5002
 3346ntf    on517246   3.899   5.360   5.773 -0.1878 -0.2241  0.2693
 3346ntf    on517247   3.994   5.175   5.912 -0.3388 -0.0720  0.0695
 3346ntf    fn417248   3.903   4.990   5.700 -0.4201 -0.0731  0.1217
 3346ntf    fn417249   3.743   5.102   5.790  0.1528 -0.2837  0.0619
 3346ntf    fn417250   3.806   5.146   5.594 -0.4628 -0.3469 -0.3484
 3347ntf    cn117251   2.813   3.565   6.993  0.2211  0.3099  0.0588
 3347ntf    sn217252   2.904   3.424   7.064  0.0122  0.1111 -0.0676
 3347ntf    nn317253   2.847   3.423   7.210 -0.5409  0.6263 -0.2737
 3347ntf    sn217254   2.894   3.517   7.327 -0.2374  0.2194 -0.0638
 3347ntf    cn117255   2.739   3.522   7.423 -0.1958  0.2818 -0.0004
 3347ntf    fn417256   2.686   3.545   7.024  0.3083  0.1932  0.3520
 3347ntf    fn417257   2.851   3.679   7.049  0.2766  0.1931  0.2618
 3347ntf    fn417258   2.818   3.571   6.861 -0.0209 -0.1723  0.0278
 3347ntf    on517259   2.865   3.310   6.985 -0.6241 -0.0872  0.5259
 3347ntf    on517260   3.041   3.467   7.054 -0.0184  0.1805 -0.2057
 3347ntf    on517261   2.913   3.656   7.293 -0.0337  0.2923  0.3506
 3347ntf    on517262   2.994   3.465   7.416 -0.6134 -0.1348  0.1543
 3347ntf    fn417263   2.754   3.588   7.537 -0.6131  0.1658  0.1220
 3347ntf    fn417264   2.648   3.586   7.351 -0.0440  0.3397 -0.1444
 3347ntf    fn417265   2.686   3.403   7.443  0.2649  0.0034 -0.3914
 3348ntf    cn117266   3.867   2.122   5.608  0.0535  0.1969 -0.2771
 3348ntf    sn217267   3.912   2.292   5.562  0.2398  0.1494 -0.2674
 3348ntf    nn317268   3.821   2.306   5.435 -0.4952 -0.3652  0.1978
 3348ntf    sn217269   3.669   2.345   5.437 -0.3090  0.3729  0.1413
 3348ntf    cn117270   3.660   2.495   5.334  0.1738  0.3853  0.1180
 3348ntf    fn417271   3.750   2.111   5.669  0.3165  0.2642  0.2424
 3348ntf    fn417272   3.854   2.052   5.496 -0.3900 -0.4694  0.1805
 3348ntf    fn417273   3.953   2.058   5.685 -0.7822  0.0623  0.5592
 3348ntf    on517274   3.880   2.378   5.674  0.4368  0.0088 -0.1007
 3348ntf    on517275   4.052   2.265   5.538  0.3298  0.1541  0.2436
 3348ntf    on517276   3.611   2.387   5.562 -0.1740  0.6484  0.1141
 3348ntf    on517277   3.597   2.244   5.364  0.3241  0.0471 -0.0302
 3348ntf    fn417278   3.534   2.533   5.324  0.2147  0.6043  0.4356
 3348ntf    fn417279   3.712   2.603   5.390  0.1849  0.3774  0.1234
 3348ntf    fn417280   3.713   2.479   5.213  0.4214 -0.0793  0.2843
 3349ntf    cn117281   6.079   2.869   5.212  0.1999 -0.1294  0.2484
 3349ntf    sn217282   5.915   2.880   5.291  0.0467  0.1299 -0.1028
 3349ntf    nn317283   5.846   3.005   5.227 -0.0866 -0.0719 -0.3572
 3349ntf    sn217284   5.734   3.017   5.118 -0.0301 -0.2201 -0.4314
 3349ntf    cn117285   5.589   2.996   5.225  0.2687  0.2629  0.0748
 3349ntf    fn417286   6.159   2.966   5.253  0.4955 -0.0572 -0.4964
 3349ntf    fn417287   6.138   2.757   5.250 -0.3817 -0.4493  0.2194
 3349ntf    fn417288   6.073   2.869   5.080  0.0326 -0.1302  0.2554
 3349ntf    on517289   5.857   2.750   5.269  0.3111  0.0401 -0.2803
 3349ntf    on517290   5.953   2.908   5.427  0.1501 -0.6602  0.0386
 3349ntf    on517291   5.725   2.916   5.016 -0.2383 -0.4365 -0.1971
 3349ntf    on517292   5.712   3.150   5.067  0.6604  0.2776  0.5376
 3349ntf    fn417293   5.480   2.986   5.150 -0.0898 -0.1011  0.6404
 3349ntf    fn417294   5.602   2.884   5.294  0.1007  0.2956  0.1590
 3349ntf    fn417295   5.565   3.092   5.313 -0.2259  0.2977 -0.0908
 3350ntf    cn117296   5.011   0.904   3.374  0.0186  0.1810  0.5357
 3350ntf    sn217297   5.000   0.745   3.460  0.2214 -0.0252  0.1823
 3350ntf    nn317298   4.862   0.708   3.394  0.6639 -0.3143 -0.5904
 3350ntf    sn217299   4.784   0.572   3.402  0.3087 -0.0864 -0.1630
 3350ntf    cn117300   4.837   0.497   3.245 -0.3391 -0.2463 -0.3108
 3350ntf    fn417301   4.922   0.991   3.419  0.3944  0.6553  0.3744
 3350ntf    fn417302   5.125   0.968   3.394  0.3119 -0.1173 -0.1746
 3350ntf    fn417303   4.998   0.889   3.243  0.1497 -0.1749  0.5650
 3350ntf    on517304   5.108   0.669   3.403 -0.1006 -0.2722 -0.1071
 3350ntf    on517305   5.008   0.779   3.600  0.2686  0.0412  0.1635
 3350ntf    on517306   4.642   0.587   3.380  0.2832  0.1771  0.1617
 3350ntf    on517307   4.824   0.479   3.504 -0.2315  0.0404  0.1700
 3350ntf    fn417308   4.968   0.492   3.227 -0.2071  0.1865  0.4674
 3350ntf    fn417309   4.781   0.378   3.240 -0.5491 -0.1886  0.4698
 3350ntf    fn417310   4.782   0.568   3.148 -0.2299  0.3169  0.0276
 3351ntf    cn117311   6.812   5.716   0.820 -0.0600 -0.1620  0.1288
 3351ntf    sn217312   6.823   5.599   0.682 -0.1055  0.1208 -0.1137
 3351ntf    nn317313   6.701   5.506   0.715 -0.1652  0.2920  0.1463
 3351ntf    sn217314   6.716   5.369   0.788 -0.3119  0.2087  0.0211
 3351ntf    cn117315   6.715   5.258   0.644  0.3066 -0.0285  0.1960
 3351ntf    fn417316   6.684   5.740   0.847 -0.1076 -0.0588 -0.1836
 3351ntf    fn417317   6.861   5.660   0.929  0.2012  0.2115  0.2053
 3351ntf    fn417318   6.870   5.834   0.811 -0.3385  0.0336  0.7939
 3351ntf    on517319   6.804   5.679   0.563  0.3568  0.6066  0.1350
 3351ntf    on517320   6.956   5.547   0.701 -0.0659  0.3981  0.3756
 3351ntf    on517321   6.597   5.330   0.860  0.0432 -0.1378  0.4321
 3351ntf    on517322   6.842   5.332   0.848 -0.2068  0.0161 -0.3178
 3351ntf    fn417323   6.771   5.316   0.540  0.1661 -0.2293  0.0071
 3351ntf    fn417324   6.798   5.158   0.670  0.0178 -0.2757  0.1822
 3351ntf    fn417325   6.597   5.205   0.615  0.0620  0.4653  0.2842
 3352ntf    cn117326   3.776   1.018   5.529  0.1040  0.1068  0.2370
 3352ntf    sn217327   3.751   0.947   5.694  0.1111 -0.5381 -0.0377
 3352ntf    nn317328   3.898   0.933   5.746  0.0306 -0.4592  0.2103
 3352ntf    sn217329   3.978   0.800   5.771  0.2122 -0.3501  0.2177
 3352ntf    cn117330   3.940   0.798   5.949  0.0364  0.0308  0.1871
 3352ntf    fn417331   3.676   1.006   5.444  0.1609 -0.1920  0.2115
 3352ntf    fn417332   3.802   1.148   5.536 -0.5365  0.2321  0.3486
 3352ntf    fn417333   3.881   0.968   5.465 -0.0406  0.3554 -0.1978
 3352ntf    on517334   3.678   1.052   5.761  0.3862 -0.1288 -0.3839
 3352ntf    on517335   3.682   0.825   5.658 -0.1962 -0.2572 -0.4092
 3352ntf    on517336   4.121   0.818   5.767  0.1505  0.0928 -0.1107
 3352ntf    on517337   3.930   0.675   5.718 -0.5699 -0.2608  0.7004
 3352ntf    fn417338   3.969   0.916   6.001  0.6790  0.0999 -0.3259
 3352ntf    fn417339   3.813   0.770   5.975 -0.0072 -0.1643 -0.2251
 3352ntf    fn417340   4.020   0.710   6.007  0.2723  0.3872  0.3987
 3353ntf    cn117341   4.856   1.521   3.365 -0.0719  0.3154 -0.1944
 3353ntf    sn217342   4.833   1.471   3.191 -0.3000 -0.3093  0.0159
 3353ntf    nn317343   4.682   1.492   3.158 -0.3339 -0.1552  0.2601
 3353ntf    sn217344   4.612   1.631   3.136  0.2299  0.0966  0.0426
 3353ntf    cn117345   4.475   1.599   3.252 -0.0203 -0.0531 -0.2906
 3353ntf    fn417346   4.985   1.518   3.393 -0.0167  0.3660 -0.4363
 3353ntf    fn417347   4.814   1.642   3.399  0.2458  0.3009  0.2502
 3353ntf    fn417348   4.798   1.440   3.451  0.0721 -0.2189 -0.5928
 3353ntf    on517349   4.926   1.551   3.116 -0.5431 -0.0231  0.0213
 3353ntf    on517350   4.861   1.329   3.199  0.6842 -0.1316 -0.1683
 3353ntf    on517351   4.547   1.641   3.007  0.2957  0.4437  0.0368
 3353ntf    on517352   4.680   1.743   3.195  0.3153  0.1634 -0.1801
 3353ntf    fn417353   4.388   1.515   3.199 -0.2610  0.0848 -0.1142
 3353ntf    fn417354   4.515   1.543   3.364  0.2536 -0.3970 -0.5577
 3353ntf    fn417355   4.416   1.713   3.285  0.1960 -0.0645  0.1417
 3354ntf    cn117356   5.068   1.111   5.762 -0.0705 -0.2385 -0.0942
 3354ntf    sn217357   5.092   1.212   5.911 -0.1563  0.0695 -0.2901
 3354ntf    nn317358   5.188   1.112   5.984 -0.1410  0.0863 -0.2867
 3354ntf    sn217359   5.344   1.093   5.972 -0.1529 -0.2247  0.0639
 3354ntf    cn117360   5.354   0.914   6.005  0.1330 -0.2088  0.0643
 3354ntf    fn417361   5.009   0.994   5.781 -0.1560 -0.1832 -0.0208
 3354ntf    fn417362   4.989   1.167   5.673  0.3711  0.2325 -0.1966
 3354ntf    fn417363   5.182   1.091   5.696 -0.1639 -0.2612 -0.2501
 3354ntf    on517364   5.138   1.342   5.871 -0.6268  0.1464 -0.5930
 3354ntf    on517365   4.961   1.211   5.973 -0.3204 -0.2965 -0.6359
 3354ntf    on517366   5.411   1.160   6.081 -0.2248  0.2256 -0.1686
 3354ntf    on517367   5.396   1.103   5.839  0.9509  0.2145  0.5207
 3354ntf    fn417368   5.294   0.844   5.910 -0.5096 -0.1139  0.3948
 3354ntf    fn417369   5.478   0.870   6.012  0.1118 -0.3506 -0.3831
 3354ntf    fn417370   5.296   0.883   6.120  0.1447 -0.6949 -0.0591
 3355ntf    cn117371   5.624   1.260   2.549  0.4868  0.4125  0.2059
 3355ntf    sn217372   5.717   1.327   2.690  0.4407  0.1740  0.3496
 3355ntf    nn317373   5.786   1.447   2.615  0.4508  0.2466  0.4752
 3355ntf    sn217374   5.750   1.599   2.633  0.1120  0.2017  0.1710
 3355ntf    cn117375   5.835   1.618   2.792 -0.1138 -0.1519  0.3368
 3355ntf    fn417376   5.524   1.337   2.508  0.7052  0.4436 -0.2723
 3355ntf    fn417377   5.706   1.234   2.449 -0.4672 -0.8116 -0.2817
 3355ntf    fn417378   5.558   1.151   2.583  0.6815  0.4760  0.7904
 3355ntf    on517379   5.620   1.342   2.796 -0.1460 -0.0344 -0.1494
 3355ntf    on517380   5.810   1.220   2.713 -0.4658 -0.6500  0.2220
 3355ntf    on517381   5.614   1.626   2.673  0.0602  0.0986  0.0652
 3355ntf    on517382   5.820   1.685   2.541 -0.6385  0.0506 -0.5568
 3355ntf    fn417383   5.838   1.746   2.827 -0.0617 -0.0881  0.1023
 3355ntf    fn417384   5.779   1.547   2.888 -0.3779  0.1079  0.3751
 3355ntf    fn417385   5.962   1.581   2.787 -0.3387 -0.9347  0.3796
 3356ntf    cn117386   6.711   0.521   5.767 -0.0043  0.1606 -0.0518
 3356ntf    sn217387   6.859   0.435   5.707 -0.1299  0.0508 -0.2075
 3356ntf    nn317388   6.929   0.547   5.622  0.1924 -0.1146 -0.1633
 3356ntf    sn217389   7.057   0.632   5.654  0.0372  0.2646 -0.5336
 3356ntf    cn117390   6.996   0.797   5.700 -0.0073  0.0516  0.1787
 3356ntf    fn417391   6.743   0.623   5.845  0.1331  0.3395 -0.3434
 3356ntf    fn417392   6.637   0.562   5.665  0.1861  0.3795 -0.1014
 3356ntf    fn417393   6.632   0.442   5.840 -0.3839  0.5914  0.0087
 3356ntf    on517394   6.931   0.400   5.827 -0.0369 -0.5146 -0.4240
 3356ntf    on517395   6.801   0.331   5.626 -0.5142  0.5015 -0.5184
 3356ntf    on517396   7.129   0.670   5.535  0.8877 -0.2659 -0.2054
 3356ntf    on517397   7.132   0.597   5.773 -0.2548  0.4170 -0.3046
 3356ntf    fn417398   7.097   0.881   5.708  0.4121 -0.4357  0.0850
 3356ntf    fn417399   6.912   0.834   5.605 -0.2090  0.5826  0.5608
 3356ntf    fn417400   6.927   0.797   5.813 -0.1978  0.2885  0.0621
 3357ntf    cn117401   3.967   2.502   4.455 -0.0249  0.0951  0.4098
 3357ntf    sn217402   3.982   2.681   4.425  0.3557 -0.0253 -0.1332
 3357ntf    nn317403   3.988   2.730   4.574 -0.0210  0.1438 -0.1737
 3357ntf    sn217404   3.874   2.771   4.674  0.1111 -0.0179  0.0443
 3357ntf    cn117405   3.916   2.671   4.819  0.3551 -0.3820 -0.2745
 3357ntf    fn417406   3.937   2.446   4.338  0.1256  0.1177  0.3609
 3357ntf    fn417407   4.069   2.436   4.507  0.4628 -0.1218 -0.7707
 3357ntf    fn417408   3.861   2.474   4.529 -0.1476  0.2045  0.2780
 3357ntf    on517409   4.105   2.698   4.351  0.2788  0.1381 -0.2226
 3357ntf    on517410   3.861   2.730   4.366  0.2524  0.1165  0.1954
 3357ntf    on517411   3.738   2.731   4.647  0.0148  0.1183  0.3292
 3357ntf    on517412   3.894   2.905   4.723  0.3750 -0.1236  0.2279
 3357ntf    fn417413   3.971   2.556   4.782  0.6463 -0.3976  0.1930
 3357ntf    fn417414   4.007   2.725   4.900 -0.0619 -0.3505  0.1763
 3357ntf    fn417415   3.807   2.642   4.888  0.3595 -0.6418 -0.3751
 3358ntf    cn117416   3.808   6.793   0.745 -0.0255  0.0631 -0.0894
 3358ntf    sn217417   3.920   6.824   0.885 -0.0878  0.1495 -0.0590
 3358ntf    nn317418   3.844   6.746   0.998 -0.3146  0.0609 -0.2710
 3358ntf    sn217419   3.847   6.768   1.154 -0.0211  0.0689 -0.2774
 3358ntf    cn117420   3.877   6.596   1.205 -0.0094  0.2621  0.3676
 3358ntf    fn417421   3.694   6.860   0.742 -0.1125 -0.0907 -0.2727
 3358ntf    fn417422   3.865   6.822   0.629 -0.2089 -0.0765 -0.2156
 3358ntf    fn417423   3.770   6.666   0.735  0.3106 -0.0389 -0.0980
 3358ntf    on517424   4.045   6.763   0.849 -0.0998  0.1211 -0.0547
 3358ntf    on517425   3.907   6.967   0.898 -0.4179  0.0997  0.1915
 3358ntf    on517426   3.715   6.793   1.206  0.3078  0.5278  0.3490
 3358ntf    on517427   3.951   6.854   1.203 -0.5225  0.3642  0.2757
 3358ntf    fn417428   3.765   6.526   1.211 -0.1753  0.5043  0.1359
 3358ntf    fn417429   3.961   6.534   1.123 -0.2266 -0.0432  0.3756
 3358ntf    fn417430   3.915   6.581   1.331 -0.2416  0.3557  0.4506
 3359ntf    cn117431   5.421   0.564   2.813  0.0714  0.0175 -0.0832
 3359ntf    sn217432   5.282   0.575   2.930  0.1147 -0.1138 -0.0188
 3359ntf    nn317433   5.208   0.692   2.856  0.1992 -0.0147  0.0516
 3359ntf    sn217434   5.201   0.846   2.887  0.3961  0.0503 -0.2341
 3359ntf    cn117435   5.025   0.852   2.930  0.4840 -0.0649  0.1485
 3359ntf    fn417436   5.505   0.666   2.813 -0.0681  0.1339  0.4353
 3359ntf    fn417437   5.498   0.461   2.843 -0.3865 -0.2233  0.2777
 3359ntf    fn417438   5.375   0.550   2.689 -0.3816 -0.4570  0.1328
 3359ntf    on517439   5.219   0.446   2.922  0.0428 -0.0612 -0.2932
 3359ntf    on517440   5.344   0.606   3.057  0.4983 -0.1542 -0.1946
 3359ntf    on517441   5.202   0.922   2.764  0.3836 -0.2104 -0.3985
 3359ntf    on517442   5.268   0.898   3.003  0.3313 -0.5100  0.0561
 3359ntf    fn417443   4.953   0.818   2.824  0.0700  0.3304  0.2967
 3359ntf    fn417444   4.992   0.769   3.027 -0.0589  0.3366  0.3134
 3359ntf    fn417445   4.987   0.975   2.962 -0.2061 -0.1212 -0.4087
 3360ntf    cn117446   2.189   3.547   1.330 -0.0543 -0.0026  0.1596
 3360ntf    sn217447   2.138   3.383   1.270  0.0107  0.0625 -0.0743
 3360ntf    nn317448   2.222   3.295   1.369  0.2262 -0.1867 -0.4768
 3360ntf    sn217449   2.218   3.141   1.396  0.1478 -0.1160 -0.0731
 3360ntf    cn117450   2.089   3.138   1.524 -0.0796 -0.1107 -0.3023
 3360ntf    fn417451   2.199   3.554   1.462  0.1048  0.4563  0.1274
 3360ntf    fn417452   2.312   3.576   1.290 -0.2279  0.5486  0.0120
 3360ntf    fn417453   2.110   3.643   1.285 -0.3084 -0.4020 -0.2513
 3360ntf    on517454   1.995   3.387   1.288 -0.0225  0.2018 -0.3666
 3360ntf    on517455   2.194   3.383   1.137 -0.2182  0.0826 -0.1705
 3360ntf    on517456   2.329   3.102   1.479  0.1470  0.0563  0.0090
 3360ntf    on517457   2.178   3.057   1.286  0.7326 -0.6005  0.0779
 3360ntf    fn417458   2.055   3.015   1.561  0.3708 -0.1128  0.1139
 3360ntf    fn417459   2.137   3.201   1.629  0.3862 -0.0903 -0.5215
 3360ntf    fn417460   1.977   3.200   1.490 -0.0649  0.1763  0.1767
 3361ntf    cn117461   0.968   4.782   1.158  0.3692  0.4150 -0.0437
 3361ntf    sn217462   1.065   4.788   1.005  0.0990 -0.0726 -0.2359
 3361ntf    nn317463   1.077   4.943   0.988  0.3016 -0.0152  0.4345
 3361ntf    sn217464   1.091   5.024   0.854 -0.2166 -0.4356  0.1239
 3361ntf    cn117465   1.270   5.058   0.844 -0.2166 -0.3450  0.4124
 3361ntf    fn417466   1.023   4.848   1.259  0.2142 -0.1433  0.4107
 3361ntf    fn417467   0.844   4.825   1.140  0.2334 -0.0591 -0.2531
 3361ntf    fn417468   0.963   4.658   1.203  0.3229  0.2648 -0.4591
 3361ntf    on517469   1.194   4.733   1.038 -0.1422 -0.4170  0.1448
 3361ntf    on517470   0.985   4.716   0.909 -0.0484 -0.2438  0.0133
 3361ntf    on517471   1.031   5.154   0.872  0.6985 -0.0744  0.6326
 3361ntf    on517472   1.064   4.959   0.729 -0.0783  0.1692 -0.2238
 3361ntf    fn417473   1.350   4.965   0.892  0.0868 -0.1835  0.2200
 3361ntf    fn417474   1.317   5.094   0.726 -0.6416 -0.0712  0.3246
 3361ntf    fn417475   1.286   5.164   0.922 -0.0693  0.1423 -0.2715
 3362ntf    cn117476   3.888   1.184   2.770  0.2664 -0.2619  0.1545
 3362ntf    sn217477   3.858   1.092   2.924 -0.2892 -0.0884  0.1539
 3362ntf    nn317478   3.747   0.994   2.873 -0.0438 -0.2796 -0.0132
 3362ntf    sn217479   3.706   0.862   2.949 -0.1306 -0.1493  0.1656
 3362ntf    cn117480   3.775   0.735   2.839  0.0731  0.0062  0.1134
 3362ntf    fn417481   3.779   1.245   2.726  0.1160 -0.3780  0.3646
 3362ntf    fn417482   3.981   1.276   2.786 -0.1963  0.1861  0.3005
 3362ntf    fn417483   3.929   1.105   2.672 -0.0807 -0.5067  0.2057
 3362ntf    on517484   3.988   1.035   2.950 -0.0800  0.1802 -0.2872
 3362ntf    on517485   3.803   1.193   3.011 -0.4921  0.3495 -0.4695
 3362ntf    on517486   3.565   0.831   2.943 -0.0716 -0.3467 -0.2407
 3362ntf    on517487   3.774   0.838   3.073 -0.3958  0.3897  0.4219
 3362ntf    fn417488   3.903   0.753   2.810 -0.0216  0.3177 -0.1122
 3362ntf    fn417489   3.768   0.615   2.894 -0.1259  0.2973  0.7339
 3362ntf    fn417490   3.713   0.722   2.723  0.2697  0.0339  0.0049
 3363ntf    cn117491   1.840   2.184   2.680 -0.3285 -0.2065  0.1376
 3363ntf    sn217492   1.804   2.115   2.844 -0.1744 -0.0706  0.2281
 3363ntf    nn317493   1.940   2.127   2.922 -0.3761  0.1250  0.5518
 3363ntf    sn217494   1.991   2.240   3.019  0.1848  0.3526 -0.0026
 3363ntf    cn117495   2.098   2.133   3.120 -0.1725 -0.0675 -0.0665
 3363ntf    fn417496   1.895   2.304   2.684 -0.5597 -0.1128  0.5481
 3363ntf    fn417497   1.936   2.114   2.620 -0.3080  0.2460 -0.3653
 3363ntf    fn417498   1.737   2.181   2.597 -0.1331 -0.0235 -0.1129
 3363ntf    on517499   1.697   2.201   2.890 -0.0346  0.2822 -0.0953
 3363ntf    on517500   1.766   1.978   2.820 -0.3102 -0.0595  0.3744
 3363ntf    on517501   1.889   2.287   3.110  0.2307 -0.2445  0.3636
 3363ntf    on517502   2.086   2.330   2.959  0.4008  0.2815  0.2291
 3363ntf    fn417503   2.197   2.075   3.053 -0.2302 -0.4705  0.1916
 3363ntf    fn417504   2.151   2.179   3.232 -0.4303 -0.1709  0.0981
 3363ntf    fn417505   2.026   2.034   3.170 -0.3824  0.0445 -0.1449
 3364ntf    cn117506   0.406   0.345   7.053 -0.1282  0.0877 -0.1093
 3364ntf    sn217507   0.576   0.282   7.037 -0.1564  0.0352 -0.2009
 3364ntf    nn317508   0.661   0.413   7.027 -0.1269  0.0531  0.2787
 3364ntf    sn217509   0.737   0.479   7.148 -0.0968  0.2229  0.1678
 3364ntf    cn117510   0.904   0.410   7.160  0.1326  0.6130 -0.6879
 3364ntf    fn417511   0.325   0.255   7.106  0.0551 -0.0371 -0.0392
 3364ntf    fn417512   0.404   0.460   7.119 -0.4362  0.0129  0.0128
 3364ntf    fn417513   0.354   0.373   6.935  0.2903  0.3339 -0.2399
 3364ntf    on517514   0.584   0.205   7.159  0.3986 -0.1268 -0.3348
 3364ntf    on517515   0.573   0.209   6.913  0.7535 -0.2265 -0.0723
 3364ntf    on517516   0.684   0.439   7.276  0.0243 -0.0285  0.1392
 3364ntf    on517517   0.766   0.618   7.124 -0.7313  0.3657  0.2031
 3364ntf    fn417518   0.901   0.277   7.165 -0.0582  0.6519  0.5079
 3364ntf    fn417519   0.979   0.431   7.053  0.2910  0.0834 -0.6843
 3364ntf    fn417520   0.980   0.448   7.262  0.4578  0.2432 -0.7860
 3365ntf    cn117521   1.196   2.890   4.203 -0.3043  0.0853  0.4007
 3365ntf    sn217522   1.145   2.747   4.302  0.0952 -0.2265  0.1593
 3365ntf    nn317523   0.993   2.783   4.318  0.0587 -0.1342 -0.3905
 3365ntf    sn217524   0.869   2.693   4.285 -0.2535  0.1642 -0.0295
 3365ntf    cn117525   0.772   2.805   4.179 -0.1602  0.2544 -0.0197
 3365ntf    fn417526   1.328   2.896   4.201 -0.2915 -0.2817 -0.0642
 3365ntf    fn417527   1.155   2.877   4.078  0.4125  0.5632  0.1081
 3365ntf    fn417528   1.165   3.010   4.249  0.1786  0.4219 -0.1358
 3365ntf    on517529   1.180   2.631   4.224  0.3765  0.0391 -0.1118
 3365ntf    on517530   1.223   2.773   4.421  0.2728  0.1000 -0.0281
 3365ntf    on517531   0.783   2.674   4.400 -0.3900 -0.0959 -0.1753
 3365ntf    on517532   0.891   2.577   4.203 -0.5941  0.3670 -0.4144
 3365ntf    fn417533   0.669   2.753   4.113 -0.3473  0.4107  0.1488
 3365ntf    fn417534   0.734   2.909   4.251  0.0387  0.2911  0.0331
 3365ntf    fn417535   0.842   2.862   4.082 -0.0945  0.2103  0.0014
 3366ntf    cn117536   0.487   3.574   6.751 -0.0757 -0.0438 -0.5012
 3366ntf    sn217537   0.319   3.616   6.805  0.0461 -0.0731 -0.0941
 3366ntf    nn317538   0.352   3.759   6.862  0.0146  0.0332 -0.3415
 3366ntf    sn217539   0.314   3.897   6.798  0.0804  0.0564 -0.3312
 3366ntf    cn117540   0.158   3.930   6.887  0.2220 -0.2509  0.0331
 3366ntf    fn417541   0.572   3.539   6.847 -0.6620 -0.4199 -0.1106
 3366ntf    fn417542   0.484   3.476   6.662  0.0343  0.0439 -0.6022
 3366ntf    fn417543   0.550   3.668   6.683  0.1252  0.3580  0.2199
 3366ntf    on517544   0.247   3.612   6.680 -0.0653 -0.0480 -0.0323
 3366ntf    on517545   0.283   3.521   6.907  0.6178 -0.5080 -0.2959
 3366ntf    on517546   0.279   3.911   6.659  0.2668  0.0442 -0.3795
 3366ntf    on517547   0.412   3.994   6.839  0.0182  0.1122 -0.3147
 3366ntf    fn417548   0.109   4.048   6.854  0.2874 -0.3757 -0.5388
 3366ntf    fn417549   0.070   3.838   6.853  0.0746 -0.1176  0.0548
 3366ntf    fn417550   0.169   3.925   7.018 -0.1677  0.0153  0.0757
 3367ntf    cn117551   2.121   4.960   0.119 -0.0794 -0.3370  0.4259
 3367ntf    sn217552   2.200   4.853  -0.005  0.1381 -0.2193  0.4618
 3367ntf    nn317553   2.230   4.721   0.076 -0.2714 -0.1404  0.7454
 3367ntf    sn217554   2.171   4.576   0.069 -0.2580 -0.1233  0.1939
 3367ntf    cn117555   2.152   4.533   0.245  0.0169  0.2271  0.3107
 3367ntf    fn417556   2.013   4.905   0.171 -0.1886 -0.5675 -0.0357
 3367ntf    fn417557   2.209   4.983   0.215 -0.0755  0.5501  0.2151
 3367ntf    fn417558   2.088   5.078   0.070  0.4370 -0.4029 -0.0898
 3367ntf    on517559   2.091   4.846  -0.099  0.5408 -0.2857 -0.0046
 3367ntf    on517560   2.318   4.930  -0.036 -0.0561  0.3325  1.0930
 3367ntf    on517561   2.269   4.484   0.019  0.0384 -0.1770  0.8595
 3367ntf    on517562   2.032   4.576   0.031 -0.1977 -0.1509 -0.0256
 3367ntf    fn417563   2.115   4.634   0.322 -0.5641  0.2052  0.0652
 3367ntf    fn417564   2.068   4.434   0.268 -0.5501  0.7273  0.4028
 3367ntf    fn417565   2.272   4.499   0.288  0.2228  0.2582 -0.2239
 3368ntf    cn117566   3.860   3.248   0.823 -0.0886  0.0854 -0.3967
 3368ntf    sn217567   3.803   3.358   0.956  0.0527 -0.3791  0.0491
 3368ntf    nn317568   3.937   3.411   1.019  0.2938 -0.2898 -0.5356
 3368ntf    sn217569   3.993   3.557   1.024 -0.3036 -0.0738  0.1249
 3368ntf    cn117570   4.169   3.511   1.039 -0.2153  0.2657  0.1534
 3368ntf    fn417571   3.945   3.154   0.859 -0.0815  0.2978  0.1634
 3368ntf    fn417572   3.755   3.193   0.764 -0.1972 -0.3096  0.1562
 3368ntf    fn417573   3.923   3.324   0.735 -0.3041  0.0594 -0.5766
 3368ntf    on517574   3.725   3.458   0.887  0.2344 -0.1615  0.1596
 3368ntf    on517575   3.740   3.257   1.038 -0.4135  0.0506  0.2275
 3368ntf    on517576   3.951   3.627   1.143 -0.0673  0.0911  0.1129
 3368ntf    on517577   3.989   3.622   0.895 -0.2526 -0.3210 -0.0018
 3368ntf    fn417578   4.213   3.456   0.928  0.3640  0.1714  0.4278
 3368ntf    fn417579   4.251   3.611   1.069  0.2675 -0.1270  0.1473
 3368ntf    fn417580   4.184   3.427   1.140  0.2092 -0.4843 -0.5249
 3369ntf    cn117581   0.950   6.981   5.380  0.0736 -0.3002 -0.1473
 3369ntf    sn217582   1.112   6.975   5.298  0.0807  0.0285 -0.1619
 3369ntf    nn317583   1.147   7.127   5.311  0.0047  0.0296  0.0476
 3369ntf    sn217584   1.207   7.220   5.200  0.0232  0.0292  0.0570
 3369ntf    cn117585   1.351   7.284   5.291  0.1514 -0.2122  0.0254
 3369ntf    fn417586   0.908   6.860   5.412  0.3747 -0.4435 -0.2976
 3369ntf    fn417587   0.953   7.043   5.498 -0.0715 -0.4264 -0.0770
 3369ntf    fn417588   0.853   7.033   5.307 -0.3700 -0.2706  0.4494
 3369ntf    on517589   1.194   6.891   5.383  0.2075  0.3927  0.0767
 3369ntf    on517590   1.082   6.935   5.163 -0.2548 -0.3485  0.0223
 3369ntf    on517591   1.120   7.332   5.175  0.3831  0.1261 -0.8199
 3369ntf    on517592   1.259   7.142   5.090 -0.1704 -0.3273  0.2164
 3369ntf    fn417593   1.437   7.188   5.319 -0.0951 -0.4332  0.0280
 3369ntf    fn417594   1.418   7.375   5.222 -0.5775 -0.0291 -0.4566
 3369ntf    fn417595   1.308   7.342   5.402  0.2750 -0.0775  0.0038
 3370ntf    cn117596   6.746   6.595   3.591  0.1360  0.2407 -0.1725
 3370ntf    sn217597   6.631   6.455   3.610  0.1773  0.2676  0.2777
 3370ntf    nn317598   6.543   6.466   3.481 -0.0313  0.2847  0.4220
 3370ntf    sn217599   6.390   6.438   3.460  0.1005 -0.2724  0.1721
 3370ntf    cn117600   6.331   6.609   3.482  0.0002 -0.2641 -0.1581
 3370ntf    fn417601   6.832   6.599   3.691 -0.0453 -0.4448  0.0155
 3370ntf    fn417602   6.810   6.595   3.475  0.2952  0.0723 -0.0860
 3370ntf    fn417603   6.685   6.713   3.592  0.2423  0.2954 -0.1174
 3370ntf    on517604   6.732   6.352   3.612  0.4590  0.5107 -0.5557
 3370ntf    on517605   6.566   6.473   3.737  0.3945  0.0536  0.4209
 3370ntf    on517606   6.327   6.358   3.562  0.1785 -0.3596  0.1512
 3370ntf    on517607   6.361   6.411   3.321  0.1383 -0.2423  0.1587
 3370ntf    fn417608   6.211   6.623   3.428  0.3717  0.5758 -0.7845
 3370ntf    fn417609   6.317   6.641   3.609  0.0400 -0.1505 -0.1826
 3370ntf    fn417610   6.412   6.699   3.428  0.1904 -0.2229  0.1985
 3371ntf    cn117611   6.250   4.063   2.445  0.1623  0.4263 -0.2014
 3371ntf    sn217612   6.288   4.063   2.623  0.2250  0.1662 -0.2155
 3371ntf    nn317613   6.322   3.912   2.649  0.0820  0.2816  0.6694
 3371ntf    sn217614   6.468   3.855   2.661 -0.1010 -0.3202  0.0956
 3371ntf    cn117615   6.445   3.688   2.593 -0.1630 -0.3307  0.1424
 3371ntf    fn417616   6.353   4.046   2.363  0.1426 -0.0650 -0.1240
 3371ntf    fn417617   6.169   3.964   2.415  0.6612  0.1177 -0.5548
 3371ntf    fn417618   6.197   4.178   2.406 -0.0890  0.1817 -0.5827
 3371ntf    on517619   6.398   4.152   2.649 -0.0634  0.1966  0.9842
 3371ntf    on517620   6.159   4.096   2.679  0.3500  0.1024  0.1131
 3371ntf    on517621   6.512   3.823   2.794  0.2840 -0.0951  0.0253
 3371ntf    on517622   6.568   3.910   2.573 -0.5159  0.5124  0.1331
 3371ntf    fn417623   6.554   3.613   2.609  0.0850 -0.0143 -0.0539
 3371ntf    fn417624   6.353   3.613   2.650  0.1600 -0.5361  0.4012
 3371ntf    fn417625   6.423   3.692   2.463 -0.0546  0.1988  0.1365
 3372ntf    cn117626   3.736   0.894   0.160 -0.1638  0.1274  0.0114
 3372ntf    sn217627   3.722   1.067   0.215  0.0891  0.1468  0.0177
 3372ntf    nn317628   3.762   1.044   0.365  0.0722  0.1140  0.0171
 3372ntf    sn217629   3.822   1.154   0.458 -0.0100 -0.0670  0.2858
 3372ntf    cn117630   3.996   1.162   0.405 -0.2031 -0.1318 -0.3655
 3372ntf    fn417631   3.670   0.822   0.248  0.0071  0.3007  0.2820
 3372ntf    fn417632   3.686   0.878   0.038 -0.4528 -0.0220  0.1511
 3372ntf    fn417633   3.859   0.846   0.161 -0.1644  0.0997 -0.6168
 3372ntf    on517634   3.817   1.132   0.129 -0.3427  0.6479 -0.0831
 3372ntf    on517635   3.581   1.093   0.198  0.0092 -0.0083  0.4319
 3372ntf    on517636   3.822   1.110   0.596  0.3077 -0.1162  0.2709
 3372ntf    on517637   3.771   1.286   0.432 -0.3006 -0.3404 -0.5351
 3372ntf    fn417638   4.045   1.041   0.381 -0.2858 -0.3517  0.5047
 3372ntf    fn417639   4.004   1.225   0.290  0.1040  0.2892 -0.1170
 3372ntf    fn417640   4.075   1.222   0.493 -0.3343 -0.3349 -0.1066
 3373ntf    cn117641   5.319   1.813   2.156 -0.3089  0.4060 -0.0468
 3373ntf    sn217642   5.460   1.910   2.217  0.1074 -0.1437 -0.1238
 3373ntf    nn317643   5.384   2.013   2.308  0.0061  0.0023 -0.3715
 3373ntf    sn217644   5.405   2.166   2.335 -0.2029 -0.0760  0.2462
 3373ntf    cn117645   5.533   2.151   2.464 -0.1160 -0.0353  0.1654
 3373ntf    fn417646   5.280   1.735   2.256 -0.0855  0.0339 -0.2454
 3373ntf    fn417647   5.217   1.890   2.123 -0.2344  0.4566 -0.1612
 3373ntf    fn417648   5.351   1.732   2.057  0.0848  0.4038  0.0821
 3373ntf    on517649   5.537   1.814   2.292  0.1376 -0.1193 -0.1241
 3373ntf    on517650   5.518   1.959   2.094  0.2319 -0.3385 -0.1418
 3373ntf    on517651   5.287   2.211   2.405 -0.1724  0.0112  0.2415
 3373ntf    on517652   5.469   2.249   2.236  0.1298 -0.0992  0.4383
 3373ntf    fn417653   5.645   2.096   2.421 -0.4551 -0.4608 -0.1904
 3373ntf    fn417654   5.564   2.269   2.515 -0.3837  0.0441  0.1470
 3373ntf    fn417655   5.489   2.076   2.564 -0.6205  0.2521  0.1609
 3374ntf    cn117656   1.905   4.577   3.320  0.0430 -0.2366  0.1394
 3374ntf    sn217657   2.029   4.707   3.295 -0.0666 -0.1837 -0.1244
 3374ntf    nn317658   2.112   4.647   3.176 -0.5115 -0.3758 -0.3385
 3374ntf    sn217659   2.104   4.663   3.020 -0.3129 -0.3865 -0.3494
 3374ntf    cn117660   2.275   4.622   2.972  0.0326  0.2798  0.2898
 3374ntf    fn417661   1.854   4.585   3.442 -0.0806 -0.1556  0.0822
 3374ntf    fn417662   1.801   4.571   3.239 -0.1725  0.1858  0.3801
 3374ntf    fn417663   1.965   4.458   3.319 -0.4271 -0.4803  0.4812
 3374ntf    on517664   1.954   4.826   3.263  0.0390 -0.0578  0.0948
 3374ntf    on517665   2.116   4.701   3.410  0.1954 -0.1011 -0.3158
 3374ntf    on517666   2.087   4.793   2.960  0.1047 -0.2222 -0.1160
 3374ntf    on517667   2.034   4.551   2.961  0.1127 -0.7244 -0.2208
 3374ntf    fn417668   2.368   4.684   3.042 -0.1639  0.1790  0.6413
 3374ntf    fn417669   2.293   4.491   2.984 -0.4836  0.1314 -0.4312
 3374ntf    fn417670   2.299   4.654   2.846 -0.0320  0.2915  0.2806
 3375ntf    cn117671   0.197   6.021   5.835  0.0566  0.1917 -0.5846
 3375ntf    sn217672   0.278   6.014   5.998  0.1057 -0.0179 -0.6177
 3375ntf    nn317673   0.155   5.958   6.077  0.2692  0.1943 -0.2101
 3375ntf    sn217674   0.050   6.019   6.177  0.1141 -0.2999 -0.0687
 3375ntf    cn117675  -0.073   5.885   6.174  0.1896 -0.3679 -0.1285
 3375ntf    fn417676   0.143   5.908   5.793 -0.1668  0.0460  0.0904
 3375ntf    fn417677   0.090   6.099   5.835 -0.0379  0.0634 -0.0401
 3375ntf    fn417678   0.277   6.067   5.740 -0.3719  0.5238 -0.7918
 3375ntf    on517679   0.386   5.920   5.980  0.0021 -0.0987 -0.8265
 3375ntf    on517680   0.313   6.149   6.035 -0.0230  0.0249 -0.6531
 3375ntf    on517681  -0.025   6.130   6.124 -0.2498 -0.3495  0.3379
 3375ntf    on517682   0.093   6.024   6.314 -0.0004  0.5684 -0.0637
 3375ntf    fn417683  -0.144   5.890   6.063  0.2850  0.5140 -0.1522
 3375ntf    fn417684  -0.026   5.761   6.180  0.0375 -0.4353 -0.3060
 3375ntf    fn417685  -0.160   5.896   6.273  0.3531  0.4462 -0.0756
 3376ntf    cn117686   0.324   4.086   2.251  0.2115 -0.1246  0.3492
 3376ntf    sn217687   0.180   4.193   2.227  0.2388 -0.2179 -0.2548
 3376ntf    nn317688   0.117   4.136   2.095  0.1482 -0.1181 -0.2551
 3376ntf    sn217689  -0.031   4.139   2.045 -0.0444 -0.0104  0.3091
 3376ntf    cn117690  -0.047   3.960   2.014  0.2420  0.0423 -0.1603
 3376ntf    fn417691   0.397   4.109   2.359 -0.3690 -0.1051  0.7422
 3376ntf    fn417692   0.293   3.957   2.258 -0.4375  0.0001 -0.1586
 3376ntf    fn417693   0.405   4.092   2.147  0.1378 -0.2205  0.2857
 3376ntf    on517694   0.112   4.157   2.349  0.2480 -0.4988 -0.3321
 3376ntf    on517695   0.227   4.329   2.219 -0.2279 -0.0145  0.3156
 3376ntf    on517696  -0.034   4.195   1.912 -0.4698 -0.3441  0.1735
 3376ntf    on517697  -0.139   4.171   2.136 -0.2999  0.4787 -0.1631
 3376ntf    fn417698   0.005   3.930   1.897  0.1141 -0.3792 -0.1113
 3376ntf    fn417699   0.023   3.886   2.099  0.0417  0.0047 -0.0254
 3376ntf    fn417700  -0.172   3.916   2.010  0.3884 -0.3755 -0.1951
 3377ntf    cn117701   2.079   4.809   5.047 -0.0332  0.0348 -0.3501
 3377ntf    sn217702   2.231   4.762   5.135 -0.3037  0.1472  0.1821
 3377ntf    nn317703   2.229   4.853   5.263 -0.1255  0.2047  0.1458
 3377ntf    sn217704   2.180   4.809   5.406 -0.0463 -0.2365  0.0374
 3377ntf    cn117705   2.346   4.781   5.475  0.0770 -0.5923 -0.3985
 3377ntf    fn417706   1.976   4.831   5.127  0.6495  0.5882  0.3900
 3377ntf    fn417707   2.088   4.919   4.975  0.4291  0.2034 -0.0420
 3377ntf    fn417708   2.037   4.719   4.960 -0.0197 -0.5473  0.2283
 3377ntf    on517709   2.210   4.620   5.150  0.8146 -0.0430  0.0205
 3377ntf    on517710   2.331   4.809   5.042 -0.3003 -0.5295 -0.1546
 3377ntf    on517711   2.123   4.677   5.415  0.2884 -0.4033 -0.2619
 3377ntf    on517712   2.116   4.919   5.474 -0.1515 -0.3490  0.1190
 3377ntf    fn417713   2.415   4.894   5.478 -0.0588 -0.5194  0.0567
 3377ntf    fn417714   2.353   4.730   5.597 -0.2612 -0.2638 -0.2372
 3377ntf    fn417715   2.424   4.708   5.397  0.3731 -0.2046 -0.4647
 3378ntf    cn117716   2.590   4.185   5.076  0.4280  0.0402  0.0230
 3378ntf    sn217717   2.657   4.037   4.996 -0.1497 -0.2572  0.0844
 3378ntf    nn317718   2.700   3.963   5.128 -0.2343  0.1801  0.3586
 3378ntf    sn217719   2.646   3.830   5.192  0.1526 -0.0988  0.1054
 3378ntf    cn117720   2.764   3.705   5.131 -0.1100 -0.2418 -0.1110
 3378ntf    fn417721   2.529   4.163   5.191  0.1193 -0.1657 -0.1766
 3378ntf    fn417722   2.687   4.274   5.088  0.0175  0.5874 -0.6042
 3378ntf    fn417723   2.503   4.253   5.002  0.2065  0.0724  0.3100
 3378ntf    on517724   2.545   3.989   4.918  0.4324 -0.6166 -0.5391
 3378ntf    on517725   2.768   4.094   4.924 -0.8865  0.5517 -0.4270
 3378ntf    on517726   2.519   3.783   5.144  0.1918 -0.1263  0.0287
 3378ntf    on517727   2.672   3.826   5.334 -0.0915 -0.0216  0.1525
 3378ntf    fn417728   2.765   3.692   4.999 -0.0149  0.2991 -0.1656
 3378ntf    fn417729   2.887   3.734   5.171  0.1322 -0.2383 -0.8387
 3378ntf    fn417730   2.735   3.585   5.178  0.0117 -0.1931  0.0872
 3379ntf    cn117731   6.558   2.526   3.543 -0.3788 -0.2548  0.0401
 3379ntf    sn217732   6.475   2.509   3.382  0.1007  0.2494 -0.2648
 3379ntf    nn317733   6.353   2.420   3.423  0.7551 -0.3609  0.3855
 3379ntf    sn217734   6.317   2.275   3.374  0.4327 -0.1636  0.0329
 3379ntf    cn117735   6.272   2.318   3.204  0.8076 -0.1321 -0.0584
 3379ntf    fn417736   6.659   2.611   3.535 -0.4729 -0.1414  0.0578
 3379ntf    fn417737   6.485   2.572   3.643 -0.0232 -0.2163  0.2835
 3379ntf    fn417738   6.607   2.412   3.590 -0.2320 -0.1884  0.0487
 3379ntf    on517739   6.432   2.641   3.343 -0.4039  0.0938 -0.2377
 3379ntf    on517740   6.567   2.445   3.292 -0.0321  0.3889 -0.4991
 3379ntf    on517741   6.186   2.244   3.428  0.2706 -0.3067 -0.4425
 3379ntf    on517742   6.417   2.173   3.354  0.5570  0.0901 -0.6575
 3379ntf    fn417743   6.213   2.435   3.185  0.5422 -0.3359 -0.5114
 3379ntf    fn417744   6.378   2.322   3.125  0.3486  0.4782 -0.6593
 3379ntf    fn417745   6.187   2.231   3.150  0.1219  0.0985  0.6390
 3380ntf    cn117746   3.704   4.034   5.980 -0.2028 -0.0735 -0.1399
 3380ntf    sn217747   3.810   3.903   5.913  0.3577  0.1479  0.3031
 3380ntf    nn317748   3.712   3.780   5.912  0.0129  0.4194 -0.5668
 3380ntf    sn217749   3.695   3.660   5.812  0.1249 -0.2612  0.2080
 3380ntf    cn117750   3.572   3.739   5.703  0.1670 -0.1563  0.2363
 3380ntf    fn417751   3.771   4.147   5.966 -0.1585 -0.1084 -0.2025
 3380ntf    fn417752   3.583   4.037   5.926 -0.2047 -0.3294 -0.1494
 3380ntf    fn417753   3.684   4.019   6.110 -0.1283 -0.6833 -0.1960
 3380ntf    on517754   3.847   3.953   5.784 -0.2149  0.3101  0.1982
 3380ntf    on517755   3.914   3.895   6.013  0.4924 -0.5920  0.1154
 3380ntf    on517756   3.622   3.546   5.861 -0.1580  0.1211  0.6908
 3380ntf    on517757   3.806   3.634   5.724 -0.1319  0.3929 -0.3282
 3380ntf    fn417758   3.630   3.830   5.626  0.1951 -0.2384  0.1602
 3380ntf    fn417759   3.512   3.648   5.629  1.0088 -0.2667 -0.3214
 3380ntf    fn417760   3.475   3.795   5.774  0.0262 -0.3075  0.1619
 3381ntf    cn117761   0.471   6.799   1.977  0.1784 -0.2397 -0.2204
 3381ntf    sn217762   0.400   6.869   1.825 -0.1288  0.0292  0.0475
 3381ntf    nn317763   0.339   6.738   1.763  0.0838 -0.0313 -0.0355
 3381ntf    sn217764   0.190   6.692   1.742  0.0662  0.1559 -0.3222
 3381ntf    cn117765   0.192   6.549   1.854 -0.1396  0.1194 -0.3645
 3381ntf    fn417766   0.494   6.896   2.063 -0.3357 -0.1028 -0.2363
 3381ntf    fn417767   0.390   6.714   2.038  0.1183  0.0903  0.1630
 3381ntf    fn417768   0.580   6.728   1.950  0.3482  0.0457 -0.2841
 3381ntf    on517769   0.310   6.972   1.872  0.1145  0.2184  0.0957
 3381ntf    on517770   0.515   6.912   1.750  0.0223  0.7170  0.6669
 3381ntf    on517771   0.168   6.622   1.618  0.3258  0.1107 -0.3427
 3381ntf    on517772   0.093   6.786   1.791  0.0134 -0.3408  0.5414
 3381ntf    fn417773   0.188   6.588   1.980  0.0344 -0.6774 -0.1076
 3381ntf    fn417774   0.079   6.481   1.838 -0.1809  0.2022 -0.4252
 3381ntf    fn417775   0.298   6.471   1.844 -0.2314 -0.0684  0.1169
 3382ntf    cn117776   6.665   0.749   1.624  0.2938  0.1133  0.1075
 3382ntf    sn217777   6.784   0.886   1.624  0.0076  0.3632  0.0098
 3382ntf    nn317778   6.892   0.826   1.527 -0.0220 -0.6023  0.5584
 3382ntf    sn217779   7.044   0.865   1.520 -0.2102  0.0620  0.0362
 3382ntf    cn117780   7.115   0.730   1.619  0.3624  0.4055  0.1004
 3382ntf    fn417781   6.728   0.632   1.627  0.0389 -0.0321 -0.1065
 3382ntf    fn417782   6.589   0.750   1.732  0.0563 -0.1481 -0.0572
 3382ntf    fn417783   6.579   0.741   1.524 -0.1728  0.0084  0.5154
 3382ntf    on517784   6.719   0.998   1.560 -0.4787  0.2392  0.2866
 3382ntf    on517785   6.819   0.897   1.763 -0.3410  0.0728  0.1224
 3382ntf    on517786   7.074   0.989   1.586  0.1276  0.0631 -0.1144
 3382ntf    on517787   7.099   0.841   1.388  0.2233  0.1059  0.2069
 3382ntf    fn417788   7.241   0.749   1.654  0.5099 -0.1124 -0.1371
 3382ntf    fn417789   7.048   0.715   1.732  0.2294 -0.0626 -0.0361
 3382ntf    fn417790   7.102   0.611   1.561 -0.1680  0.5991 -0.1916
 3383ntf    cn117791   6.418   1.372   4.857  0.0022 -0.0599 -0.5551
 3383ntf    sn217792   6.482   1.542   4.849 -0.2402  0.0457 -0.2972
 3383ntf    nn317793   6.572   1.534   4.977  0.0026 -0.2223 -0.4838
 3383ntf    sn217794   6.670   1.647   5.025 -0.2701 -0.3099  0.2930
 3383ntf    cn117795   6.826   1.591   4.950 -0.0661  0.2897  0.2610
 3383ntf    fn417796   6.345   1.344   4.750 -0.2167 -0.0207 -0.4175
 3383ntf    fn417797   6.520   1.289   4.861  0.0467  0.0308  0.5285
 3383ntf    fn417798   6.345   1.345   4.964  0.7276 -0.0252 -0.0473
 3383ntf    on517799   6.548   1.549   4.721 -0.1404  0.1763 -0.2385
 3383ntf    on517800   6.369   1.630   4.869 -0.4836 -0.3200 -0.0666
 3383ntf    on517801   6.700   1.651   5.166 -0.0050  0.0079  0.2287
 3383ntf    on517802   6.660   1.780   4.970 -0.2591 -0.2760  0.3723
 3383ntf    fn417803   6.858   1.474   5.002 -0.0091  0.2317  0.0950
 3383ntf    fn417804   6.816   1.574   4.820 -0.1493  0.4379  0.2475
 3383ntf    fn417805   6.924   1.674   4.978  0.4858 -0.3570  0.2731
 3384ntf    cn117806   4.649   3.069   3.698  0.1099 -0.1647 -0.0692
 3384ntf    sn217807   4.595   3.153   3.546 -0.2390  0.2566  0.2859
 3384ntf    nn317808   4.450   3.187   3.595 -0.1632 -0.1526  0.8082
 3384ntf    sn217809   4.380   3.328   3.606  0.1511  0.0683 -0.0052
 3384ntf    cn117810   4.329   3.315   3.780  0.3500 -0.0528  0.0444
 3384ntf    fn417811   4.665   3.151   3.801 -0.0748 -0.1595 -0.0430
 3384ntf    fn417812   4.561   2.976   3.734 -0.2428  0.2704  0.2019
 3384ntf    fn417813   4.769   3.015   3.685  0.1266  0.0627 -0.8758
 3384ntf    on517814   4.693   3.256   3.527  0.2500 -0.2437  0.0741
 3384ntf    on517815   4.596   3.055   3.441  0.1298  0.2850  0.2632
 3384ntf    on517816   4.254   3.343   3.539  0.2703  0.1109 -0.2220
 3384ntf    on517817   4.466   3.443   3.602  0.6696 -0.3220 -0.2695
 3384ntf    fn417818   4.243   3.217   3.802  0.4459 -0.1696 -0.0982
 3384ntf    fn417819   4.432   3.286   3.858  0.1498 -0.0477  0.3087
 3384ntf    fn417820   4.274   3.425   3.829  0.3170  0.0294 -0.1746
 3385ntf    cn117821   6.826   4.531   6.762 -0.1481 -0.1320 -0.0520
 3385ntf    sn217822   6.712   4.422   6.671 -0.2041 -0.0274 -0.1076
 3385ntf    nn317823   6.760   4.283   6.726  0.0455  0.2349  0.3475
 3385ntf    sn217824   6.905   4.224   6.732 -0.0671 -0.0778  0.0765
 3385ntf    cn117825   6.859   4.054   6.691 -0.1231  0.0516 -0.3997
 3385ntf    fn417826   6.803   4.539   6.892 -0.0587  0.3431 -0.0628
 3385ntf    fn417827   6.955   4.504   6.749 -0.0178  0.5569 -0.2384
 3385ntf    fn417828   6.810   4.655   6.721  0.1896  0.0097  0.2361
 3385ntf    on517829   6.578   4.443   6.720 -0.3204 -0.4641 -0.2313
 3385ntf    on517830   6.742   4.441   6.532  0.4963 -0.0258  0.0411
 3385ntf    on517831   6.956   4.225   6.868 -0.3014  0.6360  0.1650
 3385ntf    on517832   6.998   4.263   6.629 -0.3996  0.3160 -0.0731
 3385ntf    fn417833   6.965   3.977   6.673 -0.4801 -0.6579  0.4217
 3385ntf    fn417834   6.789   3.997   6.789 -0.0514  0.0599 -0.3437
 3385ntf    fn417835   6.788   4.052   6.579  0.0474  0.1629 -0.5106
 3386ntf    cn117836   6.212   5.771   6.607  0.2607 -0.1843 -0.3285
 3386ntf    sn217837   6.284   5.728   6.768 -0.0009 -0.2258 -0.2213
 3386ntf    nn317838   6.347   5.589   6.730  0.2679 -0.0665 -0.3626
 3386ntf    sn217839   6.485   5.532   6.779  0.0677 -0.1926  0.0551
 3386ntf    cn117840   6.592   5.584   6.642 -0.4739  0.1866 -0.2302
 3386ntf    fn417841   6.166   5.895   6.606  0.5954 -0.0599 -0.2477
 3386ntf    fn417842   6.303   5.759   6.511  0.3516  0.0562 -0.2708
 3386ntf    fn417843   6.112   5.690   6.575 -0.3445  0.2494  0.4383
 3386ntf    on517844   6.377   5.834   6.796  0.3693 -0.7674  0.6355
 3386ntf    on517845   6.174   5.708   6.859 -0.0531 -0.4812 -0.3410
 3386ntf    on517846   6.489   5.388   6.773  0.2367 -0.1789 -0.1720
 3386ntf    on517847   6.538   5.586   6.902  0.2606 -0.6194  0.1601
 3386ntf    fn417848   6.590   5.715   6.622  0.3994  0.2536  0.0763
 3386ntf    fn417849   6.721   5.562   6.665 -0.5917 -0.2812 -0.0012
 3386ntf    fn417850   6.564   5.528   6.526  0.0231  0.0394 -0.2835
 3387ntf    cn117851   4.048   6.581   5.440  0.1226 -0.0971 -0.1184
 3387ntf    sn217852   4.049   6.401   5.414  0.1918 -0.1521  0.2655
 3387ntf    nn317853   3.937   6.361   5.516 -0.4000  0.1017 -0.2728
 3387ntf    sn217854   3.897   6.214   5.554 -0.0528  0.1146  0.1564
 3387ntf    cn117855   3.968   6.210   5.721  0.1120 -0.4558  0.0777
 3387ntf    fn417856   4.149   6.636   5.375 -0.2508  0.1831 -0.4692
 3387ntf    fn417857   3.942   6.640   5.385  0.1062 -0.2650 -0.2665
 3387ntf    fn417858   4.046   6.617   5.567 -0.3326  0.0162 -0.1535
 3387ntf    on517859   4.005   6.389   5.277 -0.1185  0.4670  0.3085
 3387ntf    on517860   4.185   6.364   5.443  0.4297  0.1844 -0.3953
 3387ntf    on517861   3.971   6.105   5.494 -0.1433  0.0865  0.0963
 3387ntf    on517862   3.758   6.194   5.586 -0.0537 -0.3701 -0.1436
 3387ntf    fn417863   3.953   6.329   5.778 -0.4624 -0.4635 -0.0566
 3387ntf    fn417864   3.915   6.122   5.804 -0.0969  0.0283  0.4623
 3387ntf    fn417865   4.096   6.177   5.715  0.1464 -0.3345  0.1362
 3388ntf    cn117866   0.727   5.231   1.340 -0.0492 -0.1156  0.1657
 3388ntf    sn217867   0.724   5.321   1.498 -0.3797  0.0454  0.0680
 3388ntf    nn317868   0.661   5.208   1.587 -0.3101 -0.5193 -0.5977
 3388ntf    sn217869   0.553   5.212   1.701  0.0282 -0.3395 -0.2817
 3388ntf    cn117870   0.401   5.188   1.603 -0.2628 -0.0497  0.0962
 3388ntf    fn417871   0.756   5.314   1.241  0.4215  0.1373  0.5100
 3388ntf    fn417872   0.809   5.127   1.338 -0.1630 -0.1950 -0.3943
 3388ntf    fn417873   0.610   5.181   1.306 -0.2310  0.2345  0.2763
 3388ntf    on517874   0.860   5.356   1.529 -0.0783 -0.5914 -0.5160
 3388ntf    on517875   0.628   5.424   1.467  0.2948  0.7666  0.3557
 3388ntf    on517876   0.532   5.332   1.778 -0.4844 -0.8981  0.4672
 3388ntf    on517877   0.554   5.088   1.775  0.4352 -0.3501 -0.3018
 3388ntf    fn417878   0.398   5.082   1.523 -0.0394 -0.2663  0.3691
 3388ntf    fn417879   0.292   5.188   1.677  0.0325 -0.0943  0.5376
 3388ntf    fn417880   0.386   5.290   1.521 -0.2851 -0.0871  0.0538
 3389ntf    cn117881   3.399   4.946   3.650  0.4184  0.2022  0.1283
 3389ntf    sn217882   3.442   4.885   3.484  0.3174  0.0090  0.1734
 3389ntf    nn317883   3.364   4.990   3.398  0.6451 -0.1527 -0.3280
 3389ntf    sn217884   3.307   4.982   3.252  0.0617  0.4028 -0.1361
 3389ntf    cn117885   3.436   5.071   3.160  0.4272  0.1017  0.0846
 3389ntf    fn417886   3.461   5.062   3.664  0.6610  0.1628 -0.5991
 3389ntf    fn417887   3.270   4.971   3.662  0.3702 -0.0116  0.0559
 3389ntf    fn417888   3.436   4.870   3.751  0.1548 -0.1292 -0.0238
 3389ntf    on517889   3.585   4.907   3.483  0.2703  0.2960 -0.1655
 3389ntf    on517890   3.401   4.747   3.483  0.1101  0.0644  0.6361
 3389ntf    on517891   3.194   5.071   3.239 -0.3796 -0.0688  0.4188
 3389ntf    on517892   3.293   4.852   3.192 -0.0042  0.0598  0.6084
 3389ntf    fn417893   3.556   5.018   3.181  0.0331 -0.5037  0.8522
 3389ntf    fn417894   3.416   5.088   3.031  0.3893 -0.0960  0.0645
 3389ntf    fn417895   3.456   5.194   3.206  0.5659 -0.2363  0.9571
 3390ntf    cn117896   3.544   7.071   5.280 -0.2315  0.1732  0.4392
 3390ntf    sn217897   3.673   7.181   5.216 -0.0927 -0.2239  0.0236
 3390ntf    nn317898   3.783   7.178   5.328 -0.2800 -0.0483  0.2137
 3390ntf    sn217899   3.804   7.291   5.435  0.2318  0.4052 -0.3580
 3390ntf    cn117900   3.939   7.391   5.364  0.1793  0.5819 -0.2119
 3390ntf    fn417901   3.599   6.959   5.325 -0.1556 -0.1473 -0.4259
 3390ntf    fn417902   3.475   7.119   5.382 -0.0595  0.2228  0.5321
 3390ntf    fn417903   3.456   7.041   5.185  0.0977 -0.3616  0.2993
 3390ntf    on517904   3.714   7.115   5.095 -0.1668  0.3471 -0.3185
 3390ntf    on517905   3.600   7.304   5.197  0.1663 -0.0882 -0.0954
 3390ntf    on517906   3.872   7.236   5.550 -0.0957 -0.2148 -0.4574
 3390ntf    on517907   3.700   7.387   5.466 -0.0258 -0.0329  0.1539
 3390ntf    fn417908   3.996   7.482   5.441 -0.0853  0.4201  0.1760
 3390ntf    fn417909   4.037   7.312   5.322  0.0718  0.0026  0.5898
 3390ntf    fn417910   3.892   7.449   5.255 -0.1400  0.3123 -0.2204
 3391ntf    cn117911   3.598   5.686   2.494 -0.0300 -0.1347  0.0210
 3391ntf    sn217912   3.613   5.554   2.618  0.1724  0.0722  0.2184
 3391ntf    nn317913   3.462   5.546   2.662  0.0319  0.1643 -0.2382
 3391ntf    sn217914   3.354   5.437   2.632  0.2484 -0.0249 -0.3353
 3391ntf    cn117915   3.377   5.338   2.782  0.2452  0.1444 -0.2235
 3391ntf    fn417916   3.600   5.808   2.545 -0.0721 -0.2058  0.1908
 3391ntf    fn417917   3.707   5.690   2.418 -0.2899  0.3499 -0.3317
 3391ntf    fn417918   3.497   5.674   2.409 -0.5598 -0.2197  0.6598
 3391ntf    on517919   3.662   5.442   2.540 -0.1838  0.0326  0.0487
 3391ntf    on517920   3.695   5.599   2.727  0.7827 -0.2908 -0.0873
 3391ntf    on517921   3.382   5.346   2.524 -0.2337  0.0992 -0.5720
 3391ntf    on517922   3.222   5.495   2.635 -0.4011 -1.4726 -0.0138
 3391ntf    fn417923   3.503   5.299   2.798  0.2215  0.0745 -0.2053
 3391ntf    fn417924   3.337   5.407   2.888  0.6720  0.2148 -0.1071
 3391ntf    fn417925   3.302   5.231   2.767  0.4481 -0.0028 -0.2024
 3392ntf    cn117926   4.988   5.935   1.609  0.2928  0.0309 -0.5040
 3392ntf    sn217927   5.104   5.947   1.749 -0.0992 -0.0789 -0.1706
 3392ntf    nn317928   5.211   5.837   1.716 -0.1318  0.0158 -0.5898
 3392ntf    sn217929   5.224   5.688   1.763 -0.0453  0.1459 -0.1979
 3392ntf    cn117930   5.277   5.621   1.603 -0.1713 -0.0065 -0.1763
 3392ntf    fn417931   5.050   5.951   1.493 -0.4837 -0.0948 -0.9432
 3392ntf    fn417932   4.918   5.823   1.606 -0.4526  0.4621  0.4812
 3392ntf    fn417933   4.900   6.033   1.616  0.3322  0.0142  0.3709
 3392ntf    on517934   5.166   6.076   1.731  0.1830 -0.2116 -0.1500
 3392ntf    on517935   5.015   5.926   1.861  0.2678  0.0557  0.1469
 3392ntf    on517936   5.100   5.617   1.786  0.2251 -0.0888  0.5698
 3392ntf    on517937   5.332   5.655   1.852 -0.3442 -0.2864  0.0099
 3392ntf    fn417938   5.193   5.644   1.503 -0.1262  0.0141 -0.2095
 3392ntf    fn417939   5.400   5.658   1.572 -0.2161  0.3686  0.0928
 3392ntf    fn417940   5.283   5.489   1.614  0.0142 -0.0174 -0.3905
 3393ntf    cn117941   6.831   3.395   3.151 -0.1436  0.1744  0.0586
 3393ntf    sn217942   6.977   3.356   3.051 -0.1419  0.4404 -0.0410
 3393ntf    nn317943   7.005   3.205   3.083 -0.3399  0.4196  0.0278
 3393ntf    sn217944   6.978   3.069   3.010  0.1024  0.1193  0.4146
 3393ntf    cn117945   7.148   3.004   3.002  0.0534  0.0398 -0.0095
 3393ntf    fn417946   6.799   3.521   3.126 -0.3484  0.0072 -0.5214
 3393ntf    fn417947   6.729   3.322   3.111  0.1852 -0.2771  0.0334
 3393ntf    fn417948   6.858   3.381   3.280  0.0391  0.1483  0.0185
 3393ntf    on517949   6.931   3.382   2.916  0.5107 -0.3187 -0.4202
 3393ntf    on517950   7.078   3.446   3.102  0.5378  0.0235 -0.6149
 3393ntf    on517951   6.942   3.073   2.870 -0.2783  0.0878  0.5122
 3393ntf    on517952   6.902   2.975   3.088 -0.2426  0.1857  0.1604
 3393ntf    fn417953   7.195   2.999   3.125 -0.0192 -0.8667 -0.0140
 3393ntf    fn417954   7.157   2.880   2.957  0.5798  0.0347  0.1092
 3393ntf    fn417955   7.232   3.080   2.933 -0.2501 -0.3133 -0.7813
 3394ntf    cn117956   3.923   4.666   2.625  0.3376  0.4066  0.3077
 3394ntf    sn217957   3.751   4.610   2.642  0.4529 -0.0562 -0.0459
 3394ntf    nn317958   3.680   4.746   2.674  0.0462 -0.3085  0.1436
 3394ntf    sn217959   3.665   4.810   2.817  0.2640  0.3655 -0.1292
 3394ntf    cn117960   3.655   4.989   2.785  0.3502  0.3492 -0.2511
 3394ntf    fn417961   3.953   4.742   2.729  0.6339  0.1580  0.4046
 3394ntf    fn417962   3.998   4.557   2.633 -0.3691 -0.1063  0.0210
 3394ntf    fn417963   3.949   4.729   2.512  0.2394  0.6398  0.4122
 3394ntf    on517964   3.715   4.566   2.510  0.3013 -0.1022  0.0106
 3394ntf    on517965   3.740   4.511   2.746  0.1736  0.3289  0.2949
 3394ntf    on517966   3.776   4.795   2.906  0.2256  0.1371 -0.1197
 3394ntf    on517967   3.534   4.779   2.869  0.1016  0.7445 -0.3022
 3394ntf    fn417968   3.656   5.058   2.898  0.6179 -0.4643  0.2557
 3394ntf    fn417969   3.754   5.030   2.708  0.4844 -0.0941 -0.3153
 3394ntf    fn417970   3.543   5.023   2.723  0.1464  0.3068  0.0900
 3395ntf    cn117971   1.147   2.575   5.471  0.0411  0.0632  0.1510
 3395ntf    sn217972   1.260   2.576   5.328 -0.2563  0.0668 -0.0853
 3395ntf    nn317973   1.159   2.515   5.225 -0.3001 -0.2669  0.1523
 3395ntf    sn217974   1.148   2.368   5.170  0.0499 -0.2286 -0.0214
 3395ntf    cn117975   1.226   2.398   5.008  0.1259  0.1778  0.0884
 3395ntf    fn417976   1.021   2.599   5.438  0.0792 -0.4221 -0.3752
 3395ntf    fn417977   1.156   2.452   5.521 -0.1400 -0.0603 -0.1195
 3395ntf    fn417978   1.173   2.663   5.566 -0.2374  0.1181  0.1770
 3395ntf    on517979   1.275   2.718   5.308 -0.8284  0.1271 -0.1207
 3395ntf    on517980   1.375   2.498   5.365 -0.1062  0.2034 -0.2662
 3395ntf    on517981   1.012   2.334   5.136  0.0295 -0.1256 -0.0455
 3395ntf    on517982   1.230   2.264   5.226 -0.3647 -0.3820  0.3028
 3395ntf    fn417983   1.206   2.291   4.933 -0.1587  0.2904  0.0036
 3395ntf    fn417984   1.183   2.503   4.940 -0.2156 -0.2091 -0.2935
 3395ntf    fn417985   1.356   2.408   5.031  0.1595 -0.2273  0.0791
 3396ntf    cn117986   4.517   5.041   5.107 -0.2601  0.0153 -0.1824
 3396ntf    sn217987   4.673   5.018   5.016 -0.1293  0.1056  0.0161
 3396ntf    nn317988   4.782   5.078   5.111 -0.0207  0.1890 -0.1588
 3396ntf    sn217989   4.857   5.013   5.234 -0.0224  0.2497 -0.1258
 3396ntf    cn117990   4.987   4.920   5.147 -0.3244 -0.2168 -0.0805
 3396ntf    fn417991   4.411   5.002   5.039 -0.5867  0.1109  0.2688
 3396ntf    fn417992   4.517   4.969   5.218 -0.5330  0.1009 -0.1262
 3396ntf    fn417993   4.499   5.168   5.141 -0.2945 -0.0732  0.1331
 3396ntf    on517994   4.675   4.877   4.983 -0.1079  0.0669  0.1818
 3396ntf    on517995   4.666   5.099   4.897  0.5119  0.0048 -0.0925
 3396ntf    on517996   4.793   4.910   5.311 -0.1150  0.2566 -0.1926
 3396ntf    on517997   4.926   5.114   5.311  0.0234  0.1472 -0.0337
 3396ntf    fn417998   4.931   4.831   5.066  0.0533 -0.6113  0.0917
 3396ntf    fn417999   5.051   4.996   5.059 -0.2567  0.3259  0.4311
 3396ntf    fn418000   5.076   4.860   5.223  0.0823  0.0634 -0.3292
 3397ntf    cn118001   5.494   3.560   2.475 -0.0913  0.0663 -0.0785
 3397ntf    sn218002   5.490   3.648   2.316  0.0259  0.3329  0.0664
 3397ntf    nn318003   5.339   3.689   2.305 -0.0345  0.2283  0.4714
 3397ntf    sn218004   5.228   3.611   2.225  0.2497 -0.0481  0.3416
 3397ntf    cn118005   5.082   3.655   2.325  0.0867  0.1600  0.0150
 3397ntf    fn418006   5.391   3.477   2.488  0.1151 -0.2235 -0.2797
 3397ntf    fn418007   5.611   3.500   2.480  0.0582  0.3780  0.2446
 3397ntf    fn418008   5.489   3.643   2.578  0.3346 -0.0760  0.0594
 3397ntf    on518009   5.574   3.761   2.346 -0.1429  0.4915 -0.0578
 3397ntf    on518010   5.546   3.557   2.219  0.4389  0.4007  0.2384
 3397ntf    on518011   5.233   3.468   2.242  0.8653 -0.1228 -0.4402
 3397ntf    on518012   5.201   3.670   2.096 -0.2741 -0.0678  0.4402
 3397ntf    fn418013   5.086   3.584   2.437 -0.1632 -0.7052 -0.5167
 3397ntf    fn418014   5.080   3.782   2.362 -0.4994  0.1072  0.1736
 3397ntf    fn418015   4.968   3.628   2.263 -0.1884  0.7111  0.2813
 3398ntf    cn118016   0.581   2.937   6.741 -0.1837  0.2553  0.1876
 3398ntf    sn218017   0.630   2.792   6.839  0.1746 -0.0029 -0.3671
 3398ntf    nn318018   0.621   2.852   6.984  0.3320 -0.6043 -0.1045
 3398ntf    sn218019   0.738   2.872   7.087  0.1153  0.2084 -0.0064
 3398ntf    cn118020   0.794   3.038   7.037 -0.6796  0.3709 -0.3710
 3398ntf    fn418021   0.453   2.968   6.737 -0.2689 -0.1293 -0.1586
 3398ntf    fn418022   0.633   3.049   6.788  0.0408  0.0874  0.3403
 3398ntf    fn418023   0.619   2.930   6.614  0.7001 -0.0796  0.4609
 3398ntf    on518024   0.516   2.706   6.823 -0.0301  0.1106  0.4157
 3398ntf    on518025   0.760   2.750   6.792  0.2503  0.2124 -0.3516
 3398ntf    on518026   0.855   2.789   7.069 -0.3957 -0.5260  0.0277
 3398ntf    on518027   0.689   2.889   7.221 -0.3214  0.6159 -0.2159
 3398ntf    fn418028   0.710   3.139   7.050 -0.1855  0.7633 -0.2369
 3398ntf    fn418029   0.899   3.073   7.110 -0.5602  0.0459 -0.3819
 3398ntf    fn418030   0.831   3.026   6.910  0.7339  0.0493  0.0575
 3399ntf    cn118031   2.966   0.215   2.134 -0.0409  0.2033  0.0504
 3399ntf    sn218032   3.095   0.101   2.191 -0.2619  0.1078  0.3642
 3399ntf    nn318033   3.220   0.193   2.163 -0.0986 -0.2091  0.0348
 3399ntf    sn218034   3.356   0.207   2.239 -0.0010  0.2346 -0.2223
 3399ntf    cn118035   3.467   0.158   2.104  0.2144 -0.0317  0.0485
 3399ntf    fn418036   2.846   0.165   2.159 -0.0338  0.1235 -0.0756
 3399ntf    fn418037   2.970   0.335   2.190 -0.2705 -0.0442  0.6067
 3399ntf    fn418038   2.985   0.245   2.007 -0.6385  0.2786 -0.0249
 3399ntf    on518039   3.055   0.072   2.326 -0.4665 -0.0179  0.2772
 3399ntf    on518040   3.085  -0.012   2.102  0.1574  0.0437  0.3946
 3399ntf    on518041   3.387   0.111   2.343  0.2091  0.1297 -0.3814
 3399ntf    on518042   3.391   0.344   2.267  0.7995 -0.0351  0.1608
 3399ntf    fn418043   3.438   0.041   2.050 -0.3635  0.2383 -0.2398
 3399ntf    fn418044   3.467   0.246   2.005 -0.2129  0.1906  0.2440
 3399ntf    fn418045   3.592   0.151   2.145  0.1028 -0.1053  0.3755
 3400ntf    cn118046   3.787   0.034   1.752  0.1215 -0.0401 -0.1720
 3400ntf    sn218047   3.762  -0.100   1.632 -0.1647 -0.1777  0.0404
 3400ntf    nn318048   3.909  -0.153   1.623 -0.1499 -0.1697  0.2245
 3400ntf    sn218049   3.976  -0.250   1.727  0.1087 -0.1840  0.0485
 3400ntf    cn118050   4.002  -0.407   1.639  0.0716 -0.1502 -0.0224
 3400ntf    fn418051   3.866   0.130   1.708  0.3383 -0.0735  0.1425
 3400ntf    fn418052   3.675   0.093   1.790  0.3831  0.5080 -0.2375
 3400ntf    fn418053   3.847  -0.012   1.860 -0.0629 -0.4187 -0.2277
 3400ntf    on518054   3.668  -0.191   1.692 -0.5134 -0.0207 -0.2640
 3400ntf    on518055   3.731  -0.028   1.511 -0.0504 -0.0599  0.0818
 3400ntf    on518056   3.890  -0.290   1.836  0.2219 -0.0813  0.1772
 3400ntf    on518057   4.109  -0.209   1.761 -0.0567  0.0489  0.4216
 3400ntf    fn418058   4.075  -0.389   1.530  0.5661 -0.1784  0.3029
 3400ntf    fn418059   4.064  -0.494   1.717  0.3771  0.4991  0.4735
 3400ntf    fn418060   3.887  -0.464   1.606  0.0876 -0.2352  0.0706
 3401ntf    cn118061   0.518   3.246   5.277  0.0583 -0.1072 -0.0334
 3401ntf    sn218062   0.553   3.073   5.234 -0.1448 -0.1347 -0.0864
 3401ntf    nn318063   0.638   3.026   5.357  0.0212  0.1918 -0.0752
 3401ntf    sn218064   0.792   3.041   5.382  0.0303  0.0794 -0.0644
 3401ntf    cn118065   0.840   2.882   5.309  0.0393  0.1596 -0.2334
 3401ntf    fn418066   0.430   3.294   5.191 -0.2950 -0.7120 -0.0106
 3401ntf    fn418067   0.470   3.254   5.400  0.3596  0.0376  0.0772
 3401ntf    fn418068   0.626   3.323   5.274  0.2788 -0.4128 -0.0550
 3401ntf    on518069   0.425   3.008   5.223  0.1191 -0.7271  0.3042
 3401ntf    on518070   0.621   3.097   5.109  0.2528  0.3370  0.2177
 3401ntf    on518071   0.827   3.020   5.521 -0.0747 -0.0134 -0.0516
 3401ntf    on518072   0.860   3.149   5.315  1.1271 -0.7570 -0.3334
 3401ntf    fn418073   0.969   2.860   5.292 -0.0197 -0.5033  0.1111
 3401ntf    fn418074   0.806   2.783   5.390  0.1851  0.1570 -0.1746
 3401ntf    fn418075   0.775   2.863   5.195 -0.3486 -0.1254  0.0322
 3402ntf    cn118076   0.798   1.139   6.304  0.2079 -0.0742  0.2254
 3402ntf    sn218077   0.764   1.117   6.481  0.1342 -0.0140  0.2195
 3402ntf    nn318078   0.903   1.108   6.554  0.2773  0.3469 -0.0101
 3402ntf    sn218079   0.999   0.988   6.587  0.0489  0.2027  0.1289
 3402ntf    cn118080   0.967   0.958   6.763  0.3167 -0.1335  0.1214
 3402ntf    fn418081   0.895   1.057   6.267  0.2197  0.1519 -0.2512
 3402ntf    fn418082   0.693   1.113   6.227  0.5482 -0.5296 -0.0893
 3402ntf    fn418083   0.837   1.262   6.273  0.2553 -0.1533 -0.0313
 3402ntf    on518084   0.682   1.230   6.514 -0.2276 -0.3147  0.3658
 3402ntf    on518085   0.682   0.998   6.484 -0.5260  0.4393  0.3536
 3402ntf    on518086   1.137   1.026   6.593 -0.1549  0.9725  0.0664
 3402ntf    on518087   0.969   0.869   6.511 -0.2677 -0.0178  0.5936
 3402ntf    fn418088   0.841   0.927   6.786  0.3542 -0.2410  0.1820
 3402ntf    fn418089   1.045   0.864   6.814 -0.2483 -0.3794  0.5492
 3402ntf    fn418090   0.991   1.071   6.828 -0.2077  0.2334 -0.3203
 3403ntf    cn118091   6.835   2.563   0.721  0.5765 -0.1659  0.2779
 3403ntf    sn218092   6.916   2.724   0.693 -0.0214  0.1201  0.1882
 3403ntf    nn318093   7.063   2.669   0.690 -0.3710 -0.8448  0.1702
 3403ntf    sn218094   7.167   2.649   0.805  0.1146  0.1125 -0.0895
 3403ntf    cn118095   7.266   2.798   0.775  0.1838  0.1500  0.3148
 3403ntf    fn418096   6.705   2.583   0.735  0.5631  0.4008 -0.6076
 3403ntf    fn418097   6.855   2.485   0.616  0.2344 -0.3321  0.3342
 3403ntf    fn418098   6.893   2.501   0.823  0.9379 -0.3098 -0.0133
 3403ntf    on518099   6.872   2.769   0.563 -0.4712 -0.2288  0.2148
 3403ntf    on518100   6.877   2.803   0.807  0.0416 -0.5022  0.6470
 3403ntf    on518101   7.250   2.536   0.772 -0.3145 -0.2762  0.1488
 3403ntf    on518102   7.120   2.663   0.941  0.2909  0.1032 -0.0270
 3403ntf    fn418103   7.190   2.906   0.766  0.4003  0.2880  0.0997
 3403ntf    fn418104   7.364   2.818   0.862  0.2055 -0.2754  0.3879
 3403ntf    fn418105   7.327   2.789   0.658 -0.2819  0.5106  0.0389
 3404ntf    cn118106   5.004   3.629   4.922 -0.0678 -0.0301  0.3061
 3404ntf    sn218107   5.072   3.668   5.087 -0.1329  0.0173  0.3224
 3404ntf    nn318108   4.948   3.748   5.140 -0.0246  0.0901  0.4670
 3404ntf    sn218109   4.935   3.904   5.131 -0.1988  0.0524  0.0071
 3404ntf    cn118110   5.017   3.954   5.286  0.1338 -0.1541 -0.1007
 3404ntf    fn418111   5.102   3.576   4.850 -0.0503  0.1732  0.1779
 3404ntf    fn418112   4.912   3.535   4.909 -0.1213  0.0801 -0.1016
 3404ntf    fn418113   4.952   3.733   4.859  0.0666 -0.3751 -0.3800
 3404ntf    on518114   5.087   3.541   5.153  0.4694  0.2282  0.5909
 3404ntf    on518115   5.198   3.736   5.071 -0.0837 -0.1221  0.1117
 3404ntf    on518116   4.797   3.943   5.136 -0.1940  0.0549  0.1239
 3404ntf    on518117   5.006   3.966   5.021  0.2492  0.0311  0.2823
 3404ntf    fn418118   5.118   3.873   5.311  0.7154  0.5549 -0.1190
 3404ntf    fn418119   5.064   4.078   5.281 -0.1778 -0.0327 -0.0629
 3404ntf    fn418120   4.926   3.946   5.381  0.4419 -0.0252  0.2074
 3405ntf    cn118121   2.673   0.665   6.889  0.4423  0.0805  0.3091
 3405ntf    sn218122   2.788   0.538   6.826  0.1539  0.0623 -0.1862
 3405ntf    nn318123   2.839   0.478   6.962  0.0278 -0.0454 -0.1862
 3405ntf    sn218124   2.983   0.472   7.023 -0.2694 -0.0537  0.5149
 3405ntf    cn118125   2.965   0.312   7.107  0.0173 -0.3739 -0.0295
 3405ntf    fn418126   2.733   0.764   6.952  0.0986  0.2443  0.3746
 3405ntf    fn418127   2.602   0.722   6.793  0.6528  0.2424  0.2476
 3405ntf    fn418128   2.585   0.613   6.973  0.0815 -0.1845 -0.2293
 3405ntf    on518129   2.706   0.443   6.755 -0.2280  0.5502 -0.4056
 3405ntf    on518130   2.878   0.622   6.751 -0.0824  0.6138  0.1398
 3405ntf    on518131   3.000   0.569   7.129  0.6256 -0.2059  0.5162
 3405ntf    on518132   3.091   0.460   6.928 -0.4770  0.3221  0.2332
 3405ntf    fn418133   2.879   0.309   7.208 -0.1932  0.1620 -0.1914
 3405ntf    fn418134   2.928   0.225   7.015  0.2971 -0.1953 -0.3129
 3405ntf    fn418135   3.081   0.267   7.153  0.0299 -0.0104  0.2986
 3406ntf    cn118136   1.117   0.664   6.170 -0.1543 -0.3688  0.4562
 3406ntf    sn218137   1.173   0.515   6.082  0.1608  0.1190 -0.1776
 3406ntf    nn318138   1.245   0.574   5.955 -0.0735 -0.8283 -0.7624
 3406ntf    sn218139   1.392   0.627   5.933 -0.1553 -0.2728 -0.0143
 3406ntf    cn118140   1.470   0.467   5.895  0.2559 -0.0623 -0.0535
 3406ntf    fn418141   1.219   0.715   6.238  0.0969 -0.0748 -0.1317
 3406ntf    fn418142   1.072   0.757   6.087 -0.0970 -0.1782  0.6359
 3406ntf    fn418143   1.027   0.637   6.263 -0.6052  0.4485  0.2689
 3406ntf    on518144   1.254   0.443   6.177 -0.3840  0.6836  0.7250
 3406ntf    on518145   1.051   0.449   6.044  0.2603 -0.3414  0.2943
 3406ntf    on518146   1.460   0.682   6.048 -0.3123  0.1805 -0.1345
 3406ntf    on518147   1.407   0.699   5.809 -0.4126  0.0622  0.1470
 3406ntf    fn418148   1.474   0.390   6.002  0.0381  0.0329  0.0249
 3406ntf    fn418149   1.400   0.407   5.801  0.4277  0.2411 -0.3783
 3406ntf    fn418150   1.591   0.479   5.843  0.1518  0.4653 -0.1768
 3407ntf    cn118151   4.259   0.285   5.595  0.5244 -0.2129 -0.0117
 3407ntf    sn218152   4.342   0.163   5.702  0.2130 -0.4035  0.0145
 3407ntf    nn318153   4.222   0.064   5.724 -0.0764 -0.1197 -0.2781
 3407ntf    sn218154   4.230  -0.077   5.791 -0.0053  0.0548  0.0826
 3407ntf    cn118155   4.240  -0.191   5.650 -0.2745 -0.2844  0.3359
 3407ntf    fn418156   4.147   0.334   5.647  0.4503 -0.2383 -0.1466
 3407ntf    fn418157   4.333   0.394   5.588  0.1088  0.0693 -0.0904
 3407ntf    fn418158   4.246   0.249   5.469  0.0907 -0.1204  0.0028
 3407ntf    on518159   4.448   0.128   5.611  0.2892  0.4076 -0.2172
 3407ntf    on518160   4.374   0.242   5.819 -0.3993 -0.0996 -0.0166
 3407ntf    on518161   4.107  -0.110   5.859 -0.2424  0.2378 -0.2565
 3407ntf    on518162   4.354  -0.110   5.858  0.2902  0.1223 -0.4216
 3407ntf    fn418163   4.334  -0.153   5.564 -0.4270  0.2755  0.4121
 3407ntf    fn418164   4.258  -0.316   5.688 -0.0368 -0.5140 -0.4969
 3407ntf    fn418165   4.129  -0.193   5.578 -0.0129  0.0020 -0.0793
 3408ntf    cn118166   0.113   2.255   6.835  0.0488 -0.0758  0.0082
 3408ntf    sn218167   0.210   2.104   6.865 -0.0261 -0.1263 -0.0054
 3408ntf    nn318168   0.313   2.150   6.974 -0.0288  0.1909 -0.1367
 3408ntf    sn218169   0.469   2.136   6.981 -0.0328  0.0718 -0.2715
 3408ntf    cn118170   0.494   2.105   7.159 -0.5820  0.1450 -0.1795
 3408ntf    fn418171   0.183   2.349   6.773  0.3339 -0.3010 -0.0110
 3408ntf    fn418172   0.012   2.231   6.752  0.3938 -0.4457 -0.3080
 3408ntf    fn418173   0.068   2.322   6.940  0.2434  0.2136 -0.0924
 3408ntf    on518174   0.110   2.016   6.921  0.1672 -0.2409  0.1606
 3408ntf    on518175   0.272   2.071   6.740  0.1973  0.1514  0.0319
 3408ntf    on518176   0.540   2.256   6.945 -0.3157  0.3600  0.1135
 3408ntf    on518177   0.519   2.015   6.923 -0.2691  0.0721 -0.4761
 3408ntf    fn418178   0.619   2.110   7.203 -0.7174 -0.3661  0.2764
 3408ntf    fn418179   0.427   2.199   7.223  0.0067  0.0815  0.5399
 3408ntf    fn418180   0.435   1.992   7.195  0.1215 -0.0765  0.3112
 3409ntf    cn118181   1.412   0.880   1.007  0.5722 -0.1268  0.1033
 3409ntf    sn218182   1.532   1.004   1.063  0.1330  0.2859  0.1392
 3409ntf    nn318183   1.615   0.923   1.169 -0.0255  0.0075  0.0513
 3409ntf    sn218184   1.743   0.835   1.150 -0.1047 -0.1372  0.1821
 3409ntf    cn118185   1.873   0.950   1.094 -0.0929 -0.0633  0.3628
 3409ntf    fn418186   1.466   0.764   0.974  0.5352 -0.1647  0.1761
 3409ntf    fn418187   1.323   0.852   1.100  0.2972  0.0028 -0.1186
 3409ntf    fn418188   1.344   0.930   0.905 -0.4438 -0.4796  0.5973
 3409ntf    on518189   1.597   1.035   0.937  0.6050 -0.0891  0.2856
 3409ntf    on518190   1.456   1.108   1.127  0.3826  0.4403  0.1856
 3409ntf    on518191   1.737   0.740   1.041 -0.0599  0.1112 -0.0372
 3409ntf    on518192   1.794   0.776   1.271  0.1153  0.5441  0.4266
 3409ntf    fn418193   1.892   1.059   1.166  0.1750  0.3245 -0.2931
 3409ntf    fn418194   1.989   0.886   1.083 -0.3309 -0.4761  0.2484
 3409ntf    fn418195   1.851   0.998   0.973 -0.0452 -0.0047  0.3773
 3410ntf    cn118196   6.309   6.026   0.037  0.2906 -0.2359 -0.0559
 3410ntf    sn218197   6.369   5.994   0.205  0.1966  0.0613  0.0340
 3410ntf    nn318198   6.455   6.123   0.234 -0.2930  0.3101  0.3948
 3410ntf    sn218199   6.564   6.143   0.345 -0.1650  0.0165  0.3223
 3410ntf    cn118200   6.460   6.234   0.463 -0.1280  0.3278  0.1168
 3410ntf    fn418201   6.414   6.032  -0.044  0.1551  0.0004 -0.2163
 3410ntf    fn418202   6.219   5.940  -0.009  0.3174 -0.2393 -0.1010
 3410ntf    fn418203   6.248   6.141   0.015  0.0648 -0.3286  0.0787
 3410ntf    on518204   6.244   5.983   0.276  0.0868  0.2798 -0.1262
 3410ntf    on518205   6.455   5.879   0.197  0.0016 -0.0679 -0.2130
 3410ntf    on518206   6.663   6.242   0.308 -0.3157 -0.2174 -0.7570
 3410ntf    on518207   6.602   6.023   0.414 -0.4557 -0.0979  0.2846
 3410ntf    fn418208   6.438   6.359   0.427  0.0931  0.2427 -0.3153
 3410ntf    fn418209   6.345   6.173   0.487  0.0031 -0.0691 -0.2570
 3410ntf    fn418210   6.524   6.233   0.579  0.2789 -0.2865 -0.1059
 3411ntf    cn118211   0.250   2.872   4.191 -0.0978 -0.3064  0.0762
 3411ntf    sn218212   0.215   3.036   4.121  0.2589 -0.1558  0.2469
 3411ntf    nn318213   0.097   3.088   4.210 -0.1463  0.1718 -0.4695
 3411ntf    sn218214   0.095   3.220   4.295 -0.1340 -0.1330  0.0066
 3411ntf    cn118215   0.154   3.152   4.453  0.0242 -0.5204 -0.2191
 3411ntf    fn418216   0.205   2.848   4.313 -0.1522 -0.2098  0.0747
 3411ntf    fn418217   0.204   2.772   4.118 -0.1464  0.2022 -0.6034
 3411ntf    fn418218   0.381   2.852   4.201 -0.1173 -0.3506  0.2417
 3411ntf    on518219   0.340   3.106   4.139  0.0024  0.6603 -0.9648
 3411ntf    on518220   0.174   3.000   3.987  0.0711 -0.5491  0.4106
 3411ntf    on518221  -0.043   3.253   4.323 -0.2127 -0.3196 -0.1548
 3411ntf    on518222   0.184   3.330   4.266 -0.8028  0.4350  0.0720
 3411ntf    fn418223   0.176   3.246   4.543 -0.1478 -0.1739 -0.5382
 3411ntf    fn418224   0.068   3.070   4.510 -0.5957 -0.0640 -0.4939
 3411ntf    fn418225   0.267   3.083   4.442  0.2071 -0.2538 -0.0282
 3412ntf    cn118226   1.513   2.065   6.615  0.0689 -0.4875 -0.1014
 3412ntf    sn218227   1.510   2.011   6.441  0.1193  0.1047 -0.2906
 3412ntf    nn318228   1.354   2.007   6.426  0.0972 -0.0765 -0.0177
 3412ntf    sn218229   1.272   1.875   6.404  0.1582 -0.0644 -0.3316
 3412ntf    cn118230   1.297   1.835   6.229  0.1970 -0.2879 -0.2768
 3412ntf    fn418231   1.634   2.043   6.663 -0.1266 -1.0600  0.1329
 3412ntf    fn418232   1.475   2.190   6.635  0.2230 -0.4830  0.1593
 3412ntf    fn418233   1.434   1.995   6.694  0.4197 -0.3390  0.3859
 3412ntf    on518234   1.568   2.119   6.366  0.0127  0.5546  0.2696
 3412ntf    on518235   1.582   1.886   6.449 -0.0487  0.0151 -0.1922
 3412ntf    on518236   1.130   1.899   6.415  0.0634 -0.7563  0.0145
 3412ntf    on518237   1.315   1.757   6.475 -0.0729  0.1678  0.2067
 3412ntf    fn418238   1.266   1.937   6.150  0.3459 -0.0815 -0.0706
 3412ntf    fn418239   1.423   1.800   6.211  0.2046 -0.3615 -0.0808
 3412ntf    fn418240   1.217   1.737   6.190 -0.0575 -0.0422 -0.3743
 3413ntf    cn118241   0.749   3.022   3.683  0.2138 -0.1628  0.0161
 3413ntf    sn218242   0.911   3.098   3.712 -0.0621  0.3777  0.1606
 3413ntf    nn318243   0.979   2.983   3.795 -0.3158  0.0869 -0.0336
 3413ntf    sn218244   1.067   2.865   3.739  0.0466  0.3671 -0.0579
 3413ntf    cn118245   1.238   2.926   3.745  0.0738  0.2899 -0.0572
 3413ntf    fn418246   0.768   2.906   3.623  0.1654  0.0481 -0.4148
 3413ntf    fn418247   0.684   2.994   3.795  0.1481  0.5257  0.1564
 3413ntf    fn418248   0.673   3.097   3.605  0.2895 -0.1548 -0.0491
 3413ntf    on518249   0.955   3.116   3.576 -0.1652  0.0044  0.0780
 3413ntf    on518250   0.887   3.217   3.790  0.4567  0.4007  0.2891
 3413ntf    on518251   1.038   2.831   3.602  0.3277 -0.3800  0.0678
 3413ntf    on518252   1.067   2.749   3.825 -0.3959  0.1689 -0.3228
 3413ntf    fn418253   1.263   2.968   3.868  0.0693 -0.1421  0.0925
 3413ntf    fn418254   1.330   2.831   3.733 -0.2820 -0.0789  0.1119
 3413ntf    fn418255   1.270   3.024   3.663  0.4498 -0.0210 -0.2897
 3414ntf    cn118256   5.292   5.192   1.106 -0.0955 -0.1819 -0.3646
 3414ntf    sn218257   5.159   5.069   1.116 -0.1263 -0.1133  0.0837
 3414ntf    nn318258   5.034   5.146   1.060 -0.2497 -0.1454  0.3155
 3414ntf    sn218259   4.925   5.213   1.151 -0.2072  0.3630 -0.0068
 3414ntf    cn118260   4.842   5.313   1.024 -0.1367  0.1414 -0.2294
 3414ntf    fn418261   5.409   5.131   1.095  0.0253 -0.0093 -0.0243
 3414ntf    fn418262   5.274   5.269   1.000 -0.0477  0.0732 -0.1870
 3414ntf    fn418263   5.289   5.270   1.212  0.2257  0.6360 -0.9447
 3414ntf    on518264   5.208   4.973   1.020  0.1859 -0.0730  0.2037
 3414ntf    on518265   5.152   5.023   1.253  0.0871 -0.5248 -0.0430
 3414ntf    on518266   4.965   5.314   1.245  0.0026  0.4848 -0.2280
 3414ntf    on518267   4.820   5.125   1.198 -0.2377  0.3906 -0.0242
 3414ntf    fn418268   4.905   5.429   1.016  0.8122 -0.2860  0.7478
 3414ntf    fn418269   4.850   5.252   0.907  0.2569  0.2497 -0.2589
 3414ntf    fn418270   4.717   5.335   1.064 -0.1186  0.4052 -0.3141
 3415ntf    cn118271   0.406   4.948   6.199 -0.1026  0.2017 -0.2669
 3415ntf    sn218272   0.280   4.817   6.210  0.1415 -0.0118 -0.0293
 3415ntf    nn318273   0.217   4.825   6.066  0.4375  0.3060 -0.1436
 3415ntf    sn218274   0.253   4.741   5.938  0.0620 -0.2247  0.0955
 3415ntf    cn118275   0.133   4.605   5.944 -0.0591 -0.1194  0.0680
 3415ntf    fn418276   0.479   4.922   6.092  0.2057  0.3569 -0.0944
 3415ntf    fn418277   0.359   5.071   6.181  0.0545  0.2738 -0.1887
 3415ntf    fn418278   0.491   4.961   6.299 -0.6634  0.2394  0.2154
 3415ntf    on518279   0.348   4.695   6.246 -0.2918 -0.1693  0.2603
 3415ntf    on518280   0.189   4.866   6.310 -0.2732  0.0604 -0.4422
 3415ntf    on518281   0.381   4.674   5.930 -0.1350 -0.5894 -0.0401
 3415ntf    on518282   0.221   4.808   5.815  0.4358  0.4769  0.3736
 3415ntf    fn418283   0.113   4.568   6.069  0.1393 -0.1453  0.0928
 3415ntf    fn418284   0.014   4.631   5.894  0.1064 -0.2506 -0.4034
 3415ntf    fn418285   0.177   4.499   5.877 -0.0215  0.0471 -0.1713
 3416ntf    cn118286   2.164   2.202   6.068  0.1999 -0.1290  0.2166
 3416ntf    sn218287   2.076   2.353   6.119  0.0354 -0.0552 -0.2811
 3416ntf    nn318288   2.149   2.361   6.257  0.0079 -0.4450 -0.2414
 3416ntf    sn218289   2.126   2.477   6.361  0.1667 -0.6601  0.0338
 3416ntf    cn118290   2.020   2.403   6.489 -0.2100 -0.0446  0.0811
 3416ntf    fn418291   2.128   2.093   6.133 -0.6541 -0.4948 -0.8423
 3416ntf    fn418292   2.151   2.185   5.937  0.1462  0.2341  0.1715
 3416ntf    fn418293   2.295   2.211   6.081  0.2295  0.1677 -0.2613
 3416ntf    on518294   2.131   2.446   6.023 -0.3270  0.1390 -0.3016
 3416ntf    on518295   1.936   2.316   6.118 -0.0263  0.1621  0.0667
 3416ntf    on518296   2.055   2.594   6.318  0.0119 -0.4551  0.8352
 3416ntf    on518297   2.243   2.514   6.437 -0.5094  0.0241  0.7572
 3416ntf    fn418298   1.920   2.325   6.449 -0.2677  0.0296  0.0808
 3416ntf    fn418299   2.093   2.325   6.568  0.2309  0.1227 -0.1560
 3416ntf    fn418300   1.973   2.496   6.570 -0.0266 -0.2110  0.3797
 3417ntf    cn118301   3.540   2.107   6.880 -0.2321 -0.1224  0.1197
 3417ntf    sn218302   3.547   2.287   6.854 -0.1985 -0.1428 -0.0154
 3417ntf    nn318303   3.578   2.354   6.993  0.1184  0.5063 -0.3969
 3417ntf    sn218304   3.505   2.344   7.131  0.3303 -0.2654 -0.3410
 3417ntf    cn118305   3.640   2.339   7.253 -0.1025 -0.2312  0.1423
 3417ntf    fn418306   3.423   2.062   6.923 -0.3910  0.0306 -0.1488
 3417ntf    fn418307   3.548   2.042   6.765 -0.2875  0.1782 -0.0572
 3417ntf    fn418308   3.631   2.067   6.968 -0.4661  0.2447  0.5346
 3417ntf    on518309   3.653   2.301   6.757 -0.1162  0.1719  0.1188
 3417ntf    on518310   3.416   2.322   6.807 -0.1089 -0.7734 -0.7494
 3417ntf    on518311   3.442   2.217   7.159 -0.4457  0.0015 -0.8446
 3417ntf    on518312   3.427   2.463   7.156  0.5650 -0.2193  0.1795
 3417ntf    fn418313   3.733   2.254   7.214 -0.0728  0.1729 -0.6948
 3417ntf    fn418314   3.704   2.453   7.274  0.4329 -0.4367 -0.3800
 3417ntf    fn418315   3.598   2.290   7.369 -0.1452 -0.2820  0.1056
 3418ntf    cn118316   0.723   6.063   3.280 -0.3808 -0.2439  0.1983
 3418ntf    sn218317   0.766   6.027   3.453  0.2297 -0.2871  0.0416
 3418ntf    nn318318   0.881   6.132   3.473 -0.2925  0.3800 -0.3808
 3418ntf    sn218319   1.034   6.137   3.440 -0.1622 -0.1081  0.1390
 3418ntf    cn118320   1.098   6.104   3.608 -0.1015  0.2608  0.1877
 3418ntf    fn418321   0.822   6.044   3.195  0.5077 -0.2993  1.2243
 3418ntf    fn418322   0.630   5.984   3.230  0.0722 -0.6642  0.0116
 3418ntf    fn418323   0.686   6.190   3.267  0.2741 -0.0938 -0.2707
 3418ntf    on518324   0.643   6.072   3.515  0.1350 -0.7758  0.2125
 3418ntf    on518325   0.797   5.887   3.461  0.1573 -0.2932  0.2242
 3418ntf    on518326   1.083   6.267   3.403 -0.7721  0.1176  0.1296
 3418ntf    on518327   1.078   6.024   3.362 -0.1354 -0.0987  0.1404
 3418ntf    fn418328   1.210   6.169   3.633  0.1314 -0.0144 -0.1353
 3418ntf    fn418329   1.011   6.147   3.698 -0.8308 -0.4361 -0.1720
 3418ntf    fn418330   1.124   5.976   3.628 -0.2770  0.1470 -0.2877
 3419ntf    cn118331   3.288   1.438   1.839 -0.5227  0.3007  0.4183
 3419ntf    sn218332   3.381   1.417   1.684 -0.3841 -0.1684  0.5637
 3419ntf    nn318333   3.517   1.477   1.735 -0.1371 -0.3225  0.0890
 3419ntf    sn218334   3.649   1.416   1.795 -0.0985 -0.0501  0.2824
 3419ntf    cn118335   3.746   1.567   1.821  0.0307 -0.0698 -0.0798
 3419ntf    fn418336   3.285   1.565   1.876  0.2263  0.3767  0.2412
 3419ntf    fn418337   3.163   1.397   1.828 -0.3208 -0.1971 -0.0785
 3419ntf    fn418338   3.336   1.359   1.933 -0.0496 -0.0378 -0.1000
 3419ntf    on518339   3.367   1.274   1.671  0.3680 -0.2399  0.4564
 3419ntf    on518340   3.313   1.501   1.589 -0.1497 -0.3019  0.2765
 3419ntf    on518341   3.718   1.333   1.700 -0.4035 -0.0043  0.0172
 3419ntf    on518342   3.635   1.360   1.927 -0.3802  0.3117  0.4115
 3419ntf    fn418343   3.874   1.534   1.814 -0.1153 -0.7443  0.3421
 3419ntf    fn418344   3.722   1.653   1.724 -0.1623 -0.1615 -0.1118
 3419ntf    fn418345   3.725   1.637   1.932 -0.0992 -0.5256  0.1855
 3420ntf    cn118346   3.811   5.919   6.189 -0.9337  0.2185  0.0749
 3420ntf    sn218347   3.733   5.811   6.065 -0.0775 -0.2787 -0.0330
 3420ntf    nn318348   3.594   5.778   6.129  0.1365  0.4945  0.8568
 3420ntf    sn218349   3.566   5.643   6.205  0.0877  0.0363  0.0462
 3420ntf    cn118350   3.408   5.697   6.276 -0.0869  0.3755 -0.5898
 3420ntf    fn418351   3.917   5.857   6.238 -0.5222  0.5984 -0.3271
 3420ntf    fn418352   3.853   6.036   6.145 -0.2606 -0.0621 -0.0291
 3420ntf    fn418353   3.734   5.942   6.294 -0.5319 -0.0979  0.4394
 3420ntf    on518354   3.719   5.902   5.954  0.0765  0.0197  0.1888
 3420ntf    on518355   3.822   5.698   6.050 -0.3301 -0.4009 -0.6328
 3420ntf    on518356   3.642   5.638   6.328  0.0801 -0.5457  0.0279
 3420ntf    on518357   3.514   5.529   6.135  0.0140  0.0430  0.0898
 3420ntf    fn418358   3.364   5.605   6.361  0.0865 -0.0297 -0.9364
 3420ntf    fn418359   3.417   5.812   6.342 -0.1932 -0.0229  0.1305
 3420ntf    fn418360   3.314   5.722   6.187 -0.6501 -0.4263 -0.2348
 3421ntf    cn118361   4.552   4.980   2.627 -0.2766 -0.0036  0.6407
 3421ntf    sn218362   4.380   4.976   2.569 -0.0203 -0.0409 -0.1204
 3421ntf    nn318363   4.369   4.836   2.499 -0.1306 -0.0943  0.0039
 3421ntf    sn218364   4.422   4.796   2.357 -0.3551 -0.1517 -0.0628
 3421ntf    cn118365   4.272   4.812   2.255 -0.4948  0.1335  0.1866
 3421ntf    fn418366   4.582   5.089   2.696 -0.8082  0.5965 -0.0669
 3421ntf    fn418367   4.577   4.881   2.711 -0.0387 -0.2963  0.2250
 3421ntf    fn418368   4.633   4.963   2.524 -0.9728 -0.3020  0.1403
 3421ntf    on518369   4.313   4.983   2.696 -0.0164 -0.3757 -0.0984
 3421ntf    on518370   4.373   5.090   2.481  0.0743 -0.2707 -0.4257
 3421ntf    on518371   4.454   4.655   2.349  0.7898  0.0947  0.0673
 3421ntf    on518372   4.510   4.885   2.285  0.2258 -0.3543  0.3894
 3421ntf    fn418373   4.276   4.739   2.145  0.2537  0.3293  0.0781
 3421ntf    fn418374   4.164   4.773   2.321  0.2293 -0.4887  1.0311
 3421ntf    fn418375   4.255   4.939   2.222  0.1090  0.3056  0.5250
 3422ntf    cn118376   4.678   2.552   0.617  0.0307 -0.6597  0.4595
 3422ntf    sn218377   4.524   2.458   0.635 -0.4455  0.1371  0.5869
 3422ntf    nn318378   4.499   2.418   0.485 -0.7241  0.5259  0.5293
 3422ntf    sn218379   4.380   2.440   0.385 -0.3397  0.1644 -0.0145
 3422ntf    cn118380   4.280   2.292   0.417  0.1613 -0.1660  0.0261
 3422ntf    fn418381   4.741   2.570   0.732 -0.0867  0.5759  0.3436
 3422ntf    fn418382   4.754   2.480   0.535 -0.4660  0.2570 -0.8415
 3422ntf    fn418383   4.667   2.670   0.557 -0.3043 -0.8665  0.1125
 3422ntf    on518384   4.572   2.350   0.717  0.0217 -0.0417  0.0798
 3422ntf    on518385   4.426   2.546   0.694 -0.5669  0.2049  0.2822
 3422ntf    on518386   4.409   2.416   0.246 -0.5507 -0.1276 -0.0099
 3422ntf    on518387   4.297   2.556   0.411 -0.5893 -0.0410  0.1052
 3422ntf    fn418388   4.228   2.299   0.538  0.2466 -0.3583  0.0742
 3422ntf    fn418389   4.177   2.292   0.334 -0.2623 -0.1223  0.5442
 3422ntf    fn418390   4.345   2.177   0.407  0.4660 -0.0302  0.4038
 3423ntf    cn118391   3.189   1.772   6.498 -0.1534 -0.1463  0.2506
 3423ntf    sn218392   3.355   1.777   6.570  0.0095 -0.1251 -0.1270
 3423ntf    nn318393   3.396   1.632   6.614 -0.3170 -0.3917 -0.7035
 3423ntf    sn218394   3.489   1.599   6.736 -0.2362  0.1370 -0.6195
 3423ntf    cn118395   3.563   1.447   6.668  0.3161  0.0944  0.0691
 3423ntf    fn418396   3.093   1.734   6.581 -0.1073  0.0295  0.3858
 3423ntf    fn418397   3.140   1.883   6.446  0.3569 -0.3205 -0.6104
 3423ntf    fn418398   3.190   1.683   6.400 -0.1069 -0.0032  0.1219
 3423ntf    on518399   3.438   1.810   6.457 -0.2045  0.1611 -0.1990
 3423ntf    on518400   3.345   1.882   6.669  0.4176 -0.5755  0.4014
 3423ntf    on518401   3.413   1.551   6.849 -0.4819  0.2546 -0.7347
 3423ntf    on518402   3.599   1.690   6.751  0.1113 -0.3365 -0.2774
 3423ntf    fn418403   3.576   1.460   6.537  0.0057  0.3540  0.0620
 3423ntf    fn418404   3.680   1.414   6.720  0.4464  0.7321  0.1915
 3423ntf    fn418405   3.497   1.334   6.689  0.2936  0.1456  0.2801
 3424ntf    cn118406   0.918   3.946   3.253  0.0770 -0.0554  0.0640
 3424ntf    sn218407   0.739   3.978   3.250  0.0770 -0.0805 -0.3698
 3424ntf    nn318408   0.690   3.829   3.240 -0.0151 -0.0948  0.2311
 3424ntf    sn218409   0.555   3.770   3.294 -0.0356 -0.3235 -0.0659
 3424ntf    cn118410   0.632   3.638   3.393 -0.0561  0.0282  0.4259
 3424ntf    fn418411   0.994   4.054   3.262 -0.2355  0.1355  0.4308
 3424ntf    fn418412   0.943   3.869   3.358 -0.2019 -0.1951  0.0298
 3424ntf    fn418413   0.948   3.881   3.142 -0.2430 -0.0234 -0.0435
 3424ntf    on518414   0.719   4.041   3.379 -0.4282  0.2416 -0.6014
 3424ntf    on518415   0.718   4.058   3.132  0.5619  0.0454 -0.3743
 3424ntf    on518416   0.474   3.699   3.199  0.3581 -0.1477 -0.5319
 3424ntf    on518417   0.484   3.855   3.388 -0.1337 -0.3463 -0.1191
 3424ntf    fn418418   0.698   3.679   3.500  0.3702  0.2573  0.0835
 3424ntf    fn418419   0.545   3.557   3.449 -0.1728  0.0779  0.3171
 3424ntf    fn418420   0.710   3.561   3.319  0.0041  0.4223  0.0755
 3425ntf    cn118421   2.934   1.066   3.974 -0.0300  0.2488 -0.0344
 3425ntf    sn218422   2.912   1.148   4.135 -0.0938  0.2097 -0.0233
 3425ntf    nn318423   2.971   1.286   4.090 -0.4901  0.2077 -0.5663
 3425ntf    sn218424   3.001   1.412   4.180  0.0106 -0.0574 -0.3569
 3425ntf    cn118425   2.918   1.546   4.090  0.0864  0.1478 -0.1207
 3425ntf    fn418426   2.904   0.937   3.973  0.0297  0.2317  0.3113
 3425ntf    fn418427   2.862   1.125   3.880 -0.0690  0.2552 -0.0008
 3425ntf    fn418428   3.059   1.078   3.932  0.0500  0.0398  0.1396
 3425ntf    on518429   2.769   1.157   4.150 -0.1415 -0.0780 -0.2873
 3425ntf    on518430   2.995   1.064   4.217  0.2818  0.2210 -0.3912
 3425ntf    on518431   3.142   1.442   4.182 -0.0584  0.2800 -0.4673
 3425ntf    on518432   2.933   1.414   4.307 -0.0522  0.3947 -0.3948
 3425ntf    fn418433   2.953   1.662   4.144  0.4725 -0.1984  0.3807
 3425ntf    fn418434   2.948   1.555   3.961  0.2502  0.3036 -0.0724
 3425ntf    fn418435   2.787   1.536   4.098  0.0937 -0.1223 -0.3438
 3426ntf    cn118436   5.901   4.835   4.289 -0.1490  0.1122 -0.2554
 3426ntf    sn218437   6.080   4.805   4.300 -0.1502  0.2582  0.1793
 3426ntf    nn318438   6.138   4.909   4.198 -0.2109 -0.4067 -0.5406
 3426ntf    sn218439   6.199   5.050   4.231 -0.1957 -0.4650 -0.3210
 3426ntf    cn118440   6.141   5.145   4.088 -0.0607  0.0242 -0.0546
 3426ntf    fn418441   5.835   4.762   4.377  0.0519  0.0014 -0.1950
 3426ntf    fn418442   5.872   4.961   4.321 -0.8567  0.0539 -0.6453
 3426ntf    fn418443   5.854   4.807   4.169  0.0042  0.3013 -0.3605
 3426ntf    on518444   6.108   4.822   4.441  0.1401 -0.2652  0.1860
 3426ntf    on518445   6.089   4.672   4.246 -0.4336  0.3531 -0.1011
 3426ntf    on518446   6.342   5.044   4.218 -0.1266 -0.8545  0.5387
 3426ntf    on518447   6.137   5.126   4.337  0.6839 -0.1207 -0.0462
 3426ntf    fn418448   6.193   5.095   3.977  0.2458 -0.4855  0.3152
 3426ntf    fn418449   6.010   5.138   4.071 -0.0340 -0.1816 -0.1796
 3426ntf    fn418450   6.172   5.273   4.098 -0.6247  0.1335  0.3764
 3427ntf    cn118451   4.994   3.495   0.807 -0.1270 -0.0271 -0.0983
 3427ntf    sn218452   5.003   3.471   0.987  0.4627 -0.2470 -0.1537
 3427ntf    nn318453   5.082   3.336   0.999 -0.0850 -0.5479  0.0932
 3427ntf    sn218454   5.237   3.315   1.000  0.0153  0.1737  0.1523
 3427ntf    cn118455   5.265   3.289   1.178  0.2190 -0.0122  0.0943
 3427ntf    fn418456   4.922   3.603   0.781  0.2239  0.2762  0.1736
 3427ntf    fn418457   5.111   3.524   0.752 -0.0073  0.1019  0.2145
 3427ntf    fn418458   4.950   3.391   0.739 -0.2653  0.0755 -0.1629
 3427ntf    on518459   5.051   3.591   1.051 -0.4908 -0.3376  0.7559
 3427ntf    on518460   4.864   3.444   1.015  0.2716  0.7619 -0.0919
 3427ntf    on518461   5.320   3.430   0.975  0.8101 -0.3698  0.2406
 3427ntf    on518462   5.278   3.196   0.929 -0.5308  0.1701 -0.1599
 3427ntf    fn418463   5.208   3.175   1.216  0.5125 -0.2475 -0.1629
 3427ntf    fn418464   5.392   3.264   1.208  0.0981 -0.2632  0.4126
 3427ntf    fn418465   5.218   3.385   1.256  0.0167 -0.1880  0.1906
 3428ntf    cn118466   1.834   6.726   0.708 -0.0394 -0.4506  0.0099
 3428ntf    sn218467   1.863   6.575   0.611  0.0954 -0.0700 -0.5432
 3428ntf    nn318468   2.000   6.605   0.540  0.4642 -0.0211  0.1781
 3428ntf    sn218469   2.035   6.667   0.400 -0.2109  0.1274  0.0735
 3428ntf    cn118470   2.145   6.798   0.461 -0.1718  0.0659  0.1329
 3428ntf    fn418471   1.832   6.833   0.631 -0.6539 -0.5920 -0.1742
 3428ntf    fn418472   1.714   6.729   0.763 -0.0279 -0.0500  0.0120
 3428ntf    fn418473   1.921   6.739   0.807  0.0410 -0.9302  0.0029
 3428ntf    on518474   1.887   6.477   0.714  0.7061  0.2593 -0.3667
 3428ntf    on518475   1.746   6.561   0.528 -0.3861 -0.2754  0.1690
 3428ntf    on518476   1.928   6.732   0.328  0.2683  0.6753 -0.1517
 3428ntf    on518477   2.124   6.589   0.318  0.0652  0.4892  0.0276
 3428ntf    fn418478   2.254   6.753   0.520 -0.1766 -0.1293 -0.0052
 3428ntf    fn418479   2.186   6.875   0.362  0.0183 -0.0819  0.0967
 3428ntf    fn418480   2.088   6.875   0.552  0.1276 -0.2639  0.6083
 3429ntf    cn118481   2.183   5.900   5.173 -0.1435 -0.0976 -0.1626
 3429ntf    sn218482   2.039   5.798   5.218 -0.0355 -0.1539  0.0549
 3429ntf    nn318483   1.932   5.913   5.211  0.2336  0.0903 -0.0582
 3429ntf    sn218484   1.788   5.916   5.150  0.3406 -0.1828 -0.3257
 3429ntf    cn118485   1.813   6.012   4.998  0.0559  0.0206 -0.2467
 3429ntf    fn418486   2.204   5.993   5.265 -0.1675 -0.5848  0.3402
 3429ntf    fn418487   2.293   5.827   5.177  0.3237  0.6037 -0.0125
 3429ntf    fn418488   2.177   5.962   5.056  0.3371  0.3383  0.0369
 3429ntf    on518489   2.029   5.695   5.118 -0.3765 -0.1544  0.0883
 3429ntf    on518490   2.079   5.764   5.352 -0.1927 -0.0058  0.1401
 3429ntf    on518491   1.696   5.999   5.225  0.1814 -0.4051 -0.2732
 3429ntf    on518492   1.732   5.792   5.101 -0.1380 -0.1717  0.1681
 3429ntf    fn418493   1.901   5.960   4.913  0.4775  0.4515 -0.0814
 3429ntf    fn418494   1.705   6.029   4.924  0.0730 -0.1992 -0.3222
 3429ntf    fn418495   1.864   6.130   5.028  0.7009 -0.1731 -0.5419
 3430ntf    cn118496   5.100   4.142   6.943  0.9417  0.0665 -0.2622
 3430ntf    sn218497   5.161   4.049   7.087  0.1013  0.1671  0.1598
 3430ntf    nn318498   5.316   4.069   7.080  0.1014  0.0913 -0.0519
 3430ntf    sn218499   5.430   3.994   7.002  0.0808  0.1406 -0.1292
 3430ntf    cn118500   5.488   3.879   7.129 -0.2021  0.1200 -0.0183
 3430ntf    fn418501   5.165   4.105   6.834  0.3176 -0.1806 -0.5579
 3430ntf    fn418502   4.970   4.133   6.920  0.7867  0.4685  0.4181
 3430ntf    fn418503   5.119   4.271   6.962 -0.0243  0.2099 -0.2275
 3430ntf    on518504   5.095   4.128   7.188  0.2611  0.5450 -0.0329
 3430ntf    on518505   5.100   3.921   7.057  0.4447  0.0570 -0.0650
 3430ntf    on518506   5.550   4.067   6.970  0.0049  0.1531 -0.3875
 3430ntf    on518507   5.372   3.912   6.898 -0.1092 -0.0891  0.1577
 3430ntf    fn418508   5.550   3.930   7.234  0.2839  0.2072 -0.3449
 3430ntf    fn418509   5.397   3.793   7.171 -0.0801 -0.2165 -0.4326
 3430ntf    fn418510   5.582   3.806   7.071  0.2649  0.1846  0.6485
 3431ntf    cn118511   6.270   6.964   2.546  0.1376 -0.1981  0.3264
 3431ntf    sn218512   6.223   6.998   2.374  0.3773 -0.6480  0.1702
 3431ntf    nn318513   6.297   7.136   2.361 -0.0493 -0.4845 -0.5982
 3431ntf    sn218514   6.403   7.179   2.253  0.3790 -0.3763 -0.1406
 3431ntf    cn118515   6.295   7.197   2.108  0.0943 -0.1920  0.0930
 3431ntf    fn418516   6.251   7.075   2.616 -0.5633 -0.2369  0.2123
 3431ntf    fn418517   6.182   6.878   2.596  0.3149 -0.2328  0.5816
 3431ntf    fn418518   6.391   6.913   2.561  0.2306 -0.0690  0.0116
 3431ntf    on518519   6.271   6.878   2.310  0.8333 -0.3075 -0.1315
 3431ntf    on518520   6.079   7.013   2.369  0.4451 -0.0069 -0.0964
 3431ntf    on518521   6.489   7.074   2.205  1.0399  0.0446  0.1080
 3431ntf    on518522   6.456   7.311   2.275 -0.2322 -0.2257  0.4744
 3431ntf    fn418523   6.354   7.263   2.009 -0.0284 -0.1838  0.0241
 3431ntf    fn418524   6.259   7.079   2.059 -0.0300 -0.1832  0.1612
 3431ntf    fn418525   6.185   7.263   2.142  0.0578 -0.2315  0.0532
 3432ntf    cn118526   4.166   0.827   1.100 -0.3599  0.5034 -0.3543
 3432ntf    sn218527   4.057   0.685   1.067 -0.0940  0.2606 -0.1923
 3432ntf    nn318528   4.128   0.621   0.941 -0.6329 -0.1378 -0.2954
 3432ntf    sn218529   4.152   0.470   0.907  0.2861 -0.0498 -0.0499
 3432ntf    cn118530   4.332   0.449   0.926  0.2737  0.2011  0.3600
 3432ntf    fn418531   4.288   0.789   1.135 -0.7160 -0.1386  0.2201
 3432ntf    fn418532   4.169   0.917   1.003 -0.3842  0.1165 -0.7204
 3432ntf    fn418533   4.119   0.882   1.210  0.1282 -0.1417  0.1839
 3432ntf    on518534   4.071   0.601   1.183  0.3515  0.4682 -0.0943
 3432ntf    on518535   3.932   0.747   1.034 -0.1068  0.1084 -0.4347
 3432ntf    on518536   4.134   0.438   0.768  0.7519 -0.1385 -0.0906
 3432ntf    on518537   4.094   0.374   0.998  0.3498 -0.3859 -0.3593
 3432ntf    fn418538   4.379   0.479   1.046 -0.0778  0.6842  0.3789
 3432ntf    fn418539   4.371   0.325   0.902  0.0851  0.2750 -0.3291
 3432ntf    fn418540   4.398   0.523   0.839  0.1006 -0.0450  0.0184
 3433ntf    cn118541   2.198   5.219   5.733  0.1041  0.0743  0.2859
 3433ntf    sn218542   2.064   5.274   5.843 -0.2277 -0.0623 -0.0486
 3433ntf    nn318543   1.960   5.164   5.804  0.3462 -0.6634  0.1130
 3433ntf    sn218544   1.811   5.152   5.853  0.2719 -0.2530 -0.0140
 3433ntf    cn118545   1.709   5.206   5.712 -0.0745 -0.2545  0.2365
 3433ntf    fn418546   2.224   5.091   5.755 -0.0020  0.0442  0.2386
 3433ntf    fn418547   2.164   5.226   5.606  0.5355 -0.0437  0.1653
 3433ntf    fn418548   2.309   5.288   5.754 -0.0521  0.4623 -0.1534
 3433ntf    on518549   2.119   5.269   5.976 -0.5070  0.1894  0.0795
 3433ntf    on518550   2.033   5.408   5.799 -0.5121 -0.2693 -0.4894
 3433ntf    on518551   1.770   5.235   5.963 -0.0776  0.4057 -0.6299
 3433ntf    on518552   1.775   5.012   5.856 -0.9892  0.0410 -0.4635
 3433ntf    fn418553   1.577   5.198   5.728 -0.0937  0.1968  0.3321
 3433ntf    fn418554   1.736   5.326   5.664 -0.5771  0.1043  0.8379
 3433ntf    fn418555   1.736   5.128   5.609 -0.2935 -0.2391  0.1651
 3434ntf    cn118556   5.405   1.670   1.525  0.0253 -0.2150 -0.2814
 3434ntf    sn218557   5.562   1.595   1.472  0.1694 -0.1745  0.0872
 3434ntf    nn318558   5.667   1.704   1.515  0.2343 -0.3157  0.2930
 3434ntf    sn218559   5.767   1.786   1.427 -0.0189 -0.1183  0.1863
 3434ntf    cn118560   5.686   1.949   1.430 -0.1136 -0.1526 -0.3647
 3434ntf    fn418561   5.299   1.610   1.474 -0.3637 -0.1986  0.4912
 3434ntf    fn418562   5.385   1.662   1.655 -0.0280  0.2918 -0.2567
 3434ntf    fn418563   5.402   1.797   1.487  0.5384 -0.1498 -0.1111
 3434ntf    on518564   5.579   1.477   1.554  0.1462 -0.1232  0.1660
 3434ntf    on518565   5.549   1.580   1.330  0.8163  0.4585 -0.0449
 3434ntf    on518566   5.775   1.755   1.286  0.5388  0.9223 -0.0284
 3434ntf    on518567   5.892   1.813   1.494  0.2176  0.2261 -0.3814
 3434ntf    fn418568   5.679   1.996   1.553 -0.1771  0.3342 -0.5557
 3434ntf    fn418569   5.751   2.038   1.358 -0.1668  0.1817  0.0024
 3434ntf    fn418570   5.564   1.945   1.379  0.0137 -0.6512 -0.6407
 3435ntf    cn118571   3.830   3.990   3.381 -0.1023  0.2074 -0.0638
 3435ntf    sn218572   3.895   3.984   3.550 -0.0998 -0.0370 -0.0736
 3435ntf    nn318573   3.939   3.833   3.556 -0.3096 -0.0852  0.2915
 3435ntf    sn218574   3.996   3.742   3.669 -0.1649  0.0287  0.3103
 3435ntf    cn118575   4.171   3.747   3.619 -0.2399  0.4156  0.0892
 3435ntf    fn418576   3.924   3.965   3.291 -0.3512 -0.0072 -0.2667
 3435ntf    fn418577   3.739   3.895   3.368  0.1879 -0.0629 -0.1171
 3435ntf    fn418578   3.770   4.100   3.337  0.1451  0.4600  0.2235
 3435ntf    on518579   4.001   4.082   3.543  0.2335 -0.3896  0.0100
 3435ntf    on518580   3.780   4.016   3.630 -0.1137 -0.0198 -0.1012
 3435ntf    on518581   3.958   3.603   3.656  0.1252 -0.0663  0.4519
 3435ntf    on518582   3.997   3.808   3.797 -0.2620 -0.1127  0.3840
 3435ntf    fn418583   4.216   3.871   3.630  0.3544  0.2000  0.1327
 3435ntf    fn418584   4.248   3.667   3.690 -0.2761  0.0402 -0.2916
 3435ntf    fn418585   4.183   3.714   3.492 -0.4207  0.1455  0.1407
 3436ntf    cn118586   2.721   7.043   6.854  0.3843 -0.0703 -0.2290
 3436ntf    sn218587   2.564   6.950   6.846  0.3992 -0.1126 -0.0214
 3436ntf    nn318588   2.522   6.957   6.997 -0.0763 -0.9426 -0.1128
 3436ntf    sn218589   2.396   7.018   7.068  0.1766 -0.2172 -0.2812
 3436ntf    cn118590   2.293   6.868   7.062 -0.0678 -0.0633 -0.0127
 3436ntf    fn418591   2.769   7.078   6.736 -0.1749  0.0946 -0.4119
 3436ntf    fn418592   2.721   7.161   6.913  0.5227 -0.2417  0.1147
 3436ntf    fn418593   2.818   6.978   6.916  0.2394 -0.1733 -0.1091
 3436ntf    on518594   2.490   7.024   6.747  0.1274  0.0325  0.2887
 3436ntf    on518595   2.613   6.818   6.815  0.0848 -0.3957  0.6754
 3436ntf    on518596   2.329   7.120   6.991  0.6172  0.1217 -0.2215
 3436ntf    on518597   2.414   7.032   7.211 -0.3135 -0.1621 -0.2236
 3436ntf    fn418598   2.206   6.859   7.161 -0.2836  0.0098 -0.1947
 3436ntf    fn418599   2.224   6.868   6.949  0.2501 -0.0616 -0.2110
 3436ntf    fn418600   2.369   6.760   7.074 -0.0644 -0.0468  0.1056
 3437ntf    cn118601   2.803   1.640   5.893  0.1654 -0.4868  0.6197
 3437ntf    sn218602   2.746   1.813   5.895  0.1256 -0.4959  0.2829
 3437ntf    nn318603   2.594   1.792   5.860  0.1337 -0.3190  0.1425
 3437ntf    sn218604   2.464   1.803   5.946  0.2095 -0.0975  0.2286
 3437ntf    cn118605   2.349   1.719   5.833  0.3899 -0.1845  0.1098
 3437ntf    fn418606   2.934   1.624   5.900  0.2607 -0.0946 -0.1584
 3437ntf    fn418607   2.746   1.572   5.991 -0.7134 -0.0881  0.4011
 3437ntf    fn418608   2.751   1.575   5.791  0.1086  0.4789  0.0171
 3437ntf    on518609   2.776   1.861   6.028 -0.3227 -0.0658  0.2321
 3437ntf    on518610   2.818   1.873   5.785  0.2552 -0.2278  0.5129
 3437ntf    on518611   2.411   1.937   5.957 -0.2118 -0.2508  0.1199
 3437ntf    on518612   2.465   1.723   6.066  0.2378 -0.6518 -0.1409
 3437ntf    fn418613   2.225   1.703   5.878  0.1471  0.7691 -0.2035
 3437ntf    fn418614   2.328   1.789   5.722 -0.3545  0.2945  0.5407
 3437ntf    fn418615   2.391   1.598   5.802  0.3630 -0.0714 -0.3827
 3438ntf    cn118616   6.993   3.222   1.774 -0.2207 -0.2188  0.0581
 3438ntf    sn218617   7.170   3.184   1.779 -0.0919  0.3605 -0.0862
 3438ntf    nn318618   7.185   3.259   1.916 -0.7685  0.4938 -0.0856
 3438ntf    sn218619   7.275   3.378   1.963 -0.0570 -0.0270 -0.1134
 3438ntf    cn118620   7.169   3.526   1.957 -0.0148 -0.0012 -0.2334
 3438ntf    fn418621   6.957   3.349   1.782 -0.2522 -0.2146 -0.1377
 3438ntf    fn418622   6.935   3.179   1.663  0.3876 -0.3324 -0.2154
 3438ntf    fn418623   6.930   3.155   1.870  0.0255 -0.6763 -0.0981
 3438ntf    on518624   7.171   3.040   1.778 -0.5617  0.3521  0.3829
 3438ntf    on518625   7.219   3.256   1.664  0.7041 -0.8215 -0.5109
 3438ntf    on518626   7.390   3.402   1.879  0.4547 -0.0177  0.5797
 3438ntf    on518627   7.310   3.373   2.103 -0.7789  0.8843  0.1082
 3438ntf    fn418628   7.236   3.638   1.974 -0.1084  0.0427 -0.1493
 3438ntf    fn418629   7.108   3.529   1.840 -0.5016  0.2254  0.0237
 3438ntf    fn418630   7.071   3.523   2.046  0.1238  0.2835 -0.0716
 3439ntf    cn118631   6.023   3.068   0.824  0.2588 -0.0003  0.1296
 3439ntf    sn218632   6.187   3.105   0.892  0.4029 -0.3012 -0.0528
 3439ntf    nn318633   6.144   3.191   1.016 -0.1659 -0.4453 -0.1508
 3439ntf    sn218634   6.158   3.145   1.166 -0.2920  0.0890  0.0269
 3439ntf    cn118635   6.303   3.238   1.223 -0.1095 -0.2194  0.0644
 3439ntf    fn418636   5.968   3.180   0.780 -0.2752 -0.3437 -0.0850
 3439ntf    fn418637   6.016   2.976   0.729 -0.7028 -0.0656  0.2504
 3439ntf    fn418638   5.939   3.030   0.919  0.1562 -0.1220 -0.0099
 3439ntf    on518639   6.244   2.977   0.927  0.5170 -0.2341  0.0085
 3439ntf    on518640   6.257   3.182   0.793  0.4514  0.0028  0.2170
 3439ntf    on518641   6.196   3.011   1.202 -0.0569  0.1396 -0.0273
 3439ntf    on518642   6.048   3.199   1.242 -0.0010  0.8227 -0.0682
 3439ntf    fn418643   6.306   3.247   1.355  0.1861  0.1659  0.0340
 3439ntf    fn418644   6.419   3.184   1.187  0.0190  0.0518  0.0723
 3439ntf    fn418645   6.313   3.362   1.179 -0.2218 -0.3367 -0.2957
 3440ntf    cn118646   6.973   5.408   4.395  0.0267  0.2088  0.0788
 3440ntf    sn218647   6.938   5.242   4.460  0.1700  0.1958  0.1231
 3440ntf    nn318648   6.916   5.290   4.609 -0.5146  0.0652  0.0684
 3440ntf    sn218649   6.962   5.228   4.746  0.1904  0.2094 -0.0966
 3440ntf    cn118650   6.807   5.160   4.814  0.2505  0.0309 -0.1380
 3440ntf    fn418651   6.896   5.501   4.448 -0.0895  0.1747 -0.0292
 3440ntf    fn418652   7.094   5.440   4.440  0.1301  0.4323 -0.3546
 3440ntf    fn418653   6.978   5.418   4.263 -0.0133  0.0028  0.0619
 3440ntf    on518654   6.817   5.204   4.392  0.5920 -0.7596 -0.1075
 3440ntf    on518655   7.058   5.169   4.430 -0.0562 -0.0733 -0.1250
 3440ntf    on518656   7.006   5.333   4.835  0.1097  0.0929  0.0806
 3440ntf    on518657   7.053   5.117   4.735  0.3277  0.2746  0.3606
 3440ntf    fn418658   6.827   5.085   4.921 -0.1888 -0.2014 -0.2172
 3440ntf    fn418659   6.714   5.244   4.856  0.4837 -0.0572  0.5729
 3440ntf    fn418660   6.749   5.080   4.726 -0.1953  0.2179 -0.0161
 3441ntf    cn118661   6.501   2.022   6.333  0.5302  0.1782  0.0157
 3441ntf    sn218662   6.623   2.064   6.205  0.2746 -0.0407 -0.3011
 3441ntf    nn318663   6.746   2.102   6.294 -0.1421 -0.2118  0.3479
 3441ntf    sn218664   6.773   2.235   6.373 -0.0858  0.0035 -0.0315
 3441ntf    cn118665   6.954   2.233   6.384 -0.0944 -0.0633  0.1005
 3441ntf    fn418666   6.422   2.125   6.358  0.6332  0.2251  0.1452
 3441ntf    fn418667   6.424   1.919   6.300  0.5679  0.1367  0.0589
 3441ntf    fn418668   6.561   1.999   6.448  0.1464  0.3860  0.2564
 3441ntf    on518669   6.640   1.936   6.139 -0.0855 -0.3826  0.2649
 3441ntf    on518670   6.560   2.166   6.124 -0.5745 -0.4673 -0.1899
 3441ntf    on518671   6.730   2.234   6.511  0.2060  0.0209  0.0598
 3441ntf    on518672   6.738   2.354   6.298 -0.7976  0.0838  0.4074
 3441ntf    fn418673   6.990   2.200   6.508  0.6189  0.4498  0.0360
 3441ntf    fn418674   7.001   2.145   6.297  0.3649  0.2592  0.0213
 3441ntf    fn418675   7.003   2.354   6.362 -0.2957  0.0805  0.4203
 3442ntf    cn118676   6.086   0.706   5.661 -0.6757  0.0057 -0.1013
 3442ntf    sn218677   6.002   0.613   5.792  0.0487 -0.1183  0.2811
 3442ntf    nn318678   6.070   0.676   5.920 -0.0099  0.6103 -0.0391
 3442ntf    sn218679   6.207   0.627   5.979 -0.3270 -0.1557  0.0774
 3442ntf    cn118680   6.158   0.649   6.152  0.2169  0.2371  0.1826
 3442ntf    fn418681   6.079   0.838   5.670  0.3209  0.0309  0.4762
 3442ntf    fn418682   6.217   0.684   5.669 -0.6971 -0.2139 -0.3234
 3442ntf    fn418683   6.055   0.667   5.538  0.0618 -0.6721 -0.0851
 3442ntf    on518684   5.865   0.656   5.778  0.2071  0.3503  0.1458
 3442ntf    on518685   6.040   0.478   5.761  0.6757  0.0826  0.1598
 3442ntf    on518686   6.311   0.725   5.958 -0.6559  0.1845  0.0240
 3442ntf    on518687   6.244   0.488   5.973  0.6165  0.0858  0.1023
 3442ntf    fn418688   6.063   0.568   6.195  0.1619  0.3622  0.2990
 3442ntf    fn418689   6.263   0.627   6.229  0.1360 -0.1303  0.1863
 3442ntf    fn418690   6.122   0.776   6.164 -0.0164  0.1670  0.2125
 3443ntf    cn118691   3.099   3.660   6.782  0.0966 -0.0477 -0.1550
 3443ntf    sn218692   3.170   3.798   6.687 -0.2631  0.2744  0.0439
 3443ntf    nn318693   3.032   3.870   6.667 -0.6556 -0.3375  0.5136
 3443ntf    sn218694   2.976   3.954   6.547  0.4331 -0.0200  0.2221
 3443ntf    cn118695   2.834   3.852   6.498  0.4752  0.0019  0.0510
 3443ntf    fn418696   3.011   3.597   6.707  0.0846 -0.1629 -0.0449
 3443ntf    fn418697   3.190   3.571   6.819 -0.0040 -0.1283 -0.1019
 3443ntf    fn418698   3.036   3.687   6.895  0.3409  0.3283 -0.1064
 3443ntf    on518699   3.252   3.861   6.788  0.0155 -0.5472  0.3339
 3443ntf    on518700   3.229   3.732   6.573 -0.0232  0.3475  0.1252
 3443ntf    on518701   3.055   3.961   6.427  0.3483 -0.1739  0.1562
 3443ntf    on518702   2.924   4.083   6.584  0.0587 -0.1477  0.1427
 3443ntf    fn418703   2.875   3.755   6.418 -0.8965 -0.7144  0.1845
 3443ntf    fn418704   2.781   3.799   6.607 -0.1435 -0.1694 -0.3266
 3443ntf    fn418705   2.741   3.926   6.440  0.1945 -0.1825  0.2615
 3444ntf    cn118706   5.009   5.486   0.483 -0.1156  0.2027 -0.5081
 3444ntf    sn218707   5.125   5.577   0.588 -0.3458  0.1115 -0.1738
 3444ntf    nn318708   5.214   5.632   0.471  0.1217 -0.0429  0.1057
 3444ntf    sn218709   5.259   5.779   0.443 -0.4136  0.1553  0.2714
 3444ntf    cn118710   5.111   5.839   0.356 -0.0560  0.3187 -0.2298
 3444ntf    fn418711   4.972   5.556   0.377 -0.4635  0.0522 -0.4880
 3444ntf    fn418712   5.068   5.376   0.440  0.3958  0.1740  0.2584
 3444ntf    fn418713   4.894   5.454   0.540 -0.0303 -0.1630 -0.5371
 3444ntf    on518714   5.054   5.675   0.666 -0.1119  0.5246 -0.4786
 3444ntf    on518715   5.198   5.477   0.663 -0.1555  0.4310  0.0719
 3444ntf    on518716   5.363   5.786   0.344 -0.5135 -0.5402  0.1189
 3444ntf    on518717   5.274   5.871   0.554  0.1754  0.7058 -0.2554
 3444ntf    fn418718   5.138   5.950   0.290 -0.0757  0.1899 -0.4542
 3444ntf    fn418719   5.065   5.750   0.270  0.3507  0.1028 -0.2307
 3444ntf    fn418720   5.012   5.862   0.440 -0.3025  0.6502 -0.6103
 3445ntf    cn118721   5.655   3.805   0.618 -0.3959  0.1386  0.2089
 3445ntf    sn218722   5.566   3.826   0.460  0.0880  0.2683 -0.0499
 3445ntf    nn318723   5.420   3.812   0.517 -0.0792 -0.3724 -0.6335
 3445ntf    sn218724   5.285   3.880   0.475 -0.0071  0.1230 -0.0656
 3445ntf    cn118725   5.192   3.754   0.384  0.1926  0.0201 -0.1270
 3445ntf    fn418726   5.655   3.685   0.673  0.4856 -0.0829 -0.2535
 3445ntf    fn418727   5.785   3.822   0.602 -0.2996 -0.5402  0.2829
 3445ntf    fn418728   5.624   3.896   0.709  0.7228  0.1050  0.6426
 3445ntf    on518729   5.606   3.958   0.418  0.7673  0.0304 -0.1605
 3445ntf    on518730   5.613   3.718   0.378 -0.0575 -0.0692  0.3060
 3445ntf    on518731   5.302   3.983   0.375  0.1943  0.3551  0.2047
 3445ntf    on518732   5.215   3.926   0.593 -0.1417 -0.3409  0.0351
 3445ntf    fn418733   5.129   3.670   0.465  0.2369  0.1601  0.0508
 3445ntf    fn418734   5.094   3.805   0.312  0.0220 -0.3683 -0.1742
 3445ntf    fn418735   5.262   3.679   0.299  0.2792 -0.5541  0.4397
 3446ntf    cn118736   2.604   5.150   2.174 -0.3080  0.0219  0.1676
 3446ntf    sn218737   2.590   5.245   2.328 -0.1061  0.2445  0.0490
 3446ntf    nn318738   2.737   5.235   2.384 -0.1933 -0.3470  0.1813
 3446ntf    sn218739   2.775   5.142   2.504 -0.0849  0.0842  0.4838
 3446ntf    cn118740   2.949   5.193   2.517  0.0965 -0.3389 -0.2315
 3446ntf    fn418741   2.504   5.160   2.088 -0.1398  0.2007 -0.0061
 3446ntf    fn418742   2.709   5.205   2.115 -0.3483  0.4448  0.4924
 3446ntf    fn418743   2.637   5.022   2.183  0.4707  0.1875 -0.2827
 3446ntf    on518744   2.559   5.379   2.288 -0.2090  0.1796 -0.0889
 3446ntf    on518745   2.490   5.175   2.405  0.1370  0.1735  0.3014
 3446ntf    on518746   2.784   5.002   2.468 -0.4692  0.0137  0.6518
 3446ntf    on518747   2.724   5.180   2.634 -0.0129  0.6669  0.3402
 3446ntf    fn418748   3.025   5.113   2.590  0.0019 -0.1254  0.1064
 3446ntf    fn418749   3.004   5.198   2.397  0.3468 -0.1718 -0.1127
 3446ntf    fn418750   2.948   5.312   2.576 -0.2435 -0.1550 -0.6059
 3447ntf    cn118751   6.672   0.549   4.563  0.1951 -0.2015 -0.1708
 3447ntf    sn218752   6.536   0.440   4.513  0.0728  0.0708 -0.4310
 3447ntf    nn318753   6.511   0.368   4.650  0.5405  0.4845 -0.1230
 3447ntf    sn218754   6.561   0.235   4.718  0.0918  0.1698 -0.3950
 3447ntf    cn118755   6.410   0.135   4.721  0.2305 -0.0262  0.0509
 3447ntf    fn418756   6.714   0.625   4.463 -0.1891  0.0339 -0.1522
 3447ntf    fn418757   6.645   0.633   4.661 -0.3412  0.2174 -0.6728
 3447ntf    fn418758   6.774   0.474   4.602  0.2700 -0.0521 -0.0772
 3447ntf    on518759   6.422   0.523   4.483 -0.1134  0.0137  0.1016
 3447ntf    on518760   6.587   0.361   4.403 -0.4601 -0.0130 -0.6205
 3447ntf    on518761   6.592   0.254   4.857  0.4219 -0.1746 -0.4195
 3447ntf    on518762   6.652   0.152   4.642 -0.0443 -0.6052  0.2767
 3447ntf    fn418763   6.313   0.210   4.770 -0.1046 -0.1893 -0.3617
 3447ntf    fn418764   6.368   0.093   4.603  0.2583  0.1402 -0.0189
 3447ntf    fn418765   6.412   0.029   4.801  0.0663 -0.0263  0.0553
 3448ntf    cn118766   1.944   6.986   5.644 -0.3327 -0.2890 -0.5276
 3448ntf    sn218767   1.860   6.902   5.782  0.2154  0.0971  0.0473
 3448ntf    nn318768   1.766   7.022   5.821  0.1103 -0.0924  0.3761
 3448ntf    sn218769   1.619   7.003   5.873 -0.0317  0.0892  0.0422
 3448ntf    cn118770   1.523   7.004   5.719 -0.3202  0.3404  0.2237
 3448ntf    fn418771   2.014   7.095   5.673 -0.4502 -0.3876  0.1518
 3448ntf    fn418772   2.026   6.909   5.575 -0.1351 -0.0628 -0.5452
 3448ntf    fn418773   1.857   7.022   5.551 -0.5756  0.3871 -0.0410
 3448ntf    on518774   1.801   6.792   5.710 -0.1997 -0.0425  0.5939
 3448ntf    on518775   1.971   6.869   5.867  0.2828 -0.3508 -0.2108
 3448ntf    on518776   1.571   7.119   5.944  0.4402  0.2469  0.1108
 3448ntf    on518777   1.599   6.879   5.943  0.0170  0.0325 -0.0449
 3448ntf    fn418778   1.564   6.901   5.647 -0.0475  0.2583  0.4990
 3448ntf    fn418779   1.391   6.992   5.728 -0.2925 -0.0770  0.0866
 3448ntf    fn418780   1.543   7.113   5.647 -0.2257 -0.1916 -0.5743
 3449ntf    cn118781   0.088   6.939   5.927 -0.2016  0.2766 -0.1127
 3449ntf    sn218782   0.000   6.780   5.937  0.0569  0.1426  0.0567
 3449ntf    nn318783   0.122   6.681   5.943 -0.3719 -0.4067 -0.2003
 3449ntf    sn218784   0.209   6.601   5.840  0.0903 -0.1661  0.0001
 3449ntf    cn118785   0.117   6.444   5.830 -0.1452 -0.0319  0.0501
 3449ntf    fn418786   0.173   6.943   6.028 -0.4500 -0.5177  0.1393
 3449ntf    fn418787   0.158   6.959   5.817  0.3447  0.1455  0.2059
 3449ntf    fn418788   0.009   7.044   5.941 -0.3025  0.1726  0.0963
 3449ntf    on518789  -0.074   6.794   6.060 -0.7099  0.3705 -0.4233
 3449ntf    on518790  -0.073   6.780   5.812  0.2470 -0.1848 -0.0563
 3449ntf    on518791   0.334   6.554   5.894  0.2020 -0.2566 -0.3386
 3449ntf    on518792   0.215   6.661   5.709  0.2788  0.0059  0.0862
 3449ntf    fn418793  -0.010   6.447   5.794  0.0901 -0.0429 -0.8066
 3449ntf    fn418794   0.179   6.356   5.753  0.2460  0.1669  0.1329
 3449ntf    fn418795   0.127   6.395   5.952 -0.2471 -0.3009 -0.0508
 3450ntf    cn118796   0.924   2.995   1.389  0.2753  0.1784  0.4271
 3450ntf    sn218797   0.747   2.959   1.376  0.3102  0.0183  0.3993
 3450ntf    nn318798   0.730   2.870   1.248 -0.1307  0.0555  0.4299
 3450ntf    sn218799   0.832   2.765   1.193 -0.2072  0.2292 -0.0533
 3450ntf    cn118800   0.721   2.626   1.157  0.4083 -0.3169  0.1318
 3450ntf    fn418801   0.948   3.101   1.465  0.5717  0.1234  0.4112
 3450ntf    fn418802   0.995   2.902   1.451  0.4447 -0.3398 -0.5276
 3450ntf    fn418803   0.982   3.008   1.270 -0.1312 -0.7545  0.1227
 3450ntf    on518804   0.715   2.883   1.495 -0.7767  0.0680  0.1461
 3450ntf    on518805   0.686   3.089   1.364 -0.1466 -0.2226  0.0823
 3450ntf    on518806   0.918   2.707   1.294 -0.3850 -0.2747 -0.1881
 3450ntf    on518807   0.894   2.798   1.067  0.0980 -0.0400  0.0234
 3450ntf    fn418808   0.669   2.571   1.265  0.1923  0.3492  0.3698
 3450ntf    fn418809   0.619   2.676   1.090  0.4916  0.0223  0.2577
 3450ntf    fn418810   0.775   2.529   1.084  0.3432 -0.3406  0.1154
 3451ntf    cn118811   3.836   4.306   6.782  0.1507  0.0433  0.0294
 3451ntf    sn218812   3.974   4.378   6.688  0.5017 -0.4043  0.1961
 3451ntf    nn318813   4.099   4.345   6.777  0.5817 -0.5104  0.0446
 3451ntf    sn218814   4.238   4.414   6.796  0.3961 -0.2095  0.3038
 3451ntf    cn118815   4.333   4.300   6.692  0.0289  0.1018 -0.3830
 3451ntf    fn418816   3.811   4.368   6.896 -0.6028 -0.0902 -0.0631
 3451ntf    fn418817   3.722   4.307   6.714  0.0609  1.0349  0.1853
 3451ntf    fn418818   3.851   4.179   6.815 -0.0104  0.0206  0.0149
 3451ntf    on518819   3.972   4.307   6.562  0.3457 -0.3644  0.1758
 3451ntf    on518820   3.938   4.518   6.679  0.2571 -0.5129 -0.6113
 3451ntf    on518821   4.299   4.389   6.925 -0.9514 -0.1728  0.9680
 3451ntf    on518822   4.268   4.544   6.740 -0.4132 -0.0997  0.1102
 3451ntf    fn418823   4.302   4.303   6.564 -0.0471 -0.2849 -0.3744
 3451ntf    fn418824   4.464   4.324   6.695  0.0380 -0.0095  0.4296
 3451ntf    fn418825   4.319   4.174   6.732 -0.1498  0.1127 -0.4158
 3452ntf    cn118826   3.592   4.142   1.174  0.1306 -0.2106  0.0628
 3452ntf    sn218827   3.670   4.295   1.116 -0.1412 -0.1686 -0.1891
 3452ntf    nn318828   3.739   4.245   0.984  0.0211 -0.3917 -0.0185
 3452ntf    sn218829   3.880   4.176   0.980  0.0364 -0.3585 -0.0568
 3452ntf    cn118830   3.972   4.332   0.986 -0.3264 -0.1609  0.3786
 3452ntf    fn418831   3.533   4.162   1.291  0.2723  0.0617  0.0878
 3452ntf    fn418832   3.502   4.089   1.094  0.1191 -0.2277  0.0870
 3452ntf    fn418833   3.685   4.050   1.197  0.4449  0.0006 -0.3685
 3452ntf    on518834   3.557   4.378   1.081  0.2913  0.5720  0.1486
 3452ntf    on518835   3.755   4.352   1.217 -0.4126 -0.0127 -0.0449
 3452ntf    on518836   3.926   4.120   0.855  0.6566 -0.5181  0.2386
 3452ntf    on518837   3.921   4.107   1.100 -0.1504  0.0723  0.2535
 3452ntf    fn418838   3.901   4.429   0.930 -0.1605 -0.3621 -0.1899
 3452ntf    fn418839   3.999   4.368   1.110  0.3041 -0.9967  0.4924
 3452ntf    fn418840   4.089   4.328   0.924 -0.6033  0.2988 -0.1930
 3453ntf    cn118841   5.917   1.513   6.317  0.0506  0.4369 -0.1118
 3453ntf    sn218842   5.767   1.460   6.405  0.0956  0.1924 -0.1813
 3453ntf    nn318843   5.819   1.472   6.552 -0.1632  0.2670 -0.0939
 3453ntf    sn218844   5.821   1.372   6.673 -0.6218  0.3639 -0.0055
 3453ntf    cn118845   5.966   1.282   6.611 -0.2820  0.5059  0.5788
 3453ntf    fn418846   5.919   1.644   6.300 -0.6479  0.4937  0.2128
 3453ntf    fn418847   6.022   1.480   6.390  0.0807  0.0456 -0.3325
 3453ntf    fn418848   5.924   1.460   6.196 -0.1455  0.3780 -0.0972
 3453ntf    on518849   5.662   1.551   6.365 -0.3962 -0.2624  0.0685
 3453ntf    on518850   5.748   1.323   6.366 -0.3830  0.0220  0.6385
 3453ntf    on518851   5.708   1.283   6.674 -0.2268 -0.1394  0.1218
 3453ntf    on518852   5.873   1.432   6.793  0.0622  0.2753 -0.2545
 3453ntf    fn418853   5.975   1.251   6.482  0.1864  0.1451  0.6939
 3453ntf    fn418854   6.077   1.352   6.630  0.0809  0.0244  0.2560
 3453ntf    fn418855   5.982   1.168   6.676 -0.1993  0.1694 -0.0285
 3454ntf    cn118856   5.840   3.067   1.586 -0.3824 -0.1223  0.1425
 3454ntf    sn218857   5.797   2.971   1.734  0.0078 -0.1075  0.2666
 3454ntf    nn318858   5.660   3.036   1.776 -0.2580 -0.4168 -0.1140
 3454ntf    sn218859   5.581   3.027   1.911 -0.3255  0.1380 -0.1160
 3454ntf    cn118860   5.450   2.909   1.868  0.0603 -0.3968  0.1772
 3454ntf    fn418861   5.848   3.198   1.604 -0.7498 -0.0788  0.0155
 3454ntf    fn418862   5.956   3.027   1.536 -0.3014 -0.0565  0.2778
 3454ntf    fn418863   5.751   3.049   1.489 -0.1896 -0.0732 -0.0447
 3454ntf    on518864   5.781   2.836   1.685  0.0370  0.0252 -0.1108
 3454ntf    on518865   5.907   2.995   1.824  0.1103  0.2026  0.0591
 3454ntf    on518866   5.502   3.146   1.933  0.4092  0.6012  0.0339
 3454ntf    on518867   5.651   2.970   2.023  0.2495  0.0153 -0.5340
 3454ntf    fn418868   5.506   2.803   1.811  0.1850 -0.1287 -0.1991
 3454ntf    fn418869   5.379   2.864   1.970  0.2624 -0.0243  0.4808
 3454ntf    fn418870   5.367   2.964   1.781  0.2688 -0.0164  0.2180
 3455ntf    cn118871   3.306   0.655   3.373  0.0525  0.2600  0.1891
 3455ntf    sn218872   3.223   0.618   3.530 -0.1421 -0.0560  0.0117
 3455ntf    nn318873   3.265   0.749   3.604  0.0698  0.1903 -0.5403
 3455ntf    sn218874   3.371   0.753   3.719 -0.0997  0.0879 -0.3796
 3455ntf    cn118875   3.270   0.724   3.867  0.4374 -0.0378 -0.0324
 3455ntf    fn418876   3.289   0.776   3.321  0.0696  0.1343 -0.1151
 3455ntf    fn418877   3.437   0.656   3.397  0.1959 -0.5268 -0.5056
 3455ntf    fn418878   3.297   0.558   3.283 -0.5192  0.1219  0.3961
 3455ntf    on518879   3.080   0.617   3.508 -0.1249 -0.0195 -0.1036
 3455ntf    on518880   3.280   0.494   3.577  0.0376  0.0129 -0.0267
 3455ntf    on518881   3.418   0.888   3.743 -0.2996  0.1750 -0.4758
 3455ntf    on518882   3.470   0.649   3.725 -0.0488  0.1579  0.0858
 3455ntf    fn418883   3.236   0.597   3.881 -0.4371  0.1674 -0.2168
 3455ntf    fn418884   3.324   0.756   3.983  0.1716 -0.2782  0.1601
 3455ntf    fn418885   3.157   0.793   3.873  0.5504  0.1986 -0.5656
 3456ntf    cn118886   0.816   0.351   3.071 -0.2671  0.2030 -0.0247
 3456ntf    sn218887   0.782   0.174   3.091  0.4701  0.0850  0.2385
 3456ntf    nn318888   0.844   0.130   3.228  0.6994  0.1240  0.1489
 3456ntf    sn218889   0.873  -0.015   3.280  0.3309  0.0067  0.0349
 3456ntf    cn118890   0.771  -0.021   3.430  0.3056  0.0754  0.0206
 3456ntf    fn418891   0.792   0.383   2.945  0.4184  0.0412 -0.2036
 3456ntf    fn418892   0.748   0.433   3.149 -0.3499  0.1012  0.0089
 3456ntf    fn418893   0.939   0.382   3.109 -0.0464 -0.0028 -0.5602
 3456ntf    on518894   0.639   0.160   3.078  0.4382  0.2952  0.3737
 3456ntf    on518895   0.858   0.125   2.978  0.2383 -0.1759  0.1923
 3456ntf    on518896   1.010  -0.022   3.325  0.5376  0.7148 -0.4701
 3456ntf    on518897   0.821  -0.123   3.199 -0.1011  0.7143 -0.6462
 3456ntf    fn418898   0.781  -0.136   3.494  0.1594 -0.0019 -0.0960
 3456ntf    fn418899   0.809   0.075   3.513  0.5172  0.2820 -0.3145
 3456ntf    fn418900   0.644   0.007   3.408  0.2328 -0.1200  0.1911
 3457ntf    cn118901   5.694   7.006   2.694 -0.3793  0.1394 -0.0951
 3457ntf    sn218902   5.728   7.073   2.859  0.0890  0.2079 -0.2173
 3457ntf    nn318903   5.847   6.977   2.894 -0.4517 -0.2690  0.3465
 3457ntf    sn218904   5.860   6.837   2.963  0.0580 -0.2651  0.2589
 3457ntf    cn118905   5.936   6.894   3.118  0.4929  0.5211 -0.2361
 3457ntf    fn418906   5.655   6.880   2.707  0.0438  0.0408  0.2061
 3457ntf    fn418907   5.602   7.082   2.635  0.1481  0.6907 -0.2122
 3457ntf    fn418908   5.800   7.007   2.616 -0.4177  0.6915 -0.1443
 3457ntf    on518909   5.764   7.208   2.825 -0.1223  0.2715 -0.1910
 3457ntf    on518910   5.605   7.059   2.934  0.4371 -0.0750  0.3088
 3457ntf    on518911   5.953   6.749   2.897  0.3599 -0.0980  0.4590
 3457ntf    on518912   5.737   6.774   3.005 -0.3546  0.1316 -0.3482
 3457ntf    fn418913   6.054   6.952   3.109  0.1863  1.1451 -0.2382
 3457ntf    fn418914   5.852   6.973   3.182  0.4536  0.2663  0.0317
 3457ntf    fn418915   5.951   6.789   3.197 -0.0159  0.0128 -0.8048
 3458ntf    cn118916   2.390   6.448   1.776  0.1039  0.1255 -0.0686
 3458ntf    sn218917   2.308   6.602   1.727 -0.1395  0.0547  0.1106
 3458ntf    nn318918   2.373   6.622   1.585 -0.3565  0.1354  0.0226
 3458ntf    sn218919   2.298   6.621   1.447  0.0758 -0.0979 -0.2137
 3458ntf    cn118920   2.216   6.783   1.441 -0.2422 -0.2514 -0.0656
 3458ntf    fn418921   2.319   6.381   1.865  0.5870 -0.0063  0.2239
 3458ntf    fn418922   2.408   6.361   1.678  0.0239  0.2433 -0.1877
 3458ntf    fn418923   2.507   6.472   1.833  0.0726  0.0762  0.0166
 3458ntf    on518924   2.167   6.572   1.729 -0.1963  0.3144  0.0632
 3458ntf    on518925   2.356   6.687   1.834  0.2349 -0.2717  0.2034
 3458ntf    on518926   2.198   6.518   1.436 -0.3094  0.2466  0.0180
 3458ntf    on518927   2.389   6.627   1.336  0.2484 -0.2767 -0.0816
 3458ntf    fn418928   2.150   6.813   1.330 -0.2728 -0.3371 -0.0709
 3458ntf    fn418929   2.132   6.799   1.542 -0.0126 -0.6025  0.1804
 3458ntf    fn418930   2.295   6.889   1.453 -0.0139 -0.3711 -0.4847
 3459ntf    cn118931   7.040   5.455   3.086  0.1350  0.1555 -0.2197
 3459ntf    sn218932   7.036   5.555   3.237  0.4599 -0.0469 -0.0770
 3459ntf    nn318933   7.063   5.444   3.345 -0.0627  0.0667  0.1726
 3459ntf    sn218934   6.960   5.376   3.443 -0.0263 -0.1483  0.0637
 3459ntf    cn118935   7.080   5.321   3.568 -0.2363 -0.2128  0.2357
 3459ntf    fn418936   6.997   5.513   2.975  0.4768  0.2485 -0.3052
 3459ntf    fn418937   7.166   5.431   3.054  0.0902  0.1408 -0.3841
 3459ntf    fn418938   6.977   5.339   3.089 -0.0197  0.2572  0.6620
 3459ntf    on518939   7.133   5.659   3.212 -0.2206  0.5985 -0.0522
 3459ntf    on518940   6.903   5.611   3.237  0.4188 -0.1095  1.1497
 3459ntf    on518941   6.893   5.260   3.389 -0.0527 -0.0799 -0.0499
 3459ntf    on518942   6.879   5.468   3.519  0.9227  0.7876 -0.0344
 3459ntf    fn418943   7.026   5.257   3.671 -0.2191 -0.2501  0.2215
 3459ntf    fn418944   7.155   5.223   3.522 -0.1837  0.0865 -0.3253
 3459ntf    fn418945   7.171   5.410   3.603  0.1592 -0.4159 -0.2615
 3460ntf    cn118946   0.935   2.636   6.193 -0.1131 -0.1939 -0.0690
 3460ntf    sn218947   1.011   2.778   6.278 -0.0434 -0.3305  0.0952
 3460ntf    nn318948   0.936   2.902   6.218  0.2268 -0.3148 -0.2122
 3460ntf    sn218949   0.895   3.031   6.298 -0.2841 -0.6111  0.0030
 3460ntf    cn118950   0.735   2.984   6.372 -0.2112 -0.3175  0.3509
 3460ntf    fn418951   0.988   2.519   6.226 -0.1125 -0.1399  0.1253
 3460ntf    fn418952   0.803   2.631   6.195 -0.1141 -0.2436 -0.2341
 3460ntf    fn418953   0.975   2.646   6.067 -0.5787 -0.4627 -0.2375
 3460ntf    on518954   0.987   2.755   6.419  0.2404 -0.2693  0.1539
 3460ntf    on518955   1.145   2.772   6.225  0.2080  0.4660  0.6166
 3460ntf    on518956   0.844   3.143   6.223  0.5295 -0.2714 -0.0489
 3460ntf    on518957   0.984   3.063   6.407 -0.2851 -0.2592 -0.1004
 3460ntf    fn418958   0.692   3.079   6.453 -0.3617 -0.1382  0.0654
 3460ntf    fn418959   0.638   2.986   6.282  0.0666  0.0138  0.0517
 3460ntf    fn418960   0.749   2.866   6.429  0.0987 -0.3835  0.1393
 3461ntf    cn118961   1.529   4.381   3.081 -0.2445 -0.2020 -0.1029
 3461ntf    sn218962   1.502   4.369   2.901  0.0064 -0.1285 -0.1469
 3461ntf    nn318963   1.393   4.255   2.905  0.0331 -0.1542 -0.1473
 3461ntf    sn218964   1.368   4.140   2.802 -0.0777 -0.1057 -0.1737
 3461ntf    cn118965   1.201   4.172   2.736 -0.1483 -0.0082  0.0540
 3461ntf    fn418966   1.627   4.463   3.115 -0.3951  0.2686 -0.7717
 3461ntf    fn418967   1.425   4.404   3.159 -0.2192  0.5982 -0.3014
 3461ntf    fn418968   1.574   4.263   3.120  0.0554 -0.0221  0.0968
 3461ntf    on518969   1.446   4.498   2.868  0.4284  0.1520  0.2206
 3461ntf    on518970   1.632   4.326   2.858  0.1695 -0.0351  0.2440
 3461ntf    on518971   1.364   4.009   2.861  0.5185 -0.1755 -0.2827
 3461ntf    on518972   1.449   4.151   2.683  0.2531 -0.5426  0.0112
 3461ntf    fn418973   1.194   4.282   2.662 -0.4052  0.0268  0.1283
 3461ntf    fn418974   1.166   4.072   2.658 -0.0067 -0.3670  0.4467
 3461ntf    fn418975   1.111   4.187   2.833 -0.1787  0.0277  0.0204
 3462ntf    cn118976   0.476   3.059   3.382  0.3183  0.2011 -0.0822
 3462ntf    sn218977   0.492   3.128   3.214  0.0727  0.1025 -0.1464
 3462ntf    nn318978   0.435   3.005   3.134 -0.2510  0.3067 -0.2335
 3462ntf    sn218979   0.500   2.873   3.078  0.0379  0.3268  0.0492
 3462ntf    cn118980   0.495   2.909   2.899 -0.8266 -0.1402 -0.0259
 3462ntf    fn418981   0.355   3.011   3.405  0.3580  0.1009 -0.0811
 3462ntf    fn418982   0.555   2.955   3.401 -0.0261 -0.1143 -0.3521
 3462ntf    fn418983   0.494   3.147   3.479 -0.0693 -0.1449  0.3083
 3462ntf    on518984   0.407   3.244   3.223  0.5154  0.3880  0.3879
 3462ntf    on518985   0.632   3.160   3.211  0.1095 -0.0456 -0.0204
 3462ntf    on518986   0.419   2.756   3.093  0.3768  0.1368  0.4074
 3462ntf    on518987   0.642   2.858   3.097  0.0239 -0.1795 -0.2378
 3462ntf    fn418988   0.373   2.913   2.850 -0.7802 -0.7517 -0.2031
 3462ntf    fn418989   0.555   3.024   2.871  0.2785 -0.6845  0.0490
 3462ntf    fn418990   0.560   2.817   2.830  0.3557  0.3303  0.4181
 3463ntf    cn118991   4.232   5.026   4.688  0.0685 -0.4000  0.0327
 3463ntf    sn218992   4.353   5.040   4.553 -0.0098  0.4932  0.0503
 3463ntf    nn318993   4.255   5.038   4.431  0.1593  0.0851 -0.0778
 3463ntf    sn218994   4.224   5.149   4.325  0.0035  0.0821 -0.0354
 3463ntf    cn118995   4.051   5.117   4.277 -0.0041  0.1290 -0.0402
 3463ntf    fn418996   4.137   5.119   4.691  0.0745 -0.3914 -0.0841
 3463ntf    fn418997   4.170   4.909   4.689 -0.6127 -0.0441  0.2755
 3463ntf    fn418998   4.295   5.025   4.804  0.0101 -0.8657  0.0621
 3463ntf    on518999   4.423   5.158   4.597 -0.0193  0.0655  1.2462
 3463ntf    on519000   4.423   4.916   4.577  0.3440  0.7112  0.1550
 3463ntf    on519001   4.289   5.123   4.199  0.3905  0.1468  0.1518
 3463ntf    on519002   4.217   5.286   4.370  0.2684  0.2543 -0.5024
 3463ntf    fn419003   4.003   5.198   4.186  0.3921  0.5192  0.0941
 3463ntf    fn419004   4.034   4.996   4.226 -0.0947  0.4952 -0.8950
 3463ntf    fn419005   3.967   5.131   4.378  0.2199 -0.1888  0.1950
 3464ntf    cn119006   2.657   0.522   4.943 -0.0500  0.4802 -0.0885
 3464ntf    sn219007   2.501   0.500   4.851  0.0011 -0.1831 -0.0192
 3464ntf    nn319008   2.422   0.400   4.942 -0.2466  0.0345  0.0055
 3464ntf    sn219009   2.394   0.248   4.915  0.0539  0.0102 -0.1734
 3464ntf    cn119010   2.263   0.213   5.035  0.5069  0.1057  0.3495
 3464ntf    fn419011   2.646   0.549   5.072 -0.1839  0.0743 -0.0138
 3464ntf    fn419012   2.729   0.412   4.931 -0.0918  0.4448 -0.0150
 3464ntf    fn419013   2.734   0.617   4.893  0.2230  0.1585 -0.2804
 3464ntf    on519014   2.439   0.629   4.862 -0.2778 -0.3085 -0.1118
 3464ntf    on519015   2.550   0.446   4.726 -0.4975  0.0714 -0.3252
 3464ntf    on519016   2.492   0.157   4.970 -0.1271  0.0950  0.2879
 3464ntf    on519017   2.329   0.197   4.796  0.2600 -0.1653 -0.2113
 3464ntf    fn419018   2.289   0.279   5.147  0.1479  0.1272  0.4234
 3464ntf    fn419019   2.141   0.253   5.002  0.7078  0.0703 -0.4458
 3464ntf    fn419020   2.262   0.083   5.062 -0.1611 -0.0204 -0.2584
 3465ntf    cn119021   6.407   4.137   5.233  0.1800  0.2046  0.3111
 3465ntf    sn219022   6.270   4.252   5.262  0.0150  0.1075 -0.0732
 3465ntf    nn319023   6.285   4.270   5.418 -0.6205  0.3719 -0.0385
 3465ntf    sn219024   6.212   4.179   5.523  0.2570  0.0449  0.2934
 3465ntf    cn119025   6.065   4.280   5.560  0.0957 -0.0801 -0.0012
 3465ntf    fn419026   6.409   4.110   5.103  0.2052  0.1001  0.3333
 3465ntf    fn419027   6.523   4.191   5.266  0.2700  0.1382  0.1050
 3465ntf    fn419028   6.397   4.027   5.306  0.0751  0.0164  0.0135
 3465ntf    on519029   6.321   4.369   5.194  0.0341 -0.2139 -0.6136
 3465ntf    on519030   6.145   4.200   5.212 -0.2021  0.3506  0.2129
 3465ntf    on519031   6.281   4.194   5.649 -0.2834  0.6740  0.5236
 3465ntf    on519032   6.163   4.050   5.482 -0.0630  0.1497  0.3457
 3465ntf    fn419033   6.087   4.391   5.628  0.0233 -0.1448  0.1279
 3465ntf    fn419034   6.000   4.319   5.452 -0.1473 -0.0904  0.1401
 3465ntf    fn419035   5.977   4.210   5.630  0.2630 -0.0289  0.2634
 3466ntf    cn119036   6.376   7.072   6.343 -0.0725 -0.1007 -0.0221
 3466ntf    sn219037   6.240   7.152   6.252  0.1255 -0.0726 -0.2945
 3466ntf    nn319038   6.174   7.026   6.187 -0.0362  0.1051 -0.4780
 3466ntf    sn219039   6.024   6.979   6.194  0.0621 -0.1586 -0.1157
 3466ntf    cn119040   6.022   6.848   6.320 -0.3533 -0.1375 -0.1024
 3466ntf    fn419041   6.443   7.151   6.425 -0.6741  0.3486  0.0398
 3466ntf    fn419042   6.345   6.967   6.417 -0.2357 -0.0912 -0.0767
 3466ntf    fn419043   6.463   7.025   6.255 -0.0290  0.2443 -0.1660
 3466ntf    on519044   6.161   7.220   6.352  0.2126  0.2092 -0.4167
 3466ntf    on519045   6.301   7.232   6.149  0.3022 -0.0467 -0.1707
 3466ntf    on519046   5.982   6.904   6.079 -0.2643  0.5510 -0.4597
 3466ntf    on519047   5.921   7.072   6.234 -0.0611 -0.3354 -0.0202
 3466ntf    fn419048   6.119   6.759   6.309  0.2631  0.4957  0.1350
 3466ntf    fn419049   6.033   6.902   6.441  0.8820  0.3209 -0.4084
 3466ntf    fn419050   5.912   6.775   6.319 -0.2415 -0.3082  0.0090
 3467ntf    cn119051   5.021   6.680   2.404 -0.0415  0.1386  0.3319
 3467ntf    sn219052   5.121   6.802   2.314  0.0100 -0.3119 -0.2293
 3467ntf    nn319053   5.200   6.699   2.225  0.8427 -0.0123  0.1503
 3467ntf    sn219054   5.234   6.698   2.072 -0.0320 -0.4315 -0.0441
 3467ntf    cn119055   5.391   6.607   2.072  0.1404 -0.1330 -0.1245
 3467ntf    fn419056   4.952   6.743   2.497 -0.3774  0.4278 -0.1091
 3467ntf    fn419057   4.940   6.610   2.326  0.2443  0.1318  0.0411
 3467ntf    fn419058   5.091   6.593   2.475 -0.1694  0.2644  0.6146
 3467ntf    on519059   5.021   6.880   2.245 -0.3030 -0.6380 -0.1463
 3467ntf    on519060   5.200   6.861   2.419  0.1876  0.4255 -0.7703
 3467ntf    on519061   5.284   6.821   2.016  0.1793 -0.5118 -0.0305
 3467ntf    on519062   5.144   6.615   1.994 -0.8160  0.6662 -0.3312
 3467ntf    fn419063   5.481   6.668   2.147  0.0495  0.0456 -0.1615
 3467ntf    fn419064   5.373   6.486   2.123  0.2403 -0.1908 -0.2252
 3467ntf    fn419065   5.439   6.577   1.952 -0.2159 -0.5444 -0.1681
 3468ntf    cn119066   0.170   5.990   1.489 -0.1811  0.2824 -0.1491
 3468ntf    sn219067   0.134   5.820   1.543  0.3603  0.3263  0.3563
 3468ntf    nn319068   0.040   5.778   1.424  0.1206  0.2112  0.5840
 3468ntf    sn219069  -0.116   5.768   1.433  0.0861 -0.0315 -0.1568
 3468ntf    cn119070  -0.156   5.790   1.257  0.2033  0.0355 -0.1753
 3468ntf    fn419071   0.230   5.995   1.371 -0.4321 -0.0649 -0.2925
 3468ntf    fn419072   0.058   6.060   1.478 -0.3953 -0.0530 -0.1290
 3468ntf    fn419073   0.245   6.059   1.573 -0.0269  0.3448 -0.3378
 3468ntf    on519074   0.260   5.750   1.530  0.0398 -0.1948 -0.0277
 3468ntf    on519075   0.069   5.830   1.671 -0.1523  0.8304  0.0601
 3468ntf    on519076  -0.172   5.884   1.498 -0.2920  0.0477 -0.6207
 3468ntf    on519077  -0.163   5.636   1.465 -0.6786  0.2302 -0.1672
 3468ntf    fn419078  -0.112   5.911   1.224 -0.6327  0.5047  0.3882
 3468ntf    fn419079  -0.099   5.705   1.173  0.3776  0.1496 -0.1725
 3468ntf    fn419080  -0.287   5.782   1.239  0.2348  0.1108 -0.4338
 3469ntf    cn119081   0.541   6.474   0.123 -0.1445 -0.1966  0.3695
 3469ntf    sn219082   0.416   6.535   0.240 -0.1915  0.3207  0.0527
 3469ntf    nn319083   0.497   6.536   0.374  0.2843 -0.1150 -0.2255
 3469ntf    sn219084   0.538   6.414   0.464 -0.1782 -0.0994  0.0074
 3469ntf    cn119085   0.434   6.449   0.609  0.4612 -0.0770  0.4615
 3469ntf    fn419086   0.630   6.570   0.105 -0.2183 -0.1589  0.2113
 3469ntf    fn419087   0.607   6.368   0.167  0.0508 -0.1440  0.2114
 3469ntf    fn419088   0.487   6.441   0.006  0.2721  0.1435  0.0785
 3469ntf    on519089   0.397   6.669   0.192  0.4451  0.2513 -0.4117
 3469ntf    on519090   0.305   6.444   0.229 -0.0454  0.1202  0.2083
 3469ntf    on519091   0.670   6.429   0.519 -0.0778  0.6382 -0.4280
 3469ntf    on519092   0.491   6.284   0.421  0.3059 -0.1935 -0.2363
 3469ntf    fn419093   0.375   6.566   0.596 -0.2758 -0.5160 -0.2371
 3469ntf    fn419094   0.336   6.360   0.608  0.1909  0.2258 -0.2486
 3469ntf    fn419095   0.491   6.440   0.728 -0.0079 -0.0799  0.6889
 3470ntf    cn119096   0.681   4.765   4.220 -0.4778 -0.0707  0.1301
 3470ntf    sn219097   0.528   4.741   4.125 -0.1743 -0.0889 -0.3562
 3470ntf    nn319098   0.511   4.585   4.136 -0.2486 -0.0604 -0.0614
 3470ntf    sn219099   0.459   4.493   4.252 -0.0505  0.3362  0.3438
 3470ntf    cn119100   0.600   4.384   4.285 -0.1360  0.0943 -0.0946
 3470ntf    fn419101   0.776   4.680   4.184  0.0901  0.6439 -0.0745
 3470ntf    fn419102   0.730   4.884   4.192 -0.1964 -0.1390  0.3292
 3470ntf    fn419103   0.666   4.754   4.351 -0.1612  0.5191  0.2167
 3470ntf    on519104   0.428   4.816   4.197 -0.3957 -0.1925 -0.5547
 3470ntf    on519105   0.558   4.790   3.993 -0.3914  0.3400 -0.2485
 3470ntf    on519106   0.351   4.403   4.221  0.0748  0.1010  0.5817
 3470ntf    on519107   0.455   4.556   4.382 -0.0653 -0.5469  0.7782
 3470ntf    fn419108   0.698   4.450   4.344  0.0139 -0.2264  0.0190
 3470ntf    fn419109   0.567   4.289   4.370  0.5994 -0.3695 -0.3107
 3470ntf    fn419110   0.650   4.320   4.180  0.0329  0.1053 -0.0219
 3471ntf    cn119111   0.900   4.188   1.132 -0.0304 -0.2195  0.2643
 3471ntf    sn219112   1.067   4.259   1.118 -0.1088 -0.0072  0.4033
 3471ntf    nn319113   1.075   4.276   0.962  0.0798 -0.2368  0.3875
 3471ntf    sn219114   1.182   4.218   0.863 -0.1925 -0.1232  0.0242
 3471ntf    cn119115   1.098   4.069   0.802  0.2277 -0.3659  0.0319
 3471ntf    fn419116   0.888   4.068   1.078  0.6602 -0.0102 -0.3713
 3471ntf    fn419117   0.869   4.162   1.258 -0.3484 -0.4740  0.1356
 3471ntf    fn419118   0.810   4.274   1.088  0.2750 -0.1585 -0.2528
 3471ntf    on519119   1.059   4.386   1.187  0.6356 -0.0236  0.5318
 3471ntf    on519120   1.147   4.156   1.180 -0.1561  0.2005  0.8128
 3471ntf    on519121   1.309   4.182   0.921 -0.3267 -0.1177  0.3268
 3471ntf    on519122   1.185   4.306   0.749  0.5338  0.2845  0.3499
 3471ntf    fn419123   1.167   4.011   0.705  0.1538 -0.5003  0.0600
 3471ntf    fn419124   1.078   3.978   0.896  0.0173 -0.5913 -0.2292
 3471ntf    fn419125   0.983   4.095   0.741  0.2942  0.1988  0.1360
 3472ntf    cn119126   0.826   1.768   0.976 -0.3572 -0.1003 -0.2225
 3472ntf    sn219127   0.660   1.704   1.011 -0.1652 -0.4970 -0.0317
 3472ntf    nn319128   0.673   1.696   1.168  0.9674  0.4408 -0.0650
 3472ntf    sn219129   0.663   1.808   1.277 -0.0507  0.3716 -0.0766
 3472ntf    cn119130   0.509   1.766   1.364 -0.0172 -0.3440 -0.3574
 3472ntf    fn419131   0.862   1.779   0.850  0.2385  0.2595 -0.0261
 3472ntf    fn419132   0.846   1.884   1.037 -0.5300 -0.2249  0.0780
 3472ntf    fn419133   0.908   1.681   1.035  0.0942  0.2035 -0.3970
 3472ntf    on519134   0.570   1.800   0.952  0.1765 -0.2521 -0.1542
 3472ntf    on519135   0.669   1.575   0.946  0.0147 -0.1927 -0.6122
 3472ntf    on519136   0.635   1.942   1.235  0.3010  0.5304  0.1840
 3472ntf    on519137   0.757   1.799   1.387 -0.1601  0.6250  0.0379
 3472ntf    fn419138   0.401   1.762   1.287  0.0148 -0.5003 -0.3957
 3472ntf    fn419139   0.515   1.647   1.423  0.4635 -0.0691  0.1547
 3472ntf    fn419140   0.480   1.855   1.457  0.1108 -0.2853 -0.3742
 3473ntf    cn119141   6.089   0.208   3.339 -0.1293 -0.3843 -0.1596
 3473ntf    sn219142   6.237   0.310   3.319 -0.2989 -0.0877  0.0967
 3473ntf    nn319143   6.320   0.245   3.436 -0.3659  0.3776  0.4044
 3473ntf    sn219144   6.463   0.293   3.480 -0.2421  0.2061  0.1936
 3473ntf    cn119145   6.574   0.182   3.389 -0.4593  0.0369  0.1319
 3473ntf    fn419146   6.100   0.076   3.327 -0.0399 -0.3385 -0.6287
 3473ntf    fn419147   6.033   0.231   3.456 -0.3632  0.1765 -0.3789
 3473ntf    fn419148   5.992   0.230   3.251  0.1604  0.0405 -0.3760
 3473ntf    on519149   6.268   0.281   3.181  0.3166  0.4994  0.1065
 3473ntf    on519150   6.178   0.440   3.343 -0.2609 -0.1511  0.5436
 3473ntf    on519151   6.484   0.260   3.619  0.8965 -0.0787 -0.0376
 3473ntf    on519152   6.507   0.423   3.435 -0.3850  0.0772 -0.3267
 3473ntf    fn419153   6.702   0.206   3.416 -0.2766 -0.7069 -0.0632
 3473ntf    fn419154   6.552   0.059   3.433  0.3359 -0.2434 -0.2344
 3473ntf    fn419155   6.564   0.184   3.257  0.3491  0.6649  0.0672
 3474ntf    cn119156   5.550   1.337   3.663  0.1830  0.1347  0.3285
 3474ntf    sn219157   5.432   1.240   3.564  0.2099  0.3151  0.1183
 3474ntf    nn319158   5.307   1.218   3.657  0.1428  0.5832  0.0916
 3474ntf    sn219159   5.297   1.158   3.802  0.2714  0.0842 -0.1054
 3474ntf    cn119160   5.118   1.150   3.829  0.2573 -0.0966 -0.2491
 3474ntf    fn419161   5.657   1.385   3.603 -0.1878  0.1981 -0.2896
 3474ntf    fn419162   5.496   1.448   3.713  0.0956  0.1475  0.2059
 3474ntf    fn419163   5.592   1.270   3.768  0.3211 -0.2750  0.0122
 3474ntf    on519164   5.397   1.329   3.456 -0.2841 -0.6769 -0.5515
 3474ntf    on519165   5.508   1.120   3.541 -0.1764  0.1853 -0.4804
 3474ntf    on519166   5.340   1.251   3.904 -0.0766  0.4542 -0.2918
 3474ntf    on519167   5.339   1.020   3.806  0.3242  0.0673 -1.0086
 3474ntf    fn419168   5.060   1.261   3.785 -0.0321 -0.0605  0.2138
 3474ntf    fn419169   5.056   1.051   3.767  0.1629 -0.3119  0.1881
 3474ntf    fn419170   5.088   1.144   3.958  0.0824  0.1781 -0.2761
 3475ntf    cn119171   5.157   5.846   4.857  0.0206  0.0521  0.3982
 3475ntf    sn219172   4.997   5.826   4.774  0.1825 -0.0724  0.1153
 3475ntf    nn319173   5.036   5.750   4.642  0.6781 -0.2908  0.3879
 3475ntf    sn219174   5.035   5.596   4.613 -0.4375 -0.2392  0.1078
 3475ntf    cn119175   5.214   5.567   4.598 -0.4743 -0.3151 -0.2078
 3475ntf    fn419176   5.195   5.735   4.917  0.0550  0.0016  0.2836
 3475ntf    fn419177   5.253   5.873   4.770 -0.0028 -0.1273  0.3179
 3475ntf    fn419178   5.160   5.940   4.950  0.7156  0.1286  0.3047
 3475ntf    on519179   4.916   5.751   4.867  0.2577 -0.5549 -0.2000
 3475ntf    on519180   4.954   5.961   4.751  0.4111 -0.0070  0.0746
 3475ntf    on519181   4.990   5.561   4.480 -0.1046 -0.5673  0.0764
 3475ntf    on519182   4.992   5.509   4.720  0.0133 -0.2713  0.2650
 3475ntf    fn419183   5.270   5.653   4.514 -0.1540 -0.2003  0.1196
 3475ntf    fn419184   5.280   5.580   4.712  0.1415  0.1721 -0.6134
 3475ntf    fn419185   5.247   5.446   4.555  0.3081 -0.2332  0.1347
 3476ntf    cn119186   1.508   6.270   4.784  0.1169  0.1117  0.3654
 3476ntf    sn219187   1.517   6.447   4.744 -0.2975  0.1004  0.2156
 3476ntf    nn319188   1.545   6.441   4.590 -0.1741 -0.4404  0.2578
 3476ntf    sn219189   1.445   6.403   4.475 -0.0607 -0.0952  0.0438
 3476ntf    cn119190   1.532   6.258   4.409  0.0258  0.0480 -0.1576
 3476ntf    fn419191   1.499   6.250   4.914  0.2571  0.0353  0.3644
 3476ntf    fn419192   1.415   6.198   4.724  0.3475  0.1549 -0.0496
 3476ntf    fn419193   1.625   6.217   4.750  0.0640  0.1641  0.0929
 3476ntf    on519194   1.387   6.499   4.780 -0.4528  0.0988 -0.3390
 3476ntf    on519195   1.628   6.505   4.815 -0.2144  0.4409 -0.1913
 3476ntf    on519196   1.452   6.499   4.368  0.4311 -0.1091  0.0597
 3476ntf    on519197   1.312   6.359   4.509 -0.0410 -0.3299 -0.1858
 3476ntf    fn419198   1.657   6.286   4.377  0.0890 -0.0690 -0.0115
 3476ntf    fn419199   1.542   6.162   4.500  0.6908  0.0892 -0.1821
 3476ntf    fn419200   1.473   6.203   4.303 -0.3051 -0.3259  0.2182
 3477ntf    cn119201   5.480   4.641   5.746  0.2399  0.3051 -0.3774
 3477ntf    sn219202   5.579   4.498   5.800 -0.1312  0.2322  0.1170
 3477ntf    nn319203   5.621   4.542   5.945  0.1592 -0.3147  0.2020
 3477ntf    sn219204   5.749   4.626   5.979  0.0073 -0.0278  0.0669
 3477ntf    cn119205   5.893   4.516   5.969  0.2018  0.2385 -0.0893
 3477ntf    fn419206   5.548   4.753   5.764  0.1581  0.1872  0.7464
 3477ntf    fn419207   5.440   4.634   5.620 -0.1212 -0.6119 -0.2234
 3477ntf    fn419208   5.375   4.649   5.826  0.2585  0.4502 -0.3687
 3477ntf    on519209   5.488   4.387   5.788 -0.1119  0.1691  0.5291
 3477ntf    on519210   5.689   4.498   5.707 -0.3103 -0.3051 -0.0999
 3477ntf    on519211   5.740   4.653   6.120 -0.3126 -0.1867  0.0775
 3477ntf    on519212   5.773   4.745   5.901 -0.0896 -0.2765 -0.3502
 3477ntf    fn419213   6.001   4.569   6.023  0.1323  0.4491 -0.1576
 3477ntf    fn419214   5.866   4.399   6.026  0.0135  0.0272 -0.6064
 3477ntf    fn419215   5.918   4.487   5.843 -0.3227 -0.1611 -0.1030
 3478ntf    cn119216   5.905   1.617   3.659 -0.0433 -0.1352 -0.8567
 3478ntf    sn219217   5.765   1.731   3.642  0.0163  0.0862  0.0812
 3478ntf    nn319218   5.714   1.689   3.500  1.2109  0.3116 -0.4232
 3478ntf    sn219219   5.725   1.766   3.364  0.1294  0.7926 -0.2460
 3478ntf    cn119220   5.739   1.621   3.255 -0.0737  0.5547  0.0440
 3478ntf    fn419221   5.991   1.611   3.558 -0.0561  0.6447 -0.9236
 3478ntf    fn419222   5.980   1.637   3.766 -0.2935  0.1181 -0.7267
 3478ntf    fn419223   5.858   1.495   3.674  0.1068 -0.1048 -0.0923
 3478ntf    on519224   5.683   1.679   3.749 -0.4147 -0.0386 -0.3061
 3478ntf    on519225   5.827   1.860   3.655 -0.0185  0.1381 -0.2629
 3478ntf    on519226   5.847   1.840   3.342  0.4614  0.3609  0.1397
 3478ntf    on519227   5.605   1.834   3.322 -0.5209 -0.0611  0.2074
 3478ntf    fn419228   5.814   1.530   3.315  0.0974 -0.0549 -1.0676
 3478ntf    fn419229   5.628   1.557   3.221  0.3882 -0.0496 -0.3520
 3478ntf    fn419230   5.792   1.655   3.139  0.3547 -0.3466 -0.0295
 3479ntf    cn119231   1.328   0.530   7.059  0.4377  0.3292 -0.3869
 3479ntf    sn219232   1.466   0.413   7.072  0.1992  0.1099  0.2015
 3479ntf    nn319233   1.579   0.506   7.128  0.4923 -0.1269  0.0098
 3479ntf    sn219234   1.658   0.506   7.264 -0.1968 -0.3438  0.4118
 3479ntf    cn119235   1.560   0.630   7.353 -0.1872  0.0117 -0.0676
 3479ntf    fn419236   1.291   0.588   7.171  1.1435 -0.5082  0.2952
 3479ntf    fn419237   1.348   0.626   6.970 -0.4582  0.4664 -0.4491
 3479ntf    fn419238   1.222   0.462   7.019  0.2300  0.3234  0.1782
 3479ntf    on519239   1.417   0.308   7.157 -0.1279  0.3858  0.3550
 3479ntf    on519240   1.498   0.375   6.936 -0.6685  0.6440 -0.1639
 3479ntf    on519241   1.796   0.548   7.259 -0.4355  0.5095  0.8665
 3479ntf    on519242   1.628   0.391   7.346  0.1018 -0.6896  0.0445
 3479ntf    fn419243   1.433   0.596   7.362 -0.0801 -0.3532  0.1034
 3479ntf    fn419244   1.599   0.635   7.480 -0.3189 -0.3830 -0.0119
 3479ntf    fn419245   1.578   0.753   7.308  0.2209 -0.1247 -0.2836
 3480ntf    cn119246   5.836   4.609   2.618 -0.5399  0.3563  0.0063
 3480ntf    sn219247   5.658   4.584   2.641 -0.3747 -0.3226  0.6025
 3480ntf    nn319248   5.601   4.666   2.519 -0.2261  0.2127  0.8912
 3480ntf    sn219249   5.562   4.818   2.510  0.0450  0.2307 -0.0652
 3480ntf    cn119250   5.380   4.812   2.518  0.0805 -0.4073  0.3598
 3480ntf    fn419251   5.911   4.585   2.724 -0.1819  0.2421 -0.2704
 3480ntf    fn419252   5.889   4.532   2.524 -0.2188  0.4092  0.1423
 3480ntf    fn419253   5.871   4.730   2.577 -0.1138  0.2188 -0.0392
 3480ntf    on519254   5.641   4.443   2.614 -0.1754 -0.2527  0.0835
 3480ntf    on519255   5.634   4.635   2.773  0.0304  0.5690  0.3399
 3480ntf    on519256   5.595   4.870   2.380  0.2821  0.2887  0.0172
 3480ntf    on519257   5.602   4.893   2.626 -0.4911  0.1559  0.1728
 3480ntf    fn419258   5.337   4.937   2.528  0.3399 -0.2107 -0.8109
 3480ntf    fn419259   5.321   4.759   2.412 -0.0420  0.0074  0.2186
 3480ntf    fn419260   5.342   4.753   2.630  0.0277  0.1617  0.6454
 3481ntf    cn119261   5.153   4.018   3.186 -0.1974 -0.2704  0.0205
 3481ntf    sn219262   5.083   3.940   3.037 -0.0023 -0.3448 -0.0323
 3481ntf    nn319263   5.075   3.785   3.062 -0.1133 -0.2216  0.7373
 3481ntf    sn219264   5.153   3.670   2.990 -0.1111 -0.0637  0.4825
 3481ntf    cn119265   5.310   3.680   3.082  0.3537  0.2105 -0.3333
 3481ntf    fn419266   5.191   4.144   3.174 -0.4960 -0.1107  0.7257
 3481ntf    fn419267   5.059   4.022   3.279 -0.1156  0.2146  0.0879
 3481ntf    fn419268   5.255   3.946   3.229 -0.0328 -0.0463  0.0053
 3481ntf    on519269   4.949   3.992   3.046  0.1072 -0.0698  0.0406
 3481ntf    on519270   5.161   3.992   2.927  0.2208 -0.4642  0.0693
 3481ntf    on519271   5.191   3.695   2.853 -0.6542  0.8319  0.4920
 3481ntf    on519272   5.101   3.538   3.018 -0.5207 -0.0031  0.0052
 3481ntf    fn419273   5.355   3.804   3.071  0.4507  0.1934 -0.1454
 3481ntf    fn419274   5.300   3.669   3.213 -0.0826 -0.1756 -0.3964
 3481ntf    fn419275   5.414   3.609   3.039  0.4008  0.1918 -0.1890
 3482ntf    cn119276   3.478   2.675   2.485 -0.6610 -0.2966 -0.1508
 3482ntf    sn219277   3.572   2.720   2.336 -0.2944  0.1617  0.2174
 3482ntf    nn319278   3.706   2.753   2.410 -0.2350 -0.0250  0.1936
 3482ntf    sn219279   3.752   2.894   2.461  0.0073 -0.0874  0.1497
 3482ntf    cn119280   3.846   2.853   2.611  0.3654 -0.1819 -0.0987
 3482ntf    fn419281   3.519   2.733   2.596 -0.6068 -0.1510 -0.2476
 3482ntf    fn419282   3.349   2.697   2.469 -0.5577  0.3364 -0.1079
 3482ntf    fn419283   3.497   2.548   2.517 -0.3715 -0.1754  0.1679
 3482ntf    on519284   3.592   2.598   2.262 -0.5180  0.5118 -0.4266
 3482ntf    on519285   3.494   2.823   2.271 -0.2059 -0.1363 -0.3718
 3482ntf    on519286   3.643   2.982   2.496 -0.0921  0.0158 -0.4053
 3482ntf    on519287   3.855   2.950   2.377  0.2648  0.4192  0.7893
 3482ntf    fn419288   3.772   2.771   2.684  0.0913  0.0560 -0.1061
 3482ntf    fn419289   3.954   2.779   2.592  0.4534  0.0520 -0.5145
 3482ntf    fn419290   3.877   2.955   2.690  0.3375 -0.2137 -0.0463
 3483ntf    cn119291   6.123   5.376   5.302 -0.1173 -0.0167  0.0745
 3483ntf    sn219292   6.157   5.354   5.124 -0.0318 -0.1226  0.1030
 3483ntf    nn319293   6.023   5.408   5.063 -0.1486 -0.3367  0.1676
 3483ntf    sn219294   5.897   5.324   5.021 -0.2449 -0.0346 -0.1469
 3483ntf    cn119295   5.945   5.272   4.853 -0.3756  0.0103 -0.1982
 3483ntf    fn419296   6.143   5.501   5.338  0.6061 -0.1636  0.1946
 3483ntf    fn419297   5.999   5.349   5.337 -0.0335 -0.2737  0.1751
 3483ntf    fn419298   6.193   5.297   5.382  0.3461 -0.0892 -0.3946
 3483ntf    on519299   6.276   5.427   5.091  0.0885 -0.2949  0.1559
 3483ntf    on519300   6.170   5.212   5.105 -0.1701 -0.0548 -0.5117
 3483ntf    on519301   5.782   5.411   5.007 -0.2044  0.0589  0.1129
 3483ntf    on519302   5.862   5.207   5.097 -0.3921  0.4606  0.5491
 3483ntf    fn419303   5.942   5.374   4.769 -0.7786 -0.1315 -0.3570
 3483ntf    fn419304   6.072   5.235   4.849 -0.5362 -0.5468 -0.1684
 3483ntf    fn419305   5.869   5.171   4.814 -0.4441  0.2729 -0.7623
 3484ntf    cn119306   4.893   2.359   5.608 -0.0051  0.0347  0.2934
 3484ntf    sn219307   4.777   2.417   5.736 -0.1893  0.0137  0.1373
 3484ntf    nn319308   4.730   2.547   5.662  0.6988  0.2703  0.0118
 3484ntf    sn219309   4.702   2.691   5.719 -0.4353 -0.0022  0.1583
 3484ntf    cn119310   4.563   2.745   5.615 -0.0622  0.1825 -0.2457
 3484ntf    fn419311   4.971   2.260   5.647  0.3314  0.3211  0.3540
 3484ntf    fn419312   4.830   2.318   5.499 -0.5088  0.2487  0.4965
 3484ntf    fn419313   4.971   2.457   5.564 -0.1364  0.1059  0.2187
 3484ntf    on519314   4.679   2.312   5.744 -0.3321  0.0854 -0.5519
 3484ntf    on519315   4.851   2.447   5.856  0.5351 -0.2844 -0.2282
 3484ntf    on519316   4.805   2.786   5.685 -0.3865 -0.3528 -0.6821
 3484ntf    on519317   4.650   2.705   5.853  0.3833  0.1789  0.4619
 3484ntf    fn419318   4.491   2.840   5.671  0.2499  0.3102 -0.0634
 3484ntf    fn419319   4.593   2.783   5.492 -0.4751  0.0603 -0.3842
 3484ntf    fn419320   4.478   2.644   5.598  0.0853  0.1396 -0.7354
 3485ntf    cn119321   0.986   1.405   4.345  0.2852  0.0443 -0.1362
 3485ntf    sn219322   1.089   1.549   4.303  0.0702  0.1928 -0.1553
 3485ntf    nn319323   1.003   1.663   4.369 -0.1995 -0.0826 -0.0256
 3485ntf    sn219324   1.023   1.748   4.500 -0.0349 -0.1348 -0.0163
 3485ntf    cn119325   0.844   1.762   4.523 -0.0522  0.1937 -0.3301
 3485ntf    fn419326   0.869   1.418   4.285  0.2798 -0.3726 -0.2148
 3485ntf    fn419327   1.033   1.289   4.304 -0.0975 -0.0893 -0.2036
 3485ntf    fn419328   0.978   1.401   4.477 -0.4977 -0.0034 -0.1828
 3485ntf    on519329   1.212   1.518   4.372  0.1392  0.2103 -0.2707
 3485ntf    on519330   1.082   1.550   4.159 -0.0774  0.2005 -0.1483
 3485ntf    on519331   1.066   1.883   4.473  0.1317 -0.2812 -0.4927
 3485ntf    on519332   1.070   1.684   4.620 -0.3982  0.2249  0.3175
 3485ntf    fn419333   0.786   1.644   4.534 -0.1958  0.2795 -0.1544
 3485ntf    fn419334   0.807   1.826   4.633  0.6922  0.0273  0.0227
 3485ntf    fn419335   0.778   1.821   4.425 -0.4085 -0.1045 -0.2746
 3486ntf    cn119336   3.984   4.465   4.411 -0.1197  0.1744 -0.1987
 3486ntf    sn219337   4.066   4.303   4.407 -0.2967  0.0740  0.1552
 3486ntf    nn319338   4.028   4.255   4.262 -0.1538  0.2014  0.0750
 3486ntf    sn219339   3.922   4.152   4.208  0.3080 -0.1529 -0.1550
 3486ntf    cn119340   4.033   4.014   4.165  0.0058 -0.4052 -0.1259
 3486ntf    fn419341   3.860   4.450   4.456 -0.1085  0.9052  0.0870
 3486ntf    fn419342   4.042   4.546   4.498  0.0150  0.0610 -0.1846
 3486ntf    fn419343   3.974   4.527   4.295  0.1801  0.1698 -0.2270
 3486ntf    on519344   4.201   4.352   4.415 -0.2933  0.0280  0.3827
 3486ntf    on519345   4.015   4.226   4.517 -0.4690 -0.1524 -0.0805
 3486ntf    on519346   3.875   4.178   4.074 -0.2298  0.1685  0.0960
 3486ntf    on519347   3.836   4.093   4.307  0.2570  0.3511  0.1012
 3486ntf    fn419348   3.980   3.904   4.113 -0.0996 -0.6109  0.4134
 3486ntf    fn419349   4.124   4.052   4.077 -0.1224  0.6518  0.1799
 3486ntf    fn419350   4.105   3.974   4.268  0.1810 -0.9011 -0.4375
 3487ntf    cn119351   0.271   4.397   0.573  0.1989 -0.0983  0.1171
 3487ntf    sn219352   0.271   4.361   0.394  0.4691  0.1974  0.0571
 3487ntf    nn319353   0.118   4.327   0.384  0.3204  0.8553  0.0210
 3487ntf    sn219354  -0.001   4.421   0.343 -0.4176 -0.2055 -0.3124
 3487ntf    cn119355  -0.018   4.378   0.167  0.0415  0.0381 -0.4178
 3487ntf    fn419356   0.232   4.518   0.608 -0.0022 -0.1692  0.1397
 3487ntf    fn419357   0.205   4.309   0.646 -0.0487  0.2390  0.3011
 3487ntf    fn419358   0.396   4.398   0.615  0.5046  0.0877 -0.7798
 3487ntf    on519359   0.317   4.478   0.323  0.0507  0.2221 -0.1749
 3487ntf    on519360   0.360   4.248   0.388 -0.3216 -0.4171 -0.2107
 3487ntf    on519361   0.031   4.561   0.348 -0.4528 -0.2120  0.0853
 3487ntf    on519362  -0.125   4.385   0.408 -0.2834 -0.6245 -0.2816
 3487ntf    fn419363   0.059   4.453   0.089  0.4108  0.1953  0.0891
 3487ntf    fn419364   0.007   4.251   0.142 -0.5402 -0.0840 -0.3956
 3487ntf    fn419365  -0.140   4.395   0.120  0.2089  0.4084 -0.7218
 3488ntf    cn119366   3.109   6.888   0.514  0.0065 -0.2377 -0.0477
 3488ntf    sn219367   3.052   7.001   0.644 -0.0635 -0.2029 -0.1084
 3488ntf    nn319368   3.082   7.137   0.572  0.4394 -0.3566 -0.1986
 3488ntf    sn219369   3.053   7.282   0.626 -0.3416 -0.5501 -0.0818
 3488ntf    cn119370   3.222   7.338   0.662 -0.5569  0.1780 -0.1798
 3488ntf    fn419371   3.072   6.763   0.537 -0.2140 -0.1469  0.0894
 3488ntf    fn419372   3.054   6.933   0.402 -0.2600  0.0959  0.2139
 3488ntf    fn419373   3.241   6.889   0.502 -0.0011 -0.6561 -0.1901
 3488ntf    on519374   2.914   6.962   0.656 -0.1153  0.1436  0.4766
 3488ntf    on519375   3.130   6.968   0.762  0.2203  0.1615 -0.1905
 3488ntf    on519376   2.979   7.280   0.750 -0.0513 -0.0395  0.1014
 3488ntf    on519377   3.010   7.372   0.521  0.0244 -0.0850  0.1630
 3488ntf    fn419378   3.303   7.236   0.689  0.1980  0.8720  0.2332
 3488ntf    fn419379   3.281   7.386   0.554 -0.0726 -0.1197 -0.0540
 3488ntf    fn419380   3.241   7.428   0.757  0.2424  0.2302 -0.3822
 3489ntf    cn119381   4.827   4.297   1.793 -0.2618 -0.2396 -0.1432
 3489ntf    sn219382   4.924   4.420   1.885  0.0272 -0.3077 -0.3528
 3489ntf    nn319383   5.070   4.379   1.844  0.1805 -0.2860  0.1514
 3489ntf    sn219384   5.171   4.441   1.741  0.2480  0.1341  0.4681
 3489ntf    cn119385   5.334   4.420   1.818  0.2977  0.1981  0.3793
 3489ntf    fn419386   4.699   4.309   1.824 -0.2964  0.2610 -0.4724
 3489ntf    fn419387   4.841   4.302   1.661  0.1138  0.3783 -0.0864
 3489ntf    fn419388   4.859   4.173   1.828 -0.1800 -0.2578 -0.2773
 3489ntf    on519389   4.881   4.546   1.832 -0.6409 -0.2527  0.3000
 3489ntf    on519390   4.893   4.395   2.024 -0.0171 -0.2820 -0.3581
 3489ntf    on519391   5.158   4.584   1.733  0.4528  0.1354  0.1599
 3489ntf    on519392   5.173   4.370   1.615  0.4031  0.2676  0.3943
 3489ntf    fn419393   5.435   4.482   1.759  0.2210 -0.0894 -0.0606
 3489ntf    fn419394   5.334   4.460   1.943  0.4188  0.6249  0.2424
 3489ntf    fn419395   5.366   4.291   1.813 -0.0640  0.1161  0.1112
 3490ntf    cn119396   0.298   0.891   0.638  0.0044  0.3892 -0.0644
 3490ntf    sn219397   0.158   0.803   0.711  0.1966  0.2254  0.1087
 3490ntf    nn319398   0.201   0.779   0.860  0.3067 -0.2547 -0.0001
 3490ntf    sn219399   0.287   0.875   0.949 -0.0643  0.0227  0.0597
 3490ntf    cn119400   0.200   0.862   1.108  0.0205  0.0933  0.1124
 3490ntf    fn419401   0.421   0.863   0.678 -0.1712 -0.5805 -0.1829
 3490ntf    fn419402   0.302   0.884   0.505  0.6589 -0.2429 -0.0186
 3490ntf    fn419403   0.289   1.022   0.658 -0.1394  0.5275 -0.9779
 3490ntf    on519404   0.052   0.900   0.696  0.1552  0.1069 -0.3699
 3490ntf    on519405   0.158   0.681   0.634 -0.2566  0.5100 -0.3514
 3490ntf    on519406   0.279   1.018   0.926 -0.0879 -0.1076 -0.7980
 3490ntf    on519407   0.416   0.821   0.982  0.1343  0.5308  0.1270
 3490ntf    fn419408   0.289   0.892   1.201  0.3261  0.4642 -0.2953
 3490ntf    fn419409   0.100   0.946   1.129  0.3041  0.2728  0.7452
 3490ntf    fn419410   0.164   0.738   1.139 -0.3629  0.1988  0.0923
 3491ntf    cn119411   0.738   1.716   1.738  0.0358 -0.4390 -0.2116
 3491ntf    sn219412   0.721   1.791   1.903 -0.1604 -0.2343 -0.3235
 3491ntf    nn319413   0.868   1.793   1.960 -0.2575  0.0370 -0.0806
 3491ntf    sn219414   0.945   1.697   2.058  0.0903  0.0329 -0.3574
 3491ntf    cn119415   1.075   1.629   1.952  0.0593  0.3259 -0.5855
 3491ntf    fn419416   0.781   1.591   1.741  0.2147 -0.3999 -0.9476
 3491ntf    fn419417   0.625   1.719   1.670  0.1693  0.4624 -0.4098
 3491ntf    fn419418   0.831   1.779   1.668 -0.3014  0.0912 -0.1885
 3491ntf    on519419   0.685   1.928   1.877  0.4712  0.0962  0.4798
 3491ntf    on519420   0.619   1.706   1.960 -0.2593 -0.0594 -0.2394
 3491ntf    on519421   0.871   1.588   2.117 -0.2574  0.3271 -0.2477
 3491ntf    on519422   1.014   1.775   2.158 -0.0202 -0.1478 -0.1396
 3491ntf    fn419423   1.178   1.711   1.934  0.3627  0.1092  0.1219
 3491ntf    fn419424   1.117   1.512   1.999 -0.5401  0.3836  0.1032
 3491ntf    fn419425   1.021   1.601   1.834 -0.0501 -0.7153 -0.2967
 3492ntf    cn119426   0.249   5.263   5.164  0.0428 -0.1371  0.1661
 3492ntf    sn219427   0.401   5.207   5.082 -0.0244  0.0556 -0.0908
 3492ntf    nn319428   0.466   5.127   5.200 -0.3424 -0.4500 -0.2543
 3492ntf    sn219429   0.551   4.995   5.190 -0.2927 -0.4242 -0.1842
 3492ntf    cn119430   0.705   5.064   5.122 -0.1865 -0.3215  0.1573
 3492ntf    fn419431   0.148   5.178   5.176 -0.2725  0.2477  0.2512
 3492ntf    fn419432   0.271   5.309   5.286 -0.2997 -0.2501  0.2716
 3492ntf    fn419433   0.198   5.369   5.104 -0.0723 -0.4004 -0.2110
 3492ntf    on519434   0.353   5.130   4.970 -0.1914 -0.0463  0.0511
 3492ntf    on519435   0.469   5.332   5.056 -0.3874  0.0956 -0.8640
 3492ntf    on519436   0.509   4.898   5.092 -1.1198 -0.2367 -0.0241
 3492ntf    on519437   0.590   4.940   5.317  0.4074  0.6714  0.0885
 3492ntf    fn419438   0.743   5.170   5.192 -0.0701 -0.3647  0.1593
 3492ntf    fn419439   0.803   4.975   5.123  0.2317  0.1338 -0.0625
 3492ntf    fn419440   0.692   5.103   4.996 -0.1233 -0.2383  0.1759
 3493ntf    cn119441   3.064   4.547   3.729  0.0422  0.0768  0.2480
 3493ntf    sn219442   2.980   4.531   3.569  0.0582  0.0816  0.2391
 3493ntf    nn319443   2.891   4.661   3.565 -0.2564 -0.1468 -0.2791
 3493ntf    sn219444   2.888   4.788   3.473 -0.0120  0.1524  0.1257
 3493ntf    cn119445   2.992   4.896   3.576  0.1960  0.1413 -0.0727
 3493ntf    fn419446   3.153   4.449   3.741  0.5033  0.4737  0.0861
 3493ntf    fn419447   3.129   4.662   3.717  0.2846 -0.0847 -0.0013
 3493ntf    fn419448   2.983   4.551   3.833 -0.2346  0.0350  0.0342
 3493ntf    on519449   3.089   4.538   3.475  0.2296  0.2497  0.4476
 3493ntf    on519450   2.911   4.406   3.590  0.3371 -0.0405  0.4317
 3493ntf    on519451   2.756   4.844   3.484  0.0522  0.3475 -0.1034
 3493ntf    on519452   2.930   4.777   3.336  0.3731  0.6461  0.2019
 3493ntf    fn419453   3.101   4.848   3.634 -0.0311 -0.4805 -0.1522
 3493ntf    fn419454   3.045   4.992   3.502  0.4229  0.1993  0.1634
 3493ntf    fn419455   2.922   4.949   3.675 -0.1403 -0.8051  0.2119
 3494ntf    cn119456   6.406   4.529   0.338  0.1263  0.1009 -0.2728
 3494ntf    sn219457   6.445   4.581   0.508 -0.2566  0.0881 -0.1802
 3494ntf    nn319458   6.516   4.719   0.484 -0.4848  0.2738  0.2088
 3494ntf    sn219459   6.643   4.778   0.554 -0.0700 -0.1028 -0.2279
 3494ntf    cn119460   6.559   4.861   0.692 -0.1348 -0.2969 -0.1497
 3494ntf    fn419461   6.332   4.616   0.271 -0.2595 -0.1685 -0.2055
 3494ntf    fn419462   6.515   4.519   0.264  0.3355  0.4395 -0.0124
 3494ntf    fn419463   6.347   4.411   0.336  0.1418  0.0868  0.0871
 3494ntf    on519464   6.318   4.602   0.573 -0.3080  0.4178 -0.3857
 3494ntf    on519465   6.530   4.472   0.548 -0.1816  0.1898 -0.0606
 3494ntf    on519466   6.697   4.887   0.476 -0.3038  0.3866  0.2927
 3494ntf    on519467   6.744   4.690   0.607 -0.0394  0.4846  0.7063
 3494ntf    fn419468   6.631   4.967   0.723 -0.2801 -0.1059 -0.4593
 3494ntf    fn419469   6.439   4.907   0.662 -0.0685 -0.4097 -0.5891
 3494ntf    fn419470   6.545   4.796   0.806 -0.0945 -0.1822 -0.0792
 3495ntf    cn119471   2.806   6.319   2.312 -0.3556  0.3088  0.0755
 3495ntf    sn219472   2.835   6.146   2.262 -0.2461  0.3837 -0.1214
 3495ntf    nn319473   2.839   6.068   2.398  0.2447  0.0508 -0.3238
 3495ntf    sn219474   2.959   6.044   2.496 -0.0305 -0.0651 -0.0167
 3495ntf    cn119475   2.880   6.102   2.649  0.0636 -0.1455  0.0628
 3495ntf    fn419476   2.909   6.370   2.379 -0.1377 -0.1463  0.0909
 3495ntf    fn419477   2.789   6.398   2.207 -0.1428  0.0539 -0.1554
 3495ntf    fn419478   2.700   6.332   2.389 -0.5490 -0.3563 -0.0724
 3495ntf    on519479   2.716   6.118   2.185 -0.1754 -0.3353  0.0291
 3495ntf    on519480   2.961   6.152   2.193 -0.0306  0.1204  0.2480
 3495ntf    on519481   3.070   6.133   2.480  0.0828 -0.2103 -0.0373
 3495ntf    on519482   2.983   5.903   2.518 -0.2429 -0.0995 -0.0010
 3495ntf    fn419483   2.754   6.065   2.665  0.0102  0.0192  0.0261
 3495ntf    fn419484   2.948   6.062   2.756  0.2422  0.0189  0.0096
 3495ntf    fn419485   2.874   6.234   2.650 -0.2404 -0.1591  0.4229
 3496ntf    cn119486   3.969   2.860   1.464  0.2451 -0.2706  0.1357
 3496ntf    sn219487   3.929   2.683   1.467  0.0145 -0.2312 -0.4621
 3496ntf    nn319488   4.072   2.630   1.429  0.1223 -0.0116 -0.3663
 3496ntf    sn219489   4.167   2.532   1.507 -0.0642  0.0151 -0.1020
 3496ntf    cn119490   4.307   2.649   1.510 -0.1027  0.0542  0.1740
 3496ntf    fn419491   4.048   2.881   1.568  0.2190 -0.1495  0.1314
 3496ntf    fn419492   4.030   2.893   1.352 -0.0173 -0.2563 -0.0033
 3496ntf    fn419493   3.860   2.934   1.479  0.0595 -0.5605  0.2263
 3496ntf    on519494   3.878   2.649   1.598  0.0134  0.6080 -0.2405
 3496ntf    on519495   3.841   2.668   1.354 -0.4020  0.2106 -0.2027
 3496ntf    on519496   4.217   2.424   1.426 -0.2131 -0.0387 -0.1211
 3496ntf    on519497   4.132   2.515   1.646 -0.5587  0.0998 -0.2150
 3496ntf    fn419498   4.283   2.746   1.597 -0.1053  0.3182 -0.1198
 3496ntf    fn419499   4.421   2.593   1.546 -0.0795 -0.0125 -0.0014
 3496ntf    fn419500   4.325   2.707   1.392  0.2712  0.2880  0.3432
 3497ntf    cn119501   2.672   2.356   1.808  0.0850  0.0874 -0.4757
 3497ntf    sn219502   2.513   2.373   1.721 -0.1373 -0.4398 -0.1786
 3497ntf    nn319503   2.516   2.525   1.684 -0.2924 -0.3278  0.2692
 3497ntf    sn219504   2.405   2.636   1.687  0.0471  0.0271 -0.1310
 3497ntf    cn119505   2.444   2.722   1.843 -0.3619 -0.0503  0.0152
 3497ntf    fn419506   2.781   2.359   1.735  0.0238 -0.2844 -0.5852
 3497ntf    fn419507   2.688   2.439   1.910 -0.0523  0.2744 -0.6048
 3497ntf    fn419508   2.683   2.232   1.852 -0.4871  0.2273  0.0924
 3497ntf    on519509   2.531   2.293   1.602 -0.1390 -0.5599 -0.0985
 3497ntf    on519510   2.424   2.324   1.823  0.0039 -0.0516  0.1300
 3497ntf    on519511   2.272   2.583   1.690  0.4882 -1.1118 -0.1823
 3497ntf    on519512   2.438   2.736   1.588 -0.3895  0.0829 -0.2182
 3497ntf    fn419513   2.568   2.769   1.838 -0.4917  0.2683 -0.3421
 3497ntf    fn419514   2.366   2.825   1.872  0.0977  0.2452  0.2230
 3497ntf    fn419515   2.444   2.637   1.944 -0.1514  0.4416  0.4335
 3498ntf    cn119516   7.012   3.057   4.838 -0.0254 -0.3164 -0.0309
 3498ntf    sn219517   6.946   3.074   5.006  0.0591 -0.0350 -0.0256
 3498ntf    nn319518   6.817   2.988   4.980 -0.0437 -0.1434  0.7963
 3498ntf    sn219519   6.673   3.046   4.958 -0.0711 -0.5386 -0.1105
 3498ntf    cn119520   6.580   2.890   4.973 -0.1965 -0.4599 -0.0696
 3498ntf    fn419521   7.136   3.102   4.830 -0.1457  0.1542  0.7169
 3498ntf    fn419522   7.011   2.934   4.788  0.1970 -0.2130 -0.2925
 3498ntf    fn419523   6.935   3.129   4.758 -0.5540  0.0517  0.8012
 3498ntf    on519524   7.046   3.000   5.079  0.3559  0.1126 -0.2792
 3498ntf    on519525   6.923   3.215   5.024 -0.5497 -0.0593 -0.5689
 3498ntf    on519526   6.648   3.080   4.820 -0.0616  0.2651  0.0817
 3498ntf    on519527   6.622   3.127   5.066 -0.1013 -0.4924 -0.1593
 3498ntf    fn419528   6.589   2.811   4.867  0.0895 -0.3007 -0.1659
 3498ntf    fn419529   6.612   2.812   5.075 -0.0214 -0.0349  0.2024
 3498ntf    fn419530   6.450   2.916   4.981 -0.0352  0.3024  0.1332
 3499ntf    cn119531   5.164   1.334   1.328  0.1617 -0.1182  0.2594
 3499ntf    sn219532   5.017   1.308   1.224  0.3440  0.0267 -0.0377
 3499ntf    nn319533   4.930   1.235   1.333 -0.2926 -0.1455 -0.6522
 3499ntf    sn219534   4.941   1.080   1.360 -0.1137 -0.0180  0.0248
 3499ntf    cn119535   4.798   1.011   1.272 -0.2039  0.1487  0.0396
 3499ntf    fn419536   5.226   1.221   1.358  0.1629 -0.1494  0.1410
 3499ntf    fn419537   5.256   1.408   1.268  0.1806 -0.5441 -0.2504
 3499ntf    fn419538   5.131   1.394   1.440  0.6348 -0.2975  0.4971
 3499ntf    on519539   4.974   1.440   1.188  0.2803 -0.1131 -0.4793
 3499ntf    on519540   5.061   1.227   1.113 -0.0589 -0.4733  0.1633
 3499ntf    on519541   4.912   1.044   1.496 -0.1147 -1.2772 -0.2960
 3499ntf    on519542   5.051   1.008   1.301  0.3730  0.5482  0.2236
 3499ntf    fn419543   4.819   1.021   1.142 -0.2280  0.6858  0.0767
 3499ntf    fn419544   4.779   0.883   1.301 -0.0860  0.0822 -0.1759
 3499ntf    fn419545   4.684   1.072   1.302 -0.2278 -0.0075  0.2716
 3500ntf    cn119546   3.943   0.504   7.081 -0.1815 -0.3290 -0.0796
 3500ntf    sn219547   3.941   0.322   7.075  0.2719 -0.3428  0.1949
 3500ntf    nn319548   3.996   0.302   6.929  0.0025 -0.3784  0.0984
 3500ntf    sn219549   4.142   0.297   6.872  0.0376  0.1459  0.1299
 3500ntf    cn119550   4.159   0.117   6.850 -0.4628  0.1396 -0.2152
 3500ntf    fn419551   3.896   0.551   7.196  0.3465 -0.1739  0.0736
 3500ntf    fn419552   4.059   0.562   7.058 -0.0801 -0.5832 -0.2075
 3500ntf    fn419553   3.853   0.553   6.997 -0.0102 -0.0729 -0.1162
 3500ntf    on519554   4.026   0.294   7.188  0.3884  0.3266  0.2790
 3500ntf    on519555   3.803   0.282   7.075  0.1748 -0.0097 -0.2503
 3500ntf    on519556   4.241   0.326   6.974  0.5151 -0.9949  0.0063
 3500ntf    on519557   4.161   0.343   6.737  0.4003 -0.5286 -0.0517
 3500ntf    fn419558   4.273   0.093   6.788  0.1954  0.9549  0.6387
 3500ntf    fn419559   4.161   0.048   6.963  0.1004 -0.1866 -0.4235
 3500ntf    fn419560   4.058   0.067   6.780 -0.1363 -0.6266 -0.1451
 3501ntf    cn119561   6.171   2.459   2.812 -0.0241  0.0467  0.2218
 3501ntf    sn219562   6.155   2.319   2.696  0.0456  0.1321  0.1092
 3501ntf    nn319563   6.051   2.237   2.780 -0.0759 -0.4352 -0.5955
 3501ntf    sn219564   5.895   2.221   2.771 -0.1713  0.0542  0.1583
 3501ntf    cn119565   5.872   2.061   2.688  0.1733  0.3270 -0.4722
 3501ntf    fn419566   6.246   2.546   2.747  0.1831 -0.2216  0.1019
 3501ntf    fn419567   6.054   2.513   2.841  0.0648  0.1763  0.3417
 3501ntf    fn419568   6.225   2.432   2.930 -0.0675 -0.1430  0.1998
 3501ntf    on519569   6.119   2.373   2.568  0.4439 -0.2238 -0.1531
 3501ntf    on519570   6.285   2.257   2.703  0.0200  0.0942  0.2727
 3501ntf    on519571   5.828   2.320   2.691  0.2047  0.3022  0.1461
 3501ntf    on519572   5.842   2.190   2.901  0.3299 -0.3406  0.2702
 3501ntf    fn419573   5.751   2.009   2.696  0.3819 -0.0716  0.2112
 3501ntf    fn419574   5.899   2.077   2.560  0.4179  0.2715 -0.4281
 3501ntf    fn419575   5.963   1.976   2.732  0.2698  0.5461 -0.2428
 3502ntf    cn119576   5.715   0.528   1.579 -0.1174 -0.1891  0.1635
 3502ntf    sn219577   5.652   0.640   1.451  0.1864  0.1404  0.3031
 3502ntf    nn319578   5.699   0.569   1.320 -0.2983  0.3313  0.0229
 3502ntf    sn219579   5.768   0.638   1.197  0.2199 -0.1267  0.0496
 3502ntf    cn119580   5.938   0.658   1.259  0.2171  0.1762 -0.0357
 3502ntf    fn419581   5.665   0.405   1.577 -0.2599 -0.1281  0.0318
 3502ntf    fn419582   5.847   0.520   1.583 -0.1076 -0.0424  0.1089
 3502ntf    fn419583   5.690   0.567   1.703  0.0447  0.3243  0.0353
 3502ntf    on519584   5.509   0.650   1.465  0.0618  0.0768 -0.8254
 3502ntf    on519585   5.723   0.762   1.483 -0.2299  0.3524  0.4293
 3502ntf    on519586   5.724   0.773   1.171  0.0399 -0.2658 -0.3672
 3502ntf    on519587   5.774   0.555   1.079 -0.1909  0.2911 -0.2680
 3502ntf    fn419588   6.019   0.691   1.159 -0.0319 -0.3481 -0.4167
 3502ntf    fn419589   5.954   0.753   1.349 -0.5577  0.2646  0.0101
 3502ntf    fn419590   5.987   0.553   1.323 -0.7508 -0.1612  0.1727
 3503ntf    cn119591   5.511   1.285   5.185  0.5296 -0.0579 -0.6241
 3503ntf    sn219592   5.633   1.405   5.122  0.3808  0.4124 -0.0318
 3503ntf    nn319593   5.614   1.367   4.971  0.0282  0.8161 -0.0873
 3503ntf    sn219594   5.506   1.418   4.868 -0.3819  0.0391 -0.0471
 3503ntf    cn119595   5.615   1.514   4.759  0.0593 -0.3795  0.0166
 3503ntf    fn419596   5.456   1.326   5.298  0.4397 -0.5301 -0.4963
 3503ntf    fn419597   5.403   1.285   5.110 -0.2179 -0.0367  0.4376
 3503ntf    fn419598   5.549   1.159   5.197  0.1917 -0.1031  0.0166
 3503ntf    on519599   5.579   1.532   5.164  0.8163  0.4911  0.3020
 3503ntf    on519600   5.761   1.370   5.179  0.2198 -0.3443 -0.1231
 3503ntf    on519601   5.403   1.506   4.916  0.3707  0.7690  0.2411
 3503ntf    on519602   5.464   1.310   4.782 -0.5255 -0.0299  0.1090
 3503ntf    fn419603   5.700   1.429   4.704 -0.0220 -0.3394 -0.1735
 3503ntf    fn419604   5.547   1.578   4.665  0.2333  0.0952  0.2117
 3503ntf    fn419605   5.693   1.595   4.828  0.1690 -0.5040  0.0381
 3504ntf    cn119606   5.729   5.656   5.854  0.0821 -0.5089 -0.1105
 3504ntf    sn219607   5.789   5.703   6.019 -0.0274 -0.0404 -0.2006
 3504ntf    nn319608   5.930   5.763   5.983 -0.0759 -0.3056 -0.8451
 3504ntf    sn219609   6.072   5.738   6.044 -0.3909  0.1821  0.1103
 3504ntf    cn119610   6.132   5.909   6.065 -0.3947  0.1878  0.0784
 3504ntf    fn419611   5.601   5.622   5.849 -0.0111 -0.1750 -0.0236
 3504ntf    fn419612   5.734   5.759   5.770 -0.0353 -0.2501  0.1971
 3504ntf    fn419613   5.796   5.561   5.791  0.0182 -0.4242 -0.3070
 3504ntf    on519614   5.690   5.800   6.058 -0.7536 -0.7927 -0.1295
 3504ntf    on519615   5.784   5.574   6.083  0.3321  0.1776  0.2739
 3504ntf    on519616   6.164   5.688   5.944 -0.5783 -0.3689  0.2145
 3504ntf    on519617   6.081   5.677   6.174  0.2852 -0.1385 -0.0807
 3504ntf    fn419618   6.039   5.986   6.120 -0.1776  0.2139  0.4059
 3504ntf    fn419619   6.244   5.914   6.135 -0.1203  0.0060 -0.3445
 3504ntf    fn419620   6.157   5.959   5.945  0.4087  0.0446  0.1853
 3505ntf    cn119621   3.019   5.575   6.080 -0.0727 -0.7688  0.2240
 3505ntf    sn219622   2.837   5.580   6.077 -0.0488 -0.0400 -0.2473
 3505ntf    nn319623   2.811   5.474   5.963  0.0811 -0.2973 -0.0391
 3505ntf    sn219624   2.746   5.491   5.821 -0.0978 -0.1499  0.0581
 3505ntf    cn119625   2.888   5.543   5.720 -0.1107  0.0956  0.1665
 3505ntf    fn419626   3.068   5.688   6.129  0.2019 -0.2604 -1.1790
 3505ntf    fn419627   3.062   5.469   6.147  0.1922 -0.4624  0.5384
 3505ntf    fn419628   3.069   5.554   5.960 -0.0433  0.4401  0.0110
 3505ntf    on519629   2.799   5.536   6.209  1.0287  0.4686  0.2458
 3505ntf    on519630   2.812   5.719   6.051  0.1000 -0.0681 -0.5524
 3505ntf    on519631   2.659   5.605   5.810 -0.0086 -0.0997 -0.1166
 3505ntf    on519632   2.711   5.366   5.759 -0.0517 -0.1193 -0.0282
 3505ntf    fn419633   2.938   5.656   5.766  0.2401 -0.0207  0.0739
 3505ntf    fn419634   2.980   5.448   5.722 -0.6221 -0.4023  0.6333
 3505ntf    fn419635   2.863   5.558   5.591  0.1189 -0.4033  0.0615
 3506ntf    cn119636   0.543   6.944   4.405  0.0710 -0.2308 -0.1011
 3506ntf    sn219637   0.629   7.101   4.372  0.1150 -0.2345 -0.0005
 3506ntf    nn319638   0.565   7.138   4.233  0.4636  0.1842 -0.0509
 3506ntf    sn219639   0.435   7.221   4.201  0.0311 -0.3320  0.3499
 3506ntf    cn119640   0.503   7.390   4.206 -0.1197 -0.2616  0.0085
 3506ntf    fn419641   0.601   6.871   4.499 -0.2035  0.0318  0.2743
 3506ntf    fn419642   0.415   6.962   4.431  0.1034  0.1646 -0.1983
 3506ntf    fn419643   0.533   6.862   4.302  0.6660 -0.3228 -0.0876
 3506ntf    on519644   0.591   7.178   4.488 -0.0683 -0.1537 -0.1127
 3506ntf    on519645   0.767   7.061   4.361  0.1087 -0.1001 -0.6220
 3506ntf    on519646   0.329   7.218   4.299 -0.6008  0.8325 -0.2808
 3506ntf    on519647   0.404   7.202   4.062 -0.3419  0.0163  0.3839
 3506ntf    fn419648   0.410   7.484   4.204  0.3982  0.2584  0.3301
 3506ntf    fn419649   0.562   7.404   4.324  0.0680  0.2416 -0.1412
 3506ntf    fn419650   0.600   7.425   4.123 -0.2233  0.0001 -0.0029
 3507ntf    cn119651   2.576   6.962   3.828 -0.1042  0.5163  0.2864
 3507ntf    sn219652   2.440   6.878   3.916  0.0887  0.0805  0.1732
 3507ntf    nn319653   2.317   6.955   3.856  0.3164  0.2512 -0.0809
 3507ntf    sn219654   2.255   7.094   3.895 -0.0282  0.0300  0.1633
 3507ntf    cn119655   2.082   7.051   3.860 -0.0417  0.1833  0.0438
 3507ntf    fn419656   2.577   6.940   3.697 -0.3264  0.1949  0.3346
 3507ntf    fn419657   2.564   7.093   3.829 -0.0109  0.5259  0.1621
 3507ntf    fn419658   2.697   6.941   3.876  0.0665  0.3245 -0.2142
 3507ntf    on519659   2.445   6.740   3.876  0.0795  0.0140  0.4016
 3507ntf    on519660   2.458   6.905   4.057 -0.1157  0.5125  0.1181
 3507ntf    on519661   2.280   7.197   3.798 -0.3143 -0.1970 -0.1547
 3507ntf    on519662   2.254   7.116   4.038 -0.8494  0.0776  0.1564
 3507ntf    fn419663   2.002   7.152   3.892  0.4117  0.4453  0.3540
 3507ntf    fn419664   2.063   7.029   3.731 -0.9937  1.0029  0.0301
 3507ntf    fn419665   2.044   6.940   3.920  0.0520 -0.1262 -0.4655
 3508ntf    cn119666   3.110   2.525   1.925 -0.4005  0.0971 -0.1208
 3508ntf    sn219667   3.140   2.703   1.943 -0.1799  0.0353  0.1411
 3508ntf    nn319668   3.128   2.740   1.791  0.1013 -0.3561  0.0236
 3508ntf    sn219669   2.999   2.790   1.717  0.1895 -0.2053 -0.0308
 3508ntf    cn119670   3.060   2.881   1.573  0.2052 -0.1521  0.0093
 3508ntf    fn419671   3.207   2.454   1.870 -0.3295 -0.0895  0.2380
 3508ntf    fn419672   3.092   2.464   2.042 -0.3661  0.2916 -0.0138
 3508ntf    fn419673   2.995   2.510   1.861 -0.0734 -0.2269 -0.6373
 3508ntf    on519674   3.043   2.760   2.034 -0.3555  0.0831 -0.0735
 3508ntf    on519675   3.277   2.705   1.988 -0.1139  0.2579 -0.0665
 3508ntf    on519676   2.933   2.893   1.793 -0.0575 -0.1503 -0.3181
 3508ntf    on519677   2.917   2.689   1.654 -0.6711  0.2925  0.2722
 3508ntf    fn419678   3.101   3.005   1.593  0.6105 -0.2899  0.0587
 3508ntf    fn419679   3.162   2.817   1.518  0.2508  0.0419 -0.1333
 3508ntf    fn419680   2.962   2.891   1.485  0.1232 -0.2844  0.0852
 3509ntf    cn119681   6.570   3.189   6.881  0.1233  0.4299 -0.0217
 3509ntf    sn219682   6.698   3.207   7.008 -0.0247  0.5313  0.1130
 3509ntf    nn319683   6.804   3.283   6.921  0.6749 -0.5185  0.0184
 3509ntf    sn219684   6.849   3.433   6.935 -0.4542 -0.1901  0.2392
 3509ntf    cn119685   6.988   3.398   7.047 -0.2042  0.1696  0.0402
 3509ntf    fn419686   6.553   3.307   6.825  0.1117  0.7260  0.6025
 3509ntf    fn419687   6.594   3.099   6.787  0.3983 -0.0171  0.4723
 3509ntf    fn419688   6.450   3.160   6.928  0.1394  0.3699 -0.0184
 3509ntf    on519689   6.630   3.274   7.116  0.5176  0.2025  0.6673
 3509ntf    on519690   6.752   3.076   7.036  0.2171  0.6121  0.0266
 3509ntf    on519691   6.766   3.530   7.003 -0.5979 -0.5254  0.5438
 3509ntf    on519692   6.919   3.474   6.817  0.2494  0.0725  0.7408
 3509ntf    fn419693   7.041   3.283   7.010 -0.2378  0.0347  0.4100
 3509ntf    fn419694   7.088   3.486   7.047 -0.0637  0.0102  0.2796
 3509ntf    fn419695   6.948   3.386   7.172 -0.3582 -0.0256 -0.0283
 3510ntf    cn119696   1.772   5.504   3.381 -0.2371 -0.0190 -0.4240
 3510ntf    sn219697   1.915   5.412   3.445 -0.4003 -0.0952 -0.1669
 3510ntf    nn319698   2.017   5.530   3.464 -0.1105 -0.4291  0.3623
 3510ntf    sn219699   2.172   5.539   3.442 -0.1597 -0.0293  0.1791
 3510ntf    cn119700   2.189   5.621   3.281 -0.2224  0.0369  0.2060
 3510ntf    fn419701   1.762   5.621   3.442  0.1752 -0.2940  0.1840
 3510ntf    fn419702   1.783   5.526   3.251  0.5060  0.1624 -0.3308
 3510ntf    fn419703   1.658   5.438   3.400 -0.2335  0.0214 -0.2663
 3510ntf    on519704   1.864   5.361   3.570  0.1602  0.6609  0.3803
 3510ntf    on519705   1.940   5.313   3.343  0.1112 -0.3089  0.1634
 3510ntf    on519706   2.238   5.414   3.417  0.0748  0.0902  0.1970
 3510ntf    on519707   2.238   5.632   3.531 -0.0818  0.0670  0.0202
 3510ntf    fn419708   2.130   5.738   3.269  0.1885  0.2621  0.3413
 3510ntf    fn419709   2.313   5.637   3.235 -0.1459  0.1104  0.4347
 3510ntf    fn419710   2.129   5.543   3.193  0.1498  0.2134 -0.2100
 3511ntf    cn119711   4.532   5.639   5.528 -0.1749  0.0123 -0.3322
 3511ntf    sn219712   4.696   5.717   5.522 -0.2089  0.0977 -0.1797
 3511ntf    nn319713   4.667   5.833   5.623  0.2299 -0.1296  0.2098
 3511ntf    sn219714   4.614   5.978   5.597  0.3993 -0.1334 -0.1570
 3511ntf    cn119715   4.777   6.059   5.599  0.2887  0.0965 -0.3440
 3511ntf    fn419716   4.528   5.528   5.457 -0.8649  0.0967 -0.4380
 3511ntf    fn419717   4.505   5.603   5.653  0.1777  0.6355 -0.0703
 3511ntf    fn419718   4.436   5.717   5.482  0.0252  0.3503 -0.1745
 3511ntf    on519719   4.787   5.622   5.580  0.1016  0.3574 -0.2389
 3511ntf    on519720   4.719   5.751   5.384  0.2845 -0.1517 -0.1597
 3511ntf    on519721   4.551   6.042   5.710  0.1570 -0.2788 -0.2080
 3511ntf    on519722   4.560   6.003   5.465  0.2560 -0.3159 -0.1315
 3511ntf    fn419723   4.780   6.176   5.537  0.3974  0.2567 -0.0391
 3511ntf    fn419724   4.824   6.093   5.718  0.2613  0.2357 -0.3726
 3511ntf    fn419725   4.870   5.988   5.538  0.0850 -0.3833 -0.1032
 3512ntf    cn119726   3.870   4.783   4.746  0.0005 -0.1537 -0.1374
 3512ntf    sn219727   3.704   4.724   4.790 -0.1019  0.2964  0.0887
 3512ntf    nn319728   3.636   4.847   4.859 -0.2483  0.3615 -0.1728
 3512ntf    sn219729   3.600   4.864   5.011 -0.2898  0.1473 -0.1587
 3512ntf    cn119730   3.567   5.043   5.019 -0.2030  0.1620 -0.1433
 3512ntf    fn419731   3.945   4.686   4.696  0.6772  0.4606 -0.3412
 3512ntf    fn419732   3.865   4.878   4.655  0.0047 -0.0060  0.0153
 3512ntf    fn419733   3.946   4.825   4.846 -0.1564  0.0648 -0.1092
 3512ntf    on519734   3.645   4.692   4.663 -0.0263  0.4504  0.0148
 3512ntf    on519735   3.733   4.605   4.866 -0.5458 -0.0193 -0.2346
 3512ntf    on519736   3.711   4.847   5.100 -0.4606 -0.2993 -0.0294
 3512ntf    on519737   3.471   4.806   5.040 -0.2796 -0.1807 -0.7426
 3512ntf    fn419738   3.558   5.079   5.147 -0.4176 -0.5521  0.0477
 3512ntf    fn419739   3.658   5.115   4.957 -0.0650  0.0003 -0.1277
 3512ntf    fn419740   3.452   5.081   4.967 -0.3566  0.3691  0.3351
 3513ntf    cn119741   0.120   3.443   5.362  0.0768 -0.8175 -0.0060
 3513ntf    sn219742   0.061   3.542   5.502  0.5530 -0.2056 -0.2311
 3513ntf    nn319743   0.032   3.678   5.429 -0.3746 -0.1570  0.2050
 3513ntf    sn219744  -0.089   3.732   5.345 -0.0090  0.0947 -0.1662
 3513ntf    cn119745  -0.178   3.822   5.475  0.5168  0.2837  0.0657
 3513ntf    fn419746   0.245   3.475   5.331 -0.4234  0.3777 -0.8943
 3513ntf    fn419747   0.127   3.313   5.387  0.3702 -0.7463  0.2837
 3513ntf    fn419748   0.050   3.465   5.252  0.1293  0.0532  0.1270
 3513ntf    on519749  -0.056   3.472   5.549  0.7513 -0.3375  0.0716
 3513ntf    on519750   0.169   3.551   5.598  0.2186 -0.1731  0.1468
 3513ntf    on519751  -0.183   3.635   5.293 -0.1673 -0.1284  0.5193
 3513ntf    on519752  -0.046   3.835   5.254 -0.4631  0.3728 -0.0655
 3513ntf    fn419753  -0.118   3.934   5.513  0.0222  0.4839  0.2648
 3513ntf    fn419754  -0.303   3.852   5.442  0.5078  0.0907 -0.0748
 3513ntf    fn419755  -0.193   3.744   5.581 -0.1571  0.2611 -0.0425
 3514ntf    cn119756   3.421   6.768   0.062 -0.3613  0.1417 -0.2649
 3514ntf    sn219757   3.568   6.691  -0.013 -0.2893  0.1102 -0.0941
 3514ntf    nn319758   3.569   6.757  -0.155 -0.1705  0.6153  0.1418
 3514ntf    sn219759   3.652   6.883  -0.198  0.4805  0.2187  0.2278
 3514ntf    cn119760   3.638   6.884  -0.379  0.1040 -0.1133  0.2551
 3514ntf    fn419761   3.400   6.701   0.174 -0.7894  0.2868 -0.2565
 3514ntf    fn419762   3.439   6.897   0.083  0.1165  0.0119  0.1459
 3514ntf    fn419763   3.317   6.752  -0.018 -0.4962 -0.3772  0.0045
 3514ntf    on519764   3.674   6.722   0.079 -0.5893  0.2456  0.2088
 3514ntf    on519765   3.524   6.554  -0.027 -1.0347  0.3277  0.0533
 3514ntf    on519766   3.794   6.860  -0.193  0.3785 -0.4421  0.1869
 3514ntf    on519767   3.610   7.012  -0.149 -0.4042 -0.1429  0.4389
 3514ntf    fn419768   3.706   6.984  -0.433  0.2234 -0.3331 -0.0072
 3514ntf    fn419769   3.668   6.770  -0.439 -0.2809 -0.0887  0.0130
 3514ntf    fn419770   3.512   6.906  -0.413  0.3232  0.2545 -0.3411
 3515ntf    cn119771   5.183   2.648   5.383  0.0980 -0.1274  0.0068
 3515ntf    sn219772   5.298   2.513   5.344  0.2295  0.0042 -0.0612
 3515ntf    nn319773   5.274   2.398   5.448 -0.0401 -0.0894 -0.2275
 3515ntf    sn219774   5.296   2.245   5.425  0.0572 -0.0641 -0.3002
 3515ntf    cn119775   5.131   2.204   5.361  0.0898 -0.3038 -0.2330
 3515ntf    fn419776   5.056   2.618   5.362 -0.0215  0.3616  0.0219
 3515ntf    fn419777   5.185   2.667   5.514 -0.2321 -0.0091 -0.0050
 3515ntf    fn419778   5.213   2.765   5.329  0.1906 -0.1701 -0.0352
 3515ntf    on519779   5.258   2.481   5.209  0.0076  0.0407 -0.0030
 3515ntf    on519780   5.428   2.575   5.358  0.2778 -0.0829 -0.1245
 3515ntf    on519781   5.301   2.173   5.549 -0.1280 -0.1270 -0.3297
 3515ntf    on519782   5.389   2.212   5.319  0.4111 -0.1742  0.0436
 3515ntf    fn419783   5.105   2.246   5.239 -0.5403  0.4963  0.1600
 3515ntf    fn419784   5.114   2.074   5.348  0.0237 -0.3152 -0.0355
 3515ntf    fn419785   5.038   2.248   5.445  0.0817 -0.4232 -0.1795
 3516ntf    cn119786   6.923   3.248   1.365  0.1497 -0.1140 -0.2392
 3516ntf    sn219787   6.882   3.290   1.193  0.1231  0.1281 -0.1735
 3516ntf    nn319788   6.799   3.423   1.206  0.1668  0.1821 -0.4534
 3516ntf    sn219789   6.840   3.574   1.194  0.1621  0.2227  0.0204
 3516ntf    cn119790   6.780   3.642   1.351 -0.3703 -0.2007  0.0039
 3516ntf    fn419791   7.005   3.337   1.417  0.2377  0.1493 -0.8214
 3516ntf    fn419792   6.820   3.230   1.446  0.7479 -0.3151  0.4901
 3516ntf    fn419793   6.983   3.130   1.372 -0.5357 -0.4159  0.8739
 3516ntf    on519794   7.012   3.297   1.132  0.2035  0.2197  0.0048
 3516ntf    on519795   6.801   3.177   1.155  0.4950 -0.1920 -0.0142
 3516ntf    on519796   6.754   3.640   1.098 -0.0723  0.2522  0.2502
 3516ntf    on519797   6.978   3.614   1.192  0.0693  0.5246 -0.7279
 3516ntf    fn419798   6.654   3.608   1.371 -0.4656  0.1881  0.0669
 3516ntf    fn419799   6.852   3.600   1.454  0.2489  0.2749 -0.2304
 3516ntf    fn419800   6.779   3.774   1.360 -0.1172 -0.1897 -0.1171
 3517ntf    cn119801   4.459   3.448   2.229  0.1189  0.1315  0.1674
 3517ntf    sn219802   4.511   3.381   2.390  0.2933  0.1766  0.1304
 3517ntf    nn319803   4.414   3.257   2.387  0.2027  0.2390  0.4287
 3517ntf    sn219804   4.442   3.110   2.340 -0.2901  0.2603  0.0654
 3517ntf    cn119805   4.488   3.040   2.501  0.3062 -0.2282 -0.3117
 3517ntf    fn419806   4.337   3.499   2.231 -0.2336 -0.6718 -0.3625
 3517ntf    fn419807   4.533   3.544   2.177 -0.5844  0.2127 -0.7097
 3517ntf    fn419808   4.450   3.357   2.133 -0.3462  0.5237 -0.1633
 3517ntf    on519809   4.653   3.360   2.382  0.1630 -0.5679 -0.2956
 3517ntf    on519810   4.459   3.478   2.483 -0.0533 -0.0347  0.1618
 3517ntf    on519811   4.557   3.104   2.254 -0.5487 -0.1175 -0.2554
 3517ntf    on519812   4.322   3.041   2.300 -0.0998  0.2616 -0.5149
 3517ntf    fn419813   4.399   3.071   2.595  0.3618 -0.2558 -0.2495
 3517ntf    fn419814   4.492   2.908   2.497 -0.4259 -0.2825  0.3896
 3517ntf    fn419815   4.610   3.076   2.538  0.2109 -0.1364 -0.0804
 3518ntf    cn119816   5.281   4.683   4.296  0.2908 -0.1942 -0.2797
 3518ntf    sn219817   5.304   4.689   4.476 -0.5053  0.1196 -0.1841
 3518ntf    nn319818   5.279   4.538   4.511  0.1230 -0.0029 -0.2499
 3518ntf    sn219819   5.135   4.481   4.540  0.0663  0.2309 -0.0690
 3518ntf    cn119820   5.139   4.506   4.720 -0.2904 -0.2152 -0.0003
 3518ntf    fn419821   5.168   4.617   4.275  0.1681 -0.1196  0.1392
 3518ntf    fn419822   5.260   4.797   4.232 -0.3027  0.2883  0.7623
 3518ntf    fn419823   5.384   4.622   4.239  0.2598 -0.7487  0.2497
 3518ntf    on519824   5.445   4.718   4.488 -0.4606 -0.1830  0.0196
 3518ntf    on519825   5.215   4.793   4.522 -0.0539  0.6842 -0.5678
 3518ntf    on519826   5.131   4.338   4.529  0.2686  0.2195 -0.0013
 3518ntf    on519827   5.022   4.555   4.490 -0.4685 -0.4864  0.0810
 3518ntf    fn419828   5.241   4.447   4.778 -0.2600  0.0104  0.1763
 3518ntf    fn419829   5.139   4.637   4.737  0.1058 -0.1881 -0.2046
 3518ntf    fn419830   5.037   4.450   4.783  0.0581  0.1050  0.8514
 3519ntf    cn119831   5.443   0.322   1.301 -0.3885  0.2363 -0.1382
 3519ntf    sn219832   5.325   0.215   1.389 -0.0029 -0.0222  0.0673
 3519ntf    nn319833   5.415   0.153   1.502 -0.2575 -0.3046  0.1158
 3519ntf    sn219834   5.406   0.192   1.654 -0.6745 -0.1376  0.0478
 3519ntf    cn119835   5.306   0.050   1.707 -0.6090 -0.1374  0.1697
 3519ntf    fn419836   5.526   0.372   1.391  0.2735 -0.8285 -0.1365
 3519ntf    fn419837   5.517   0.260   1.211  0.3467 -0.2470  0.7737
 3519ntf    fn419838   5.382   0.420   1.237 -0.2187  0.1079 -0.5018
 3519ntf    on519839   5.222   0.306   1.432 -0.2170 -0.6798  0.9852
 3519ntf    on519840   5.295   0.117   1.288 -0.6347  0.2363  0.0016
 3519ntf    on519841   5.340   0.313   1.698 -0.3624 -0.0659  0.3210
 3519ntf    on519842   5.531   0.162   1.719 -0.4801  0.0401 -0.2427
 3519ntf    fn419843   5.361  -0.068   1.682 -0.3813 -0.0365  0.1836
 3519ntf    fn419844   5.278   0.057   1.836  0.1513 -0.2603  0.3510
 3519ntf    fn419845   5.191   0.056   1.643 -0.1444  0.9342 -0.5917
 3520ntf    cn119846   5.945   1.770   0.465 -0.0133  0.2418 -0.2045
 3520ntf    sn219847   5.808   1.889   0.468 -0.2063  0.0106  0.1356
 3520ntf    nn319848   5.831   1.965   0.603  0.0044  0.5943 -0.2284
 3520ntf    sn219849   5.771   1.931   0.744  0.4248  0.4034 -0.0939
 3520ntf    cn119850   5.605   2.004   0.738 -0.0766 -0.7215 -0.1339
 3520ntf    fn419851   6.064   1.824   0.441 -0.2062  0.4937 -0.5992
 3520ntf    fn419852   5.958   1.697   0.575  0.0407 -0.4252 -0.6475
 3520ntf    fn419853   5.931   1.687   0.363 -0.4308  0.1586 -0.0796
 3520ntf    on519854   5.841   1.985   0.366 -0.1719  0.0728  0.2051
 3520ntf    on519855   5.690   1.806   0.454 -0.1971 -0.0291  0.2845
 3520ntf    on519856   5.831   2.004   0.853  0.0799 -0.5534  0.7498
 3520ntf    on519857   5.757   1.789   0.762  0.0218  0.3960 -0.4613
 3520ntf    fn419858   5.544   2.016   0.855 -0.3312 -0.1295 -0.3226
 3520ntf    fn419859   5.604   2.129   0.695  0.5189 -0.6260  0.1255
 3520ntf    fn419860   5.518   1.944   0.658 -0.1866 -0.6444 -0.0724
 3521ntf    cn119861   6.982   4.231   4.938 -0.2136 -0.3385 -0.0469
 3521ntf    sn219862   7.162   4.229   4.917 -0.2320 -0.1505 -0.2393
 3521ntf    nn319863   7.213   4.344   5.011  0.2877 -0.5017 -0.0831
 3521ntf    sn219864   7.336   4.436   4.978  0.3330 -0.3995  0.3612
 3521ntf    cn119865   7.439   4.419   5.127  0.4250 -0.0230  0.3412
 3521ntf    fn419866   6.935   4.352   4.912  0.1513 -0.2503 -0.3107
 3521ntf    fn419867   6.919   4.146   4.858 -0.3067 -0.1771 -0.1467
 3521ntf    fn419868   6.951   4.197   5.062 -0.4176  0.0815  0.0208
 3521ntf    on519869   7.194   4.095   4.960  0.1642  0.2578  0.7798
 3521ntf    on519870   7.158   4.244   4.774  0.0540 -0.4872 -0.2844
 3521ntf    on519871   7.307   4.577   4.970  0.0076 -0.4323  0.8810
 3521ntf    on519872   7.426   4.383   4.879  0.3588  0.8084 -0.2820
 3521ntf    fn419873   7.379   4.463   5.236  0.0707 -0.2192  0.2289
 3521ntf    fn419874   7.465   4.292   5.154  0.0677 -0.1506  0.0927
 3521ntf    fn419875   7.560   4.471   5.115  0.0701  0.8402  0.4876
 3522ntf    cn119876   2.746   5.902   4.312  0.0419  0.7474  0.0896
 3522ntf    sn219877   2.759   5.998   4.158  0.4531 -0.0027 -0.3472
 3522ntf    nn319878   2.620   6.070   4.163  0.5219  0.0896  0.3797
 3522ntf    sn219879   2.589   6.222   4.185 -0.1177 -0.0081  0.2022
 3522ntf    cn119880   2.549   6.241   4.362  0.0347  0.3043  0.2054
 3522ntf    fn419881   2.847   5.820   4.335 -0.2338  0.3968  0.0674
 3522ntf    fn419882   2.732   5.988   4.412  0.2395  0.0299  0.7386
 3522ntf    fn419883   2.637   5.828   4.310  0.3757  0.2359  0.5027
 3522ntf    on519884   2.878   6.076   4.179 -0.0352  0.4904  0.6629
 3522ntf    on519885   2.769   5.895   4.058  0.1844 -0.0559 -0.3193
 3522ntf    on519886   2.465   6.262   4.124 -0.0750 -0.5612 -0.2485
 3522ntf    on519887   2.701   6.313   4.171 -0.6976  0.6781 -0.0255
 3522ntf    fn419888   2.659   6.213   4.430  0.1639  0.4551  0.0598
 3522ntf    fn419889   2.514   6.366   4.386 -0.1038  0.2823  0.1238
 3522ntf    fn419890   2.461   6.150   4.402 -0.4548  0.5244 -0.3467
 3523ntf    cn119891   4.442   6.962   0.681  0.2528  0.0135 -0.0913
 3523ntf    sn219892   4.449   7.142   0.710 -0.2312  0.0089  0.0733
 3523ntf    nn319893   4.580   7.168   0.792 -0.0037 -0.0802 -0.2576
 3523ntf    sn219894   4.721   7.220   0.746  0.1163 -0.2359 -0.0684
 3523ntf    cn119895   4.705   7.399   0.778 -0.1097 -0.1800 -0.4927
 3523ntf    fn419896   4.447   6.891   0.792  0.4675  0.2434  0.0473
 3523ntf    fn419897   4.334   6.932   0.610 -0.1511  0.3917  0.3476
 3523ntf    fn419898   4.542   6.921   0.606  0.2054  0.0770 -0.1902
 3523ntf    on519899   4.455   7.198   0.577 -0.1614  0.0311  0.0860
 3523ntf    on519900   4.326   7.156   0.783  0.0829  0.2032  0.5730
 3523ntf    on519901   4.757   7.214   0.607 -0.0737  0.2624 -0.1451
 3523ntf    on519902   4.818   7.189   0.848  0.3037 -0.7065 -0.3885
 3523ntf    fn419903   4.681   7.430   0.904  0.2922 -0.1148 -0.4331
 3523ntf    fn419904   4.808   7.469   0.733  0.0265  0.2386  0.4603
 3523ntf    fn419905   4.597   7.455   0.725 -0.2678 -0.4307 -0.4385
 3524ntf    cn119906   0.450   1.013   6.015  0.1186  0.2188 -0.2835
 3524ntf    sn219907   0.308   0.949   6.109  0.1964  0.0828 -0.2588
 3524ntf    nn319908   0.203   1.061   6.080  0.1762  0.1412  0.0389
 3524ntf    sn219909   0.173   1.197   6.152  0.5152  0.1987  0.0709
 3524ntf    cn119910   0.201   1.308   6.010  0.3582 -0.2122 -0.2821
 3524ntf    fn419911   0.430   1.020   5.885 -0.3496  0.0782 -0.2190
 3524ntf    fn419912   0.476   1.139   6.048  0.0976  0.2415 -0.3554
 3524ntf    fn419913   0.558   0.942   6.044 -0.2404 -0.1951  0.0605
 3524ntf    on519914   0.271   0.826   6.044 -0.0837  0.2262 -0.3722
 3524ntf    on519915   0.366   0.947   6.241  0.6110  0.6750 -0.4253
 3524ntf    on519916   0.267   1.244   6.252  0.1668  0.0678  0.4619
 3524ntf    on519917   0.032   1.216   6.176  0.2852 -1.0127 -0.2866
 3524ntf    fn419918   0.134   1.270   5.903  0.3884  0.0227 -0.3860
 3524ntf    fn419919   0.151   1.424   6.047  0.1864 -0.4277  0.1795
 3524ntf    fn419920   0.330   1.317   5.981  0.3747  0.7821  0.0536
 3525ntf    cn119921   4.150   2.027   7.008 -0.2208  0.0278  0.0495
 3525ntf    sn219922   4.201   2.040   6.834  0.1008 -0.2208  0.1236
 3525ntf    nn319923   4.322   1.940   6.837  0.3189  0.0561  0.5750
 3525ntf    sn219924   4.477   1.967   6.846  0.4043 -0.1786 -0.1040
 3525ntf    cn119925   4.544   1.806   6.896  0.1362 -0.2847 -0.0855
 3525ntf    fn419926   4.251   2.035   7.093  0.1702  0.2058 -0.4256
 3525ntf    fn419927   4.058   2.114   7.043 -0.5380 -0.2443 -0.1025
 3525ntf    fn419928   4.090   1.912   7.034  0.0600 -0.0978  0.1474
 3525ntf    on519929   4.087   1.987   6.763  0.1614  0.0241 -0.1592
 3525ntf    on519930   4.231   2.180   6.818  0.0387 -0.2255 -0.0341
 3525ntf    on519931   4.507   2.050   6.960  0.0950 -0.0713 -0.0990
 3525ntf    on519932   4.551   1.988   6.724 -0.0184 -0.1975 -0.3670
 3525ntf    fn419933   4.495   1.767   7.013  0.2714  0.2771  0.1603
 3525ntf    fn419934   4.506   1.707   6.816 -0.2461 -0.2497  0.0481
 3525ntf    fn419935   4.676   1.807   6.899  0.1355 -0.5763  0.0589
 3526ntf    cn119936   1.616   3.146   6.390 -0.1376 -0.2548 -0.2178
 3526ntf    sn219937   1.505   3.188   6.252 -0.1648 -0.1043 -0.1512
 3526ntf    nn319938   1.595   3.278   6.160 -0.1513 -0.7691 -0.7985
 3526ntf    sn219939   1.552   3.385   6.054 -0.1629 -0.0409 -0.0661
 3526ntf    cn119940   1.676   3.347   5.928 -0.0379 -0.2097  0.1066
 3526ntf    fn419941   1.734   3.100   6.353  0.0967  0.3530 -0.2391
 3526ntf    fn419942   1.647   3.260   6.451 -0.2461 -0.5096  0.3198
 3526ntf    fn419943   1.566   3.065   6.482 -0.2380 -0.0319 -0.0750
 3526ntf    on519944   1.488   3.059   6.190  0.5864 -0.2487 -0.0761
 3526ntf    on519945   1.395   3.259   6.312  0.0000 -0.0509  0.0900
 3526ntf    on519946   1.585   3.522   6.082  0.7224 -0.2641 -0.0112
 3526ntf    on519947   1.421   3.359   5.998 -0.3514 -0.0904  0.3928
 3526ntf    fn419948   1.659   3.230   5.867 -0.4736 -0.5480  0.8650
 3526ntf    fn419949   1.677   3.433   5.828 -0.5317 -0.2191  0.0940
 3526ntf    fn419950   1.800   3.351   5.975  0.1527  0.3647 -0.4278
 3527ntf    cn119951   5.997   4.541   2.116  0.5458 -0.1135 -0.2094
 3527ntf    sn219952   6.098   4.612   1.983  0.1935  0.4910 -0.1613
 3527ntf    nn319953   6.051   4.520   1.864  0.1221 -0.1242  0.3423
 3527ntf    sn219954   5.995   4.558   1.723  0.6213  0.4084  0.2826
 3527ntf    cn119955   5.966   4.391   1.658  0.4813  0.3197  0.5726
 3527ntf    fn419956   6.019   4.412   2.133  0.0756 -0.2059 -0.2726
 3527ntf    fn419957   6.031   4.586   2.236 -0.6088  0.1279  0.0427
 3527ntf    fn419958   5.868   4.567   2.100  0.3432 -0.7685  0.3329
 3527ntf    on519959   6.057   4.750   1.982  0.1843  0.4891  0.0083
 3527ntf    on519960   6.232   4.580   2.027 -0.2706 -0.1134  0.8518
 3527ntf    on519961   6.089   4.616   1.631 -0.0472  0.7427 -0.2035
 3527ntf    on519962   5.859   4.607   1.728  0.5752  0.3026  0.0537
 3527ntf    fn419963   5.915   4.399   1.536 -0.2294  0.3513  0.8659
 3527ntf    fn419964   6.075   4.317   1.649  0.2142 -0.0420  0.2340
 3527ntf    fn419965   5.883   4.321   1.734  0.4659 -0.3240 -0.0197
 3528ntf    cn119966   3.214   5.179   1.334 -0.6896 -0.0720  0.3689
 3528ntf    sn219967   3.159   5.319   1.233  0.1396  0.0235  0.0433
 3528ntf    nn319968   3.289   5.329   1.145 -0.1487 -0.1255 -0.4034
 3528ntf    sn219969   3.399   5.441   1.141  0.0235 -0.2779  0.0119
 3528ntf    cn119970   3.546   5.367   1.063 -0.0528 -0.2712 -0.1394
 3528ntf    fn419971   3.311   5.222   1.414 -0.3963  0.3062 -0.1892
 3528ntf    fn419972   3.114   5.141   1.412 -0.5352 -0.3236  0.4485
 3528ntf    fn419973   3.247   5.072   1.262  0.1616  0.2237  0.3041
 3528ntf    on519974   3.041   5.268   1.166  0.1582  0.1098 -0.0554
 3528ntf    on519975   3.137   5.429   1.323 -0.5057 -0.1504  0.1068
 3528ntf    on519976   3.443   5.479   1.273  0.4458 -0.1922 -0.1533
 3528ntf    on519977   3.377   5.549   1.048 -0.7628 -0.1013  0.3992
 3528ntf    fn419978   3.611   5.298   1.155  0.0687 -0.3468 -0.2820
 3528ntf    fn419979   3.516   5.290   0.960 -0.1910 -0.6942  0.2165
 3528ntf    fn419980   3.624   5.462   1.013  0.1165 -0.5323 -0.3763
 3529ntf    cn119981   0.463   2.193   4.839  0.1926  0.0287 -0.0719
 3529ntf    sn219982   0.396   2.360   4.812 -0.4624 -0.2256 -0.0334
 3529ntf    nn319983   0.379   2.413   4.958 -0.7973  0.3699 -0.2847
 3529ntf    sn219984   0.280   2.360   5.067 -0.0253  0.0563  0.2745
 3529ntf    cn119985   0.142   2.476   5.045 -0.0796  0.0253  0.4503
 3529ntf    fn419986   0.538   2.181   4.948 -0.4084 -0.3031  0.3149
 3529ntf    fn419987   0.371   2.098   4.852 -0.1206  0.2791 -0.4198
 3529ntf    fn419988   0.534   2.146   4.738 -0.1060 -0.3524 -0.1092
 3529ntf    on519989   0.506   2.410   4.733 -0.2278  0.0197  0.4495
 3529ntf    on519990   0.274   2.330   4.740 -0.6068 -0.0088  0.1239
 3529ntf    on519991   0.332   2.394   5.197 -0.6832  0.6908  0.3787
 3529ntf    on519992   0.225   2.229   5.042 -0.0212 -0.0121  0.6099
 3529ntf    fn419993   0.040   2.458   5.128 -0.4659 -0.2796 -0.0897
 3529ntf    fn419994   0.170   2.605   5.060 -0.0792  0.0901 -0.0841
 3529ntf    fn419995   0.087   2.455   4.927  0.3197 -0.4049  0.3381
 3530ntf    cn119996   2.830   3.108   4.990 -0.0933 -0.0943 -0.4527
 3530ntf    sn219997   2.871   3.284   5.005 -0.2223 -0.1035  0.0172
 3530ntf    nn319998   3.019   3.288   4.954 -0.3961 -0.5597 -0.5313
 3530ntf    sn219999   3.074   3.383   4.841  0.2265 -0.5203 -0.2007
 3530ntf    cn120000   3.189   3.473   4.949 -0.3879 -0.2261  0.2191
 3530ntf    fn420001   2.932   3.036   5.034 -0.3775 -0.0260  0.3196
 3530ntf    fn420002   2.716   3.064   5.041  0.1580 -0.2355 -0.0135
 3530ntf    fn420003   2.827   3.062   4.865  0.0331 -0.3972 -0.3452
 3530ntf    on520004   2.766   3.348   4.929  0.1812 -0.2259 -0.6510
 3530ntf    on520005   2.870   3.313   5.146 -0.0225  0.5547 -0.1143
 3530ntf    on520006   2.990   3.489   4.790 -0.0976 -0.4603  0.4416
 3530ntf    on520007   3.155   3.314   4.744  0.4989 -0.2777 -0.1468
 3530ntf    fn420008   3.277   3.392   5.007  0.8440  0.5456 -0.5239
 3530ntf    fn420009   3.267   3.548   4.873 -0.6792  0.1233  0.2649
 3530ntf    fn420010   3.133   3.550   5.041 -0.1137  0.0227  0.1819
 3531ntf    cn120011   1.727   5.925   1.310  0.1005 -0.3944  0.0977
 3531ntf    sn220012   1.786   5.832   1.165  0.1589 -0.0865 -0.0776
 3531ntf    nn320013   1.658   5.743   1.144 -0.0386  0.0800  0.4097
 3531ntf    sn220014   1.623   5.607   1.214  0.0823 -0.1625  0.0009
 3531ntf    cn120015   1.666   5.482   1.089  0.0995 -0.1782  0.0222
 3531ntf    fn420016   1.805   6.030   1.331 -0.2872 -0.1041  0.1013
 3531ntf    fn420017   1.604   5.970   1.292  0.1198 -0.1284  0.6189
 3531ntf    fn420018   1.727   5.853   1.420 -0.6674 -0.3556  0.1265
 3531ntf    on520019   1.801   5.931   1.062  0.7339 -0.0719  0.0177
 3531ntf    on520020   1.913   5.777   1.206  0.5102  0.2402 -0.7046
 3531ntf    on520021   1.481   5.595   1.230  0.1432 -0.7468  0.1353
 3531ntf    on520022   1.707   5.570   1.325  0.0888 -0.0971  0.0178
 3531ntf    fn420023   1.613   5.365   1.121  0.2238 -0.2014  0.1461
 3531ntf    fn420024   1.610   5.511   0.973 -0.0939  0.5150  0.2837
 3531ntf    fn420025   1.797   5.467   1.076  0.1245  0.1159 -0.0759
 3532ntf    cn120026   2.964   0.297   6.442  0.2115  0.0383 -0.1940
 3532ntf    sn220027   2.972   0.224   6.275 -0.0673  0.2405 -0.2952
 3532ntf    nn320028   2.973   0.360   6.197  0.8163  0.3646 -0.0711
 3532ntf    sn220029   3.029   0.385   6.053  0.1419  0.0965 -0.3825
 3532ntf    cn120030   3.053   0.564   6.066 -0.1143  0.1145 -0.1570
 3532ntf    fn420031   3.064   0.383   6.454  0.1956  0.0405 -0.0851
 3532ntf    fn420032   2.855   0.366   6.468  0.0933 -0.3463  0.3542
 3532ntf    fn420033   2.980   0.205   6.536 -0.3861  0.4410  0.3038
 3532ntf    on520034   3.095   0.150   6.280  0.0010  0.3587 -0.2297
 3532ntf    on520035   2.842   0.161   6.270 -0.0009  0.0744  0.0584
 3532ntf    on520036   2.927   0.384   5.951 -0.3225  0.3448  0.0769
 3532ntf    on520037   3.162   0.339   6.021 -0.1225 -0.7434 -0.2988
 3532ntf    fn420038   3.134   0.588   6.168  0.5242 -0.0895 -0.6092
 3532ntf    fn420039   3.104   0.621   5.958 -0.0262  0.0293 -0.1603
 3532ntf    fn420040   2.945   0.634   6.097 -0.0803  0.2594 -0.3652
 3533ntf    cn120041   1.681   3.347   3.699 -0.0979  0.2822  0.0681
 3533ntf    sn220042   1.778   3.450   3.813  0.0216  0.1154  0.1167
 3533ntf    nn320043   1.915   3.373   3.804  0.0381  0.1400  0.1557
 3533ntf    sn220044   2.025   3.377   3.915 -0.0012 -0.0045  0.1992
 3533ntf    cn120045   2.131   3.238   3.866 -0.3091 -0.1800  0.0309
 3533ntf    fn420046   1.552   3.376   3.705 -0.2167 -0.2838  0.2871
 3533ntf    fn420047   1.715   3.352   3.571 -0.1607 -0.8783  0.0009
 3533ntf    fn420048   1.686   3.221   3.736 -0.1825  0.2667  0.0253
 3533ntf    on520049   1.774   3.583   3.757  0.3532 -0.1486 -0.5566
 3533ntf    on520050   1.711   3.436   3.939  0.2251  0.3164  0.2486
 3533ntf    on520051   1.977   3.333   4.044  0.0116  0.3989  0.3450
 3533ntf    on520052   2.116   3.489   3.913  0.6380 -0.5182  0.1981
 3533ntf    fn420053   2.243   3.226   3.936  0.0203  0.1433 -0.4339
 3533ntf    fn420054   2.074   3.120   3.887 -0.6284 -0.0022  0.1588
 3533ntf    fn420055   2.164   3.234   3.738  0.1403  0.5663  0.1193
 3534ntf    cn120056   2.147   5.147   0.837 -0.0612 -0.0513  0.4818
 3534ntf    sn220057   2.003   5.233   0.905 -0.3075 -0.0023 -0.0912
 3534ntf    nn320058   1.903   5.247   0.785  0.0852 -0.1374 -0.4352
 3534ntf    sn220059   1.815   5.133   0.722 -0.1423 -0.3436  0.2439
 3534ntf    cn120060   1.658   5.185   0.798 -0.0768 -0.2534  0.3168
 3534ntf    fn420061   2.197   5.056   0.919 -0.1902 -0.4277  0.1483
 3534ntf    fn420062   2.120   5.077   0.727  0.4763  0.6645 -0.1194
 3534ntf    fn420063   2.238   5.233   0.794 -0.4145 -0.0787 -0.3558
 3534ntf    on520064   1.963   5.150   1.016  0.5618 -0.0706  0.1810
 3534ntf    on520065   2.060   5.362   0.935  0.1477 -0.1741 -0.2183
 3534ntf    on520066   1.837   5.005   0.785 -0.3668 -0.2743  0.4658
 3534ntf    on520067   1.791   5.147   0.580  1.0044 -0.1004  0.0676
 3534ntf    fn420068   1.651   5.316   0.807  0.4007 -0.1905 -0.1699
 3534ntf    fn420069   1.551   5.149   0.729  0.0115 -0.3885  0.2486
 3534ntf    fn420070   1.639   5.140   0.921 -0.3626 -0.1406  0.3128
 3535ntf    cn120071   1.345   5.645   2.963 -0.1231 -0.0125  0.0554
 3535ntf    sn220072   1.235   5.702   2.829  0.1268 -0.1195 -0.1981
 3535ntf    nn320073   1.092   5.660   2.878 -0.0983  0.0367 -0.7234
 3535ntf    sn220074   0.946   5.712   2.853 -0.2257 -0.0877 -0.2381
 3535ntf    cn120075   0.878   5.588   2.739 -0.1710 -0.1896 -0.1595
 3535ntf    fn420076   1.324   5.515   2.977 -0.4978 -0.0471 -0.7430
 3535ntf    fn420077   1.471   5.670   2.932 -0.0779 -0.4254 -0.1080
 3535ntf    fn420078   1.309   5.696   3.079 -0.3639  0.0273 -0.0351
 3535ntf    on520079   1.259   5.844   2.821  0.0838 -0.0866  0.2020
 3535ntf    on520080   1.272   5.627   2.712 -0.1708  0.0865 -0.4240
 3535ntf    on520081   0.935   5.832   2.774 -0.4596 -0.1250 -0.2634
 3535ntf    on520082   0.861   5.705   2.969  0.2412 -0.2521  0.0985
 3535ntf    fn420083   0.867   5.467   2.791 -0.2008 -0.2368 -0.2756
 3535ntf    fn420084   0.756   5.611   2.693 -0.2736  0.0844  0.2457
 3535ntf    fn420085   0.959   5.580   2.634  0.4095  0.3124  0.2406
 3536ntf    cn120086   0.891   5.183   6.602 -0.5242 -0.1382  0.0127
 3536ntf    sn220087   0.893   5.066   6.462 -0.1029  0.0248 -0.1199
 3536ntf    nn320088   0.763   5.107   6.384  0.0384 -0.3512 -0.5532
 3536ntf    sn220089   0.754   5.220   6.275 -0.1440 -0.0574 -0.2369
 3536ntf    cn120090   0.795   5.132   6.121 -0.2379 -0.2230 -0.1678
 3536ntf    fn420091   0.882   5.312   6.573  0.6891 -0.0047  0.1739
 3536ntf    fn420092   0.790   5.147   6.679 -0.2099  0.0012  0.4920
 3536ntf    fn420093   0.999   5.160   6.675 -0.2604 -0.2717 -0.4134
 3536ntf    on520094   1.021   5.090   6.400  0.2450 -0.5430  0.3715
 3536ntf    on520095   0.871   4.935   6.518 -0.3190 -0.0594 -0.4013
 3536ntf    on520096   0.861   5.316   6.285 -0.3385  0.1255  0.0852
 3536ntf    on520097   0.622   5.272   6.249 -0.3477 -0.2716  0.3608
 3536ntf    fn420098   0.723   5.028   6.083 -0.1987 -0.1886 -0.3398
 3536ntf    fn420099   0.776   5.217   6.021  0.2864  0.0412 -0.0457
 3536ntf    fn420100   0.921   5.092   6.114 -0.3775 -0.6855 -0.0573
 3537ntf    cn120101   2.034   2.699   0.596 -0.1040 -0.3153 -0.3718
 3537ntf    sn220102   2.123   2.844   0.658 -0.2680 -0.2636 -0.2568
 3537ntf    nn320103   1.995   2.930   0.688  0.3358  0.5266  0.1040
 3537ntf    sn220104   1.926   2.974   0.822 -0.1686  0.0729 -0.0048
 3537ntf    cn120105   1.930   3.155   0.809  0.2370  0.0351 -0.4169
 3537ntf    fn420106   1.987   2.629   0.698  0.4925 -0.2326 -0.0378
 3537ntf    fn420107   1.935   2.736   0.516 -0.1171  0.0307 -0.1975
 3537ntf    fn420108   2.116   2.621   0.527  0.5055  0.1162 -0.1473
 3537ntf    on520109   2.203   2.799   0.770 -0.2761 -0.1747 -0.2147
 3537ntf    on520110   2.192   2.899   0.544  0.7242 -0.1110  0.3988
 3537ntf    on520111   2.019   2.956   0.931  0.0069  0.3770 -0.1042
 3537ntf    on520112   1.787   2.941   0.841 -0.2193 -0.0307 -0.5500
 3537ntf    fn420113   2.046   3.219   0.815  0.4235 -0.3250 -0.1927
 3537ntf    fn420114   1.875   3.195   0.695  0.0405  0.4324 -0.1848
 3537ntf    fn420115   1.849   3.209   0.898  0.2973 -0.1859 -0.2268
 3538ntf    cn120116   4.236   6.932   2.855 -0.2141  0.1965  0.1941
 3538ntf    sn220117   4.217   6.922   2.675 -0.0024  0.4670  0.1578
 3538ntf    nn320118   4.329   7.028   2.645  0.8837 -0.4300  0.2668
 3538ntf    sn220119   4.446   7.025   2.540  0.4750 -0.5847 -0.1861
 3538ntf    cn120120   4.591   6.978   2.639  0.3338 -0.2490  0.1831
 3538ntf    fn420121   4.171   6.833   2.915  0.2409 -0.4162 -0.3085
 3538ntf    fn420122   4.360   6.927   2.901 -0.2290 -0.2579  0.1961
 3538ntf    fn420123   4.187   7.041   2.912  0.3685  0.1205  0.8547
 3538ntf    on520124   4.249   6.788   2.634 -0.7017  0.1080  0.7737
 3538ntf    on520125   4.086   6.978   2.648 -0.0881  0.0360 -0.3456
 3538ntf    on520126   4.476   7.159   2.496 -0.0048 -0.2051  0.6106
 3538ntf    on520127   4.432   6.923   2.439 -0.2926 -0.5018 -0.1714
 3538ntf    fn420128   4.704   6.955   2.575  0.4126  0.0877  0.1966
 3538ntf    fn420129   4.623   7.073   2.725  0.4448 -0.0919 -0.0308
 3538ntf    fn420130   4.559   6.867   2.703 -0.4952 -0.0775  0.0819
 3539ntf    cn120131   1.803   7.015   7.051 -0.2156  0.2664  0.1970
 3539ntf    sn220132   1.708   6.933   6.920  0.0574 -0.0236  0.1813
 3539ntf    nn320133   1.674   6.797   6.992  0.0635 -0.1317 -0.0196
 3539ntf    sn220134   1.551   6.765   7.083 -0.1924  0.2803 -0.2153
 3539ntf    cn120135   1.432   6.702   6.961 -0.2976  0.1876 -0.0665
 3539ntf    fn420136   1.788   7.147   7.047  0.2498  0.3006 -0.4721
 3539ntf    fn420137   1.765   6.980   7.173 -0.0292  0.1525  0.2230
 3539ntf    fn420138   1.932   6.994   7.035 -0.1907 -0.0367  0.7672
 3539ntf    on520139   1.598   7.023   6.897 -0.2047 -0.6064 -0.9239
 3539ntf    on520140   1.797   6.912   6.809 -0.0685  0.6149 -0.0448
 3539ntf    on520141   1.486   6.881   7.140  0.0790  0.1473  0.3695
 3539ntf    on520142   1.572   6.647   7.164  0.1631  0.4817 -0.0143
 3539ntf    fn420143   1.455   6.575   6.929 -0.3744  0.2108 -0.2122
 3539ntf    fn420144   1.308   6.698   7.005 -0.2506 -0.3176  0.0266
 3539ntf    fn420145   1.428   6.775   6.851 -0.1284  0.3453  0.0304
 3540ntf    cn120146   3.292   0.438   1.264  0.2300  0.1937 -0.0189
 3540ntf    sn220147   3.303   0.522   1.425 -0.0450  0.2993 -0.0546
 3540ntf    nn320148   3.457   0.526   1.454 -0.1323  0.2821  0.4198
 3540ntf    sn220149   3.549   0.406   1.495 -0.0708  0.1773 -0.0229
 3540ntf    cn120150   3.559   0.439   1.673 -0.1147 -0.3061  0.0714
 3540ntf    fn420151   3.167   0.398   1.247  0.3969 -0.6265  0.6231
 3540ntf    fn420152   3.316   0.526   1.168 -0.0699  0.2036 -0.0879
 3540ntf    fn420153   3.384   0.345   1.246 -0.3314 -0.2546 -0.6223
 3540ntf    on520154   3.253   0.653   1.389 -0.2777  0.2391  0.0477
 3540ntf    on520155   3.228   0.440   1.517 -0.4821  0.3379 -0.3711
 3540ntf    on520156   3.682   0.435   1.446  0.1758 -0.4798  0.2442
 3540ntf    on520157   3.507   0.270   1.470  0.3690 -0.0133  0.2634
 3540ntf    fn420158   3.661   0.375   1.728 -0.2396 -0.5406  0.0280
 3540ntf    fn420159   3.575   0.567   1.704  0.2394 -0.4376  0.4470
 3540ntf    fn420160   3.453   0.396   1.738 -0.2649 -0.1338 -0.0591
 3541ntf    cn120161   5.856   1.645   5.903  0.4059 -0.0648  0.1031
 3541ntf    sn220162   5.819   1.816   5.856  0.2816 -0.0997  0.0761
 3541ntf    nn320163   5.815   1.900   5.988 -0.5215  0.4098 -0.2580
 3541ntf    sn220164   5.808   2.056   6.002 -0.1261  0.4043  0.0374
 3541ntf    cn120165   5.628   2.083   6.013 -0.2006 -0.1654  0.2545
 3541ntf    fn420166   5.765   1.602   5.988  0.1505 -0.1370 -0.2059
 3541ntf    fn420167   5.858   1.564   5.798  0.1059  0.1213 -0.0456
 3541ntf    fn420168   5.968   1.627   5.972  0.5408 -0.0436 -0.1096
 3541ntf    on520169   5.924   1.852   5.764  0.2249  0.7106  0.3232
 3541ntf    on520170   5.686   1.808   5.799  0.4157  0.0025 -0.2545
 3541ntf    on520171   5.845   2.139   5.890 -0.3148  0.0078 -0.3206
 3541ntf    on520172   5.850   2.105   6.131 -0.5053  0.1203  0.2701
 3541ntf    fn420173   5.567   2.018   6.110 -0.1477  0.0356  0.4230
 3541ntf    fn420174   5.604   2.212   6.034 -0.1277 -0.1121  0.0128
 3541ntf    fn420175   5.566   2.062   5.899  0.8117  0.2631 -0.3937
 3542ntf    cn120176   5.836   2.708   1.025 -0.0557  0.0674 -0.2641
 3542ntf    sn220177   5.878   2.534   1.059 -0.0054  0.1333  0.0109
 3542ntf    nn320178   5.782   2.492   1.176  0.3219 -0.3595  0.1066
 3542ntf    sn220179   5.802   2.530   1.327  0.2099  0.2316 -0.0234
 3542ntf    cn120180   5.672   2.650   1.372  0.1316  0.0195  0.3231
 3542ntf    fn420181   5.889   2.737   0.908 -0.3371  0.6941 -0.2360
 3542ntf    fn420182   5.706   2.717   1.000 -0.1393 -0.3324  0.0044
 3542ntf    fn420183   5.868   2.799   1.116 -0.0409 -0.1133 -0.0856
 3542ntf    on520184   5.848   2.471   0.933  0.4093 -0.2610  0.1076
 3542ntf    on520185   6.018   2.529   1.094 -0.0281 -0.3134  0.0469
 3542ntf    on520186   5.923   2.602   1.358  0.3589 -0.1185  0.2172
 3542ntf    on520187   5.779   2.411   1.406  0.4349 -0.1880 -0.5883
 3542ntf    fn420188   5.683   2.758   1.297 -0.5333 -0.3968 -0.3872
 3542ntf    fn420189   5.553   2.601   1.340  0.3136 -0.2747  0.0839
 3542ntf    fn420190   5.671   2.687   1.499  0.4570 -0.1700  0.3839
 3543ntf    cn120191   1.827   4.305   1.581 -0.3183 -0.0638 -0.0844
 3543ntf    sn220192   1.689   4.209   1.513 -0.0340 -0.3569 -0.2496
 3543ntf    nn320193   1.731   4.192   1.362  0.2693 -0.4359 -0.1581
 3543ntf    sn220194   1.719   4.055   1.286 -0.0490 -0.5516  0.0954
 3543ntf    cn120195   1.898   4.030   1.265  0.0385  0.1225 -0.0079
 3543ntf    fn420196   1.833   4.419   1.514 -0.3721  0.2196  0.3855
 3543ntf    fn420197   1.800   4.323   1.709 -0.1493 -0.0705 -0.0477
 3543ntf    fn420198   1.949   4.254   1.565 -0.5050 -0.3843 -0.5072
 3543ntf    on520199   1.671   4.095   1.599  0.1920 -0.1803  0.0309
 3543ntf    on520200   1.583   4.306   1.526  0.0506 -0.2933 -0.0360
 3543ntf    on520201   1.673   4.079   1.152  0.3649  0.0265  0.0493
 3543ntf    on520202   1.673   3.939   1.357 -0.8022 -0.1091  0.3377
 3543ntf    fn420203   1.967   4.135   1.222  0.2499 -0.1009 -0.2222
 3543ntf    fn420204   1.949   3.998   1.383 -0.8257  0.1652  0.3859
 3543ntf    fn420205   1.922   3.923   1.191  0.6154  0.1982  0.0675
 3544ntf    cn120206   3.753   2.798   0.200  0.1580 -0.0421 -0.1515
 3544ntf    sn220207   3.745   2.960   0.116 -0.2447  0.1107  0.1777
 3544ntf    nn320208   3.794   3.066   0.221  0.1969 -0.1023  0.1894
 3544ntf    sn220209   3.831   3.217   0.200 -0.0606 -0.0108  0.3849
 3544ntf    cn120210   4.013   3.229   0.198 -0.0646 -0.0018  0.0396
 3544ntf    fn420211   3.733   2.694   0.121  0.2679 -0.0016 -0.2324
 3544ntf    fn420212   3.868   2.779   0.261  0.0424 -0.1641  0.0305
 3544ntf    fn420213   3.662   2.783   0.294  0.3267 -0.1038  0.0016
 3544ntf    on520214   3.839   2.949   0.008  0.3269  0.2852  0.6499
 3544ntf    on520215   3.609   2.965   0.069 -0.3787 -0.4624  0.4946
 3544ntf    on520216   3.793   3.288   0.320  0.6925  0.4178  0.3752
 3544ntf    on520217   3.787   3.278   0.077  0.6477  0.2036  0.2343
 3544ntf    fn420218   4.050   3.329   0.119 -1.0058  0.6500  0.4029
 3544ntf    fn420219   4.057   3.245   0.322 -0.2786 -0.1236  0.1321
 3544ntf    fn420220   4.067   3.119   0.148 -0.2599 -0.0740 -0.0140
 3545ntf    cn120221   1.146   2.554   0.694 -0.3405 -0.3431 -0.3280
 3545ntf    sn220222   1.219   2.462   0.556 -0.1333 -0.2957 -0.2513
 3545ntf    nn320223   1.128   2.511   0.437  0.5451  0.2023 -0.5694
 3545ntf    sn220224   1.005   2.441   0.370 -0.0106  0.5927  0.0349
 3545ntf    cn120225   0.882   2.576   0.370 -0.4201  0.2213  0.0959
 3545ntf    fn420226   1.017   2.530   0.709 -0.2752 -0.6641 -0.2821
 3545ntf    fn420227   1.206   2.538   0.811 -0.3003  0.7739 -0.1780
 3545ntf    fn420228   1.158   2.684   0.670 -0.2948 -0.3129 -0.1477
 3545ntf    on520229   1.349   2.522   0.542  0.0218 -0.5714  0.0048
 3545ntf    on520230   1.212   2.322   0.590  0.6166 -0.2196  0.2349
 3545ntf    on520231   0.936   2.337   0.442  0.4132  0.2481 -0.0586
 3545ntf    on520232   1.026   2.414   0.230  0.7770 -0.3830  0.3298
 3545ntf    fn420233   0.925   2.682   0.305  0.2152 -0.1981 -0.1777
 3545ntf    fn420234   0.762   2.545   0.324 -0.3081  0.1005 -0.1160
 3545ntf    fn420235   0.858   2.613   0.495  0.0309  0.2774  0.1691
 3546ntf    cn120236   6.956   4.398   3.379  0.1769  0.0982  0.2213
 3546ntf    sn220237   6.938   4.228   3.317 -0.1788  0.1532  0.1707
 3546ntf    nn320238   7.038   4.148   3.407 -0.0761 -0.0992 -0.1626
 3546ntf    sn220239   7.177   4.087   3.367  0.0439 -0.0248  0.1352
 3546ntf    cn120240   7.192   3.995   3.523 -0.1284 -0.1483  0.0788
 3546ntf    fn420241   6.916   4.396   3.505 -0.2576 -0.0294  0.0863
 3546ntf    fn420242   7.081   4.438   3.369  0.2237 -0.0365  0.2719
 3546ntf    fn420243   6.884   4.490   3.316 -0.0855 -0.2289  0.0387
 3546ntf    on520244   6.800   4.197   3.343  0.1667 -0.8405  0.8706
 3546ntf    on520245   6.975   4.244   3.178 -1.0336 -0.9235 -0.2033
 3546ntf    on520246   7.286   4.181   3.379 -0.0762  0.0987  0.2729
 3546ntf    on520247   7.189   3.986   3.265  0.2472  0.4202 -0.2900
 3546ntf    fn420248   7.088   3.916   3.543  0.1216 -0.4480  0.2040
 3546ntf    fn420249   7.303   3.921   3.521  0.4356  0.6937 -0.2388
 3546ntf    fn420250   7.202   4.066   3.634 -0.6547 -0.1333  0.1163
 3547ntf    cn120251   0.254   6.465   4.924 -0.0700 -0.0669 -0.2843
 3547ntf    sn220252   0.160   6.607   4.861 -0.4003 -0.2285 -0.1581
 3547ntf    nn320253   0.132   6.556   4.715  0.1350  0.0605 -0.3642
 3547ntf    sn220254   0.030   6.447   4.667 -0.0383 -0.0046  0.1471
 3547ntf    cn120255  -0.068   6.545   4.549  0.0871  0.1777  0.1932
 3547ntf    fn420256   0.178   6.359   4.944  0.2264 -0.1788  0.2867
 3547ntf    fn420257   0.335   6.427   4.827 -0.3051 -0.0788 -0.4762
 3547ntf    fn420258   0.339   6.487   5.024  0.0632  0.3918 -0.4967
 3547ntf    on520259   0.052   6.605   4.956 -0.1229 -0.0256  0.1652
 3547ntf    on520260   0.246   6.723   4.854 -0.4658 -0.1490  0.2920
 3547ntf    on520261  -0.061   6.395   4.766 -0.3437  0.2967  0.0268
 3547ntf    on520262   0.086   6.346   4.582 -0.6219 -0.1790 -0.0368
 3547ntf    fn420263  -0.173   6.480   4.502  0.4715 -0.1669 -0.1946
 3547ntf    fn420264  -0.117   6.654   4.605  0.4276  0.3878  0.0853
 3547ntf    fn420265   0.014   6.585   4.454  0.1447  0.4053  0.3374
 3548ntf    cn120266   3.658   5.482   4.955 -0.0117  0.0734 -0.3712
 3548ntf    sn220267   3.644   5.618   5.075 -0.1303 -0.2438 -0.0230
 3548ntf    nn320268   3.487   5.617   5.082 -0.1147 -0.8764  0.3316
 3548ntf    sn220269   3.399   5.641   5.210 -0.3594 -0.0774  0.0223
 3548ntf    cn120270   3.364   5.467   5.250  0.1380 -0.1933 -0.0314
 3548ntf    fn420271   3.626   5.373   5.024  0.5008  0.0164 -0.2124
 3548ntf    fn420272   3.574   5.494   4.853 -0.4960  1.0720  0.1318
 3548ntf    fn420273   3.782   5.465   4.911  0.2038  0.1803  0.1877
 3548ntf    on520274   3.722   5.575   5.188 -0.4514 -0.4982  0.1038
 3548ntf    on520275   3.704   5.723   4.996  0.7600 -0.2473  0.6372
 3548ntf    on520276   3.266   5.692   5.187 -0.2827  0.0667 -0.1007
 3548ntf    on520277   3.459   5.690   5.331 -0.3230 -0.0724  0.0019
 3548ntf    fn420278   3.348   5.385   5.148 -0.3629  0.0779 -0.1757
 3548ntf    fn420279   3.459   5.419   5.329 -0.1352  0.2516  0.5787
 3548ntf    fn420280   3.255   5.452   5.324 -0.0208 -0.2321 -0.2732
 3549ntf    cn120281   5.507   2.952   6.342 -0.2502 -0.2494 -0.0300
 3549ntf    sn220282   5.465   2.797   6.256 -0.1565 -0.0970 -0.3545
 3549ntf    nn320283   5.543   2.687   6.337  0.2710  0.0046 -0.6266
 3549ntf    sn220284   5.496   2.538   6.355 -0.1762  0.1942 -0.2277
 3549ntf    cn120285   5.439   2.563   6.526  0.5945  0.6095 -0.0263
 3549ntf    fn420286   5.464   2.953   6.467 -0.4587 -0.0042 -0.1034
 3549ntf    fn420287   5.637   2.972   6.348 -0.1708 -0.5636 -0.6232
 3549ntf    fn420288   5.451   3.054   6.279 -0.0245 -0.0057  0.1660
 3549ntf    on520289   5.322   2.790   6.269 -0.0947 -0.6001  0.0979
 3549ntf    on520290   5.521   2.823   6.126  0.1619 -0.2994 -0.2577
 3549ntf    on520291   5.600   2.440   6.374 -0.3669 -0.2318 -1.3044
 3549ntf    on520292   5.369   2.500   6.298 -0.0513 -0.1886 -0.2517
 3549ntf    fn420293   5.535   2.588   6.613  0.0628  0.3954  0.6361
 3549ntf    fn420294   5.361   2.669   6.541  0.1572  0.2156  0.5592
 3549ntf    fn420295   5.368   2.462   6.573  0.6728  0.1319 -0.9186
 3550ntf    cn120296   0.844   5.137   7.005  0.2343  0.3289  0.3509
 3550ntf    sn220297   0.755   5.055   7.141  0.0801 -0.3328 -0.1456
 3550ntf    nn320298   0.691   5.182   7.207  0.1167  0.0142 -0.7646
 3550ntf    sn220299   0.543   5.234   7.200  0.1707  0.2057 -0.5071
 3550ntf    cn120300   0.478   5.185   7.362  0.0913  0.1385 -0.5593
 3550ntf    fn420301   0.952   5.202   7.045  0.7591 -0.3696  0.0881
 3550ntf    fn420302   0.892   5.053   6.915 -0.2323  0.3321  0.0937
 3550ntf    fn420303   0.761   5.220   6.943 -0.1020 -0.2719 -0.0133
 3550ntf    on520304   0.670   4.958   7.076 -0.1242 -0.0806 -0.2558
 3550ntf    on520305   0.855   5.005   7.232 -0.0624 -0.5323 -0.0960
 3550ntf    on520306   0.449   5.165   7.115  0.1151 -0.4095  0.0402
 3550ntf    on520307   0.523   5.377   7.200 -0.6015  0.1031 -0.5707
 3550ntf    fn420308   0.353   5.221   7.386  0.0457 -0.1732 -0.3105
 3550ntf    fn420309   0.471   5.053   7.373  0.5800  0.1842  0.4601
 3550ntf    fn420310   0.556   5.222   7.462 -0.1849 -0.8146  0.0323
 3551ntf    cn120311   3.079   3.715   3.377 -0.0151 -0.3729 -0.1193
 3551ntf    sn220312   3.207   3.628   3.473 -0.1075 -0.1773  0.1816
 3551ntf    nn320313   3.312   3.599   3.361 -0.0496 -0.0162  0.1937
 3551ntf    sn220314   3.454   3.531   3.364 -0.2031 -0.3565 -0.1431
 3551ntf    cn120315   3.551   3.680   3.400 -0.3441 -0.3897  0.3801
 3551ntf    fn420316   3.119   3.825   3.315  0.3002 -0.4502 -0.0563
 3551ntf    fn420317   3.024   3.642   3.282 -0.0069 -0.4330 -0.0780
 3551ntf    fn420318   2.986   3.752   3.464 -0.1864 -0.2427 -0.3588
 3551ntf    on520319   3.248   3.725   3.572  0.0212 -0.3757  0.3244
 3551ntf    on520320   3.145   3.509   3.526 -0.4531  0.0793  0.3626
 3551ntf    on520321   3.511   3.494   3.237  0.4888  0.5040 -0.0878
 3551ntf    on520322   3.477   3.443   3.477  0.0413  0.3802  0.3882
 3551ntf    fn420323   3.674   3.667   3.447 -0.1050  0.0534 -0.1165
 3551ntf    fn420324   3.561   3.764   3.299  0.0002 -0.2399  0.5345
 3551ntf    fn420325   3.496   3.748   3.500 -0.5732  0.0261 -0.0265
 3552ntf    cn120326   0.817   2.175   6.155 -0.1975 -0.2410  0.1456
 3552ntf    sn220327   0.741   2.013   6.121 -0.3269 -0.1326 -0.0825
 3552ntf    nn320328   0.596   2.048   6.072 -0.2018  0.2756 -0.1676
 3552ntf    sn220329   0.458   2.043   6.147 -0.1107  0.2618 -0.0007
 3552ntf    cn120330   0.376   1.902   6.068  0.0608  0.1203  0.0733
 3552ntf    fn420331   0.809   2.252   6.048  0.2028 -0.1506  0.1780
 3552ntf    fn420332   0.753   2.246   6.247 -0.0730  0.2219 -0.1191
 3552ntf    fn420333   0.947   2.174   6.182 -0.0776  0.1878 -0.4103
 3552ntf    on520334   0.827   1.956   6.020 -0.3159 -0.0475 -0.1217
 3552ntf    on520335   0.748   1.949   6.250  0.0338 -0.1885 -0.1282
 3552ntf    on520336   0.377   2.155   6.106 -0.3883  0.1158  0.1452
 3552ntf    on520337   0.460   2.011   6.288  0.4244  0.4125  0.0268
 3552ntf    fn420338   0.251   1.888   6.108 -0.0447  0.1059 -0.2565
 3552ntf    fn420339   0.378   1.902   5.935  0.4145  0.3216  0.0783
 3552ntf    fn420340   0.434   1.786   6.096 -0.1061 -0.1562 -0.6923
 3553ntf    cn120341   6.397   1.904   1.977 -0.0064  0.0538 -0.2905
 3553ntf    sn220342   6.361   1.798   2.121 -0.0541  0.2026 -0.1919
 3553ntf    nn320343   6.256   1.882   2.202  0.0637 -0.1294  0.3109
 3553ntf    sn220344   6.284   1.995   2.307  0.0906  0.1114  0.0460
 3553ntf    cn120345   6.260   1.903   2.462 -0.2249 -0.1789 -0.1704
 3553ntf    fn420346   6.444   2.021   2.016 -0.6684  0.2712 -0.1301
 3553ntf    fn420347   6.492   1.851   1.903  0.0004  0.1518 -0.3510
 3553ntf    fn420348   6.298   1.930   1.893  0.1820  0.0232 -0.5198
 3553ntf    on520349   6.298   1.680   2.066  0.7059  0.0763 -0.8169
 3553ntf    on520350   6.495   1.780   2.173 -0.3481 -0.3938  0.3711
 3553ntf    on520351   6.180   2.095   2.313 -0.4217 -0.4202  0.1292
 3553ntf    on520352   6.420   2.043   2.313  0.0261  0.2977  0.0215
 3553ntf    fn420353   6.273   1.982   2.568  0.0183  0.0460 -0.3654
 3553ntf    fn420354   6.141   1.848   2.470 -0.4762  0.4040  0.2083
 3553ntf    fn420355   6.343   1.801   2.469 -0.1638 -0.1200 -0.0262
 3554ntf    cn120356   2.176   1.656   2.531  0.0353 -0.1630  0.1944
 3554ntf    sn220357   2.349   1.644   2.586  0.0745 -0.0395  0.1000
 3554ntf    nn320358   2.429   1.643   2.451  0.2210 -0.4754  0.1881
 3554ntf    sn220359   2.474   1.519   2.365  0.3212 -0.1817 -0.1837
 3554ntf    cn120360   2.655   1.536   2.380  0.2950 -0.1317  0.0855
 3554ntf    fn420361   2.091   1.605   2.618 -0.0561 -0.0116  0.1945
 3554ntf    fn420362   2.146   1.783   2.511  0.4174 -0.0391  0.4061
 3554ntf    fn420363   2.157   1.599   2.413  0.3746 -0.0566  0.0862
 3554ntf    on520364   2.366   1.770   2.654  0.4752 -0.1124  0.1352
 3554ntf    on520365   2.348   1.520   2.661 -0.1196 -0.1312 -0.0519
 3554ntf    on520366   2.437   1.536   2.227 -0.9845 -0.1310  0.1642
 3554ntf    on520367   2.448   1.390   2.423  0.1068 -0.2195 -0.3625
 3554ntf    fn420368   2.696   1.652   2.332  0.2130  0.0629  0.4844
 3554ntf    fn420369   2.704   1.536   2.503 -0.2423  0.1390  0.3048
 3554ntf    fn420370   2.720   1.440   2.317  0.3023 -0.0468 -0.0346
 3555ntf    cn120371   6.565   2.043   5.373  0.4060 -0.1920 -0.2278
 3555ntf    sn220372   6.627   2.199   5.302  0.1873 -0.0131 -0.0299
 3555ntf    nn320373   6.585   2.298   5.416  0.8934 -0.3338  0.5173
 3555ntf    sn220374   6.672   2.370   5.524  0.3254  0.5765  0.3762
 3555ntf    cn120375   6.602   2.538   5.511  0.0498  0.4590  0.3431
 3555ntf    fn420376   6.605   2.021   5.497 -0.1717 -0.1664 -0.0323
 3555ntf    fn420377   6.436   2.068   5.389  0.6581  0.8314  0.3462
 3555ntf    fn420378   6.585   1.930   5.307  0.0902 -0.3049 -0.1317
 3555ntf    on520379   6.769   2.175   5.290  0.1365 -0.4685  0.2236
 3555ntf    on520380   6.547   2.214   5.183  0.2027 -0.1739 -0.0616
 3555ntf    on520381   6.810   2.400   5.493  0.2446  0.0959 -0.4503
 3555ntf    on520382   6.641   2.327   5.658 -0.0297 -1.1571 -0.2427
 3555ntf    fn420383   6.471   2.547   5.502  0.0630 -0.0523 -0.4833
 3555ntf    fn420384   6.637   2.611   5.616 -0.1605  0.6681  0.2667
 3555ntf    fn420385   6.653   2.588   5.399  0.0237 -0.2594  0.0039
 3556ntf    cn120386   4.876   4.155   3.639  0.4856  0.0041 -0.3110
 3556ntf    sn220387   4.827   3.979   3.636  0.4069  0.0198  0.0474
 3556ntf    nn320388   4.717   3.974   3.524  0.1540 -0.1218  0.3008
 3556ntf    sn220389   4.658   3.861   3.433  0.1421 -0.0019  0.1593
 3556ntf    cn120390   4.495   3.855   3.514 -0.0701 -0.6168 -0.3098
 3556ntf    fn420391   4.927   4.190   3.755 -0.3060 -0.1116  0.0767
 3556ntf    fn420392   4.965   4.187   3.546  0.4649 -0.3113 -0.4412
 3556ntf    fn420393   4.775   4.237   3.617  0.2472 -0.1879  0.0601
 3556ntf    on520394   4.951   3.910   3.609  0.2534  0.1183 -0.9250
 3556ntf    on520395   4.777   3.953   3.769 -0.1548 -0.2505 -0.2131
 3556ntf    on520396   4.727   3.736   3.455  1.2493  0.4876 -0.4448
 3556ntf    on520397   4.627   3.911   3.301 -0.1123  0.3218  0.3404
 3556ntf    fn420398   4.424   3.756   3.460 -0.2666 -0.3258 -0.5885
 3556ntf    fn420399   4.516   3.830   3.642  0.1073 -0.4292 -0.3026
 3556ntf    fn420400   4.416   3.961   3.506  0.3559 -0.3101 -0.5248
 3557ntf    cn120401   4.963   2.872   3.949 -0.1075  0.2104  0.1226
 3557ntf    sn220402   5.088   2.968   4.038  0.0937  0.2487 -0.2010
 3557ntf    nn320403   5.139   3.057   3.919  0.0542  0.2285 -0.2326
 3557ntf    sn220404   5.136   3.212   3.899  0.0461  0.2405 -0.1331
 3557ntf    cn120405   5.291   3.240   3.989  0.0801 -0.0790 -0.0938
 3557ntf    fn420406   4.930   2.759   4.010 -0.1078  0.2892  0.2685
 3557ntf    fn420407   4.851   2.937   3.922 -0.5910 -0.4836  0.3982
 3557ntf    fn420408   5.012   2.829   3.834  1.0335  0.1522  0.6220
 3557ntf    on520409   5.025   3.034   4.149 -0.3666 -0.6823  0.1016
 3557ntf    on520410   5.182   2.864   4.072 -0.1043  0.1760  0.1255
 3557ntf    on520411   5.024   3.276   3.964  0.2149 -0.1295  0.5293
 3557ntf    on520412   5.163   3.258   3.765  0.1066 -0.1055 -0.2385
 3557ntf    fn420413   5.332   3.365   3.978  0.4357 -0.2084 -0.2878
 3557ntf    fn420414   5.285   3.225   4.120 -0.7823 -0.0030 -0.1207
 3557ntf    fn420415   5.387   3.160   3.944  0.1254 -0.2933  0.3821
 3558ntf    cn120416   0.669   6.380   3.714 -0.4907 -0.0102  0.1541
 3558ntf    sn220417   0.594   6.364   3.879 -0.3102 -0.0949  0.2281
 3558ntf    nn320418   0.521   6.502   3.890 -0.1298  0.0452 -0.3090
 3558ntf    sn220419   0.372   6.531   3.849 -0.2262 -0.0826 -0.0476
 3558ntf    cn120420   0.299   6.543   4.016  0.4212  0.0317  0.2311
 3558ntf    fn420421   0.740   6.490   3.694 -0.2159 -0.1669  0.2709
 3558ntf    fn420422   0.752   6.278   3.708 -0.3813  0.0675  0.3409
 3558ntf    fn420423   0.579   6.373   3.617 -0.2293 -0.0649 -0.0845
 3558ntf    on520424   0.514   6.244   3.879  0.0410 -0.3302  0.4230
 3558ntf    on520425   0.704   6.375   3.971  0.2055  0.0143 -0.4013
 3558ntf    on520426   0.301   6.430   3.776 -0.1413 -0.3324  0.2129
 3558ntf    on520427   0.355   6.667   3.803 -0.3174 -0.1776 -0.2933
 3558ntf    fn420428   0.169   6.518   4.022  0.4461 -0.0948  0.2408
 3558ntf    fn420429   0.359   6.460   4.100  0.3046  0.0037  0.2870
 3558ntf    fn420430   0.319   6.661   4.071  1.2772  0.0330 -0.0768
 3559ntf    cn120431   0.287   5.778   0.058 -0.1541 -0.0559  0.0431
 3559ntf    sn220432   0.300   5.956   0.025 -0.0673 -0.0806 -0.0541
 3559ntf    nn320433   0.300   5.935  -0.131 -0.0536  0.2821 -0.1054
 3559ntf    sn220434   0.417   5.962  -0.231 -0.0580  0.4275 -0.0710
 3559ntf    cn120435   0.397   6.142  -0.245 -0.5457  0.3706 -0.0946
 3559ntf    fn420436   0.277   5.753   0.188  0.2310 -0.0898  0.0654
 3559ntf    fn420437   0.177   5.727   0.004 -0.0249 -0.4644  0.1628
 3559ntf    fn420438   0.388   5.705   0.015 -0.4909 -0.4483 -0.0883
 3559ntf    on520439   0.176   6.012   0.072  0.0329  0.1048 -0.0102
 3559ntf    on520440   0.419   5.997   0.095  0.0327 -0.5220  0.0368
 3559ntf    on520441   0.384   5.913  -0.363  0.1929 -0.5053  0.2050
 3559ntf    on520442   0.546   5.939  -0.170  0.0419  0.1365 -0.3817
 3559ntf    fn420443   0.380   6.200  -0.127 -0.3623  0.5437 -0.1531
 3559ntf    fn420444   0.507   6.197  -0.293 -0.3621 -0.2020 -0.3406
 3559ntf    fn420445   0.301   6.172  -0.332 -0.2980  0.4253 -0.3488
 3560ntf    cn120446   4.088   4.807   6.004  0.0193 -0.2175  0.1025
 3560ntf    sn220447   3.973   4.677   5.948  0.3637 -0.5007  0.0491
 3560ntf    nn320448   4.047   4.556   6.014  0.5730 -0.6262 -0.4143
 3560ntf    sn220449   4.008   4.463   6.134  0.0546 -0.0390 -0.1251
 3560ntf    cn120450   3.899   4.334   6.065 -0.0317 -0.0274 -0.0102
 3560ntf    fn420451   4.056   4.916   5.936  0.1077 -0.3029 -0.0785
 3560ntf    fn420452   4.067   4.844   6.129  0.2675  0.1005  0.0503
 3560ntf    fn420453   4.219   4.791   5.994  0.0596  0.2134 -0.0799
 3560ntf    on520454   3.849   4.719   6.008  0.9965 -0.0141  1.0491
 3560ntf    on520455   3.994   4.680   5.805  0.1965 -0.2262  0.0292
 3560ntf    on520456   3.931   4.521   6.241  0.2428  0.1460 -0.0895
 3560ntf    on520457   4.119   4.380   6.172  0.0476  0.1018  0.2074
 3560ntf    fn420458   3.812   4.384   5.979 -0.0559 -0.1928 -0.0803
 3560ntf    fn420459   3.969   4.242   6.001  0.1784  0.2335 -0.1574
 3560ntf    fn420460   3.827   4.270   6.156  0.2050 -0.0974  0.1288
 3561ntf    cn120461   5.289   3.194   2.795 -0.4746 -0.0536  0.2603
 3561ntf    sn220462   5.289   3.016   2.758  0.2620 -0.0075  0.0301
 3561ntf    nn320463   5.190   3.022   2.637  0.1638 -0.9320  0.0551
 3561ntf    sn220464   5.033   3.012   2.631  0.1341 -0.5225  0.0786
 3561ntf    cn120465   5.012   2.852   2.547 -0.3881 -0.2237 -0.3643
 3561ntf    fn420466   5.386   3.225   2.880 -0.3621  0.4753 -0.0616
 3561ntf    fn420467   5.315   3.256   2.682  0.0083 -0.0019  0.3981
 3561ntf    fn420468   5.170   3.228   2.843 -0.7010 -0.1733 -0.2168
 3561ntf    on520469   5.425   2.981   2.724  0.2120 -0.0696 -0.1079
 3561ntf    on520470   5.239   2.957   2.880  0.0724  0.0283 -0.0320
 3561ntf    on520471   4.970   3.108   2.544 -0.5327 -0.2564  0.8448
 3561ntf    on520472   4.962   2.983   2.753 -0.1453  0.0525  0.0510
 3561ntf    fn420473   5.040   2.860   2.418 -0.2215  0.0415 -0.3130
 3561ntf    fn420474   5.087   2.758   2.602 -0.1079 -0.1250 -0.5722
 3561ntf    fn420475   4.886   2.813   2.554 -0.3321 -0.2945  0.3420
 3562ntf    cn120476   0.079   2.084   2.779  0.1516 -0.4438  0.1300
 3562ntf    sn220477   0.061   1.903   2.777 -0.1593 -0.4114 -0.2939
 3562ntf    nn320478   0.082   1.863   2.627 -0.5967 -0.1707 -0.4198
 3562ntf    sn220479   0.215   1.804   2.568 -0.5450 -0.4098 -0.0636
 3562ntf    cn120480   0.232   1.646   2.657 -0.5312 -0.3480  0.0425
 3562ntf    fn420481   0.011   2.142   2.681 -0.6145 -0.9063  0.3891
 3562ntf    fn420482   0.036   2.126   2.896 -0.3122 -0.5236 -0.0124
 3562ntf    fn420483   0.204   2.127   2.766 -0.0747  0.1653 -0.0571
 3562ntf    on520484   0.172   1.871   2.864  0.1867  0.2617 -0.4808
 3562ntf    on520485  -0.075   1.891   2.823 -0.1740  0.1681 -0.1701
 3562ntf    on520486   0.334   1.882   2.588 -1.0250  0.1953  0.4497
 3562ntf    on520487   0.196   1.772   2.429  0.1390 -0.2403 -0.1981
 3562ntf    fn420488   0.115   1.592   2.684 -0.1644 -0.9204  0.5086
 3562ntf    fn420489   0.307   1.557   2.594  0.4916  0.1142  0.5699
 3562ntf    fn420490   0.292   1.658   2.775 -0.2493 -0.6563 -0.0688
 3563ntf    cn120491   5.822   5.299   3.757 -0.2098  0.1369 -0.1196
 3563ntf    sn220492   5.802   5.423   3.889 -0.2001  0.1527 -0.1330
 3563ntf    nn320493   5.666   5.487   3.844 -0.3941 -0.1779 -0.0201
 3563ntf    sn220494   5.542   5.525   3.932 -0.1565 -0.1701  0.3183
 3563ntf    cn120495   5.436   5.381   3.898  0.0373 -0.2874  0.2138
 3563ntf    fn420496   5.832   5.347   3.634 -0.5527  0.0790 -0.1719
 3563ntf    fn420497   5.927   5.221   3.778 -0.1043  0.3124  0.0043
 3563ntf    fn420498   5.714   5.224   3.748  0.2226 -0.4942 -0.1278
 3563ntf    on520499   5.794   5.341   4.007  0.0294  0.1129 -0.1431
 3563ntf    on520500   5.914   5.512   3.865 -0.3668  0.4694  0.2688
 3563ntf    on520501   5.475   5.638   3.871 -0.0042 -0.3836 -0.2531
 3563ntf    on520502   5.555   5.530   4.075  0.0042  0.1669  0.2927
 3563ntf    fn420503   5.432   5.345   3.771 -0.2321  0.2403  0.0680
 3563ntf    fn420504   5.489   5.278   3.962 -0.0703 -0.6655 -0.3014
 3563ntf    fn420505   5.310   5.385   3.938 -0.1189 -0.5482 -0.2437
 3564ntf    cn120506   5.032   1.561   7.076 -0.0892 -0.0817  0.4046
 3564ntf    sn220507   5.010   1.387   7.124 -0.1348 -0.1316  0.2044
 3564ntf    nn320508   4.859   1.358   7.091 -0.0024 -0.5855 -0.0077
 3564ntf    sn220509   4.788   1.294   6.967  0.0157 -0.0455 -0.3029
 3564ntf    cn120510   4.779   1.119   7.015 -0.1721  0.1238  0.2840
 3564ntf    fn420511   4.968   1.649   7.152 -0.2017 -0.0163  0.2355
 3564ntf    fn420512   5.159   1.595   7.076 -0.1656  0.2223 -0.0517
 3564ntf    fn420513   4.988   1.589   6.954 -0.5285 -0.0907  0.5595
 3564ntf    on520514   5.103   1.322   7.035 -0.3182 -0.2182  0.0744
 3564ntf    on520515   5.031   1.377   7.266 -0.1463  0.1116  0.2235
 3564ntf    on520516   4.863   1.295   6.843  0.2958  0.0897 -0.1339
 3564ntf    on520517   4.649   1.333   6.960 -0.0189 -0.1912 -0.4316
 3564ntf    fn420518   4.766   1.040   6.909 -0.3125  0.0707  0.3405
 3564ntf    fn420519   4.890   1.069   7.068 -0.1668 -0.4292 -0.2288
 3564ntf    fn420520   4.680   1.096   7.099 -0.2277 -0.0146  0.1798
 3565ntf    cn120521   0.382   3.546   6.320  0.1066 -0.2015 -0.2677
 3565ntf    sn220522   0.520   3.470   6.229  0.0870 -0.2686 -0.2404
 3565ntf    nn320523   0.539   3.584   6.123  0.4040  0.1147  0.2273
 3565ntf    sn220524   0.657   3.687   6.108  0.3276  0.1607 -0.0719
 3565ntf    cn120525   0.733   3.626   5.955  0.1141 -0.0781 -0.0832
 3565ntf    fn420526   0.286   3.586   6.239 -0.0377  0.1718  0.0844
 3565ntf    fn420527   0.340   3.481   6.427  0.2669 -0.1372 -0.1645
 3565ntf    fn420528   0.417   3.662   6.373 -0.3180 -0.0768 -0.2573
 3565ntf    on520529   0.627   3.444   6.321  0.0603  0.1549 -0.0881
 3565ntf    on520530   0.465   3.350   6.170 -0.7068 -0.1423  0.2271
 3565ntf    on520531   0.766   3.677   6.202  0.3608 -0.1797 -0.1452
 3565ntf    on520532   0.615   3.819   6.067 -0.8098 -0.2760 -0.3576
 3565ntf    fn420533   0.654   3.636   5.849  0.5880 -0.2462 -0.4575
 3565ntf    fn420534   0.847   3.689   5.930  0.0125  0.0984 -0.0969
 3565ntf    fn420535   0.772   3.499   5.955  0.1221 -0.0753  0.0963
 3566ntf    cn120536   4.362   3.872   2.069 -0.0461  0.0494  0.2043
 3566ntf    sn220537   4.290   3.975   1.938  0.0365 -0.1556 -0.0036
 3566ntf    nn320538   4.156   4.023   2.004  0.0938  0.7069 -0.4936
 3566ntf    sn220539   4.007   3.977   1.982  0.1512  0.1392  0.2711
 3566ntf    cn120540   3.969   3.884   2.134  0.2659 -0.4991 -0.0859
 3566ntf    fn420541   4.291   3.762   2.087 -0.0978  0.1312  0.5008
 3566ntf    fn420542   4.479   3.817   2.040  0.1259  0.1917  0.6294
 3566ntf    fn420543   4.372   3.930   2.187 -0.0132  0.4358  0.0139
 3566ntf    on520544   4.388   4.080   1.924 -0.8171  0.6514 -0.0538
 3566ntf    on520545   4.282   3.884   1.827 -0.3306  0.2771 -0.3395
 3566ntf    on520546   3.983   3.892   1.868  0.1144  0.4267  0.0639
 3566ntf    on520547   3.909   4.083   1.989 -0.0909 -0.0666  0.0290
 3566ntf    fn420548   3.861   3.808   2.130 -0.0605 -0.0192 -0.7300
 3566ntf    fn420549   4.073   3.806   2.153  0.3908 -0.2089  0.4346
 3566ntf    fn420550   3.956   3.975   2.229 -0.1065 -0.4011 -0.2279
 3567ntf    cn120551   4.576   4.225   5.745  0.2046 -0.1676  0.1689
 3567ntf    sn220552   4.676   4.129   5.628 -0.0544 -0.0278 -0.1668
 3567ntf    nn320553   4.706   4.014   5.730  0.3906 -0.0784 -0.3503
 3567ntf    sn220554   4.631   3.881   5.764  0.4055 -0.0135 -0.0546
 3567ntf    cn120555   4.612   3.907   5.943  0.0995 -0.1165 -0.0718
 3567ntf    fn420556   4.510   4.327   5.694 -0.1658 -0.3473  0.2829
 3567ntf    fn420557   4.485   4.156   5.812 -0.4890  0.2093 -0.3681
 3567ntf    fn420558   4.657   4.282   5.833  0.0261  0.2920  0.0365
 3567ntf    on520559   4.584   4.104   5.520 -0.2355  0.4685 -0.1299
 3567ntf    on520560   4.791   4.211   5.598  0.3385 -0.4692  0.1245
 3567ntf    on520561   4.719   3.766   5.759  0.4987  0.0672 -0.2669
 3567ntf    on520562   4.496   3.864   5.717  0.4430 -0.3954 -0.0317
 3567ntf    fn420563   4.547   4.019   5.969 -0.2599 -0.1671 -0.7136
 3567ntf    fn420564   4.540   3.805   5.988 -0.7036  0.3504 -0.2834
 3567ntf    fn420565   4.725   3.905   6.012  0.0450 -0.0104  0.0200
 3568ntf    cn120566   3.042   2.566   5.382 -0.2178  0.2121 -0.4046
 3568ntf    sn220567   2.902   2.453   5.358 -0.2978  0.2546 -0.1425
 3568ntf    nn320568   2.904   2.449   5.201 -0.7302 -0.5097 -0.1313
 3568ntf    sn220569   2.823   2.540   5.101  0.0539  0.1211 -0.2009
 3568ntf    cn120570   2.688   2.424   5.066  0.0889  0.0752 -0.1849
 3568ntf    fn420571   3.156   2.518   5.334 -0.2455 -0.3555  0.0752
 3568ntf    fn420572   3.023   2.685   5.328  0.3498  0.8385  0.7200
 3568ntf    fn420573   3.067   2.582   5.511  0.4300 -0.0335 -0.4964
 3568ntf    on520574   2.954   2.333   5.417 -1.1536 -0.1182 -0.1261
 3568ntf    on520575   2.785   2.513   5.419 -0.2273  0.1704  0.0748
 3568ntf    on520576   2.878   2.555   4.969  0.4127 -0.4766 -0.1254
 3568ntf    on520577   2.759   2.651   5.166 -0.7475 -0.3361 -0.1920
 3568ntf    fn420578   2.640   2.382   5.181  0.0540  0.0060 -0.2250
 3568ntf    fn420579   2.594   2.484   4.995  0.2447  0.2151 -0.2731
 3568ntf    fn420580   2.720   2.322   4.987 -0.3540  0.3057 -0.6694
 3569ntf    cn120581   1.252   4.654   3.811  0.1995 -0.0428  0.0799
 3569ntf    sn220582   1.332   4.490   3.799  0.0655 -0.0721 -0.4479
 3569ntf    nn320583   1.477   4.510   3.743  0.2577  0.0268  0.0805
 3569ntf    sn220584   1.559   4.420   3.645  0.3265  0.0638  0.1043
 3569ntf    cn120585   1.717   4.487   3.706  0.3672  0.1686 -0.1139
 3569ntf    fn420586   1.120   4.643   3.812  0.1180  0.8260 -0.2602
 3569ntf    fn420587   1.283   4.724   3.919  0.4127 -0.3698  0.2336
 3569ntf    fn420588   1.283   4.734   3.710 -0.0316 -0.0496  0.0034
 3569ntf    on520589   1.326   4.465   3.941  0.0945  0.5820 -0.3266
 3569ntf    on520590   1.240   4.420   3.713  0.1098 -0.4550 -0.1852
 3569ntf    on520591   1.549   4.448   3.504 -0.1373  0.1662  0.1583
 3569ntf    on520592   1.560   4.281   3.685  0.0143 -0.0534 -0.2989
 3569ntf    fn420593   1.735   4.456   3.834 -0.4562  0.1919  0.0125
 3569ntf    fn420594   1.821   4.443   3.638  0.4215 -0.0041  0.0782
 3569ntf    fn420595   1.736   4.618   3.696 -0.0836  0.2244 -0.2578
 3570ntf    cn120596   4.214   4.868   3.741  0.1802  0.0060 -0.0304
 3570ntf    sn220597   4.319   4.747   3.656 -0.0372 -0.0768 -0.1817
 3570ntf    nn320598   4.340   4.839   3.530  0.5806  0.0422  0.0083
 3570ntf    sn220599   4.405   4.795   3.394  0.0717 -0.1889 -0.1624
 3570ntf    cn120600   4.577   4.845   3.424  0.1833 -0.4864 -0.3034
 3570ntf    fn420601   4.107   4.907   3.673  0.1215 -0.2298 -0.0732
 3570ntf    fn420602   4.175   4.814   3.855  0.1442  0.6365  0.2624
 3570ntf    fn420603   4.281   4.980   3.765  0.2212 -0.0307  0.0248
 3570ntf    on520604   4.434   4.728   3.740  0.1615  0.5036 -0.3203
 3570ntf    on520605   4.221   4.641   3.644 -0.1104 -0.0068 -0.2051
 3570ntf    on520606   4.367   4.877   3.282 -0.1030  0.1928  0.1722
 3570ntf    on520607   4.404   4.653   3.371  0.1427 -0.2283  0.0715
 3570ntf    fn420608   4.637   4.847   3.306  0.2560  0.3367 -0.2599
 3570ntf    fn420609   4.573   4.967   3.474 -0.0688 -0.4186 -0.4862
 3570ntf    fn420610   4.644   4.762   3.503  0.1894 -0.1848  0.0112
 3571ntf    cn120611   2.556   4.495   6.185 -0.0060  0.2732  0.2483
 3571ntf    sn220612   2.712   4.513   6.277  0.2630 -0.2429 -0.1024
 3571ntf    nn320613   2.756   4.659   6.243  0.3808 -0.1291  0.5251
 3571ntf    sn220614   2.745   4.782   6.340 -0.4504  0.0265  0.2370
 3571ntf    cn120615   2.820   4.903   6.227  0.0693 -0.3460  0.1823
 3571ntf    fn420616   2.585   4.498   6.056 -0.2552 -0.0263  0.1859
 3571ntf    fn420617   2.501   4.377   6.207  0.1981  0.0296 -0.5043
 3571ntf    fn420618   2.464   4.587   6.209  0.0873  0.4019  0.1188
 3571ntf    on520619   2.684   4.492   6.417 -0.3044  1.2507  0.0223
 3571ntf    on520620   2.804   4.424   6.211  0.5484  0.0019 -0.0345
 3571ntf    on520621   2.844   4.778   6.444  0.0136  0.5762 -0.1706
 3571ntf    on520622   2.616   4.839   6.371 -0.3022  0.3884  0.1915
 3571ntf    fn420623   2.930   4.865   6.163 -0.0746 -0.6850  0.1338
 3571ntf    fn420624   2.735   4.943   6.133  0.1609 -0.0235  0.2370
 3571ntf    fn420625   2.860   5.011   6.291  0.1703 -0.3339  0.0993
 3572ntf    cn120626   3.430   3.929   1.548  0.0031 -0.1317  0.0479
 3572ntf    sn220627   3.469   3.808   1.418 -0.2314 -0.0474 -0.1013
 3572ntf    nn320628   3.443   3.676   1.500 -0.1713 -0.1806 -0.2956
 3572ntf    sn220629   3.547   3.605   1.593 -0.3001  0.0860  0.0569
 3572ntf    cn120630   3.618   3.477   1.485 -0.4605  0.2427 -0.2348
 3572ntf    fn420631   3.512   3.923   1.651  0.0979  0.0665 -0.0168
 3572ntf    fn420632   3.437   4.051   1.497  0.9310 -0.0054  0.4553
 3572ntf    fn420633   3.310   3.922   1.603  0.3567  0.4193  0.9131
 3572ntf    on520634   3.369   3.826   1.315 -0.1706 -0.0044 -0.1534
 3572ntf    on520635   3.602   3.847   1.378 -0.0843 -0.2684  0.1698
 3572ntf    on520636   3.480   3.528   1.694 -0.1369  0.4598  0.4496
 3572ntf    on520637   3.656   3.688   1.638  0.0820 -0.2945 -0.1518
 3572ntf    fn420638   3.695   3.385   1.540 -0.3948  0.4966  0.1009
 3572ntf    fn420639   3.523   3.402   1.432 -0.4724  0.4849 -0.5618
 3572ntf    fn420640   3.685   3.522   1.379  0.0446  0.0409 -0.0064
 3573ntf    cn120641   1.427   5.628   6.545  0.0204  0.2327  0.3878
 3573ntf    sn220642   1.506   5.750   6.436 -0.1917  0.0709  0.0484
 3573ntf    nn320643   1.460   5.876   6.518  0.0857  0.1256  0.1241
 3573ntf    sn220644   1.326   5.958   6.511  0.1808  0.2592 -0.1454
 3573ntf    cn120645   1.373   6.118   6.440  0.1555  0.2346 -0.2189
 3573ntf    fn420646   1.494   5.592   6.653 -0.1702 -0.0776  0.4056
 3573ntf    fn420647   1.305   5.669   6.577 -0.1657  0.2246 -0.2748
 3573ntf    fn420648   1.410   5.514   6.480  0.1288  0.3466  0.1583
 3573ntf    on520649   1.647   5.724   6.458 -0.2521 -0.4006 -0.1104
 3573ntf    on520650   1.443   5.728   6.308 -0.2944  0.4999  0.0235
 3573ntf    on520651   1.274   5.988   6.642  0.5709 -0.0586  0.0840
 3573ntf    on520652   1.229   5.911   6.414 -0.6694  0.0354  0.7985
 3573ntf    fn420653   1.490   6.162   6.483 -0.1902  0.4935  0.4736
 3573ntf    fn420654   1.393   6.108   6.310  0.5858 -0.0947 -0.1314
 3573ntf    fn420655   1.275   6.204   6.462 -0.0026 -0.0535  0.2226
 3574ntf    cn120656   0.905   5.714   0.838 -0.0791  0.1645 -0.4693
 3574ntf    sn220657   0.775   5.805   0.928  0.3263  0.0282  0.2628
 3574ntf    nn320658   0.802   5.744   1.070 -0.2192 -0.2357  0.2548
 3574ntf    sn220659   0.875   5.811   1.192  0.0187  0.3758 -0.2172
 3574ntf    cn120660   0.746   5.779   1.316  0.1671 -0.0626 -0.1738
 3574ntf    fn420661   0.892   5.583   0.854 -0.0037  0.2233  0.1041
 3574ntf    fn420662   0.903   5.739   0.708  0.3876  0.3802 -0.4357
 3574ntf    fn420663   1.022   5.741   0.893 -0.2414 -0.3918  0.1691
 3574ntf    on520664   0.810   5.941   0.895 -0.3739  0.0511 -0.4028
 3574ntf    on520665   0.657   5.755   0.862  0.1179  0.2443  0.4723
 3574ntf    on520666   0.890   5.954   1.198 -0.2184  0.4227 -0.6405
 3574ntf    on520667   0.990   5.728   1.219 -0.5120 -0.3730 -0.2357
 3574ntf    fn420668   0.783   5.823   1.436  0.4400  0.3241 -0.3980
 3574ntf    fn420669   0.641   5.854   1.286  0.0366 -0.1486  0.0616
 3574ntf    fn420670   0.702   5.655   1.321  0.2062 -0.0938 -0.6335
 3575ntf    cn120671   1.925   0.944   6.566  0.2886  0.2217  0.1791
 3575ntf    sn220672   1.825   1.001   6.425  0.4368  0.2329  0.0783
 3575ntf    nn320673   1.892   1.141   6.398  0.2130  0.3957  0.3693
 3575ntf    sn220674   1.917   1.213   6.262 -0.2855  0.0472  0.0898
 3575ntf    cn120675   2.096   1.187   6.245 -0.2963  0.0237  0.0101
 3575ntf    fn420676   2.052   0.975   6.550  0.1448  0.7747  0.1197
 3575ntf    fn420677   1.902   1.004   6.681  0.2117 -0.3264  0.4549
 3575ntf    fn420678   1.912   0.812   6.577  0.4704  0.1510 -0.4300
 3575ntf    on520679   1.843   0.894   6.331  0.2673 -0.1174  0.4412
 3575ntf    on520680   1.698   1.021   6.491  0.3829 -0.1527  0.0956
 3575ntf    on520681   1.913   1.357   6.279  0.2233  0.0794 -0.0517
 3575ntf    on520682   1.861   1.160   6.140  0.2619 -0.2769 -0.0236
 3575ntf    fn420683   2.130   1.202   6.118 -0.3798 -0.0931 -0.0263
 3575ntf    fn420684   2.171   1.265   6.321 -0.7955  0.6337 -0.1174
 3575ntf    fn420685   2.124   1.061   6.275 -0.2408  0.0202 -0.0568
 3576ntf    cn120686   1.934   3.042   1.862 -0.2578 -0.0490  0.0133
 3576ntf    sn220687   1.886   3.133   2.011 -0.1121 -0.1922  0.1472
 3576ntf    nn320688   1.787   3.230   1.938  0.1460  0.2205  0.3367
 3576ntf    sn220689   1.657   3.298   1.993  0.1309  0.3538  0.1398
 3576ntf    cn120690   1.533   3.174   1.945  0.1442  0.3472  0.1225
 3576ntf    fn420691   1.822   3.025   1.793 -0.4410  0.3425  0.2119
 3576ntf    fn420692   2.025   3.105   1.789 -0.0201 -0.0105  0.3430
 3576ntf    fn420693   1.987   2.923   1.884  0.6316  0.3933  0.3160
 3576ntf    on520694   1.822   3.032   2.092 -0.2195 -0.4761 -0.2894
 3576ntf    on520695   2.008   3.198   2.052 -0.2484 -0.2671  0.6862
 3576ntf    on520696   1.619   3.413   1.916  0.4512  0.3037 -0.0904
 3576ntf    on520697   1.653   3.315   2.137  0.1855  0.3552  0.1411
 3576ntf    fn420698   1.536   3.064   2.019 -0.0832 -0.0327 -0.4220
 3576ntf    fn420699   1.410   3.218   1.963 -0.1003 -0.2256 -0.1133
 3576ntf    fn420700   1.537   3.134   1.819 -0.2801  0.0744  0.1918
 3577ntf    cn120701   3.573   6.735   6.322 -0.1910  0.3560  0.1193
 3577ntf    sn220702   3.725   6.709   6.226 -0.2126 -0.0701  0.2005
 3577ntf    nn320703   3.663   6.623   6.110  0.1732 -0.0026 -0.0578
 3577ntf    sn220704   3.691   6.470   6.089  0.2996  0.0144 -0.0090
 3577ntf    cn120705   3.724   6.470   5.910 -0.1383 -0.4181 -0.0912
 3577ntf    fn420706   3.522   6.619   6.361 -0.3541  0.4098  0.0660
 3577ntf    fn420707   3.596   6.801   6.434  0.0789  0.0399  0.2520
 3577ntf    fn420708   3.484   6.810   6.258  0.2943  0.5285 -0.3565
 3577ntf    on520709   3.764   6.839   6.179 -0.0384  0.0438  0.6627
 3577ntf    on520710   3.810   6.643   6.322  0.1905  0.1268 -0.0233
 3577ntf    on520711   3.578   6.381   6.096  0.2716 -0.0427 -0.9965
 3577ntf    on520712   3.816   6.421   6.141  0.4956 -0.1819 -0.6508
 3577ntf    fn420713   3.625   6.525   5.842  0.2949  0.0715 -0.3307
 3577ntf    fn420714   3.833   6.542   5.888 -0.1995 -0.3571 -0.1905
 3577ntf    fn420715   3.737   6.348   5.860  0.2418 -0.3651 -0.1304
 3578ntf    cn120716   3.668   0.401   4.463  0.3330 -0.4025 -0.2278
 3578ntf    sn220717   3.848   0.419   4.441  0.3442  0.0339  0.2070
 3578ntf    nn320718   3.876   0.560   4.504 -0.3371  0.1950  0.1551
 3578ntf    sn220719   3.907   0.690   4.422 -0.1982  0.2292  0.2626
 3578ntf    cn120720   3.953   0.799   4.561  0.1009  0.2630  0.1384
 3578ntf    fn420721   3.598   0.485   4.387  0.1198 -0.0247  0.3818
 3578ntf    fn420722   3.620   0.283   4.429 -0.2594 -0.2388  0.0219
 3578ntf    fn420723   3.634   0.417   4.590 -0.4078  0.4730 -0.5221
 3578ntf    on520724   3.905   0.316   4.524  0.3840 -0.1448 -0.0452
 3578ntf    on520725   3.860   0.408   4.298 -0.1109 -0.4789  0.2015
 3578ntf    on520726   3.793   0.746   4.354 -0.0647  0.0816 -0.0841
 3578ntf    on520727   4.034   0.684   4.354 -0.0197 -0.8266  0.6730
 3578ntf    fn420728   4.013   0.909   4.520  0.1241  0.1459 -0.1421
 3578ntf    fn420729   3.835   0.821   4.617  0.0460  0.1161  0.0815
 3578ntf    fn420730   4.032   0.753   4.657  0.2366 -0.3172 -0.2454
 3579ntf    cn120731   4.706   3.207   4.887 -0.2172  0.0946 -0.4988
 3579ntf    sn220732   4.641   3.057   4.967  0.2433  0.1656  0.0208
 3579ntf    nn320733   4.679   3.097   5.114 -0.0022  0.2670  0.0574
 3579ntf    sn220734   4.597   3.178   5.221 -0.1164  0.5217 -0.2209
 3579ntf    cn120735   4.518   3.036   5.303 -0.0197  0.2305 -0.6296
 3579ntf    fn420736   4.733   3.180   4.760  0.4336 -0.1547 -0.3155
 3579ntf    fn420737   4.618   3.305   4.889 -0.6306 -0.2783  0.3487
 3579ntf    fn420738   4.825   3.236   4.938 -0.3337 -0.3463  0.0492
 3579ntf    on520739   4.500   3.039   4.939  0.3640  0.3144 -0.6883
 3579ntf    on520740   4.723   2.955   4.907 -0.2568  0.2318 -0.8002
 3579ntf    on520741   4.498   3.269   5.169 -0.5461  0.3050  0.2095
 3579ntf    on520742   4.681   3.225   5.329 -0.0427 -0.4015  0.1349
 3579ntf    fn420743   4.445   3.074   5.407  0.4219  0.1653 -0.2954
 3579ntf    fn420744   4.437   2.973   5.219  0.1722 -1.0474  0.1210
 3579ntf    fn420745   4.611   2.949   5.339 -0.1908  0.3744  0.1696
 3580ntf    cn120746   7.070   4.625   1.403  0.1961  0.3254  0.4733
 3580ntf    sn220747   6.968   4.749   1.318  0.0132  0.1317  0.4107
 3580ntf    nn320748   7.070   4.868   1.318  0.2823 -0.0984 -0.2429
 3580ntf    sn220749   7.026   5.007   1.261 -0.3639 -0.0952  0.2528
 3580ntf    cn120750   7.039   5.115   1.407  0.2178  0.0714  0.0823
 3580ntf    fn420751   7.189   4.612   1.345 -0.0608 -0.7461  0.1569
 3580ntf    fn420752   7.100   4.662   1.526  0.2237  0.2703  0.4834
 3580ntf    fn420753   7.011   4.508   1.421  0.2564  0.3320  0.7199
 3580ntf    on520754   6.939   4.696   1.187 -0.7022  0.8302  0.2786
 3580ntf    on520755   6.853   4.769   1.403 -0.3450  0.3347 -0.1151
 3580ntf    on520756   6.888   5.028   1.223 -0.3394 -0.6429 -0.1462
 3580ntf    on520757   7.114   5.067   1.163 -0.6288 -0.1862 -0.0435
 3580ntf    fn420758   7.030   5.244   1.379  0.2689  0.0770  0.0887
 3580ntf    fn420759   6.933   5.093   1.483  0.3470 -0.4321  0.1143
 3580ntf    fn420760   7.152   5.094   1.472  0.2225 -0.2767 -0.0350
 3581ntf    cn120761   5.832   4.446   2.983 -0.0534 -0.1792 -0.1162
 3581ntf    sn220762   5.969   4.364   3.070  0.1609  0.1807 -0.1083
 3581ntf    nn320763   5.933   4.403   3.217 -1.3431  0.5334 -0.5504
 3581ntf    sn220764   5.934   4.317   3.349 -0.0595  0.7423 -0.4141
 3581ntf    cn120765   5.758   4.274   3.366  0.0519  0.4987  0.1288
 3581ntf    fn420766   5.839   4.577   2.999 -0.0649 -0.1308 -0.5001
 3581ntf    fn420767   5.829   4.414   2.855 -0.1289  0.2799 -0.2324
 3581ntf    fn420768   5.717   4.408   3.037 -0.1356  0.5991  0.2820
 3581ntf    on520769   5.950   4.225   3.035  0.2821  0.2089 -0.2886
 3581ntf    on520770   6.084   4.429   3.013  0.1731  0.1276 -0.1439
 3581ntf    on520771   5.957   4.399   3.465  0.3750 -0.1025  0.1046
 3581ntf    on520772   6.016   4.198   3.345  0.0429  0.7676  0.7964
 3581ntf    fn420773   5.685   4.384   3.352 -0.2366  0.3170  0.2013
 3581ntf    fn420774   5.717   4.177   3.286  0.6149  0.0800  0.3412
 3581ntf    fn420775   5.722   4.229   3.485  0.1648  0.1887  0.0472
 3582ntf    cn120776   6.502   3.323   3.361  0.5422  0.0977 -0.1278
 3582ntf    sn220777   6.576   3.299   3.526 -0.3796 -0.0877  0.2647
 3582ntf    nn320778   6.512   3.163   3.571  0.1148 -0.1181  0.8786
 3582ntf    sn220779   6.554   3.013   3.550 -0.2953 -0.1358  0.1636
 3582ntf    cn120780   6.674   2.979   3.682  0.2318 -0.0443 -0.2878
 3582ntf    fn420781   6.542   3.223   3.284 -0.1551 -0.3891  0.1292
 3582ntf    fn420782   6.369   3.324   3.363  0.5438 -0.1651  0.2993
 3582ntf    fn420783   6.546   3.427   3.292 -0.2252  0.1622 -0.5288
 3582ntf    on520784   6.720   3.303   3.520 -0.3682 -0.2071  0.4542
 3582ntf    on520785   6.508   3.402   3.600 -0.0876  0.0833  0.2957
 3582ntf    on520786   6.620   2.975   3.428 -0.3918 -0.8047  0.3152
 3582ntf    on520787   6.447   2.920   3.575 -0.2022 -0.2886 -0.0026
 3582ntf    fn420788   6.778   3.061   3.683  0.2109 -0.0191 -0.1902
 3582ntf    fn420789   6.609   3.004   3.794 -0.4674 -0.3577 -0.6186
 3582ntf    fn420790   6.713   2.853   3.677  0.2322 -0.0417 -0.3502
 3583ntf    cn120791   0.268   1.949   4.017 -0.2918 -0.6136  0.3441
 3583ntf    sn220792   0.313   1.844   4.158  0.3287 -0.2845  0.3947
 3583ntf    nn320793   0.301   1.942   4.280 -0.0483  0.0836  0.0612
 3583ntf    sn220794   0.257   1.900   4.425 -0.0754  0.2313  0.0972
 3583ntf    cn120795   0.424   1.903   4.496 -0.0757  0.1530  0.1007
 3583ntf    fn420796   0.297   1.898   3.899  0.4476  0.2030  0.1638
 3583ntf    fn420797   0.138   1.976   4.019 -0.2796 -0.5546  0.3635
 3583ntf    fn420798   0.325   2.068   4.022 -0.7355 -0.3806 -0.0605
 3583ntf    on520799   0.214   1.741   4.138 -0.2988  0.4779 -0.4616
 3583ntf    on520800   0.451   1.808   4.136  0.2807 -0.0016 -0.3759
 3583ntf    on520801   0.202   1.768   4.447  0.2377  0.0373 -0.2599
 3583ntf    on520802   0.194   2.016   4.483 -0.3766  0.2659 -0.2958
 3583ntf    fn420803   0.493   2.000   4.438  0.0015 -0.0691 -0.1838
 3583ntf    fn420804   0.424   1.920   4.627 -0.3970  0.5619  0.0485
 3583ntf    fn420805   0.490   1.794   4.458 -0.3363  0.0397 -0.0244
 3584ntf    cn120806   5.783   2.434   0.220  0.4451 -0.1030 -0.3393
 3584ntf    sn220807   5.767   2.506   0.054 -0.2109  0.2866 -0.1075
 3584ntf    nn320808   5.784   2.657   0.093 -0.2942  0.1196  0.6010
 3584ntf    sn220809   5.920   2.733   0.070 -0.2226 -0.1775  0.0053
 3584ntf    cn120810   5.892   2.781  -0.103  0.0667 -0.0417 -0.0045
 3584ntf    fn420811   5.717   2.516   0.299 -0.0188 -0.5080 -0.3000
 3584ntf    fn420812   5.729   2.314   0.232  0.1244  0.0772  0.0348
 3584ntf    fn420813   5.905   2.433   0.271  0.2689  0.0763  0.0887
 3584ntf    on520814   5.871   2.442  -0.022 -0.0235  0.4620 -0.0012
 3584ntf    on520815   5.629   2.473   0.025 -0.0489 -0.3437 -0.1672
 3584ntf    on520816   6.041   2.654   0.071  0.1555  0.3916 -0.1822
 3584ntf    on520817   5.923   2.857   0.144 -0.2590 -0.4004  0.3846
 3584ntf    fn420818   5.807   2.881  -0.107  0.0443 -0.0659 -0.1330
 3584ntf    fn420819   6.002   2.832  -0.157 -0.1442  0.3025 -0.1083
 3584ntf    fn420820   5.849   2.677  -0.173  0.7018  0.0646 -0.5584
 3585ntf    cn120821   4.394   2.429   3.085 -0.0733  0.1067  0.0836
 3585ntf    sn220822   4.568   2.453   3.036 -0.0902 -0.1277 -0.0968
 3585ntf    nn320823   4.565   2.401   2.888 -0.5919  0.1566 -0.1896
 3585ntf    sn220824   4.639   2.451   2.759 -0.0620 -0.1704 -0.0139
 3585ntf    cn120825   4.776   2.332   2.740  0.2836  0.2020  0.1324
 3585ntf    fn420826   4.306   2.449   2.988 -0.0520  0.0357  0.0493
 3585ntf    fn420827   4.376   2.301   3.114  0.2755 -0.1307 -0.7126
 3585ntf    fn420828   4.376   2.500   3.195  0.4114  0.0384  0.2111
 3585ntf    on520829   4.575   2.595   3.061 -0.3283 -0.1328  0.0065
 3585ntf    on520830   4.639   2.368   3.128  0.0896  0.3857  0.2452
 3585ntf    on520831   4.704   2.579   2.770 -0.0958 -0.1574  0.0326
 3585ntf    on520832   4.565   2.421   2.639  0.1064 -0.1703 -0.1173
 3585ntf    fn420833   4.729   2.211   2.714 -0.2947  0.3282  0.5549
 3585ntf    fn420834   4.854   2.369   2.640 -0.3015  0.2754 -0.3028
 3585ntf    fn420835   4.855   2.332   2.846 -0.2043 -0.2210  0.5046
 3586ntf    cn120836   3.980   3.717   0.030 -0.1558  0.1490 -0.2642
 3586ntf    sn220837   3.938   3.864  -0.067 -0.1164  0.4439  0.1645
 3586ntf    nn320838   3.871   3.809  -0.198  0.0186  0.5870  0.0341
 3586ntf    sn220839   3.726   3.754  -0.223  0.3339 -0.2884  0.0998
 3586ntf    cn120840   3.681   3.894  -0.330  0.2760 -0.2149  0.2203
 3586ntf    fn420841   4.056   3.621  -0.022  0.1933  0.0413  0.4315
 3586ntf    fn420842   4.042   3.745   0.144  0.3548 -0.6811 -0.3248
 3586ntf    fn420843   3.866   3.657   0.060 -0.1964  0.0935 -0.5244
 3586ntf    on520844   3.845   3.934   0.019 -0.2460  0.0526  0.3446
 3586ntf    on520845   4.068   3.924  -0.083  0.2077 -0.0278  1.0000
 3586ntf    on520846   3.631   3.762  -0.115  0.1698  0.6458 -0.1054
 3586ntf    on520847   3.710   3.635  -0.302  0.0623 -0.1378 -0.0743
 3586ntf    fn420848   3.551   3.891  -0.353  0.4083 -0.7389 -0.4741
 3586ntf    fn420849   3.721   4.006  -0.272  0.0494 -0.1121  0.1777
 3586ntf    fn420850   3.747   3.886  -0.444  0.1672  0.2329  0.1227
 3587ntf    cn120851   1.018   5.094   1.948 -0.1261 -0.3143  0.0529
 3587ntf    sn220852   0.929   5.061   2.103  0.1192 -0.3098  0.1956
 3587ntf    nn320853   0.890   4.910   2.080 -0.5655 -0.1361  0.1958
 3587ntf    sn220854   0.969   4.785   2.134 -0.2750 -0.1732 -0.3038
 3587ntf    cn120855   0.867   4.653   2.062 -0.6593 -0.2072  0.2930
 3587ntf    fn420856   0.940   5.085   1.842  0.2890 -0.0707 -0.2795
 3587ntf    fn420857   1.073   5.214   1.944 -0.3912 -0.1766  0.5432
 3587ntf    fn420858   1.120   5.009   1.938  0.4457  0.3323  0.3306
 3587ntf    on520859   1.012   5.073   2.220  0.5589 -0.6452 -0.0749
 3587ntf    on520860   0.811   5.142   2.090  0.5063  0.2904  0.3651
 3587ntf    on520861   0.947   4.760   2.274  0.1382  0.2410 -0.1643
 3587ntf    on520862   1.099   4.762   2.077 -0.0749  0.0522  0.0601
 3587ntf    fn420863   0.738   4.672   2.085 -0.6676  0.2490 -0.1050
 3587ntf    fn420864   0.877   4.642   1.930 -0.0919 -0.3096  0.3430
 3587ntf    fn420865   0.901   4.539   2.119  0.6018 -0.1951 -0.3963
 3588ntf    cn120866   4.397   6.428   0.100 -0.2107 -0.0750 -0.1264
 3588ntf    sn220867   4.481   6.288   0.180 -0.0455  0.0883 -0.0140
 3588ntf    nn320868   4.616   6.279   0.101  0.0717  0.0334  0.1921
 3588ntf    sn220869   4.736   6.380   0.111 -0.2506  0.4548 -0.1411
 3588ntf    cn120870   4.838   6.315   0.247 -0.2623  0.3168 -0.1977
 3588ntf    fn420871   4.475   6.535   0.097  0.0344 -0.2346  0.4067
 3588ntf    fn420872   4.358   6.410  -0.025  0.0314 -0.0824 -0.2025
 3588ntf    fn420873   4.292   6.463   0.172 -0.1590  0.2572 -0.2126
 3588ntf    on520874   4.498   6.323   0.319 -0.2259 -0.2606  0.0967
 3588ntf    on520875   4.392   6.180   0.146  0.2196 -0.1258 -0.0355
 3588ntf    on520876   4.713   6.514   0.158 -0.3278  0.4829 -0.2602
 3588ntf    on520877   4.827   6.365  -0.000  0.1802 -0.0852  0.2762
 3588ntf    fn420878   4.964   6.349   0.230 -0.0446 -0.4056 -0.0862
 3588ntf    fn420879   4.797   6.360   0.365  0.1711 -0.0299  0.0909
 3588ntf    fn420880   4.840   6.182   0.243 -0.6359  0.2790  0.5956
 3589ntf    cn120881   1.308   0.881   5.205 -0.1157 -0.0467  0.0166
 3589ntf    sn220882   1.139   0.840   5.151 -0.1921  0.2364  0.0421
 3589ntf    nn320883   1.061   0.957   5.222  0.1787  0.4517  0.0987
 3589ntf    sn220884   0.994   0.955   5.364  0.0951  0.2842  0.0574
 3589ntf    cn120885   0.879   1.094   5.345  0.0870  0.2681 -0.0123
 3589ntf    fn420886   1.336   1.007   5.178 -0.3139 -0.1957 -0.8958
 3589ntf    fn420887   1.316   0.866   5.337  0.8512  0.1162 -0.0167
 3589ntf    fn420888   1.393   0.796   5.150 -0.2604 -0.2013  0.0313
 3589ntf    on520889   1.135   0.866   5.010 -0.5094  0.0646  0.0190
 3589ntf    on520890   1.100   0.707   5.191 -0.7927  0.3952 -0.0103
 3589ntf    on520891   1.085   0.988   5.470  0.6264 -0.7600 -0.0610
 3589ntf    on520892   0.906   0.843   5.385  0.1192  0.2650  0.0553
 3589ntf    fn420893   0.765   1.062   5.287  0.2945  0.1962 -0.3834
 3589ntf    fn420894   0.851   1.134   5.468 -0.3001 -0.5028  0.1501
 3589ntf    fn420895   0.925   1.202   5.283  0.3360  0.1928  0.0392
 3590ntf    cn120896   4.761   4.333   6.285  0.1188 -0.5794  0.0405
 3590ntf    sn220897   4.920   4.360   6.370 -0.1629  0.0025  0.3875
 3590ntf    nn320898   4.912   4.225   6.449 -0.3808 -0.1487  0.1091
 3590ntf    sn220899   4.942   4.190   6.599  0.4859 -0.0508 -0.0332
 3590ntf    cn120900   4.774   4.187   6.670  0.5488 -0.5218  0.1019
 3590ntf    fn420901   4.718   4.432   6.210  0.3904 -0.0978  0.5107
 3590ntf    fn420902   4.761   4.220   6.217  0.1631 -0.2735 -0.4680
 3590ntf    fn420903   4.672   4.317   6.381  0.1385 -0.0368  0.1548
 3590ntf    on520904   5.016   4.348   6.263 -0.8278  0.3308 -0.2514
 3590ntf    on520905   4.905   4.484   6.441 -0.5086 -0.1268  0.5400
 3590ntf    on520906   5.004   4.290   6.683 -0.3946  0.5027 -0.0272
 3590ntf    on520907   4.989   4.054   6.614  0.2671 -0.0773  0.4297
 3590ntf    fn420908   4.773   4.177   6.801  0.8331  0.4995  0.1884
 3590ntf    fn420909   4.718   4.306   6.656 -0.1739 -0.8829 -0.1648
 3590ntf    fn420910   4.686   4.098   6.626 -0.1162  0.0290  0.3059
 3591ntf    cn120911   2.714   4.498   1.750  0.1353  0.1737  0.5407
 3591ntf    sn220912   2.880   4.438   1.795  0.2777 -0.0929 -0.3176
 3591ntf    nn320913   2.946   4.579   1.817 -0.1029  0.0292  0.0644
 3591ntf    sn220914   3.083   4.630   1.759 -0.1570 -0.0866 -0.1672
 3591ntf    cn120915   3.015   4.741   1.632  0.0267 -0.0580 -0.2416
 3591ntf    fn420916   2.639   4.394   1.719  0.3359  0.2319 -0.1506
 3591ntf    fn420917   2.653   4.557   1.851 -0.0492 -0.1079  0.5946
 3591ntf    fn420918   2.716   4.583   1.649  0.9195 -0.1333  0.2867
 3591ntf    on520919   2.857   4.361   1.915  0.6560 -0.5620 -0.5446
 3591ntf    on520920   2.920   4.362   1.680 -0.4126 -0.8276 -0.0817
 3591ntf    on520921   3.161   4.543   1.675 -0.0331 -0.2700  0.1348
 3591ntf    on520922   3.153   4.723   1.844  0.1692 -0.2732 -0.2320
 3591ntf    fn420923   2.950   4.843   1.685  0.2611 -0.0228 -0.0202
 3591ntf    fn420924   3.114   4.782   1.555  0.2684  0.1043  0.1563
 3591ntf    fn420925   2.934   4.668   1.557  0.3720  0.1578 -0.8256
 3592ntf    cn120926   0.122   3.447   0.351 -0.0634  0.2460  0.2242
 3592ntf    sn220927   0.152   3.582   0.469 -0.0357  0.4953 -0.0651
 3592ntf    nn320928   0.273   3.515   0.544 -0.1827  0.3954  0.0854
 3592ntf    sn220929   0.269   3.424   0.672 -0.0480  0.0004 -0.1871
 3592ntf    cn120930   0.298   3.524   0.821  0.3928  0.0677 -0.3171
 3592ntf    fn420931   0.015   3.455   0.274 -0.2330  0.5485  0.4884
 3592ntf    fn420932   0.229   3.438   0.274 -0.1961  0.5458  0.0030
 3592ntf    fn420933   0.115   3.331   0.415 -0.0574  0.0879 -0.0591
 3592ntf    on520934   0.200   3.690   0.387  0.3481  0.2739 -0.1359
 3592ntf    on520935   0.022   3.606   0.527  0.1938  0.3046  0.5354
 3592ntf    on520936   0.381   3.335   0.688  0.0567  0.2231  0.3252
 3592ntf    on520937   0.143   3.357   0.695  0.0833  0.1329  0.9506
 3592ntf    fn420938   0.235   3.640   0.826  0.4236  0.0828 -0.2875
 3592ntf    fn420939   0.260   3.457   0.929  0.2174 -0.0652 -0.4595
 3592ntf    fn420940   0.426   3.548   0.845  0.2535  0.0369  0.4883
 3593ntf    cn120941   4.626   6.666   3.997  0.0322 -0.0403  0.0408
 3593ntf    sn220942   4.557   6.749   4.144  0.2114  0.1324  0.0264
 3593ntf    nn320943   4.493   6.628   4.219 -0.1937  0.0386 -0.4639
 3593ntf    sn220944   4.361   6.546   4.193 -0.3288  0.1035  0.0058
 3593ntf    cn120945   4.252   6.609   4.325  0.0349  0.1385  0.2906
 3593ntf    fn420946   4.726   6.586   4.031  0.0193 -0.1097 -0.0840
 3593ntf    fn420947   4.535   6.583   3.949  0.1051 -0.1767  0.1353
 3593ntf    fn420948   4.664   6.747   3.900 -0.3983 -0.1295 -0.2043
 3593ntf    on520949   4.671   6.811   4.207 -0.2301  0.6488  0.3266
 3593ntf    on520950   4.463   6.839   4.082 -0.1726 -0.3343 -0.0717
 3593ntf    on520951   4.379   6.406   4.220 -0.0897  0.0951 -0.1950
 3593ntf    on520952   4.293   6.577   4.070 -0.1220 -0.2337 -0.1924
 3593ntf    fn420953   4.319   6.582   4.436  0.1769  0.4622  0.2827
 3593ntf    fn420954   4.222   6.737   4.318  0.3724  0.1862 -0.3033
 3593ntf    fn420955   4.136   6.545   4.326  0.1561 -0.0816  0.4555
 3594ntf    cn120956   4.086   0.763   6.767 -0.0646 -0.0784 -0.2640
 3594ntf    sn220957   4.168   0.834   6.621  0.0041  0.1028 -0.1383
 3594ntf    nn320958   4.150   0.723   6.511  0.3630  0.1673 -0.2639
 3594ntf    sn220959   4.019   0.676   6.438 -0.0721  0.0443  0.5799
 3594ntf    cn120960   4.016   0.783   6.291  0.4436 -0.5231  0.1490
 3594ntf    fn420961   4.007   0.849   6.829 -0.0487 -0.4127  0.2286
 3594ntf    fn420962   4.024   0.649   6.740  0.2362 -0.2597 -0.1964
 3594ntf    fn420963   4.171   0.726   6.862  0.3890  0.4734 -0.4470
 3594ntf    on520964   4.094   0.955   6.594  0.1330  0.1818 -0.1364
 3594ntf    on520965   4.303   0.855   6.667 -0.0353  0.4085 -0.1587
 3594ntf    on520966   3.894   0.707   6.503 -0.3624 -0.0783  0.0859
 3594ntf    on520967   4.031   0.543   6.383 -0.2051  0.2485  0.0447
 3594ntf    fn420968   3.965   0.901   6.324  0.2915 -0.5832  0.1304
 3594ntf    fn420969   4.134   0.805   6.236 -0.1986 -0.3657 -1.2101
 3594ntf    fn420970   3.924   0.742   6.206  0.2280  0.0223  0.1114
 3595ntf    cn120971   2.536   5.482   0.766  0.0321 -0.1610  0.4160
 3595ntf    sn220972   2.426   5.619   0.811  0.2763  0.0937  0.2366
 3595ntf    nn320973   2.530   5.734   0.781  0.1093  0.1738 -0.0358
 3595ntf    sn220974   2.525   5.854   0.680 -0.1416  0.2372  0.0504
 3595ntf    cn120975   2.573   5.995   0.785  0.1048  0.3370 -0.1943
 3595ntf    fn420976   2.498   5.362   0.806 -0.2055 -0.0301  0.5797
 3595ntf    fn420977   2.557   5.468   0.636 -0.9159  0.2688  0.2099
 3595ntf    fn420978   2.659   5.496   0.815  0.6154  0.0171 -1.0349
 3595ntf    on520979   2.313   5.612   0.722  0.1261  0.0591  0.4303
 3595ntf    on520980   2.399   5.600   0.951 -0.1770 -0.0972  0.1226
 3595ntf    on520981   2.397   5.885   0.622  0.0520 -0.0565 -0.5374
 3595ntf    on520982   2.641   5.857   0.594 -0.3614 -0.5049 -0.2795
 3595ntf    fn420983   2.489   6.010   0.886  0.4125 -0.3550  0.1663
 3595ntf    fn420984   2.693   5.980   0.837  0.0201 -0.0209 -0.1026
 3595ntf    fn420985   2.586   6.108   0.717  0.4053  0.4282  0.0134
 3596ntf    cn120986   6.162   1.354   0.045  0.0760  0.0472 -0.0745
 3596ntf    sn220987   6.289   1.482   0.025  0.0485  0.0664 -0.1301
 3596ntf    nn320988   6.279   1.544   0.169 -0.5451  0.2305 -0.2428
 3596ntf    sn220989   6.309   1.692   0.214  0.2017 -0.0115  0.0584
 3596ntf    cn120990   6.312   1.676   0.395 -0.0536 -0.0308  0.0604
 3596ntf    fn420991   6.049   1.404   0.093  0.0520 -0.1576  0.0834
 3596ntf    fn420992   6.120   1.306  -0.071  0.1997 -0.0974 -0.0589
 3596ntf    fn420993   6.200   1.255   0.124 -0.1511  0.1477  0.1650
 3596ntf    on520994   6.411   1.407   0.004  0.3364  0.5158 -0.0880
 3596ntf    on520995   6.234   1.565  -0.079 -0.0159 -0.0483 -0.1871
 3596ntf    on520996   6.194   1.773   0.182 -0.0905 -0.4032  0.1089
 3596ntf    on520997   6.440   1.747   0.189  0.1997 -0.1650 -0.3075
 3596ntf    fn420998   6.346   1.789   0.456  0.2069 -0.2510  0.3227
 3596ntf    fn420999   6.194   1.644   0.446  0.0205 -0.2432  0.0977
 3596ntf    fn421000   6.398   1.585   0.436  0.2316  0.2915  0.1833
 3597ntf    cn121001   0.085   5.603   5.879 -0.0940  0.0905 -0.0548
 3597ntf    sn221002  -0.039   5.528   5.770 -0.3704 -0.0429  0.3456
 3597ntf    nn321003  -0.145   5.640   5.740  0.0304  0.2555  0.0367
 3597ntf    sn221004  -0.143   5.745   5.622 -0.0928  0.1627 -0.0466
 3597ntf    cn121005  -0.284   5.677   5.529  0.1601 -0.1565 -0.1981
 3597ntf    fn421006   0.156   5.697   5.819 -0.0558  0.0150 -0.1279
 3597ntf    fn421007   0.024   5.676   5.971 -0.1484 -0.3210  0.2437
 3597ntf    fn421008   0.160   5.510   5.936  0.1050  0.3428  0.0981
 3597ntf    on521009   0.033   5.479   5.655 -0.1779  0.0575  0.4212
 3597ntf    on521010  -0.093   5.429   5.859 -0.2375  0.1747  0.6688
 3597ntf    on521011  -0.027   5.741   5.537  0.0820  0.4627  0.1751
 3597ntf    on521012  -0.188   5.873   5.670 -0.2137  0.0034  0.2722
 3597ntf    fn421013  -0.321   5.747   5.423  0.1684 -0.5607 -0.4705
 3597ntf    fn421014  -0.260   5.556   5.482 -0.0099  0.1458 -1.0861
 3597ntf    fn421015  -0.391   5.665   5.605 -0.4201  0.0289 -0.9817
 3598ntf    cn121016   1.786   6.899   2.630  0.0957 -0.3325  0.3156
 3598ntf    sn221017   1.671   6.788   2.543  0.0960 -0.0683 -0.0206
 3598ntf    nn321018   1.619   6.884   2.429  0.2873  0.2763  0.1808
 3598ntf    sn221019   1.502   6.988   2.431 -0.0673 -0.1161 -0.0140
 3598ntf    cn121020   1.377   6.910   2.325 -0.1913  0.2837 -0.1629
 3598ntf    fn421021   1.881   6.945   2.551 -0.0570  0.1575  0.4127
 3598ntf    fn421022   1.712   7.002   2.666 -0.1480 -0.4020  0.0176
 3598ntf    fn421023   1.844   6.849   2.738 -0.1071 -0.3812  0.4028
 3598ntf    on521024   1.759   6.689   2.486  0.1867  0.1632 -0.2883
 3598ntf    on521025   1.574   6.750   2.642  0.5231 -0.0898  0.3890
 3598ntf    on521026   1.543   7.116   2.379  0.0981 -0.0997  0.1556
 3598ntf    on521027   1.435   7.001   2.558 -0.4070 -0.5291 -0.1508
 3598ntf    fn421028   1.356   6.779   2.331 -0.0730  0.2601 -0.2633
 3598ntf    fn421029   1.263   6.970   2.356 -0.3548 -0.1957  0.1743
 3598ntf    fn421030   1.408   6.933   2.199 -0.1338  0.1066 -0.1814
 3599ntf    cn121031   2.555   6.376   2.870 -0.0061 -0.2664 -0.3917
 3599ntf    sn221032   2.406   6.335   2.966  0.1485  0.3297  0.1134
 3599ntf    nn321033   2.322   6.468   2.974 -0.3870  0.0054 -0.0044
 3599ntf    sn221034   2.304   6.560   3.100  0.0215  0.3729 -0.2096
 3599ntf    cn121035   2.259   6.715   3.017 -0.1207  0.1506 -0.5522
 3599ntf    fn421036   2.528   6.407   2.745 -0.3873  0.2249 -0.1939
 3599ntf    fn421037   2.610   6.483   2.925 -0.5367 -0.3495  0.3136
 3599ntf    fn421038   2.647   6.281   2.879  0.6713  0.4381  0.3817
 3599ntf    on521039   2.339   6.236   2.886  0.0625 -0.1113  0.7266
 3599ntf    on521040   2.450   6.287   3.094  0.4285  0.0230 -0.0954
 3599ntf    on521041   2.423   6.598   3.173 -0.2118 -0.3381  0.5528
 3599ntf    on521042   2.185   6.536   3.178 -0.1719  0.2293 -0.5466
 3599ntf    fn421043   2.139   6.717   2.961 -0.5556 -0.4150  0.3441
 3599ntf    fn421044   2.270   6.818   3.100  0.3392  0.0893 -0.5333
 3599ntf    fn421045   2.340   6.735   2.914  0.0689  0.1738 -0.3998
 3600ntf    cn121046   6.986   1.807   1.106  0.0307 -0.0885 -0.1831
 3600ntf    sn221047   6.831   1.743   1.036  0.0096 -0.2472  0.0077
 3600ntf    nn321048   6.740   1.869   1.058 -0.2603 -0.4109 -0.1751
 3600ntf    sn221049   6.584   1.882   1.042 -0.2567 -0.0812  0.0512
 3600ntf    cn121050   6.582   1.948   0.873  0.0340  0.2064  0.1597
 3600ntf    fn421051   7.084   1.718   1.109 -0.2664 -0.4075  0.0557
 3600ntf    fn421052   7.025   1.908   1.029  0.0945  0.1491  0.1560
 3600ntf    fn421053   6.972   1.852   1.230 -0.0407  0.0462 -0.2399
 3600ntf    on521054   6.858   1.729   0.895 -0.0446  0.2548 -0.0561
 3600ntf    on521055   6.794   1.627   1.112  0.6804 -0.5333 -0.0893
 3600ntf    on521056   6.528   1.993   1.116 -0.2766  0.0827 -0.2094
 3600ntf    on521057   6.514   1.757   1.027  0.2375 -0.4072  0.4245
 3600ntf    fn421058   6.671   2.044   0.849  0.4926 -0.2773 -0.0997
 3600ntf    fn421059   6.599   1.858   0.778 -0.0244  0.2144  0.1419
 3600ntf    fn421060   6.465   2.003   0.845  0.0389  0.0279 -0.2157
 3601ntf    cn121061   4.708   6.772   6.841  0.2098 -0.3071 -0.3516
 3601ntf    sn221062   4.662   6.947   6.857  0.0022 -0.3851 -0.0733
 3601ntf    nn321063   4.571   6.941   6.985 -0.6406  0.4105 -0.4808
 3601ntf    sn221064   4.571   7.010   7.126  0.1453  0.0197 -0.2796
 3601ntf    cn121065   4.479   7.161   7.082  0.3807  0.1967 -0.1642
 3601ntf    fn421066   4.619   6.702   6.773  0.0115  0.0884 -0.5014
 3601ntf    fn421067   4.826   6.755   6.785  0.1623  0.4501 -0.6876
 3601ntf    fn421068   4.722   6.714   6.960 -0.0862 -0.4058 -0.3637
 3601ntf    on521069   4.784   7.023   6.871 -0.4682  0.4013 -0.1701
 3601ntf    on521070   4.595   6.983   6.735 -0.0947  0.9962  0.3741
 3601ntf    on521071   4.696   7.053   7.185 -0.0668  0.5479 -0.2055
 3601ntf    on521072   4.487   6.938   7.218  0.2625  0.1054 -0.1034
 3601ntf    fn421073   4.411   7.204   7.187 -0.2142  0.0215 -0.4741
 3601ntf    fn421074   4.568   7.256   7.056  0.4525  0.0780 -0.3511
 3601ntf    fn421075   4.396   7.128   6.985  0.5144 -0.5388 -0.0373
 3602ntf    cn121076   1.010   6.693   5.705 -0.0096 -0.1753  0.1711
 3602ntf    sn221077   1.090   6.570   5.812  0.1663 -0.1599  0.0575
 3602ntf    nn321078   1.193   6.665   5.883 -0.0672  0.0563  0.1115
 3602ntf    sn221079   1.184   6.765   6.003 -0.2283  0.0990  0.0628
 3602ntf    cn121080   1.277   6.693   6.142 -0.0975 -0.1345 -0.1459
 3602ntf    fn421081   1.086   6.740   5.608 -0.5572  0.1806 -0.0925
 3602ntf    fn421082   0.895   6.658   5.650  0.1316 -0.2834 -0.0544
 3602ntf    fn421083   0.984   6.796   5.784  0.3190 -0.0222  0.0803
 3602ntf    on521084   0.994   6.505   5.899 -0.6311 -0.5780 -1.1182
 3602ntf    on521085   1.155   6.478   5.723  0.9030 -0.1691  0.5967
 3602ntf    on521086   1.053   6.784   6.061 -0.3013 -0.3844  0.0592
 3602ntf    on521087   1.265   6.881   5.974 -0.1184  0.0031 -0.0091
 3602ntf    fn421088   1.227   6.717   6.262  0.1689 -0.0524 -0.0498
 3602ntf    fn421089   1.278   6.561   6.136  0.1038 -0.1470  0.1366
 3602ntf    fn421090   1.406   6.723   6.136 -0.1611  0.1481 -0.0969
 3603ntf    cn121091   4.624   0.807   0.736 -0.6630  0.1236  0.1556
 3603ntf    sn221092   4.731   0.923   0.645  0.0784 -0.2813  0.4957
 3603ntf    nn321093   4.691   0.887   0.498  0.1036  0.6952  0.2443
 3603ntf    sn221094   4.713   0.958   0.359  0.0963  0.2210 -0.0001
 3603ntf    cn121095   4.821   0.840   0.273  0.2657  0.2249  0.2051
 3603ntf    fn421096   4.498   0.834   0.705 -0.6376  0.2180  0.1353
 3603ntf    fn421097   4.648   0.679   0.710 -0.2337  0.1254  0.5109
 3603ntf    fn421098   4.639   0.818   0.867 -0.6931 -0.3387  0.1996
 3603ntf    on521099   4.682   1.055   0.680 -0.2250 -0.0055 -0.9154
 3603ntf    on521100   4.865   0.890   0.687  0.1854 -0.1809  0.2327
 3603ntf    on521101   4.793   1.077   0.366 -0.2266  0.4423 -0.0499
 3603ntf    on521102   4.589   0.965   0.285  0.2572 -0.3148 -0.3226
 3603ntf    fn421103   4.834   0.852   0.142 -0.1628 -0.2390  0.1166
 3603ntf    fn421104   4.942   0.847   0.325  0.4980  0.2523 -0.3354
 3603ntf    fn421105   4.782   0.715   0.292 -0.1397  0.3393  0.1434
 3604ntf    cn121106   1.081   3.155   4.665 -0.0874  0.0242  0.0269
 3604ntf    sn221107   0.994   3.278   4.766  0.0201  0.1510 -0.0333
 3604ntf    nn321108   1.112   3.373   4.805  0.0849 -0.0391  0.2345
 3604ntf    sn221109   1.174   3.499   4.736 -0.0849 -0.0215  0.1165
 3604ntf    cn121110   1.344   3.492   4.798 -0.0783 -0.1214  0.0873
 3604ntf    fn421111   1.119   3.210   4.551  0.3702 -0.0950  0.1170
 3604ntf    fn421112   1.191   3.109   4.724  0.0213  0.0040 -0.1917
 3604ntf    fn421113   1.009   3.046   4.643  0.6234 -0.5230  0.3445
 3604ntf    on521114   0.897   3.340   4.679  0.0233  0.0973 -0.0746
 3604ntf    on521115   0.942   3.193   4.872  0.8885 -0.4267 -0.0628
 3604ntf    on521116   1.126   3.624   4.789  0.1026 -0.1104  0.4957
 3604ntf    on521117   1.191   3.483   4.593  0.4445  0.1096  0.1615
 3604ntf    fn421118   1.403   3.384   4.748  0.0639 -0.1114  0.2311
 3604ntf    fn421119   1.415   3.600   4.770 -0.2689  0.1258  0.5482
 3604ntf    fn421120   1.354   3.482   4.930  0.9137  0.1228  0.0385
 3605ntf    cn121121   2.805   1.722   6.780  0.0379  0.2974 -0.2817
 3605ntf    sn221122   2.772   1.900   6.768 -0.1602  0.3068  0.3762
 3605ntf    nn321123   2.636   1.889   6.691  0.0597  0.3851 -0.0266
 3605ntf    sn221124   2.491   1.872   6.750  0.0286  0.1596 -0.1648
 3605ntf    cn121125   2.451   2.045   6.791 -0.2197  0.0567  0.0314
 3605ntf    fn421126   2.811   1.673   6.657 -0.4211 -0.0298 -0.1763
 3605ntf    fn421127   2.917   1.692   6.844  0.0730  0.4238 -0.2844
 3605ntf    fn421128   2.715   1.647   6.840  0.3084  0.0470 -0.1826
 3605ntf    on521129   2.778   1.943   6.905 -0.1742 -0.1197  0.5133
 3605ntf    on521130   2.877   1.944   6.680 -0.4219  0.2575  0.0352
 3605ntf    on521131   2.480   1.809   6.879 -0.0887  0.1976 -0.1562
 3605ntf    on521132   2.401   1.831   6.646 -0.3604 -0.4526  0.4091
 3605ntf    fn421133   2.525   2.095   6.889 -0.0672  0.1504 -0.1311
 3605ntf    fn421134   2.467   2.132   6.693 -0.3460  0.3734  0.2928
 3605ntf    fn421135   2.327   2.067   6.831 -0.2004 -0.1377  0.1996
 3606ntf    cn121136   0.722   1.104   4.367  0.2336  0.1384  0.0309
 3606ntf    sn221137   0.797   0.942   4.403 -0.1606  0.0154  0.3023
 3606ntf    nn321138   0.781   0.937   4.559 -0.1441 -0.6487  0.2869
 3606ntf    sn221139   0.889   0.958   4.672 -0.1108  0.0133  0.1350
 3606ntf    cn121140   0.791   1.009   4.817 -0.0950 -0.4097  0.2955
 3606ntf    fn421141   0.598   1.104   4.413  0.1521 -0.0583 -0.1906
 3606ntf    fn421142   0.788   1.205   4.422  0.0738  0.3490 -0.1645
 3606ntf    fn421143   0.725   1.126   4.237  0.1687 -0.0742 -0.0063
 3606ntf    on521144   0.707   0.844   4.347  0.3460 -0.0389 -0.4207
 3606ntf    on521145   0.929   0.945   4.345 -0.1996  0.1783  0.2227
 3606ntf    on521146   0.968   1.077   4.653 -0.1822  0.1255  0.5337
 3606ntf    on521147   0.946   0.835   4.720 -0.0053  0.1435  0.3426
 3606ntf    fn421148   0.847   1.073   4.918  0.3029  0.0267 -0.2001
 3606ntf    fn421149   0.693   1.091   4.783  0.5850  0.3058  0.0320
 3606ntf    fn421150   0.733   0.903   4.870 -0.4861 -0.2820  0.1271
 3607ntf    cn121151   1.025   3.967   5.768  0.2208  0.4383  0.5333
 3607ntf    sn221152   1.100   3.968   5.602 -0.3055  0.0370  0.2906
 3607ntf    nn321153   1.251   3.982   5.641 -0.1163 -0.1927 -0.3551
 3607ntf    sn221154   1.378   3.898   5.601 -0.0375 -0.2111 -0.0661
 3607ntf    cn121155   1.370   3.760   5.718  0.1275  0.1459  0.3690
 3607ntf    fn421156   1.069   4.068   5.840  0.6726  0.3920  0.3254
 3607ntf    fn421157   0.893   3.966   5.760  0.2488 -0.5491  0.0070
 3607ntf    fn421158   1.056   3.853   5.827 -0.7860  0.3493  0.9073
 3607ntf    on521159   1.055   3.848   5.536 -0.4520  0.2649 -0.0305
 3607ntf    on521160   1.061   4.096   5.549  0.3944  0.1061 -0.0706
 3607ntf    on521161   1.501   3.965   5.636 -0.3394  0.5314 -0.3875
 3607ntf    on521162   1.358   3.844   5.469 -0.3699 -0.1852 -0.0270
 3607ntf    fn421163   1.272   3.673   5.698  0.2833  0.1626 -0.4732
 3607ntf    fn421164   1.484   3.692   5.720  0.0593  0.0206  0.0294
 3607ntf    fn421165   1.349   3.807   5.840 -0.3710  0.2028  0.2628
 3608ntf    cn121166   2.627   0.482   1.950  0.2862 -0.0347  0.0657
 3608ntf    sn221167   2.575   0.584   2.091  0.1074 -0.2010  0.1216
 3608ntf    nn321168   2.468   0.497   2.165  0.2513 -0.3411  0.1661
 3608ntf    sn221169   2.477   0.357   2.236  0.1983 -0.4692 -0.0771
 3608ntf    cn121170   2.383   0.395   2.387  0.1920  0.0479 -0.2086
 3608ntf    fn421171   2.645   0.358   1.994 -0.3065 -0.0869  0.1770
 3608ntf    fn421172   2.534   0.475   1.856  0.5242 -0.0952 -0.1661
 3608ntf    fn421173   2.738   0.527   1.895  0.1774 -0.0168 -0.1412
 3608ntf    on521174   2.695   0.599   2.170  0.2683  0.2655 -0.2071
 3608ntf    on521175   2.519   0.699   2.025  0.0983 -0.0812  0.3348
 3608ntf    on521176   2.612   0.330   2.278  0.3998  0.5046 -0.0809
 3608ntf    on521177   2.394   0.259   2.170  0.3370 -0.4499 -0.2821
 3608ntf    fn421178   2.256   0.410   2.354  0.0235 -0.0877  0.3643
 3608ntf    fn421179   2.402   0.292   2.468 -0.3760  0.2603  0.1969
 3608ntf    fn421180   2.416   0.507   2.449 -0.2538 -0.0788  0.2621
 3609ntf    cn121181   3.941   2.146   0.543  0.3415 -0.1609 -0.1975
 3609ntf    sn221182   3.877   2.002   0.633 -0.0500 -0.1861 -0.5139
 3609ntf    nn321183   3.729   2.039   0.670  0.1234 -0.1410  0.1496
 3609ntf    sn221184   3.656   2.081   0.802 -0.1520 -0.2237  0.0252
 3609ntf    cn121185   3.648   2.262   0.781  0.3826 -0.1580  0.3721
 3609ntf    fn421186   3.874   2.168   0.431 -0.0171  0.1624  0.0738
 3609ntf    fn421187   3.928   2.253   0.620  0.2295 -0.3594  0.0592
 3609ntf    fn421188   4.070   2.142   0.514  0.4757  0.6423  0.2405
 3609ntf    on521189   3.879   1.900   0.530  0.5078 -0.7625  0.0554
 3609ntf    on521190   3.973   1.993   0.740 -0.3012 -0.2241 -0.2900
 3609ntf    on521191   3.738   2.070   0.920 -0.4622 -0.0122  0.2614
 3609ntf    on521192   3.521   2.036   0.817 -0.2472  0.0065 -0.1265
 3609ntf    fn421193   3.573   2.324   0.870 -0.3881 -0.3279 -0.1527
 3609ntf    fn421194   3.769   2.316   0.792  0.4417 -0.2344  0.1056
 3609ntf    fn421195   3.606   2.297   0.661  0.1720  0.1863  0.5467
 3610ntf    cn121196   2.490   2.466   6.791  0.2470 -0.0172  0.3079
 3610ntf    sn221197   2.596   2.562   6.904  0.1582  0.1636  0.2385
 3610ntf    nn321198   2.644   2.678   6.810 -0.2616 -0.5438 -0.8620
 3610ntf    sn221199   2.579   2.818   6.784  0.1080 -0.2200 -0.0658
 3610ntf    cn121200   2.633   2.841   6.611  0.1592 -0.0738 -0.0303
 3610ntf    fn421201   2.434   2.363   6.852 -0.9504  0.6119  0.3073
 3610ntf    fn421202   2.390   2.539   6.745  0.0474 -0.2725  0.3330
 3610ntf    fn421203   2.564   2.426   6.690  0.2081  0.3264  0.1405
 3610ntf    on521204   2.512   2.599   7.015 -0.0795 -0.3205  0.2233
 3610ntf    on521205   2.708   2.479   6.941  0.0977  0.0275  0.1193
 3610ntf    on521206   2.644   2.919   6.864 -0.0125  0.3188 -0.6328
 3610ntf    on521207   2.436   2.799   6.781  0.0956 -0.1556  0.1341
 3610ntf    fn421208   2.580   2.750   6.531 -0.4968  0.3372 -0.0649
 3610ntf    fn421209   2.589   2.954   6.559  0.0886 -0.0184  0.1470
 3610ntf    fn421210   2.763   2.833   6.589  0.1742  0.2880 -0.0841
 3611ntf    cn121211   4.692   6.867   3.483 -0.0256  0.3136 -0.0226
 3611ntf    sn221212   4.594   6.977   3.589 -0.1073  0.1540  0.0677
 3611ntf    nn321213   4.540   7.087   3.490 -0.1932 -0.0708 -0.1344
 3611ntf    sn221214   4.412   7.078   3.400 -0.2504 -0.0269 -0.0573
 3611ntf    cn121215   4.465   7.148   3.241  0.2569 -0.0582  0.0966
 3611ntf    fn421216   4.755   6.777   3.557 -0.0706  0.5930  0.3601
 3611ntf    fn421217   4.612   6.804   3.400  0.0629 -0.0010  0.1297
 3611ntf    fn421218   4.786   6.933   3.418  0.3003  0.2355  0.3635
 3611ntf    on521219   4.498   6.889   3.653  0.3295  0.0837  0.6353
 3611ntf    on521220   4.697   7.023   3.679  0.0063 -0.2586  0.1501
 3611ntf    on521221   4.312   7.173   3.443  0.3838  0.5302  0.1826
 3611ntf    on521222   4.364   6.944   3.376 -0.0912 -0.1111  0.0957
 3611ntf    fn421223   4.534   7.063   3.167  0.0368  0.0089 -0.1892
 3611ntf    fn421224   4.365   7.173   3.158  0.3921  0.3630  0.0600
 3611ntf    fn421225   4.543   7.253   3.255  0.0389  0.1707 -0.3710
 3612ntf    cn121226   4.820   4.199   2.764  0.0128  0.0701  0.2716
 3612ntf    sn221227   4.767   4.356   2.689 -0.0133 -0.0076  0.1282
 3612ntf    nn321228   4.882   4.455   2.728 -0.1125  0.0612  0.2452
 3612ntf    sn221229   5.001   4.521   2.651 -0.1484 -0.0361  0.1063
 3612ntf    cn121230   4.959   4.698   2.656 -0.1425 -0.0251 -0.2216
 3612ntf    fn421231   4.756   4.093   2.716  0.0097  0.0754  0.2653
 3612ntf    fn421232   4.949   4.185   2.738 -0.0873 -0.0240 -0.1880
 3612ntf    fn421233   4.804   4.203   2.895  0.1022 -0.2180  0.2906
 3612ntf    on521234   4.760   4.321   2.549  0.7818  0.1748  0.0375
 3612ntf    on521235   4.640   4.388   2.751  0.0030  0.1771  0.0665
 3612ntf    on521236   5.000   4.502   2.508 -0.1714 -0.2012  0.1280
 3612ntf    on521237   5.127   4.514   2.720  0.0811 -0.2688 -0.3275
 3612ntf    fn421238   4.855   4.720   2.577 -0.5059  0.2496  0.3292
 3612ntf    fn421239   4.918   4.734   2.776  0.5151  0.1135 -0.0337
 3612ntf    fn421240   5.057   4.776   2.611  0.0807 -0.4330 -0.4503
 3613ntf    cn121241   4.478   1.850   2.557  0.2877 -0.2664 -0.0558
 3613ntf    sn221242   4.631   1.788   2.480  0.3562  0.0218 -0.1484
 3613ntf    nn321243   4.731   1.906   2.508 -0.3363  0.4181  0.7306
 3613ntf    sn221244   4.888   1.905   2.511 -0.3114  0.1055 -0.2581
 3613ntf    cn121245   4.917   1.976   2.346  0.2050  0.0196 -0.2077
 3613ntf    fn421246   4.465   1.978   2.526  0.2925 -0.1540  0.4072
 3613ntf    fn421247   4.370   1.781   2.523  0.4941 -0.6817  0.1098
 3613ntf    fn421248   4.486   1.850   2.689  0.0658  0.2699 -0.0425
 3613ntf    on521249   4.666   1.671   2.556  0.0179  0.0773  0.0937
 3613ntf    on521250   4.592   1.770   2.342  0.1125  0.0399 -0.0830
 3613ntf    on521251   4.955   1.778   2.497  0.2648  0.4097 -0.2870
 3613ntf    on521252   4.940   2.010   2.595 -0.6817 -0.1818  0.3366
 3613ntf    fn421253   4.869   2.098   2.334  0.1887  0.0515  0.1645
 3613ntf    fn421254   5.047   1.984   2.325  0.2307 -0.1183 -0.1008
 3613ntf    fn421255   4.860   1.901   2.253 -0.2036 -0.0632  0.1064
 3614ntf    cn121256   6.455   6.207   6.470  0.3219  0.0734  0.1791
 3614ntf    sn221257   6.635   6.200   6.498  0.3325  0.2127  0.1426
 3614ntf    nn321258   6.643   6.227   6.652  0.5475  0.1009  0.1501
 3614ntf    sn221259   6.673   6.358   6.732  0.3690  0.2578 -0.0414
 3614ntf    cn121260   6.508   6.395   6.800  0.3373  0.0449 -0.0034
 3614ntf    fn421261   6.390   6.124   6.550  0.5125 -0.2686 -0.0161
 3614ntf    fn421262   6.396   6.320   6.504  0.1296 -0.0188  0.1519
 3614ntf    fn421263   6.424   6.181   6.344  0.2190  0.3364  0.1501
 3614ntf    on521264   6.676   6.067   6.463 -0.6935 -0.2895  0.8085
 3614ntf    on521265   6.691   6.297   6.406  0.1313  0.2897  0.1002
 3614ntf    on521266   6.706   6.477   6.658  0.6940  0.3648  0.2735
 3614ntf    on521267   6.741   6.339   6.858 -0.2191 -0.2204  0.2095
 3614ntf    fn421268   6.433   6.467   6.718 -0.0987 -0.0417  0.3193
 3614ntf    fn421269   6.445   6.282   6.826  0.3039  0.0299 -0.1432
 3614ntf    fn421270   6.512   6.460   6.915 -0.2610  0.0090  0.0396
 3615ntf    cn121271   3.794   1.097   4.909 -0.2582  0.0316 -0.1440
 3615ntf    sn221272   3.650   1.134   5.014 -0.1058  0.2284 -0.0029
 3615ntf    nn321273   3.658   1.289   5.038  0.7901  0.2501 -0.4145
 3615ntf    sn221274   3.610   1.404   4.943  0.0741  0.1900 -0.1343
 3615ntf    cn121275   3.443   1.429   5.011  0.0576  0.1267 -0.1521
 3615ntf    fn421276   3.799   1.171   4.800  0.7305  0.1490 -0.0203
 3615ntf    fn421277   3.912   1.114   4.966 -0.2011  0.2877 -0.3379
 3615ntf    fn421278   3.792   0.970   4.871 -0.0613 -0.2081  0.6156
 3615ntf    on521279   3.534   1.084   4.943  0.0974 -0.4615  0.1398
 3615ntf    on521280   3.676   1.059   5.135  0.3957 -0.2879 -0.4222
 3615ntf    on521281   3.584   1.359   4.809  0.1440 -0.1948 -0.0191
 3615ntf    on521282   3.676   1.531   4.962 -0.0187  0.1656  0.3790
 3615ntf    fn421283   3.376   1.531   4.961 -0.3990 -0.0891  0.0120
 3615ntf    fn421284   3.367   1.321   4.997 -0.2609  0.2894  0.3058
 3615ntf    fn421285   3.451   1.449   5.142 -0.5500 -0.5069 -0.0120
 3616ntf    cn121286   2.493   3.985   1.449 -0.0176 -0.4918  0.0972
 3616ntf    sn221287   2.607   3.857   1.508  0.4539 -0.2048 -0.1877
 3616ntf    nn321288   2.637   3.898   1.656  0.2565 -0.0643 -0.1861
 3616ntf    sn221289   2.608   3.820   1.790  0.2126  0.3192  0.0303
 3616ntf    cn121290   2.429   3.787   1.786  0.2253  0.2788 -0.2354
 3616ntf    fn421291   2.379   3.977   1.517 -0.2101 -0.2093 -0.1908
 3616ntf    fn421292   2.538   4.108   1.470  0.2155 -0.5454 -0.0947
 3616ntf    fn421293   2.460   3.983   1.321  0.6955  0.1204 -0.0979
 3616ntf    on521294   2.537   3.733   1.483 -0.0281  0.0696 -0.2132
 3616ntf    on521295   2.724   3.882   1.427  0.3406 -0.3091 -0.3859
 3616ntf    on521296   2.628   3.906   1.903  0.4922  0.2360  0.0452
 3616ntf    on521297   2.674   3.693   1.806 -0.4728 -0.0458 -0.0025
 3616ntf    fn421298   2.356   3.882   1.731  0.2743  0.5851  0.2245
 3616ntf    fn421299   2.411   3.678   1.713 -0.2603  0.3009 -0.1539
 3616ntf    fn421300   2.379   3.765   1.906  0.1539 -0.4493 -0.3946
 3617ntf    cn121301   4.626   3.424   6.730 -0.1298  0.3995 -0.4281
 3617ntf    sn221302   4.717   3.548   6.633  0.4608 -0.0226 -0.4243
 3617ntf    nn321303   4.611   3.570   6.519  0.2812  0.1756 -0.2211
 3617ntf    sn221304   4.592   3.528   6.368 -0.2751  0.1083 -0.1333
 3617ntf    cn121305   4.651   3.679   6.287 -0.4085  0.0743 -0.2934
 3617ntf    fn421306   4.588   3.328   6.647 -0.1274  0.1010 -0.0855
 3617ntf    fn421307   4.698   3.362   6.822 -0.4015 -0.0089 -0.4870
 3617ntf    fn421308   4.514   3.465   6.786 -0.1974  0.0519 -0.3075
 3617ntf    on521309   4.731   3.664   6.718  0.0061 -0.0130 -0.3576
 3617ntf    on521310   4.842   3.487   6.596  0.1480 -0.6806 -0.4116
 3617ntf    on521311   4.451   3.517   6.340 -0.1713  0.2669 -0.7108
 3617ntf    on521312   4.679   3.424   6.319 -0.0673  0.1118  0.2253
 3617ntf    fn421313   4.575   3.784   6.314 -0.1345  0.1089  0.3602
 3617ntf    fn421314   4.768   3.713   6.338 -0.4530 -0.3698  0.1015
 3617ntf    fn421315   4.660   3.671   6.155  0.2356  0.3237 -0.2645
 3618ntf    cn121316   4.469   3.404   4.583 -0.2459 -0.3261 -0.0818
 3618ntf    sn221317   4.388   3.518   4.467 -0.2194 -0.0680  0.1541
 3618ntf    nn321318   4.324   3.608   4.579  0.1796  0.2288  0.1449
 3618ntf    sn221319   4.183   3.676   4.575  0.1762  0.1908 -0.4979
 3618ntf    cn121320   4.242   3.842   4.528  0.3633  0.2469 -0.0642
 3618ntf    fn421321   4.383   3.310   4.622 -0.2865 -0.2641 -0.0211
 3618ntf    fn421322   4.573   3.347   4.526 -0.3101 -0.1662 -0.3582
 3618ntf    fn421323   4.508   3.462   4.695 -0.8817  0.0638 -0.0542
 3618ntf    on521324   4.504   3.576   4.404  0.1355  0.0575  0.9108
 3618ntf    on521325   4.310   3.422   4.393 -0.2244 -0.1867  0.3130
 3618ntf    on521326   4.136   3.699   4.709 -0.1317 -0.5274 -0.4817
 3618ntf    on521327   4.093   3.630   4.472 -0.2499 -0.1420  0.0218
 3618ntf    fn421328   4.143   3.929   4.519  0.2879  0.1788  0.1016
 3618ntf    fn421329   4.319   3.894   4.623  0.0805  0.7665 -0.1156
 3618ntf    fn421330   4.315   3.839   4.418  0.4755  0.2586  0.0082
 3619ntf    cn121331   3.151   4.201   5.388  0.0809  0.1427 -0.3840
 3619ntf    sn221332   3.060   4.306   5.505  0.0978 -0.2036 -0.0587
 3619ntf    nn321333   3.089   4.248   5.648  0.2727  0.0166 -0.0050
 3619ntf    sn221334   3.192   4.295   5.757  0.2983  0.0742 -0.0544
 3619ntf    cn121335   3.311   4.157   5.754  0.0259 -0.1726  0.5189
 3619ntf    fn421336   3.107   4.077   5.379 -0.2676  0.2510 -0.1869
 3619ntf    fn421337   3.136   4.252   5.267  0.1974  0.2525 -0.3520
 3619ntf    fn421338   3.280   4.204   5.421 -0.0119 -0.3907  0.0503
 3619ntf    on521339   3.103   4.442   5.489 -0.7368  0.0817  0.0554
 3619ntf    on521340   2.927   4.265   5.469  0.2061 -0.2824 -0.3725
 3619ntf    on521341   3.149   4.291   5.894 -0.3170  1.0613 -0.2124
 3619ntf    on521342   3.287   4.398   5.721  0.5170 -0.0842  0.0691
 3619ntf    fn421343   3.273   4.042   5.809  0.1055 -0.3979  0.1038
 3619ntf    fn421344   3.343   4.125   5.630  0.2691 -0.0467  0.5477
 3619ntf    fn421345   3.425   4.192   5.811  0.2440  0.4406 -0.2879
 3620ntf    cn121346   4.301   6.148   1.634  0.4228  0.0907 -0.0789
 3620ntf    sn221347   4.370   6.232   1.780 -0.1026  0.2270  0.0911
 3620ntf    nn321348   4.230   6.263   1.845  0.1396  1.4442  0.0560
 3620ntf    sn221349   4.204   6.234   1.997  0.0737 -0.2086 -0.2428
 3620ntf    cn121350   4.119   6.074   1.995 -0.2815 -0.0271  0.0799
 3620ntf    fn421351   4.198   6.210   1.580  0.1056  0.1066  0.5393
 3620ntf    fn421352   4.394   6.123   1.542 -0.0178  0.1497 -0.5437
 3620ntf    fn421353   4.264   6.026   1.666 -0.1760  0.2351 -0.2150
 3620ntf    on521354   4.442   6.123   1.842 -0.3345  0.0307  0.0175
 3620ntf    on521355   4.437   6.350   1.733  0.2739 -0.0365 -0.0352
 3620ntf    on521356   4.100   6.320   2.049  0.4543  0.1346 -0.0417
 3620ntf    on521357   4.312   6.214   2.090  0.4494  0.5232 -0.5107
 3620ntf    fn421358   4.057   6.047   2.109  0.0520 -0.1589  0.2299
 3620ntf    fn421359   4.033   6.065   1.895 -0.4588 -0.0582  0.2333
 3620ntf    fn421360   4.200   5.971   1.975 -0.1941  0.1069 -0.2659
 3621ntf    cn121361   0.399   2.635   2.584  0.0140  0.1701  0.1215
 3621ntf    sn221362   0.481   2.704   2.437 -0.1694 -0.0110 -0.0649
 3621ntf    nn321363   0.566   2.580   2.390 -0.2601 -0.1386  0.1048
 3621ntf    sn221364   0.719   2.560   2.417 -0.2255 -0.1704 -0.1160
 3621ntf    cn121365   0.785   2.684   2.302  0.2543 -0.3004  0.0157
 3621ntf    fn421366   0.321   2.534   2.552 -0.1857  0.2460  0.3589
 3621ntf    fn421367   0.496   2.576   2.653 -0.1982 -0.2924  0.0251
 3621ntf    fn421368   0.334   2.725   2.657  0.0281  0.5095 -0.2811
 3621ntf    on521369   0.374   2.717   2.341 -0.1789  0.7864  0.0474
 3621ntf    on521370   0.557   2.819   2.478 -0.5610  0.1281  0.2739
 3621ntf    on521371   0.761   2.435   2.359  0.1993  0.1250 -0.4526
 3621ntf    on521372   0.767   2.598   2.548  0.0838  0.8370 -0.5159
 3621ntf    fn421373   0.772   2.810   2.341 -0.1686 -0.1040 -0.7316
 3621ntf    fn421374   0.913   2.661   2.279  0.2064 -0.4668 -0.0852
 3621ntf    fn421375   0.720   2.679   2.187  0.0719 -0.4754  0.1247
 3622ntf    cn121376   5.874   0.253   0.577 -0.5626 -0.1166  0.2111
 3622ntf    sn221377   5.860   0.428   0.526 -0.3115 -0.0944  0.2177
 3622ntf    nn321378   6.010   0.474   0.541 -0.3695  0.2440 -0.2456
 3622ntf    sn221379   6.067   0.619   0.549 -0.0775  0.1551 -0.6712
 3622ntf    cn121380   6.149   0.640   0.710 -0.1062  0.1478 -0.6555
 3622ntf    fn421381   5.956   0.185   0.499 -0.2713  0.3011  0.1505
 3622ntf    fn421382   5.916   0.235   0.701 -0.3673  0.1063  0.1789
 3622ntf    fn421383   5.758   0.191   0.565 -0.2844 -0.5227 -0.3731
 3622ntf    on521384   5.821   0.412   0.389  0.4433  0.4808 -0.0722
 3622ntf    on521385   5.762   0.484   0.615 -0.3068  0.5117 -0.1571
 3622ntf    on521386   5.974   0.729   0.541 -0.1476  0.0975 -0.6506
 3622ntf    on521387   6.184   0.638   0.466  0.3296  0.1348 -0.1122
 3622ntf    fn421388   6.077   0.591   0.810 -0.0597 -0.2221 -0.7992
 3622ntf    fn421389   6.265   0.577   0.726 -0.2561  0.0699  0.1976
 3622ntf    fn421390   6.179   0.765   0.742  0.2734 -0.0290 -0.3104
 3623ntf    cn121391   2.780   2.501   5.806 -0.1215  0.3958  0.1888
 3623ntf    sn221392   2.682   2.484   5.958 -0.2286  0.1972  0.0981
 3623ntf    nn321393   2.761   2.585   6.049  0.2911 -0.2116  0.1106
 3623ntf    sn221394   2.749   2.741   6.050 -0.2319 -0.2485  0.0625
 3623ntf    cn121395   2.659   2.771   6.205  0.2139  0.0053  0.2739
 3623ntf    fn421396   2.907   2.476   5.832 -0.4268 -0.8672  0.5564
 3623ntf    fn421397   2.732   2.418   5.714  0.2765  0.2650  0.0958
 3623ntf    fn421398   2.769   2.625   5.761  0.1208  0.2260 -0.3429
 3623ntf    on521399   2.550   2.521   5.916 -0.0806 -0.1870 -0.7237
 3623ntf    on521400   2.699   2.344   5.992 -0.4140  0.1400 -0.0417
 3623ntf    on521401   2.664   2.807   5.953  0.0215 -0.3708 -0.2460
 3623ntf    on521402   2.877   2.804   6.070 -0.3806  0.0960 -0.0558
 3623ntf    fn421403   2.542   2.711   6.217  0.1696  0.0653  0.1436
 3623ntf    fn421404   2.732   2.728   6.306  0.7485 -0.1061 -0.1548
 3623ntf    fn421405   2.642   2.900   6.229  0.4283  0.1647 -0.3895
 3624ntf    cn121406   2.927   6.293   1.428  0.0802 -0.0291  0.0891
 3624ntf    sn221407   2.805   6.256   1.298 -0.0556  0.2101  0.1482
 3624ntf    nn321408   2.903   6.213   1.184  0.3294  0.2248  0.4699
 3624ntf    sn221409   2.925   6.275   1.041 -0.5073 -0.0822  0.2011
 3624ntf    cn121410   2.838   6.150   0.943 -0.1733 -0.1700  0.0150
 3624ntf    fn421411   3.038   6.353   1.388  0.1591 -0.3558 -0.1902
 3624ntf    fn421412   2.876   6.363   1.527 -0.2165  0.4366 -0.3885
 3624ntf    fn421413   2.959   6.177   1.483 -0.7315 -0.5162 -0.4481
 3624ntf    on521414   2.717   6.150   1.340  0.3884 -0.2219  0.0047
 3624ntf    on521415   2.740   6.383   1.279 -0.5283 -0.0411  0.0817
 3624ntf    on521416   3.062   6.269   0.997 -0.4154  0.1237  0.4564
 3624ntf    on521417   2.859   6.402   1.018  0.2280  0.2834  0.0653
 3624ntf    fn421418   2.890   6.028   0.946 -0.6017 -0.3703 -0.5164
 3624ntf    fn421419   2.717   6.132   0.994 -0.0297  0.2701  0.5211
 3624ntf    fn421420   2.822   6.183   0.816 -0.1166  0.1349  0.0879
 3625ntf    cn121421   4.791   6.183   3.853 -0.2148  0.0616 -0.1867
 3625ntf    sn221422   4.791   6.001   3.850  0.1106  0.0559  0.0877
 3625ntf    nn321423   4.797   5.954   4.000 -0.2477  0.4112  0.2165
 3625ntf    sn221424   4.920   5.973   4.095 -0.1496  0.0785  0.1557
 3625ntf    cn121425   4.994   5.807   4.090 -0.2806  0.0219  0.1164
 3625ntf    fn421426   4.706   6.239   3.937  0.0816  0.4073 -0.1142
 3625ntf    fn421427   4.911   6.220   3.895 -0.3044  0.0084  0.1162
 3625ntf    fn421428   4.776   6.243   3.736 -0.3013  0.2095 -0.0996
 3625ntf    on521429   4.665   5.967   3.787 -0.0457  0.2614  0.2858
 3625ntf    on521430   4.911   5.971   3.777 -0.2443  0.6043 -0.7462
 3625ntf    on521431   4.879   5.992   4.232 -0.1917  0.2309  0.1214
 3625ntf    on521432   5.030   6.057   4.054  0.0813 -0.1373  0.3268
 3625ntf    fn421433   5.026   5.765   3.968  0.2428 -0.1709  0.3178
 3625ntf    fn421434   5.101   5.782   4.164 -0.2870 -0.4008 -0.0119
 3625ntf    fn421435   4.901   5.720   4.127 -0.0921 -0.1122  0.2786
 3626ntf    cn121436   1.348   0.874   2.061 -0.0682 -0.1097  0.5169
 3626ntf    sn221437   1.281   0.719   1.993  0.0753  0.0341  0.0471
 3626ntf    nn321438   1.163   0.780   1.909  0.0530  0.4882  0.4026
 3626ntf    sn221439   1.141   0.814   1.758 -0.2969 -0.1094  0.3127
 3626ntf    cn121440   1.045   0.968   1.766  0.2665  0.2661 -0.0499
 3626ntf    fn421441   1.426   0.852   2.166  0.3971  0.2647  0.2544
 3626ntf    fn421442   1.413   0.940   1.966 -0.0559 -0.5666  0.2052
 3626ntf    fn421443   1.252   0.955   2.103  0.0061  0.0398  0.4006
 3626ntf    on521444   1.391   0.657   1.922  0.1011  0.1137  0.0171
 3626ntf    on521445   1.232   0.648   2.107 -0.0977 -0.0048 -0.0514
 3626ntf    on521446   1.055   0.721   1.689 -0.0511  0.2642 -0.5173
 3626ntf    on521447   1.262   0.852   1.688 -0.3921  0.0423  0.2280
 3626ntf    fn421448   1.012   1.014   1.646 -0.4809 -0.2650 -0.0508
 3626ntf    fn421449   0.933   0.954   1.835  0.2830  0.3167 -0.0120
 3626ntf    fn421450   1.116   1.068   1.816  0.8686 -0.1982  0.0299
 3627ntf    cn121451   2.741   7.041   4.473  0.3047  0.1964 -0.2305
 3627ntf    sn221452   2.796   7.197   4.550 -0.4099  0.2169  0.2449
 3627ntf    nn321453   2.948   7.192   4.510 -0.3632  0.4368  0.3954
 3627ntf    sn221454   3.026   7.226   4.379  0.0364  0.2384  0.5810
 3627ntf    cn121455   3.148   7.342   4.449  0.3617  0.0960  0.2511
 3627ntf    fn421456   2.819   6.938   4.500 -0.0034  0.1469  0.4766
 3627ntf    fn421457   2.620   7.009   4.515  0.2144  0.3275 -0.3883
 3627ntf    fn421458   2.726   7.054   4.342 -0.6020  0.3180 -0.1180
 3627ntf    on521459   2.724   7.305   4.486 -0.0093  0.1661 -0.2990
 3627ntf    on521460   2.771   7.179   4.691 -0.6679  0.1188  0.1875
 3627ntf    on521461   2.955   7.304   4.281  0.0833  0.0101  0.3661
 3627ntf    on521462   3.102   7.116   4.325 -0.1436  0.3227  0.1558
 3627ntf    fn421463   3.098   7.423   4.540 -0.1190 -0.1374  0.1976
 3627ntf    fn421464   3.255   7.278   4.495  0.2081 -0.4905 -0.1923
 3627ntf    fn421465   3.194   7.419   4.351  0.2036  0.2504  0.2985
 3628ntf    cn121466   4.827   0.423   5.972  0.4055 -0.0491  0.5457
 3628ntf    sn221467   4.861   0.246   5.948  0.0763 -0.0219 -0.1235
 3628ntf    nn321468   5.017   0.263   5.957  0.0336  0.2342  0.1629
 3628ntf    sn221469   5.130   0.211   5.860 -0.4754 -0.2666 -0.1731
 3628ntf    cn121470   5.131   0.347   5.739 -0.1791 -0.1254 -0.0137
 3628ntf    fn421471   4.865   0.500   5.872 -0.5773  0.3259  0.4469
 3628ntf    fn421472   4.698   0.448   5.989  0.4789  0.4819  0.3308
 3628ntf    fn421473   4.885   0.471   6.081  0.0618 -0.1104  0.7568
 3628ntf    on521474   4.807   0.176   6.061  0.5393 -0.0531  0.0783
 3628ntf    on521475   4.811   0.221   5.815  0.4677  0.3615 -0.3502
 3628ntf    on521476   5.100   0.086   5.796 -0.6968 -0.5225  0.4274
 3628ntf    on521477   5.259   0.220   5.924 -0.5516  0.3478 -0.0919
 3628ntf    fn421478   5.026   0.344   5.658  0.0502 -0.3356 -0.3071
 3628ntf    fn421479   5.134   0.467   5.793 -0.0639 -0.0458 -0.1954
 3628ntf    fn421480   5.236   0.333   5.659  0.3368  0.5097  0.5419
 3629ntf    cn121481   2.695   1.485   4.914  0.3036 -0.4188  0.0736
 3629ntf    sn221482   2.543   1.399   4.861  0.1149 -0.1013  0.0953
 3629ntf    nn321483   2.430   1.459   4.952 -0.3896 -0.6155 -0.1868
 3629ntf    sn221484   2.358   1.597   4.937 -0.2068 -0.5256 -0.2470
 3629ntf    cn121485   2.191   1.541   4.894 -0.4960 -0.1408  0.3540
 3629ntf    fn421486   2.689   1.612   4.878 -0.1525 -0.5111 -0.1841
 3629ntf    fn421487   2.722   1.482   5.043 -0.0950  0.6231  0.1889
 3629ntf    fn421488   2.803   1.434   4.857  0.4981 -0.0674  0.1269
 3629ntf    on521489   2.530   1.430   4.721  0.4958  0.2162  0.1253
 3629ntf    on521490   2.569   1.261   4.895  0.3010  0.0013  0.3759
 3629ntf    on521491   2.401   1.685   4.831 -0.1925 -0.0403  0.1577
 3629ntf    on521492   2.342   1.661   5.065  0.5474 -0.4971 -0.1618
 3629ntf    fn421493   2.112   1.646   4.881  0.4632  0.5375 -0.0931
 3629ntf    fn421494   2.195   1.476   4.779  0.4766  0.4725  0.0277
 3629ntf    fn421495   2.142   1.459   4.985 -0.7232  0.0365  0.3936
 3630ntf    cn121496   2.490   2.790   3.833 -0.2915  0.0311 -0.0436
 3630ntf    sn221497   2.553   2.750   3.667 -0.0759  0.3080 -0.0297
 3630ntf    nn321498   2.559   2.595   3.691  0.5838  0.2966 -0.2574
 3630ntf    sn221499   2.675   2.502   3.742  0.1331 -0.2195 -0.1654
 3630ntf    cn121500   2.621   2.343   3.673 -0.3025 -0.0618 -0.1914
 3630ntf    fn421501   2.480   2.919   3.863 -0.4353  0.1214 -0.4845
 3630ntf    fn421502   2.365   2.749   3.844 -0.6078  0.8852 -0.3557
 3630ntf    fn421503   2.561   2.735   3.930 -0.0399 -0.9411 -0.7667
 3630ntf    on521504   2.449   2.793   3.577 -0.2238  0.3312  0.1498
 3630ntf    on521505   2.684   2.810   3.659 -0.0157  0.1993  0.1355
 3630ntf    on521506   2.664   2.491   3.886 -0.1899 -0.1258 -0.1812
 3630ntf    on521507   2.800   2.526   3.675  0.0372  0.4947 -0.1008
 3630ntf    fn421508   2.697   2.248   3.724 -0.2818  0.0339 -0.0407
 3630ntf    fn421509   2.497   2.307   3.703 -0.1632  0.0988  0.6131
 3630ntf    fn421510   2.636   2.340   3.542  0.1001 -0.2828 -0.1403
 3631ntf    cn121511   4.124   5.209   1.052  0.1340  0.0316  0.0507
 3631ntf    sn221512   4.282   5.140   0.996  0.1448 -0.0069  0.1293
 3631ntf    nn321513   4.243   5.109   0.848 -0.2307 -0.0226  0.2301
 3631ntf    sn221514   4.288   5.186   0.718 -0.1266 -0.0493  0.2499
 3631ntf    cn121515   4.449   5.106   0.693 -0.0481  0.2145 -0.0952
 3631ntf    fn421516   4.135   5.254   1.175  0.6174  0.1690 -0.0410
 3631ntf    fn421517   4.075   5.300   0.968  0.0901 -0.2144 -0.1932
 3631ntf    fn421518   4.033   5.113   1.064  0.2212 -0.0016  0.4487
 3631ntf    on521519   4.379   5.246   1.015  0.0461 -0.0257  0.7827
 3631ntf    on521520   4.304   5.021   1.074  0.1828 -0.0078  0.1172
 3631ntf    on521521   4.320   5.325   0.736 -0.2144 -0.0801  0.6481
 3631ntf    on521522   4.212   5.152   0.601  0.2638 -0.3451  0.0777
 3631ntf    fn421523   4.442   4.974   0.679 -0.3503  0.2462 -0.2394
 3631ntf    fn421524   4.526   5.146   0.593  0.0996  0.3900  0.0900
 3631ntf    fn421525   4.531   5.136   0.792  0.1081  0.2948 -0.2481
 3632ntf    cn121526   4.152   0.546   1.803 -0.1588 -0.3752 -0.0205
 3632ntf    sn221527   4.099   0.711   1.858 -0.1642 -0.4230  0.1170
 3632ntf    nn321528   4.193   0.737   1.981  0.2156 -0.0190 -0.2560
 3632ntf    sn221529   4.302   0.847   2.007 -0.0638  0.1715  0.1110
 3632ntf    cn121530   4.440   0.758   1.929  0.0721  0.3355  0.1640
 3632ntf    fn421531   4.272   0.553   1.746 -0.2993  0.2266 -0.2503
 3632ntf    fn421532   4.168   0.458   1.900  0.6278 -0.1251  0.0899
 3632ntf    fn421533   4.070   0.487   1.718 -0.5307 -0.0005  0.0788
 3632ntf    on521534   4.106   0.799   1.744  0.3093 -0.3159  0.2280
 3632ntf    on521535   3.968   0.685   1.913 -0.6108  0.1735 -0.6386
 3632ntf    on521536   4.325   0.852   2.149  0.2737  0.5983  0.0436
 3632ntf    on521537   4.292   0.976   1.942  0.4638  0.4164  0.5192
 3632ntf    fn421538   4.544   0.839   1.916  0.2556  0.1843  0.6870
 3632ntf    fn421539   4.477   0.652   1.999 -0.3696  0.1464  0.1152
 3632ntf    fn421540   4.409   0.715   1.808 -0.5342  0.6326  0.2077
 3633ntf    cn121541   4.071   6.243   0.763  0.1628  0.3000 -0.1559
 3633ntf    sn221542   4.142   6.186   0.606  0.1745 -0.2131  0.0355
 3633ntf    nn321543   4.069   6.046   0.609  0.4046 -0.3327  0.0575
 3633ntf    sn221544   4.039   5.939   0.498  0.0835 -0.0836 -0.0967
 3633ntf    cn121545   3.858   5.944   0.480  0.0710  0.1864  0.0885
 3633ntf    fn421546   4.142   6.189   0.861  0.1950  0.0083 -0.3409
 3633ntf    fn421547   4.075   6.373   0.788  0.1913  0.2064  0.3398
 3633ntf    fn421548   3.946   6.204   0.780  0.1798  0.3159  0.0065
 3633ntf    on521549   4.088   6.284   0.515 -0.4927 -0.5964  0.0070
 3633ntf    on521550   4.284   6.189   0.629  0.2585 -0.3937 -0.4312
 3633ntf    on521551   4.065   5.809   0.554  0.4537 -0.1213 -0.3555
 3633ntf    on521552   4.087   5.964   0.365 -0.4775  0.2452 -0.2407
 3633ntf    fn421553   3.816   5.853   0.394  0.1801  0.1033  0.1225
 3633ntf    fn421554   3.790   5.920   0.591 -0.0594 -0.3879 -0.1129
 3633ntf    fn421555   3.817   6.065   0.446 -0.5427 -0.0453 -0.0105
 3634ntf    cn121556   5.261   1.854   4.479 -0.1970 -0.1250  0.3124
 3634ntf    sn221557   5.143   1.730   4.542 -0.2242 -0.2661 -0.0166
 3634ntf    nn321558   5.106   1.793   4.680  0.2004 -0.0302 -0.0078
 3634ntf    sn221559   4.988   1.892   4.709  0.0204 -0.2937  0.1669
 3634ntf    cn121560   4.864   1.776   4.775 -0.3464  0.0422  0.0755
 3634ntf    fn421561   5.211   1.974   4.458 -0.0120 -0.1067 -0.0348
 3634ntf    fn421562   5.358   1.869   4.567  0.0611  0.0551 -0.0022
 3634ntf    fn421563   5.316   1.817   4.365  0.2335 -0.0309  0.4895
 3634ntf    on521564   5.040   1.723   4.442 -0.2168 -0.2502 -0.0246
 3634ntf    on521565   5.231   1.617   4.558 -0.1825 -0.2093  0.1537
 3634ntf    on521566   4.924   1.953   4.595 -0.2301 -0.2941  0.3063
 3634ntf    on521567   5.023   1.975   4.822  0.1696  0.4784 -0.4337
 3634ntf    fn421568   4.825   1.694   4.678  0.2603  0.1048 -0.2255
 3634ntf    fn421569   4.894   1.697   4.877  0.0678 -0.4847 -0.4462
 3634ntf    fn421570   4.754   1.840   4.811 -0.1415  0.3274  0.1967
 3635ntf    cn121571   6.802   0.511   5.005 -0.1733 -0.4357 -0.6691
 3635ntf    sn221572   6.981   0.500   4.976  0.0202  0.2856  0.2045
 3635ntf    nn321573   7.009   0.638   4.906 -0.6196 -0.0057 -0.6324
 3635ntf    sn221574   7.104   0.688   4.791 -0.1722 -0.1577 -0.3292
 3635ntf    cn121575   7.103   0.866   4.826 -0.1412 -0.1785 -0.2220
 3635ntf    fn421576   6.757   0.399   5.059  0.3095 -0.3349 -0.0447
 3635ntf    fn421577   6.767   0.603   5.093  0.4206 -0.4599 -0.4036
 3635ntf    fn421578   6.734   0.530   4.894  0.0808 -0.1259 -0.7737
 3635ntf    on521579   7.036   0.513   5.109 -0.4089  0.4427  0.3676
 3635ntf    on521580   6.994   0.379   4.898  0.5699  0.4387  0.0507
 3635ntf    on521581   7.045   0.679   4.660 -0.3954  0.5306 -0.2812
 3635ntf    on521582   7.243   0.658   4.811 -0.0376  0.4748 -0.3044
 3635ntf    fn421583   6.996   0.936   4.793 -0.1594 -0.0727  0.0569
 3635ntf    fn421584   7.116   0.899   4.954 -0.5044  0.1528 -0.2686
 3635ntf    fn421585   7.205   0.928   4.768 -0.1111  0.5342  0.5641
 3636ntf    cn121586   3.530   0.057   3.342  0.0431  0.2581 -0.3113
 3636ntf    sn221587   3.427   0.067   3.492 -0.0722 -0.2623 -0.3523
 3636ntf    nn321588   3.482  -0.061   3.563  0.3227  0.0713 -0.0508
 3636ntf    sn221589   3.568  -0.082   3.693  0.3682  0.2206 -0.0571
 3636ntf    cn121590   3.441  -0.132   3.814  0.1832  0.4022 -0.1741
 3636ntf    fn421591   3.498  -0.049   3.269  0.2174  0.4040 -0.6000
 3636ntf    fn421592   3.510   0.167   3.272 -0.0107  0.4269 -0.0342
 3636ntf    fn421593   3.657   0.056   3.378 -0.0283  0.3243 -0.0540
 3636ntf    on521594   3.476   0.192   3.546 -0.1201 -0.5454  0.3516
 3636ntf    on521595   3.292   0.061   3.442 -0.1670  0.9010 -0.2660
 3636ntf    on521596   3.633   0.031   3.755 -0.0765  0.1026  0.6453
 3636ntf    on521597   3.652  -0.199   3.687  0.3225  0.1582  0.4175
 3636ntf    fn421598   3.335  -0.054   3.809 -0.1650 -0.0869 -0.4921
 3636ntf    fn421599   3.387  -0.247   3.777  0.1577  0.4694 -0.3463
 3636ntf    fn421600   3.490  -0.146   3.936 -0.1869  0.2181 -0.0448
 3637ntf    cn121601   1.510   1.896   1.816  0.5694 -0.0995  0.4107
 3637ntf    sn221602   1.599   1.769   1.911  0.0838 -0.4255  0.4349
 3637ntf    nn321603   1.746   1.817   1.881 -0.0338 -0.1892  0.2356
 3637ntf    sn221604   1.865   1.807   1.982 -0.1973  0.0117  0.4502
 3637ntf    cn121605   1.925   1.642   1.934  0.0941  0.2387  0.0252
 3637ntf    fn421606   1.545   1.909   1.689 -0.7590  0.0222  0.0448
 3637ntf    fn421607   1.379   1.881   1.821  0.5428 -0.1114 -0.3224
 3637ntf    fn421608   1.527   2.014   1.875  0.0788  0.0524  0.2586
 3637ntf    on521609   1.548   1.790   2.044  0.2841 -0.8497  0.5794
 3637ntf    on521610   1.560   1.647   1.845  0.1182 -0.2827  0.1482
 3637ntf    on521611   1.833   1.780   2.120  0.1669 -0.2584  0.4843
 3637ntf    on521612   1.975   1.896   1.952  0.0412 -0.2595  0.5181
 3637ntf    fn421613   1.842   1.545   1.968  0.2202  0.1011 -0.0598
 3637ntf    fn421614   1.923   1.631   1.802  0.0809 -0.0217  0.0474
 3637ntf    fn421615   2.048   1.619   1.974  0.1956  0.5383 -0.1095
 3638ntf    cn121616   4.709   6.241   1.443  0.3815  0.1392 -0.4994
 3638ntf    sn221617   4.835   6.249   1.312  0.6226  0.1156 -0.2703
 3638ntf    nn321618   4.805   6.393   1.259 -0.3234 -0.0037 -0.0784
 3638ntf    sn221619   4.876   6.533   1.261  0.2233 -0.2795  0.0042
 3638ntf    cn121620   4.768   6.646   1.355  0.1374 -0.0732 -0.3389
 3638ntf    fn421621   4.750   6.300   1.554  0.8432 -0.2962 -0.4306
 3638ntf    fn421622   4.598   6.305   1.412  0.2685  0.2986  0.2145
 3638ntf    fn421623   4.677   6.117   1.476  0.0121  0.2757 -0.3436
 3638ntf    on521624   4.962   6.239   1.379  0.5582 -0.4004 -0.2166
 3638ntf    on521625   4.798   6.143   1.221 -0.2617 -0.1973  0.4356
 3638ntf    on521626   4.875   6.595   1.131 -0.0497 -0.6282 -0.1597
 3638ntf    on521627   5.002   6.535   1.332  0.0184  0.4493  0.3575
 3638ntf    fn421628   4.660   6.689   1.293  0.1082  0.2451 -0.0675
 3638ntf    fn421629   4.730   6.596   1.472  0.1873 -0.5476 -0.5232
 3638ntf    fn421630   4.832   6.758   1.382 -0.4007  0.1200  0.1446
 3639ntf    cn121631   3.254   6.625   5.112 -0.0945  0.1077 -0.0759
 3639ntf    sn221632   3.219   6.588   4.938  0.0315 -0.0300 -0.0715
 3639ntf    nn321633   3.282   6.710   4.861  0.0279 -0.1865 -0.3262
 3639ntf    sn221634   3.224   6.833   4.783  0.1050  0.0565 -0.0034
 3639ntf    cn121635   3.304   6.969   4.873 -0.3467  0.2058  0.1703
 3639ntf    fn421636   3.218   6.744   5.160  0.4837  0.4668 -0.5180
 3639ntf    fn421637   3.200   6.539   5.196 -0.0892  0.0103 -0.1728
 3639ntf    fn421638   3.382   6.629   5.143 -0.1961  0.2929  0.3267
 3639ntf    on521639   3.289   6.464   4.915 -0.2067 -0.1521 -0.1446
 3639ntf    on521640   3.075   6.579   4.932 -0.0164  0.7274 -0.1605
 3639ntf    on521641   3.084   6.862   4.799  0.1550  0.1259  0.3061
 3639ntf    on521642   3.290   6.838   4.655  0.4069  0.3861  0.1607
 3639ntf    fn421643   3.435   6.978   4.865 -0.3451 -0.1193 -0.1375
 3639ntf    fn421644   3.263   7.090   4.838  0.2900  0.4387  0.2258
 3639ntf    fn421645   3.277   6.967   5.003  0.0569  0.5429  0.2632
 3640ntf    cn121646   5.131   0.353   0.003 -0.0092 -0.0245  0.0962
 3640ntf    sn221647   5.256   0.221   0.023  0.0314 -0.0102 -0.0692
 3640ntf    nn321648   5.326   0.260   0.157 -0.1496 -0.1116  0.0550
 3640ntf    sn221649   5.396   0.150   0.245 -0.1514 -0.1994 -0.0544
 3640ntf    cn121650   5.457   0.244   0.388  0.2010 -0.0837 -0.2796
 3640ntf    fn421651   5.171   0.468   0.056 -0.1303  0.0161  0.0998
 3640ntf    fn421652   5.092   0.378  -0.120 -0.4114 -0.3447  0.1581
 3640ntf    fn421653   5.022   0.324   0.072 -0.1978  0.1867 -0.1114
 3640ntf    on521654   5.174   0.103   0.032  0.3302 -0.2164 -0.0666
 3640ntf    on521655   5.337   0.244  -0.094 -0.4700  0.4271 -0.3408
 3640ntf    on521656   5.520   0.103   0.189 -0.0408  0.0891 -0.0552
 3640ntf    on521657   5.315   0.048   0.308 -0.5646  0.1682  0.0187
 3640ntf    fn421658   5.363   0.263   0.479  0.0937  0.8032 -0.5658
 3640ntf    fn421659   5.544   0.171   0.454 -0.2023 -0.0422  0.3124
 3640ntf    fn421660   5.508   0.364   0.365  0.2936 -0.1031 -0.1735
 3641ntf    cn121661   1.622   3.151   3.309 -0.1847  0.1401  0.1109
 3641ntf    sn221662   1.522   3.018   3.235 -0.2851  0.2068  0.1260
 3641ntf    nn321663   1.597   2.999   3.098 -0.7380  0.0524 -0.1009
 3641ntf    sn221664   1.553   3.062   2.961 -0.0390 -0.0409 -0.3682
 3641ntf    cn121665   1.721   3.084   2.894  0.0207  0.0762 -0.1817
 3641ntf    fn421666   1.750   3.122   3.317 -0.3321 -0.6034 -0.1734
 3641ntf    fn421667   1.610   3.263   3.239  0.6596  0.0473 -0.1883
 3641ntf    fn421668   1.582   3.184   3.431 -0.1436 -0.3430  0.2559
 3641ntf    on521669   1.536   2.904   3.322 -0.2536 -0.1002 -0.2786
 3641ntf    on521670   1.393   3.082   3.223 -0.3841  0.0662  0.4257
 3641ntf    on521671   1.507   3.198   2.969  0.1141 -0.0142  0.1300
 3641ntf    on521672   1.487   2.972   2.871 -0.7916  0.4246 -0.2909
 3641ntf    fn421673   1.776   2.974   2.845  0.4234  0.0613  0.2875
 3641ntf    fn421674   1.731   3.171   2.795  0.3588  0.0588 -0.1648
 3641ntf    fn421675   1.801   3.137   2.985 -0.0584 -0.1138  0.0007
 3642ntf    cn121676   5.604   7.072   5.074  0.2677 -0.1924  0.3315
 3642ntf    sn221677   5.712   7.097   5.219  0.1949  0.1500  0.3272
 3642ntf    nn321678   5.707   7.252   5.243 -0.2956  0.2003 -0.0672
 3642ntf    sn221679   5.823   7.357   5.253 -0.1280  0.0057  0.0581
 3642ntf    cn121680   5.745   7.475   5.367  0.0183  0.0670  0.0948
 3642ntf    fn421681   5.628   6.956   5.015  0.0435 -0.0762  0.0107
 3642ntf    fn421682   5.475   7.070   5.104  0.1575  0.1250 -0.1193
 3642ntf    fn421683   5.625   7.166   4.984 -0.4140 -0.0469  0.3186
 3642ntf    on521684   5.653   7.017   5.324 -0.7121  0.5125  0.1059
 3642ntf    on521685   5.837   7.049   5.165 -0.0756 -0.3172  0.1003
 3642ntf    on521686   5.835   7.443   5.137 -0.8701  0.2705  0.1735
 3642ntf    on521687   5.942   7.309   5.318  0.0287  0.1797 -0.0994
 3642ntf    fn421688   5.725   7.407   5.478  0.2992  0.1036  0.1679
 3642ntf    fn421689   5.822   7.579   5.395  0.2591 -0.0438 -0.1533
 3642ntf    fn421690   5.630   7.525   5.323  0.1465 -0.1546 -0.5049
 3643ntf    cn121691   3.008   6.782   5.628  0.2019  0.1156 -0.3196
 3643ntf    sn221692   2.938   6.698   5.483 -0.0630 -0.0238 -0.1116
 3643ntf    nn321693   3.003   6.556   5.502  0.3418  0.1901  0.1279
 3643ntf    sn221694   2.937   6.415   5.525  0.0802  0.2976  0.0510
 3643ntf    cn121695   2.954   6.351   5.356  0.1819  0.3145  0.0555
 3643ntf    fn421696   3.139   6.767   5.637  0.2635  0.6148 -0.3432
 3643ntf    fn421697   2.990   6.913   5.629  0.1586  0.1097 -0.2032
 3643ntf    fn421698   2.947   6.737   5.737  0.2001  0.4471 -0.1812
 3643ntf    on521699   2.796   6.706   5.509  0.1189  0.9593  0.6429
 3643ntf    on521700   2.994   6.771   5.372  0.3776 -0.2641 -0.0519
 3643ntf    on521701   2.797   6.410   5.558  0.0889 -0.2192  0.0186
 3643ntf    on521702   3.031   6.331   5.597 -0.0900 -0.0688 -0.1518
 3643ntf    fn421703   3.081   6.337   5.320  0.1324  0.3407 -0.1319
 3643ntf    fn421704   2.893   6.234   5.354 -0.0037  0.3935  0.8283
 3643ntf    fn421705   2.901   6.428   5.262 -0.0078  0.3391  0.1816
 3644ntf    cn121706   5.137   2.660   4.791 -0.0030  0.3692  0.4104
 3644ntf    sn221707   5.046   2.721   4.646 -0.0623 -0.4568  0.0948
 3644ntf    nn321708   4.919   2.629   4.655 -0.2810 -0.1298  0.3600
 3644ntf    sn221709   4.893   2.487   4.594  0.1951 -0.1857  0.2898
 3644ntf    cn121710   4.766   2.518   4.467  0.0712 -0.1006  0.4353
 3644ntf    fn421711   5.146   2.528   4.791 -0.0892  0.3644 -0.0588
 3644ntf    fn421712   5.261   2.707   4.793  0.1769 -0.0760 -0.0015
 3644ntf    fn421713   5.090   2.699   4.908  0.0883  0.2024  0.5043
 3644ntf    on521714   5.020   2.859   4.677 -0.1896 -0.4595 -0.0002
 3644ntf    on521715   5.139   2.697   4.538  0.2303 -0.0165  0.2473
 3644ntf    on521716   4.821   2.396   4.679 -0.0886  0.2716  0.5384
 3644ntf    on521717   5.002   2.426   4.521  0.0033 -0.2107  0.0209
 3644ntf    fn421718   4.807   2.623   4.397 -0.1381 -0.2544  0.0828
 3644ntf    fn421719   4.767   2.420   4.379 -0.2678  0.3934 -0.1267
 3644ntf    fn421720   4.643   2.540   4.510 -0.1286  0.4807 -0.4183
 3645ntf    cn121721   6.576   3.058   5.976 -0.5274 -0.2416 -0.2540
 3645ntf    sn221722   6.661   3.039   5.816 -0.1594 -0.1244 -0.0726
 3645ntf    nn321723   6.547   3.090   5.721  0.1790  0.1382 -0.3392
 3645ntf    sn221724   6.456   3.000   5.630  0.1904 -0.1893 -0.0293
 3645ntf    cn121725   6.308   3.104   5.616  0.2297 -0.1212  0.0598
 3645ntf    fn421726   6.556   3.186   6.003 -0.4921 -0.3189  0.1401
 3645ntf    fn421727   6.460   2.995   5.978 -0.3479 -0.5782 -0.4208
 3645ntf    fn421728   6.649   3.014   6.076 -0.2555  0.2214 -0.2448
 3645ntf    on521729   6.769   3.135   5.819 -0.4417  0.1883  0.1970
 3645ntf    on521730   6.690   2.898   5.809  0.0928 -0.0791  0.0322
 3645ntf    on521731   6.405   2.880   5.692  0.1767 -0.4244 -0.4857
 3645ntf    on521732   6.497   2.987   5.492 -0.1365  0.1257 -0.1562
 3645ntf    fn421733   6.272   3.147   5.736 -0.5298 -0.5403 -0.0133
 3645ntf    fn421734   6.334   3.203   5.533 -0.6596 -0.0802 -0.1760
 3645ntf    fn421735   6.201   3.041   5.571  0.2352 -0.0161 -0.0988
 3646ntf    cn121736   2.141   5.249   2.260 -0.0528 -0.2512 -0.0700
 3646ntf    sn221737   2.058   5.317   2.407  0.3926  0.1365  0.0041
 3646ntf    nn321738   1.939   5.214   2.413 -0.0551  0.6744  0.4704
 3646ntf    sn221739   1.788   5.223   2.372  0.0382  0.0293 -0.0254
 3646ntf    cn121740   1.724   5.282   2.531  0.2612  0.1166  0.0325
 3646ntf    fn421741   2.190   5.128   2.281  0.1842 -0.0582  0.4983
 3646ntf    fn421742   2.062   5.243   2.154 -0.2336  0.1407  0.0386
 3646ntf    fn421743   2.246   5.320   2.223 -0.1607  0.1954  0.4717
 3646ntf    on521744   2.149   5.292   2.516 -0.0291  0.0183  0.3345
 3646ntf    on521745   2.018   5.453   2.380 -0.1691 -0.0291 -0.0043
 3646ntf    on521746   1.726   5.095   2.351 -0.6115  0.3145  0.1449
 3646ntf    on521747   1.750   5.324   2.275  0.1655 -0.1165 -0.2283
 3646ntf    fn421748   1.791   5.388   2.573 -0.4077  0.2287  0.8411
 3646ntf    fn421749   1.597   5.320   2.529  0.1357 -0.2693  0.4257
 3646ntf    fn421750   1.742   5.196   2.630 -0.3052 -0.4487 -0.3534
 3647ntf    cn121751   0.134   4.256   1.354 -0.1747 -0.0656 -0.2119
 3647ntf    sn221752   0.309   4.211   1.371 -0.1749 -0.0458 -0.1555
 3647ntf    nn321753   0.351   4.166   1.226  0.5007 -0.5199  0.1810
 3647ntf    sn221754   0.476   4.212   1.144 -0.1094  0.2670 -0.3229
 3647ntf    cn121755   0.410   4.343   1.035 -0.1086  0.4797 -0.0662
 3647ntf    fn421756   0.102   4.330   1.249 -0.8046 -0.0251  0.0011
 3647ntf    fn421757   0.054   4.152   1.333  0.1925 -0.3112 -0.4041
 3647ntf    fn421758   0.092   4.322   1.460  0.0685  0.4842 -0.4513
 3647ntf    on521759   0.369   4.331   1.425 -0.1775 -0.1270  0.0276
 3647ntf    on521760   0.307   4.100   1.463  0.5444 -0.0595 -0.1453
 3647ntf    on521761   0.520   4.115   1.046 -0.5248  0.0057 -0.2524
 3647ntf    on521762   0.577   4.275   1.226  0.1835 -0.3286 -0.2203
 3647ntf    fn421763   0.502   4.421   0.980 -0.1031  0.4237 -0.1373
 3647ntf    fn421764   0.344   4.287   0.936 -0.1492  0.3110  0.0559
 3647ntf    fn421765   0.319   4.415   1.098 -0.0747  0.4628  0.0031
 3648ntf    cn121766   2.610   1.652   0.734 -0.0472  0.2646 -0.1861
 3648ntf    sn221767   2.562   1.625   0.561  0.1461 -0.4642 -0.1302
 3648ntf    nn321768   2.451   1.514   0.564 -0.1063 -0.2031  0.5218
 3648ntf    sn221769   2.459   1.363   0.521  0.2261 -0.0336 -0.0168
 3648ntf    cn121770   2.429   1.375   0.342  0.1149  0.1195  0.0121
 3648ntf    fn421771   2.503   1.662   0.812 -0.0124  0.0518 -0.1082
 3648ntf    fn421772   2.685   1.553   0.780 -0.1279  0.4815  0.4248
 3648ntf    fn421773   2.676   1.765   0.751  0.1345  0.1447 -0.0879
 3648ntf    on521774   2.505   1.749   0.515  0.4574 -0.3258 -0.1417
 3648ntf    on521775   2.683   1.589   0.493  0.2919  0.6138 -0.4628
 3648ntf    on521776   2.355   1.279   0.574 -0.7476  0.8447 -0.5035
 3648ntf    on521777   2.591   1.304   0.527  0.0199 -0.5055 -0.0609
 3648ntf    fn421778   2.379   1.258   0.305 -0.4040  0.1199  0.6994
 3648ntf    fn421779   2.327   1.457   0.324  0.5349  0.6347 -0.0448
 3648ntf    fn421780   2.526   1.423   0.265  0.3320 -0.0716  0.1631
 3649ntf    cn121781   2.855   5.084   4.164  0.1101  0.0640 -0.4688
 3649ntf    sn221782   2.869   5.265   4.160  0.0931  0.0744 -0.0880
 3649ntf    nn321783   2.721   5.300   4.196  0.1043  0.0146  0.0162
 3649ntf    sn221784   2.605   5.373   4.119  0.0120 -0.1553 -0.0065
 3649ntf    cn121785   2.484   5.244   4.078 -0.1271 -0.0269 -0.0031
 3649ntf    fn421786   2.962   5.014   4.132 -0.0559 -0.0841 -0.7098
 3649ntf    fn421787   2.824   5.049   4.288  0.2881 -0.0397 -0.4533
 3649ntf    fn421788   2.757   5.047   4.083 -0.4721  0.6143 -0.0244
 3649ntf    on521789   2.965   5.301   4.261  0.0251  0.2797 -0.0962
 3649ntf    on521790   2.908   5.286   4.023  0.4658  0.0356  0.0109
 3649ntf    on521791   2.644   5.423   3.989 -0.0355 -0.0850  0.0066
 3649ntf    on521792   2.528   5.466   4.197 -0.1291 -0.0949 -0.2147
 3649ntf    fn421793   2.387   5.289   4.001 -0.1368 -0.2935 -0.1510
 3649ntf    fn421794   2.545   5.147   4.011 -0.1609 -0.0486 -0.0022
 3649ntf    fn421795   2.432   5.198   4.190  0.2007  0.1988  0.2432
 3650ntf    cn121796   6.541   5.207   5.526  0.0739 -0.2487 -0.0084
 3650ntf    sn221797   6.564   5.066   5.639 -0.2332 -0.0363  0.3215
 3650ntf    nn321798   6.451   4.967   5.593 -0.4960  0.1559  0.5525
 3650ntf    sn221799   6.456   4.847   5.492 -0.2034  0.3090  0.3818
 3650ntf    cn121800   6.424   4.704   5.601  0.1354 -0.2508 -0.2486
 3650ntf    fn421801   6.418   5.257   5.524  0.0449 -0.3042  0.2577
 3650ntf    fn421802   6.620   5.307   5.562  0.2419 -0.2253 -0.4452
 3650ntf    fn421803   6.571   5.179   5.400 -0.1976 -0.0087 -0.1285
 3650ntf    on521804   6.700   5.025   5.618 -0.1253  0.2438  0.4704
 3650ntf    on521805   6.537   5.123   5.769 -0.0584  0.0710  0.3098
 3650ntf    on521806   6.584   4.817   5.434 -0.5053 -0.5547  0.1462
 3650ntf    on521807   6.343   4.837   5.403 -0.0530 -0.4570  0.2677
 3650ntf    fn421808   6.402   4.596   5.528  0.0024 -0.2153 -0.2609
 3650ntf    fn421809   6.522   4.675   5.685  0.1972  0.7772  0.0495
 3650ntf    fn421810   6.319   4.723   5.678  0.4446 -0.3664  0.2041
 3651ntf    cn121811   1.050   5.794   5.564  0.3236 -0.0669  0.0981
 3651ntf    sn221812   1.136   5.768   5.722  0.0011 -0.3835  0.2213
 3651ntf    nn321813   1.170   5.916   5.762  0.5608 -0.5515  0.3786
 3651ntf    sn221814   1.190   5.978   5.905 -0.3794 -0.1327  0.3397
 3651ntf    cn121815   1.361   6.040   5.891 -0.4366 -0.0106  0.1800
 3651ntf    fn421816   1.024   5.683   5.498 -0.0685 -0.2446  0.5544
 3651ntf    fn421817   0.935   5.858   5.578  0.1976 -0.2277 -0.1796
 3651ntf    fn421818   1.130   5.862   5.483  0.2441 -0.2026 -0.0965
 3651ntf    on521819   1.034   5.703   5.799  0.1110 -0.1676  0.5488
 3651ntf    on521820   1.254   5.693   5.684  0.3556 -0.1528  0.8534
 3651ntf    on521821   1.198   5.882   6.012  0.1907 -0.3395  0.1176
 3651ntf    on521822   1.116   6.100   5.922 -0.2038 -0.0076  0.2078
 3651ntf    fn421823   1.442   5.941   5.856 -0.2789  0.2914 -0.3154
 3651ntf    fn421824   1.380   6.127   5.793 -0.0923 -0.6556 -0.3416
 3651ntf    fn421825   1.397   6.097   6.004 -0.0161  0.1416 -0.0269
 3652ntf    cn121826   1.331   5.820   0.497  0.5304  0.2446  0.0667
 3652ntf    sn221827   1.274   5.966   0.405 -0.2927 -0.1634 -0.0851
 3652ntf    nn321828   1.388   5.973   0.298 -0.0020  0.1366  0.2379
 3652ntf    sn221829   1.518   6.060   0.298  0.1998 -0.1621 -0.1209
 3652ntf    cn121830   1.631   5.932   0.235  0.2262 -0.1554 -0.0865
 3652ntf    fn421831   1.440   5.845   0.566  0.1284  0.5501  0.5966
 3652ntf    fn421832   1.238   5.778   0.582  0.5379 -0.5645 -0.3068
 3652ntf    fn421833   1.371   5.721   0.419 -0.6666 -0.1430 -0.0789
 3652ntf    on521834   1.156   5.913   0.341  0.3716 -0.7498 -0.8400
 3652ntf    on521835   1.257   6.079   0.494 -0.5577  0.3910 -0.8327
 3652ntf    on521836   1.577   6.104   0.422 -0.0728  0.3526 -0.1741
 3652ntf    on521837   1.513   6.150   0.186 -0.0229  0.2153  0.1925
 3652ntf    fn421838   1.587   5.878   0.122  0.2119  0.0688 -0.1891
 3652ntf    fn421839   1.746   5.986   0.196  0.0578  0.0579 -0.2929
 3652ntf    fn421840   1.659   5.836   0.321 -0.0809 -0.2384 -0.0803
 3653ntf    cn121841   4.034   5.702   3.427 -0.0865 -0.2228 -0.1394
 3653ntf    sn221842   4.209   5.659   3.449 -0.1126 -0.1560  0.2053
 3653ntf    nn321843   4.279   5.769   3.362 -0.1937  0.3400  0.7615
 3653ntf    sn221844   4.428   5.809   3.392  0.0242 -0.0332  0.1946
 3653ntf    cn121845   4.432   5.963   3.296  0.1374 -0.1267  0.0505
 3653ntf    fn421846   3.965   5.597   3.467 -0.5391  0.0463 -0.2110
 3653ntf    fn421847   4.002   5.804   3.505  0.4245  0.1703 -0.4365
 3653ntf    fn421848   4.003   5.738   3.304  0.3499  0.4227 -0.0662
 3653ntf    on521849   4.232   5.657   3.592 -0.0900  0.3179  0.2078
 3653ntf    on521850   4.220   5.534   3.377  0.5762  0.2330 -0.3811
 3653ntf    on521851   4.534   5.734   3.330  0.1855  0.3162  0.0481
 3653ntf    on521852   4.444   5.853   3.529 -0.4123 -0.0627  0.2582
 3653ntf    fn421853   4.324   6.036   3.316  0.1724 -0.0840  0.0833
 3653ntf    fn421854   4.545   6.030   3.312 -0.2767  0.4898  0.3810
 3653ntf    fn421855   4.431   5.930   3.167 -0.3668 -0.1609  0.0627
 3654ntf    cn121856   4.833   3.176   0.221  0.0604 -0.1448 -0.2973
 3654ntf    sn221857   4.798   3.355   0.221 -0.1638 -0.1870  0.0954
 3654ntf    nn321858   4.741   3.376   0.365 -0.1330  0.7183 -0.0230
 3654ntf    sn221859   4.603   3.425   0.422 -0.2949  0.2597 -0.0218
 3654ntf    cn121860   4.515   3.269   0.452  0.0496 -0.0107 -0.4054
 3654ntf    fn421861   4.908   3.146   0.116 -0.0334  0.3183 -0.4999
 3654ntf    fn421862   4.900   3.149   0.332 -0.2214  0.0885 -0.0683
 3654ntf    fn421863   4.724   3.102   0.214 -0.0294 -0.0536  0.1059
 3654ntf    on521864   4.925   3.417   0.197 -0.5521  0.3237 -0.6787
 3654ntf    on521865   4.705   3.365   0.110  0.1776  0.0808 -0.1684
 3654ntf    on521866   4.513   3.501   0.339  0.1266  0.6689 -0.1082
 3654ntf    on521867   4.618   3.477   0.555 -0.4324 -0.8029  0.4197
 3654ntf    fn421868   4.383   3.279   0.459  0.0899 -0.1757  0.8574
 3654ntf    fn421869   4.532   3.176   0.359 -0.0715 -0.0134 -0.4255
 3654ntf    fn421870   4.549   3.215   0.568 -0.3042 -0.0384 -0.3128
 3655ntf    cn121871   1.868   7.026   4.986 -0.1778 -0.3677 -0.3642
 3655ntf    sn221872   1.704   7.098   4.950 -0.0628 -0.0033 -0.1649
 3655ntf    nn321873   1.720   7.158   4.805 -0.1261  0.0313 -0.1574
 3655ntf    sn221874   1.653   7.290   4.755 -0.1720  0.0432 -0.0653
 3655ntf    cn121875   1.803   7.381   4.708 -0.1684 -0.0138 -0.1646
 3655ntf    fn421876   1.880   7.013   5.117 -0.4341  0.5102 -0.2493
 3655ntf    fn421877   1.891   6.907   4.934  0.3200 -0.5627  0.2911
 3655ntf    fn421878   1.964   7.104   4.940  0.0107 -0.0941  0.4890
 3655ntf    on521879   1.621   6.980   4.941 -0.1418  0.0755 -0.5158
 3655ntf    on521880   1.680   7.190   5.058  0.2262  0.3184 -0.3697
 3655ntf    on521881   1.597   7.381   4.852  0.0119 -0.2892  0.3530
 3655ntf    on521882   1.585   7.261   4.631 -0.3114  0.1294 -0.0096
 3655ntf    fn421883   1.810   7.410   4.579  0.3813  0.4673 -0.0297
 3655ntf    fn421884   1.813   7.498   4.769  0.2252  0.0259 -0.3033
 3655ntf    fn421885   1.913   7.318   4.742  0.1072  0.4495 -0.1871
 3656ntf    cn121886   6.300   1.038   1.191 -0.2715 -0.2092 -0.0398
 3656ntf    sn221887   6.299   1.183   1.083  0.2266  0.0757  0.3357
 3656ntf    nn321888   6.331   1.120   0.943  0.1768  0.3208  0.2126
 3656ntf    sn221889   6.468   1.092   0.871  0.0619  0.1742  0.0490
 3656ntf    cn121890   6.462   1.240   0.765  0.1253  0.1359 -0.0075
 3656ntf    fn421891   6.249   1.073   1.308  0.1109  0.0777  0.0416
 3656ntf    fn421892   6.219   0.940   1.153  0.0993 -0.4940 -0.1021
 3656ntf    fn421893   6.423   0.990   1.201 -0.2097  0.0613  0.5327
 3656ntf    on521894   6.160   1.220   1.090 -0.0177 -0.6954 -0.3358
 3656ntf    on521895   6.393   1.274   1.145 -0.0480  0.1331  0.6703
 3656ntf    on521896   6.463   0.971   0.794 -0.0221  0.0536  0.2424
 3656ntf    on521897   6.585   1.110   0.954  0.0820 -0.6545  0.2089
 3656ntf    fn421898   6.573   1.254   0.693 -0.0377  0.0759 -0.2695
 3656ntf    fn421899   6.359   1.256   0.684 -0.1429  0.5745  0.4194
 3656ntf    fn421900   6.467   1.344   0.846 -0.3839  0.3500 -0.2468
 3657ntf    cn121901   4.170   6.319   2.869 -0.3504 -0.5318 -0.3359
 3657ntf    sn221902   4.142   6.149   2.813  0.3685 -0.7436 -0.0644
 3657ntf    nn321903   4.120   6.174   2.659 -0.2359  0.0909  0.1473
 3657ntf    sn221904   4.021   6.272   2.589 -0.1350  0.1155  0.0390
 3657ntf    cn121905   3.990   6.180   2.435 -0.2469  0.4473 -0.1401
 3657ntf    fn421906   4.066   6.395   2.839 -0.1070  0.0109  0.1727
 3657ntf    fn421907   4.195   6.339   2.997 -0.0022  0.3075 -0.5248
 3657ntf    fn421908   4.273   6.372   2.805 -0.2728 -0.2340  0.0338
 3657ntf    on521909   4.275   6.094   2.820  0.5202 -0.3923 -0.1996
 3657ntf    on521910   4.033   6.092   2.889 -0.5210  0.8379 -0.1238
 3657ntf    on521911   4.080   6.396   2.543 -0.1154  0.2225  0.3520
 3657ntf    on521912   3.892   6.284   2.652  0.0920 -0.2410  0.5815
 3657ntf    fn421913   3.909   6.244   2.353  0.1728 -0.0706 -0.9790
 3657ntf    fn421914   4.101   6.159   2.366 -0.5638 -0.2207 -0.4527
 3657ntf    fn421915   3.940   6.061   2.467 -0.0678  0.2252 -0.6729
 3658ntf    cn121916   2.598   2.071   0.820  0.2541 -0.5563  0.0875
 3658ntf    sn221917   2.567   2.247   0.788  0.1826 -0.5356  0.2688
 3658ntf    nn321918   2.414   2.253   0.824  0.0306 -0.4619 -0.3781
 3658ntf    sn221919   2.283   2.252   0.738 -0.1461 -0.0273 -0.1194
 3658ntf    cn121920   2.164   2.328   0.853 -0.1224  0.0744 -0.1614
 3658ntf    fn421921   2.720   2.050   0.774  0.1472 -0.5846 -0.1842
 3658ntf    fn421922   2.596   2.032   0.946 -0.1741 -0.5426  0.0877
 3658ntf    fn421923   2.511   1.993   0.759 -0.2839  0.0936  0.0091
 3658ntf    on521924   2.649   2.322   0.880 -0.1492  0.1690  0.0065
 3658ntf    on521925   2.601   2.263   0.649  0.4976 -0.2813  0.3738
 3658ntf    on521926   2.236   2.118   0.714  0.4662 -0.2755  0.0600
 3658ntf    on521927   2.276   2.345   0.628 -0.5001 -0.2206 -0.2628
 3658ntf    fn421928   2.205   2.448   0.891  0.2158 -0.2367  0.4688
 3658ntf    fn421929   2.050   2.337   0.786  0.0341  0.0067 -0.4410
 3658ntf    fn421930   2.145   2.252   0.959  0.1804  0.2644  0.0309
 3659ntf    cn121931   3.546   2.658   4.262 -0.0474  0.1624 -0.1407
 3659ntf    sn221932   3.442   2.588   4.130  0.0547 -0.2619  0.0011
 3659ntf    nn321933   3.352   2.506   4.228 -0.7577 -0.1965 -0.6745
 3659ntf    sn221934   3.234   2.554   4.320  0.0163 -0.3432  0.4302
 3659ntf    cn121935   3.088   2.500   4.226  0.1161 -0.1699  0.1723
 3659ntf    fn421936   3.474   2.738   4.339 -0.0584  0.0422 -0.0254
 3659ntf    fn421937   3.598   2.559   4.333  0.0145  0.4682  0.2436
 3659ntf    fn421938   3.649   2.728   4.218 -0.0227  0.0336 -0.2887
 3659ntf    on521939   3.376   2.701   4.069  0.1804 -0.0856  0.1911
 3659ntf    on521940   3.533   2.512   4.048  0.2133  0.2559 -0.3133
 3659ntf    on521941   3.209   2.696   4.322 -0.0133 -0.3346 -0.1494
 3659ntf    on521942   3.229   2.486   4.446 -0.4147 -0.4263  0.3704
 3659ntf    fn421943   3.081   2.569   4.114  0.1978 -0.1218  0.1974
 3659ntf    fn421944   3.092   2.373   4.188 -0.1550 -0.0170 -0.3750
 3659ntf    fn421945   2.973   2.517   4.289 -0.0236 -0.6007  0.0358
 3660ntf    cn121946   4.005   6.201   7.035  0.3580  0.6178 -0.2633
 3660ntf    sn221947   3.960   6.094   6.896  0.5311  0.2409 -0.0296
 3660ntf    nn321948   3.953   5.956   6.971  0.4548  0.3125  0.0959
 3660ntf    sn221949   3.832   5.887   7.044  0.3081 -0.2652 -0.6741
 3660ntf    cn121950   3.812   5.741   6.937 -0.2543 -0.5073 -0.2433
 3660ntf    fn421951   3.942   6.317   7.028 -0.4781  0.1761 -0.1222
 3660ntf    fn421952   3.963   6.143   7.146  0.2014  0.3386 -0.4696
 3660ntf    fn421953   4.136   6.213   7.053  0.3748 -0.0247  0.0296
 3660ntf    on521954   3.837   6.152   6.846  0.3609 -0.1243 -0.0392
 3660ntf    on521955   4.075   6.110   6.811  0.3977  0.2034 -0.2197
 3660ntf    on521956   3.706   5.957   7.042  0.4219 -0.0115  0.2807
 3660ntf    on521957   3.869   5.825   7.169 -0.3323 -0.2690 -0.4858
 3660ntf    fn421958   3.772   5.776   6.816 -0.0344  0.0994 -0.1461
 3660ntf    fn421959   3.917   5.662   6.923  0.2607  0.2093 -0.5342
 3660ntf    fn421960   3.721   5.659   6.986 -0.3802  0.0021  0.3919
 3661ntf    cn121961   1.457   5.326   6.943  0.3215  0.4361  0.0233
 3661ntf    sn221962   1.407   5.189   7.051 -0.1166  0.2185 -0.4523
 3661ntf    nn321963   1.512   5.214   7.164 -0.3839 -0.1235 -0.1235
 3661ntf    sn221964   1.650   5.150   7.202 -0.2299  0.2114 -0.1126
 3661ntf    cn121965   1.621   5.045   7.348  0.4208 -0.1628 -0.2481
 3661ntf    fn421966   1.582   5.328   6.900  0.2450 -0.0771 -0.2305
 3661ntf    fn421967   1.384   5.324   6.833  0.0690  0.5395  0.1891
 3661ntf    fn421968   1.436   5.448   6.990 -0.4411  0.1930  0.3188
 3661ntf    on521969   1.272   5.214   7.097 -0.0636  0.0808 -0.2209
 3661ntf    on521970   1.429   5.066   6.979  0.4728  0.0978 -0.0719
 3661ntf    on521971   1.738   5.253   7.253  0.5200 -0.5147  0.0977
 3661ntf    on521972   1.708   5.071   7.096  0.1771 -0.2721  0.4567
 3661ntf    fn421973   1.730   4.986   7.394  0.3047 -0.1405  0.0528
 3661ntf    fn421974   1.561   5.102   7.451 -0.0660 -1.0059 -0.0534
 3661ntf    fn421975   1.535   4.950   7.314 -0.2800  0.5468 -0.4667
 3662ntf    cn121976   0.088   2.262   1.971 -0.1315  0.2097 -0.2366
 3662ntf    sn221977   0.098   2.242   2.151 -0.0040 -0.0428 -0.2711
 3662ntf    nn321978  -0.039   2.309   2.187  0.0076 -0.2169  0.1090
 3662ntf    sn221979  -0.070   2.459   2.221 -0.0923 -0.1663 -0.2001
 3662ntf    cn121980  -0.041   2.467   2.400  0.0702  0.1050 -0.2384
 3662ntf    fn421981   0.177   2.180   1.916 -0.3572 -0.1832 -0.0216
 3662ntf    fn421982  -0.033   2.237   1.923 -0.2517 -0.1166  0.2370
 3662ntf    fn421983   0.122   2.384   1.933  0.0442  0.0915 -0.4591
 3662ntf    on521984   0.104   2.099   2.167 -0.7317 -0.0431  0.0470
 3662ntf    on521985   0.214   2.319   2.189  0.1208 -0.5712  0.4354
 3662ntf    on521986  -0.210   2.492   2.204 -0.1421 -0.5159 -0.4786
 3662ntf    on521987   0.019   2.557   2.164 -0.4567 -0.0244 -0.5309
 3662ntf    fn421988  -0.133   2.401   2.468 -0.0520  0.4796 -0.0381
 3662ntf    fn421989   0.070   2.408   2.440 -0.1186 -0.1287 -0.0541
 3662ntf    fn421990  -0.046   2.590   2.448 -0.0092 -0.1266  0.3592
 3663ntf    cn121991   3.303   6.474   1.656 -0.6370  0.0972  0.2223
 3663ntf    sn221992   3.335   6.426   1.828 -0.1929 -0.0372  0.1020
 3663ntf    nn321993   3.210   6.496   1.891  0.3057  0.6357  0.3542
 3663ntf    sn221994   3.206   6.578   2.026  0.0567  0.2813  0.5640
 3663ntf    cn121995   3.097   6.454   2.103  0.1387 -0.3583 -0.3282
 3663ntf    fn421996   3.183   6.434   1.616  0.1537 -1.0806 -1.0784
 3663ntf    fn421997   3.311   6.606   1.642 -0.3203  0.0519 -0.0394
 3663ntf    fn421998   3.393   6.423   1.574 -0.6326 -0.0039  0.2908
 3663ntf    on521999   3.320   6.283   1.838 -0.2498 -0.0519 -0.1948
 3663ntf    on522000   3.463   6.483   1.862 -0.0759 -0.2537  0.0266
 3663ntf    on522001   3.123   6.695   2.016  0.1180  0.3450  0.8103
 3663ntf    on522002   3.321   6.582   2.112  0.4520  0.3573  0.0411
 3663ntf    fn422003   2.988   6.424   2.034 -0.0173 -0.0158 -0.2318
 3663ntf    fn422004   3.159   6.339   2.123  0.5407 -0.0753  0.0645
 3663ntf    fn422005   3.062   6.491   2.225  0.4297 -0.6822 -0.1461
 3664ntf    cn122006   5.401   1.401   2.231  0.2146 -0.2554 -0.2695
 3664ntf    sn222007   5.261   1.287   2.249  0.0549 -0.0871 -0.4277
 3664ntf    nn322008   5.138   1.384   2.251  0.0145 -0.1379 -0.4236
 3664ntf    sn222009   5.024   1.392   2.143 -0.2937  0.2520 -0.0740
 3664ntf    cn122010   4.937   1.239   2.187 -0.1980  0.3129  0.3317
 3664ntf    fn422011   5.386   1.477   2.123  0.3398  0.1616  0.0021
 3664ntf    fn422012   5.408   1.479   2.338 -0.4634 -0.2942 -0.1931
 3664ntf    fn422013   5.513   1.332   2.223  0.1891 -0.3173 -0.0806
 3664ntf    on522014   5.288   1.203   2.135 -0.0536  0.0436 -0.5499
 3664ntf    on522015   5.282   1.230   2.380 -0.4034  0.0673 -0.2848
 3664ntf    on522016   5.076   1.377   2.010  0.7025  0.8582  0.2340
 3664ntf    on522017   4.930   1.499   2.167 -0.7523 -0.0622 -0.4410
 3664ntf    fn422018   5.018   1.134   2.192 -0.4535  0.0771 -0.3498
 3664ntf    fn422019   4.878   1.243   2.305 -0.2412 -0.1268  0.3295
 3664ntf    fn422020   4.842   1.202   2.103  0.0119  0.6452 -0.0516
 3665ntf    cn122021   2.219   3.177   2.625 -0.3979  0.0149 -0.3573
 3665ntf    sn222022   2.359   3.061   2.628 -0.4644 -0.0604 -0.1370
 3665ntf    nn322023   2.281   2.925   2.643 -0.1431 -0.2734 -0.3683
 3665ntf    sn222024   2.304   2.790   2.567 -0.0328 -0.4087 -0.0937
 3665ntf    cn122025   2.486   2.782   2.561 -0.0020  0.1444  0.0608
 3665ntf    fn422026   2.143   3.153   2.520 -0.3492 -0.7454 -0.2258
 3665ntf    fn422027   2.130   3.164   2.722 -0.0374  0.2699  0.0081
 3665ntf    fn422028   2.248   3.306   2.620  0.3634 -0.0958  0.7907
 3665ntf    on522029   2.435   3.083   2.507 -0.3829  0.4837  0.0141
 3665ntf    on522030   2.429   3.089   2.751  0.3676 -0.2640 -0.5522
 3665ntf    on522031   2.252   2.794   2.433 -0.4089 -0.4174  0.0526
 3665ntf    on522032   2.270   2.675   2.647 -0.0479 -0.6185 -0.3991
 3665ntf    fn422033   2.534   2.863   2.468 -0.2330 -0.1625 -0.3306
 3665ntf    fn422034   2.550   2.815   2.671  0.4831 -0.3351 -0.0727
 3665ntf    fn422035   2.532   2.662   2.529 -0.2510  0.1539 -0.3489
 3666ntf    cn122036   4.210   2.167   1.794  0.0366  0.3786 -0.4131
 3666ntf    sn222037   4.209   2.211   1.970  0.1523 -0.2754 -0.2468
 3666ntf    nn322038   4.152   2.357   1.965 -0.0748 -0.3431  0.3149
 3666ntf    sn222039   4.235   2.484   2.008 -0.1330 -0.1325 -0.1980
 3666ntf    cn122040   4.215   2.470   2.188  0.1293 -0.0631 -0.1636
 3666ntf    fn422041   4.288   2.250   1.726  0.0461  0.2208 -0.5967
 3666ntf    fn422042   4.253   2.043   1.778 -0.1212  0.3021 -0.2531
 3666ntf    fn422043   4.090   2.174   1.739 -0.2801  0.1723  0.2403
 3666ntf    on522044   4.113   2.120   2.026 -0.1423  0.2886  0.1728
 3666ntf    on522045   4.344   2.194   2.018  0.0360  0.2375  0.2736
 3666ntf    on522046   4.156   2.599   1.969 -0.7484 -0.3687  0.3455
 3666ntf    on522047   4.378   2.485   1.987 -0.0557  0.4516  0.3279
 3666ntf    fn422048   4.303   2.388   2.242 -0.2789 -0.3817  0.0209
 3666ntf    fn422049   4.211   2.585   2.254  0.2603  0.0685 -0.3838
 3666ntf    fn422050   4.096   2.424   2.221  0.2068  0.0584  0.2989
 3667ntf    cn122051   6.691   4.652   3.487 -0.2567  0.2016  0.0631
 3667ntf    sn222052   6.649   4.829   3.496  0.0586  0.2870 -0.1047
 3667ntf    nn322053   6.503   4.823   3.438 -0.1928 -0.0440  0.5497
 3667ntf    sn222054   6.445   4.833   3.292 -0.0802  0.0371  0.5110
 3667ntf    cn122055   6.319   4.962   3.310  0.2321  0.4038  0.0951
 3667ntf    fn422056   6.609   4.583   3.563 -0.3258  0.6953  0.4433
 3667ntf    fn422057   6.669   4.600   3.367  0.2401 -0.8590  0.4242
 3667ntf    fn422058   6.817   4.621   3.510 -0.4266 -0.1609  0.4930
 3667ntf    on522059   6.645   4.851   3.638 -0.8133  0.3716 -0.1355
 3667ntf    on522060   6.743   4.895   3.409 -0.1576  0.4204 -0.2398
 3667ntf    on522061   6.367   4.716   3.263  0.5943 -0.3903  0.4107
 3667ntf    on522062   6.531   4.886   3.189  0.0540 -0.4521  0.3701
 3667ntf    fn422063   6.278   5.016   3.196  0.0983 -0.1764 -0.1354
 3667ntf    fn422064   6.206   4.924   3.367  0.2515 -0.2884 -0.3132
 3667ntf    fn422065   6.357   5.064   3.385 -0.1393  0.1998  0.5689
 3668ntf    cn122066   5.739   0.045   4.046 -0.3595  0.0546  0.1663
 3668ntf    sn222067   5.817   0.114   4.195  0.1155 -0.1745  0.0285
 3668ntf    nn322068   5.821   0.267   4.160 -0.5165 -0.1612 -0.0058
 3668ntf    sn222069   5.819   0.394   4.252 -0.0151 -0.1348 -0.0293
 3668ntf    cn122070   5.640   0.425   4.259 -0.0020 -0.0979  0.1617
 3668ntf    fn422071   5.761   0.114   3.935 -0.6283  0.2191  0.2176
 3668ntf    fn422072   5.784  -0.079   4.028 -0.0700  0.1080  0.5168
 3668ntf    fn422073   5.609   0.023   4.050 -0.2585 -0.4944  0.6203
 3668ntf    on522074   5.719   0.081   4.296 -0.0315  0.5140  0.1137
 3668ntf    on522075   5.945   0.049   4.208 -0.0150 -0.5444 -0.5226
 3668ntf    on522076   5.872   0.513   4.191  0.3290 -0.1657  0.2063
 3668ntf    on522077   5.860   0.379   4.390  0.1443 -0.0465 -0.0665
 3668ntf    fn422078   5.589   0.435   4.138  0.4046  0.2067  0.0129
 3668ntf    fn422079   5.572   0.330   4.320  0.3083 -0.0405  0.6026
 3668ntf    fn422080   5.608   0.539   4.318 -0.0820  0.1366 -0.3311
 3669ntf    cn122081   2.137   6.957   5.230  0.0731 -0.2927  0.2188
 3669ntf    sn222082   2.313   6.910   5.242  0.0897 -0.2861 -0.0165
 3669ntf    nn322083   2.303   6.805   5.359  0.5731 -0.0616  0.2271
 3669ntf    sn222084   2.309   6.649   5.367 -0.0122 -0.1044 -0.1320
 3669ntf    cn122085   2.135   6.604   5.396 -0.0086  0.0765  0.1690
 3669ntf    fn422086   2.060   6.850   5.221  0.1544 -0.2971 -0.4772
 3669ntf    fn422087   2.098   7.028   5.335  0.4237  0.3475 -0.0771
 3669ntf    fn422088   2.108   7.030   5.124  0.1304 -0.1024  0.3322
 3669ntf    on522089   2.347   6.868   5.108  0.0886  0.5214 -0.2727
 3669ntf    on522090   2.362   7.039   5.283 -0.1327 -0.2213  0.0501
 3669ntf    on522091   2.368   6.612   5.493  0.0738 -0.0784 -0.1649
 3669ntf    on522092   2.348   6.575   5.249  0.5560  0.3850 -0.2548
 3669ntf    fn422093   2.055   6.684   5.328  0.0734 -0.1178 -0.1606
 3669ntf    fn422094   2.100   6.485   5.352 -0.1392  0.1502  0.0731
 3669ntf    fn422095   2.102   6.607   5.524  0.4066 -0.0416  0.2799
 3670ntf    cn122096   2.821   4.516   4.122 -0.0834  0.4722  0.0760
 3670ntf    sn222097   2.752   4.454   4.278 -0.0913  0.2767 -0.0048
 3670ntf    nn322098   2.882   4.445   4.366 -0.0161 -0.0794 -0.1484
 3670ntf    sn222099   2.974   4.321   4.393  0.1008  0.0265 -0.0605
 3670ntf    cn122100   2.900   4.265   4.549 -0.1310  0.3370 -0.0561
 3670ntf    fn422101   2.848   4.644   4.142  0.6195  0.2816  0.3763
 3670ntf    fn422102   2.933   4.460   4.079 -0.1529  0.0949  0.3845
 3670ntf    fn422103   2.735   4.512   4.022 -0.1466  0.6859  0.1223
 3670ntf    on522104   2.667   4.558   4.331 -0.7075  0.1149 -0.6549
 3670ntf    on522105   2.690   4.329   4.241 -0.1539  0.1434  0.5374
 3670ntf    on522106   3.111   4.344   4.430  0.0929  0.4964 -0.3059
 3670ntf    on522107   2.955   4.211   4.302 -0.7835  0.4566 -0.4120
 3670ntf    fn422108   2.966   4.166   4.608 -0.7865 -0.0624  0.0197
 3670ntf    fn422109   2.897   4.373   4.624 -0.3603  0.2798  0.0183
 3670ntf    fn422110   2.777   4.219   4.531  0.0913 -0.3454  0.1369
 3671ntf    cn122111   6.642   6.105   2.697  0.0165  0.1914  0.0692
 3671ntf    sn222112   6.667   6.212   2.842 -0.1069  0.2144  0.0733
 3671ntf    nn322113   6.772   6.124   2.919 -0.2131  0.7321  0.8146
 3671ntf    sn222114   6.743   6.035   3.045 -0.4327 -0.2193  0.0969
 3671ntf    cn122115   6.723   6.157   3.178 -0.0697 -0.2420  0.1720
 3671ntf    fn422116   6.558   6.155   2.608  0.6527 -0.0537 -0.6768
 3671ntf    fn422117   6.748   6.050   2.640 -0.0071  0.2931 -0.0736
 3671ntf    fn422118   6.572   6.002   2.741 -0.2318 -0.0231 -0.8045
 3671ntf    on522119   6.723   6.331   2.781 -0.2852 -0.0123 -0.5362
 3671ntf    on522120   6.540   6.241   2.904 -0.0205  0.3252  0.1993
 3671ntf    on522121   6.862   5.962   3.080 -0.4378 -0.1823  0.1919
 3671ntf    on522122   6.617   5.965   3.030 -0.2724 -0.4456 -0.2069
 3671ntf    fn422123   6.624   6.241   3.150 -0.3026 -0.4546  0.3585
 3671ntf    fn422124   6.685   6.105   3.293  0.1199 -0.6782  0.0407
 3671ntf    fn422125   6.830   6.234   3.195 -0.1559 -0.1445  0.2739
 3672ntf    cn122126   6.742   4.407   3.833  0.0176 -0.1933  0.0969
 3672ntf    sn222127   6.598   4.387   3.944 -0.0334 -0.6496 -0.0485
 3672ntf    nn322128   6.554   4.240   3.913 -0.3967 -0.4228 -0.6180
 3672ntf    sn222129   6.597   4.107   3.984  0.0190  0.0518  0.0271
 3672ntf    cn122130   6.493   4.104   4.133 -0.0358  0.2917 -0.0061
 3672ntf    fn422131   6.718   4.418   3.704  0.0488 -0.3042  0.0814
 3672ntf    fn422132   6.792   4.525   3.864  0.7667 -0.2320 -0.9103
 3672ntf    fn422133   6.840   4.320   3.853 -0.1469 -0.3901  0.0487
 3672ntf    on522134   6.669   4.403   4.068  0.3962 -0.0480 -0.3644
 3672ntf    on522135   6.511   4.497   3.912  0.6731 -0.2023 -0.4618
 3672ntf    on522136   6.730   4.108   4.040 -0.0145 -0.4781  0.1286
 3672ntf    on522137   6.563   3.989   3.908  0.3070  0.1737 -0.2959
 3672ntf    fn422138   6.465   3.982   4.175 -0.1284  0.2802 -0.0977
 3672ntf    fn422139   6.543   4.161   4.241 -0.1761  0.5005 -0.0510
 3672ntf    fn422140   6.376   4.164   4.120 -0.0619  0.1791 -0.2957
 3673ntf    cn122141   1.907   0.428   0.474 -0.0348 -0.1393 -0.2550
 3673ntf    sn222142   1.995   0.398   0.631  0.2009  0.2534 -0.3109
 3673ntf    nn322143   2.136   0.435   0.572  0.1075  0.1713 -0.5904
 3673ntf    sn222144   2.248   0.523   0.638 -0.2047  0.0614  0.0999
 3673ntf    cn122145   2.237   0.679   0.546  0.1613  0.1798  0.2558
 3673ntf    fn422146   1.904   0.558   0.451 -0.6229 -0.1724 -0.3675
 3673ntf    fn422147   1.966   0.364   0.374  0.1782 -0.2256 -0.0749
 3673ntf    fn422148   1.785   0.377   0.480  0.0212 -0.2723 -0.2355
 3673ntf    on522149   1.937   0.496   0.720 -0.2550  0.0624 -0.3930
 3673ntf    on522150   1.983   0.258   0.661 -0.4612  0.3507 -0.0891
 3673ntf    on522151   2.378   0.471   0.602 -0.3044 -0.2681  0.2081
 3673ntf    on522152   2.235   0.567   0.775  0.1372 -0.1603  0.2053
 3673ntf    fn422153   2.294   0.787   0.597 -0.0795  0.5823 -0.3200
 3673ntf    fn422154   2.284   0.665   0.424 -0.3379 -0.8217  0.1733
 3673ntf    fn422155   2.108   0.702   0.532  0.0760 -0.4719 -0.0305
 3674ntf    cn122156   3.195   1.494   1.022  0.3260  0.1222  0.0412
 3674ntf    sn222157   3.181   1.506   0.841  0.2274  0.1613  0.0507
 3674ntf    nn322158   3.331   1.531   0.802  0.3549 -0.1793  0.3060
 3674ntf    sn222159   3.394   1.462   0.675 -0.2308 -0.0258 -0.0747
 3674ntf    cn122160   3.474   1.324   0.763  0.6326  0.1620 -0.5529
 3674ntf    fn422161   3.287   1.406   1.058 -0.0141 -0.4106 -0.3755
 3674ntf    fn422162   3.214   1.611   1.080  0.0401  0.3103 -0.2368
 3674ntf    fn422163   3.085   1.442   1.075  0.2753  0.3865  0.1983
 3674ntf    on522164   3.124   1.376   0.814  0.2160  0.0509  0.5882
 3674ntf    on522165   3.099   1.623   0.832 -0.2092 -0.1163  0.3802
 3674ntf    on522166   3.502   1.546   0.628  0.4707 -0.8923 -0.0334
 3674ntf    on522167   3.306   1.411   0.574  0.2996 -0.7047 -0.1948
 3674ntf    fn422168   3.533   1.246   0.673  0.7280  0.2568 -0.5730
 3674ntf    fn422169   3.568   1.365   0.847  0.2225  0.2870 -0.1527
 3674ntf    fn422170   3.385   1.251   0.827  0.5081  1.0052  0.2541
 3675ntf    cn122171   1.851   2.602   2.116  0.0606  0.1723  0.1394
 3675ntf    sn222172   1.676   2.583   2.070  0.0779  0.2047  0.0592
 3675ntf    nn322173   1.639   2.472   2.175 -0.2025  0.1665 -0.0778
 3675ntf    sn222174   1.651   2.316   2.163 -0.4670  0.1404  0.0057
 3675ntf    cn122175   1.728   2.284   2.325  0.2342  0.0286 -0.3481
 3675ntf    fn422176   1.915   2.704   2.062  0.3683  0.1741  0.5033
 3675ntf    fn422177   1.863   2.615   2.247  0.3659  0.2484  0.1058
 3675ntf    fn422178   1.925   2.498   2.083  0.0640  0.1564  0.1967
 3675ntf    on522179   1.610   2.709   2.095  0.5574  0.4605  0.0560
 3675ntf    on522180   1.687   2.534   1.935  0.2673  0.5352 -0.0485
 3675ntf    on522181   1.745   2.267   2.066 -0.4303  0.8463 -0.3188
 3675ntf    on522182   1.522   2.253   2.177 -0.3097 -0.2750 -0.4320
 3675ntf    fn422183   1.650   2.315   2.427  0.3680 -0.3869 -0.1151
 3675ntf    fn422184   1.755   2.155   2.343  0.1316  0.0446 -0.0721
 3675ntf    fn422185   1.843   2.346   2.345  0.2000 -0.1227  0.3253
 3676ntf    cn122186   5.242   6.401   6.167 -0.1193  0.2626 -0.1638
 3676ntf    sn222187   5.264   6.501   6.317  0.0268 -0.2567  0.1648
 3676ntf    nn322188   5.299   6.639   6.251 -0.5157 -0.0441  0.3100
 3676ntf    sn222189   5.389   6.756   6.306 -0.3391 -0.1028  0.1506
 3676ntf    cn122190   5.267   6.890   6.293  0.0768  0.2788  0.1835
 3676ntf    fn422191   5.139   6.430   6.090 -0.0357 -0.2327 -0.4697
 3676ntf    fn422192   5.347   6.417   6.088  0.0279  0.0303 -0.0179
 3676ntf    fn422193   5.235   6.271   6.192 -0.5065  0.3416  0.1450
 3676ntf    on522194   5.128   6.494   6.364  0.2063  0.1456  0.7452
 3676ntf    on522195   5.357   6.421   6.392  0.1576 -0.4452 -0.1981
 3676ntf    on522196   5.490   6.804   6.215 -0.2725 -0.0754  0.2396
 3676ntf    on522197   5.420   6.746   6.446  0.3259 -0.8189 -0.0389
 3676ntf    fn422198   5.219   6.907   6.171 -0.2193  0.0495  0.2667
 3676ntf    fn422199   5.161   6.872   6.370  0.2672  0.5080  0.5006
 3676ntf    fn422200   5.325   7.003   6.331  0.4311 -0.1140  0.8452
 3677ntf    cn122201   3.527   5.486   1.704 -0.1577 -0.1434  0.0460
 3677ntf    sn222202   3.471   5.532   1.871  0.2734  0.3220  0.0642
 3677ntf    nn322203   3.587   5.623   1.925  0.3601 -0.2380  0.8254
 3677ntf    sn222204   3.573   5.778   1.944  0.2854 -0.1806  0.3134
 3677ntf    cn122205   3.497   5.769   2.109 -0.1877 -0.3156  0.0895
 3677ntf    fn422206   3.659   5.479   1.701 -0.1256  0.4290  0.0139
 3677ntf    fn422207   3.481   5.369   1.665  0.1709 -0.1321 -0.3872
 3677ntf    fn422208   3.491   5.577   1.614  0.0305 -0.1476 -0.0341
 3677ntf    on522209   3.342   5.592   1.850  0.0501  0.0038  0.5151
 3677ntf    on522210   3.469   5.408   1.944  0.1868  0.2524 -0.0564
 3677ntf    on522211   3.471   5.845   1.867  0.2090 -0.4688  0.1645
 3677ntf    on522212   3.703   5.839   1.961 -0.0482  0.6503 -0.0618
 3677ntf    fn422213   3.538   5.667   2.183 -0.0031  0.0391  0.4798
 3677ntf    fn422214   3.501   5.876   2.186  0.2909 -0.0640 -0.2818
 3677ntf    fn422215   3.368   5.745   2.089 -0.1330 -0.3233 -0.2543
 3678ntf    cn122216   5.237   6.236   5.277  0.3320 -0.2305  0.0613
 3678ntf    sn222217   5.337   6.349   5.378  0.0262  0.2013 -0.1141
 3678ntf    nn322218   5.294   6.302   5.522  0.1187  0.1636 -0.0996
 3678ntf    sn222219   5.360   6.197   5.619 -0.2668  0.0409  0.0309
 3678ntf    cn122220   5.215   6.108   5.682  0.0620 -0.1569  0.5129
 3678ntf    fn422221   5.109   6.268   5.275  0.3443 -0.1848 -0.0247
 3678ntf    fn422222   5.282   6.225   5.153 -0.0303  0.4875 -0.1376
 3678ntf    fn422223   5.240   6.113   5.326 -0.1489 -0.2017  0.1648
 3678ntf    on522224   5.472   6.308   5.347 -0.1255 -0.5540  0.1945
 3678ntf    on522225   5.292   6.480   5.338  0.4225  0.4449  0.2334
 3678ntf    on522226   5.420   6.254   5.737  0.2903  0.5153 -0.4728
 3678ntf    on522227   5.427   6.088   5.552 -0.1919  0.1527 -0.0763
 3678ntf    fn422228   5.118   6.084   5.595  0.2379  0.4000  0.1597
 3678ntf    fn422229   5.243   5.987   5.727  0.1778 -0.4600 -0.3646
 3678ntf    fn422230   5.160   6.178   5.781 -0.4156 -0.0748  0.1936
 3679ntf    cn122231   1.691   6.577   4.056 -0.2106  0.3573 -0.2324
 3679ntf    sn222232   1.553   6.566   3.938 -0.1877  0.0853 -0.2361
 3679ntf    nn322233   1.576   6.421   3.885 -0.6685 -0.1072  0.0835
 3679ntf    sn222234   1.586   6.366   3.738  0.3724 -0.4150  0.2639
 3679ntf    cn122235   1.765   6.334   3.738  0.4396 -0.0422  0.5506
 3679ntf    fn422236   1.683   6.476   4.141  0.0612  0.1676 -0.4318
 3679ntf    fn422237   1.814   6.577   4.007 -0.0582  0.4441  0.1412
 3679ntf    fn422238   1.685   6.690   4.124  0.3497  0.2137  0.0604
 3679ntf    on522239   1.432   6.572   4.016 -0.0907  0.6370 -0.1236
 3679ntf    on522240   1.578   6.675   3.846 -0.0821  0.3979  0.1595
 3679ntf    on522241   1.577   6.466   3.634  0.4688 -0.2156  0.4475
 3679ntf    on522242   1.524   6.238   3.715 -0.2079 -0.1707  0.4498
 3679ntf    fn422243   1.803   6.257   3.838 -0.0211 -0.5907  0.3049
 3679ntf    fn422244   1.801   6.267   3.630  0.4616  0.6620  0.1140
 3679ntf    fn422245   1.839   6.444   3.740  0.0697  0.2273 -0.2499
 3680ntf    cn122246   5.389   2.594   3.355 -0.0106 -0.2757  0.3213
 3680ntf    sn222247   5.381   2.486   3.209 -0.1068 -0.1648  0.2445
 3680ntf    nn322248   5.252   2.400   3.235 -0.6552  0.6124  0.1376
 3680ntf    sn222249   5.257   2.264   3.313  0.1028  0.4621 -0.1586
 3680ntf    cn122250   5.140   2.293   3.449  0.3329  0.1245  0.1117
 3680ntf    fn422251   5.496   2.671   3.339 -0.3216  0.0400 -0.2858
 3680ntf    fn422252   5.286   2.677   3.363 -0.1954 -0.5199  0.4676
 3680ntf    fn422253   5.401   2.526   3.467 -0.2610 -0.2665  0.3546
 3680ntf    on522254   5.366   2.581   3.101  0.0792 -0.2865  0.1102
 3680ntf    on522255   5.510   2.423   3.213  0.2448  0.5050 -0.3187
 3680ntf    on522256   5.378   2.233   3.385  0.2402 -0.1006 -0.6285
 3680ntf    on522257   5.188   2.166   3.233  0.5784  0.0562 -0.0718
 3680ntf    fn422258   5.145   2.202   3.546 -0.0752  0.0700  0.0842
 3680ntf    fn422259   5.159   2.411   3.506 -0.4989  0.2068  0.2404
 3680ntf    fn422260   5.015   2.300   3.405  0.2019 -0.4895  0.3770
 3681ntf    cn122261   4.128   3.689   2.472 -0.4014 -0.0186 -0.4806
 3681ntf    sn222262   4.156   3.720   2.649 -0.1053 -0.1457 -0.5044
 3681ntf    nn322263   4.022   3.794   2.685  0.0556 -0.2566  0.3541
 3681ntf    sn222264   4.001   3.945   2.721  0.0224 -0.1871  0.0519
 3681ntf    cn122265   4.021   4.023   2.558  0.0342 -0.1396  0.0757
 3681ntf    fn422266   4.195   3.582   2.431  0.3505  0.3033 -0.1177
 3681ntf    fn422267   4.003   3.662   2.439 -0.3158  0.0888 -0.8911
 3681ntf    fn422268   4.168   3.784   2.390  0.0841 -0.1878 -0.4449
 3681ntf    on522269   4.162   3.585   2.701  0.3450  0.0808  0.0421
 3681ntf    on522270   4.279   3.795   2.658 -0.0207 -0.3740  0.2928
 3681ntf    on522271   4.100   4.001   2.810 -0.4262  0.1388  0.3463
 3681ntf    on522272   3.865   3.982   2.751  0.1048  0.0456  0.1421
 3681ntf    fn422273   4.000   4.152   2.577  0.1483 -0.1663  0.3939
 3681ntf    fn422274   4.134   4.009   2.491 -0.1652 -0.4189 -0.2062
 3681ntf    fn422275   3.923   3.978   2.481 -0.1167 -0.0067  0.1885
 3682ntf    cn122276   4.566   4.269   0.579  0.0782  0.1606  0.3641
 3682ntf    sn222277   4.640   4.435   0.568  0.1817  0.0993  0.1228
 3682ntf    nn322278   4.579   4.493   0.435  0.0878  0.0650  0.1505
 3682ntf    sn222279   4.647   4.505   0.294 -0.0405  0.0839  0.0903
 3682ntf    cn122280   4.745   4.655   0.325  0.3310 -0.1637  0.1242
 3682ntf    fn422281   4.627   4.194   0.669  0.1725  0.0423  0.2024
 3682ntf    fn422282   4.439   4.273   0.614 -0.0205  0.2257  0.0012
 3682ntf    fn422283   4.577   4.201   0.466 -0.3562  0.5138  0.1056
 3682ntf    on522284   4.586   4.502   0.683 -0.1464  0.3785 -0.1887
 3682ntf    on522285   4.781   4.407   0.560  0.1053 -0.1100 -0.6143
 3682ntf    on522286   4.561   4.547   0.186 -0.0846  0.0697  0.1205
 3682ntf    on522287   4.747   4.405   0.263  0.2464  0.3627  0.1052
 3682ntf    fn422288   4.845   4.624   0.407  0.7269  0.1220 -0.2466
 3682ntf    fn422289   4.797   4.706   0.214 -0.0011 -0.0347  0.0268
 3682ntf    fn422290   4.666   4.742   0.385 -0.0001  0.0943 -0.6756
 3683ntf    cn122291   5.589   6.820   3.907  0.4538 -0.4544 -0.3382
 3683ntf    sn222292   5.463   6.705   3.845 -0.1635  0.0229  0.0094
 3683ntf    nn322293   5.329   6.781   3.873 -0.2173 -0.1163  0.1366
 3683ntf    sn222294   5.232   6.867   3.784  0.0365  0.2882  0.2444
 3683ntf    cn122295   5.098   6.752   3.738  0.4004 -0.1042  0.1600
 3683ntf    fn422296   5.562   6.939   3.855  0.3001 -0.2372  0.2277
 3683ntf    fn422297   5.593   6.841   4.038 -0.0162 -0.2582 -0.3547
 3683ntf    fn422298   5.714   6.797   3.870  0.7114  0.5530 -0.1369
 3683ntf    on522299   5.489   6.684   3.704  0.1595 -0.7930  0.1803
 3683ntf    on522300   5.486   6.593   3.934  0.0311 -0.0319 -0.1096
 3683ntf    on522301   5.280   6.910   3.656  0.2637  0.0262  0.2404
 3683ntf    on522302   5.155   6.964   3.858 -0.1239  0.7251 -0.4900
 3683ntf    fn422303   5.051   6.680   3.839  0.1144  0.2992  0.3136
 3683ntf    fn422304   4.995   6.807   3.676  0.4850 -0.6398 -0.4608
 3683ntf    fn422305   5.147   6.664   3.652 -0.0073  0.0276 -0.2045
 3684ntf    cn122306   6.146   0.524   6.552 -0.1320 -0.4351 -0.1751
 3684ntf    sn222307   6.058   0.594   6.695  0.0678 -0.4883 -0.0258
 3684ntf    nn322308   6.172   0.602   6.802 -0.3077 -0.4151  0.3713
 3684ntf    sn222309   6.277   0.719   6.810 -0.3191 -0.3868  0.0966
 3684ntf    cn122310   6.193   0.833   6.924 -0.0661 -0.0299 -0.0733
 3684ntf    fn422311   6.066   0.517   6.447  0.1784  0.2791 -0.4618
 3684ntf    fn422312   6.256   0.590   6.521 -0.0194 -0.0123  1.0758
 3684ntf    fn422313   6.187   0.400   6.577 -0.5659 -0.5897 -0.2219
 3684ntf    on522314   5.998   0.715   6.645  0.2132 -0.3320  0.1754
 3684ntf    on522315   5.960   0.490   6.718 -0.2968 -0.2710 -0.5794
 3684ntf    on522316   6.297   0.801   6.693 -0.5910  0.0457  0.3481
 3684ntf    on522317   6.401   0.679   6.872  0.1038  0.1131 -0.4235
 3684ntf    fn422318   6.187   0.786   7.047 -0.3642  0.3321  0.0527
 3684ntf    fn422319   6.249   0.953   6.927  0.0863 -0.1078  0.1748
 3684ntf    fn422320   6.067   0.861   6.892 -0.0256 -0.4012 -0.5702
 3685ntf    cn122321   5.605   3.425   6.184  0.3895 -0.0637 -0.0590
 3685ntf    sn222322   5.557   3.370   6.018  0.2668  0.1417 -0.0929
 3685ntf    nn322323   5.409   3.328   6.046  0.1110  0.4610 -0.4254
 3685ntf    sn222324   5.275   3.342   5.966 -0.1395 -0.3941 -0.1671
 3685ntf    cn122325   5.198   3.480   6.056 -0.2557 -0.4162 -0.2308
 3685ntf    fn422326   5.610   3.320   6.265  0.0584  0.1083  0.1897
 3685ntf    fn422327   5.719   3.491   6.188  0.5034 -0.2606 -0.0866
 3685ntf    fn422328   5.517   3.506   6.242  0.2639 -0.5042  0.3735
 3685ntf    on522329   5.564   3.492   5.942  0.7723  0.2251  0.0800
 3685ntf    on522330   5.648   3.261   5.992  0.6147  0.3899  0.0809
 3685ntf    on522331   5.182   3.234   5.985  0.1003 -0.4822  0.5434
 3685ntf    on522332   5.294   3.381   5.828  0.6219  0.0040  0.0465
 3685ntf    fn422333   5.268   3.592   6.041 -0.4954 -0.1532  0.5709
 3685ntf    fn422334   5.079   3.510   6.007 -0.5053 -0.4533  0.3468
 3685ntf    fn422335   5.183   3.463   6.186  0.5226  0.1336 -0.0547
 3686ntf    cn122336   3.955   6.190   1.213  0.0457 -0.1225  0.2696
 3686ntf    sn222337   3.839   6.065   1.150  0.0071  0.0252  0.0470
 3686ntf    nn322338   3.885   5.948   1.243 -0.5521 -0.2515 -0.0202
 3686ntf    sn222339   3.985   5.829   1.221 -0.0995  0.1209  0.0273
 3686ntf    cn122340   3.873   5.691   1.183 -0.0953  0.0444  0.2937
 3686ntf    fn422341   3.952   6.291   1.127  0.1041 -0.3896 -0.0501
 3686ntf    fn422342   3.928   6.232   1.335 -0.5647 -0.0312  0.1068
 3686ntf    fn422343   4.081   6.149   1.215  0.0833 -0.0576 -0.4224
 3686ntf    on522344   3.705   6.109   1.181 -0.3492 -0.4598 -0.7896
 3686ntf    on522345   3.869   6.054   1.010 -0.1568 -0.0482  0.0168
 3686ntf    on522346   4.042   5.787   1.346 -0.2608  0.3818  0.1885
 3686ntf    on522347   4.075   5.834   1.108 -0.1934  0.5244 -0.0312
 3686ntf    fn422348   3.816   5.702   1.064  0.4612 -0.2300 -0.0030
 3686ntf    fn422349   3.947   5.582   1.186  0.1746  0.2160 -0.0526
 3686ntf    fn422350   3.773   5.669   1.267 -0.4169  0.5679  0.0549
 3687ntf    cn122351   1.731   6.083   6.305  0.2286 -0.5002 -0.0938
 3687ntf    sn222352   1.904   6.060   6.251  0.3308 -0.4525  0.2130
 3687ntf    nn322353   1.878   5.923   6.179 -0.4401 -0.4051  0.3864
 3687ntf    sn222354   1.974   5.799   6.169  0.2158  0.1202  0.0804
 3687ntf    cn122355   1.863   5.678   6.091 -0.0639  0.3044  0.1897
 3687ntf    fn422356   1.700   6.209   6.329  0.5917 -0.3924 -0.1886
 3687ntf    fn422357   1.644   6.044   6.213  0.0159 -0.0871 -0.0689
 3687ntf    fn422358   1.705   6.025   6.421  0.1243 -0.2506  0.0087
 3687ntf    on522359   1.931   6.175   6.168 -0.0614 -0.0353  0.6500
 3687ntf    on522360   1.977   6.047   6.375 -0.1702  0.0361  0.5682
 3687ntf    on522361   2.017   5.731   6.289  0.2743 -0.4760 -0.2728
 3687ntf    on522362   2.072   5.825   6.066  0.2216 -0.0791  0.0343
 3687ntf    fn422363   1.849   5.708   5.962  1.0068 -0.3168 -0.0824
 3687ntf    fn422364   1.910   5.554   6.093 -0.5653  0.1009 -0.2835
 3687ntf    fn422365   1.741   5.671   6.142  0.1109 -0.1305  0.5484
 3688ntf    cn122366   0.089   2.460   6.171 -0.0959 -0.1809  0.4411
 3688ntf    sn222367   0.154   2.563   6.036 -0.4557 -0.1788  0.2673
 3688ntf    nn322368   0.110   2.707   6.079  0.2197  0.0800  0.0976
 3688ntf    sn222369  -0.026   2.776   6.044  0.2089  0.0557  0.0920
 3688ntf    cn122370   0.021   2.826   5.876  0.3335 -0.4625 -0.0296
 3688ntf    fn422371   0.136   2.337   6.177 -0.1424 -0.2131  0.1924
 3688ntf    fn422372   0.105   2.524   6.286 -0.3245 -0.0742  0.4155
 3688ntf    fn422373  -0.043   2.453   6.166 -0.0875 -0.1314  0.1194
 3688ntf    on522374   0.296   2.543   6.047 -0.4777 -0.4231  0.1241
 3688ntf    on522375   0.095   2.507   5.917 -0.4226  0.3775 -0.0139
 3688ntf    on522376  -0.051   2.896   6.120 -0.8553 -0.0765 -0.0337
 3688ntf    on522377  -0.142   2.691   6.031  0.3464 -0.1439  0.1599
 3688ntf    fn422378  -0.039   2.943   5.855  0.4533 -0.3996 -0.0222
 3688ntf    fn422379   0.151   2.844   5.857  0.4460 -0.6697  0.5396
 3688ntf    fn422380  -0.016   2.739   5.783  0.3615 -0.1259 -0.3593
 3689ntf    cn122381   1.067   3.838   6.939 -0.2138 -0.0159  0.4599
 3689ntf    sn222382   1.144   4.002   6.952  0.2362 -0.2042  0.1740
 3689ntf    nn322383   1.040   4.090   6.873 -0.3129 -0.1768  0.9130
 3689ntf    sn222384   0.998   4.241   6.885 -0.2614 -0.0879  0.0683
 3689ntf    cn122385   1.071   4.305   6.732 -0.1574 -0.0682  0.1264
 3689ntf    fn422386   1.026   3.809   6.817 -0.0927  0.6913  0.2468
 3689ntf    fn422387   1.152   3.741   6.968  0.4378  0.4020 -0.0265
 3689ntf    fn422388   0.956   3.833   7.011 -0.0065 -0.0969  0.7777
 3689ntf    on522389   1.146   4.026   7.094  0.0086  1.0422 -0.0204
 3689ntf    on522390   1.264   3.969   6.879  0.0677  0.8177 -0.5893
 3689ntf    on522391   1.056   4.320   6.991 -0.6641  0.3868 -0.0656
 3689ntf    on522392   0.856   4.250   6.862 -0.2427 -0.1596 -0.0763
 3689ntf    fn422393   1.196   4.268   6.707 -0.1515  0.2437 -0.3217
 3689ntf    fn422394   1.012   4.266   6.620 -0.1022  0.1820  0.0110
 3689ntf    fn422395   1.069   4.437   6.724  0.0609 -0.0847 -0.2545
 3690ntf    cn122396   3.718   5.076   1.756  0.0059  0.0267 -0.3257
 3690ntf    sn222397   3.854   4.960   1.788 -0.0966 -0.0444 -0.1495
 3690ntf    nn322398   3.818   4.928   1.937  0.3554  0.0263 -0.0241
 3690ntf    sn222399   3.753   4.798   1.997  0.2025  0.1925  0.1719
 3690ntf    cn122400   3.899   4.713   2.064  0.2477 -0.2156 -0.4300
 3690ntf    fn422401   3.707   5.105   1.627 -0.5254 -0.1737 -0.3271
 3690ntf    fn422402   3.603   5.017   1.784 -0.0422  0.3074  0.0723
 3690ntf    fn422403   3.728   5.187   1.826  0.1263 -0.1200 -0.1113
 3690ntf    on522404   3.827   4.859   1.688 -0.0335 -0.5525  0.3398
 3690ntf    on522405   3.978   5.033   1.774 -0.0548 -0.2071 -0.6450
 3690ntf    on522406   3.694   4.703   1.905 -0.4418  0.6083  0.1501
 3690ntf    on522407   3.667   4.821   2.110 -0.3737  1.1190 -0.4409
 3690ntf    fn422408   4.007   4.743   1.995  0.1975  0.0766 -0.3808
 3690ntf    fn422409   3.932   4.745   2.188  0.4636 -0.3549 -0.4509
 3690ntf    fn422410   3.883   4.581   2.067  0.4592 -0.2306  0.6591
 3691ntf    cn122411   1.623   4.917   1.944  0.1774 -0.1336  0.0985
 3691ntf    sn222412   1.740   4.984   1.822  0.0043  0.2411  0.1378
 3691ntf    nn322413   1.870   4.915   1.876 -0.0150  0.0083 -0.1119
 3691ntf    sn222414   1.927   4.778   1.825  0.2342 -0.0377  0.2820
 3691ntf    cn122415   2.061   4.834   1.716 -0.3366  0.4143 -0.1937
 3691ntf    fn422416   1.601   4.788   1.921  0.0552 -0.2079  0.6257
 3691ntf    fn422417   1.673   4.927   2.066 -0.1780 -0.5143  0.2822
 3691ntf    fn422418   1.508   4.983   1.943  0.1758 -0.1361  0.1201
 3691ntf    on522419   1.689   4.939   1.695  0.4961 -0.6882  0.2584
 3691ntf    on522420   1.735   5.124   1.855 -0.2936  0.1925  0.3080
 3691ntf    on522421   1.847   4.700   1.733  0.6815 -0.0376 -0.1107
 3691ntf    on522422   1.994   4.708   1.931  0.7138 -0.6145 -0.3926
 3691ntf    fn422423   2.174   4.856   1.780 -0.3332  0.5726 -0.2535
 3691ntf    fn422424   2.086   4.736   1.631  0.0297  0.2283  0.1266
 3691ntf    fn422425   2.032   4.947   1.652  0.1320  0.6992  0.0955
 3692ntf    cn122426   5.841   1.892   4.446  0.0289  0.0141  0.1940
 3692ntf    sn222427   5.768   2.056   4.474 -0.1165  0.0131 -0.1741
 3692ntf    nn322428   5.796   2.077   4.627  0.5430  0.5022 -0.3599
 3692ntf    sn222429   5.773   2.213   4.703 -0.5891  0.0855  0.0612
 3692ntf    cn122430   5.945   2.268   4.725 -0.4573 -0.1653 -0.3210
 3692ntf    fn422431   5.968   1.891   4.485 -0.0028 -0.6159  0.2951
 3692ntf    fn422432   5.793   1.798   4.525  0.0558 -0.1113  0.0611
 3692ntf    fn422433   5.830   1.846   4.323 -0.1960 -0.3117  0.3365
 3692ntf    on522434   5.848   2.138   4.387  0.2634  0.2714  0.4107
 3692ntf    on522435   5.629   2.028   4.444  0.0799 -0.6991 -0.4483
 3692ntf    on522436   5.735   2.199   4.841  0.3987  0.6677  0.3970
 3692ntf    on522437   5.713   2.320   4.628 -0.9657 -0.1629  0.0025
 3692ntf    fn422438   6.006   2.186   4.809 -0.3735  0.4972  0.2711
 3692ntf    fn422439   6.017   2.266   4.614 -0.2724  0.3159 -0.2143
 3692ntf    fn422440   5.949   2.387   4.783 -0.8623 -0.1960 -0.2244
 3693ntf    cn122441   2.168   1.371   3.818 -0.4020 -0.5592  0.1661
 3693ntf    sn222442   2.206   1.281   3.664 -0.2878 -0.0663 -0.0960
 3693ntf    nn322443   2.284   1.160   3.727  0.0788  0.0599 -0.2996
 3693ntf    sn222444   2.249   1.007   3.728  0.1634  0.0411 -0.1528
 3693ntf    cn122445   2.328   0.951   3.573 -0.0630 -0.0984 -0.2178
 3693ntf    fn422446   2.272   1.445   3.854  0.0505 -0.9188 -0.3671
 3693ntf    fn422447   2.071   1.457   3.795  0.1254 -0.0543 -0.2290
 3693ntf    fn422448   2.138   1.296   3.922  0.3373 -0.2734  0.5936
 3693ntf    on522449   2.078   1.257   3.604 -0.1446  0.4329 -0.6138
 3693ntf    on522450   2.298   1.370   3.596  0.2243 -0.3973  0.1550
 3693ntf    on522451   2.110   0.974   3.713  0.0863  0.1115  0.4019
 3693ntf    on522452   2.329   0.935   3.825  0.4428  0.1586 -0.2938
 3693ntf    fn422453   2.265   0.998   3.467 -0.0196  0.2132 -0.1072
 3693ntf    fn422454   2.455   0.987   3.563 -0.0030 -0.1954  0.1741
 3693ntf    fn422455   2.322   0.819   3.565  0.7434 -0.2012  0.7011
 3694ntf    cn122456   0.031   0.461   2.071 -0.2577  0.0683 -0.3044
 3694ntf    sn222457   0.183   0.397   2.149 -0.3171  0.1104 -0.1549
 3694ntf    nn322458   0.288   0.478   2.066 -0.2804 -0.5132 -0.7196
 3694ntf    sn222459   0.437   0.434   2.041  0.0071  0.0621 -0.0448
 3694ntf    cn122460   0.414   0.371   1.872 -0.2202  0.0106  0.0053
 3694ntf    fn422461  -0.083   0.416   2.122 -0.0029 -0.2481 -0.0035
 3694ntf    fn422462   0.029   0.592   2.088 -0.2958  0.0765 -0.3725
 3694ntf    fn422463   0.031   0.426   1.943 -0.1646 -0.0877 -0.2622
 3694ntf    on522464   0.171   0.436   2.288 -0.0298 -0.1298 -0.0633
 3694ntf    on522465   0.177   0.257   2.118 -0.2832  0.0210  0.2355
 3694ntf    on522466   0.484   0.322   2.119  1.0474  0.5205  0.0002
 3694ntf    on522467   0.522   0.550   2.035 -0.6092  0.5209 -0.0360
 3694ntf    fn422468   0.411   0.239   1.878 -0.4067  0.0233  0.2106
 3694ntf    fn422469   0.302   0.420   1.821 -0.2595 -0.3091 -0.2161
 3694ntf    fn422470   0.513   0.407   1.792 -0.0246 -0.4257  0.0485
 3695ntf    cn122471   1.636   6.992   1.763 -0.2140  0.2003 -0.1599
 3695ntf    sn222472   1.722   7.140   1.825 -0.1193  0.0687  0.0246
 3695ntf    nn322473   1.872   7.098   1.809  0.1117  0.4559  1.1042
 3695ntf    sn222474   1.989   7.180   1.742  0.0360 -0.2555  0.0859
 3695ntf    cn122475   2.021   7.048   1.621 -0.0962 -0.0675 -0.1558
 3695ntf    fn422476   1.504   6.987   1.762 -0.1810 -1.0088 -0.2845
 3695ntf    fn422477   1.669   6.973   1.636 -0.2211 -0.0138 -0.1303
 3695ntf    fn422478   1.671   6.883   1.829  0.6665  0.5048 -0.1121
 3695ntf    on522479   1.669   7.252   1.751 -0.7935 -0.5637 -0.4621
 3695ntf    on522480   1.685   7.137   1.965  0.0848  0.2871  0.0834
 3695ntf    on522481   2.109   7.185   1.821  0.1229 -0.0272 -0.0603
 3695ntf    on522482   1.952   7.299   1.671  0.1777  0.0963  0.5975
 3695ntf    fn422483   1.932   7.057   1.524 -0.2484 -0.3636 -0.0466
 3695ntf    fn422484   2.139   7.057   1.563 -0.0029  0.0878  0.0565
 3695ntf    fn422485   2.009   6.929   1.679  0.0929  0.1685  0.3712
 3696ntf    cn122486   3.190   1.432   5.329  0.2854 -0.0240  0.1117
 3696ntf    sn222487   3.087   1.282   5.331  0.0449  0.1399  0.1469
 3696ntf    nn322488   3.111   1.229   5.477  0.1195  0.5620  0.2907
 3696ntf    sn222489   3.169   1.091   5.523 -0.2285  0.1861 -0.3762
 3696ntf    cn122490   3.014   1.001   5.551 -0.0462  0.0649  0.2496
 3696ntf    fn422491   3.311   1.395   5.368  0.2209 -0.0335  0.3007
 3696ntf    fn422492   3.196   1.487   5.208  0.0294  0.2207  0.2081
 3696ntf    fn422493   3.144   1.530   5.405 -0.1527  0.0532 -0.2458
 3696ntf    on522494   2.950   1.321   5.309  0.0810  0.2292  0.0815
 3696ntf    on522495   3.141   1.198   5.227 -0.1651  0.0013  0.1496
 3696ntf    on522496   3.227   1.100   5.654 -0.3161 -0.5819 -0.2783
 3696ntf    on522497   3.242   1.016   5.423  0.4745  0.5292 -0.1303
 3696ntf    fn422498   2.926   1.066   5.625 -0.0484  0.4240 -0.0686
 3696ntf    fn422499   2.952   0.979   5.436  0.2863 -0.0412  0.0890
 3696ntf    fn422500   3.037   0.880   5.601 -0.1333  0.1036  0.3817
 3697ntf    cn122501   5.418   5.334   2.479  0.2544 -0.2012 -0.0906
 3697ntf    sn222502   5.311   5.480   2.498  0.2424 -0.1991 -0.1729
 3697ntf    nn322503   5.415   5.598   2.498 -0.3126  0.2916 -0.1698
 3697ntf    sn222504   5.504   5.655   2.613  0.0826 -0.0976 -0.2775
 3697ntf    cn122505   5.637   5.732   2.517  0.2850 -0.0793  0.0162
 3697ntf    fn422506   5.520   5.365   2.401  0.2085 -0.0250 -0.0795
 3697ntf    fn422507   5.473   5.290   2.591  0.6266  0.0933 -0.1561
 3697ntf    fn422508   5.356   5.235   2.417 -0.1602 -0.0247  0.0406
 3697ntf    on522509   5.245   5.477   2.370 -0.1341  0.1314  0.0146
 3697ntf    on522510   5.236   5.459   2.619 -0.0279  0.2644 -0.2617
 3697ntf    on522511   5.560   5.548   2.692 -0.4291 -0.3532 -0.2585
 3697ntf    on522512   5.435   5.762   2.682  0.0670 -0.2753 -0.0152
 3697ntf    fn422513   5.681   5.643   2.429  0.0178 -0.4224  0.2278
 3697ntf    fn422514   5.597   5.834   2.443 -0.2161 -0.3628 -0.1060
 3697ntf    fn422515   5.738   5.778   2.590  0.1788 -0.2786  0.2898
 3698ntf    cn122516   1.207   6.454   6.719 -0.0138  0.0706 -0.1081
 3698ntf    sn222517   1.094   6.443   6.862 -0.2764  0.1579 -0.3085
 3698ntf    nn322518   0.972   6.360   6.807 -0.3548  0.0451  0.0327
 3698ntf    sn222519   0.838   6.414   6.745 -0.0910  0.0891 -0.5134
 3698ntf    cn122520   0.733   6.376   6.889  0.1017  0.0470 -0.3842
 3698ntf    fn422521   1.144   6.512   6.618  0.2564  0.4201 -0.0747
 3698ntf    fn422522   1.310   6.530   6.750 -0.4477  0.4219  0.4927
 3698ntf    fn422523   1.252   6.337   6.676 -0.1356  0.0237 -0.1091
 3698ntf    on522524   1.170   6.369   6.960 -0.2208  0.6171 -0.0036
 3698ntf    on522525   1.059   6.578   6.898  0.1834  0.0226  0.6721
 3698ntf    on522526   0.781   6.326   6.646  0.1059 -0.5677 -0.0548
 3698ntf    on522527   0.828   6.554   6.714  0.4111  0.3400  0.4274
 3698ntf    fn422528   0.755   6.456   6.992  0.1501  0.0444 -0.3916
 3698ntf    fn422529   0.610   6.396   6.845  0.1137  0.3255 -0.2907
 3698ntf    fn422530   0.729   6.250   6.931 -0.0476 -0.0576 -0.7130
 3699ntf    cn122531   3.365   2.518   2.944  0.2709 -0.0461 -0.0161
 3699ntf    sn222532   3.199   2.445   2.940  0.2936 -0.0944 -0.0674
 3699ntf    nn322533   3.111   2.550   2.863 -0.1845 -0.2802  0.2205
 3699ntf    sn222534   3.015   2.532   2.741  0.1695 -0.0659 -0.0939
 3699ntf    cn122535   3.124   2.558   2.598 -0.0280 -0.2738 -0.2836
 3699ntf    fn422536   3.457   2.437   2.995  0.2141 -0.3026 -0.3195
 3699ntf    fn422537   3.410   2.537   2.821  0.3740 -0.0148  0.0261
 3699ntf    fn422538   3.374   2.634   3.007  0.1795 -0.1660  0.2160
 3699ntf    on522539   3.222   2.315   2.882  0.7994 -0.3196  0.6272
 3699ntf    on522540   3.153   2.447   3.076 -0.1247 -0.5722 -0.1976
 3699ntf    on522541   2.933   2.650   2.736  0.5372  0.2240  0.6205
 3699ntf    on522542   2.955   2.402   2.720  0.6036 -0.2643 -0.1088
 3699ntf    fn422543   3.087   2.493   2.489 -0.0071  0.0390 -0.4792
 3699ntf    fn422544   3.142   2.685   2.563  0.5480 -0.3032 -0.0964
 3699ntf    fn422545   3.246   2.517   2.628  0.0647  0.2009 -0.0027
 3700ntf    cn122546   3.513   1.633   2.953  0.1092 -0.3284 -0.1429
 3700ntf    sn222547   3.332   1.634   2.969  0.1324 -0.2386  0.1240
 3700ntf    nn322548   3.329   1.752   3.073 -0.5456 -0.2489  0.1208
 3700ntf    sn222549   3.366   1.755   3.225  0.1195  0.2533 -0.0484
 3700ntf    cn122550   3.506   1.871   3.212  0.3039  0.0838  0.3858
 3700ntf    fn422551   3.558   1.548   2.862 -0.0494  0.2936 -0.8063
 3700ntf    fn422552   3.563   1.751   2.922  0.0401 -0.2720 -0.0393
 3700ntf    fn422553   3.574   1.601   3.066 -0.5764 -0.2776  0.2459
 3700ntf    on522554   3.286   1.676   2.839 -0.5897  0.1522  0.4962
 3700ntf    on522555   3.290   1.509   3.028 -0.1928 -0.2651 -0.1588
 3700ntf    on522556   3.419   1.637   3.288  0.7872  0.5167 -0.1054
 3700ntf    on522557   3.271   1.831   3.303 -0.4783 -0.2843 -0.2479
 3700ntf    fn422558   3.465   1.981   3.150  0.1253 -0.0168  0.3233
 3700ntf    fn422559   3.538   1.922   3.330  0.3831 -0.1029  0.4448
 3700ntf    fn422560   3.615   1.829   3.151  0.1498  0.5968 -0.2513
 3701ntf    cn122561   6.334   1.611   5.711  0.1820 -0.0179  0.1059
 3701ntf    sn222562   6.433   1.484   5.626 -0.1829 -0.0749 -0.2384
 3701ntf    nn322563   6.386   1.360   5.709  0.0619  0.0071  0.0237
 3701ntf    sn222564   6.392   1.205   5.685  0.3455  0.0192  0.0130
 3701ntf    cn122565   6.215   1.175   5.655  0.3252  0.2437 -0.0963
 3701ntf    fn422566   6.345   1.612   5.842  0.4168 -0.0677  0.0871
 3701ntf    fn422567   6.372   1.735   5.684  0.4013 -0.0895  0.0830
 3701ntf    fn422568   6.204   1.608   5.685  0.1798  0.3146  0.0709
 3701ntf    on522569   6.382   1.486   5.491 -0.1743 -0.1062 -0.2420
 3701ntf    on522570   6.572   1.514   5.649 -0.2415  0.3395 -0.4067
 3701ntf    on522571   6.416   1.126   5.803 -0.3533 -0.0355  0.1235
 3701ntf    on522572   6.454   1.160   5.563  0.1096  0.4657 -0.2724
 3701ntf    fn422573   6.190   1.051   5.615 -0.4628  0.4045 -0.1193
 3701ntf    fn422574   6.144   1.199   5.764 -0.3910 -0.4208 -0.4078
 3701ntf    fn422575   6.169   1.249   5.556 -0.6201  0.8285  0.7638
 3702ntf    cn122576   4.068   5.635   6.575 -0.3195  0.1430  0.0265
 3702ntf    sn222577   4.218   5.584   6.664 -0.3754  0.0297  0.0561
 3702ntf    nn322578   4.159   5.530   6.799  0.0780 -0.2593  0.1417
 3702ntf    sn222579   4.122   5.383   6.839  0.0605 -0.1762  0.4296
 3702ntf    cn122580   3.950   5.368   6.782  0.2646 -0.6126 -0.0841
 3702ntf    fn422581   3.985   5.534   6.555  0.4209 -0.4917  0.0881
 3702ntf    fn422582   4.007   5.729   6.646  0.2216 -0.0125  0.7122
 3702ntf    fn422583   4.094   5.682   6.454  0.1216 -0.5058 -0.1359
 3702ntf    on522584   4.277   5.488   6.573 -0.4331 -0.3486  0.4188
 3702ntf    on522585   4.293   5.707   6.677 -0.1664 -0.1179  0.2499
 3702ntf    on522586   4.120   5.370   6.983  0.7691  0.0859  0.4659
 3702ntf    on522587   4.189   5.272   6.776  0.1694  0.2677 -0.2442
 3702ntf    fn422588   3.940   5.336   6.654 -0.3815 -0.1518 -0.1570
 3702ntf    fn422589   3.886   5.276   6.853  0.2606 -0.1718  0.4994
 3702ntf    fn422590   3.884   5.482   6.799  0.0266 -0.8338  0.5426
 3703ntf    cn122591   0.383   5.325   2.762 -0.2539 -0.2793  0.0094
 3703ntf    sn222592   0.478   5.259   2.903 -0.1193  0.0824  0.0884
 3703ntf    nn322593   0.363   5.235   3.007  0.1973 -0.2621  0.3577
 3703ntf    sn222594   0.260   5.118   3.024  0.1520 -0.3243 -0.3251
 3703ntf    cn122595   0.309   5.052   3.186 -0.0065 -0.0374 -0.1589
 3703ntf    fn422596   0.457   5.355   2.657 -0.4612  0.1044 -0.0275
 3703ntf    fn422597   0.298   5.235   2.715 -0.4378  0.0194 -0.2262
 3703ntf    fn422598   0.321   5.438   2.792  0.1628 -0.0280 -0.0705
 3703ntf    on522599   0.540   5.143   2.845 -0.8520 -0.2930  0.0379
 3703ntf    on522600   0.558   5.373   2.938 -0.0304  0.1172 -0.2255
 3703ntf    on522601   0.266   5.006   2.933  0.4384  0.1640 -0.9097
 3703ntf    on522602   0.130   5.166   3.064  0.0311 -0.5349 -0.4626
 3703ntf    fn422603   0.277   4.926   3.212 -0.0247 -0.0043 -0.0226
 3703ntf    fn422604   0.441   5.062   3.193  0.0293 -0.0730 -0.7573
 3703ntf    fn422605   0.264   5.139   3.275  0.3967  0.1197 -0.1067
 3704ntf    cn122606   6.484   7.001   1.654 -0.1973 -0.2849 -0.2137
 3704ntf    sn222607   6.514   7.108   1.510  0.1364 -0.2187 -0.0968
 3704ntf    nn322608   6.521   7.245   1.585  0.1718  0.1242 -0.7170
 3704ntf    sn222609   6.417   7.362   1.606  0.2112  0.0739 -0.2263
 3704ntf    cn122610   6.493   7.485   1.497  0.0490 -0.1211 -0.5605
 3704ntf    fn422611   6.574   7.020   1.750  0.0439  0.6160 -0.6010
 3704ntf    fn422612   6.369   7.034   1.710  0.0998 -0.1226  0.3095
 3704ntf    fn422613   6.483   6.872   1.626  0.0872 -0.5371  0.8921
 3704ntf    on522614   6.646   7.074   1.462  0.2886 -0.8991  0.7798
 3704ntf    on522615   6.405   7.080   1.420  0.2057 -0.3319 -0.1475
 3704ntf    on522616   6.418   7.419   1.739 -0.1063  0.3672 -0.3492
 3704ntf    on522617   6.292   7.336   1.540  0.3736  0.1454 -0.5657
 3704ntf    fn422618   6.587   7.558   1.554 -0.1184  0.1584 -0.6403
 3704ntf    fn422619   6.537   7.429   1.385 -0.1442 -0.2396 -0.5769
 3704ntf    fn422620   6.396   7.566   1.458  0.2764  0.4410  0.0165
 3705ntf    cn122621   7.062   5.582   4.006  0.1192  0.1454 -0.0331
 3705ntf    sn222622   6.948   5.689   4.099  0.0651  0.0357  0.0270
 3705ntf    nn322623   6.951   5.820   4.013 -0.2018 -0.1780 -0.3084
 3705ntf    sn222624   6.843   5.929   3.982 -0.1968 -0.1578 -0.2522
 3705ntf    cn122625   6.763   5.861   3.834 -0.0802 -0.2295 -0.2822
 3705ntf    fn422626   7.086   5.469   4.071 -0.2325 -0.3318 -0.7203
 3705ntf    fn422627   7.028   5.548   3.883  0.2140 -0.2132  0.0386
 3705ntf    fn422628   7.175   5.650   3.997  0.0427  0.3222  0.3194
 3705ntf    on522629   6.820   5.621   4.104 -0.0842  0.2985 -0.2063
 3705ntf    on522630   7.021   5.701   4.223  0.3891 -0.0555 -0.1543
 3705ntf    on522631   6.902   6.049   3.927 -0.2087 -0.0143  0.0391
 3705ntf    on522632   6.736   5.952   4.077 -0.3065  0.0707 -0.4308
 3705ntf    fn422633   6.848   5.846   3.735  0.2186 -0.2805 -0.0184
 3705ntf    fn422634   6.712   5.742   3.861  0.5322 -0.5177 -0.3960
 3705ntf    fn422635   6.660   5.926   3.781 -0.1518 -0.1083  0.0018
 3706ntf    cn122636   0.175   0.152   6.691  0.3365  0.1047 -0.0393
 3706ntf    sn222637   0.184   0.096   6.518 -0.0544 -0.1534  0.0211
 3706ntf    nn322638   0.124  -0.048   6.536  0.0831 -0.2619 -0.3851
 3706ntf    sn222639   0.207  -0.174   6.579  0.2005  0.0125  0.2026
 3706ntf    cn122640   0.279  -0.229   6.422 -0.0603  0.0657  0.0652
 3706ntf    fn422641   0.256   0.252   6.720 -0.1759  0.5317 -0.0537
 3706ntf    fn422642   0.050   0.185   6.722  0.4020 -0.2603  0.6561
 3706ntf    fn422643   0.219   0.060   6.776 -0.4851 -0.2787 -0.0104
 3706ntf    on522644   0.094   0.188   6.453 -0.2081  0.2116  0.7391
 3706ntf    on522645   0.325   0.097   6.490 -0.2214 -0.4978 -0.8524
 3706ntf    on522646   0.115  -0.281   6.609 -0.3398  0.3892 -0.0957
 3706ntf    on522647   0.314  -0.160   6.675  0.1989 -0.1201  0.2245
 3706ntf    fn422648   0.356  -0.336   6.428 -0.1795 -0.0680 -0.6892
 3706ntf    fn422649   0.182  -0.258   6.336  0.0271 -0.4732  0.1433
 3706ntf    fn422650   0.354  -0.140   6.360 -0.3485  0.4649  0.2865
 3707ntf    cn122651   3.379   0.111   3.008 -0.3117 -0.0603  0.1251
 3707ntf    sn222652   3.507   0.224   2.944 -0.4434  0.0345  0.0285
 3707ntf    nn322653   3.630   0.176   3.029 -0.5376 -0.1974  0.0337
 3707ntf    sn222654   3.773   0.136   2.979 -0.3360 -0.0653  0.5043
 3707ntf    cn122655   3.732  -0.039   2.953  0.0020 -0.0648 -0.0649
 3707ntf    fn422656   3.260   0.134   2.955 -0.2374 -0.5583 -0.2722
 3707ntf    fn422657   3.401  -0.016   2.978  0.2467  0.0864 -0.1062
 3707ntf    fn422658   3.363   0.109   3.139  0.0341 -0.1966  0.1656
 3707ntf    on522659   3.512   0.195   2.803 -0.3099  0.2906 -0.0208
 3707ntf    on522660   3.465   0.356   2.986  0.4104  0.2420  0.2437
 3707ntf    on522661   3.876   0.139   3.081  0.1670  0.2809 -0.0049
 3707ntf    on522662   3.806   0.178   2.845 -0.3103 -0.3927  0.4080
 3707ntf    fn422663   3.645  -0.051   2.854  0.1417  0.5704 -0.2680
 3707ntf    fn422664   3.840  -0.113   2.930 -0.0770 -0.2141  0.0374
 3707ntf    fn422665   3.679  -0.082   3.067  0.0126 -0.1372 -0.0874
 3708ntf    cn122666   2.099   0.555   6.294  0.2172 -0.3242  0.1129
 3708ntf    sn222667   2.242   0.495   6.200  0.0675 -0.0758 -0.2743
 3708ntf    nn322668   2.182   0.357   6.156 -0.6817  0.1333  0.0658
 3708ntf    sn222669   2.200   0.214   6.218 -0.1443  0.1794  0.0221
 3708ntf    cn122670   2.115   0.113   6.093 -0.2864  0.0218  0.2462
 3708ntf    fn422671   2.125   0.679   6.334  0.0962 -0.2179 -0.1325
 3708ntf    fn422672   1.985   0.551   6.226  0.0103 -0.4844  0.4664
 3708ntf    fn422673   2.085   0.475   6.398 -0.1497 -0.2423  0.1300
 3708ntf    on522674   2.250   0.583   6.085 -0.2393 -0.1406 -0.3467
 3708ntf    on522675   2.354   0.494   6.290  0.0495  0.6512 -0.2394
 3708ntf    on522676   2.116   0.195   6.334  0.1806  0.0873  0.2429
 3708ntf    on522677   2.336   0.167   6.212 -0.2241  0.0250 -0.7740
 3708ntf    fn422678   2.114  -0.015   6.128 -0.3473 -0.1266 -0.2807
 3708ntf    fn422679   1.991   0.154   6.069 -0.3983 -0.3800  0.1164
 3708ntf    fn422680   2.174   0.114   5.975 -0.1358 -0.4198  0.3165
 3709ntf    cn122681   6.115   6.639   1.842 -0.2483  0.0768 -0.1461
 3709ntf    sn222682   6.125   6.458   1.826  0.0182  0.0560  0.2401
 3709ntf    nn322683   6.152   6.450   1.671  0.3323  0.7881  0.2517
 3709ntf    sn222684   6.281   6.470   1.584  0.0945  0.2058 -0.2423
 3709ntf    cn122685   6.262   6.337   1.461 -0.6035 -0.0178  0.0991
 3709ntf    fn422686   6.064   6.667   1.960 -0.2233 -0.0027 -0.1166
 3709ntf    fn422687   6.233   6.697   1.826 -0.4546  0.4748 -0.2385
 3709ntf    fn422688   6.036   6.691   1.749 -0.4269 -0.0468 -0.0630
 3709ntf    on522689   6.240   6.418   1.903 -0.1878  0.2095  0.6283
 3709ntf    on522690   5.994   6.409   1.862 -0.1971  0.0419 -0.5408
 3709ntf    on522691   6.406   6.452   1.653 -0.1198 -0.3157  0.0165
 3709ntf    on522692   6.268   6.590   1.504 -0.6865 -0.0446 -0.5009
 3709ntf    fn422693   6.150   6.360   1.394 -0.4450  0.5356  0.0152
 3709ntf    fn422694   6.351   6.340   1.363 -0.1102 -0.2401  0.5375
 3709ntf    fn422695   6.260   6.216   1.515  0.7264 -0.0818  0.0532
 3710ntf    cn122696   3.751   5.647   4.082 -0.1194  0.1463  0.0696
 3710ntf    sn222697   3.646   5.766   3.992 -0.2306  0.1005  0.1385
 3710ntf    nn322698   3.709   5.757   3.849  0.1077 -0.2456  0.3044
 3710ntf    sn222699   3.636   5.725   3.713  0.2132  0.0077  0.1860
 3710ntf    cn122700   3.572   5.556   3.734 -0.0338  0.0407 -0.2948
 3710ntf    fn422701   3.687   5.603   4.190 -0.3653  0.0171 -0.1249
 3710ntf    fn422702   3.774   5.538   4.010 -0.2619  0.0538  0.1647
 3710ntf    fn422703   3.869   5.692   4.119 -0.1269  0.1034  0.1453
 3710ntf    on522704   3.513   5.712   4.004 -0.3174  0.0926 -0.7917
 3710ntf    on522705   3.676   5.891   4.058  0.1960  0.0578  0.0289
 3710ntf    on522706   3.725   5.721   3.600 -0.0289 -0.2354  0.0035
 3710ntf    on522707   3.515   5.799   3.689  0.5288  0.2589 -0.6641
 3710ntf    fn422708   3.661   5.469   3.781  0.0250  0.3785  0.2241
 3710ntf    fn422709   3.467   5.550   3.814  0.0021  0.1754 -0.2387
 3710ntf    fn422710   3.539   5.506   3.616 -0.4398 -0.5150  0.0458
 3711ntf    cn122711   4.656   2.988   6.639 -0.0304 -0.0851  0.0504
 3711ntf    sn222712   4.686   2.812   6.676  0.0232 -0.1301 -0.2048
 3711ntf    nn322713   4.835   2.810   6.726 -0.0984 -0.4931  0.1433
 3711ntf    sn222714   4.961   2.733   6.674 -0.0552 -0.1858 -0.2122
 3711ntf    cn122715   4.992   2.633   6.823 -0.2411 -0.2708 -0.2314
 3711ntf    fn422716   4.539   3.025   6.591  0.1700 -0.0748 -0.4335
 3711ntf    fn422717   4.671   3.065   6.746  0.1653 -0.3523  0.2187
 3711ntf    fn422718   4.739   3.034   6.547  0.0435 -0.5764 -0.1291
 3711ntf    on522719   4.603   2.774   6.787  0.3825 -0.4397 -0.0408
 3711ntf    on522720   4.661   2.747   6.550 -0.4144 -0.0373 -0.1684
 3711ntf    on522721   5.085   2.806   6.665  0.2299 -0.5613  0.5146
 3711ntf    on522722   4.942   2.626   6.580 -0.2868 -0.2335 -0.1125
 3711ntf    fn422723   5.093   2.549   6.809 -0.0919 -0.1120 -0.1178
 3711ntf    fn422724   5.029   2.713   6.922 -0.0515 -0.1271 -0.4191
 3711ntf    fn422725   4.881   2.570   6.859 -0.3481  0.0456 -0.0011
 3712ntf    cn122726   3.272   5.222   7.033  0.3705 -0.3300 -0.0169
 3712ntf    sn222727   3.211   5.338   6.907  0.0763 -0.2486  0.1991
 3712ntf    nn322728   3.066   5.283   6.883  0.1118 -0.1841 -0.1663
 3712ntf    sn222729   3.019   5.181   6.773 -0.0121 -0.0269 -0.2598
 3712ntf    cn122730   2.982   5.291   6.634  0.0152 -0.2035 -0.4073
 3712ntf    fn422731   3.244   5.097   7.000  0.1203 -0.1184 -0.6100
 3712ntf    fn422732   3.401   5.226   7.059  0.2491  0.4345  0.5087
 3712ntf    fn422733   3.213   5.246   7.149 -0.1591 -0.3871 -0.2696
 3712ntf    on522734   3.204   5.459   6.984 -0.4082 -0.1982  0.0808
 3712ntf    on522735   3.299   5.339   6.793 -0.1865  0.2757 -0.0008
 3712ntf    on522736   2.890   5.128   6.809  0.1274 -0.0880  0.1611
 3712ntf    on522737   3.126   5.092   6.736  0.1368  0.0130  0.0695
 3712ntf    fn422738   3.095   5.335   6.580  0.0172 -0.2664 -0.4547
 3712ntf    fn422739   2.912   5.237   6.535 -0.2157 -0.3524 -0.1658
 3712ntf    fn422740   2.901   5.388   6.673  0.2675 -0.1959  0.0954
 3713ntf    cn122741   0.182   5.077   2.377  0.2107  0.2899 -0.0137
 3713ntf    sn222742   0.033   5.140   2.294  0.0779 -0.1275 -0.0953
 3713ntf    nn322743  -0.023   5.220   2.417  0.3811 -0.1108  0.0319
 3713ntf    sn222744  -0.148   5.191   2.507  0.2156  0.1180 -0.1240
 3713ntf    cn122745  -0.218   5.359   2.508 -0.0103  0.0241  0.0886
 3713ntf    fn422746   0.243   5.174   2.443 -0.0107  0.0660  0.5232
 3713ntf    fn422747   0.156   4.981   2.465  0.2807  0.3609  0.0844
 3713ntf    fn422748   0.265   5.031   2.285 -0.1062 -0.4031  0.0367
 3713ntf    on522749   0.085   5.219   2.185 -0.4859 -0.0773 -0.3287
 3713ntf    on522750  -0.036   5.023   2.245 -0.3423  0.3245 -0.5915
 3713ntf    on522751  -0.111   5.165   2.644 -0.4171 -0.0664  0.0141
 3713ntf    on522752  -0.258   5.114   2.455  0.2584  0.2541 -0.4171
 3713ntf    fn422753  -0.124   5.438   2.557  0.3083 -0.2399 -0.0911
 3713ntf    fn422754  -0.254   5.394   2.386 -0.2480 -0.0686  0.1330
 3713ntf    fn422755  -0.318   5.368   2.593  0.0217 -0.0048  0.1298
 3714ntf    cn122756   1.363   2.149   1.399  0.1312  0.0056  0.5269
 3714ntf    sn222757   1.494   2.222   1.295 -0.0225 -0.0975  0.2583
 3714ntf    nn322758   1.438   2.191   1.152 -0.2272  0.2139  0.2687
 3714ntf    sn222759   1.485   2.092   1.039 -0.2275  0.1695  0.3073
 3714ntf    cn122760   1.564   2.197   0.914 -0.0555 -0.2556  0.0571
 3714ntf    fn422761   1.358   2.018   1.387  0.4275  0.1000 -0.7725
 3714ntf    fn422762   1.388   2.168   1.527  0.3147  0.0798  0.4800
 3714ntf    fn422763   1.244   2.198   1.368  0.1126 -0.1947  0.2730
 3714ntf    on522764   1.500   2.362   1.331 -0.2935 -0.0920  0.2891
 3714ntf    on522765   1.604   2.140   1.337 -0.0449  0.0034  0.5167
 3714ntf    on522766   1.377   2.029   0.968 -0.1234  0.6965 -0.3256
 3714ntf    on522767   1.595   2.005   1.071  0.2491  0.7777  0.3426
 3714ntf    fn422768   1.560   2.138   0.796  0.3815  0.1497 -0.1629
 3714ntf    fn422769   1.499   2.311   0.897 -0.4484 -0.4995 -0.0705
 3714ntf    fn422770   1.690   2.230   0.941 -0.0778 -0.5062  0.4772
 3715ntf    cn122771   3.447   1.852   2.035  0.3223 -0.1456 -0.0276
 3715ntf    sn222772   3.486   1.969   2.168 -0.2640  0.1112 -0.0778
 3715ntf    nn322773   3.413   2.095   2.109 -0.0679  0.1341 -0.2737
 3715ntf    sn222774   3.298   2.182   2.171 -0.2486 -0.0905 -0.2917
 3715ntf    cn122775   3.165   2.148   2.051 -0.2786 -0.3154 -0.1965
 3715ntf    fn422776   3.501   1.893   1.921  0.4204 -0.1140  0.0301
 3715ntf    fn422777   3.493   1.731   2.062  0.9096  0.1330  0.2495
 3715ntf    fn422778   3.316   1.845   2.015  0.2946 -0.1891  0.1750
 3715ntf    on522779   3.421   1.907   2.281 -0.6457  0.3133 -0.1856
 3715ntf    on522780   3.630   1.983   2.159 -0.2666  0.4296  0.3187
 3715ntf    on522781   3.329   2.322   2.161  0.1355 -0.1601 -0.0649
 3715ntf    on522782   3.254   2.136   2.300  0.0590  0.3532 -0.0278
 3715ntf    fn422783   3.101   2.259   2.017 -0.0151  0.0801  0.5636
 3715ntf    fn422784   3.212   2.095   1.939  0.4257 -0.0602 -0.0292
 3715ntf    fn422785   3.076   2.062   2.097 -0.2203 -0.0328  0.4568
 3716ntf    cn122786   1.685   5.835   1.956 -0.1427  0.2483  0.3140
 3716ntf    sn222787   1.840   5.785   1.876 -0.3649  0.1905 -0.0868
 3716ntf    nn322788   1.870   5.925   1.811  0.1568 -0.0151 -0.2938
 3716ntf    sn222789   2.009   5.993   1.787  0.2231  0.0012  0.1236
 3716ntf    cn122790   2.028   5.985   1.606  0.5510 -0.1039  0.1618
 3716ntf    fn422791   1.585   5.859   1.872  0.0556 -0.2402 -0.0624
 3716ntf    fn422792   1.641   5.741   2.038 -0.2754 -0.5059 -0.6021
 3716ntf    fn422793   1.695   5.946   2.028  0.4695  0.0567  0.5296
 3716ntf    on522794   1.932   5.756   1.984  0.3722  0.5514 -0.6070
 3716ntf    on522795   1.800   5.686   1.780  0.5818  0.1954 -0.4952
 3716ntf    on522796   2.130   5.923   1.823  0.0151 -0.3206  0.1966
 3716ntf    on522797   1.998   6.136   1.807 -0.7148 -0.1169  0.4617
 3716ntf    fn422798   2.142   6.035   1.560  0.5459 -0.2063  0.0387
 3716ntf    fn422799   2.019   5.860   1.563 -0.0624  0.1519 -0.4708
 3716ntf    fn422800   1.925   6.049   1.554  0.6956 -0.2239 -0.2732
 3717ntf    cn122801   6.643   6.781   6.956 -0.1858 -0.0210 -0.2609
 3717ntf    sn222802   6.493   6.870   6.905 -0.0470  0.2973 -0.1125
 3717ntf    nn322803   6.404   6.759   6.839  0.0123  0.1608  0.0381
 3717ntf    sn222804   6.260   6.711   6.877  0.2224 -0.4815  0.0366
 3717ntf    cn122805   6.182   6.730   6.714  0.0692  0.2558  0.1937
 3717ntf    fn422806   6.723   6.862   7.022  0.3269 -0.5795 -0.1844
 3717ntf    fn422807   6.624   6.679   7.037 -0.3341 -0.1390 -0.4430
 3717ntf    fn422808   6.717   6.724   6.862  0.2939 -0.4356  0.3611
 3717ntf    on522809   6.450   6.925   7.032 -0.0770 -0.2164  0.1020
 3717ntf    on522810   6.535   6.965   6.806  0.2666  0.0439 -0.2216
 3717ntf    on522811   6.192   6.805   6.963 -0.0408 -0.3201 -0.3487
 3717ntf    on522812   6.244   6.569   6.901 -0.6564 -0.4930 -0.5523
 3717ntf    fn422813   6.050   6.746   6.713  0.0453  0.0462 -0.2389
 3717ntf    fn422814   6.235   6.842   6.669 -0.4829  0.4659  0.0541
 3717ntf    fn422815   6.214   6.641   6.622  0.6661 -0.6284  1.2270
 3718ntf    cn122816   1.954   2.723   5.052 -0.2501  0.4633 -0.0168
 3718ntf    sn222817   1.865   2.828   4.933 -0.3127  0.0063 -0.3772
 3718ntf    nn322818   1.742   2.732   4.918 -0.1473 -0.3208  0.2924
 3718ntf    sn222819   1.592   2.769   4.889 -0.0220 -0.1329 -0.1388
 3718ntf    cn122820   1.516   2.748   5.053 -0.0423  0.2238 -0.1019
 3718ntf    fn422821   2.076   2.768   5.077 -0.1269  0.1184  0.0001
 3718ntf    fn422822   1.886   2.728   5.166  0.0739  0.7607  0.1665
 3718ntf    fn422823   1.959   2.597   5.015 -0.1009  0.5608 -0.3301
 3718ntf    on522824   1.841   2.949   5.009  0.2189 -0.2631  0.2332
 3718ntf    on522825   1.951   2.844   4.818 -0.1207 -0.5904 -0.3166
 3718ntf    on522826   1.522   2.675   4.806  0.2463 -0.6785  0.2464
 3718ntf    on522827   1.574   2.909   4.861  0.2593 -0.1611 -0.4656
 3718ntf    fn422828   1.591   2.676   5.135 -0.0719  0.2321 -0.0668
 3718ntf    fn422829   1.507   2.864   5.115 -0.5772 -0.2474  0.7237
 3718ntf    fn422830   1.399   2.686   5.043 -0.0632  0.1984  0.2740
 3719ntf    cn122831   6.061   4.095   6.814 -0.0175  0.1307 -0.1431
 3719ntf    sn222832   6.058   4.241   6.704  0.1540  0.0824 -0.2137
 3719ntf    nn322833   5.976   4.196   6.578  0.0149 -0.0343 -0.0842
 3719ntf    sn222834   6.029   4.153   6.436 -0.2865 -0.4702 -0.0666
 3719ntf    cn122835   5.875   4.143   6.339 -0.2476 -0.2600 -0.1521
 3719ntf    fn422836   6.132   3.997   6.759 -0.5469 -0.2693 -0.1124
 3719ntf    fn422837   6.117   4.137   6.926 -0.2728  0.3205 -0.0865
 3719ntf    fn422838   5.942   4.050   6.849  0.2058 -0.4160 -0.0715
 3719ntf    on522839   5.987   4.345   6.775 -0.1414  0.0419 -0.4487
 3719ntf    on522840   6.199   4.256   6.681  0.1895 -0.5971 -0.4889
 3719ntf    on522841   6.078   4.018   6.438  0.1674 -0.3058 -0.0770
 3719ntf    on522842   6.109   4.246   6.360 -0.0923 -0.6756 -0.1126
 3719ntf    fn422843   5.812   4.258   6.348  0.3364  0.0740 -0.2417
 3719ntf    fn422844   5.899   4.115   6.212  0.2865  0.4686 -0.2171
 3719ntf    fn422845   5.800   4.045   6.389  0.4690 -0.5880  0.3067
 3720ntf    cn122846   4.102   1.346   1.269  0.3201  0.1074  0.3497
 3720ntf    sn222847   4.239   1.460   1.303  0.5601 -0.1620  0.2970
 3720ntf    nn322848   4.216   1.510   1.451  0.4121 -0.0053  0.2222
 3720ntf    sn222849   4.131   1.628   1.509  0.0927 -0.0597 -0.1255
 3720ntf    cn122850   4.254   1.736   1.589 -0.2030  0.0001  0.2510
 3720ntf    fn422851   3.983   1.405   1.266 -0.0221 -0.5914  0.0116
 3720ntf    fn422852   4.114   1.285   1.152  0.1448 -0.0678  0.4227
 3720ntf    fn422853   4.099   1.251   1.361  0.7129 -0.3129 -0.0680
 3720ntf    on522854   4.356   1.376   1.301  0.7025  0.0463 -0.3372
 3720ntf    on522855   4.235   1.562   1.201 -0.1528 -0.0760  0.4018
 3720ntf    on522856   4.047   1.586   1.618 -0.2310 -0.3168 -0.4729
 3720ntf    on522857   4.074   1.715   1.409 -0.5280 -0.2197  0.0838
 3720ntf    fn422858   4.205   1.811   1.687  0.0719  0.4233  0.0686
 3720ntf    fn422859   4.351   1.668   1.647 -0.2425 -0.3493 -0.0908
 3720ntf    fn422860   4.306   1.822   1.503  0.0719 -0.2827  0.1340
 3721ntf    cn122861   2.042   6.008   4.111  0.2994 -0.2492 -0.0448
 3721ntf    sn222862   2.126   5.847   4.099  0.2963 -0.2559  0.0200
 3721ntf    nn322863   2.007   5.752   4.135  0.1440 -0.0999 -0.0743
 3721ntf    sn222864   1.977   5.697   4.279 -0.0233 -0.1571 -0.1302
 3721ntf    cn122865   2.101   5.568   4.309 -0.0537 -0.1430  0.0584
 3721ntf    fn422866   2.122   6.108   4.080 -0.4057  0.4077  0.2096
 3721ntf    fn422867   1.941   6.023   4.027  0.1328  0.1224  0.2172
 3721ntf    fn422868   1.997   6.034   4.233 -0.4485  0.5111 -0.4756
 3721ntf    on522869   2.159   5.838   3.959  0.3578 -0.0405  0.0194
 3721ntf    on522870   2.236   5.860   4.193  0.1714  0.1120  0.1190
 3721ntf    on522871   1.852   5.626   4.284 -0.2373  0.2176 -0.1074
 3721ntf    on522872   2.011   5.789   4.385 -0.7597  0.0379 -0.0591
 3721ntf    fn422873   2.226   5.614   4.310 -0.1145  0.0415 -0.3741
 3721ntf    fn422874   2.080   5.509   4.425 -0.2202 -0.0515  0.0740
 3721ntf    fn422875   2.095   5.476   4.214 -0.1609  0.0331 -0.1072
 3722ntf    cn122876   3.029   3.700   3.924  0.3179 -0.0938 -0.0853
 3722ntf    sn222877   2.889   3.584   3.937  0.1155  0.1798  0.2036
 3722ntf    nn322878   2.783   3.676   4.006  0.0848  0.1030  0.2583
 3722ntf    sn222879   2.725   3.686   4.152 -0.2190  0.0535  0.1427
 3722ntf    cn122880   2.830   3.823   4.211  0.2023 -0.2884  0.1898
 3722ntf    fn422881   3.046   3.782   4.026 -0.5062 -0.4873  0.3838
 3722ntf    fn422882   3.142   3.633   3.912  0.3754  0.0022 -0.0794
 3722ntf    fn422883   3.012   3.778   3.818  0.1492  0.1389  0.1110
 3722ntf    on522884   2.845   3.560   3.802  0.0727 -0.6094  0.3505
 3722ntf    on522885   2.936   3.467   4.007 -0.5942 -0.1391  0.1494
 3722ntf    on522886   2.765   3.573   4.233 -0.1833  0.4469  0.6835
 3722ntf    on522887   2.589   3.733   4.154 -0.2310  0.0313 -0.1499
 3722ntf    fn422888   2.775   3.874   4.320 -0.0403 -0.2145  0.0332
 3722ntf    fn422889   2.949   3.773   4.239  0.5165 -0.0628 -0.7194
 3722ntf    fn422890   2.846   3.919   4.122 -0.0524  0.4415  0.9172
 3723ntf    cn122891   3.077   2.200   3.935 -0.1721  0.0249  0.0256
 3723ntf    sn222892   2.995   2.070   3.838  0.0355 -0.2158  0.1731
 3723ntf    nn322893   3.111   1.965   3.856  0.3301  0.1477  0.4132
 3723ntf    sn222894   3.206   1.901   3.748  0.0353  0.0238  0.2268
 3723ntf    cn122895   3.285   1.768   3.842  0.1273 -0.1294 -0.0664
 3723ntf    fn422896   3.188   2.243   3.875 -0.3206  0.0730 -0.2166
 3723ntf    fn422897   2.998   2.306   3.947  0.5340  0.5624  0.0390
 3723ntf    fn422898   3.125   2.175   4.055  0.4546  0.5286 -0.1108
 3723ntf    on522899   2.875   2.033   3.909 -0.0441 -0.5541 -0.1333
 3723ntf    on522900   2.975   2.129   3.708 -0.2058 -0.1436  0.2422
 3723ntf    on522901   3.320   1.983   3.714  0.1534 -0.4193 -0.4707
 3723ntf    on522902   3.132   1.825   3.651  0.0226  0.6930 -0.2973
 3723ntf    fn422903   3.190   1.694   3.897 -0.0196  0.3234  0.3046
 3723ntf    fn422904   3.365   1.692   3.769  0.2918  0.0010 -0.0223
 3723ntf    fn422905   3.355   1.820   3.942 -0.1267  0.1208 -0.0185
 3724ntf    cn122906   6.100   3.559   3.602 -0.3210  0.2297  0.2077
 3724ntf    sn222907   6.101   3.562   3.783 -0.4376 -0.4437  0.2230
 3724ntf    nn322908   6.064   3.416   3.828 -0.5214 -0.5382 -0.1518
 3724ntf    sn222909   6.126   3.348   3.956  0.1474 -0.1376 -0.2551
 3724ntf    cn122910   5.980   3.292   4.048  0.0915  0.4214  0.0045
 3724ntf    fn422911   6.182   3.466   3.557  0.0237  0.4530  0.3687
 3724ntf    fn422912   5.978   3.544   3.552 -0.1638 -0.0909 -0.0821
 3724ntf    fn422913   6.142   3.674   3.551 -0.2133 -0.0682 -0.3835
 3724ntf    on522914   6.236   3.604   3.812 -0.6310  0.1400  0.3022
 3724ntf    on522915   6.000   3.660   3.815  0.0781  0.2653 -0.2995
 3724ntf    on522916   6.184   3.436   4.054  0.2217 -0.3416 -0.1159
 3724ntf    on522917   6.193   3.223   3.932  0.1126 -0.1290 -0.4020
 3724ntf    fn422918   5.897   3.390   4.080 -0.5078 -0.1402  0.2070
 3724ntf    fn422919   5.919   3.196   3.979  0.2676  0.0173  0.4025
 3724ntf    fn422920   6.017   3.240   4.164 -0.1810  0.0409 -0.0765
 3725ntf    cn122921   2.674   1.200   2.861 -0.0318 -0.1680  0.2056
 3725ntf    sn222922   2.793   1.089   2.941  0.3810  0.1342  0.0146
 3725ntf    nn322923   2.741   1.103   3.088 -0.0215  0.1854 -0.1306
 3725ntf    sn222924   2.812   1.133   3.225 -0.3865 -0.0579  0.1136
 3725ntf    cn122925   2.839   0.968   3.297  0.3313 -0.0384 -0.1075
 3725ntf    fn422926   2.553   1.146   2.853 -0.1510  0.1212  0.0105
 3725ntf    fn422927   2.672   1.317   2.923  0.1166 -0.0535 -0.0042
 3725ntf    fn422928   2.714   1.229   2.738 -0.5953 -0.4335 -0.0424
 3725ntf    on522929   2.761   0.959   2.888  0.0490  0.2044  0.0391
 3725ntf    on522930   2.926   1.140   2.918  0.1964  0.6560  0.0945
 3725ntf    on522931   2.720   1.195   3.317  0.0513  0.1523  0.4143
 3725ntf    on522932   2.943   1.194   3.222 -0.2918 -0.2786 -0.2616
 3725ntf    fn422933   2.901   0.891   3.209 -0.0815 -0.0775 -0.3669
 3725ntf    fn422934   2.921   0.973   3.401  0.0938  0.0199  0.0781
 3725ntf    fn422935   2.726   0.911   3.334  0.2615 -0.4038 -0.8647
 3726ntf    cn122936   2.550   1.732   1.848 -0.1895  0.1292 -0.5236
 3726ntf    sn222937   2.540   1.843   1.704  0.1078  0.0682 -0.5922
 3726ntf    nn322938   2.533   1.728   1.598 -0.3343 -0.3910 -0.0715
 3726ntf    sn222939   2.467   1.725   1.456  0.1867  0.1870 -0.3260
 3726ntf    cn122940   2.324   1.623   1.501  0.1363  0.5106  0.2541
 3726ntf    fn422941   2.650   1.647   1.858 -0.1143  0.3144  0.3190
 3726ntf    fn422942   2.569   1.797   1.961  0.1274 -0.4479 -0.2421
 3726ntf    fn422943   2.440   1.662   1.873 -0.1963  0.2624 -0.1701
 3726ntf    on522944   2.417   1.917   1.718 -0.1112 -0.3916 -0.0312
 3726ntf    on522945   2.659   1.924   1.708  0.2878 -0.2148 -0.1747
 3726ntf    on522946   2.548   1.652   1.362  0.2628 -0.1202 -0.0220
 3726ntf    on522947   2.401   1.847   1.417  0.1482  0.2349 -0.1133
 3726ntf    fn422948   2.252   1.679   1.598 -0.5778  0.3287 -0.1654
 3726ntf    fn422949   2.233   1.592   1.410  0.0783  0.3751  0.3578
 3726ntf    fn422950   2.369   1.506   1.544 -0.5450  0.0546 -0.2547
 3727ntf    cn122951   2.108   4.085   4.953 -0.3905 -0.3352 -0.1569
 3727ntf    sn222952   1.942   4.137   5.005 -0.0877 -0.0044  0.4759
 3727ntf    nn322953   1.883   4.142   4.860 -0.0313 -0.2751  0.4438
 3727ntf    sn222954   1.835   4.259   4.767  0.2642 -0.3283  0.2237
 3727ntf    cn122955   1.962   4.262   4.638  0.0631 -0.3318  0.0254
 3727ntf    fn422956   2.102   3.979   4.874  0.2892 -0.4111 -0.1152
 3727ntf    fn422957   2.162   4.181   4.880  0.2688 -0.3175  0.3413
 3727ntf    fn422958   2.189   4.054   5.053 -0.4085  0.0252 -0.0327
 3727ntf    on522959   1.882   4.035   5.087  0.6138 -0.9184 -0.1376
 3727ntf    on522960   1.971   4.267   5.062 -0.1580  0.0149  0.4681
 3727ntf    on522961   1.840   4.397   4.810 -0.1231 -0.1093 -0.4336
 3727ntf    on522962   1.715   4.218   4.699 -0.0492  0.2912  0.3929
 3727ntf    fn422963   1.963   4.158   4.556 -0.0074 -0.2235 -0.1144
 3727ntf    fn422964   1.936   4.368   4.563  0.5372 -0.3902 -0.2287
 3727ntf    fn422965   2.084   4.280   4.687  0.0345 -0.4966  0.1561
 3728ntf    cn122966   3.023   5.138   0.427  0.2257  0.2154  0.2347
 3728ntf    sn222967   2.915   5.075   0.294  0.5577  0.1730 -0.0146
 3728ntf    nn322968   2.781   5.114   0.365  0.4056 -0.4567  0.0522
 3728ntf    sn222969   2.681   5.023   0.444 -0.0276 -0.0590 -0.0298
 3728ntf    cn122970   2.603   5.135   0.564 -0.0003  0.1179 -0.1770
 3728ntf    fn422971   3.147   5.097   0.406  0.0661 -0.0262 -0.2682
 3728ntf    fn422972   3.021   5.270   0.440  0.1806  0.2989 -0.5744
 3728ntf    fn422973   2.985   5.088   0.543 -0.2105 -0.3833 -0.1576
 3728ntf    on522974   2.949   5.160   0.183  0.4598 -0.0421 -0.2083
 3728ntf    on522975   2.944   4.935   0.275  0.0576  0.1385 -0.5276
 3728ntf    on522976   2.739   4.925   0.532 -0.1634 -0.1605 -0.0521
 3728ntf    on522977   2.571   4.973   0.364 -0.3207  0.3524  0.1145
 3728ntf    fn422978   2.663   5.147   0.681 -0.3334 -0.0469  0.0102
 3728ntf    fn422979   2.586   5.253   0.508  0.2460  0.0545 -0.3876
 3728ntf    fn422980   2.484   5.086   0.594  0.2142 -0.1884  0.1914
 3729ntf    cn122981   0.592   1.287   0.556  0.0700  0.1577  0.2741
 3729ntf    sn222982   0.674   1.181   0.433  0.0741  0.2624  0.1872
 3729ntf    nn322983   0.548   1.109   0.371  0.1546 -0.1402  0.4882
 3729ntf    sn222984   0.519   1.067   0.223  0.0608  0.0696  0.4462
 3729ntf    cn122985   0.570   0.893   0.215 -0.0811  0.0227  0.5551
 3729ntf    fn422986   0.525   1.380   0.490 -0.2862 -0.0766  0.3041
 3729ntf    fn422987   0.498   1.219   0.619 -0.1704 -0.0379 -0.2942
 3729ntf    fn422988   0.678   1.345   0.640  0.1842  0.2494  0.0945
 3729ntf    on522989   0.736   1.282   0.351  0.6430 -0.4713 -0.2913
 3729ntf    on522990   0.759   1.101   0.517 -0.4898 -0.4470  0.0912
 3729ntf    on522991   0.598   1.129   0.119 -0.7491  0.1165 -0.1506
 3729ntf    on522992   0.377   1.070   0.196  0.1213  0.4732  0.1667
 3729ntf    fn422993   0.498   0.820   0.298 -0.4480 -0.7332 -0.4050
 3729ntf    fn422994   0.550   0.842   0.095  0.1284 -0.0885  0.5651
 3729ntf    fn422995   0.698   0.873   0.243  0.0649 -0.0093 -0.1237
 3730ntf    cn122996   1.181   3.589   0.716  0.0613  0.2632  0.2734
 3730ntf    sn222997   1.324   3.497   0.780 -0.0641 -0.1283 -0.0004
 3730ntf    nn322998   1.254   3.403   0.884 -0.2873  0.0475  0.0090
 3730ntf    sn222999   1.301   3.256   0.913  0.4447  0.2395 -0.1959
 3730ntf    cn123000   1.247   3.230   1.085  0.0175 -0.0467 -0.3730
 3730ntf    fn423001   1.215   3.667   0.614 -0.1368 -0.3453 -0.2631
 3730ntf    fn423002   1.096   3.499   0.670  0.2052  0.0893  0.3453
 3730ntf    fn423003   1.116   3.652   0.812 -0.8121 -0.1112 -0.0616
 3730ntf    on523004   1.373   3.433   0.661  0.0729  0.2033 -0.1238
 3730ntf    on523005   1.411   3.598   0.836 -0.2750  0.0964 -0.0750
 3730ntf    on523006   1.442   3.246   0.941  0.3840  0.1641  0.0837
 3730ntf    on523007   1.239   3.151   0.837 -0.0022  0.2065  0.2121
 3730ntf    fn423008   1.240   3.106   1.130 -0.0413  0.0966  0.0168
 3730ntf    fn423009   1.322   3.294   1.173 -0.3533  0.2773 -0.2911
 3730ntf    fn423010   1.123   3.277   1.089 -0.0679 -0.2892 -0.1456
 3731ntf    cn123011   7.042   5.504   6.314  0.1367  0.0542 -0.0270
 3731ntf    sn223012   7.136   5.370   6.394  0.1010  0.0783  0.0563
 3731ntf    nn323013   7.059   5.354   6.530  0.3472 -0.2434  0.1593
 3731ntf    sn223014   7.111   5.403   6.669 -0.0720  0.1368  0.1843
 3731ntf    cn123015   7.227   5.269   6.709 -0.0454  0.1050 -0.0014
 3731ntf    fn423016   7.087   5.620   6.360  0.0861  0.0951 -0.0823
 3731ntf    fn423017   7.044   5.508   6.182 -0.3704 -0.4999 -0.0563
 3731ntf    fn423018   6.914   5.502   6.346  0.0588 -0.3656 -0.3677
 3731ntf    on523019   7.103   5.260   6.306  0.2748 -0.0507  0.1514
 3731ntf    on523020   7.276   5.403   6.398  0.1110  0.1255 -0.5638
 3731ntf    on523021   7.002   5.389   6.763 -0.2317  0.7868  0.1009
 3731ntf    on523022   7.185   5.527   6.661 -0.1202  0.1695  0.2456
 3731ntf    fn423023   7.289   5.293   6.823 -0.0064  0.4894 -0.1041
 3731ntf    fn423024   7.165   5.152   6.716 -0.2892  0.2300 -0.0745
 3731ntf    fn423025   7.322   5.255   6.617 -0.3230  0.2043 -0.3053
 3732ntf    cn123026   0.538   3.571   2.630 -0.2002  0.3222 -0.2670
 3732ntf    sn223027   0.564   3.485   2.788  0.0368  0.2251 -0.3567
 3732ntf    nn323028   0.655   3.591   2.860  0.0307 -0.2550  0.3701
 3732ntf    sn223029   0.810   3.610   2.854  0.0165 -0.2364  0.0348
 3732ntf    cn123030   0.851   3.561   3.024  0.0673  0.4236  0.2165
 3732ntf    fn423031   0.651   3.584   2.562  0.1115  0.0396  0.1872
 3732ntf    fn423032   0.452   3.500   2.559  0.1353 -0.1425 -0.2166
 3732ntf    fn423033   0.476   3.686   2.649  0.1133  0.4643 -0.0942
 3732ntf    on523034   0.431   3.477   2.844  0.1461  0.2585 -0.0927
 3732ntf    on523035   0.630   3.363   2.752 -0.0980  0.0617 -0.0588
 3732ntf    on523036   0.838   3.749   2.827  0.0460 -0.2172  0.1649
 3732ntf    on523037   0.875   3.515   2.767  0.1564 -0.0511 -0.0631
 3732ntf    fn423038   0.778   3.621   3.117 -0.2195 -0.4164  0.5424
 3732ntf    fn423039   0.819   3.434   3.042  0.7430  0.2541  0.2548
 3732ntf    fn423040   0.979   3.564   3.059  0.2161  0.1156 -0.2949
 3733ntf    cn123041   5.874   6.119   4.479 -0.2099  0.1172 -0.1606
 3733ntf    sn223042   5.763   6.203   4.596 -0.2421 -0.0446 -0.0761
 3733ntf    nn323043   5.780   6.123   4.730  0.3200  0.0203 -0.1084
 3733ntf    sn223044   5.669   6.088   4.835  0.1468  0.2727 -0.2079
 3733ntf    cn123045   5.600   5.928   4.782 -0.2551  0.2067  0.4957
 3733ntf    fn423046   5.869   6.169   4.356  0.8397  0.0865 -0.2215
 3733ntf    fn423047   6.000   6.122   4.516 -0.2766 -0.3686  0.1143
 3733ntf    fn423048   5.848   5.990   4.463  0.3790 -0.0430  0.1357
 3733ntf    on523049   5.829   6.330   4.612 -0.3101 -0.0241  0.0546
 3733ntf    on523050   5.633   6.199   4.533 -0.3129  0.5821  0.0313
 3733ntf    on523051   5.557   6.178   4.852  0.1059  0.1207  0.3757
 3733ntf    on523052   5.737   6.050   4.957 -0.0052  0.2633 -0.1252
 3733ntf    fn423053   5.548   5.935   4.661 -0.1211  0.1848  0.4360
 3733ntf    fn423054   5.688   5.830   4.779 -0.1427  0.3265 -0.2841
 3733ntf    fn423055   5.502   5.890   4.862 -0.4939 -0.4432 -0.0944
 3734ntf    cn123056   1.211   6.403   1.968 -0.0966 -0.3874 -0.2057
 3734ntf    sn223057   1.213   6.342   1.797  0.2597 -0.0126 -0.3360
 3734ntf    nn323058   1.111   6.444   1.735  0.2939  0.3971  0.2675
 3734ntf    sn223059   0.957   6.423   1.752  0.3515 -0.2555  0.0404
 3734ntf    cn123060   0.912   6.333   1.600 -0.3942  0.1129  0.0357
 3734ntf    fn423061   1.283   6.512   1.984  0.1884 -0.5882 -0.1003
 3734ntf    fn423062   1.090   6.428   2.015 -0.0638 -0.0843 -0.2858
 3734ntf    fn423063   1.267   6.319   2.054  0.2873  0.3992  0.3198
 3734ntf    on523064   1.348   6.365   1.751  0.1645  0.0151 -0.6006
 3734ntf    on523065   1.168   6.205   1.802  0.0970  0.0673  0.5011
 3734ntf    on523066   0.889   6.547   1.724  0.4863 -0.1504  0.1793
 3734ntf    on523067   0.910   6.336   1.856  0.2434  0.1048  0.2959
 3734ntf    fn423068   0.987   6.225   1.588  0.2604  0.4818  0.6826
 3734ntf    fn423069   0.786   6.294   1.596 -0.4789  0.3506  0.3537
 3734ntf    fn423070   0.922   6.410   1.493 -0.0706 -0.2639 -0.2068
 3735ntf    cn123071   2.757   4.037   2.659 -0.1935 -0.1596  0.2936
 3735ntf    sn223072   2.840   3.904   2.566  0.0540  0.1239  0.1087
 3735ntf    nn323073   2.908   3.822   2.681  0.3685 -0.0516 -0.1992
 3735ntf    sn223074   2.847   3.699   2.757  0.1453 -0.0201 -0.3250
 3735ntf    cn123075   2.926   3.729   2.918 -0.3137 -0.0833 -0.0855
 3735ntf    fn423076   2.677   3.982   2.748 -0.2550 -0.0624  0.2976
 3735ntf    fn423077   2.847   4.104   2.729 -0.2235  0.6898 -0.4523
 3735ntf    fn423078   2.693   4.128   2.588 -0.4588 -0.3249  0.3209
 3735ntf    on523079   2.730   3.840   2.497 -0.1985 -0.0655  0.6884
 3735ntf    on523080   2.934   3.973   2.481 -0.4070  0.1814 -0.3607
 3735ntf    on523081   2.899   3.573   2.712 -0.8642 -0.5757  0.0228
 3735ntf    on523082   2.706   3.711   2.788  0.1332 -0.5180 -0.1802
 3735ntf    fn423083   2.894   3.639   3.010  0.2320 -0.4349 -0.2337
 3735ntf    fn423084   3.058   3.724   2.922 -0.3140 -0.0634 -0.0357
 3735ntf    fn423085   2.891   3.846   2.969  0.0803  0.0751 -0.1726
 3736ntf    cn123086   6.254   1.052   5.140 -0.0157  0.0441  0.1730
 3736ntf    sn223087   6.277   0.988   4.971 -0.1033 -0.0494  0.1967
 3736ntf    nn323088   6.212   0.846   4.988 -0.4318  0.0701 -0.0330
 3736ntf    sn223089   6.137   0.765   4.876 -0.1632 -0.1000 -0.0913
 3736ntf    cn123090   6.272   0.651   4.833 -0.3849 -0.3228 -0.1926
 3736ntf    fn423091   6.303   0.968   5.230  0.6911  0.2938  0.0325
 3736ntf    fn423092   6.316   1.168   5.160  0.0231  0.2181 -0.8576
 3736ntf    fn423093   6.126   1.066   5.170  0.1036  1.0151  0.2656
 3736ntf    on523094   6.191   1.075   4.894  0.0685  0.1013  0.1744
 3736ntf    on523095   6.420   0.988   4.955 -0.0973  0.0075  0.2468
 3736ntf    on523096   6.105   0.823   4.748  0.0875 -0.1909 -0.1948
 3736ntf    on523097   6.044   0.672   4.933 -0.0817 -0.1751 -0.0795
 3736ntf    fn423098   6.221   0.577   4.736 -0.3294 -0.2191 -0.3019
 3736ntf    fn423099   6.383   0.711   4.792 -0.3918 -0.3433 -0.2409
 3736ntf    fn423100   6.305   0.577   4.937 -0.0625 -0.3027 -0.2796
 3737ntf    cn123101   2.843   1.268   2.103  0.1989  0.3254  0.1521
 3737ntf    sn223102   3.008   1.208   2.149  0.2260  0.1735 -0.1440
 3737ntf    nn323103   2.961   1.076   2.220  0.0174  0.1091 -0.3980
 3737ntf    sn223104   3.037   1.006   2.339 -0.4037  0.0042 -0.1900
 3737ntf    cn123105   2.955   1.086   2.480  0.1892 -0.0733  0.2018
 3737ntf    fn423106   2.761   1.253   2.206  0.2482  0.3444  0.1941
 3737ntf    fn423107   2.853   1.396   2.075 -0.1112  0.2842 -0.1506
 3737ntf    fn423108   2.795   1.203   1.998  0.2961  0.2995  0.1240
 3737ntf    on523109   3.069   1.181   2.021 -0.0072  0.3059 -0.2822
 3737ntf    on523110   3.055   1.318   2.229 -0.2027  0.3518 -0.1362
 3737ntf    on523111   3.174   1.047   2.352 -0.4368 -0.0505  0.3346
 3737ntf    on523112   2.999   0.868   2.357  0.0522 -0.0521  0.3528
 3737ntf    fn423113   2.837   1.035   2.510  0.2704 -0.2529  0.2114
 3737ntf    fn423114   3.022   1.072   2.593 -0.4611  0.3600  0.6493
 3737ntf    fn423115   2.941   1.215   2.455  0.0351 -0.0983  0.1551
 3738ntf    cn123116   6.783   4.553   2.826 -0.0818 -0.4580 -0.4054
 3738ntf    sn223117   6.811   4.681   2.700  0.2345 -0.2779 -0.1547
 3738ntf    nn323118   6.960   4.720   2.727  0.1636 -0.0695 -0.0602
 3738ntf    sn223119   7.078   4.733   2.624  0.0946  0.1977 -0.1060
 3738ntf    cn123120   7.157   4.571   2.644 -0.0004  0.1704  0.0545
 3738ntf    fn423121   6.779   4.597   2.951 -0.6449 -0.2972 -0.4761
 3738ntf    fn423122   6.670   4.486   2.811 -0.2978 -0.2732  0.3533
 3738ntf    fn423123   6.875   4.459   2.816  0.5362  0.0422  0.4142
 3738ntf    on523124   6.785   4.603   2.582 -0.0134 -0.1985 -0.1530
 3738ntf    on523125   6.714   4.782   2.736  0.3757 -0.0858 -0.3180
 3738ntf    on523126   7.180   4.827   2.666 -0.1852  0.1960  0.5966
 3738ntf    on523127   7.041   4.734   2.485  0.3373  0.7931 -0.1702
 3738ntf    fn423128   7.268   4.546   2.576 -0.2225 -0.3699 -0.1193
 3738ntf    fn423129   7.187   4.542   2.769 -0.2627 -0.1216  0.0513
 3738ntf    fn423130   7.073   4.474   2.609 -0.2411  0.2494  0.4085
 3739ntf    cn123131   4.010   1.404   3.683 -0.0850 -0.1492 -0.0001
 3739ntf    sn223132   4.042   1.332   3.846 -0.1904 -0.0661  0.0570
 3739ntf    nn323133   4.147   1.436   3.900  0.0161 -0.2092 -0.0701
 3739ntf    sn223134   4.226   1.414   4.034 -0.2042 -0.1004  0.0779
 3739ntf    cn123135   4.152   1.548   4.133  0.0030  0.1269 -0.0756
 3739ntf    fn423136   3.973   1.531   3.687 -0.3020 -0.2172  0.1447
 3739ntf    fn423137   4.119   1.397   3.608  0.0225 -0.1162  0.1522
 3739ntf    fn423138   3.905   1.346   3.626  0.1486 -0.7223  0.1478
 3739ntf    on523139   3.910   1.337   3.905 -0.2287  0.3767 -0.0653
 3739ntf    on523140   4.110   1.210   3.809  0.0348  0.1329 -0.1863
 3739ntf    on523141   4.366   1.444   4.029 -0.0907 -0.6781 -0.3976
 3739ntf    on523142   4.190   1.296   4.109 -0.2860  0.0803  0.3230
 3739ntf    fn423143   4.159   1.667   4.077 -0.0492  0.3373  0.3639
 3739ntf    fn423144   4.025   1.531   4.165  0.1578 -0.1602  0.3994
 3739ntf    fn423145   4.216   1.561   4.248 -0.0268 -0.1376 -0.0268
 3740ntf    cn123146   6.394   6.252   5.616  0.0839  0.0685  0.0352
 3740ntf    sn223147   6.338   6.423   5.639  0.0071  0.0171  0.2302
 3740ntf    nn323148   6.187   6.400   5.673 -0.1740 -0.2340 -0.6933
 3740ntf    sn223149   6.079   6.505   5.718  0.0599 -0.2587 -0.0562
 3740ntf    cn123150   6.085   6.466   5.895  0.2162 -0.0005 -0.0053
 3740ntf    fn423151   6.333   6.190   5.516  0.4067 -0.7737  0.3514
 3740ntf    fn423152   6.524   6.240   5.592  0.0973  0.3118 -0.0167
 3740ntf    fn423153   6.362   6.175   5.718  0.2774 -0.1167 -0.0410
 3740ntf    on523154   6.414   6.481   5.747 -0.4600  0.0980  0.5138
 3740ntf    on523155   6.361   6.485   5.510  0.2283 -0.5123  0.0100
 3740ntf    on523156   5.946   6.470   5.674 -0.2930  0.7179  0.2165
 3740ntf    on523157   6.120   6.642   5.708  0.1011 -0.2424  0.3360
 3740ntf    fn423158   6.200   6.508   5.946 -0.1559  0.6995  0.2753
 3740ntf    fn423159   5.984   6.516   5.965 -0.0530 -0.4757 -0.0521
 3740ntf    fn423160   6.087   6.336   5.923  0.3762 -0.1818 -0.8513
 3741ntf    cn123161   2.843   3.218   0.952 -0.1146  0.0910  0.1082
 3741ntf    sn223162   2.961   3.345   0.898 -0.2289  0.0335 -0.2820
 3741ntf    nn323163   2.902   3.467   0.977  0.3844  0.2068 -0.0869
 3741ntf    sn223164   2.928   3.506   1.127  0.4171 -0.1875  0.0108
 3741ntf    cn123165   2.760   3.504   1.197  0.2849 -0.3062 -0.3124
 3741ntf    fn423166   2.833   3.119   0.866 -0.2191  0.3524 -0.1834
 3741ntf    fn423167   2.861   3.167   1.072  0.1168 -0.3890 -0.1291
 3741ntf    fn423168   2.721   3.270   0.947  0.1360  0.6665 -0.2020
 3741ntf    on523169   3.087   3.291   0.945 -0.3279  0.4074  0.4330
 3741ntf    on523170   2.940   3.357   0.756 -0.8568  0.1924 -0.1766
 3741ntf    on523171   2.966   3.644   1.146 -0.7823  0.2909 -0.9342
 3741ntf    on523172   2.988   3.410   1.216  0.2759 -0.1306  0.1696
 3741ntf    fn423173   2.762   3.556   1.318 -0.2049 -0.4672 -0.2322
 3741ntf    fn423174   2.681   3.576   1.119 -0.1986  0.1375  0.5811
 3741ntf    fn423175   2.702   3.385   1.209  0.6709 -0.4657 -0.0360
 3742ntf    cn123176   4.283   1.105   4.969  0.0743 -0.2971 -0.4444
 3742ntf    sn223177   4.366   1.256   4.910 -0.0855  0.0901  0.3196
 3742ntf    nn323178   4.256   1.308   4.810  0.1983  0.0905  0.0091
 3742ntf    sn223179   4.240   1.272   4.658 -0.3262  0.1092  0.0585
 3742ntf    cn123180   4.060   1.254   4.648 -0.3018 -0.0682 -0.0763
 3742ntf    fn423181   4.337   1.056   5.079  0.0854  0.1266 -0.2602
 3742ntf    fn423182   4.159   1.120   5.010  0.1717 -0.8059  0.0521
 3742ntf    fn423183   4.285   1.008   4.878  0.2118 -0.4024 -0.3299
 3742ntf    on523184   4.373   1.336   5.030 -0.4070  0.0937  0.3394
 3742ntf    on523185   4.492   1.217   4.853 -0.3110  0.0409 -0.1540
 3742ntf    on523186   4.284   1.139   4.621  0.3164  0.1593  0.6222
 3742ntf    on523187   4.274   1.376   4.563 -0.5739  0.0856 -0.0564
 3742ntf    fn423188   4.018   1.216   4.528  0.0092 -0.2021 -0.1425
 3742ntf    fn423189   4.014   1.162   4.731  0.2814 -0.0351  0.2852
 3742ntf    fn423190   4.005   1.371   4.677 -0.4937 -0.1782  0.0044
 3743ntf    cn123191   5.042   0.561   6.657 -0.0953  0.1807 -0.3097
 3743ntf    sn223192   4.866   0.563   6.611 -0.0774 -0.2731 -0.4009
 3743ntf    nn323193   4.873   0.688   6.516 -0.1213  0.1768  0.1815
 3743ntf    sn223194   4.858   0.684   6.360  0.3480 -0.2005  0.1417
 3743ntf    cn123195   4.711   0.790   6.341  0.2624 -0.4069 -0.3537
 3743ntf    fn423196   5.118   0.573   6.549 -0.1449  0.6382 -0.2948
 3743ntf    fn423197   5.072   0.669   6.728  0.8057 -0.0444 -0.3302
 3743ntf    fn423198   5.086   0.456   6.726 -0.0550 -0.0114 -0.6223
 3743ntf    on523199   4.833   0.432   6.560  0.0541 -0.0499 -1.0724
 3743ntf    on523200   4.804   0.606   6.734  0.7743 -0.0121 -0.0551
 3743ntf    on523201   4.816   0.561   6.298 -0.1676  0.1046 -0.1234
 3743ntf    on523202   4.961   0.761   6.295 -0.3442  0.6394  0.0211
 3743ntf    fn423203   4.684   0.819   6.215  0.3911  0.3677 -0.2053
 3743ntf    fn423204   4.605   0.733   6.395  0.3833 -0.3081 -0.0130
 3743ntf    fn423205   4.726   0.908   6.398 -0.3552 -0.1697 -0.6706
 3744ntf    cn123206   3.977   3.187   5.676 -0.3550 -0.1080 -0.0291
 3744ntf    sn223207   3.994   3.040   5.781 -0.1453 -0.0569  0.0090
 3744ntf    nn323208   4.071   2.941   5.686 -0.0014 -0.2079  0.2830
 3744ntf    sn223209   4.026   2.872   5.553  0.2109  0.0160  0.0945
 3744ntf    cn123210   3.958   2.721   5.628 -0.0134  0.2154  0.2951
 3744ntf    fn423211   4.094   3.232   5.635 -0.3387  0.1027  0.2463
 3744ntf    fn423212   3.904   3.178   5.566 -0.0915  0.2751 -0.2382
 3744ntf    fn423213   3.935   3.297   5.738  0.2366  0.2781 -0.3066
 3744ntf    on523214   4.074   3.085   5.893 -0.1686  0.3179 -0.1260
 3744ntf    on523215   3.857   3.005   5.809 -0.0565 -0.1488  0.3415
 3744ntf    on523216   4.140   2.827   5.477  0.3339  0.0903  0.2339
 3744ntf    on523217   3.907   2.922   5.488  0.0330  0.2421  0.5888
 3744ntf    fn423218   3.845   2.748   5.691 -0.2413 -0.2374  0.0905
 3744ntf    fn423219   3.935   2.626   5.538 -0.2078  0.0607  0.5084
 3744ntf    fn423220   4.042   2.661   5.710  0.5471 -0.0666 -0.4675
 3745ntf    cn123221   6.087   5.620   3.325 -0.2172 -0.2308  0.6748
 3745ntf    sn223222   5.990   5.528   3.202  0.1284  0.2347  0.0453
 3745ntf    nn323223   5.965   5.392   3.277  0.4676  0.3968  0.4568
 3745ntf    sn223224   6.058   5.265   3.269  0.0868  0.1376  0.0496
 3745ntf    cn123225   6.067   5.238   3.449  0.2428  0.0541  0.0296
 3745ntf    fn423226   6.051   5.747   3.332 -0.4292 -0.2301 -0.2671
 3745ntf    fn423227   6.085   5.569   3.448  0.1099 -0.0401  0.7605
 3745ntf    fn423228   6.215   5.632   3.292 -0.3513 -0.3257  0.1240
 3745ntf    on523229   5.862   5.595   3.196  0.0178  0.0301  0.0723
 3745ntf    on523230   6.070   5.528   3.083  0.2273  0.4491  0.1130
 3745ntf    on523231   6.195   5.286   3.230  0.0403  0.0397 -0.1629
 3745ntf    on523232   5.992   5.144   3.229 -0.0410  0.0921  0.3911
 3745ntf    fn423233   5.957   5.173   3.484  0.5570 -0.5508 -0.0980
 3745ntf    fn423234   6.168   5.170   3.501  0.3352  0.0744 -0.1228
 3745ntf    fn423235   6.069   5.354   3.512  0.3462  0.0091  0.1085
 3746ntf    cn123236   0.781   5.091   4.001  0.0023  0.3500 -0.0056
 3746ntf    sn223237   0.792   5.180   3.843  0.1462  0.4221  0.0447
 3746ntf    nn323238   0.676   5.285   3.856 -0.2309  0.0016  0.0910
 3746ntf    sn223239   0.682   5.436   3.897  0.0215  0.0763 -0.2160
 3746ntf    cn123240   0.699   5.511   3.732  0.1459  0.0119 -0.2330
 3746ntf    fn423241   0.658   5.048   4.022  0.0443  0.1331 -0.2032
 3746ntf    fn423242   0.863   4.988   4.009 -0.1763  0.2310  0.3228
 3746ntf    fn423243   0.809   5.175   4.100 -0.8154  0.3986  0.1879
 3746ntf    on523244   0.923   5.239   3.849  0.1108  0.4984  0.0690
 3746ntf    on523245   0.771   5.084   3.737  0.2164  0.2938  0.1467
 3746ntf    on523246   0.795   5.468   3.981  0.1513  0.0038 -0.3626
 3746ntf    on523247   0.555   5.491   3.938 -0.0666  0.0642 -0.4732
 3746ntf    fn423248   0.703   5.643   3.728  0.4599  0.0023 -0.2527
 3746ntf    fn423249   0.813   5.467   3.682  0.2983 -0.0489  0.1628
 3746ntf    fn423250   0.603   5.457   3.658 -0.1181  0.1212  0.0268
 3747ntf    cn123251   2.275   2.979   4.163 -0.0322  0.2505 -0.2810
 3747ntf    sn223252   2.447   2.950   4.216 -0.0594  0.2463 -0.1943
 3747ntf    nn323253   2.429   2.981   4.369 -0.0664 -0.2797 -0.0866
 3747ntf    sn223254   2.420   2.893   4.498 -0.3488  0.0674  0.1330
 3747ntf    cn123255   2.590   2.920   4.558 -0.2195 -0.2629 -0.0777
 3747ntf    fn423256   2.194   2.890   4.217 -0.0828  0.3211 -0.2406
 3747ntf    fn423257   2.227   3.098   4.194 -0.1508  0.1596 -0.1180
 3747ntf    fn423258   2.261   2.967   4.032 -0.1805 -0.0710 -0.2361
 3747ntf    on523259   2.488   2.818   4.174 -0.1779 -0.0057  0.4742
 3747ntf    on523260   2.517   3.054   4.145  0.3700 -0.0168 -0.1561
 3747ntf    on523261   2.407   2.753   4.466  0.3931  0.0366 -0.0648
 3747ntf    on523262   2.329   2.953   4.592 -0.4256  0.6739 -0.3251
 3747ntf    fn423263   2.628   2.813   4.625 -0.0133  0.1345  0.4480
 3747ntf    fn423264   2.683   2.930   4.464  0.5719 -0.1257  0.7144
 3747ntf    fn423265   2.605   3.029   4.632 -0.1834 -0.1067 -0.3137
 3748ntf    cn123266   4.296   1.796   6.427  0.1528  0.0212  0.2499
 3748ntf    sn223267   4.248   1.652   6.328 -0.1098  0.1394  0.2053
 3748ntf    nn323268   4.217   1.555   6.447 -0.0103  0.1169  0.2131
 3748ntf    sn223269   4.080   1.487   6.481  0.0309 -0.1412 -0.1389
 3748ntf    cn123270   4.066   1.350   6.362 -0.0523 -0.1378 -0.1326
 3748ntf    fn423271   4.391   1.772   6.517  0.2022  0.0388  0.2032
 3748ntf    fn423272   4.348   1.893   6.354  0.9862 -0.4149  0.2431
 3748ntf    fn423273   4.190   1.842   6.490 -0.0816 -0.0890 -0.0624
 3748ntf    on523274   4.137   1.689   6.243 -0.1640 -0.6716 -0.0897
 3748ntf    on523275   4.370   1.606   6.264 -0.4199 -0.3724 -0.0280
 3748ntf    on523276   3.964   1.569   6.460 -0.1152 -0.2940  0.0656
 3748ntf    on523277   4.078   1.419   6.609  0.3799 -0.2857 -0.2073
 3748ntf    fn423278   4.176   1.277   6.370 -0.1920 -0.3549 -0.1867
 3748ntf    fn423279   3.959   1.276   6.385 -0.5242  0.6089  0.0931
 3748ntf    fn423280   4.049   1.393   6.239 -0.5786  0.3310  0.1032
 3749ntf    cn123281   0.231   3.982   3.932  0.0370  0.3067  0.1478
 3749ntf    sn223282   0.376   3.881   3.889 -0.1130  0.0089  0.3371
 3749ntf    nn323283   0.442   3.847   4.027  0.0404  0.0182  0.2664
 3749ntf    sn223284   0.511   3.951   4.122 -0.2923  0.3573  0.1387
 3749ntf    cn123285   0.406   3.943   4.270 -0.0550 -0.1165  0.2844
 3749ntf    fn423286   0.167   4.023   3.824 -0.2013 -0.0719  0.1443
 3749ntf    fn423287   0.149   3.915   4.010  0.4838 -0.1579  0.2215
 3749ntf    fn423288   0.257   4.095   3.997  0.2622  0.1061  0.4055
 3749ntf    on523289   0.313   3.771   3.820 -0.4694  0.6133 -0.3209
 3749ntf    on523290   0.455   3.971   3.808  0.3846 -0.8473 -0.1475
 3749ntf    on523291   0.508   4.090   4.084 -0.4278  0.2442 -0.2735
 3749ntf    on523292   0.634   3.898   4.176 -0.5990 -0.2044  0.2873
 3749ntf    fn423293   0.281   3.976   4.243 -0.1308 -0.3026  0.4092
 3749ntf    fn423294   0.398   3.820   4.316 -0.2448 -0.2511 -0.1030
 3749ntf    fn423295   0.444   4.016   4.374 -0.4624  0.6104 -0.0686
 3750ntf    cn123296   2.352   4.302   0.571  0.2142 -0.2465  0.2435
 3750ntf    sn223297   2.250   4.224   0.701 -0.0828 -0.1413  0.0747
 3750ntf    nn323298   2.180   4.351   0.760  0.1870 -0.1244  0.3630
 3750ntf    sn223299   2.035   4.401   0.723  0.3361 -0.0885 -0.1887
 3750ntf    cn123300   2.058   4.581   0.725  0.0203 -0.0498  0.1822
 3750ntf    fn423301   2.440   4.383   0.628  0.3216 -0.0326 -0.2298
 3750ntf    fn423302   2.422   4.211   0.506  0.5086  0.0586  0.1354
 3750ntf    fn423303   2.290   4.371   0.477  0.5170 -0.0281  0.2033
 3750ntf    on523304   2.165   4.129   0.634 -0.2726  0.0376  0.0602
 3750ntf    on523305   2.346   4.177   0.798  0.2030  0.1688 -0.0524
 3750ntf    on523306   1.938   4.378   0.827  0.7148  0.1384  0.2203
 3750ntf    on523307   1.995   4.375   0.587  0.5289 -0.0313 -0.2576
 3750ntf    fn423308   1.954   4.645   0.673  0.0116  0.1216  0.4093
 3750ntf    fn423309   2.076   4.629   0.847 -0.1239 -0.4256  0.3514
 3750ntf    fn423310   2.156   4.619   0.644  0.3426 -0.6576  0.2834
 3751ntf    cn123311   4.886   5.725   6.346  0.5394 -0.1812 -0.2268
 3751ntf    sn223312   5.065   5.753   6.357  0.4896  0.1927 -0.3321
 3751ntf    nn323313   5.083   5.835   6.224  0.0225  0.2526 -0.3583
 3751ntf    sn223314   5.123   5.987   6.223  0.1930  0.2105 -0.0260
 3751ntf    cn123315   5.146   6.020   6.046  0.1313  0.1944 -0.0368
 3751ntf    fn423316   4.846   5.639   6.254 -0.0634 -0.5022  0.3260
 3751ntf    fn423317   4.827   5.691   6.459  0.0188  0.0182 -0.4356
 3751ntf    fn423318   4.826   5.839   6.315  0.3496 -0.2228 -0.0169
 3751ntf    on523319   5.073   5.816   6.486 -0.3331 -0.2925 -0.0410
 3751ntf    on523320   5.120   5.619   6.353 -0.3866 -0.1990  0.4144
 3751ntf    on523321   5.251   6.007   6.287 -0.0245  0.4109  0.3457
 3751ntf    on523322   5.017   6.075   6.263 -0.2661 -0.2435 -0.2390
 3751ntf    fn423323   5.191   6.142   6.026  0.5322  0.0432 -0.0617
 3751ntf    fn423324   5.232   5.939   5.987 -0.0089 -0.0944  0.1514
 3751ntf    fn423325   5.028   6.011   5.987  0.0500 -0.2160  0.1850
 3752ntf    cn123326   5.248   0.447   4.506  0.2398 -0.1902  0.1204
 3752ntf    sn223327   5.301   0.608   4.441  0.0927 -0.1420  0.1181
 3752ntf    nn323328   5.167   0.687   4.462  0.1533 -0.0417  0.1277
 3752ntf    sn223329   5.151   0.841   4.489  0.1000 -0.0158 -0.0486
 3752ntf    cn123330   5.064   0.869   4.332  0.1291  0.0285 -0.0571
 3752ntf    fn423331   5.211   0.455   4.633  0.3358 -0.0033  0.1363
 3752ntf    fn423332   5.143   0.395   4.445  0.3094 -0.0674 -0.1030
 3752ntf    fn423333   5.346   0.360   4.494 -0.3532 -0.8081 -0.3214
 3752ntf    on523334   5.410   0.644   4.527 -0.1109  0.1653  0.2475
 3752ntf    on523335   5.333   0.599   4.300  0.2809  0.0614  0.1481
 3752ntf    on523336   5.268   0.924   4.478  0.0049  0.1618  0.2609
 3752ntf    on523337   5.052   0.883   4.585  0.1030 -0.1202  0.0003
 3752ntf    fn423338   4.945   0.812   4.322  0.3321 -0.4680  0.3158
 3752ntf    fn423339   5.030   0.997   4.321  0.5115  0.1505  0.1424
 3752ntf    fn423340   5.139   0.835   4.228 -0.1333 -0.5540 -0.0572
 3753ntf    cn123341   1.441   0.257   3.949  0.2345  0.0194  0.4070
 3753ntf    sn223342   1.360   0.374   4.062 -0.0256  0.2033  0.0326
 3753ntf    nn323343   1.210   0.347   4.025  0.1279 -0.3140 -0.2179
 3753ntf    sn223344   1.098   0.441   3.969  0.0056 -0.2262  0.1699
 3753ntf    cn123345   0.950   0.355   4.028 -0.3665  0.3059  0.0212
 3753ntf    fn423346   1.388   0.260   3.828  0.1655  0.3830  0.4465
 3753ntf    fn423347   1.565   0.296   3.926  0.1373  0.2414  0.2585
 3753ntf    fn423348   1.434   0.130   3.985  0.0099  0.0008  0.3008
 3753ntf    on523349   1.397   0.337   4.196  0.5336  0.1965 -0.1189
 3753ntf    on523350   1.414   0.502   4.024 -0.0925  0.1089 -0.3833
 3753ntf    on523351   1.091   0.439   3.825 -0.0600  0.0951  0.1686
 3753ntf    on523352   1.093   0.570   4.034 -0.1344 -0.3052  0.3165
 3753ntf    fn423353   0.926   0.237   3.974  0.0451  0.3827 -0.3342
 3753ntf    fn423354   0.958   0.334   4.158  0.0696 -0.1722 -0.0802
 3753ntf    fn423355   0.838   0.422   4.007 -0.5810 -0.1591 -0.3476
 3754ntf    cn123356   0.890   3.907   1.912  0.2318 -0.1163 -0.2645
 3754ntf    sn223357   0.879   4.058   2.013 -0.1400 -0.4103  0.1391
 3754ntf    nn323358   0.973   4.153   1.930 -0.0544 -0.3907  0.2594
 3754ntf    sn223359   1.130   4.154   1.939 -0.0481  0.2623  0.1175
 3754ntf    cn123360   1.160   4.277   2.069  0.2599  0.0554  0.2434
 3754ntf    fn423361   1.008   3.848   1.928 -0.0000 -0.5181 -0.0066
 3754ntf    fn423362   0.792   3.827   1.949  0.1688 -0.0325 -0.2502
 3754ntf    fn423363   0.880   3.927   1.782  0.0519  0.5261 -0.1530
 3754ntf    on523364   0.739   4.093   2.004  0.0354  0.2077 -0.2224
 3754ntf    on523365   0.932   4.020   2.141 -0.6515 -0.0467  0.4612
 3754ntf    on523366   1.184   4.216   1.821 -0.5621  0.7305  0.1209
 3754ntf    on523367   1.188   4.032   1.990  0.1324  0.3305  0.0752
 3754ntf    fn423368   1.109   4.239   2.185  0.2180  0.0117  0.2106
 3754ntf    fn423369   1.289   4.290   2.093  0.2549  0.2646  0.1574
 3754ntf    fn423370   1.108   4.397   2.046 -0.2991 -0.2717 -0.1979
 3755ntf    cn123371   3.526   4.853   0.603  0.3029 -0.0725  0.1357
 3755ntf    sn223372   3.596   4.784   0.449  0.0031 -0.0461 -0.0124
 3755ntf    nn323373   3.742   4.746   0.493 -0.0233  0.2117  0.3061
 3755ntf    sn223374   3.873   4.831   0.478 -0.0133  0.0891 -0.3540
 3755ntf    cn123375   3.951   4.807   0.641 -0.5255 -0.2911 -0.1594
 3755ntf    fn423376   3.526   4.767   0.703  0.1359 -0.4095 -0.1489
 3755ntf    fn423377   3.590   4.960   0.645 -0.0726  0.2286 -0.0539
 3755ntf    fn423378   3.402   4.896   0.594  0.4132  0.1841 -0.1664
 3755ntf    on523379   3.520   4.664   0.423 -0.7605  0.4529 -0.1169
 3755ntf    on523380   3.589   4.883   0.345 -0.1366 -0.1502 -0.1030
 3755ntf    on523381   3.852   4.973   0.477 -0.1669  0.0693 -0.0313
 3755ntf    on523382   3.972   4.772   0.391 -0.0850 -0.0408 -0.3494
 3755ntf    fn423383   4.076   4.850   0.635 -0.5460 -0.1511  0.4267
 3755ntf    fn423384   3.882   4.857   0.741  0.2915  0.0999  0.2136
 3755ntf    fn423385   3.956   4.680   0.678 -0.3547 -0.2916 -0.1823
 3756ntf    cn123386   5.306   5.654   6.948  0.2626 -0.1483 -0.3088
 3756ntf    sn223387   5.482   5.616   6.973  0.2617 -0.0304 -0.1119
 3756ntf    nn323388   5.508   5.507   6.863 -0.2163  0.4071 -0.6707
 3756ntf    sn223389   5.541   5.524   6.711  0.6240  0.3611 -0.5010
 3756ntf    cn123390   5.722   5.531   6.723  0.5958  0.0311  0.1394
 3756ntf    fn423391   5.253   5.728   7.045  0.3826  0.0651 -0.4059
 3756ntf    fn423392   5.292   5.733   6.843 -0.6884 -0.1609 -0.1989
 3756ntf    fn423393   5.234   5.545   6.930 -0.0195 -0.0618  0.2573
 3756ntf    on523394   5.557   5.739   6.958 -0.2885  0.3552  0.2430
 3756ntf    on523395   5.484   5.560   7.105  0.1181  0.3606  0.0594
 3756ntf    on523396   5.514   5.656   6.660  0.2459  0.3848 -0.2448
 3756ntf    on523397   5.511   5.409   6.629  0.1267  0.1323 -0.0065
 3756ntf    fn423398   5.780   5.483   6.615  0.7320  0.1783  0.1465
 3756ntf    fn423399   5.770   5.653   6.741  0.4921  0.1319 -0.2564
 3756ntf    fn423400   5.766   5.462   6.827  0.3604 -0.2222  0.0696
 3757ntf    cn123401   1.985   4.614   6.315  0.2879  0.3421 -0.5942
 3757ntf    sn223402   2.164   4.643   6.318  0.2671  0.4003  0.2236
 3757ntf    nn323403   2.189   4.614   6.166 -0.1391  0.2980  0.1764
 3757ntf    sn223404   2.193   4.715   6.046 -0.3265  0.1259  0.0240
 3757ntf    cn123405   2.368   4.761   6.061 -0.4249  0.3975  0.3500
 3757ntf    fn423406   1.927   4.662   6.206 -0.4532  0.7088 -0.0554
 3757ntf    fn423407   1.945   4.488   6.317  0.2294  0.3661 -0.1337
 3757ntf    fn423408   1.924   4.663   6.422  0.1641 -0.3936 -0.3243
 3757ntf    on523409   2.188   4.778   6.363 -0.0483  0.5518 -0.0597
 3757ntf    on523410   2.209   4.531   6.396 -0.0882  0.0942 -0.0068
 3757ntf    on523411   2.125   4.841   6.065 -0.5520 -0.0899  0.6870
 3757ntf    on523412   2.178   4.647   5.920  0.5576 -0.2730  0.1253
 3757ntf    fn423413   2.401   4.798   6.184  0.6419 -0.1549  0.2330
 3757ntf    fn423414   2.453   4.665   6.029 -0.1786  0.7599 -0.0941
 3757ntf    fn423415   2.409   4.853   5.975 -0.1271  0.4504  0.5482
 3758ntf    cn123416   1.236   2.716   2.950  0.1517  0.0197  0.0097
 3758ntf    sn223417   1.170   2.615   3.086  0.2828 -0.1401 -0.0455
 3758ntf    nn323418   1.236   2.481   3.039 -0.0720 -0.2770 -0.1550
 3758ntf    sn223419   1.180   2.381   2.931 -0.1381 -0.3534 -0.0492
 3758ntf    cn123420   1.079   2.278   3.042 -0.1176 -0.1295  0.1795
 3758ntf    fn423421   1.212   2.845   2.970 -0.0696  0.0082 -0.1770
 3758ntf    fn423422   1.367   2.710   2.933  0.0376 -0.1289 -0.8495
 3758ntf    fn423423   1.177   2.689   2.835  0.0380 -0.4091  0.1704
 3758ntf    on523424   1.239   2.657   3.206  0.5879  0.6281 -0.4836
 3758ntf    on523425   1.026   2.626   3.079  0.2764  0.3403  0.7025
 3758ntf    on523426   1.277   2.286   2.885  0.4046 -0.0528  0.4519
 3758ntf    on523427   1.087   2.433   2.834  0.1140 -0.0231 -0.1158
 3758ntf    fn423428   1.038   2.169   2.980  0.4993 -0.1462 -0.2105
 3758ntf    fn423429   1.152   2.250   3.149  0.1306  0.2957  0.1229
 3758ntf    fn423430   0.967   2.336   3.082 -0.0456 -0.0559  0.2743
 3759ntf    cn123431   3.032   5.230   4.997  0.2573 -0.0096  0.0737
 3759ntf    sn223432   3.005   5.112   4.861  0.0584  0.1399 -0.0170
 3759ntf    nn323433   2.849   5.105   4.878  0.0614 -0.2668 -0.1450
 3759ntf    sn223434   2.764   4.977   4.911 -0.3205  0.1150  0.3784
 3759ntf    cn123435   2.792   4.966   5.090 -0.0638 -0.2230  0.3184
 3759ntf    fn423436   3.159   5.253   5.025  0.0822  0.7936  0.2280
 3759ntf    fn423437   2.983   5.349   4.966 -0.1288 -0.3322 -0.5870
 3759ntf    fn423438   2.971   5.192   5.108 -0.0206  0.3332  0.0416
 3759ntf    on523439   3.053   5.181   4.744  0.3222  0.2746  0.1700
 3759ntf    on523440   3.081   4.996   4.902  0.2253  0.0379 -0.6093
 3759ntf    on523441   2.819   4.849   4.871  0.0499  0.3977 -0.0313
 3759ntf    on523442   2.622   4.994   4.894 -0.3337 -0.2931  0.0673
 3759ntf    fn423443   2.754   5.071   5.160 -0.2105  0.0792 -0.2121
 3759ntf    fn423444   2.736   4.860   5.145  0.0854 -0.5256 -0.1078
 3759ntf    fn423445   2.923   4.960   5.105  0.0073 -0.1880 -0.2479
 3760ntf    cn123446   5.054   1.965   6.276  0.1014 -0.1474 -0.2666
 3760ntf    sn223447   4.961   2.021   6.422  0.5006  0.0070 -0.0686
 3760ntf    nn323448   4.956   1.893   6.512  0.5040 -0.3360 -0.5548
 3760ntf    sn223449   5.062   1.843   6.616  0.1004 -0.0237  0.0130
 3760ntf    cn123450   4.993   1.926   6.762  0.0150 -0.2154  0.0819
 3760ntf    fn423451   4.993   1.868   6.210 -0.2406  0.1087 -0.3258
 3760ntf    fn423452   5.085   2.058   6.187 -0.1296 -0.0452 -0.2408
 3760ntf    fn423453   5.165   1.902   6.312  0.3370  0.1365 -0.4943
 3760ntf    on523454   5.031   2.135   6.476  0.3756  0.2172 -0.3474
 3760ntf    on523455   4.834   2.052   6.361  0.1246 -0.1313  0.6303
 3760ntf    on523456   5.200   1.884   6.610 -0.1268  0.7366 -0.0741
 3760ntf    on523457   5.039   1.702   6.637  0.3316 -0.0498  0.1035
 3760ntf    fn423458   4.864   1.909   6.783 -0.0248  0.2217  0.1968
 3760ntf    fn423459   5.053   1.890   6.874 -0.5650  0.1064  0.5022
 3760ntf    fn423460   5.001   2.058   6.755  0.3269 -0.2718 -0.7476
 3761ntf    cn123461   2.725   3.282   6.183  0.1156 -0.1399  0.0323
 3761ntf    sn223462   2.563   3.261   6.103  0.0565  0.2104  0.0618
 3761ntf    nn323463   2.484   3.388   6.152  0.5246  0.3352  0.4996
 3761ntf    sn223464   2.469   3.535   6.096 -0.4071 -0.0386 -0.2657
 3761ntf    cn123465   2.491   3.621   6.255  0.5835  0.0979 -0.4705
 3761ntf    fn423466   2.762   3.408   6.194  0.3768 -0.2366  0.2806
 3761ntf    fn423467   2.721   3.228   6.304 -0.4454  0.1210  0.1367
 3761ntf    fn423468   2.825   3.222   6.121  0.1964 -0.3010  0.3168
 3761ntf    on523469   2.584   3.247   5.962 -0.1594 -0.0768  0.0558
 3761ntf    on523470   2.509   3.144   6.168 -0.2594 -0.0399 -0.6453
 3761ntf    on523471   2.340   3.582   6.055 -0.6132  0.0353  0.4569
 3761ntf    on523472   2.579   3.580   6.015 -0.2963 -0.4050 -0.3227
 3761ntf    fn423473   2.490   3.753   6.239 -0.0327  0.1160 -0.2891
 3761ntf    fn423474   2.398   3.591   6.343  0.2850 -0.0067 -0.8178
 3761ntf    fn423475   2.606   3.584   6.308  0.2223 -0.5147 -0.1067
 3762ntf    cn123476   6.009   3.976   1.774 -0.1873 -0.5213  0.3139
 3762ntf    sn223477   6.027   3.797   1.747 -0.1261 -0.4294 -0.2509
 3762ntf    nn323478   6.120   3.794   1.620  0.0360  0.0543 -0.1467
 3762ntf    sn223479   6.274   3.762   1.612  0.0502  0.0141  0.2736
 3762ntf    cn123480   6.290   3.634   1.484  0.1165 -0.2092  0.5044
 3762ntf    fn423481   5.948   4.016   1.885 -0.2297 -0.0729  0.1319
 3762ntf    fn423482   6.126   4.037   1.773 -0.3647 -0.1833 -0.5175
 3762ntf    fn423483   5.940   4.022   1.671 -0.3966 -0.0272  0.6692
 3762ntf    on523484   6.079   3.756   1.875  0.4688  0.4957 -0.1843
 3762ntf    on523485   5.893   3.756   1.715 -0.1326 -0.1956 -0.5346
 3762ntf    on523486   6.319   3.690   1.729 -0.3100 -0.6390  0.0194
 3762ntf    on523487   6.356   3.868   1.560 -0.2434 -0.0596 -0.3513
 3762ntf    fn423488   6.234   3.519   1.518 -0.6596  0.0604  0.1799
 3762ntf    fn423489   6.241   3.656   1.363  0.4600 -0.0131  0.4019
 3762ntf    fn423490   6.419   3.610   1.468  0.0445 -0.2200 -0.0721
 3763ntf    cn123491   5.480   2.473   3.796 -0.0539  0.2348 -0.1387
 3763ntf    sn223492   5.632   2.545   3.727  0.1758 -0.0325  0.0835
 3763ntf    nn323493   5.725   2.528   3.853  0.0448 -0.6631  0.0961
 3763ntf    sn223494   5.743   2.625   3.975 -0.1476  0.0084 -0.4020
 3763ntf    cn123495   5.876   2.725   3.903  0.0713  0.0274  0.0311
 3763ntf    fn423496   5.369   2.533   3.759 -0.2976  0.0971  0.3545
 3763ntf    fn423497   5.467   2.345   3.763 -0.4771  0.3055 -0.2488
 3763ntf    fn423498   5.484   2.488   3.928 -0.1028 -0.2470 -0.0803
 3763ntf    on523499   5.666   2.457   3.618 -0.8226 -0.5915  0.2128
 3763ntf    on523500   5.603   2.682   3.693  0.4073 -0.1252 -0.5029
 3763ntf    on523501   5.796   2.550   4.087  0.0572  0.3836 -0.2482
 3763ntf    on523502   5.635   2.717   4.000 -0.0859 -0.0989  0.2714
 3763ntf    fn423503   5.926   2.809   3.993  0.5003 -0.4203  0.2206
 3763ntf    fn423504   5.981   2.649   3.876 -0.0122  0.0356 -0.3135
 3763ntf    fn423505   5.838   2.789   3.794 -0.2314  0.0264  0.1369
 3764ntf    cn123506   4.233   0.263   4.149  0.1361  0.0336  0.1112
 3764ntf    sn223507   4.370   0.376   4.109 -0.1274  0.3178  0.0080
 3764ntf    nn323508   4.333   0.419   3.963 -0.0147  0.4314  0.0132
 3764ntf    sn223509   4.411   0.452   3.831 -0.1810 -0.1196 -0.2249
 3764ntf    cn123510   4.382   0.291   3.752 -0.2004 -0.2477  0.0442
 3764ntf    fn423511   4.274   0.137   4.146 -0.4856 -0.1553 -0.6945
 3764ntf    fn423512   4.186   0.290   4.270  0.1914 -0.2045  0.1866
 3764ntf    fn423513   4.132   0.268   4.064  0.2477  0.4432 -0.0009
 3764ntf    on523514   4.357   0.486   4.202  0.4939 -0.1526  0.6616
 3764ntf    on523515   4.485   0.291   4.125 -0.0485  0.3083 -0.5967
 3764ntf    on523516   4.554   0.462   3.840 -0.1907  0.0216 -0.2132
 3764ntf    on523517   4.342   0.550   3.750  0.0303  0.1692 -0.0553
 3764ntf    fn423518   4.458   0.276   3.645  0.0599 -0.0416  0.1967
 3764ntf    fn423519   4.407   0.189   3.833 -0.1916  0.1197  0.5090
 3764ntf    fn423520   4.261   0.275   3.703 -0.0061 -0.2476 -0.4378
 3765ntf    cn123521   1.880   6.871   3.085 -0.1502 -0.0233  0.1915
 3765ntf    sn223522   1.807   6.928   3.242  0.2088  0.1389  0.3015
 3765ntf    nn323523   1.922   7.017   3.302  0.4143 -0.0695  0.2207
 3765ntf    sn223524   1.951   7.171   3.311  0.1691 -0.0048 -0.0740
 3765ntf    cn123525   1.870   7.212   3.468  0.3450 -0.2137  0.0718
 3765ntf    fn423526   1.797   6.795   3.017 -0.5373  0.5178  0.0586
 3765ntf    fn423527   1.904   6.980   3.015  0.2348 -0.0077  0.3434
 3765ntf    fn423528   1.992   6.804   3.107 -0.0627 -0.0539 -0.3450
 3765ntf    on523529   1.684   6.993   3.204  0.6987  0.5369 -0.6494
 3765ntf    on523530   1.796   6.804   3.315 -0.7002 -0.0855 -0.2076
 3765ntf    on523531   1.883   7.257   3.217 -0.6044 -0.3888  0.1298
 3765ntf    on523532   2.094   7.189   3.326  0.1891 -0.1395 -0.1023
 3765ntf    fn423533   1.887   7.340   3.497  0.4409 -0.1981 -0.0551
 3765ntf    fn423534   1.740   7.185   3.471  0.1998  0.5367  0.8622
 3765ntf    fn423535   1.916   7.147   3.574 -0.3971 -0.2281  0.3916
 3766ntf    cn123536   3.310   1.762   4.693 -0.0780 -0.2499  0.1100
 3766ntf    sn223537   3.198   1.896   4.743 -0.0421 -0.1035 -0.1965
 3766ntf    nn323538   3.189   1.886   4.900 -0.2202  0.1207 -0.1915
 3766ntf    sn223539   3.065   1.852   4.991 -0.0423 -0.4168 -0.1455
 3766ntf    cn123540   3.084   1.672   5.012 -0.0102 -0.3544  0.3743
 3766ntf    fn423541   3.282   1.641   4.738 -0.4195 -0.0807  0.3540
 3766ntf    fn423542   3.312   1.758   4.561 -0.3862 -0.3939  0.1093
 3766ntf    fn423543   3.432   1.780   4.741  0.0288  0.3735 -0.3773
 3766ntf    on523544   3.257   2.020   4.698 -0.4683  0.0441 -0.3464
 3766ntf    on523545   3.081   1.855   4.669 -0.0263 -0.1838 -0.1768
 3766ntf    on523546   2.938   1.881   4.931  0.0917 -0.0127 -0.2357
 3766ntf    on523547   3.078   1.907   5.124 -0.0502  0.2063 -0.3986
 3766ntf    fn423548   2.990   1.614   5.084 -0.2586 -0.3628  0.0443
 3766ntf    fn423549   3.082   1.602   4.900  0.2449 -0.2861  0.3260
 3766ntf    fn423550   3.199   1.644   5.070  0.1691  0.1492  0.2686
 3767ntf    cn123551   2.534   6.129   4.719  0.0697  0.2066  0.5451
 3767ntf    sn223552   2.633   6.187   4.859  0.1800  0.1231  0.5011
 3767ntf    nn323553   2.536   6.216   4.979 -0.3184  0.1870  0.0865
 3767ntf    sn223554   2.500   6.121   5.099 -0.0129 -0.0187  0.0175
 3767ntf    cn123555   2.647   6.128   5.206 -0.2283  0.2461  0.2979
 3767ntf    fn423556   2.611   6.064   4.634 -0.1536  0.6941 -0.0399
 3767ntf    fn423557   2.445   6.042   4.763 -0.0238 -0.0146 -0.0644
 3767ntf    fn423558   2.466   6.223   4.655  0.1808 -0.0213  0.0850
 3767ntf    on523559   2.731   6.083   4.876  0.2612  0.0397 -0.4537
 3767ntf    on523560   2.678   6.313   4.804 -0.0153 -0.0798 -0.1209
 3767ntf    on523561   2.488   5.982   5.062 -0.1385 -0.0499  0.1723
 3767ntf    on523562   2.401   6.178   5.187  0.3898 -0.2821  0.6516
 3767ntf    fn423563   2.631   6.040   5.304 -0.0330  0.0062  0.1157
 3767ntf    fn423564   2.754   6.098   5.135 -0.3668  0.1781  0.1176
 3767ntf    fn423565   2.668   6.250   5.253  0.0419  0.3629 -0.1224
 3768ntf    cn123566   1.060   4.719   5.687  0.3848  0.0032  0.0512
 3768ntf    sn223567   1.134   4.600   5.803 -0.2523 -0.2220  0.2299
 3768ntf    nn323568   1.005   4.529   5.858 -0.2562 -0.7378 -0.4358
 3768ntf    sn223569   0.973   4.489   6.006 -0.2202 -0.1780 -0.2741
 3768ntf    cn123570   0.882   4.636   6.062 -0.2853 -0.2523 -0.1825
 3768ntf    fn423571   0.954   4.662   5.632  0.3617 -0.1433  0.2430
 3768ntf    fn423572   1.022   4.831   5.746 -0.2134 -0.1496 -0.0376
 3768ntf    fn423573   1.136   4.755   5.586 -0.2130 -0.2737 -0.5069
 3768ntf    on523574   1.213   4.515   5.717 -0.3193 -0.2585  0.2033
 3768ntf    on523575   1.191   4.686   5.904  0.5846 -0.1129 -0.3344
 3768ntf    on523576   1.082   4.491   6.100  0.0809  0.2293 -0.6321
 3768ntf    on523577   0.885   4.374   6.016  0.1005 -0.4615 -0.6750
 3768ntf    fn423578   0.828   4.603   6.178 -0.1508 -0.0219 -0.0524
 3768ntf    fn423579   0.962   4.740   6.076  0.0283 -0.4364 -0.5888
 3768ntf    fn423580   0.794   4.668   5.968 -0.0692  0.1281 -0.2582
 3769ntf    cn123581   4.700   1.889   5.734  0.0044 -0.2186 -0.1236
 3769ntf    sn223582   4.738   1.711   5.739 -0.0658 -0.2334 -0.1152
 3769ntf    nn323583   4.747   1.681   5.585 -0.0974 -0.2314 -0.1177
 3769ntf    sn223584   4.657   1.604   5.483 -0.4913 -0.0712  0.1052
 3769ntf    cn123585   4.734   1.439   5.489 -0.1555  0.0957  0.4377
 3769ntf    fn423586   4.791   1.971   5.684  0.3991 -0.4169  0.2543
 3769ntf    fn423587   4.588   1.911   5.668  0.0951  0.4538 -0.0636
 3769ntf    fn423588   4.684   1.938   5.856  0.1396  0.3700 -0.3406
 3769ntf    on523589   4.861   1.707   5.813 -0.0642 -0.6079 -0.1373
 3769ntf    on523590   4.620   1.658   5.804 -0.4934  0.4558 -0.3218
 3769ntf    on523591   4.689   1.638   5.346 -0.0432  0.2813  0.2957
 3769ntf    on523592   4.520   1.589   5.523 -0.5323 -0.7031 -0.2639
 3769ntf    fn423593   4.744   1.400   5.615 -0.1813 -0.7254  0.1885
 3769ntf    fn423594   4.679   1.344   5.415 -0.1588  0.4778 -0.0618
 3769ntf    fn423595   4.859   1.452   5.448 -0.3720  0.3666 -0.1479
 3770ntf    cn123596   3.114   6.172   6.286  0.1978 -0.1206  0.2490
 3770ntf    sn223597   2.956   6.251   6.329  0.2812  0.0876  0.1764
 3770ntf    nn323598   2.949   6.374   6.232 -0.9779 -0.1943 -0.1104
 3770ntf    sn223599   2.925   6.389   6.077  0.1704  0.1886 -0.2594
 3770ntf    cn123600   3.027   6.540   6.071 -0.0150  0.3348  0.2027
 3770ntf    fn423601   3.215   6.257   6.284  0.3644 -0.3295 -0.1838
 3770ntf    fn423602   3.145   6.080   6.376 -0.7277 -0.4653  0.2261
 3770ntf    fn423603   3.110   6.118   6.166  0.0043 -0.3141  0.3419
 3770ntf    on523604   2.857   6.151   6.298  0.0314  0.3948 -0.0332
 3770ntf    on523605   2.973   6.286   6.468  0.3820 -0.6067  0.3372
 3770ntf    on523606   2.789   6.430   6.051  0.0559  0.2136  0.3661
 3770ntf    on523607   2.995   6.292   5.997 -0.0110 -0.1141 -0.0547
 3770ntf    fn423608   2.988   6.631   6.159 -0.4563  0.3231  0.0235
 3770ntf    fn423609   3.155   6.518   6.096  0.1207  0.6506 -0.1989
 3770ntf    fn423610   3.023   6.596   5.951 -0.4388  0.0955  0.1017
 3771ntf    cn123611   5.480   6.541   2.593 -0.4572 -0.2506  0.2088
 3771ntf    sn223612   5.549   6.406   2.693  0.0352 -0.1252  0.0407
 3771ntf    nn323613   5.572   6.311   2.571 -0.0907  0.2865 -0.3049
 3771ntf    sn223614   5.706   6.256   2.510  0.1049  0.1999  0.1987
 3771ntf    cn123615   5.716   6.099   2.600 -0.0093  0.0448 -0.0586
 3771ntf    fn423616   5.374   6.506   2.521 -0.4510 -0.1229  0.1370
 3771ntf    fn423617   5.428   6.642   2.661  0.3776  0.2169  0.1671
 3771ntf    fn423618   5.562   6.601   2.509 -0.4627 -0.2608  0.1965
 3771ntf    on523619   5.668   6.458   2.757  0.4175 -0.2677 -0.5545
 3771ntf    on523620   5.447   6.363   2.786 -0.0400 -0.0071  0.0131
 3771ntf    on523621   5.826   6.331   2.538  0.2874 -0.1828  0.4411
 3771ntf    on523622   5.689   6.223   2.371 -0.1725 -0.5566  0.4106
 3771ntf    fn423623   5.604   6.072   2.664  0.0280  0.3245  0.1262
 3771ntf    fn423624   5.732   5.997   2.517 -0.1746  0.1223 -0.1874
 3771ntf    fn423625   5.819   6.105   2.683  0.0892  0.8518 -0.2356
 3772ntf    cn123626   4.638   5.093   0.311  0.2801 -0.1240 -0.4833
 3772ntf    sn223627   4.730   5.102   0.155  0.1359  0.4410 -0.5404
 3772ntf    nn323628   4.706   5.252   0.118  0.3112  0.5369 -0.2681
 3772ntf    sn223629   4.594   5.316   0.028  0.0568 -0.1583 -0.4484
 3772ntf    cn123630   4.695   5.335  -0.123  0.4590 -0.1662 -0.1816
 3772ntf    fn423631   4.664   4.979   0.373  0.2323  0.1528  0.0511
 3772ntf    fn423632   4.668   5.193   0.393 -0.0194 -0.1232 -0.3747
 3772ntf    fn423633   4.506   5.086   0.303  0.1739  0.3379  0.6115
 3772ntf    on523634   4.867   5.070   0.188 -0.0524 -0.0655 -0.2378
 3772ntf    on523635   4.678   5.007   0.060  0.1108 -0.3405  0.2413
 3772ntf    on523636   4.569   5.451   0.070  0.3252 -0.1523 -0.3081
 3772ntf    on523637   4.482   5.229   0.001  0.1835 -0.4512 -0.0518
 3772ntf    fn423638   4.790   5.426  -0.106 -0.1858  0.4798  0.0304
 3772ntf    fn423639   4.758   5.222  -0.151 -0.2476 -0.4520 -0.6497
 3772ntf    fn423640   4.620   5.366  -0.227 -0.0580  0.2289  0.2987
 3773ntf    cn123641   6.703   1.228   2.909 -0.3938 -0.1304  0.4907
 3773ntf    sn223642   6.535   1.286   2.947 -0.4391  0.1108 -0.0668
 3773ntf    nn323643   6.473   1.304   2.804  0.1331 -0.4944 -0.3991
 3773ntf    sn223644   6.510   1.420   2.704 -0.1501  0.0904  0.1685
 3773ntf    cn123645   6.352   1.456   2.623 -0.1773 -0.4588 -0.0248
 3773ntf    fn423646   6.709   1.125   2.826 -0.5238  0.3593 -0.1340
 3773ntf    fn423647   6.775   1.320   2.847 -0.4719 -0.4137 -0.0319
 3773ntf    fn423648   6.774   1.199   3.017  0.1422  0.4493  0.3001
 3773ntf    on523649   6.483   1.170   3.015  0.6179 -0.1656  0.2941
 3773ntf    on523650   6.557   1.403   3.028 -0.1756  0.0308 -0.0225
 3773ntf    on523651   6.586   1.358   2.598  0.0302 -0.1554  0.4384
 3773ntf    on523652   6.552   1.548   2.757 -0.6650  0.5423 -0.5048
 3773ntf    fn423653   6.363   1.564   2.547  0.6419 -0.0928  0.5928
 3773ntf    fn423654   6.306   1.357   2.548 -0.0015 -0.5387 -0.0285
 3773ntf    fn423655   6.261   1.484   2.714 -0.0988  0.1265 -0.1246
 3774ntf    cn123656   5.179   6.235   3.064  0.6602  0.2038  0.2937
 3774ntf    sn223657   5.134   6.371   3.175  0.2726  0.2344  0.0996
 3774ntf    nn323658   5.047   6.293   3.280 -0.3730  0.7863 -0.0171
 3774ntf    sn223659   4.901   6.238   3.266 -0.1367  0.0442  0.3538
 3774ntf    cn123660   4.812   6.350   3.378 -0.3275  0.1034  0.1469
 3774ntf    fn423661   5.264   6.148   3.118 -0.6793 -1.1334  0.3167
 3774ntf    fn423662   5.077   6.159   3.028  0.9382  0.0360 -0.1534
 3774ntf    fn423663   5.240   6.273   2.953 -0.4766 -0.1484 -0.4704
 3774ntf    on523664   5.259   6.417   3.231  0.1492 -0.1896  0.7447
 3774ntf    on523665   5.053   6.459   3.095  0.1768  0.0840  0.0311
 3774ntf    on523666   4.888   6.111   3.333 -0.5570 -0.2393 -0.2541
 3774ntf    on523667   4.836   6.257   3.138  0.8373 -0.0682 -0.1644
 3774ntf    fn423668   4.682   6.326   3.382 -0.3182 -0.0174 -0.2917
 3774ntf    fn423669   4.861   6.339   3.501 -0.3390 -0.1299  0.1304
 3774ntf    fn423670   4.818   6.477   3.341  0.4087  0.0386  0.0268
 3775ntf    cn123671   1.030   0.601   1.015  0.0426  0.1084 -0.2471
 3775ntf    sn223672   1.079   0.658   0.849  0.0970  0.1751 -0.2083
 3775ntf    nn323673   1.009   0.547   0.762  0.6088 -0.1873 -0.1622
 3775ntf    sn223674   0.864   0.535   0.704  0.3757 -0.1547  0.4134
 3775ntf    cn123675   0.874   0.642   0.558  0.1612 -0.4265  0.1973
 3775ntf    fn423676   1.098   0.493   1.048 -0.1529 -0.0643 -0.4085
 3775ntf    fn423677   1.060   0.689   1.109 -0.0609  0.0726 -0.1806
 3775ntf    fn423678   0.901   0.581   1.036  0.0183  0.2703 -0.2380
 3775ntf    on523679   1.019   0.788   0.834 -0.1780  0.0871  0.1019
 3775ntf    on523680   1.223   0.651   0.842  0.1112 -0.4232  0.5176
 3775ntf    on523681   0.755   0.583   0.785  0.0949 -0.3173  0.1351
 3775ntf    on523682   0.853   0.406   0.639  0.0910  0.2808 -0.4123
 3775ntf    fn423683   0.769   0.625   0.480 -0.1747  0.3388  0.4722
 3775ntf    fn423684   0.875   0.769   0.594  0.0936 -0.2968 -0.2589
 3775ntf    fn423685   0.982   0.609   0.489  0.5623  0.9915  0.1197
 3776ntf    cn123686   6.520   4.036   4.651 -0.2605 -0.3469  0.4364
 3776ntf    sn223687   6.347   4.043   4.597 -0.0558 -0.2971 -0.2183
 3776ntf    nn323688   6.290   3.929   4.688  0.1798 -0.1191  0.1510
 3776ntf    sn223689   6.264   3.781   4.644  0.1233 -0.0741  0.0318
 3776ntf    cn123690   6.268   3.708   4.811 -0.1030  0.3389  0.2212
 3776ntf    fn423691   6.543   4.075   4.775 -0.2495 -0.9206  0.6198
 3776ntf    fn423692   6.565   3.912   4.638  0.1192 -0.1837  0.1554
 3776ntf    fn423693   6.604   4.111   4.582 -0.0133 -0.3797  0.6975
 3776ntf    on523694   6.312   4.175   4.645  0.2049 -0.2930 -0.0363
 3776ntf    on523695   6.349   4.021   4.454  0.2500 -0.2898 -0.2154
 3776ntf    on523696   6.372   3.715   4.576  0.4222  0.2891  0.1497
 3776ntf    on523697   6.126   3.753   4.611  0.0828  0.0258  0.1146
 3776ntf    fn423698   6.188   3.605   4.831  0.3433 -0.0158  0.2074
 3776ntf    fn423699   6.389   3.676   4.854 -0.0464  0.9487  0.5167
 3776ntf    fn423700   6.221   3.801   4.892 -0.2636  0.9028 -0.5054
 3777ntf    cn123701   6.318   6.461   4.982  0.1338  0.1579  0.3182
 3777ntf    sn223702   6.299   6.613   4.884 -0.1339  0.0852  0.2539
 3777ntf    nn323703   6.431   6.605   4.800 -0.2978 -0.6123  0.0614
 3777ntf    sn223704   6.456   6.611   4.645 -0.5011 -0.3379  0.0406
 3777ntf    cn123705   6.561   6.466   4.616 -0.0371  0.0537 -0.2673
 3777ntf    fn423706   6.324   6.358   4.899  0.2002  0.4588 -0.0485
 3777ntf    fn423707   6.431   6.465   5.050  0.2817  0.1641  0.0715
 3777ntf    fn423708   6.223   6.442   5.073  0.4337 -0.1749  0.5653
 3777ntf    on523709   6.183   6.598   4.801 -0.2408 -0.0111  0.4207
 3777ntf    on523710   6.294   6.713   4.988 -0.1471  0.2889  0.0566
 3777ntf    on523711   6.547   6.719   4.616  0.1261 -1.0181 -0.5631
 3777ntf    on523712   6.339   6.600   4.560 -0.4373  0.1103 -0.1102
 3777ntf    fn423713   6.515   6.360   4.682 -0.3357  0.2341 -0.1837
 3777ntf    fn423714   6.573   6.426   4.491  0.1520 -0.3897 -0.1103
 3777ntf    fn423715   6.688   6.481   4.647 -0.0398 -0.3740 -0.0368
 3778ntf    cn123716   0.588   6.531   2.522  0.0559 -0.1013  0.2687
 3778ntf    sn223717   0.689   6.620   2.644  0.1775 -0.1507  0.2043
 3778ntf    nn323718   0.830   6.627   2.575  0.1335  0.3111  0.1556
 3778ntf    sn223719   0.911   6.753   2.527  0.2887  0.1107 -0.1100
 3778ntf    cn123720   1.080   6.703   2.570  0.0948 -0.4816 -0.0192
 3778ntf    fn423721   0.600   6.596   2.408  0.0009 -0.3730  0.1072
 3778ntf    fn423722   0.627   6.408   2.493  0.3513  0.0351  0.0817
 3778ntf    fn423723   0.461   6.526   2.559 -0.1764  0.6815 -0.3951
 3778ntf    on523724   0.621   6.747   2.647  0.1005 -0.1828 -0.1945
 3778ntf    on523725   0.675   6.541   2.764 -0.0922 -0.2226  0.1259
 3778ntf    on523726   0.886   6.876   2.598 -0.6518 -0.5126  0.6642
 3778ntf    on523727   0.916   6.753   2.383 -0.0968 -0.3284 -0.1295
 3778ntf    fn423728   1.172   6.795   2.546 -0.5195  0.1669  0.0614
 3778ntf    fn423729   1.096   6.654   2.692  0.1855 -0.2726  0.0532
 3778ntf    fn423730   1.122   6.603   2.494  0.3515 -0.0193 -0.4977
 3779ntf    cn123731   2.354   6.776   6.424  0.3410  0.1835  0.0052
 3779ntf    sn223732   2.329   6.647   6.298  0.0188  0.1961  0.0564
 3779ntf    nn323733   2.290   6.528   6.393 -0.0911  0.0089 -0.2206
 3779ntf    sn223734   2.373   6.412   6.459  0.0842  0.1930 -0.1148
 3779ntf    cn123735   2.326   6.275   6.351  0.1746  0.1549 -0.1039
 3779ntf    fn423736   2.273   6.774   6.528 -0.0489  0.1644 -0.2959
 3779ntf    fn423737   2.476   6.785   6.475  0.2007 -0.4029  0.4524
 3779ntf    fn423738   2.334   6.894   6.368  0.0207  0.0660 -0.1276
 3779ntf    on523739   2.222   6.699   6.216 -0.1094  0.1055  0.1666
 3779ntf    on523740   2.459   6.644   6.235  0.0331  0.0823  0.0912
 3779ntf    on523741   2.324   6.360   6.585 -0.1044 -0.3622 -0.4157
 3779ntf    on523742   2.516   6.425   6.445  0.0969  0.5970  0.3353
 3779ntf    fn423743   2.334   6.307   6.222 -0.6336  0.0138 -0.1922
 3779ntf    fn423744   2.405   6.169   6.363 -0.6764 -0.4492  0.2320
 3779ntf    fn423745   2.205   6.228   6.373  0.0961  0.2648 -0.2952
 3780ntf    cn123746   2.534   0.317   0.971 -0.0917  0.5773 -0.0532
 3780ntf    sn223747   2.551   0.371   1.144 -0.4278  0.2062  0.0984
 3780ntf    nn323748   2.632   0.254   1.209  0.1454  0.5746  0.0533
 3780ntf    sn223749   2.621   0.219   1.362 -0.1801  0.2123 -0.0519
 3780ntf    cn123750   2.482   0.102   1.352  0.1536 -0.2126  0.3027
 3780ntf    fn423751   2.484   0.195   0.960  0.4328  0.3512  0.0377
 3780ntf    fn423752   2.459   0.402   0.903  0.1981  0.4550 -0.5276
 3780ntf    fn423753   2.651   0.320   0.911  0.1361  0.3199  0.3720
 3780ntf    on523754   2.637   0.486   1.128 -0.0931 -0.0036  0.3661
 3780ntf    on523755   2.415   0.384   1.190 -0.4779  0.1182 -0.0251
 3780ntf    on523756   2.582   0.324   1.454 -0.1093  0.5760 -0.4330
 3780ntf    on523757   2.731   0.133   1.395 -0.1841  0.0326 -0.5018
 3780ntf    fn423758   2.364   0.161   1.352  0.1439 -0.2353  0.0256
 3780ntf    fn423759   2.496   0.028   1.243 -0.4259  0.2826 -0.1060
 3780ntf    fn423760   2.486   0.014   1.451 -0.2182  0.0856  0.5871
   7.08241   7.08241   7.08241
