Converted from moscito
23760
    1SOL     ow    1   1.543   5.392   6.868 -0.3800  0.2558  0.1471
    1SOL     hw    2   1.465   5.394   6.813 -1.7351  0.8426  2.0092
    1SOL     hw    3   1.515   5.353   6.950  0.5505  2.8853  1.8563
    1SOL     vw    4   1.529   5.387   6.871 -0.4359  0.6800  0.6185
    2SOL     ow    5   6.064   1.773   5.601  1.3329  0.7596  0.8616
    2SOL     hw    6   5.986   1.829   5.602  1.9587  1.6851 -0.2680
    2SOL     hw    7   6.047   1.709   5.531  0.0071 -1.4505  3.0488
    2SOL     vw    8   6.051   1.772   5.592  1.2403  0.5901  1.0009
    3SOL     ow    9   0.638   4.902   0.029 -0.3170  0.2486  0.3040
    3SOL     hw   10   0.707   4.853  -0.015 -0.8175 -0.2536  0.0500
    3SOL     hw   11   0.683   4.954   0.096  0.1901 -0.8880  0.8741
    3SOL     vw   12   0.653   4.902   0.032 -0.3161  0.0324  0.3457
    4SOL     ow   13   4.097   4.584   1.007  0.2277 -0.4811  0.0758
    4SOL     hw   14   4.086   4.505   1.060  0.9486 -1.5875 -1.3656
    4SOL     hw   15   4.008   4.617   0.994  0.0424  0.1077  2.3016
    4SOL     vw   16   4.084   4.578   1.012  0.2985 -0.5493  0.1794
    5SOL     ow   17   0.746   1.394   1.053 -0.1801  0.1611 -0.3677
    5SOL     hw   18   0.694   1.462   1.010  0.9461  0.6043 -1.0629
    5SOL     hw   19   0.687   1.318   1.057 -1.2480  0.9735 -0.1250
    5SOL     vw   20   0.731   1.393   1.048 -0.1724  0.3268 -0.4274
    6SOL     ow   21   5.592   6.587   6.249  0.1668 -0.4778  0.4142
    6SOL     hw   22   5.515   6.644   6.253  1.1343  1.0697 -1.5701
    6SOL     hw   23   5.657   6.637   6.199  1.3254 -3.0374 -0.8105
    6SOL     vw   24   5.590   6.601   6.243  0.4475 -0.6113 -0.0091
    7SOL     ow   25   6.597   3.133   2.600 -0.0844 -0.1667  0.3717
    7SOL     hw   26   6.609   3.047   2.641  1.8686 -0.8032 -1.3666
    7SOL     hw   27   6.582   3.114   2.508  0.8660  1.3507 -0.1309
    7SOL     vw   28   6.597   3.119   2.593  0.2985 -0.0504  0.0761
    8SOL     ow   29   4.885   5.434   0.397 -0.6752  0.0218 -0.2168
    8SOL     hw   30   4.869   5.396   0.310  0.4995  0.0659 -0.4689
    8SOL     hw   31   4.966   5.484   0.386  0.0715 -0.8353  1.1599
    8SOL     vw   32   4.894   5.435   0.384 -0.4218 -0.0854 -0.0684
    9SOL     ow   33   2.068   3.823   3.062 -0.2502  0.0174 -0.6546
    9SOL     hw   34   2.007   3.862   2.999 -0.1764 -1.4505 -1.7046
    9SOL     hw   35   2.121   3.763   3.009  1.5703  0.6415  0.3915
    9SOL     vw   36   2.067   3.820   3.046 -0.0002 -0.0939 -0.6551
   10SOL     ow   37   3.068   5.606   1.665  0.3988 -0.1140 -0.2643
   10SOL     hw   38   3.045   5.695   1.690  1.9436  0.2208  0.0449
   10SOL     hw   39   3.047   5.601   1.572  0.4014  0.6093 -0.3088
   10SOL     vw   40   3.062   5.617   1.656  0.6030  0.0255 -0.2294
   11SOL     ow   41   2.198   1.564   4.188 -0.1686 -0.1268  0.5901
   11SOL     hw   42   2.194   1.518   4.272  0.5197  0.7497  1.1233
   11SOL     hw   43   2.248   1.643   4.207 -1.2089  0.7830 -0.3286
   11SOL     vw   44   2.204   1.569   4.202 -0.2151  0.1088  0.5391
   12SOL     ow   45   2.726   2.967   1.649  0.0095  0.4531 -0.3383
   12SOL     hw   46   2.713   2.922   1.566 -0.8332  0.6412 -0.3121
   12SOL     hw   47   2.821   2.975   1.657  0.1128  0.0184 -1.0545
   12SOL     vw   48   2.737   2.962   1.639 -0.0880  0.4206 -0.4294
   13SOL     ow   49   0.780   4.362   0.964  0.2922  0.2303  0.0782
   13SOL     hw   50   0.841   4.413   1.017  0.1040  1.1583 -0.5587
   13SOL     hw   51   0.816   4.273   0.964  1.0731  0.5352  0.5639
   13SOL     vw   52   0.793   4.357   0.971  0.3704  0.3932  0.0583
   14SOL     ow   53   1.683   6.003   1.355  0.4321 -0.5948 -0.2456
   14SOL     hw   54   1.692   5.916   1.318  0.9031 -0.5016 -0.3579
   14SOL     hw   55   1.703   6.063   1.283 -2.3144 -0.3019 -0.8916
   14SOL     vw   56   1.687   5.999   1.341  0.1320 -0.5436 -0.3456
   15SOL     ow   57   6.605   3.797   4.281 -0.0921  0.0440 -0.0394
   15SOL     hw   58   6.512   3.772   4.282 -0.3083  0.7993  1.1450
   15SOL     hw   59   6.646   3.735   4.221 -1.4306 -0.0718 -0.8774
   15SOL     vw   60   6.598   3.786   4.273 -0.2971  0.1283  0.0064
   16SOL     ow   61   3.663   1.272   5.699 -0.4903 -0.0869  0.0338
   16SOL     hw   62   3.577   1.311   5.683 -0.9136 -0.2189  1.7191
   16SOL     hw   63   3.724   1.324   5.647 -1.4598  0.6906 -0.3555
   16SOL     vw   64   3.660   1.284   5.690 -0.6741 -0.0018  0.2048
   17SOL     ow   65   5.136   0.664   1.553 -0.8259 -0.0574 -0.6680
   17SOL     hw   66   5.117   0.676   1.646 -1.1606  1.5261 -0.9223
   17SOL     hw   67   5.219   0.710   1.540 -1.1991  0.4417 -1.3144
   17SOL     vw   68   5.145   0.672   1.563 -0.9191  0.2173 -0.7868
   18SOL     ow   69   2.692   4.221   4.018 -0.7644  0.0577 -0.5262
   18SOL     hw   70   2.659   4.286   3.956 -0.0967  0.5464 -0.3790
   18SOL     hw   71   2.650   4.139   3.992  0.0112  0.1147 -2.0475
   18SOL     vw   72   2.682   4.219   4.006 -0.5739  0.1299 -0.7071
   19SOL     ow   73   7.113   5.221   6.154  0.5276 -0.0276  0.7082
   19SOL     hw   74   7.053   5.263   6.092  0.7423 -0.6000  0.1036
   19SOL     hw   75   7.059   5.157   6.200  0.5490 -0.1507  0.5607
   19SOL     vw   76   7.098   5.218   6.152  0.5591 -0.1192  0.6092
   20SOL     ow   77   2.397   4.874   7.024  0.1137  0.5196 -0.1999
   20SOL     hw   78   2.356   4.812   7.084  0.6120  2.0122  1.7953
   20SOL     hw   79   2.353   4.957   7.042 -0.9507  0.7066 -3.2142
   20SOL     vw   80   2.386   4.877   7.035  0.0390  0.7412 -0.3343
   21SOL     ow   81   0.296   3.974   5.127 -0.3681 -0.5132  0.0962
   21SOL     hw   82   0.238   3.982   5.202  0.1874 -0.7628  0.5553
   21SOL     hw   83   0.365   4.039   5.142  0.5650 -1.5733  0.5638
   21SOL     vw   84   0.298   3.983   5.139 -0.1717 -0.6860  0.2184
   22SOL     ow   85   4.953   2.712   2.949  0.7799  0.0009  0.6884
   22SOL     hw   86   4.902   2.791   2.967  0.6663  0.1089 -0.0945
   22SOL     hw   87   5.039   2.744   2.924  1.3957 -0.1901  2.4145
   22SOL     vw   88   4.957   2.727   2.948  0.8464 -0.0100  0.8130
   23SOL     ow   89   6.146   5.254   0.990  0.6642  0.1324 -0.3674
   23SOL     hw   90   6.091   5.193   0.941 -0.4741 -0.7355  1.8442
   23SOL     hw   91   6.086   5.322   1.021  0.3950 -1.5043  3.1675
   23SOL     vw   92   6.131   5.255   0.988  0.4785 -0.1979  0.3908
   24SOL     ow   93   2.027   1.880   2.640  0.0502 -0.5945  0.1997
   24SOL     hw   94   1.934   1.863   2.622 -0.8841  0.7245  3.1266
   24SOL     hw   95   2.060   1.920   2.561 -2.5860  1.2483 -0.1023
   24SOL     vw   96   2.019   1.883   2.627 -0.4209 -0.1774  0.5461
   25SOL     ow   97   6.731   0.218   3.882  0.0368 -0.1236  0.1049
   25SOL     hw   98   6.657   0.255   3.835 -0.6122 -0.8788  0.5061
   25SOL     hw   99   6.769   0.154   3.822  0.3864  0.2838 -0.1114
   25SOL     vw  100   6.726   0.215   3.868 -0.0026 -0.1695  0.1292
   26SOL     ow  101   4.545   4.659   2.069  0.2798 -0.3365 -0.2154
   26SOL     hw  102   4.558   4.723   1.999 -0.1817  1.5476  1.3133
   26SOL     hw  103   4.450   4.642   2.068  0.0605  0.7500  0.7857
   26SOL     vw  104   4.534   4.665   2.060  0.1900  0.0553  0.1184
   27SOL     ow  105   4.740   1.645   5.440 -0.4054  0.5239 -0.1199
   27SOL     hw  106   4.762   1.671   5.350  0.2016  1.3929  0.2584
   27SOL     hw  107   4.817   1.671   5.491 -0.0052 -1.5611  0.4031
   27SOL     vw  108   4.753   1.652   5.435 -0.2723  0.3635 -0.0007
   28SOL     ow  109   6.391   0.588   2.092  0.3269 -0.5630 -0.1029
   28SOL     hw  110   6.375   0.526   2.163  0.6775  1.4331  1.8631
   28SOL     hw  111   6.477   0.564   2.058  1.0834 -0.3705  1.5665
   28SOL     vw  112   6.400   0.577   2.097  0.4730 -0.2743  0.3768
   29SOL     ow  113   2.644   2.856   1.990  0.0575 -0.1259 -0.3397
   29SOL     hw  114   2.681   2.808   2.064 -0.6581 -0.8650 -0.4448
   29SOL     hw  115   2.630   2.789   1.923 -0.9385  0.2209 -0.4988
   29SOL     vw  116   2.647   2.841   1.991 -0.1683 -0.1776 -0.3746
   30SOL     ow  117   4.727   3.834   3.429 -0.2089 -0.1753 -0.0302
   30SOL     hw  118   4.796   3.813   3.366 -0.8339  0.2294 -0.8744
   30SOL     hw  119   4.733   3.765   3.495  0.9866 -0.1497 -0.0918
   30SOL     vw  120   4.736   3.822   3.430 -0.1338 -0.1185 -0.1497
   31SOL     ow  121   5.511   2.000   6.572 -0.2972  0.0961  0.3493
   31SOL     hw  122   5.471   1.923   6.614  0.8126  0.2958  1.8687
   31SOL     hw  123   5.593   2.013   6.619  1.1401  0.2667 -2.0725
   31SOL     vw  124   5.516   1.992   6.584  0.0391  0.1450  0.2306
   32SOL     ow  125   6.585   6.473   0.219 -0.9674  0.7598 -1.0449
   32SOL     hw  126   6.501   6.519   0.225 -0.1725  2.0687  0.7228
   32SOL     hw  127   6.606   6.449   0.309  1.1119  1.5033 -1.2726
   32SOL     vw  128   6.576   6.476   0.232 -0.5882  1.0307 -0.8418
   33SOL     ow  129   5.397   3.820   0.885 -1.0916 -0.4807  1.0147
   33SOL     hw  130   5.474   3.792   0.935 -1.2740 -1.0713  0.9709
   33SOL     hw  131   5.330   3.835   0.951 -0.2285  2.6275  1.3425
   33SOL     vw  132   5.398   3.818   0.900 -1.0018 -0.1485  1.0522
   34SOL     ow  133   5.618   4.574   5.883  0.3088  0.1101 -0.1866
   34SOL     hw  134   5.526   4.600   5.871  1.0588  3.3243  0.1092
   34SOL     hw  135   5.654   4.640   5.941  3.1228 -0.3428 -1.2522
   34SOL     vw  136   5.610   4.586   5.889  0.7787  0.4742 -0.2880
   35SOL     ow  137   5.494   5.249   1.179  0.2721  0.6299 -0.1767
   35SOL     hw  138   5.501   5.269   1.086  1.2259  0.6964 -0.0985
   35SOL     hw  139   5.413   5.198   1.186  0.6032 -0.0599 -1.1612
   35SOL     vw  140   5.484   5.245   1.167  0.4416  0.5474 -0.2962
   36SOL     ow  141   5.493   0.619   5.176  0.0785  0.0396  0.1950
   36SOL     hw  142   5.490   0.526   5.198  0.7885  0.0487  0.3417
   36SOL     hw  143   5.475   0.623   5.082  4.2843 -0.6477 -0.8044
   36SOL     vw  144   5.490   0.607   5.167  0.7269 -0.0499  0.0823
   37SOL     ow  145   6.287   1.622   5.782  0.4688 -0.3904  0.3304
   37SOL     hw  146   6.380   1.603   5.796  0.9182  1.6004  0.4660
   37SOL     hw  147   6.244   1.590   5.861  1.3737  0.5676  1.2531
   37SOL     vw  148   6.294   1.615   5.794  0.6473 -0.0013  0.4704
   38SOL     ow  149   3.117   2.735   6.462 -0.1309  0.3461 -0.5115
   38SOL     hw  150   3.210   2.719   6.446  0.2821  1.0587  0.9484
   38SOL     hw  151   3.087   2.779   6.382  1.3833  2.2307 -0.1498
   38SOL     vw  152   3.126   2.739   6.449  0.1234  0.6888 -0.2711
   39SOL     ow  153   4.775   4.006   1.694 -0.7048 -0.5077  0.9806
   39SOL     hw  154   4.826   3.985   1.772 -1.2273  0.6522  1.6545
   39SOL     hw  155   4.718   3.930   1.682 -1.4481 -0.2012  2.4296
   39SOL     vw  156   4.774   3.993   1.702 -0.8721 -0.3141  1.2607
   40SOL     ow  157   4.262   5.467   4.201 -0.0237  0.0729  0.1911
   40SOL     hw  158   4.194   5.529   4.224 -0.8185 -1.3449  1.8756
   40SOL     hw  159   4.241   5.441   4.111  0.5470  2.4184 -0.6975
   40SOL     vw  160   4.250   5.471   4.192 -0.0532  0.1953  0.2961
   41SOL     ow  161   1.920   4.221   7.064 -0.1181  0.0605 -0.1606
   41SOL     hw  162   1.976   4.289   7.101 -1.0550  1.4995 -1.2642
   41SOL     hw  163   1.959   4.139   7.093  1.6577  1.0367  0.3469
   41SOL     vw  164   1.932   4.219   7.073 -0.0075  0.3791 -0.2391
   42SOL     ow  165   3.574   5.303   5.484 -0.0924 -0.0123 -0.3580
   42SOL     hw  166   3.536   5.367   5.425  1.0127 -0.1028 -1.1909
   42SOL     hw  167   3.651   5.346   5.520  0.7541 -0.9033 -1.0494
   42SOL     vw  168   3.579   5.317   5.481  0.1652 -0.1416 -0.5591
   43SOL     ow  169   2.667   3.473   4.900  0.4259  0.0450  0.8044
   43SOL     hw  170   2.658   3.483   4.806  0.7499  0.1635  0.7829
   43SOL     hw  171   2.611   3.399   4.923 -0.0059  0.3019  0.5849
   43SOL     vw  172   2.658   3.465   4.891  0.4116  0.0945  0.7727
   44SOL     ow  173   2.892   0.473   1.817  0.2762 -0.3120  0.1056
   44SOL     hw  174   2.875   0.500   1.907  0.2013  0.3845 -0.1101
   44SOL     hw  175   2.812   0.428   1.790  0.6501 -1.3549  0.6840
   44SOL     vw  176   2.879   0.471   1.825  0.3155 -0.3577  0.1534
   45SOL     ow  177   2.900   4.905   4.035 -0.3518 -0.1033 -0.7314
   45SOL     hw  178   2.966   4.918   3.967 -1.1595  1.9031 -1.2094
   45SOL     hw  179   2.928   4.962   4.106 -1.2339  0.3183 -0.7104
   45SOL     vw  180   2.913   4.914   4.035 -0.5747  0.2172 -0.7918
   46SOL     ow  181   6.460   6.934   1.800  0.1046  0.0002  0.0930
   46SOL     hw  182   6.486   6.845   1.776  2.0207  0.4599  0.3407
   46SOL     hw  183   6.373   6.924   1.840  0.6153 -1.8400  0.8069
   46SOL     vw  184   6.452   6.921   1.802  0.4246 -0.1822  0.2198
   47SOL     ow  185   1.050   3.214   6.469 -0.1407  0.1426  0.1347
   47SOL     hw  186   1.012   3.178   6.549 -1.0546  0.1879 -0.2529
   47SOL     hw  187   1.087   3.298   6.494 -0.3229  0.1052  0.5334
   47SOL     vw  188   1.050   3.220   6.483 -0.2853  0.1435  0.1361
   48SOL     ow  189   1.874   1.681   5.432 -0.0912  0.1873 -0.0770
   48SOL     hw  190   1.849   1.609   5.490  2.0113  0.1232  0.8198
   48SOL     hw  191   1.793   1.702   5.385 -0.8997 -2.3814  0.0080
   48SOL     vw  192   1.860   1.675   5.434  0.0796 -0.1601  0.0522
   49SOL     ow  193   2.675   3.596   1.725 -0.0095 -0.1431 -0.1808
   49SOL     hw  194   2.608   3.665   1.729 -2.1384 -1.8287 -3.0350
   49SOL     hw  195   2.755   3.643   1.699 -0.9877  1.4730 -0.4588
   49SOL     vw  196   2.677   3.612   1.722 -0.4195 -0.1521 -0.5941
   50SOL     ow  197   3.289   1.728   3.365 -0.2680 -0.4263  0.0605
   50SOL     hw  198   3.255   1.809   3.403  0.2912  0.1415 -0.6110
   50SOL     hw  199   3.238   1.715   3.285  0.3129 -0.1808 -0.3589
   50SOL     vw  200   3.278   1.737   3.360 -0.1175 -0.3189 -0.0834
   51SOL     ow  201   6.085   6.326   4.672  0.0557 -1.7343 -0.2674
   51SOL     hw  202   6.080   6.299   4.764  0.1443  1.0666  0.6459
   51SOL     hw  203   6.009   6.383   4.660  1.9005  0.7596 -0.8517
   51SOL     vw  204   6.074   6.330   4.683  0.3104 -1.0357 -0.2239
   52SOL     ow  205   3.572   0.376   1.958  0.4646 -0.4817  0.4658
   52SOL     hw  206   3.663   0.405   1.953  0.8125 -1.0418  2.4357
   52SOL     hw  207   3.542   0.407   2.044 -1.2639 -0.1648 -0.2121
   52SOL     vw  208   3.580   0.384   1.969  0.2824 -0.5138  0.6363
   53SOL     ow  209   5.282   5.245   2.436 -0.1241  0.3409 -0.4016
   53SOL     hw  210   5.273   5.327   2.485 -0.4119 -1.3272  2.5983
   53SOL     hw  211   5.193   5.211   2.429  0.2252 -0.9468  0.8275
   53SOL     vw  212   5.269   5.251   2.442 -0.1161 -0.0491  0.1564
   54SOL     ow  213   6.628   2.464   2.459  0.7610  0.1610  0.4506
   54SOL     hw  214   6.627   2.543   2.405  0.2780  1.1042  1.8115
   54SOL     hw  215   6.550   2.416   2.432  1.7023 -0.4988 -1.2600
   54SOL     vw  216   6.618   2.468   2.448  0.8216  0.1984  0.4045
   55SOL     ow  217   2.862   2.250   4.966  0.1046  0.6025  0.1775
   55SOL     hw  218   2.847   2.156   4.955 -0.9253  0.9624 -2.0341
   55SOL     hw  219   2.902   2.258   5.053 -1.0874 -1.7178  1.0149
   55SOL     vw  220   2.866   2.239   4.976 -0.1886  0.3439 -0.0036
   56SOL     ow  221   0.547   5.576   5.323 -0.0267  0.7312  0.6970
   56SOL     hw  222   0.577   5.580   5.232  1.9899  0.5054  1.3105
   56SOL     hw  223   0.495   5.496   5.327 -2.2959  1.9918 -0.7933
   56SOL     vw  224   0.544   5.566   5.311 -0.0600  0.8676  0.5810
   57SOL     ow  225   6.558   2.237   4.872 -0.3242  0.8873 -0.7104
   57SOL     hw  226   6.645   2.207   4.899  0.5153  2.2162 -1.7601
   57SOL     hw  227   6.519   2.272   4.952  0.5575  1.2445 -0.4166
   57SOL     vw  228   6.564   2.238   4.886 -0.0970  1.1100 -0.8099
   58SOL     ow  229   1.384   6.981   0.130 -0.5519  0.2534  0.1169
   58SOL     hw  230   1.355   6.941   0.212 -0.7252 -2.6025 -1.2299
   58SOL     hw  231   1.479   6.978   0.134 -0.5033  1.7072  0.8734
   58SOL     vw  232   1.392   6.975   0.142 -0.5684  0.0687  0.0390
   59SOL     ow  233   2.833   3.872   2.652  0.4441  0.1878  0.8013
   59SOL     hw  234   2.826   3.960   2.691  0.1468  0.6682 -0.2821
   59SOL     hw  235   2.887   3.885   2.574 -0.1206 -0.4611  0.2836
   59SOL     vw  236   2.839   3.886   2.647  0.3304  0.1656  0.5901
   60SOL     ow  237   7.189   4.548   1.514  0.1292  0.0946 -0.4120
   60SOL     hw  238   7.111   4.582   1.470 -1.0744 -0.9292  0.8303
   60SOL     hw  239   7.199   4.459   1.480  0.4677  0.0533 -0.2109
   60SOL     vw  240   7.180   4.541   1.504  0.0150 -0.0460 -0.2216
   61SOL     ow  241   5.350   1.723   3.330  0.4195  0.3754 -0.5832
   61SOL     hw  242   5.384   1.683   3.250  2.0948  2.7520 -1.1638
   61SOL     hw  243   5.313   1.807   3.302  0.4210  0.9662  1.0255
   61SOL     vw  244   5.349   1.729   3.316  0.6409  0.7670 -0.4475
   62SOL     ow  245   1.682   4.187   6.845  0.3040  0.2730  0.0620
   62SOL     hw  246   1.643   4.100   6.841  0.3253  0.0414  2.7859
   62SOL     hw  247   1.695   4.212   6.754 -1.5558 -1.7193 -0.8476
   62SOL     vw  248   1.678   4.179   6.832  0.0615 -0.0203  0.3014
   63SOL     ow  249   3.522   1.829   3.249 -0.6080 -0.1207  0.0743
   63SOL     hw  250   3.578   1.759   3.215 -0.6613 -0.0601 -0.1393
   63SOL     hw  251   3.458   1.783   3.304 -1.2097 -0.3429 -0.7944
   63SOL     vw  252   3.521   1.813   3.252 -0.6944 -0.1420 -0.0684
   64SOL     ow  253   2.663   6.286   1.066  0.3812 -0.0318 -0.0855
   64SOL     hw  254   2.727   6.215   1.074 -0.3448 -0.4963  2.9047
   64SOL     hw  255   2.644   6.311   1.156 -1.7266  1.8716 -0.9643
   64SOL     vw  256   2.669   6.280   1.079  0.0074  0.1578  0.1931
   65SOL     ow  257   5.474   2.944   1.116  0.0925  0.0728  0.1968
   65SOL     hw  258   5.399   2.976   1.067  0.4731 -0.0947 -0.5077
   65SOL     hw  259   5.526   3.023   1.134  0.9819 -0.1000 -1.4550
   65SOL     vw  260   5.471   2.959   1.112  0.2599  0.0279 -0.1141
   66SOL     ow  261   1.133   7.192   7.144 -0.0496  0.0471 -0.8872
   66SOL     hw  262   1.125   7.287   7.155  3.3557  0.5359 -1.3432
   66SOL     hw  263   1.045   7.158   7.159 -1.1265  3.1334  0.6396
   66SOL     vw  264   1.121   7.200   7.148  0.2576  0.5188 -0.7460
   67SOL     ow  265   5.491   6.141   6.086  0.2074  0.1034  0.1545
   67SOL     hw  266   5.486   6.181   6.173  0.4199 -2.0852  1.2213
   67SOL     hw  267   5.463   6.051   6.099  0.4951 -0.3484 -2.0204
   67SOL     vw  268   5.487   6.135   6.099  0.2737 -0.2451  0.0083
   68SOL     ow  269   3.921   1.066   7.040  0.3233 -0.2978 -0.2321
   68SOL     hw  270   3.860   1.099   6.974 -0.6470 -0.5553  0.5087
   68SOL     hw  271   3.943   1.143   7.094 -0.7067 -0.5276  0.5395
   68SOL     vw  272   3.916   1.081   7.039  0.0594 -0.3622 -0.0324
   69SOL     ow  273   5.661   2.287   0.620 -0.0775 -0.4066 -0.0432
   69SOL     hw  274   5.731   2.235   0.580 -2.6321 -3.3526 -1.1052
   69SOL     hw  275   5.703   2.330   0.695  2.9532 -1.4390 -0.9719
   69SOL     vw  276   5.676   2.286   0.625 -0.0145 -0.9316 -0.3059
   70SOL     ow  277   6.713   0.167   4.198 -0.1801 -0.6104  0.3307
   70SOL     hw  278   6.741   0.223   4.270 -2.8121  0.8480  0.3373
   70SOL     hw  279   6.712   0.225   4.122  1.6300 -1.8960 -0.7447
   70SOL     vw  280   6.717   0.182   4.197 -0.2890 -0.5876  0.1898
   71SOL     ow  281   3.164   1.756   7.183 -0.6828  0.2552  0.3580
   71SOL     hw  282   3.093   1.780   7.123 -1.7662 -0.3814  1.3616
   71SOL     hw  283   3.223   1.704   7.129 -1.6997 -0.4029 -0.1432
   71SOL     vw  284   3.162   1.753   7.168 -0.9600  0.0844  0.4241
   72SOL     ow  285   2.330   6.417   4.102 -0.2003  0.4138  0.2733
   72SOL     hw  286   2.262   6.351   4.094 -2.8359  2.9833 -0.6155
   72SOL     hw  287   2.411   6.368   4.119 -1.3602 -3.1500 -3.1912
   72SOL     vw  288   2.332   6.402   4.103 -0.7012  0.2825 -0.3011
   73SOL     ow  289   5.854   2.105   2.927 -0.8017 -0.4285  0.3268
   73SOL     hw  290   5.945   2.076   2.929 -0.0725  1.3414 -1.9641
   73SOL     hw  291   5.830   2.116   3.018  1.7092  0.2221  0.9966
   73SOL     vw  292   5.863   2.103   2.939 -0.3741 -0.1091  0.1130
   74SOL     ow  293   4.730   3.327   5.656 -0.9332 -0.2679  0.1312
   74SOL     hw  294   4.645   3.316   5.700 -0.6670  2.0896  1.3780
   74SOL     hw  295   4.786   3.369   5.721 -0.5103  3.4781 -2.3304
   74SOL     vw  296   4.726   3.331   5.670 -0.8423  0.5374 -0.0296
   75SOL     ow  297   4.194   5.291   4.444  0.2670 -0.5220  0.0492
   75SOL     hw  298   4.258   5.307   4.375  1.6702  0.6490  1.5413
   75SOL     hw  299   4.160   5.378   4.467 -0.9958 -1.0039  0.1035
   75SOL     vw  300   4.198   5.305   4.438  0.2854 -0.4311  0.2534
   76SOL     ow  301   3.990   6.713   0.185  0.7100  0.0054  0.9828
   76SOL     hw  302   3.903   6.699   0.222  0.4976 -2.2928 -0.1968
   76SOL     hw  303   4.024   6.625   0.169  1.8265  0.8203 -1.7769
   76SOL     vw  304   3.983   6.700   0.188  0.8293 -0.1903  0.4630
   77SOL     ow  305   0.348   1.536   1.674 -0.1554 -0.0152 -0.2220
   77SOL     hw  306   0.254   1.540   1.654 -0.1070  0.2177 -0.4151
   77SOL     hw  307   0.390   1.578   1.598  0.0658  0.4751  0.1658
   77SOL     vw  308   0.341   1.542   1.661 -0.1199  0.0802 -0.1963
   78SOL     ow  309   1.859   6.182   1.485 -0.3948 -0.0011 -0.0488
   78SOL     hw  310   1.945   6.215   1.512 -1.1119  3.0376 -1.1032
   78SOL     hw  311   1.869   6.166   1.391 -0.9879  0.4928 -0.2007
   78SOL     vw  312   1.872   6.185   1.476 -0.5677  0.4647 -0.2080
   79SOL     ow  313   1.366   5.981   1.901  0.2534 -0.3096 -0.1228
   79SOL     hw  314   1.383   6.047   1.969  0.6879 -0.2139 -0.3219
   79SOL     hw  315   1.436   5.917   1.912 -0.2304 -0.8041  0.1410
   79SOL     vw  316   1.377   5.981   1.912  0.2469 -0.3622 -0.1143
   80SOL     ow  317   5.282   2.362   6.347  0.3054 -0.1699 -0.2868
   80SOL     hw  318   5.313   2.446   6.380  0.4167  0.5381 -2.0644
   80SOL     hw  319   5.197   2.382   6.307  0.2114 -0.9534 -0.5031
   80SOL     vw  320   5.275   2.376   6.346  0.3078 -0.1800 -0.5498
   81SOL     ow  321   4.110   1.497   6.807  0.2266 -0.5143 -0.2905
   81SOL     hw  322   4.086   1.584   6.776  0.8131 -0.3072 -0.1771
   81SOL     hw  323   4.163   1.460   6.736  2.9078  0.5587  1.0115
   81SOL     vw  324   4.114   1.503   6.793  0.6573 -0.3453 -0.1037
   82SOL     ow  325   3.326   6.569   6.745 -0.3489 -0.5731  0.3967
   82SOL     hw  326   3.411   6.547   6.709  0.5814  1.2690  1.3385
   82SOL     hw  327   3.291   6.485   6.775  0.9179 -1.4286 -0.4098
   82SOL     vw  328   3.332   6.555   6.744 -0.0590 -0.4427  0.4146
   83SOL     ow  329   5.992   5.230   5.539  0.1291 -0.5492 -0.3502
   83SOL     hw  330   5.917   5.256   5.593 -1.4516  0.4606 -2.8576
   83SOL     hw  331   5.977   5.138   5.518  0.2150 -0.6602  0.0612
   83SOL     vw  332   5.980   5.222   5.544 -0.0679 -0.4306 -0.6266
   84SOL     ow  333   7.069   6.723   3.829  0.0429  0.1896 -0.1874
   84SOL     hw  334   6.983   6.761   3.812 -0.1434  0.7763  1.7961
   84SOL     hw  335   7.052   6.651   3.890  0.8279 -0.6282 -0.8866
   84SOL     vw  336   7.056   6.718   3.835  0.1218  0.1590 -0.0180
   85SOL     ow  337   5.799   1.663   4.857  0.4229 -0.9512  0.1265
   85SOL     hw  338   5.828   1.611   4.932  0.9935 -1.2985 -0.3300
   85SOL     hw  339   5.710   1.689   4.880  0.5198 -1.2194  0.8408
   85SOL     vw  340   5.791   1.659   4.870  0.5109 -1.0324  0.1605
   86SOL     ow  341   0.981   6.473   5.530 -0.0069 -0.0021  0.4464
   86SOL     hw  342   1.034   6.551   5.522 -0.7065  0.2980 -2.1101
   86SOL     hw  343   0.893   6.505   5.549 -0.4562 -0.0450 -1.3626
   86SOL     vw  344   0.976   6.487   5.531 -0.1585  0.0319 -0.1297
   87SOL     ow  345   0.773   0.088   2.016  0.4494  0.8053  0.2238
   87SOL     hw  346   0.780   0.055   2.106 -0.7659 -0.7073 -0.1924
   87SOL     hw  347   0.680   0.103   2.003  0.1080 -2.1921 -1.7959
   87SOL     vw  348   0.762   0.085   2.026  0.2440  0.2102 -0.0975
   88SOL     ow  349   2.127   4.695   5.835  0.0456  0.3091  0.7940
   88SOL     hw  350   2.217   4.678   5.862 -0.6797 -2.2460  1.9584
   88SOL     hw  351   2.094   4.756   5.902  1.1759  2.2857 -0.3417
   88SOL     vw  352   2.135   4.701   5.848  0.0989  0.2329  0.7975
   89SOL     ow  353   1.558   0.675   0.949  0.7354 -0.1073 -0.1960
   89SOL     hw  354   1.629   0.726   0.989 -0.0776 -0.2797  1.5623
   89SOL     hw  355   1.600   0.594   0.921  0.8709 -1.4230  3.3146
   89SOL     vw  356   1.573   0.671   0.951  0.6461 -0.3036  0.4992
   90SOL     ow  357   2.365   3.880   1.484 -0.3963  0.3698 -0.2845
   90SOL     hw  358   2.283   3.832   1.477 -0.4076  0.4096 -0.4345
   90SOL     hw  359   2.424   3.835   1.423  0.2232 -0.7411  1.0806
   90SOL     vw  360   2.362   3.868   1.475 -0.3161  0.2285 -0.1242
   91SOL     ow  361   2.999   4.802   2.997 -0.2199 -0.5800  0.1151
   91SOL     hw  362   3.012   4.802   3.091  1.3314 -0.0462 -0.0730
   91SOL     hw  363   3.027   4.715   2.969 -1.4190 -1.0160  0.2165
   91SOL     vw  364   3.005   4.790   3.005 -0.1734 -0.5670  0.1035
   92SOL     ow  365   4.481   3.579   4.842  0.0794 -0.2875  0.2417
   92SOL     hw  366   4.572   3.604   4.860  0.3714  0.0764 -1.5898
   92SOL     hw  367   4.430   3.655   4.869  0.2655 -0.6056  1.5601
   92SOL     vw  368   4.487   3.593   4.848  0.1426 -0.2816  0.1738
   93SOL     ow  369   6.586   2.523   4.460 -0.1070  0.7416 -0.6726
   93SOL     hw  370   6.630   2.515   4.375  2.0242  1.4999  0.2861
   93SOL     hw  371   6.511   2.580   4.443 -0.9863 -0.8094 -2.4339
   93SOL     vw  372   6.582   2.529   4.446  0.0582  0.6369 -0.7784
   94SOL     ow  373   4.172   6.887   4.106  0.6201 -0.2560  0.2339
   94SOL     hw  374   4.077   6.878   4.105  0.5435 -0.3217 -3.0520
   94SOL     hw  375   4.202   6.838   4.029  3.3361 -0.1514  1.0991
   94SOL     vw  376   4.164   6.879   4.096  0.9685 -0.2508 -0.0854
   95SOL     ow  377   6.734   6.644   7.156  0.4488  0.5546  0.5427
   95SOL     hw  378   6.682   6.723   7.165 -0.2034  0.1931  0.0464
   95SOL     hw  379   6.820   6.675   7.126 -0.1770  0.9895 -0.8860
   95SOL     vw  380   6.739   6.658   7.153  0.2801  0.5641  0.2887
   96SOL     ow  381   1.322   4.990   4.441 -0.5381  0.0217 -0.1291
   96SOL     hw  382   1.318   5.071   4.492 -2.2213 -0.5328  0.7203
   96SOL     hw  383   1.292   5.015   4.353  1.8804  0.8787 -0.7816
   96SOL     vw  384   1.317   5.004   4.436 -0.4412  0.0618 -0.1032
   97SOL     ow  385   4.241   0.522   5.819  0.5709  0.1528  0.0020
   97SOL     hw  386   4.331   0.505   5.849 -0.2593 -0.8447  2.0839
   97SOL     hw  387   4.188   0.522   5.899 -1.5790 -1.1709 -1.3209
   97SOL     vw  388   4.246   0.519   5.834  0.1776 -0.1534  0.1018
   98SOL     ow  389   6.423   4.800   4.180 -0.1744 -0.4882  0.0169
   98SOL     hw  390   6.338   4.755   4.183  0.3213 -1.4095  1.1864
   98SOL     hw  391   6.472   4.762   4.252  0.9302  0.6745 -0.0904
   98SOL     vw  392   6.418   4.789   4.190  0.0367 -0.4563  0.1569
   99SOL     ow  393   4.293   0.469   2.993 -0.3092 -0.0140  0.3253
   99SOL     hw  394   4.256   0.494   2.908 -0.1235  0.8051  0.4758
   99SOL     hw  395   4.386   0.455   2.975  0.0606  1.7667  0.6874
   99SOL     vw  396   4.301   0.471   2.979 -0.2358  0.3290  0.3930
  100SOL     ow  397   0.950   4.484   1.713 -0.4032  0.2745  0.4758
  100SOL     hw  398   0.877   4.433   1.678  0.3037  0.3368 -1.1662
  100SOL     hw  399   0.912   4.568   1.738 -1.0942 -0.1207  0.7785
  100SOL     vw  400   0.936   4.488   1.712 -0.4011  0.2303  0.2990
  101SOL     ow  401   2.770   5.566   6.102  0.2364 -0.1676  0.2067
  101SOL     hw  402   2.843   5.627   6.095  0.1177 -0.0020  0.4035
  101SOL     hw  403   2.798   5.502   6.167  0.6593 -0.7474 -0.5310
  101SOL     vw  404   2.783   5.565   6.109  0.2766 -0.2224  0.1354
  102SOL     ow  405   5.757   4.379   3.618 -0.4586 -0.1395 -0.2035
  102SOL     hw  406   5.732   4.472   3.617 -0.1834 -0.0677 -0.8350
  102SOL     hw  407   5.676   4.333   3.598 -0.4871 -0.0081 -0.3929
  102SOL     vw  408   5.743   4.385   3.616 -0.4261 -0.1125 -0.3117
  103SOL     ow  409   6.574   2.976   6.231 -0.5999 -0.3800 -0.1294
  103SOL     hw  410   6.481   2.954   6.243 -0.0914 -1.6952  1.8473
  103SOL     hw  411   6.609   2.980   6.319  1.2553  0.0971 -0.8462
  103SOL     vw  412   6.566   2.974   6.244 -0.2880 -0.4907  0.0370
  104SOL     ow  413   3.923   1.354   1.548  0.1211  0.3395  0.0239
  104SOL     hw  414   3.851   1.291   1.544 -0.0009  0.5414 -1.5903
  104SOL     hw  415   3.991   1.317   1.492 -0.2244  1.9495 -1.5418
  104SOL     vw  416   3.922   1.341   1.540  0.0594  0.5785 -0.3957
  105SOL     ow  417   1.715   3.088   1.600 -0.2765 -0.2496 -0.3100
  105SOL     hw  418   1.686   3.155   1.661  0.2849 -0.5515  0.3021
  105SOL     hw  419   1.775   3.133   1.540  1.2281 -0.4579  0.9631
  105SOL     vw  420   1.719   3.103   1.600 -0.0039 -0.3170 -0.0613
  106SOL     ow  421   3.254   5.031   4.857  0.2306  0.8331  0.6622
  106SOL     hw  422   3.305   5.083   4.795  2.1303  0.6300  1.9585
  106SOL     hw  423   3.315   4.965   4.889 -0.7597  0.7396  2.5098
  106SOL     vw  424   3.269   5.029   4.853  0.3506  0.7939  1.0772
  107SOL     ow  425   2.338   2.943   4.051  0.4454 -0.0639 -0.1780
  107SOL     hw  426   2.316   2.882   3.981 -0.3531  0.7538 -0.6595
  107SOL     hw  427   2.356   2.887   4.127 -2.8417 -0.8652  0.1549
  107SOL     vw  428   2.337   2.927   4.052 -0.0937 -0.0618 -0.1976
  108SOL     ow  429   4.465   6.818   6.764  0.0747 -0.0924  0.4773
  108SOL     hw  430   4.469   6.755   6.836 -1.8050 -1.0356 -0.1624
  108SOL     hw  431   4.400   6.781   6.704 -1.4292  2.6535  0.2587
  108SOL     vw  432   4.457   6.805   6.766 -0.3717  0.1454  0.3641
  109SOL     ow  433   6.955   2.213   5.921  0.4281 -0.7871 -0.3053
  109SOL     hw  434   6.877   2.229   5.868  0.7044 -2.1939 -1.1877
  109SOL     hw  435   6.990   2.130   5.887  1.5222 -0.8871  1.0076
  109SOL     vw  436   6.949   2.204   5.909  0.6087 -0.9859 -0.2487
  110SOL     ow  437   0.159   2.797   3.570  0.2157  0.3736 -0.3891
  110SOL     hw  438   0.186   2.882   3.535 -1.2302 -0.0610 -2.8085
  110SOL     hw  439   0.165   2.738   3.495  0.0667 -1.4120  0.9543
  110SOL     vw  440   0.164   2.801   3.555  0.0052  0.0807 -0.5311
  111SOL     ow  441   5.674   2.287   6.591  0.6563 -0.2706  0.3994
  111SOL     hw  442   5.736   2.240   6.647  1.1642  2.8128  2.7289
  111SOL     hw  443   5.602   2.310   6.648 -0.4074  0.2530 -1.0826
  111SOL     vw  444   5.673   2.284   6.606  0.5827  0.2053  0.5114
  112SOL     ow  445   1.317   0.846   3.957  0.2205 -0.4300  0.5313
  112SOL     hw  446   1.316   0.896   3.876 -0.1287  1.2269  1.4984
  112SOL     hw  447   1.395   0.876   4.003  2.2471 -3.6650 -0.4663
  112SOL     vw  448   1.327   0.856   3.953  0.4418 -0.6382  0.5274
  113SOL     ow  449   0.544   0.030   0.431  0.1093 -0.2903  0.1224
  113SOL     hw  450   0.525   0.043   0.338 -3.2236  0.6908  0.8232
  113SOL     hw  451   0.547   0.118   0.467  2.1017 -0.6285  0.9049
  113SOL     vw  452   0.542   0.043   0.423 -0.0675 -0.2055  0.3181
  114SOL     ow  453   4.298   2.234   6.278  0.0428 -0.1491  0.2692
  114SOL     hw  454   4.233   2.257   6.344  0.7360 -0.8839  1.2533
  114SOL     hw  455   4.295   2.138   6.274 -1.5048 -0.0700 -2.3821
  114SOL     vw  456   4.289   2.224   6.287 -0.0701 -0.2356  0.0491
  115SOL     ow  457   1.703   6.254   4.807 -0.0945 -0.4121 -0.0638
  115SOL     hw  458   1.786   6.296   4.786  0.0967  0.2482  1.8017
  115SOL     hw  459   1.638   6.301   4.754  0.1617  2.0828  1.6430
  115SOL     vw  460   1.706   6.266   4.798 -0.0355  0.0043  0.4072
  116SOL     ow  461   6.892   0.833   3.345  0.1512 -0.1267 -0.0362
  116SOL     hw  462   6.911   0.924   3.322  0.7539 -0.0192  0.8221
  116SOL     hw  463   6.852   0.796   3.266  0.0658  0.8290 -0.4559
  116SOL     vw  464   6.889   0.840   3.331  0.2196  0.0136  0.0217
  117SOL     ow  465   1.094   0.959   5.145  0.9488  0.3887  0.3884
  117SOL     hw  466   1.152   1.009   5.203  0.5540  0.3247  0.8412
  117SOL     hw  467   1.019   1.017   5.131 -0.0932 -0.5325  1.9110
  117SOL     vw  468   1.092   0.973   5.150  0.7592  0.2587  0.6487
  118SOL     ow  469   0.751   5.735   5.424  0.1955  0.4682  0.1148
  118SOL     hw  470   0.774   5.662   5.366  1.2089  1.2717 -0.5232
  118SOL     hw  471   0.833   5.783   5.437 -0.4559  1.5146  0.5041
  118SOL     vw  472   0.765   5.731   5.418  0.2432  0.7122  0.0820
  119SOL     ow  473   0.091   2.692   0.845  0.6796  0.0849  0.8901
  119SOL     hw  474   0.047   2.624   0.896  1.8181 -0.2635  1.4427
  119SOL     hw  475   0.068   2.774   0.889  0.4103 -0.0716  1.0413
  119SOL     vw  476   0.082   2.694   0.858  0.7942  0.0184  0.9830
  120SOL     ow  477   7.119   6.176   4.480  0.1275  0.0514 -0.7027
  120SOL     hw  478   7.033   6.195   4.443  0.3140 -1.6023 -2.0688
  120SOL     hw  479   7.179   6.179   4.406  1.3072  1.2370  0.2302
  120SOL     vw  480   7.116   6.179   4.466  0.3078 -0.0105 -0.7598
  121SOL     ow  481   5.864   6.996   0.890 -0.0772 -0.6490  0.4447
  121SOL     hw  482   5.911   6.951   0.960 -0.1644 -1.5561 -0.0647
  121SOL     hw  483   5.782   6.947   0.881  0.3544 -1.1480 -0.9427
  121SOL     vw  484   5.860   6.984   0.898 -0.0319 -0.8345  0.1944
  122SOL     ow  485   6.623   3.823   0.096 -0.4019  0.2323  0.5586
  122SOL     hw  486   6.557   3.760   0.067 -0.9950  1.8836 -2.0491
  122SOL     hw  487   6.583   3.867   0.172 -1.4712 -0.1377  0.2281
  122SOL     vw  488   6.609   3.821   0.102 -0.6213  0.4013  0.1709
  123SOL     ow  489   2.654   3.562   1.462  0.4982  0.6429 -0.3774
  123SOL     hw  490   2.640   3.584   1.554 -2.1881  0.6722 -0.7246
  123SOL     hw  491   2.632   3.641   1.414 -0.4189 -0.0418 -1.1363
  123SOL     vw  492   2.649   3.575   1.468  0.0228  0.5565 -0.5234
  124SOL     ow  493   0.770   6.665   1.685 -0.0301 -0.1359 -0.1162
  124SOL     hw  494   0.799   6.574   1.684 -0.6169 -0.3269 -0.9062
  124SOL     hw  495   0.781   6.694   1.595 -1.8293 -0.0902 -0.3602
  124SOL     vw  496   0.775   6.657   1.673 -0.3449 -0.1552 -0.2527
  125SOL     ow  497   4.835   0.987   6.397 -0.0560  0.1292 -0.0338
  125SOL     hw  498   4.826   0.967   6.490  3.5643 -2.9045 -0.1503
  125SOL     hw  499   4.786   0.918   6.352  2.0571 -1.2362 -0.3409
  125SOL     vw  500   4.827   0.975   6.403  0.7005 -0.4511 -0.0899
  126SOL     ow  501   1.596   2.545   0.031  0.9356 -0.1759  0.2472
  126SOL     hw  502   1.686   2.522   0.007  1.9670  2.0331  1.6094
  126SOL     hw  503   1.605   2.594   0.113 -1.5540 -0.0628  0.5350
  126SOL     vw  504   1.609   2.549   0.038  0.7432  0.1304  0.4649
  127SOL     ow  505   2.669   4.704   3.943 -0.1076 -0.0909 -0.5245
  127SOL     hw  506   2.690   4.729   3.853  1.2504  0.3023 -0.1234
  127SOL     hw  507   2.605   4.633   3.933  0.4442 -0.4500 -1.8220
  127SOL     vw  508   2.663   4.698   3.930  0.1444 -0.0863 -0.6428
  128SOL     ow  509   0.209   2.627   5.132  0.2205  0.1192 -0.8818
  128SOL     hw  510   0.169   2.565   5.193 -1.7978  1.1569 -1.0729
  128SOL     hw  511   0.178   2.712   5.160  0.4580  0.7611 -2.4693
  128SOL     vw  512   0.200   2.630   5.144 -0.0145  0.3409 -1.1165
  129SOL     ow  513   0.187   5.684   5.782  0.1416  0.7802  1.0799
  129SOL     hw  514   0.274   5.649   5.804 -0.3957 -1.1718  0.2468
  129SOL     hw  515   0.205   5.756   5.722  1.1640 -0.6446 -0.3957
  129SOL     vw  516   0.201   5.689   5.777  0.2056  0.3347  0.7756
  130SOL     ow  517   2.618   2.736   1.742 -0.2807 -0.1301  0.3071
  130SOL     hw  518   2.662   2.652   1.734 -2.6274 -1.4827  0.7058
  130SOL     hw  519   2.686   2.801   1.723  1.9859 -2.0152  1.4351
  130SOL     vw  520   2.633   2.734   1.739 -0.2912 -0.5573  0.5085
  131SOL     ow  521   0.877   1.794   2.104  0.0862 -0.8651  0.0771
  131SOL     hw  522   0.878   1.703   2.133 -0.6687 -1.8940 -2.8215
  131SOL     hw  523   0.788   1.809   2.072  0.6204  0.3787 -0.9178
  131SOL     vw  524   0.866   1.784   2.104  0.0571 -0.8368 -0.4365
  132SOL     ow  525   4.312   4.613   1.385  0.5029 -0.6098 -0.0009
  132SOL     hw  526   4.262   4.563   1.450  0.7815  0.1618  0.8297
  132SOL     hw  527   4.387   4.557   1.364  0.2039 -1.0303  0.0544
  132SOL     vw  528   4.315   4.599   1.391  0.5002 -0.5634  0.1159
  133SOL     ow  529   0.306   5.352   3.671  0.1391  0.0559  0.1090
  133SOL     hw  530   0.346   5.298   3.740  1.9542  0.5255 -0.5189
  133SOL     hw  531   0.224   5.307   3.651  2.3220 -3.6823 -1.6661
  133SOL     vw  532   0.300   5.339   3.678  0.6666 -0.3750 -0.2081
  134SOL     ow  533   1.757   1.096   3.084 -0.7512  0.3437  0.0565
  134SOL     hw  534   1.768   1.151   3.007 -2.0299 -2.1068 -2.0424
  134SOL     hw  535   1.798   1.145   3.155  3.1010  1.5427 -2.6619
  134SOL     vw  536   1.764   1.109   3.083 -0.4116  0.1786 -0.5790
  135SOL     ow  537   3.441   0.990   6.103 -0.3084 -0.3584 -0.4255
  135SOL     hw  538   3.354   1.030   6.101  0.2595  0.9418 -0.0540
  135SOL     hw  539   3.441   0.940   6.185 -0.2521  0.7373  0.2641
  135SOL     vw  540   3.429   0.989   6.114 -0.2261 -0.0423 -0.2856
  136SOL     ow  541   2.892   4.968   2.767  0.2498 -0.2501 -0.4907
  136SOL     hw  542   2.931   5.049   2.734  1.3877 -1.1954 -1.5394
  136SOL     hw  543   2.836   4.938   2.696  0.3387 -0.7230 -0.3631
  136SOL     vw  544   2.890   4.975   2.754  0.4115 -0.4373 -0.6123
  137SOL     ow  545   2.264   1.564   6.355  0.1023 -0.1929 -0.2034
  137SOL     hw  546   2.195   1.536   6.416 -1.7399  2.0322 -1.1189
  137SOL     hw  547   2.316   1.626   6.405 -1.1758  1.3363 -0.6810
  137SOL     vw  548   2.262   1.568   6.369 -0.3093  0.3024 -0.3872
  138SOL     ow  549   3.390   1.427   6.272 -0.5619 -0.0309 -0.2323
  138SOL     hw  550   3.352   1.384   6.196 -0.3607  0.6790 -0.7476
  138SOL     hw  551   3.423   1.356   6.327  0.2624 -0.5008 -1.3191
  138SOL     vw  552   3.389   1.412   6.270 -0.4268  0.0008 -0.4437
  139SOL     ow  553   2.072   3.608   3.683  0.4370 -0.4525 -0.6983
  139SOL     hw  554   2.055   3.618   3.777  0.4957 -1.9460 -0.5013
  139SOL     hw  555   2.070   3.697   3.648  0.8484  0.1705  0.7952
  139SOL     vw  556   2.070   3.621   3.691  0.4991 -0.5673 -0.4752
  140SOL     ow  557   2.349   1.330   1.649 -0.4022  0.0321  0.2485
  140SOL     hw  558   2.333   1.383   1.572  0.6227  0.1736  0.1254
  140SOL     hw  559   2.410   1.381   1.702 -0.7574 -0.2529  0.9551
  140SOL     vw  560   2.355   1.344   1.646 -0.3138  0.0131  0.3255
  141SOL     ow  561   3.627   2.357   2.412 -0.1551  0.6968 -0.4725
  141SOL     hw  562   3.539   2.358   2.449  0.1095 -1.4239  0.3302
  141SOL     hw  563   3.643   2.448   2.387 -3.1277  0.8849 -2.0876
  141SOL     vw  564   3.618   2.369   2.414 -0.5125  0.4418 -0.5797
  142SOL     ow  565   0.504   1.257   1.135 -0.4337  0.0009  0.2018
  142SOL     hw  566   0.445   1.306   1.192 -0.2371  0.8895 -0.3575
  142SOL     hw  567   0.517   1.174   1.182 -1.8178 -0.0699  0.5063
  142SOL     vw  568   0.498   1.252   1.149 -0.5904  0.1088  0.1681
  143SOL     ow  569   2.081   0.774   6.596  0.1310 -0.8346 -0.1079
  143SOL     hw  570   1.992   0.767   6.631 -0.3337 -0.3470 -1.1420
  143SOL     hw  571   2.128   0.828   6.659 -0.3872 -0.8558  0.3011
  143SOL     vw  572   2.075   0.780   6.609  0.0012 -0.7730 -0.1905
  144SOL     ow  573   4.553   6.203   2.539  1.0186 -0.1573 -0.0243
  144SOL     hw  574   4.600   6.192   2.621 -0.2867  1.5754  1.0289
  144SOL     hw  575   4.564   6.296   2.517 -1.3173  0.1723 -0.0469
  144SOL     vw  576   4.561   6.214   2.547  0.5381  0.1149  0.1116
  145SOL     ow  577   0.715   2.367   3.816 -0.7033 -0.9968  0.8621
  145SOL     hw  578   0.709   2.299   3.883 -3.2098 -2.3729 -0.6296
  145SOL     hw  579   0.736   2.320   3.735 -0.3162  0.3111  0.1665
  145SOL     vw  580   0.717   2.352   3.814 -0.9829 -1.0059  0.5735
  146SOL     ow  581   2.402   6.686   3.612 -0.6639  0.0875 -0.2442
  146SOL     hw  582   2.324   6.657   3.565 -0.6628  0.8659 -0.7463
  146SOL     hw  583   2.453   6.733   3.546 -0.1978  0.3554  0.3021
  146SOL     vw  584   2.399   6.689   3.597 -0.6024  0.2258 -0.2383
  147SOL     ow  585   0.266   6.758   0.624 -0.2251 -0.9476  0.1903
  147SOL     hw  586   0.241   6.767   0.716 -0.6577 -2.6511  0.2714
  147SOL     hw  587   0.221   6.679   0.594 -0.8546  0.0678 -1.7762
  147SOL     vw  588   0.257   6.749   0.632 -0.3652 -1.0383 -0.0584
  148SOL     ow  589   0.959   2.451   1.572 -0.3576 -0.4631  0.9165
  148SOL     hw  590   0.970   2.357   1.558  0.5864 -0.2194 -0.0804
  148SOL     hw  591   0.984   2.465   1.663 -1.0342 -1.2469  1.2327
  148SOL     vw  592   0.964   2.441   1.582 -0.3223 -0.5343  0.8267
  149SOL     ow  593   0.564   1.692   6.866  0.3231 -0.4434 -0.2273
  149SOL     hw  594   0.547   1.679   6.772  0.0229 -0.6169 -0.1490
  149SOL     hw  595   0.657   1.670   6.877  0.1084 -1.4454 -0.2976
  149SOL     vw  596   0.574   1.687   6.855  0.2552 -0.5985 -0.2260
  150SOL     ow  597   4.770   4.933   6.431  0.9373 -0.1838 -0.5322
  150SOL     hw  598   4.687   4.891   6.407  0.7998 -1.0854  1.3138
  150SOL     hw  599   4.761   5.023   6.400 -0.1062 -0.6530 -1.7000
  150SOL     vw  600   4.758   4.939   6.424  0.7815 -0.3645 -0.4427
  151SOL     ow  601   1.953   4.497   5.660 -0.1927  1.0155  0.1749
  151SOL     hw  602   1.934   4.434   5.591  1.0522  0.6171  0.1782
  151SOL     hw  603   1.876   4.493   5.718  0.4577 -1.5725  0.9770
  151SOL     vw  604   1.940   4.488   5.659  0.0575  0.6216  0.2811
  152SOL     ow  605   6.101   2.085   4.134  0.1914 -0.5034 -0.9974
  152SOL     hw  606   6.188   2.074   4.094 -0.1629 -0.6157 -1.7541
  152SOL     hw  607   6.095   2.179   4.152  0.9174 -0.6533  0.1186
  152SOL     vw  608   6.112   2.096   4.131  0.2406 -0.5381 -0.9499
  153SOL     ow  609   6.941   6.988   2.520  0.3169 -0.4838  0.5878
  153SOL     hw  610   6.931   7.039   2.440  1.7032  0.0173  0.7054
  153SOL     hw  611   6.952   6.898   2.490 -0.1701 -0.4393  0.2753
  153SOL     vw  612   6.941   6.983   2.506  0.4356 -0.4120  0.5622
  154SOL     ow  613   1.198   6.907   3.892  0.1022  0.4410  0.0849
  154SOL     hw  614   1.266   6.875   3.952  0.2052 -0.2163 -0.3672
  154SOL     hw  615   1.228   6.993   3.865 -1.0237  1.7457  2.6731
  154SOL     vw  616   1.211   6.914   3.896 -0.0327  0.5262  0.3668
  155SOL     ow  617   2.546   2.947   5.466 -0.0040  0.1554  0.1688
  155SOL     hw  618   2.622   2.973   5.414  0.2098 -0.3929  0.2041
  155SOL     hw  619   2.471   2.990   5.424  0.4405  1.5592  0.7458
  155SOL     vw  620   2.546   2.956   5.454  0.0829  0.2682  0.2494
  156SOL     ow  621   5.215   0.707   5.151  0.0108  0.9200 -0.1288
  156SOL     hw  622   5.164   0.759   5.213  0.7271 -1.3141  2.5358
  156SOL     hw  623   5.305   0.735   5.164 -0.0103  1.9506 -1.8396
  156SOL     vw  624   5.220   0.717   5.161  0.1025  0.7612 -0.0031
  157SOL     ow  625   2.446   4.366   6.657 -0.5623  0.1070 -0.1676
  157SOL     hw  626   2.470   4.365   6.749 -1.5606  0.2806  0.1091
  157SOL     hw  627   2.358   4.328   6.654 -1.2501  1.6569 -0.8153
  157SOL     vw  628   2.438   4.361   6.669 -0.7849  0.3345 -0.2165
  158SOL     ow  629   4.354   1.050   5.718 -0.2674 -0.2759 -0.0743
  158SOL     hw  630   4.437   1.098   5.713 -1.4395  1.7977 -0.5911
  158SOL     hw  631   4.326   1.059   5.809 -1.0882  1.1384 -0.4458
  158SOL     vw  632   4.361   1.058   5.729 -0.5305  0.1843 -0.1917
  159SOL     ow  633   2.761   5.891   5.949  0.1064  0.5905  0.2324
  159SOL     hw  634   2.755   5.841   6.030 -3.7548  2.0340  1.0528
  159SOL     hw  635   2.743   5.982   5.975 -0.9200  1.1626 -2.1718
  159SOL     vw  636   2.758   5.897   5.963 -0.5385  0.8564  0.0238
  160SOL     ow  637   2.172   5.745   1.896 -0.5061  0.0800 -0.1704
  160SOL     hw  638   2.201   5.663   1.855 -2.4166 -0.0262 -1.4729
  160SOL     hw  639   2.183   5.731   1.990  0.1731 -1.2720 -0.4349
  160SOL     vw  640   2.177   5.732   1.903 -0.6686 -0.1125 -0.3772
  161SOL     ow  641   2.953   5.750   5.782 -0.3150 -0.3228  0.2591
  161SOL     hw  642   3.028   5.761   5.840  0.6073  2.4321 -1.2827
  161SOL     hw  643   2.896   5.825   5.802  0.2847  1.0147 -2.6359
  161SOL     vw  644   2.955   5.761   5.793 -0.1142  0.2174 -0.3264
  162SOL     ow  645   2.582   2.241   4.122 -0.3966  0.5086 -0.0335
  162SOL     hw  646   2.643   2.173   4.150  0.5630  0.3369 -2.3132
  162SOL     hw  647   2.498   2.196   4.116  0.1281 -0.4002 -0.9947
  162SOL     vw  648   2.579   2.226   4.125 -0.2007  0.3661 -0.4611
  163SOL     ow  649   4.017   3.449   4.092 -0.4504 -0.2217 -0.2497
  163SOL     hw  650   3.996   3.503   4.169 -0.2719 -0.6540  0.1107
  163SOL     hw  651   3.935   3.404   4.072 -0.9609  1.0979 -1.3267
  163SOL     vw  652   4.003   3.450   4.100 -0.4942 -0.1045 -0.3440
  164SOL     ow  653   5.170   5.311   2.815  0.2065 -0.3084 -0.2529
  164SOL     hw  654   5.244   5.251   2.817  0.1787 -0.3292  0.5891
  164SOL     hw  655   5.168   5.344   2.725  1.0566 -0.5338 -0.3644
  164SOL     vw  656   5.179   5.308   2.803  0.3152 -0.3409 -0.1565
  165SOL     ow  657   2.351   0.575   0.228 -0.0389  0.4721  0.4969
  165SOL     hw  658   2.325   0.596   0.317 -0.8899 -1.4254  0.7389
  165SOL     hw  659   2.405   0.649   0.200 -1.5132  2.1217  1.8124
  165SOL     vw  660   2.354   0.587   0.236 -0.3457  0.4393  0.7024
  166SOL     ow  661   2.554   7.029   2.149 -0.6714  0.4104 -0.3753
  166SOL     hw  662   2.560   7.125   2.153 -0.6483  0.3635  1.1138
  166SOL     hw  663   2.587   6.999   2.233  0.6960 -0.9978 -1.3676
  166SOL     vw  664   2.559   7.038   2.161 -0.4880  0.2184 -0.3098
  167SOL     ow  665   1.595   6.248   1.855 -0.0904  0.1781 -0.2037
  167SOL     hw  666   1.543   6.208   1.925 -0.0721 -0.3771 -0.5007
  167SOL     hw  667   1.543   6.323   1.827  0.0802  0.6281  0.6562
  167SOL     vw  668   1.581   6.252   1.861 -0.0654  0.1643 -0.1294
  168SOL     ow  669   7.197   1.044   2.836 -0.3365  1.8312 -0.4911
  168SOL     hw  670   7.147   0.962   2.842 -0.1693  1.7732  0.2500
  168SOL     hw  671   7.250   1.034   2.757  2.7589 -0.5873  1.6323
  168SOL     vw  672   7.197   1.031   2.827  0.0940  1.5045 -0.1131
  169SOL     ow  673   0.842   5.683   0.326  0.8978  0.0747  0.3929
  169SOL     hw  674   0.785   5.727   0.389 -0.3038 -0.4773 -0.2789
  169SOL     hw  675   0.789   5.676   0.247  1.1818 -2.1760  0.3468
  169SOL     vw  676   0.827   5.688   0.324  0.7767 -0.2952  0.2982
  170SOL     ow  677   5.913   4.271   1.357 -1.4332  0.5764  0.1773
  170SOL     hw  678   5.891   4.281   1.450  0.8336  0.6567  0.7567
  170SOL     hw  679   5.994   4.321   1.345 -1.0936 -0.3014 -1.5919
  170SOL     vw  680   5.921   4.279   1.368 -1.0896  0.4714  0.0203
  171SOL     ow  681   1.536   3.959   1.619  0.1602 -0.7790  0.1091
  171SOL     hw  682   1.546   3.937   1.712 -1.9957 -1.6808  0.1827
  171SOL     hw  683   1.601   3.905   1.575  1.4964 -0.0411  1.0858
  171SOL     vw  684   1.546   3.949   1.625  0.0522 -0.8007  0.2477
  172SOL     ow  685   4.304   0.222   6.327 -0.0427  0.1763  0.7261
  172SOL     hw  686   4.349   0.152   6.280  1.3588  0.8787  0.9644
  172SOL     hw  687   4.309   0.197   6.419  0.5410  0.6226  0.8201
  172SOL     vw  688   4.310   0.209   6.333  0.2191  0.3278  0.7699
  173SOL     ow  689   0.512   2.837   2.961 -0.2041  0.2602 -0.1415
  173SOL     hw  690   0.481   2.760   2.914 -0.3476 -0.7505  1.5464
  173SOL     hw  691   0.433   2.873   3.001  0.2920 -0.5944  1.7060
  173SOL     vw  692   0.497   2.832   2.960 -0.1576  0.0141  0.3251
  174SOL     ow  693   5.123   3.366   7.171 -1.0296  0.3852  0.5433
  174SOL     hw  694   5.034   3.378   7.203  0.0332  1.2199  3.5220
  174SOL     hw  695   5.176   3.423   7.226  1.3229  0.2891 -1.4594
  174SOL     vw  696   5.118   3.375   7.183 -0.5786  0.4826  0.6721
  175SOL     ow  697   6.255   2.622   3.223  0.0985 -0.3187  0.4006
  175SOL     hw  698   6.271   2.708   3.261 -3.0300 -1.1564  4.2230
  175SOL     hw  699   6.170   2.630   3.181 -1.0037 -1.8238  2.2158
  175SOL     vw  700   6.246   2.635   3.222 -0.4599 -0.6279  1.1443
  176SOL     ow  701   0.170   5.336   6.645 -0.5231 -0.3138  0.1575
  176SOL     hw  702   0.183   5.250   6.685 -3.3519 -0.6724  0.4861
  176SOL     hw  703   0.234   5.340   6.574 -0.6145 -2.8820 -0.1348
  176SOL     vw  704   0.180   5.326   6.641 -0.9084 -0.6998  0.1624
  177SOL     ow  705   0.303   0.892   0.050 -0.7675  0.1460  0.3429
  177SOL     hw  706   0.241   0.899   0.122 -1.1049 -0.0086  0.0687
  177SOL     hw  707   0.266   0.947  -0.019  0.1504  1.2576  0.7037
  177SOL     vw  708   0.290   0.900   0.051 -0.6909  0.2723  0.3545
  178SOL     ow  709   3.269   5.496   1.834 -0.1890 -0.3151 -0.3731
  178SOL     hw  710   3.352   5.469   1.794 -0.5113 -0.6498 -0.8177
  178SOL     hw  711   3.278   5.590   1.845  0.6618 -0.4795  0.5283
  178SOL     vw  712   3.281   5.505   1.830 -0.1192 -0.3810 -0.3128
  179SOL     ow  713   2.297   5.006   4.857  0.3868 -0.3508 -0.1611
  179SOL     hw  714   2.312   4.912   4.868  1.1097 -0.2194  0.0916
  179SOL     hw  715   2.356   5.032   4.786 -0.4369 -0.2350 -0.8176
  179SOL     vw  716   2.307   4.997   4.849  0.3735 -0.3181 -0.2141
  180SOL     ow  717   3.175   6.803   5.570 -0.1586  0.2482  0.4428
  180SOL     hw  718   3.173   6.778   5.478 -1.3077  1.0454  0.2248
  180SOL     hw  719   3.189   6.720   5.617  1.8837  0.0097 -0.4714
  180SOL     vw  720   3.176   6.789   5.564 -0.0407  0.3219  0.2935
  181SOL     ow  721   3.864   6.191   6.300  0.0312 -0.6278 -0.3783
  181SOL     hw  722   3.792   6.243   6.335  0.2153 -0.0906 -0.7814
  181SOL     hw  723   3.943   6.229   6.339  0.0144 -2.3363  1.4708
  181SOL     vw  724   3.865   6.203   6.310  0.0532 -0.7825 -0.1879
  182SOL     ow  725   3.650   6.184   5.015 -0.2551 -0.0137 -0.5812
  182SOL     hw  726   3.700   6.265   5.010  1.5354 -1.0818 -1.3070
  182SOL     hw  727   3.613   6.173   4.928  0.6982 -0.6431 -0.9284
  182SOL     vw  728   3.652   6.193   5.003  0.1069 -0.2375 -0.7231
  183SOL     ow  729   7.002   0.098   3.166 -0.0063  0.0618 -0.0466
  183SOL     hw  730   7.066   0.061   3.105 -0.0075 -1.1872  0.6770
  183SOL     hw  731   6.937   0.029   3.177 -0.7440  0.7955  0.3133
  183SOL     vw  732   7.002   0.084   3.159 -0.1035 -0.0062  0.0963
  184SOL     ow  733   2.443   3.740   1.010 -0.8170 -0.0644  0.5372
  184SOL     hw  734   2.356   3.714   0.980 -0.2385  0.5183 -1.7854
  184SOL     hw  735   2.497   3.662   0.996 -0.7735 -0.1821  1.2834
  184SOL     vw  736   2.438   3.726   1.004 -0.7350 -0.0031  0.3293
  185SOL     ow  737   6.051   0.581   2.874  0.0983  0.3689 -0.2091
  185SOL     hw  738   6.062   0.518   2.803 -0.8453  1.4537 -1.3594
  185SOL     hw  739   6.034   0.527   2.951  0.8513 -0.8262 -0.8367
  185SOL     vw  740   6.050   0.566   2.875  0.0732  0.3543 -0.4438
  186SOL     ow  741   3.986   0.295   1.033  0.3388  0.7348  1.4471
  186SOL     hw  742   4.072   0.293   0.990  0.5186  3.4801  1.5178
  186SOL     hw  743   3.972   0.387   1.054 -2.4932  0.3077  1.7849
  186SOL     vw  744   3.996   0.307   1.030 -0.0112  1.0406  1.5010
  187SOL     ow  745   0.550   0.911   0.002  0.2109 -0.0041 -0.4101
  187SOL     hw  746   0.458   0.889   0.014 -0.0203  1.3186  0.4793
  187SOL     hw  747   0.551   0.970  -0.074  0.2774  0.2042 -0.2499
  187SOL     vw  748   0.538   0.916  -0.007  0.1892  0.1979 -0.2718
  188SOL     ow  749   3.207   6.227   4.911 -0.4065  0.1080  0.5153
  188SOL     hw  750   3.241   6.238   4.823  0.4021  3.1613  1.1111
  188SOL     hw  751   3.117   6.261   4.906 -1.7692 -3.1227  0.1514
  188SOL     vw  752   3.199   6.233   4.899 -0.4796  0.0846  0.5460
  189SOL     ow  753   6.564   4.011   4.428 -0.6535 -1.0694 -0.5666
  189SOL     hw  754   6.594   4.093   4.390  1.0490 -1.1459  0.5067
  189SOL     hw  755   6.574   3.946   4.359 -1.0154 -0.5685 -1.0921
  189SOL     vw  756   6.569   4.013   4.414 -0.4764 -1.0135 -0.4942
  190SOL     ow  757   4.927   4.221   1.505 -0.1949 -0.2191  0.9607
  190SOL     hw  758   5.016   4.254   1.490  0.4828 -2.0599  0.6019
  190SOL     hw  759   4.870   4.292   1.476  1.1317  1.3779  2.0425
  190SOL     vw  760   4.932   4.235   1.499  0.0696 -0.2513  1.0560
  191SOL     ow  761   6.173   5.859   1.819  0.1651 -0.4775  0.7086
  191SOL     hw  762   6.247   5.828   1.766  3.5267  2.2866  3.3139
  191SOL     hw  763   6.148   5.941   1.779  0.2540 -0.1799  1.2485
  191SOL     vw  764   6.180   5.866   1.807  0.6206 -0.0734  1.1235
  192SOL     ow  765   6.345   6.656   3.544 -0.6686  0.2723  0.5567
  192SOL     hw  766   6.435   6.625   3.530 -0.3792  0.6492  1.5103
  192SOL     hw  767   6.290   6.580   3.524 -0.2699  0.5213 -1.7420
  192SOL     vw  768   6.350   6.642   3.540 -0.5779  0.3548  0.3792
  193SOL     ow  769   3.364   4.446   3.659  0.8007  0.4079  0.0598
  193SOL     hw  770   3.350   4.389   3.735  0.3885  3.2763  2.3413
  193SOL     hw  771   3.457   4.470   3.665  0.7346  0.7463 -0.2748
  193SOL     vw  772   3.375   4.442   3.670  0.7375  0.8309  0.3167
  194SOL     ow  773   6.779   1.539   0.456  0.0679  0.0324 -0.5709
  194SOL     hw  774   6.810   1.496   0.536 -0.8094  0.9203  0.2691
  194SOL     hw  775   6.694   1.576   0.480 -0.1380  0.4558 -1.8784
  194SOL     vw  776   6.772   1.538   0.470 -0.0746  0.2055 -0.6326
  195SOL     ow  777   3.257   0.972   2.078 -0.1498  0.1268  0.1624
  195SOL     hw  778   3.164   0.981   2.055 -0.6723 -2.3380  0.9509
  195SOL     hw  779   3.303   1.024   2.012 -2.1444  3.7306  1.3714
  195SOL     vw  780   3.251   0.980   2.066 -0.4820  0.2771  0.4259
  196SOL     ow  781   3.892   3.005   3.105  0.8959 -0.0437 -0.0878
  196SOL     hw  782   3.869   3.034   3.017  0.3673  0.3819  0.1794
  196SOL     hw  783   3.889   2.910   3.101  1.1376 -0.0321 -0.5950
  196SOL     vw  784   3.889   2.996   3.093  0.8581  0.0141 -0.1194
  197SOL     ow  785   6.876   3.727   0.021  0.5202  0.0295 -0.0428
  197SOL     hw  786   6.951   3.669   0.013  0.9066  0.4414  0.5312
  197SOL     hw  787   6.858   3.730   0.115  2.1344  2.8576  0.2944
  197SOL     vw  788   6.883   3.720   0.032  0.7842  0.4570  0.0774
  198SOL     ow  789   4.609   6.594   0.494  0.7898 -0.6474 -0.0938
  198SOL     hw  790   4.639   6.585   0.403 -0.3983 -1.3863 -0.4382
  198SOL     hw  791   4.518   6.565   0.492  1.1291 -1.9941  1.5965
  198SOL     vw  792   4.601   6.589   0.482  0.6778 -0.9224  0.0837
  199SOL     ow  793   5.817   1.564   5.892  0.0390 -0.1834 -0.2158
  199SOL     hw  794   5.910   1.557   5.870 -0.0773  0.3644 -0.9024
  199SOL     hw  795   5.773   1.579   5.809 -0.4454  1.5376  0.2902
  199SOL     vw  796   5.824   1.565   5.878 -0.0403  0.1159 -0.2396
  200SOL     ow  797   1.243   2.960   5.755  0.1489 -0.3705 -0.5065
  200SOL     hw  798   1.219   2.893   5.819  1.0662 -0.4057 -0.1901
  200SOL     hw  799   1.178   3.029   5.767  0.2595 -0.4180  0.4003
  200SOL     vw  800   1.231   2.960   5.765  0.2845 -0.3815 -0.3450
  201SOL     ow  801   4.310   1.346   5.869 -0.3339 -0.0448  0.6609
  201SOL     hw  802   4.234   1.393   5.834 -0.5029  1.4019  2.7268
  201SOL     hw  803   4.277   1.260   5.894 -1.1459  0.3201  0.8709
  201SOL     vw  804   4.296   1.341   5.868 -0.4632  0.1942  0.9615
  202SOL     ow  805   5.232   5.751   4.781 -0.2774  0.6146 -0.2116
  202SOL     hw  806   5.286   5.678   4.752 -1.2744 -0.2642  0.0741
  202SOL     hw  807   5.274   5.782   4.861 -0.4348 -0.3612  0.2674
  202SOL     vw  808   5.245   5.745   4.788 -0.4296  0.3695 -0.1106
  203SOL     ow  809   2.892   3.752   1.662 -0.1152 -0.3688  0.0815
  203SOL     hw  810   2.831   3.816   1.626  1.7602  1.6668  0.3242
  203SOL     hw  811   2.911   3.784   1.750  0.8964 -1.2677  0.2105
  203SOL     vw  812   2.886   3.764   1.669  0.2657 -0.2187  0.1305
  204SOL     ow  813   4.908   3.446   4.909  0.0240 -0.0241  0.7554
  204SOL     hw  814   4.864   3.531   4.912  0.1875  0.2619 -1.9307
  204SOL     hw  815   5.000   3.466   4.922 -0.1520 -0.0844  2.1968
  204SOL     vw  816   4.914   3.459   4.911  0.0224  0.0057  0.5913
  205SOL     ow  817   0.896   4.706   3.226 -0.0356  0.5116 -0.5440
  205SOL     hw  818   0.822   4.678   3.281  0.4255 -0.5412 -0.4392
  205SOL     hw  819   0.970   4.713   3.287 -0.2228  2.5009 -0.4701
  205SOL     vw  820   0.896   4.703   3.242  0.0006  0.6351 -0.5203
  206SOL     ow  821   2.161   4.344   5.804  0.5737  0.2858 -0.6406
  206SOL     hw  822   2.080   4.384   5.774 -0.3396 -2.0824 -1.5560
  206SOL     hw  823   2.182   4.391   5.885 -0.7305  2.1077 -1.2863
  206SOL     vw  824   2.153   4.356   5.811  0.2811  0.2139 -0.8466
  207SOL     ow  825   1.535   3.725   2.274 -0.7385 -0.8155 -0.1185
  207SOL     hw  826   1.618   3.676   2.275 -0.7964 -0.9406  1.5447
  207SOL     hw  827   1.488   3.691   2.199  1.1981  0.1167 -1.8680
  207SOL     vw  828   1.540   3.714   2.264 -0.4907 -0.7091 -0.1298
  208SOL     ow  829   1.380   1.072   4.819 -0.1649 -0.6183  0.0641
  208SOL     hw  830   1.460   1.035   4.858  0.9319  1.5803  0.0743
  208SOL     hw  831   1.327   0.995   4.796  2.3800 -2.2161 -0.9116
  208SOL     vw  832   1.384   1.057   4.821  0.3155 -0.5391 -0.0632
  209SOL     ow  833   6.873   0.723   1.982 -0.7325 -0.4254  0.6382
  209SOL     hw  834   6.782   0.702   2.000 -1.1078  1.5105  1.1946
  209SOL     hw  835   6.889   0.806   2.027  1.0337 -0.2272 -0.2295
  209SOL     vw  836   6.863   0.731   1.990 -0.5488 -0.1438  0.5971
  210SOL     ow  837   4.829   3.296   5.379  0.0097 -0.3707  0.1493
  210SOL     hw  838   4.837   3.205   5.351  1.7431 -0.4678  0.8138
  210SOL     hw  839   4.788   3.290   5.466  2.8394 -0.8370  1.5646
  210SOL     vw  840   4.824   3.283   5.387  0.6120 -0.4450  0.4239
  211SOL     ow  841   1.994   1.303   0.338 -0.4301  0.2856  0.1823
  211SOL     hw  842   1.930   1.233   0.351  1.0099 -0.8916  1.3198
  211SOL     hw  843   1.995   1.350   0.421 -0.0566  0.5152  0.0490
  211SOL     vw  844   1.986   1.300   0.350 -0.1909  0.1606  0.3148
  212SOL     ow  845   1.418   1.030   6.947 -0.7129 -0.6660  0.6218
  212SOL     hw  846   1.355   0.960   6.966 -0.0396 -1.0930  1.3269
  212SOL     hw  847   1.431   1.074   7.032  1.9121 -2.2388  1.1275
  212SOL     vw  848   1.411   1.027   6.961 -0.2778 -0.9298  0.7813
  213SOL     ow  849   3.363   5.807   2.013 -0.1358  0.5415  0.2701
  213SOL     hw  850   3.327   5.836   1.929 -1.5798 -0.2285  0.5978
  213SOL     hw  851   3.441   5.756   1.988  0.3046  1.5427 -0.4969
  213SOL     vw  852   3.369   5.804   1.998 -0.2682  0.5720  0.2122
  214SOL     ow  853   1.638   3.077   3.439 -0.6657 -0.1082 -0.2692
  214SOL     hw  854   1.685   3.108   3.362 -0.8345  0.8001 -0.0213
  214SOL     hw  855   1.571   3.018   3.404  0.0362 -0.6640 -0.7001
  214SOL     vw  856   1.635   3.073   3.424 -0.5954 -0.0616 -0.2933
  215SOL     ow  857   0.880   5.520   6.128 -0.3644 -0.1019 -0.1229
  215SOL     hw  858   0.899   5.521   6.034 -1.2950 -0.9128 -0.3337
  215SOL     hw  859   0.810   5.584   6.140  0.6127  0.9250  0.2302
  215SOL     vw  860   0.873   5.528   6.118 -0.3583 -0.0734 -0.1042
  216SOL     ow  861   1.453   2.115   6.001 -0.5985  0.0843  0.2926
  216SOL     hw  862   1.446   2.026   6.037 -0.9281  0.7543  1.9516
  216SOL     hw  863   1.542   2.143   6.023 -1.1456  0.8946  1.6263
  216SOL     vw  864   1.464   2.107   6.009 -0.7141  0.2795  0.6874
  217SOL     ow  865   1.463   5.562   3.527 -0.2894 -0.0929 -0.0789
  217SOL     hw  866   1.487   5.487   3.582  0.7113  0.3451  0.0949
  217SOL     hw  867   1.417   5.621   3.587 -1.9803 -0.9921 -0.4427
  217SOL     vw  868   1.460   5.560   3.542 -0.3805 -0.1538 -0.1040
  218SOL     ow  869   0.010   6.956   3.628  0.0538  0.3438  0.3618
  218SOL     hw  870  -0.062   6.964   3.566 -1.0954 -1.1764  1.4300
  218SOL     hw  871   0.088   6.955   3.574 -0.7136  1.7320 -0.8563
  218SOL     vw  872   0.011   6.957   3.613 -0.1991  0.3264  0.3419
  219SOL     ow  873   3.201   6.973   1.145  0.0695 -0.5295  0.4246
  219SOL     hw  874   3.248   7.055   1.159  0.3284 -0.4413 -0.8328
  219SOL     hw  875   3.109   6.999   1.135 -0.1100 -0.5892  1.7942
  219SOL     vw  876   3.195   6.987   1.146  0.0800 -0.5255  0.4395
  220SOL     ow  877   1.246   5.376   7.183  0.8120 -0.3015  0.0485
  220SOL     hw  878   1.263   5.461   7.224 -0.8639 -0.8630  2.1368
  220SOL     hw  879   1.156   5.383   7.152  1.8252 -0.1493 -3.1290
  220SOL     vw  880   1.236   5.388   7.185  0.7246 -0.3555 -0.0952
  221SOL     ow  881   1.645   3.816   6.657  0.5307 -0.6256 -0.2040
  221SOL     hw  882   1.664   3.727   6.688  0.8244 -0.7010 -0.6019
  221SOL     hw  883   1.730   3.860   6.658  0.8152 -1.0544 -2.2717
  221SOL     vw  884   1.659   3.810   6.661  0.6070 -0.6920 -0.5293
  222SOL     ow  885   1.266   3.451   6.170  0.2892  0.6734  0.3990
  222SOL     hw  886   1.210   3.461   6.092 -1.6600  0.0109  1.6434
  222SOL     hw  887   1.218   3.495   6.240  1.8973  1.0422  1.3174
  222SOL     vw  888   1.252   3.458   6.169  0.2441  0.6346  0.6845
  223SOL     ow  889   1.978   7.043   1.294  0.0493 -0.0353 -0.9136
  223SOL     hw  890   1.935   7.126   1.275 -1.5741 -0.6171  0.0087
  223SOL     hw  891   2.037   7.029   1.220 -0.6443  1.2660 -1.7613
  223SOL     vw  892   1.980   7.052   1.282 -0.2564  0.0598 -0.9037
  224SOL     ow  893   5.225   0.308   1.970 -1.0592 -0.6497  0.0898
  224SOL     hw  894   5.274   0.380   2.009 -0.4023 -0.9348 -0.1988
  224SOL     hw  895   5.272   0.229   1.997 -0.0003 -0.8186 -2.0183
  224SOL     vw  896   5.238   0.307   1.979 -0.8328 -0.7096 -0.2265
  225SOL     ow  897   3.008   1.304   3.048  0.5970  0.1221 -0.5849
  225SOL     hw  898   2.939   1.357   3.088 -0.7387 -2.2675  0.5494
  225SOL     hw  899   3.085   1.319   3.104 -0.0791  0.0296  0.4011
  225SOL     vw  900   3.009   1.313   3.061  0.3316 -0.2053 -0.3051
  226SOL     ow  901   7.199   2.410   4.629 -0.0311  0.6206  0.1951
  226SOL     hw  902   7.168   2.487   4.677  1.6299  1.1457  0.5286
  226SOL     hw  903   7.140   2.339   4.654 -2.5472  2.0494 -1.2631
  226SOL     vw  904   7.187   2.411   4.638 -0.1440  0.8783  0.0465
  227SOL     ow  905   0.012   1.233   1.010  0.4542  0.2046 -0.1199
  227SOL     hw  906  -0.029   1.311   1.048  0.1130 -0.3150  0.5845
  227SOL     hw  907  -0.050   1.205   0.942  0.2917  0.2122  0.0224
  227SOL     vw  908  -0.002   1.240   1.006  0.3877  0.1371 -0.0082
  228SOL     ow  909   5.470   2.442   1.340 -0.0959 -0.2092  0.6125
  228SOL     hw  910   5.391   2.472   1.386 -0.5958 -1.0970  0.3766
  228SOL     hw  911   5.442   2.433   1.249  0.5290  0.2951  0.3649
  228SOL     vw  912   5.456   2.445   1.335 -0.0792 -0.2596  0.5488
  229SOL     ow  913   1.442   6.972   3.027 -0.6006  0.3492 -0.1902
  229SOL     hw  914   1.455   6.990   3.120  0.4416 -1.0316 -0.0396
  229SOL     hw  915   1.466   6.880   3.016  1.5551  1.0423 -2.2187
  229SOL     vw  916   1.446   6.962   3.038 -0.1786  0.2582 -0.4379
  230SOL     ow  917   7.097   4.915   5.314  0.2541 -0.1527 -0.1048
  230SOL     hw  918   7.044   4.975   5.262  1.3285  1.3063  0.3862
  230SOL     hw  919   7.126   4.848   5.253 -0.7262 -0.0001 -0.7493
  230SOL     vw  920   7.094   4.914   5.299  0.2666  0.0598 -0.1254
  231SOL     ow  921   6.222   5.846   2.158  0.0134  0.1221  0.4702
  231SOL     hw  922   6.310   5.882   2.148  0.2414 -0.1457  1.4224
  231SOL     hw  923   6.235   5.760   2.198 -0.6899  0.1664  0.8179
  231SOL     vw  924   6.235   5.839   2.162 -0.0494  0.0925  0.6417
  232SOL     ow  925   2.876   4.228   4.212  0.1058 -0.3689  0.1331
  232SOL     hw  926   2.951   4.183   4.172 -1.5242 -2.2059 -1.0025
  232SOL     hw  927   2.808   4.226   4.144 -1.5277 -0.2861  1.7073
  232SOL     vw  928   2.877   4.222   4.198 -0.3248 -0.6003  0.1912
  233SOL     ow  929   0.943   2.865   1.622 -0.3922 -0.3406  0.1412
  233SOL     hw  930   1.021   2.921   1.625 -0.3236 -0.4294 -0.0200
  233SOL     hw  931   0.959   2.798   1.689  0.4567 -1.4011 -1.0942
  233SOL     vw  932   0.955   2.863   1.631 -0.2712 -0.4922 -0.0430
  234SOL     ow  933   2.304   1.465   1.423  0.0989 -0.3443 -0.4368
  234SOL     hw  934   2.223   1.505   1.391  1.9442  2.9255 -1.4867
  234SOL     hw  935   2.334   1.410   1.351  0.3651  0.9777 -1.3784
  234SOL     vw  936   2.297   1.463   1.409  0.3777  0.2615 -0.6995
  235SOL     ow  937   3.453   3.934   6.750 -0.7093  0.5908 -0.3634
  235SOL     hw  938   3.480   3.870   6.684  0.0886 -0.5670  1.0376
  235SOL     hw  939   3.535   3.970   6.784 -0.8956 -1.1208  2.1578
  235SOL     vw  940   3.467   3.931   6.746 -0.6286  0.2123  0.1543
  236SOL     ow  941   6.779   0.099   5.624 -0.1465  0.4784  0.6917
  236SOL     hw  942   6.687   0.101   5.598  0.5032 -2.2806 -2.5668
  236SOL     hw  943   6.825   0.140   5.552  1.3268  0.0976  1.3831
  236SOL     vw  944   6.773   0.105   5.611  0.1340  0.0642  0.3531
  237SOL     ow  945   5.772   3.745   4.333 -0.7585 -0.0407 -0.1558
  237SOL     hw  946   5.744   3.780   4.249  0.5927 -1.3382 -1.2059
  237SOL     hw  947   5.861   3.778   4.344 -0.8972  0.0549  0.7353
  237SOL     vw  948   5.780   3.754   4.323 -0.5987 -0.1993 -0.1769
  238SOL     ow  949   3.369   1.897   6.456 -0.2270 -0.0340 -0.0085
  238SOL     hw  950   3.293   1.860   6.502 -0.5255  0.8187  0.1997
  238SOL     hw  951   3.360   1.992   6.468 -0.9728  0.3384 -2.7786
  238SOL     vw  952   3.358   1.905   6.463 -0.3648  0.1277 -0.3462
  239SOL     ow  953   5.684   0.777   4.652 -0.4359 -0.4242  0.2575
  239SOL     hw  954   5.625   0.704   4.670 -1.8078  0.0834 -1.8055
  239SOL     hw  955   5.647   0.850   4.701 -0.8235 -0.4024 -0.0626
  239SOL     vw  956   5.671   0.777   4.661 -0.6683 -0.3544 -0.0570
  240SOL     ow  957   2.217   3.224   4.273 -1.2473 -0.2844  0.2056
  240SOL     hw  958   2.306   3.248   4.299 -0.3675 -2.0450 -1.0156
  240SOL     hw  959   2.160   3.279   4.327  0.5372  3.4579 -1.3367
  240SOL     vw  960   2.221   3.235   4.283 -0.8959 -0.0230 -0.1593
  241SOL     ow  961   6.920   3.620   1.561  0.4701 -0.1220 -0.3519
  241SOL     hw  962   7.009   3.593   1.535  0.0987 -0.1549 -1.6766
  241SOL     hw  963   6.921   3.715   1.553 -0.0584 -0.2259 -1.9614
  241SOL     vw  964   6.932   3.629   1.556  0.3514 -0.1400 -0.7390
  242SOL     ow  965   2.377   3.521   4.310  0.7029 -0.3860  0.2678
  242SOL     hw  966   2.291   3.486   4.333  0.7386 -0.6622 -0.0120
  242SOL     hw  967   2.435   3.489   4.380  0.8211 -1.2674 -0.2249
  242SOL     vw  968   2.374   3.512   4.323  0.7231 -0.5388  0.1657
  243SOL     ow  969   0.727   0.462   6.616 -0.0947 -0.4018  0.0625
  243SOL     hw  970   0.708   0.436   6.706 -0.2244 -2.5199 -0.5342
  243SOL     hw  971   0.801   0.407   6.590 -0.4797 -0.3025 -1.3280
  243SOL     vw  972   0.734   0.451   6.625 -0.1626 -0.6682 -0.1998
  244SOL     ow  973   5.467   6.895   4.777 -0.0689  0.6211  0.0413
  244SOL     hw  974   5.409   6.842   4.831  0.6180 -0.8198 -0.5746
  244SOL     hw  975   5.459   6.983   4.812 -0.1593 -0.1391  2.0485
  244SOL     vw  976   5.459   6.900   4.789  0.0098  0.3309  0.2246
  245SOL     ow  977   3.422   6.089   2.091  0.2550  0.3610 -0.4244
  245SOL     hw  978   3.397   6.145   2.018  0.5526  2.2265  0.8417
  245SOL     hw  979   3.375   6.007   2.076 -2.7325  1.9990 -0.7231
  245SOL     vw  980   3.412   6.086   2.079 -0.0999  0.8235 -0.2968
  246SOL     ow  981   3.026   1.132   6.889  0.5515  0.0099 -0.1013
  246SOL     hw  982   3.097   1.113   6.827 -1.4155 -0.2876 -2.3866
  246SOL     hw  983   3.051   1.216   6.928  1.6718  0.4546 -1.6446
  246SOL     vw  984   3.039   1.141   6.886  0.4398  0.0293 -0.6065
  247SOL     ow  985   2.175   6.613   4.250 -0.1202 -0.0284 -0.7066
  247SOL     hw  986   2.236   6.598   4.178  3.2045  1.9817  1.4345
  247SOL     hw  987   2.129   6.693   4.226 -0.6451 -0.5577 -1.5175
  247SOL     vw  988   2.177   6.621   4.238  0.2493  0.1671 -0.5310
  248SOL     ow  989   4.251   1.505   1.965  0.7937 -0.0273  0.1085
  248SOL     hw  990   4.262   1.410   1.966 -0.6920 -0.2527 -0.7273
  248SOL     hw  991   4.191   1.523   2.037  0.4539  0.1733 -0.2210
  248SOL     vw  992   4.244   1.495   1.974  0.5529 -0.0305 -0.0452
  249SOL     ow  993   5.507   2.950   6.688  0.6385  0.3397 -0.1134
  249SOL     hw  994   5.412   2.952   6.686  0.4453 -2.5178  1.5195
  249SOL     hw  995   5.532   3.035   6.723 -1.1800  1.6281 -1.7228
  249SOL     vw  996   5.498   2.962   6.692  0.3731  0.1327 -0.1106
  250SOL     ow  997   1.042   2.472   1.291 -0.4043  0.2954  0.3810
  250SOL     hw  998   1.043   2.497   1.198  0.4865 -0.5290  0.1592
  250SOL     hw  999   1.077   2.383   1.292 -0.5251  0.2533  1.5062
  250SOL     vw 1000   1.047   2.463   1.279 -0.3027  0.1812  0.5001
  251SOL     ow 1001   4.373   4.873   1.210 -0.1699  0.4394  0.3858
  251SOL     hw 1002   4.454   4.920   1.230 -0.6507  1.6473 -0.3715
  251SOL     hw 1003   4.319   4.937   1.163 -1.7574 -0.1942  1.2574
  251SOL     vw 1004   4.377   4.888   1.206 -0.4425  0.5150  0.4008
  252SOL     ow 1005   5.013   2.247   6.389  0.8501 -0.1223 -0.0357
  252SOL     hw 1006   5.017   2.286   6.301  0.2052  0.9018  0.3738
  252SOL     hw 1007   5.057   2.163   6.379  0.3527 -0.2514 -1.4662
  252SOL     vw 1008   5.020   2.241   6.376  0.6990 -0.0043 -0.1705
  253SOL     ow 1009   1.796   5.558   5.445 -0.2028 -0.1331  0.6683
  253SOL     hw 1010   1.711   5.598   5.426  0.4338  1.1904  0.5167
  253SOL     hw 1011   1.857   5.598   5.383  0.9142  0.4819  2.0811
  253SOL     vw 1012   1.793   5.568   5.435  0.0286  0.1225  0.8347
  254SOL     ow 1013   1.496   2.534   5.203  0.2626 -0.3410 -0.1055
  254SOL     hw 1014   1.484   2.622   5.169  0.5349 -0.0276  0.5968
  254SOL     hw 1015   1.572   2.540   5.261 -0.9022 -0.5504  1.5363
  254SOL     vw 1016   1.504   2.546   5.206  0.1448 -0.3272  0.2036
  255SOL     ow 1017   1.226   3.689   0.917  0.0370 -0.5911 -0.0434
  255SOL     hw 1018   1.282   3.733   0.853 -0.6652  0.2633 -0.0976
  255SOL     hw 1019   1.285   3.634   0.968  1.2960  1.9242  1.3484
  255SOL     vw 1020   1.241   3.687   0.915  0.1104 -0.1465  0.1331
  256SOL     ow 1021   2.802   4.919   3.444 -0.2658  0.4031 -0.9414
  256SOL     hw 1022   2.720   4.966   3.454 -0.2170 -0.0496  3.4730
  256SOL     hw 1023   2.868   4.977   3.481  0.6822 -0.9093 -0.4847
  256SOL     vw 1024   2.800   4.933   3.450 -0.1342  0.1700 -0.2986
  257SOL     ow 1025   4.021   1.456   6.229  0.1462 -0.0438  0.3771
  257SOL     hw 1026   4.050   1.542   6.258  1.2478  0.3042 -1.5586
  257SOL     hw 1027   4.081   1.395   6.271  2.6297  0.5374 -2.0503
  257SOL     vw 1028   4.032   1.459   6.238  0.6194  0.0789 -0.1984
  258SOL     ow 1029   0.212   6.879   4.219 -0.2772 -0.0290 -0.6367
  258SOL     hw 1030   0.192   6.909   4.131  1.1110  2.7657 -0.0976
  258SOL     hw 1031   0.305   6.857   4.216 -0.5364 -1.2796 -0.1873
  258SOL     vw 1032   0.222   6.880   4.207 -0.1282  0.1748 -0.5062
  259SOL     ow 1033   7.018   1.688   0.339 -0.3277 -0.7161  0.0058
  259SOL     hw 1034   7.078   1.691   0.264 -0.1441 -3.1297 -0.0306
  259SOL     hw 1035   7.074   1.660   0.412 -0.4713  1.7521  1.1408
  259SOL     vw 1036   7.034   1.685   0.339 -0.3226 -0.7090  0.1507
  260SOL     ow 1037   0.955   3.542   0.056  0.5759 -0.0794 -0.4315
  260SOL     hw 1038   1.000   3.548  -0.028  0.7400  2.0197 -0.2454
  260SOL     hw 1039   0.988   3.616   0.106 -1.3256  0.1375  0.5984
  260SOL     vw 1040   0.965   3.552   0.052  0.3467  0.2261 -0.2711
  261SOL     ow 1041   4.127   4.921   4.099 -0.1504  0.6158 -0.2860
  261SOL     hw 1042   4.102   4.888   4.012  0.8064 -1.0559  0.0269
  261SOL     hw 1043   4.160   5.010   4.082  2.0858 -0.4408 -2.0184
  261SOL     vw 1044   4.128   4.929   4.085  0.2711  0.2556 -0.4735
  262SOL     ow 1045   5.024   6.103   6.622  0.8410  0.5167  0.0479
  262SOL     hw 1046   5.033   6.194   6.591  2.1401 -0.3386 -2.3474
  262SOL     hw 1047   5.107   6.084   6.664  1.2663 -0.0637 -1.0117
  262SOL     vw 1048   5.036   6.113   6.623  1.0684  0.3273 -0.4082
  263SOL     ow 1049   0.011   5.661   2.647 -0.4606  0.2493 -0.4765
  263SOL     hw 1050  -0.082   5.652   2.668 -1.5218 -1.1449 -4.7947
  263SOL     hw 1051   0.046   5.572   2.656  0.0847  0.4724 -0.3722
  263SOL     vw 1052   0.003   5.648   2.651 -0.5287  0.0949 -1.0324
  264SOL     ow 1053   5.141   0.215   4.112 -0.1520 -0.8055 -0.1690
  264SOL     hw 1054   5.234   0.203   4.092  0.3413  0.2738  1.3065
  264SOL     hw 1055   5.118   0.141   4.168  0.9108  0.8482  2.6867
  264SOL     vw 1056   5.150   0.204   4.117  0.0534 -0.4449  0.4022
  265SOL     ow 1057   4.553   3.206   1.312  0.6579 -0.3205  0.1352
  265SOL     hw 1058   4.590   3.134   1.260  0.9486  0.2782 -0.5077
  265SOL     hw 1059   4.629   3.256   1.342  0.4247  0.3342 -0.3340
  265SOL     vw 1060   4.568   3.203   1.309  0.6654 -0.1550 -0.0114
  266SOL     ow 1061   0.197   3.062   2.488 -0.6600  1.0135  0.4767
  266SOL     hw 1062   0.220   2.984   2.439 -0.6366  1.5200 -0.3423
  266SOL     hw 1063   0.177   3.031   2.576  2.2496  0.4184  1.0170
  266SOL     vw 1064   0.197   3.048   2.493 -0.2730  1.0020  0.4399
  267SOL     ow 1065   6.113   5.223   1.931  0.0274 -0.3713 -0.5024
  267SOL     hw 1066   6.027   5.229   1.890 -0.2451  0.7892  0.2111
  267SOL     hw 1067   6.118   5.133   1.964  0.9380 -2.0234 -4.4825
  267SOL     vw 1068   6.103   5.212   1.930  0.1116 -0.4361 -0.9334
  268SOL     ow 1069   0.159   1.943   3.241  0.7996 -0.6212  0.4908
  268SOL     hw 1070   0.175   1.885   3.167 -2.1113 -0.4643 -0.3783
  268SOL     hw 1071   0.137   2.027   3.200 -2.4696 -0.9413  1.3627
  268SOL     vw 1072   0.159   1.947   3.226 -0.0158 -0.6427  0.4913
  269SOL     ow 1073   1.201   1.901   0.468  0.0194  0.4825  0.0686
  269SOL     hw 1074   1.121   1.953   0.473 -0.4312  0.2501 -2.7039
  269SOL     hw 1075   1.173   1.818   0.431  1.2661 -0.3840  1.0059
  269SOL     vw 1076   1.187   1.897   0.463  0.1245  0.3375 -0.1735
  270SOL     ow 1077   4.603   1.162   6.731 -0.2855 -0.0971 -0.3077
  270SOL     hw 1078   4.696   1.170   6.711 -0.0512 -0.6459  0.4812
  270SOL     hw 1079   4.564   1.126   6.652  0.0492  0.7799 -0.8844
  270SOL     vw 1080   4.610   1.158   6.718 -0.2103 -0.0537 -0.2797
  271SOL     ow 1081   5.220   5.906   2.693  0.0319 -0.2142  0.5989
  271SOL     hw 1082   5.135   5.924   2.733 -0.0914  0.3706  0.0852
  271SOL     hw 1083   5.200   5.877   2.604  0.4177  2.1364 -0.3283
  271SOL     vw 1084   5.206   5.904   2.687  0.0665  0.1733  0.4089
  272SOL     ow 1085   5.928   1.427   4.699 -0.3266 -0.0247  0.0873
  272SOL     hw 1086   5.866   1.354   4.709 -1.4551  0.9936  0.7581
  272SOL     hw 1087   5.996   1.392   4.642 -1.8575 -0.9731 -1.2657
  272SOL     vw 1088   5.929   1.412   4.693 -0.6773 -0.0154 -0.0026
  273SOL     ow 1089   0.287   4.125   1.011  0.5369 -0.1367 -0.3793
  273SOL     hw 1090   0.334   4.150   1.091  0.8311  0.4393 -0.7280
  273SOL     hw 1091   0.263   4.033   1.025 -0.0717  0.1660  0.6882
  273SOL     vw 1092   0.290   4.116   1.024  0.4954 -0.0207 -0.2844
  274SOL     ow 1093   3.172   0.814   0.735  0.2833 -0.5433 -0.5705
  274SOL     hw 1094   3.220   0.896   0.728 -1.4442  0.6319  0.7876
  274SOL     hw 1095   3.238   0.751   0.766  1.0361  0.9445  1.0023
  274SOL     vw 1096   3.187   0.816   0.738  0.1546 -0.1919 -0.1839
  275SOL     ow 1097   6.630   6.991   1.364  0.4422  0.7771  0.3220
  275SOL     hw 1098   6.666   6.991   1.275 -0.9661  0.8778 -0.2800
  275SOL     hw 1099   6.661   6.909   1.402  0.1682  0.1948 -0.6653
  275SOL     vw 1100   6.639   6.980   1.357  0.2203  0.7136  0.1124
  276SOL     ow 1101   2.588   4.280   1.697  0.1484 -0.6798 -0.2928
  276SOL     hw 1102   2.561   4.214   1.633  1.3328 -1.3171 -0.1632
  276SOL     hw 1103   2.661   4.326   1.655  0.6802 -0.8407  0.4286
  276SOL     vw 1104   2.594   4.278   1.683  0.3749 -0.7854 -0.1805
  277SOL     ow 1105   2.073   2.369   0.711  0.2005 -0.1879 -0.0869
  277SOL     hw 1106   1.981   2.354   0.691 -0.2395  1.0578  0.9003
  277SOL     hw 1107   2.072   2.422   0.791  1.7908 -1.1306  0.6227
  277SOL     vw 1108   2.061   2.374   0.719  0.3523 -0.1479  0.1370
  278SOL     ow 1109   3.494   1.744   0.020  0.3478 -0.4278  0.2443
  278SOL     hw 1110   3.563   1.811   0.019 -0.3512  0.3004 -0.2062
  278SOL     hw 1111   3.497   1.707  -0.068 -0.9425  0.7892 -0.3519
  278SOL     vw 1112   3.504   1.748   0.008  0.0855 -0.1711  0.1063
  279SOL     ow 1113   1.326   6.703   6.986  0.2545  0.1581 -0.2788
  279SOL     hw 1114   1.261   6.704   7.056 -0.1860 -1.0522 -0.6300
  279SOL     hw 1115   1.369   6.788   6.991  0.1914  0.1152  1.4038
  279SOL     vw 1116   1.323   6.714   6.996  0.1881 -0.0072 -0.1030
  280SOL     ow 1117   3.490   0.917   6.343 -0.4474 -0.8950  0.6397
  280SOL     hw 1118   3.436   0.924   6.422  1.2500 -1.1534  1.8731
  280SOL     hw 1119   3.518   0.826   6.341 -2.4793 -1.5803 -1.7062
  280SOL     vw 1120   3.487   0.906   6.353 -0.4915 -1.0195  0.4930
  281SOL     ow 1121   3.819   1.731   4.616 -0.5374  0.4497 -0.6574
  281SOL     hw 1122   3.742   1.779   4.585 -1.6994 -0.4568  0.6993
  281SOL     hw 1123   3.885   1.746   4.548 -2.0798  0.7784 -2.1685
  281SOL     vw 1124   3.818   1.739   4.603 -0.8942  0.3735 -0.6778
  282SOL     ow 1125   0.123   2.862   2.184  0.2302 -0.3312  0.2723
  282SOL     hw 1126   0.195   2.799   2.184 -1.7516 -2.7336 -1.0021
  282SOL     hw 1127   0.045   2.810   2.202 -1.2762  2.1649  1.5489
  282SOL     vw 1128   0.123   2.847   2.186 -0.2300 -0.3189  0.2725
  283SOL     ow 1129   1.780   2.836   7.066  0.2827  0.6419  0.2106
  283SOL     hw 1130   1.693   2.801   7.045  0.4991  1.5384 -2.4940
  283SOL     hw 1131   1.812   2.778   7.136 -1.1659 -1.7716 -0.9841
  283SOL     vw 1132   1.773   2.823   7.073  0.1202  0.4418 -0.3040
  284SOL     ow 1133   5.008   0.785   1.361 -0.2237  0.2712 -0.3251
  284SOL     hw 1134   5.040   0.739   1.438 -2.1469  0.2015  0.5025
  284SOL     hw 1135   4.940   0.843   1.395  0.7482  2.2482 -1.6334
  284SOL     vw 1136   5.003   0.786   1.376 -0.3493  0.5229 -0.3885
  285SOL     ow 1137   6.183   0.607   5.052  0.2265  0.1827 -0.5878
  285SOL     hw 1138   6.178   0.617   5.147  0.9419 -1.3938 -0.3413
  285SOL     hw 1139   6.269   0.567   5.037 -0.2894 -0.5447 -1.7927
  285SOL     vw 1140   6.194   0.603   5.062  0.2527 -0.1213 -0.7143
  286SOL     ow 1141   4.568   4.029   5.492  0.2940  0.0433 -0.2896
  286SOL     hw 1142   4.530   4.012   5.405  0.3673  1.0934 -0.5315
  286SOL     hw 1143   4.492   4.029   5.551  0.4235 -2.8178  0.0369
  286SOL     vw 1144   4.553   4.027   5.488  0.3207 -0.1957 -0.2785
  287SOL     ow 1145   1.222   2.441   6.364 -0.4041 -0.7398  0.2033
  287SOL     hw 1146   1.303   2.390   6.355 -0.2824 -0.3882 -0.7816
  287SOL     hw 1147   1.236   2.518   6.309 -1.4653 -0.7416 -0.0863
  287SOL     vw 1148   1.235   2.444   6.356 -0.5281 -0.6936  0.0350
  288SOL     ow 1149   4.552   0.479   2.910  0.2114 -0.9228 -0.5805
  288SOL     hw 1150   4.646   0.482   2.925  0.4812 -0.3253 -2.1854
  288SOL     hw 1151   4.543   0.453   2.818 -0.9715  3.3754 -1.9641
  288SOL     vw 1152   4.563   0.476   2.900  0.0908 -0.2768 -0.9749
  289SOL     ow 1153   5.792   3.288   6.488  0.0714  0.0455  0.5174
  289SOL     hw 1154   5.859   3.356   6.491  0.3958 -0.1658 -1.0370
  289SOL     hw 1155   5.722   3.321   6.545  0.4226  1.4754  0.1704
  289SOL     vw 1156   5.791   3.301   6.496  0.1605  0.2065  0.2666
  290SOL     ow 1157   5.029   4.825   1.969 -0.2771  0.2053 -0.1181
  290SOL     hw 1158   5.084   4.751   1.944 -0.9833 -1.1032  1.9208
  290SOL     hw 1159   4.967   4.834   1.897  0.8794 -0.0640 -1.1714
  290SOL     vw 1160   5.028   4.816   1.956 -0.2177 -0.0029  0.0119
  291SOL     ow 1161   1.346   3.918   2.400  0.3946  0.2184  0.4433
  291SOL     hw 1162   1.388   4.004   2.393  0.3832  0.1754 -0.2997
  291SOL     hw 1163   1.295   3.910   2.319  2.0784 -1.3637 -0.5399
  291SOL     vw 1164   1.345   3.928   2.388  0.6153  0.0041  0.2155
  292SOL     ow 1165   1.597   5.535   2.958 -0.1762  0.2044 -0.4290
  292SOL     hw 1166   1.690   5.534   2.934 -0.0396  0.4831  0.0763
  292SOL     hw 1167   1.551   5.552   2.876  0.2759  0.9919 -0.5226
  292SOL     vw 1168   1.603   5.537   2.944 -0.0985  0.3452 -0.3747
  293SOL     ow 1169   2.077   6.010   1.949  0.9933  0.1866  0.3033
  293SOL     hw 1170   2.101   5.917   1.945  0.1893 -0.0556  0.9891
  293SOL     hw 1171   2.154   6.052   1.986  1.9419  0.0295 -1.3643
  293SOL     vw 1172   2.091   6.003   1.953  1.0123  0.1340  0.1737
  294SOL     ow 1173   2.949   0.010   2.848 -0.2702 -0.7076  0.0341
  294SOL     hw 1174   2.966  -0.057   2.915 -1.1504 -1.5781 -0.5820
  294SOL     hw 1175   2.860  -0.009   2.818 -0.3989  0.5401 -0.4038
  294SOL     vw 1176   2.939  -0.001   2.853 -0.4033 -0.6579 -0.1051
  295SOL     ow 1177   6.070   4.997   2.095  0.3091  0.5879  0.5500
  295SOL     hw 1178   6.151   4.947   2.101 -0.0840  0.0409  1.4635
  295SOL     hw 1179   6.005   4.945   2.142 -1.0931  0.0178 -1.8549
  295SOL     vw 1180   6.072   4.984   2.102  0.0725  0.4406  0.3531
  296SOL     ow 1181   2.433   7.065   0.135  0.0662 -0.5674  0.2481
  296SOL     hw 1182   2.385   7.132   0.086  0.5702 -0.9441 -0.8019
  296SOL     hw 1183   2.399   7.070   0.224  0.4667  1.4399  0.3178
  296SOL     vw 1184   2.422   7.074   0.140  0.1854 -0.3521  0.1188
  297SOL     ow 1185   4.234   1.959   0.830  0.0909 -0.1519  0.1012
  297SOL     hw 1186   4.217   2.048   0.798 -0.9000  0.6125  2.5701
  297SOL     hw 1187   4.307   1.969   0.891  0.8827 -1.3177 -0.5890
  297SOL     vw 1188   4.242   1.972   0.834  0.0646 -0.2049  0.3358
  298SOL     ow 1189   5.721   3.683   2.492 -0.1407  0.0827 -0.1491
  298SOL     hw 1190   5.774   3.651   2.566 -1.5474 -0.3775  0.6967
  298SOL     hw 1191   5.647   3.622   2.488 -1.2074  1.3717 -0.5666
  298SOL     vw 1192   5.719   3.671   2.501 -0.4668  0.1920 -0.0925
  299SOL     ow 1193   4.241   1.544   3.052  0.7841  0.3270 -0.7595
  299SOL     hw 1194   4.291   1.510   2.977 -0.8125 -1.0189 -1.2798
  299SOL     hw 1195   4.160   1.576   3.014  1.1727  2.4336  0.0770
  299SOL     vw 1196   4.237   1.544   3.037  0.6247  0.4273 -0.7179
  300SOL     ow 1197   3.896   1.414   5.997 -0.0850  0.0447 -0.4686
  300SOL     hw 1198   3.948   1.418   6.077  0.4887  0.6853 -0.8507
  300SOL     hw 1199   3.811   1.450   6.021 -0.2860 -0.7871  0.1079
  300SOL     vw 1200   3.892   1.419   6.011 -0.0359  0.0194 -0.4430
  301SOL     ow 1201   2.120   3.941   3.364 -0.6809 -0.4734 -0.0302
  301SOL     hw 1202   2.151   4.028   3.339 -0.9049 -0.6566 -0.9768
  301SOL     hw 1203   2.166   3.922   3.446  0.4700 -0.0641 -0.5622
  301SOL     vw 1204   2.130   3.950   3.372 -0.5586 -0.4435 -0.2253
  302SOL     ow 1205   5.703   3.370   2.280 -0.0880 -0.3163 -0.4350
  302SOL     hw 1206   5.663   3.355   2.194 -1.4488 -0.2829  0.1628
  302SOL     hw 1207   5.745   3.286   2.301  0.5815 -0.2081 -1.2769
  302SOL     vw 1208   5.703   3.357   2.272 -0.1791 -0.2975 -0.4671
  303SOL     ow 1209   4.774   2.276   5.200 -0.2852 -0.0808  0.2833
  303SOL     hw 1210   4.787   2.185   5.225 -0.5759 -0.1025  0.3602
  303SOL     hw 1211   4.697   2.304   5.250 -1.0056 -0.1906 -0.7239
  303SOL     vw 1212   4.766   2.268   5.210 -0.4184 -0.0981  0.1607
  304SOL     ow 1213   5.132   5.805   0.637  0.8586 -0.1029 -0.1457
  304SOL     hw 1214   5.221   5.812   0.604  1.1529  0.2379  0.6975
  304SOL     hw 1215   5.120   5.712   0.656  1.1787 -0.0844  0.1397
  304SOL     vw 1216   5.142   5.794   0.635  0.9396 -0.0556  0.0032
  305SOL     ow 1217   4.865   2.455   6.481 -0.2672  0.4097 -0.2674
  305SOL     hw 1218   4.924   2.518   6.522 -0.5926  0.2896  0.3966
  305SOL     hw 1219   4.917   2.375   6.471 -0.0770  0.5533 -0.4292
  305SOL     vw 1220   4.879   2.453   6.485 -0.2849  0.4129 -0.2015
  306SOL     ow 1221   0.648   5.441   2.004  0.8003  0.3094 -0.1770
  306SOL     hw 1222   0.593   5.492   1.945  0.4163 -0.3005 -0.3560
  306SOL     hw 1223   0.736   5.476   1.990  0.5856  0.7361 -0.4911
  306SOL     vw 1224   0.653   5.453   1.994  0.7214  0.2854 -0.2422
  307SOL     ow 1225   1.794   3.982   6.364 -0.2810 -0.1301  0.3298
  307SOL     hw 1226   1.872   4.012   6.318  0.1913  1.7330  2.2057
  307SOL     hw 1227   1.827   3.926   6.434 -0.9567 -2.4975 -1.1435
  307SOL     vw 1228   1.808   3.978   6.367 -0.3079 -0.1966  0.3829
  308SOL     ow 1229   4.173   1.513   1.699 -0.0812 -0.2951  0.5823
  308SOL     hw 1230   4.243   1.470   1.650  0.5093  0.2539  0.9368
  308SOL     hw 1231   4.205   1.519   1.789 -0.4414  0.2416  0.6866
  308SOL     vw 1232   4.186   1.508   1.704 -0.0505 -0.1518  0.6430
  309SOL     ow 1233   2.297   4.733   4.955  0.1885 -0.3965  0.2147
  309SOL     hw 1234   2.274   4.677   4.881 -1.2693 -1.7499  1.5863
  309SOL     hw 1235   2.386   4.706   4.979  0.3108 -0.6029 -0.4606
  309SOL     vw 1236   2.306   4.722   4.949  0.0124 -0.6025  0.3064
  310SOL     ow 1237   5.932   4.417   3.871 -0.1470 -0.1250 -0.0813
  310SOL     hw 1238   6.016   4.461   3.862  0.0131 -0.0001  1.6448
  310SOL     hw 1239   5.903   4.439   3.960 -1.2714 -1.4190 -0.0957
  310SOL     vw 1240   5.939   4.426   3.882 -0.2742 -0.2794  0.1446
  311SOL     ow 1241   1.116   1.081   3.573 -0.0084 -0.5535 -0.2511
  311SOL     hw 1242   1.185   1.146   3.559 -0.5309 -0.4501 -2.7866
  311SOL     hw 1243   1.103   1.040   3.487 -1.4433 -2.2699  0.7030
  311SOL     vw 1244   1.124   1.084   3.560 -0.2667 -0.7662 -0.4597
  312SOL     ow 1245   3.169   3.924   0.811 -0.6425 -0.1245  0.4415
  312SOL     hw 1246   3.196   3.937   0.720  0.2875 -0.0456  0.7144
  312SOL     hw 1247   3.086   3.877   0.806 -0.1217 -0.9655 -0.4315
  312SOL     vw 1248   3.161   3.920   0.798 -0.4512 -0.2249  0.3623
  313SOL     ow 1249   3.409   4.240   6.765  0.5125 -0.8708  0.9778
  313SOL     hw 1250   3.459   4.283   6.835  1.3435 -0.0706 -0.0551
  313SOL     hw 1251   3.407   4.306   6.695  0.7775 -2.0960 -0.2092
  313SOL     vw 1252   3.416   4.255   6.765  0.6571 -0.9270  0.6850
  314SOL     ow 1253   4.838   3.222   2.162  0.3229  0.2726  0.5881
  314SOL     hw 1254   4.771   3.208   2.229  0.9755 -0.6070  1.0904
  314SOL     hw 1255   4.910   3.264   2.209  0.2435  0.9576  0.1135
  314SOL     vw 1256   4.839   3.225   2.177  0.3986  0.2469  0.5919
  315SOL     ow 1257   1.116   3.466   6.555  0.2441  0.5012 -0.0473
  315SOL     hw 1258   1.158   3.534   6.502  0.7571 -0.0074 -0.2957
  315SOL     hw 1259   1.024   3.493   6.559  0.3500  0.9561 -0.5409
  315SOL     vw 1260   1.110   3.479   6.549  0.3257  0.4942 -0.1452
  316SOL     ow 1261   4.697   2.680   5.960  0.8556 -0.2029  0.4058
  316SOL     hw 1262   4.677   2.707   6.050  0.4501  0.1135  0.2211
  316SOL     hw 1263   4.613   2.661   5.921  1.0883 -1.0577  0.3097
  316SOL     vw 1264   4.683   2.681   5.967  0.8330 -0.2739  0.3691
  317SOL     ow 1265   2.360   4.006   1.128 -0.6641  0.5931  0.4178
  317SOL     hw 1266   2.281   3.972   1.086  1.0656 -2.4663 -0.7118
  317SOL     hw 1267   2.347   4.101   1.131 -4.3565  0.2276  0.3869
  317SOL     vw 1268   2.347   4.014   1.123 -0.9229  0.1411  0.2646
  318SOL     ow 1269   4.201   6.488   4.558  0.0162  0.0433 -0.0759
  318SOL     hw 1270   4.287   6.467   4.595 -0.1646  0.6326  0.6873
  318SOL     hw 1271   4.152   6.526   4.630 -1.0677 -0.7267 -0.3707
  318SOL     vw 1272   4.206   6.490   4.572 -0.1507  0.0193 -0.0141
  319SOL     ow 1273   3.597   0.680   1.827 -0.7627  0.5048 -0.3019
  319SOL     hw 1274   3.621   0.717   1.742  0.6312 -0.6858 -0.4582
  319SOL     hw 1275   3.680   0.652   1.866 -1.5743 -0.6948  0.6329
  319SOL     vw 1276   3.611   0.681   1.821 -0.6857  0.1894 -0.1991
  320SOL     ow 1277   5.652   3.850   4.098  0.8695  0.1448  0.7498
  320SOL     hw 1278   5.685   3.918   4.157  0.0847  0.0196  1.3464
  320SOL     hw 1279   5.570   3.885   4.065  2.0302  0.9042 -1.5449
  320SOL     vw 1280   5.646   3.863   4.101  0.9189  0.2284  0.5255
  321SOL     ow 1281   0.496   1.728   7.139  0.0719 -0.4228  0.3729
  321SOL     hw 1282   0.488   1.821   7.122 -3.6369 -0.4480  1.0979
  321SOL     hw 1283   0.565   1.721   7.206 -0.5703  1.9786  1.3731
  321SOL     vw 1284   0.504   1.739   7.146 -0.5022 -0.1093  0.6003
  322SOL     ow 1285   7.184   0.204   3.432 -0.1977  0.2529 -0.4129
  322SOL     hw 1286   7.210   0.282   3.479 -0.8973  1.5297 -2.0468
  322SOL     hw 1287   7.262   0.177   3.384  1.3179 -2.5352  3.1834
  322SOL     vw 1288   7.198   0.210   3.432 -0.0899  0.0535 -0.1539
  323SOL     ow 1289   4.264   3.381   4.035 -0.6436  0.1975 -0.4668
  323SOL     hw 1290   4.179   3.411   4.069  0.0695 -0.1627  1.8437
  323SOL     hw 1291   4.288   3.308   4.092  0.7705 -0.3517 -1.7096
  323SOL     vw 1292   4.256   3.375   4.047 -0.3629  0.0775 -0.3259
  324SOL     ow 1293   1.632   3.882   2.511  0.3812  0.0880 -0.5039
  324SOL     hw 1294   1.590   3.960   2.546 -3.7639 -0.5192 -3.4733
  324SOL     hw 1295   1.686   3.914   2.438  1.1440  0.3872  0.1734
  324SOL     vw 1296   1.634   3.896   2.506 -0.0651  0.0473 -0.8062
  325SOL     ow 1297   2.430   4.000   0.807 -0.3936  0.1891  0.4307
  325SOL     hw 1298   2.467   4.080   0.770  0.7935  0.0663  1.2923
  325SOL     hw 1299   2.375   3.965   0.737  1.3734  0.2218 -1.0787
  325SOL     vw 1300   2.428   4.006   0.793 -0.0038  0.1771  0.3452
  326SOL     ow 1301   2.771   5.470   6.535  0.3099  0.5356  0.3135
  326SOL     hw 1302   2.687   5.474   6.582  0.7534  0.3318  1.1509
  326SOL     hw 1303   2.824   5.538   6.576  0.9457 -0.1190  0.5945
  326SOL     vw 1304   2.767   5.479   6.547  0.4522  0.4225  0.4613
  327SOL     ow 1305   5.000   1.245   6.378  0.3658 -0.0968 -0.5209
  327SOL     hw 1306   4.949   1.298   6.317 -1.4020  0.6995  1.5229
  327SOL     hw 1307   5.051   1.308   6.429  0.9756 -0.6467 -0.4284
  327SOL     vw 1308   5.000   1.260   6.377  0.2131 -0.0643 -0.2394
  328SOL     ow 1309   4.839   5.876   0.575  0.0070  0.3617  0.0772
  328SOL     hw 1310   4.745   5.863   0.577 -0.2013  0.9758 -2.2155
  328SOL     hw 1311   4.869   5.827   0.498  1.7544 -0.7703  1.4072
  328SOL     vw 1312   4.831   5.868   0.565  0.2100  0.2933 -0.0498
  329SOL     ow 1313   4.067   2.583   6.159 -0.9249 -0.0976  0.0744
  329SOL     hw 1314   4.035   2.656   6.106 -3.9612 -0.7565  0.7696
  329SOL     hw 1315   4.038   2.603   6.248  0.7807 -0.7852  0.8364
  329SOL     vw 1316   4.059   2.595   6.164 -1.1005 -0.2753  0.2666
  330SOL     ow 1317   2.521   0.634   4.479 -0.3875 -0.0888 -0.0114
  330SOL     hw 1318   2.462   0.689   4.426 -1.4733 -1.3596 -0.1820
  330SOL     hw 1319   2.603   0.683   4.482 -1.0445  1.1277 -0.8784
  330SOL     vw 1320   2.524   0.648   4.472 -0.6174 -0.0959 -0.1483
  331SOL     ow 1321   5.780   2.853   6.597 -0.0513 -0.0137 -0.6013
  331SOL     hw 1322   5.779   2.816   6.685 -0.6541 -1.7490 -1.2866
  331SOL     hw 1323   5.832   2.933   6.605 -1.3113  0.6630  1.5951
  331SOL     vw 1324   5.787   2.858   6.610 -0.2973 -0.1534 -0.4015
  332SOL     ow 1325   2.659   6.011   7.069 -0.0772  0.1590 -0.7619
  332SOL     hw 1326   2.712   6.086   7.042 -0.5665  0.5835 -0.5617
  332SOL     hw 1327   2.593   6.003   7.001 -0.4670  0.3629 -0.4120
  332SOL     vw 1328   2.657   6.020   7.056 -0.1930  0.2420 -0.6895
  333SOL     ow 1329   6.592   7.181   3.225  0.0928 -0.0716  0.3402
  333SOL     hw 1330   6.592   7.146   3.315  1.0512  0.5432  0.5962
  333SOL     hw 1331   6.631   7.268   3.234 -3.8508  1.9335  0.0142
  333SOL     vw 1332   6.597   7.188   3.238 -0.3009  0.2741  0.3309
  334SOL     ow 1333   4.351   7.086   6.748 -0.5502  0.0128 -0.1166
  334SOL     hw 1334   4.345   7.165   6.695 -0.4979  0.0157 -0.1182
  334SOL     hw 1335   4.266   7.079   6.791 -0.0061  0.9785  1.1746
  334SOL     vw 1336   4.339   7.095   6.746 -0.4714  0.1407  0.0536
  335SOL     ow 1337   2.251   1.244   6.261 -0.0049 -0.0644 -0.1437
  335SOL     hw 1338   2.183   1.180   6.286  1.5493 -1.5580  0.5008
  335SOL     hw 1339   2.226   1.273   6.174 -1.0387 -1.2009 -0.2544
  335SOL     vw 1340   2.238   1.239   6.253  0.0638 -0.4114 -0.0730
  336SOL     ow 1341   3.582   2.873   2.168 -0.4597 -0.4931  0.3680
  336SOL     hw 1342   3.623   2.944   2.218 -1.0431 -2.0508  3.2404
  336SOL     hw 1343   3.490   2.899   2.162  0.0003  0.9165 -2.3252
  336SOL     vw 1344   3.575   2.886   2.174 -0.4760 -0.5126  0.3915
  337SOL     ow 1345   4.047   2.649   3.891 -0.1943  0.0877 -0.0524
  337SOL     hw 1346   4.015   2.730   3.930  1.9602  0.7757  0.4144
  337SOL     hw 1347   4.054   2.668   3.798  2.4812  1.2979  0.3191
  337SOL     vw 1348   4.043   2.662   3.884  0.4427  0.3382  0.0581
  338SOL     ow 1349   3.950   3.343   3.715  0.0483  0.1845  0.9313
  338SOL     hw 1350   3.943   3.437   3.699 -1.9364  0.3782  2.4788
  338SOL     hw 1351   3.904   3.329   3.798  1.7964 -1.9292  1.6632
  338SOL     vw 1352   3.943   3.353   3.724  0.0172 -0.0689  1.2321
  339SOL     ow 1353   4.348   0.981   5.397  0.5941  0.8140  0.3693
  339SOL     hw 1354   4.292   1.040   5.346  0.6356 -0.4482 -1.2223
  339SOL     hw 1355   4.436   1.017   5.387  0.7057  0.2312 -1.0839
  339SOL     vw 1356   4.352   0.993   5.389  0.6144  0.5706 -0.0322
  340SOL     ow 1357   7.119   1.317   2.924  0.2455 -0.4504 -0.0107
  340SOL     hw 1358   7.193   1.379   2.925 -0.7399  0.7536  0.2896
  340SOL     hw 1359   7.054   1.357   2.981 -0.7996 -1.3100 -0.5753
  340SOL     vw 1360   7.120   1.331   2.932 -0.0224 -0.4050 -0.0457
  341SOL     ow 1361   5.834   3.901   3.864 -0.0493 -0.8924  0.6968
  341SOL     hw 1362   5.785   3.983   3.868  1.5241  0.0571  2.6344
  341SOL     hw 1363   5.888   3.909   3.786 -0.4762 -0.4371  0.4412
  341SOL     vw 1364   5.835   3.913   3.854  0.1018 -0.7070  0.9185
  342SOL     ow 1365   1.077   5.695   0.955  0.6920 -0.1920 -0.0343
  342SOL     hw 1366   0.993   5.740   0.957 -1.2691 -3.2783 -2.8669
  342SOL     hw 1367   1.140   5.764   0.933 -1.5473  1.7769 -0.6814
  342SOL     vw 1368   1.075   5.710   0.952  0.1378 -0.3393 -0.4934
  343SOL     ow 1369   6.258   5.287   4.521  0.2604  0.0474  0.6246
  343SOL     hw 1370   6.326   5.241   4.570  1.3644  0.3507 -0.5598
  343SOL     hw 1371   6.247   5.370   4.569 -0.7849 -0.8508  1.9971
  343SOL     vw 1372   6.266   5.292   4.534  0.2682 -0.0310  0.6495
  344SOL     ow 1373   7.078   0.422   3.270  0.0751  0.1137  0.0373
  344SOL     hw 1374   7.039   0.455   3.188 -0.9456 -0.1221  0.4072
  344SOL     hw 1375   7.168   0.453   3.268 -0.0199  0.3698 -1.0392
  344SOL     vw 1376   7.084   0.431   3.259 -0.0720  0.1164 -0.0559
  345SOL     ow 1377   2.234   6.394   7.010 -0.5525 -0.3685 -0.1796
  345SOL     hw 1378   2.261   6.327   6.947  0.3703 -1.8082  1.6260
  345SOL     hw 1379   2.316   6.430   7.044 -1.0276  0.5982 -0.0304
  345SOL     vw 1380   2.249   6.390   7.007 -0.4933 -0.4308  0.0782
  346SOL     ow 1381   4.299   3.299   1.205 -0.1512 -0.3487  0.0433
  346SOL     hw 1382   4.235   3.277   1.138 -0.6697  0.8329  0.1264
  346SOL     hw 1383   4.347   3.374   1.169 -0.6645  0.5212  1.1075
  346SOL     vw 1384   4.297   3.306   1.192 -0.2873 -0.0780  0.1947
  347SOL     ow 1385   0.531   5.618   4.060 -0.6774  0.2253 -0.9593
  347SOL     hw 1386   0.469   5.546   4.069 -1.6149  0.8795 -1.9622
  347SOL     hw 1387   0.480   5.696   4.082  0.5531  0.5442  1.0063
  347SOL     vw 1388   0.516   5.619   4.064 -0.6387  0.3541 -0.8326
  348SOL     ow 1389   7.186   2.999   7.012  0.5737 -0.6353  0.1306
  348SOL     hw 1390   7.142   3.060   6.952 -0.0601  0.5406  1.6922
  348SOL     hw 1391   7.159   2.912   6.982  0.2878 -0.0975 -1.2626
  348SOL     vw 1392   7.176   2.996   7.000  0.4523 -0.4091  0.1528
  349SOL     ow 1393   0.615   1.912   4.517  0.5127 -0.3411 -0.2907
  349SOL     hw 1394   0.597   1.950   4.603 -0.3864  0.7485 -0.9311
  349SOL     hw 1395   0.595   1.819   4.528 -1.0683  0.0216  0.3118
  349SOL     vw 1396   0.610   1.905   4.530  0.1855 -0.1495 -0.2956
  350SOL     ow 1397   5.686   3.678   7.073  0.2572 -0.5166  0.6869
  350SOL     hw 1398   5.708   3.770   7.061 -3.3543  0.3668 -0.4858
  350SOL     hw 1399   5.628   3.677   7.149  1.4855 -2.1182  1.6540
  350SOL     vw 1400   5.681   3.690   7.081 -0.0572 -0.6114  0.6599
  351SOL     ow 1401   4.751   0.164   1.735 -0.6808 -0.0500  0.3830
  351SOL     hw 1402   4.721   0.212   1.658 -1.0279  1.0500  1.1917
  351SOL     hw 1403   4.684   0.097   1.749 -0.8188 -0.0012 -0.0390
  351SOL     vw 1404   4.739   0.161   1.727 -0.7448  0.1016  0.4340
  352SOL     ow 1405   1.187   5.938   0.865  0.1406  0.3076  0.0371
  352SOL     hw 1406   1.240   6.015   0.888 -1.5353  1.4195  0.3503
  352SOL     hw 1407   1.097   5.969   0.870 -0.5224 -1.0854 -2.0766
  352SOL     vw 1408   1.182   5.952   0.869 -0.1680  0.2704 -0.2005
  353SOL     ow 1409   1.496   4.463   4.536 -0.4488 -0.2447  0.3559
  353SOL     hw 1410   1.490   4.485   4.443  0.0009 -0.2478  0.3231
  353SOL     hw 1411   1.468   4.543   4.581 -2.3685 -0.8014  0.2171
  353SOL     vw 1412   1.491   4.476   4.530 -0.6428 -0.3185  0.3335
  354SOL     ow 1413   6.503   3.484   3.003 -0.0635 -0.3669 -0.1335
  354SOL     hw 1414   6.532   3.559   2.951  1.7116 -0.8190  0.1383
  354SOL     hw 1415   6.496   3.518   3.092  2.8892 -0.9381  0.4117
  354SOL     vw 1416   6.506   3.498   3.008  0.5603 -0.5020 -0.0257
  355SOL     ow 1417   7.170   7.133   5.836 -0.1249  0.3375  0.3227
  355SOL     hw 1418   7.245   7.133   5.896 -0.6339 -2.4200  1.1083
  355SOL     hw 1419   7.200   7.082   5.760 -0.2723  1.7864 -0.7548
  355SOL     vw 1420   7.184   7.126   5.834 -0.2112  0.1647  0.2842
  356SOL     ow 1421   2.813   6.876   5.976 -0.1287 -0.5237 -0.3203
  356SOL     hw 1422   2.814   6.786   6.010  2.5259 -0.1114  0.9904
  356SOL     hw 1423   2.808   6.931   6.054 -0.8095  0.4985 -1.0623
  356SOL     vw 1424   2.813   6.871   5.990  0.1317 -0.3343 -0.2451
  357SOL     ow 1425   6.151   2.101   2.926  0.7376  0.1063 -0.2327
  357SOL     hw 1426   6.177   2.060   2.843  0.9559  0.9141 -0.5770
  357SOL     hw 1427   6.209   2.062   2.991  1.6239  0.5697 -0.7147
  357SOL     vw 1428   6.162   2.091   2.924  0.8833  0.2741 -0.3417
  358SOL     ow 1429   4.846   2.067   6.107  0.5527 -0.8243  0.2279
  358SOL     hw 1430   4.807   2.013   6.175 -0.1905  0.2678  0.6951
  358SOL     hw 1431   4.835   2.016   6.027  0.9116 -1.8582  0.8226
  358SOL     vw 1432   4.839   2.053   6.105  0.5019 -0.8165  0.3679
  359SOL     ow 1433   3.194   5.717   2.180 -0.0626  0.2549 -0.4038
  359SOL     hw 1434   3.152   5.800   2.202  0.3467  0.1208  0.9697
  359SOL     hw 1435   3.271   5.742   2.128 -0.4301  0.6618 -0.7583
  359SOL     vw 1436   3.199   5.731   2.176 -0.0571  0.2906 -0.2693
  360SOL     ow 1437   6.588   0.696   5.070  0.1666  0.3475  0.1890
  360SOL     hw 1438   6.567   0.685   5.163  0.1169 -1.6112 -0.0040
  360SOL     hw 1439   6.531   0.633   5.025  0.7842  0.6684 -1.0790
  360SOL     vw 1440   6.578   0.686   5.076  0.2415  0.1314 -0.0036
  361SOL     ow 1441   1.880   7.182   5.017 -0.4883 -0.4985  0.7282
  361SOL     hw 1442   1.865   7.087   5.016  0.1235 -0.6045  1.5084
  361SOL     hw 1443   1.804   7.217   5.064  0.9407 -0.9271  3.5329
  361SOL     vw 1444   1.868   7.174   5.023 -0.2190 -0.5691  1.2012
  362SOL     ow 1445   6.025   6.474   4.257 -0.5185 -0.2509  0.1944
  362SOL     hw 1446   6.074   6.431   4.187  1.0501  0.2300  0.9503
  362SOL     hw 1447   6.088   6.482   4.329 -1.1598  1.9386  0.6053
  362SOL     vw 1448   6.040   6.470   4.257 -0.3965  0.1016  0.3483
  363SOL     ow 1449   5.007   5.430   1.579  0.1129  0.4066 -0.1927
  363SOL     hw 1450   4.940   5.487   1.618  0.6850 -0.2417  1.8329
  363SOL     hw 1451   4.959   5.351   1.553 -0.2157  0.7017 -0.4937
  363SOL     vw 1452   4.992   5.427   1.581  0.1450  0.3598  0.0348
  364SOL     ow 1453   5.745   3.603   3.973 -0.5819  0.2376  0.0549
  364SOL     hw 1454   5.820   3.569   4.024  0.7596  1.0708 -1.2786
  364SOL     hw 1455   5.680   3.534   3.977  1.3954 -1.8325 -1.1584
  364SOL     vw 1456   5.747   3.590   3.981 -0.1442  0.0744 -0.2811
  365SOL     ow 1457   1.034   7.164   2.009 -0.3333 -0.0349  0.1382
  365SOL     hw 1458   0.959   7.223   2.000 -0.1263  0.4050  1.1605
  365SOL     hw 1459   1.093   7.209   2.070  0.3573 -0.7783  0.0379
  365SOL     vw 1460   1.032   7.178   2.016 -0.2148 -0.0751  0.2600
  366SOL     ow 1461   1.616   4.148   1.379  0.5601  0.3986 -0.0277
  366SOL     hw 1462   1.658   4.065   1.355 -0.3821 -0.4984  1.2567
  366SOL     hw 1463   1.601   4.193   1.296 -0.4649 -1.4923 -0.9334
  366SOL     vw 1464   1.620   4.143   1.365  0.3006  0.0308  0.0222
  367SOL     ow 1465   2.001   3.629   3.267 -0.2219  0.1953 -0.3756
  367SOL     hw 1466   2.007   3.556   3.206 -0.6520  0.5870 -0.8861
  367SOL     hw 1467   1.927   3.608   3.323  0.1338 -0.1329 -0.0222
  367SOL     vw 1468   1.992   3.617   3.267 -0.2317  0.2037 -0.3963
  368SOL     ow 1469   6.986   7.141   1.806  0.1438 -0.1688 -0.3768
  368SOL     hw 1470   7.067   7.179   1.838  1.2267 -2.1009 -0.6555
  368SOL     hw 1471   6.964   7.191   1.728  0.5282  0.9654  0.2183
  368SOL     vw 1472   6.994   7.153   1.800  0.3371 -0.2744 -0.3350
  369SOL     ow 1473   6.165   1.924   5.824  0.1807  0.4094  0.9136
  369SOL     hw 1474   6.076   1.955   5.838  0.4340  0.6488  2.0550
  369SOL     hw 1475   6.220   2.001   5.836  0.6844 -0.1205  2.2029
  369SOL     vw 1476   6.161   1.938   5.827  0.2806  0.3711  1.2343
  370SOL     ow 1477   5.605   2.757   5.213  0.4083  0.3038 -0.5356
  370SOL     hw 1478   5.590   2.665   5.195  0.4201  0.1885  0.0032
  370SOL     hw 1479   5.536   2.803   5.165 -0.2732 -0.0643  0.0644
  370SOL     vw 1480   5.594   2.751   5.205  0.3200  0.2401 -0.3855
  371SOL     ow 1481   0.206   0.661   2.601  0.0557 -0.4131  0.0522
  371SOL     hw 1482   0.139   0.593   2.605 -2.2019  1.6279 -0.8565
  371SOL     hw 1483   0.196   0.701   2.515  2.7810 -0.2522 -0.3057
  371SOL     vw 1484   0.196   0.657   2.590  0.1174 -0.1226 -0.1149
  372SOL     ow 1485   6.795   2.270   4.582 -0.1676 -0.4803 -0.3508
  372SOL     hw 1486   6.801   2.208   4.654 -2.6689  0.8891  1.1832
  372SOL     hw 1487   6.862   2.336   4.602  1.1678 -1.6108 -0.9464
  372SOL     vw 1488   6.804   2.271   4.594 -0.3216 -0.4488 -0.2270
  373SOL     ow 1489   1.539   6.264   6.518 -0.0151  0.5524 -0.5071
  373SOL     hw 1490   1.545   6.274   6.423  0.2022 -1.1326 -0.7037
  373SOL     hw 1491   1.624   6.294   6.551  1.8871 -3.2442 -1.3446
  373SOL     vw 1492   1.551   6.269   6.510  0.2646 -0.1707 -0.6435
  374SOL     ow 1493   3.644   4.972   0.750  0.6516 -0.2139  0.3065
  374SOL     hw 1494   3.584   4.917   0.801 -3.2111  0.2590 -3.1368
  374SOL     hw 1495   3.696   4.910   0.699  0.2702 -0.6719  0.4688
  374SOL     vw 1496   3.643   4.957   0.750  0.0917 -0.2122 -0.1264
  375SOL     ow 1497   6.050   0.923   2.903 -0.8068 -0.0611 -0.1761
  375SOL     hw 1498   6.104   0.969   2.838 -1.2167  0.5421 -0.1071
  375SOL     hw 1499   6.096   0.934   2.985 -0.4068 -0.6214 -0.3184
  375SOL     vw 1500   6.063   0.931   2.905 -0.8080 -0.0554 -0.1858
  376SOL     ow 1501   2.105   0.192   1.454 -0.0090  0.5249  0.4844
  376SOL     hw 1502   2.147   0.238   1.527 -2.3003  1.6825  1.1701
  376SOL     hw 1503   2.012   0.190   1.477 -0.2357 -3.3943 -0.1322
  376SOL     vw 1504   2.098   0.198   1.467 -0.3412  0.1606  0.4935
  377SOL     ow 1505   3.074   4.314   6.484 -0.9110 -0.3529  0.3783
  377SOL     hw 1506   3.024   4.322   6.565 -0.8658 -0.5188  0.4242
  377SOL     hw 1507   3.123   4.395   6.477 -1.8933  0.2127 -0.1465
  377SOL     vw 1508   3.073   4.326   6.493 -1.0346 -0.3002  0.3150
  378SOL     ow 1509   5.938   4.172   5.840  0.5456  0.2472 -0.5320
  378SOL     hw 1510   5.924   4.108   5.771  0.4180 -1.1849  0.7532
  378SOL     hw 1511   6.010   4.227   5.809  1.3188 -1.1471 -1.2694
  378SOL     vw 1512   5.946   4.171   5.827  0.6306 -0.1256 -0.4599
  379SOL     ow 1513   0.957   1.207   2.781 -0.4000 -0.5938  0.0976
  379SOL     hw 1514   0.923   1.219   2.869 -2.1734 -0.7404 -0.5411
  379SOL     hw 1515   0.987   1.295   2.755 -1.1307 -0.2672  0.3356
  379SOL     vw 1516   0.957   1.220   2.789 -0.7303 -0.5701  0.0448
  380SOL     ow 1517   0.161   3.576   1.172 -0.4326  0.4826  0.0980
  380SOL     hw 1518   0.206   3.530   1.243 -1.4040  0.1479  0.5280
  380SOL     hw 1519   0.218   3.567   1.096 -0.3286 -0.9608  0.3147
  380SOL     vw 1520   0.174   3.569   1.172 -0.5471  0.2481  0.1834
  381SOL     ow 1521   6.734   6.998   1.740  1.7066 -0.0341 -0.0183
  381SOL     hw 1522   6.645   6.966   1.755  2.3347 -0.9187  2.2789
  381SOL     hw 1523   6.723   7.089   1.714  0.1481  0.3083  1.6477
  381SOL     vw 1524   6.721   7.006   1.738  1.5841 -0.1059  0.5046
  382SOL     ow 1525   7.111   4.934   3.426  0.4559  0.2766  0.0615
  382SOL     hw 1526   7.020   4.941   3.453  0.0593 -2.3271 -0.3350
  382SOL     hw 1527   7.147   4.863   3.479  2.2488  1.1677  0.1223
  382SOL     vw 1528   7.104   4.926   3.437  0.6402  0.0508  0.0172
  383SOL     ow 1529   0.885   2.118   4.117  0.6865 -0.1162  0.7229
  383SOL     hw 1530   0.924   2.036   4.147 -0.1992 -1.6360 -1.9319
  383SOL     hw 1531   0.960   2.172   4.091  1.2176 -0.8661  0.6521
  383SOL     vw 1532   0.900   2.114   4.117  0.6397 -0.4157  0.3633
  384SOL     ow 1533   0.081   4.630   5.764 -0.4893  0.3004 -0.6525
  384SOL     hw 1534   0.059   4.716   5.799 -0.0948 -0.0477  0.4705
  384SOL     hw 1535   0.046   4.568   5.828 -0.1711 -0.3649 -1.1094
  384SOL     vw 1536   0.073   4.633   5.777 -0.3953  0.1667 -0.5648
  385SOL     ow 1537   5.142   0.944   6.354 -0.1168 -0.1426  0.3501
  385SOL     hw 1538   5.229   0.979   6.374  1.6219 -1.7532 -3.4656
  385SOL     hw 1539   5.141   0.857   6.394 -2.0741  1.4892  4.5061
  385SOL     vw 1540   5.153   0.937   6.362 -0.1457 -0.1398  0.3948
  386SOL     ow 1541   6.401   3.658   6.163 -0.2926 -0.2211 -0.3454
  386SOL     hw 1542   6.431   3.571   6.190  2.1232 -0.9074 -4.4021
  386SOL     hw 1543   6.474   3.716   6.183 -1.5971  0.8541  1.6183
  386SOL     vw 1544   6.414   3.654   6.169 -0.1459 -0.1698 -0.6216
  387SOL     ow 1545   2.614   5.593   1.339  0.0466 -0.5489 -0.2462
  387SOL     hw 1546   2.599   5.532   1.267  1.3991 -1.8837  0.5491
  387SOL     hw 1547   2.704   5.622   1.327  0.3248 -0.8889  0.9772
  387SOL     vw 1548   2.624   5.589   1.328  0.2619 -0.7699  0.0201
  388SOL     ow 1549   6.716   0.771   0.389  0.5015  0.1442  0.1821
  388SOL     hw 1550   6.803   0.735   0.374 -0.1166 -0.6657 -1.8729
  388SOL     hw 1551   6.701   0.829   0.314 -0.3053  1.1526  1.0940
  388SOL     vw 1552   6.725   0.774   0.377  0.3135  0.1704  0.0313
  389SOL     ow 1553   2.031   1.781   1.104  0.6093 -0.6081 -0.6895
  389SOL     hw 1554   2.080   1.747   1.028  1.6844  1.7438 -1.1340
  389SOL     hw 1555   2.071   1.866   1.121 -2.4415  0.8239 -0.1520
  389SOL     vw 1556   2.043   1.787   1.096  0.3487 -0.1089 -0.6772
  390SOL     ow 1557   0.066   5.503   1.208  0.3817  0.0037 -0.0350
  390SOL     hw 1558   0.139   5.545   1.255 -0.9778  1.9464  0.4948
  390SOL     hw 1559   0.057   5.417   1.248  1.3134  0.3919  1.0535
  390SOL     vw 1560   0.074   5.498   1.219  0.3253  0.3114  0.1785
  391SOL     ow 1561   4.995   2.542   3.808 -0.3948 -0.9646  0.2475
  391SOL     hw 1562   4.961   2.577   3.890 -4.2412 -1.1692 -1.0625
  391SOL     hw 1563   4.998   2.617   3.749 -2.0704 -1.5328 -0.6289
  391SOL     vw 1564   4.991   2.556   3.811 -1.1237 -1.0664 -0.0409
  392SOL     ow 1565   0.247   0.144   4.521 -0.3448  0.6015 -0.2047
  392SOL     hw 1566   0.277   0.230   4.550  0.8232 -0.1539  0.9504
  392SOL     hw 1567   0.152   0.147   4.530 -0.2653  1.5603  0.4364
  392SOL     vw 1568   0.238   0.156   4.526 -0.1802  0.6283  0.0322
  393SOL     ow 1569   5.778   6.369   6.671 -0.6921  0.2424  0.1539
  393SOL     hw 1570   5.834   6.340   6.743 -0.0424 -0.2639 -0.5481
  393SOL     hw 1571   5.822   6.340   6.592 -0.2324  2.7330 -0.6074
  393SOL     vw 1572   5.791   6.362   6.670 -0.5460  0.5043 -0.0391
  394SOL     ow 1573   4.440   0.481   0.537  0.5397  0.3348  0.2494
  394SOL     hw 1574   4.471   0.441   0.456  0.1957  1.2388 -0.3473
  394SOL     hw 1575   4.486   0.433   0.607  1.2936 -0.0624 -0.4986
  394SOL     vw 1576   4.450   0.470   0.536  0.5937  0.4017  0.0720
  395SOL     ow 1577   2.862   1.973   4.970  0.1971 -0.2214  0.3841
  395SOL     hw 1578   2.955   1.981   4.948 -0.2625  0.6782 -1.3728
  395SOL     hw 1579   2.822   1.934   4.892 -0.7703 -1.5997  1.5052
  395SOL     vw 1580   2.869   1.969   4.957  0.0089 -0.2846  0.2999
  396SOL     ow 1581   6.743   7.187   3.636  0.3820 -0.7499  0.5868
  396SOL     hw 1582   6.757   7.092   3.628 -0.7217 -0.8917  0.0961
  396SOL     hw 1583   6.664   7.203   3.585  0.4288  0.4101  0.8645
  396SOL     vw 1584   6.734   7.176   3.628  0.2427 -0.6158  0.5586
  397SOL     ow 1585   2.266   3.336   4.874  0.2409 -0.3624 -1.0350
  397SOL     hw 1586   2.266   3.311   4.967 -3.5208 -1.4827 -1.1450
  397SOL     hw 1587   2.345   3.296   4.838  1.8481  0.1649  1.6488
  397SOL     vw 1588   2.276   3.328   4.882 -0.0433 -0.4407 -0.6952
  398SOL     ow 1589   3.810   4.715   3.767 -0.8035 -0.0379  0.5738
  398SOL     hw 1590   3.766   4.788   3.723  0.7690  0.3370 -0.4650
  398SOL     hw 1591   3.892   4.752   3.801  0.3868 -1.4194 -0.6157
  398SOL     vw 1592   3.815   4.729   3.765 -0.4390 -0.1707  0.2798
  399SOL     ow 1593   2.155   1.558   5.348  0.0693  0.2139 -0.0040
  399SOL     hw 1594   2.167   1.504   5.269 -2.2449 -1.2873  0.5898
  399SOL     hw 1595   2.237   1.547   5.396 -0.3042 -2.9658  0.1361
  399SOL     vw 1596   2.168   1.549   5.344 -0.2855 -0.4037  0.0927
  400SOL     ow 1597   3.683   3.655   1.658  0.0000  0.6461  0.3154
  400SOL     hw 1598   3.706   3.633   1.748 -0.0984  0.9042  0.4019
  400SOL     hw 1599   3.765   3.642   1.609 -0.5981 -2.2752 -0.0759
  400SOL     vw 1600   3.697   3.650   1.663 -0.0919  0.2947  0.2752
  401SOL     ow 1601   0.302   5.595   1.302  0.4426 -0.4057 -0.3010
  401SOL     hw 1602   0.319   5.578   1.395 -0.4177 -1.3572 -0.2994
  401SOL     hw 1603   0.350   5.526   1.256 -1.2522 -1.5808 -0.4080
  401SOL     vw 1604   0.311   5.583   1.308  0.1055 -0.6862 -0.3148
  402SOL     ow 1605   6.081   5.281   2.852  0.0775 -0.0330  0.1626
  402SOL     hw 1606   6.041   5.195   2.836 -0.2833  0.3027 -0.8475
  402SOL     hw 1607   6.026   5.342   2.804  0.7707  0.6644  0.2360
  402SOL     vw 1608   6.069   5.278   2.843  0.1211  0.1032  0.0391
  403SOL     ow 1609   3.825   5.129   4.831 -0.3885  0.3555  0.2879
  403SOL     hw 1610   3.770   5.206   4.840 -0.2251  0.3067  2.1542
  403SOL     hw 1611   3.767   5.061   4.797 -1.2764  0.5647  1.3278
  403SOL     vw 1612   3.810   5.130   4.828 -0.4842  0.3765  0.6714
  404SOL     ow 1613   0.053   6.867   4.616  0.2432  1.0468 -0.3940
  404SOL     hw 1614   0.079   6.876   4.707 -1.7278 -0.0946  0.3660
  404SOL     hw 1615  -0.042   6.854   4.620  0.0593  1.3631 -2.6402
  404SOL     vw 1616   0.044   6.866   4.628 -0.0411  0.9382 -0.5901
  405SOL     ow 1617   0.111   5.648   6.715 -0.5535  0.3396 -0.6485
  405SOL     hw 1618   0.110   5.693   6.631 -1.2497  1.5137 -0.0397
  405SOL     hw 1619   0.063   5.707   6.774 -1.6540 -1.2806  0.1461
  405SOL     vw 1620   0.104   5.662   6.712 -0.7906  0.2804 -0.4632
  406SOL     ow 1621   7.110   1.890   3.408 -0.4779 -0.0509  0.7735
  406SOL     hw 1622   7.058   1.940   3.345  0.0788 -0.8933 -0.3789
  406SOL     hw 1623   7.073   1.914   3.493 -1.8975  0.3511  0.0765
  406SOL     vw 1624   7.099   1.900   3.411 -0.5915 -0.1090  0.5296
  407SOL     ow 1625   6.832   2.348   1.782  0.0234  0.3644 -0.0749
  407SOL     hw 1626   6.916   2.392   1.776 -0.4632  2.0493  3.0852
  407SOL     hw 1627   6.770   2.417   1.806 -2.1861 -0.9316 -1.6365
  407SOL     vw 1628   6.835   2.363   1.785 -0.3324  0.4157  0.1360
  408SOL     ow 1629   0.226   5.310   5.163  0.0978  0.5736 -0.0812
  408SOL     hw 1630   0.319   5.315   5.141  0.4525 -0.2498  1.1041
  408SOL     hw 1631   0.210   5.387   5.218 -0.0447  0.9694 -0.6690
  408SOL     vw 1632   0.236   5.321   5.168  0.1258  0.5171 -0.0024
  409SOL     ow 1633   1.646   4.683   6.306 -0.3994 -0.5909  0.5466
  409SOL     hw 1634   1.655   4.630   6.227 -1.7308 -0.5420  0.3489
  409SOL     hw 1635   1.719   4.655   6.362  1.0415 -0.0544 -0.9985
  409SOL     vw 1636   1.657   4.672   6.303 -0.3849 -0.5136  0.3166
  410SOL     ow 1637   4.698   3.678   4.281 -0.5765  0.3519  0.7785
  410SOL     hw 1638   4.614   3.702   4.241 -0.7197 -0.7417  0.3901
  410SOL     hw 1639   4.675   3.615   4.349 -0.2667  1.7140  2.1944
  410SOL     vw 1640   4.684   3.673   4.284 -0.5546  0.3873  0.9139
  411SOL     ow 1641   5.530   6.170   5.748 -0.1659  0.1958  0.1063
  411SOL     hw 1642   5.463   6.101   5.740  0.9402 -1.2593  2.3708
  411SOL     hw 1643   5.520   6.222   5.668 -2.4232 -1.3591 -0.7342
  411SOL     vw 1644   5.520   6.167   5.736 -0.3181 -0.2017  0.2940
  412SOL     ow 1645   3.388   0.172   3.852 -0.1860  0.4055 -0.6749
  412SOL     hw 1646   3.336   0.150   3.929 -1.4371  1.0562 -1.3072
  412SOL     hw 1647   3.413   0.264   3.866 -0.8231  0.6749 -1.2531
  412SOL     vw 1648   3.384   0.182   3.864 -0.4351  0.5269 -0.8346
  413SOL     ow 1649   6.220   3.751   7.109 -0.2336 -0.7938  0.2754
  413SOL     hw 1650   6.265   3.688   7.165 -0.9097  0.5148  2.4103
  413SOL     hw 1651   6.211   3.829   7.164 -0.8070  0.6338 -1.7423
  413SOL     vw 1652   6.225   3.753   7.123 -0.3984 -0.4327  0.2909
  414SOL     ow 1653   3.547   1.006   0.943  0.2633  0.2921  0.3211
  414SOL     hw 1654   3.533   1.076   0.880  2.1526 -0.6653 -1.2912
  414SOL     hw 1655   3.474   1.013   1.005 -2.7266  0.2316 -2.9211
  414SOL     vw 1656   3.535   1.016   0.943  0.1179  0.1578 -0.3194
  415SOL     ow 1657   6.384   4.446   1.936 -0.0001 -0.4948  0.5372
  415SOL     hw 1658   6.318   4.514   1.921  0.2381 -0.7938 -2.6684
  415SOL     hw 1659   6.463   4.495   1.963 -0.6159  0.1805  1.1611
  415SOL     vw 1660   6.386   4.462   1.937 -0.0498 -0.4454  0.1965
  416SOL     ow 1661   5.518   1.502   6.011  0.3542  0.2756 -0.2909
  416SOL     hw 1662   5.473   1.578   5.975  0.9321  0.8161  0.1009
  416SOL     hw 1663   5.453   1.461   6.069 -0.2489 -0.0464 -1.1709
  416SOL     vw 1664   5.503   1.507   6.014  0.3510  0.3044 -0.3552
  417SOL     ow 1665   0.452   5.582   5.797 -0.0262 -1.3158 -0.2961
  417SOL     hw 1666   0.474   5.638   5.871  0.8927  0.9720 -2.1838
  417SOL     hw 1667   0.535   5.545   5.768 -0.2217 -1.3689 -0.8112
  417SOL     vw 1668   0.466   5.584   5.803  0.0692 -1.0207 -0.6132
  418SOL     ow 1669   4.359   2.814   3.578  0.2760  0.4134  0.5568
  418SOL     hw 1670   4.402   2.844   3.499 -1.4048 -2.6002 -1.7201
  418SOL     hw 1671   4.334   2.723   3.559 -4.1589  0.8735  2.7868
  418SOL     vw 1672   4.361   2.806   3.565 -0.5310  0.0765  0.5507
  419SOL     ow 1673   0.474   6.148   6.417 -0.0900 -0.2670 -0.3260
  419SOL     hw 1674   0.518   6.067   6.393 -0.0581  0.0637 -1.4905
  419SOL     hw 1675   0.381   6.130   6.405 -0.0424  0.0723 -1.3539
  419SOL     vw 1676   0.468   6.135   6.412 -0.0795 -0.1788 -0.6151
  420SOL     ow 1677   5.676   0.618   0.739 -0.4227  0.5583 -0.3746
  420SOL     hw 1678   5.688   0.586   0.829 -0.2457 -1.6054 -1.0967
  420SOL     hw 1679   5.582   0.613   0.725 -0.3282 -0.4970 -0.7408
  420SOL     vw 1680   5.665   0.613   0.749 -0.3870  0.1336 -0.5182
  421SOL     ow 1681   0.793   2.132   4.397 -0.5038  0.0358 -0.0624
  421SOL     hw 1682   0.747   2.055   4.431  0.7163 -0.4160  0.6261
  421SOL     hw 1683   0.794   2.194   4.470 -0.1584  0.1029 -0.1212
  421SOL     vw 1684   0.787   2.130   4.411 -0.2972 -0.0150  0.0205
  422SOL     ow 1685   2.807   6.024   2.746  0.3335 -0.0682  0.8257
  422SOL     hw 1686   2.855   6.082   2.688 -1.1587 -0.2007 -0.5978
  422SOL     hw 1687   2.871   5.958   2.774  1.3512  0.6729  0.2690
  422SOL     vw 1688   2.821   6.023   2.742  0.2708  0.0124  0.5646
  423SOL     ow 1689   0.920   5.911   4.273  0.5392  0.0995  0.3642
  423SOL     hw 1690   1.000   5.915   4.220  1.9658  1.8442  2.4854
  423SOL     hw 1691   0.949   5.874   4.357 -1.3625 -1.2352  0.5043
  423SOL     vw 1692   0.935   5.907   4.277  0.4765  0.1538  0.6626
  424SOL     ow 1693   5.245   0.701   1.190  0.5141  0.0286 -0.5239
  424SOL     hw 1694   5.241   0.624   1.247  1.4783  0.2493 -0.1364
  424SOL     hw 1695   5.275   0.667   1.106 -2.5099 -0.5873 -1.5142
  424SOL     vw 1696   5.248   0.686   1.187  0.2427 -0.0235 -0.6035
  425SOL     ow 1697   4.148   4.540   0.713  0.2163  0.1606  1.0998
  425SOL     hw 1698   4.061   4.558   0.677  0.4543 -2.7120 -1.4449
  425SOL     hw 1699   4.206   4.546   0.637  1.9914  0.4832  2.4317
  425SOL     vw 1700   4.144   4.543   0.698  0.4821 -0.1762  0.9398
  426SOL     ow 1701   5.504   6.411   0.512 -0.4832  0.3121  0.0098
  426SOL     hw 1702   5.504   6.493   0.560 -1.3285  0.7168 -0.6460
  426SOL     hw 1703   5.515   6.344   0.579  2.5778  1.0215  0.3450
  426SOL     vw 1704   5.505   6.413   0.527 -0.1907  0.4592 -0.0325
  427SOL     ow 1705   2.708   2.498   4.049  0.1161  0.6713 -0.1101
  427SOL     hw 1706   2.692   2.590   4.028  0.2009  0.6399 -0.3140
  427SOL     hw 1707   2.737   2.499   4.140 -0.8129  0.7527  0.1973
  427SOL     vw 1708   2.710   2.510   4.058  0.0046  0.6777 -0.0963
  428SOL     ow 1709   2.621   1.613   6.709 -0.1787 -0.7099 -0.2439
  428SOL     hw 1710   2.678   1.537   6.720 -0.6779 -1.0727 -0.1098
  428SOL     hw 1711   2.545   1.594   6.764  1.9618  2.3017  4.4170
  428SOL     vw 1712   2.618   1.600   6.717  0.0380 -0.3604  0.3889
  429SOL     ow 1713   3.216   6.504   0.442 -0.4012  0.1276 -0.1712
  429SOL     hw 1714   3.201   6.589   0.483 -3.1897 -0.8960  1.1975
  429SOL     hw 1715   3.244   6.447   0.513  3.3390  0.1782 -1.3978
  429SOL     vw 1716   3.218   6.507   0.457 -0.2756 -0.0007 -0.1525
  430SOL     ow 1717   0.383   6.373   0.018 -0.2447 -0.9822 -0.4456
  430SOL     hw 1718   0.306   6.427   0.032  0.1140 -0.8942  1.6140
  430SOL     hw 1719   0.443   6.429  -0.033  0.0192  0.5419  1.4119
  430SOL     vw 1720   0.381   6.388   0.013 -0.1625 -0.7694  0.0713
  431SOL     ow 1721   1.323   1.353   2.834  0.4657 -0.1229  0.0679
  431SOL     hw 1722   1.369   1.387   2.758 -0.8386 -0.6851 -1.0176
  431SOL     hw 1723   1.272   1.427   2.867  0.9687  0.0981  0.3632
  431SOL     vw 1724   1.322   1.367   2.829  0.3599 -0.1679 -0.0365
  432SOL     ow 1725   5.262   2.519   5.820  0.5336 -0.0331 -1.0758
  432SOL     hw 1726   5.288   2.452   5.756  1.9642 -1.5489  0.9867
  432SOL     hw 1727   5.345   2.549   5.857 -0.2873  0.0175  0.8113
  432SOL     vw 1728   5.277   2.514   5.816  0.6137 -0.2265 -0.5543
  433SOL     ow 1729   6.181   0.408   4.610  0.1781  0.4554  0.3676
  433SOL     hw 1730   6.225   0.369   4.535 -0.0121  0.0180  0.4832
  433SOL     hw 1731   6.188   0.343   4.680  0.4526  0.9029  0.7680
  433SOL     vw 1732   6.188   0.395   4.610  0.1891  0.4567  0.4358
  434SOL     ow 1733   1.060   1.017   3.999  0.0987 -0.1416 -0.1243
  434SOL     hw 1734   1.083   1.086   3.938 -0.8178 -0.9251 -1.3993
  434SOL     hw 1735   1.019   1.062   4.073  0.8889  0.7886 -0.2441
  434SOL     vw 1736   1.058   1.032   4.001  0.0820 -0.1222 -0.3083
  435SOL     ow 1737   1.783   0.873   3.294  0.7767  0.1937 -0.5960
  435SOL     hw 1738   1.775   0.936   3.366  2.2943  1.0249 -1.1202
  435SOL     hw 1739   1.864   0.826   3.312 -0.6607 -2.1964  0.1587
  435SOL     vw 1740   1.792   0.875   3.306  0.7873 -0.0119 -0.5655
  436SOL     ow 1741   1.332   0.121   0.956 -0.1245 -0.4294 -0.6077
  436SOL     hw 1742   1.254   0.148   1.005  1.7577 -0.8705  2.9925
  436SOL     hw 1743   1.402   0.178   0.990  1.6775 -2.0273 -1.4509
  436SOL     vw 1744   1.331   0.132   0.967  0.3616 -0.6984 -0.2439
  437SOL     ow 1745   0.867   4.167   5.728  0.3370 -0.3447  0.4608
  437SOL     hw 1746   0.951   4.121   5.730  0.1383 -0.7181  0.3698
  437SOL     hw 1747   0.807   4.108   5.774  0.2577  0.1890  1.0494
  437SOL     vw 1748   0.870   4.153   5.734  0.3003 -0.3235  0.5267
  438SOL     ow 1749   3.563   3.751   6.284  0.2676 -0.5386 -0.7417
  438SOL     hw 1750   3.516   3.825   6.247 -1.2005 -1.5472 -0.9681
  438SOL     hw 1751   3.545   3.755   6.378  1.0456 -0.0424 -0.5995
  438SOL     vw 1752   3.555   3.761   6.292  0.1765 -0.6063 -0.7527
  439SOL     ow 1753   5.477   2.488   0.589  0.1004  0.2441 -0.2916
  439SOL     hw 1754   5.382   2.491   0.584  0.0096  1.0207  1.1531
  439SOL     hw 1755   5.506   2.577   0.569  0.8967 -0.8172 -4.9282
  439SOL     vw 1756   5.468   2.500   0.586  0.1936  0.2065 -0.7127
  440SOL     ow 1757   1.162   3.449   2.086 -0.1356  0.3505 -0.4300
  440SOL     hw 1758   1.082   3.503   2.080  0.7950  1.9687  0.9792
  440SOL     hw 1759   1.164   3.418   2.176  1.9760  2.3010  0.2929
  440SOL     vw 1760   1.151   3.452   2.097  0.2658  0.8214 -0.1487
  441SOL     ow 1761   6.024   1.785   6.695  0.0984 -0.2402 -0.0914
  441SOL     hw 1762   6.118   1.793   6.679 -0.0784  0.3663 -0.9115
  441SOL     hw 1763   6.013   1.802   6.788  0.4771  3.0030 -0.5324
  441SOL     vw 1764   6.035   1.788   6.705  0.1254  0.2676 -0.2580
  442SOL     ow 1765   1.138   0.807   5.376  0.3800  0.0880 -0.1850
  442SOL     hw 1766   1.069   0.831   5.438 -0.1248 -0.5118 -0.4997
  442SOL     hw 1767   1.163   0.718   5.402  0.8899  0.2196 -0.2088
  442SOL     vw 1768   1.132   0.798   5.388  0.3806  0.0262 -0.2296
  443SOL     ow 1769   0.680   5.064   1.065  0.0755  0.6513 -0.9124
  443SOL     hw 1770   0.586   5.049   1.076  0.4926 -1.1613  0.7423
  443SOL     hw 1771   0.691   5.082   0.972 -1.7253 -0.6670 -1.4195
  443SOL     vw 1772   0.669   5.065   1.054 -0.1070  0.2384 -0.7611
  444SOL     ow 1773   4.448   7.129   2.638 -0.3002 -0.1032  0.1818
  444SOL     hw 1774   4.462   7.216   2.675 -1.0798 -0.0417  0.3486
  444SOL     hw 1775   4.534   7.103   2.605 -0.1202  0.8536 -0.1444
  444SOL     vw 1776   4.461   7.137   2.639 -0.3793  0.0311  0.1608
  445SOL     ow 1777   5.049   4.008   6.556 -0.0099  0.1639 -0.0573
  445SOL     hw 1778   4.986   4.027   6.626 -1.6312  3.3323 -2.0905
  445SOL     hw 1779   5.000   3.955   6.493  0.9284 -1.3316  0.4318
  445SOL     vw 1780   5.034   4.004   6.557 -0.1001  0.3848 -0.2611
  446SOL     ow 1781   3.890   2.626   5.487  0.3755 -0.4087  0.2415
  446SOL     hw 1782   3.807   2.579   5.484 -0.2488  0.6932 -0.3904
  446SOL     hw 1783   3.891   2.668   5.573 -0.6791  1.1846 -0.4681
  446SOL     vw 1784   3.879   2.626   5.498  0.1540 -0.0532  0.0646
  447SOL     ow 1785   5.840   2.881   5.363 -0.6477 -0.1293  0.2389
  447SOL     hw 1786   5.896   2.932   5.422  1.5951  0.6091 -2.3548
  447SOL     hw 1787   5.881   2.795   5.358 -0.3372  0.0622 -0.8083
  447SOL     vw 1788   5.853   2.877   5.370 -0.3107 -0.0068 -0.2418
  448SOL     ow 1789   2.403   6.139   0.976 -0.4954  0.0637 -0.4612
  448SOL     hw 1790   2.321   6.122   0.929 -1.2244  1.8172  0.0921
  448SOL     hw 1791   2.390   6.096   1.061 -1.0999  0.7746 -0.1745
  448SOL     vw 1792   2.390   6.131   0.981 -0.6713  0.3889 -0.3503
  449SOL     ow 1793   2.356   6.834   1.926  0.6837  0.0291  0.4794
  449SOL     hw 1794   2.301   6.811   1.852 -0.8754  1.1587  1.2325
  449SOL     hw 1795   2.297   6.833   2.001  2.4644 -2.3336  1.9869
  449SOL     vw 1796   2.341   6.831   1.926  0.7130 -0.1335  0.7776
  450SOL     ow 1797   3.624   0.704   0.909 -0.1874  0.3476 -0.4704
  450SOL     hw 1798   3.657   0.614   0.908  0.2025  0.4502  1.1019
  450SOL     hw 1799   3.531   0.695   0.931 -0.3764  0.2832 -1.2690
  450SOL     vw 1800   3.616   0.691   0.912 -0.1607  0.3526 -0.3684
  451SOL     ow 1801   1.378   5.366   3.041 -0.1328 -0.2622  0.2673
  451SOL     hw 1802   1.453   5.411   3.002  0.5330  1.2901  3.0479
  451SOL     hw 1803   1.302   5.404   2.996  0.6214  0.5918 -0.3283
  451SOL     vw 1804   1.378   5.377   3.030  0.0545  0.0553  0.5556
  452SOL     ow 1805   4.705   6.793   3.477 -0.0475  0.3751 -0.3636
  452SOL     hw 1806   4.621   6.746   3.483 -0.1129  0.2455 -1.8736
  452SOL     hw 1807   4.681   6.880   3.446  0.3230  0.5115 -0.2692
  452SOL     vw 1808   4.691   6.798   3.474 -0.0074  0.3760 -0.5504
  453SOL     ow 1809   5.507   4.313   3.214 -0.0621  0.4921 -0.7007
  453SOL     hw 1810   5.597   4.306   3.246 -0.2998 -0.0917 -0.1429
  453SOL     hw 1811   5.462   4.364   3.281 -0.2272  0.5028 -0.8182
  453SOL     vw 1812   5.513   4.319   3.227 -0.1154  0.4163 -0.6425
  454SOL     ow 1813   3.867   2.419   6.015  0.5042 -0.2168 -0.3123
  454SOL     hw 1814   3.794   2.478   5.998  0.7700  0.1816 -0.0902
  454SOL     hw 1815   3.885   2.378   5.930  1.9260  1.8664 -1.1033
  454SOL     vw 1816   3.860   2.421   6.001  0.7268  0.1106 -0.3872
  455SOL     ow 1817   1.582   2.078   1.185  0.1203 -0.6754  0.5405
  455SOL     hw 1818   1.594   2.165   1.223  2.5393 -1.5076  1.9351
  455SOL     hw 1819   1.488   2.062   1.190 -0.8661  2.9319 -2.4472
  455SOL     vw 1820   1.571   2.087   1.191  0.3092 -0.3092  0.3302
  456SOL     ow 1821   4.935   2.110   0.501 -0.2684 -0.5465  0.1066
  456SOL     hw 1822   4.954   2.187   0.555 -0.8709 -0.8734  0.7925
  456SOL     hw 1823   5.019   2.090   0.459  0.0588  0.0800  0.4414
  456SOL     vw 1824   4.949   2.118   0.503 -0.3047 -0.5070  0.2412
  457SOL     ow 1825   1.633   4.498   0.348  0.0670 -0.3048 -0.2017
  457SOL     hw 1826   1.605   4.524   0.260 -1.2419  0.9507  0.5310
  457SOL     hw 1827   1.708   4.440   0.334  2.3432  2.8019 -2.0634
  457SOL     vw 1828   1.639   4.494   0.334  0.1946  0.2708 -0.3507
  458SOL     ow 1829   0.894   1.201   3.026 -0.1597 -0.5728  0.1092
  458SOL     hw 1830   0.882   1.106   3.026  0.5389 -0.6843  1.0647
  458SOL     hw 1831   0.824   1.234   3.082 -1.6297 -0.3004 -1.7871
  458SOL     vw 1832   0.883   1.193   3.034 -0.2615 -0.5515 -0.0150
  459SOL     ow 1833   3.006   2.769   6.195 -0.0061  0.0376  0.3098
  459SOL     hw 1834   2.935   2.833   6.202 -1.5319 -1.3210 -1.6271
  459SOL     hw 1835   2.971   2.690   6.237  0.8331 -0.3015  0.3838
  459SOL     vw 1836   2.992   2.767   6.202 -0.0968 -0.1864  0.0639
  460SOL     ow 1837   0.120   4.234   3.641  0.8841 -0.0366 -0.6594
  460SOL     hw 1838   0.211   4.246   3.613  0.5119  3.2172 -0.8619
  460SOL     hw 1839   0.125   4.166   3.709  3.7162  1.0438  0.3989
  460SOL     vw 1840   0.133   4.227   3.646  1.2086  0.5350 -0.5465
  461SOL     ow 1841   3.416   3.205   3.082  0.7679  0.2559  0.0275
  461SOL     hw 1842   3.505   3.212   3.049  1.5152 -0.1935  1.8053
  461SOL     hw 1843   3.423   3.149   3.159 -1.4097 -1.5838 -0.9862
  461SOL     vw 1844   3.429   3.198   3.088  0.5792 -0.0461  0.1283
  462SOL     ow 1845   1.206   3.868   2.191 -0.9438 -0.0937  0.6077
  462SOL     hw 1846   1.254   3.793   2.156  0.1029 -0.4042  2.5580
  462SOL     hw 1847   1.114   3.847   2.175 -0.6251 -1.3583  0.3092
  462SOL     vw 1848   1.200   3.856   2.184 -0.7637 -0.3014  0.8258
  463SOL     ow 1849   3.500   2.569   2.158  0.3957  0.1973  0.0302
  463SOL     hw 1850   3.506   2.476   2.176  2.6430  0.1731 -0.5495
  463SOL     hw 1851   3.461   2.575   2.071  1.0749 -0.2498 -0.3090
  463SOL     vw 1852   3.495   2.558   2.149  0.7819  0.1352 -0.0912
  464SOL     ow 1853   2.183   6.765   1.721  0.4454 -0.1968 -0.6909
  464SOL     hw 1854   2.166   6.681   1.764  1.2779  0.0643  0.1809
  464SOL     hw 1855   2.247   6.744   1.653  1.0921 -0.1989 -0.1040
  464SOL     vw 1856   2.189   6.751   1.718  0.6405 -0.1626 -0.4984
  465SOL     ow 1857   5.732   1.829   2.750  0.1604  0.1263  0.0100
  465SOL     hw 1858   5.806   1.795   2.700  2.1075 -0.8358  3.2271
  465SOL     hw 1859   5.674   1.754   2.761  0.6502 -0.1632  0.6842
  465SOL     vw 1860   5.734   1.815   2.745  0.4821 -0.0388  0.5234
  466SOL     ow 1861   7.131   3.324   6.026 -0.0614  0.1171  0.3186
  466SOL     hw 1862   7.130   3.352   5.934  0.4895  1.4625  0.6912
  466SOL     hw 1863   7.208   3.268   6.034  0.8349  1.3086  0.2915
  466SOL     vw 1864   7.141   3.320   6.015  0.1292  0.4518  0.3641
  467SOL     ow 1865   3.143   5.593   3.440  0.3078  0.1186  0.4415
  467SOL     hw 1866   3.051   5.594   3.467  1.0575  0.7081  3.3664
  467SOL     hw 1867   3.159   5.681   3.406 -0.3155 -0.1942 -0.7441
  467SOL     vw 1868   3.133   5.605   3.439  0.3244  0.1552  0.6709
  468SOL     ow 1869   2.553   4.168   0.252 -0.7290  0.0108 -0.0922
  468SOL     hw 1870   2.469   4.202   0.219 -1.2089  0.0712  1.1549
  468SOL     hw 1871   2.566   4.087   0.203  1.1480  2.4263 -4.2326
  468SOL     vw 1872   2.543   4.162   0.241 -0.5445  0.3374 -0.4739
  469SOL     ow 1873   3.010   4.795   4.494 -0.1728  0.1292 -0.1534
  469SOL     hw 1874   3.070   4.811   4.421 -0.6683  0.1075 -0.5665
  469SOL     hw 1875   2.960   4.719   4.468  2.7539 -2.8955  2.1431
  469SOL     vw 1876   3.011   4.787   4.481  0.1481 -0.2728  0.0951
  470SOL     ow 1877   3.700   3.026   6.993  0.1905  0.0404 -0.3077
  470SOL     hw 1878   3.644   3.103   6.985 -0.2483 -0.1917  0.4120
  470SOL     hw 1879   3.661   2.962   6.932 -0.1474 -0.0083 -0.0473
  470SOL     vw 1880   3.687   3.028   6.984  0.0880  0.0033 -0.1786
  471SOL     ow 1881   4.313   4.129   0.516 -0.1191  0.3451 -0.1902
  471SOL     hw 1882   4.262   4.054   0.483  1.4398 -0.7917 -0.1100
  471SOL     hw 1883   4.376   4.090   0.576  1.1675  1.6493 -0.6654
  471SOL     vw 1884   4.314   4.114   0.519  0.2563  0.3672 -0.2424
  472SOL     ow 1885   7.156   0.006   2.959 -0.2845 -0.3808  0.3612
  472SOL     hw 1886   7.252   0.012   2.957 -0.3734  1.8556 -1.0330
  472SOL     hw 1887   7.126   0.087   2.917 -2.8579  0.6202  3.6718
  472SOL     vw 1888   7.165   0.018   2.953 -0.6356  0.0463  0.6140
  473SOL     ow 1889   3.334   3.131   0.454 -0.3366  0.5090 -0.2884
  473SOL     hw 1890   3.405   3.084   0.496 -0.1655 -0.8934 -2.0169
  473SOL     hw 1891   3.267   3.140   0.522  0.5479 -0.2082  0.7079
  473SOL     vw 1892   3.334   3.126   0.468 -0.1973  0.2294 -0.3850
  474SOL     ow 1893   2.430   0.611   0.741  0.2936 -0.2512  0.1730
  474SOL     hw 1894   2.489   0.548   0.698  0.9029  0.7528 -0.4964
  474SOL     hw 1895   2.354   0.615   0.683 -0.4244 -1.4717  0.9859
  474SOL     vw 1896   2.428   0.603   0.727  0.2793 -0.2797  0.1920
  475SOL     ow 1897   3.242   3.289   1.571 -0.0831 -0.6364 -0.1199
  475SOL     hw 1898   3.152   3.286   1.540 -0.5586 -4.0581  1.1650
  475SOL     hw 1899   3.292   3.241   1.506  0.5321 -0.1829  0.0056
  475SOL     vw 1900   3.237   3.283   1.558 -0.0646 -1.0281  0.0662
  476SOL     ow 1901   0.378   3.784   6.633  0.3690  0.2380 -0.2280
  476SOL     hw 1902   0.336   3.743   6.556 -1.0735  0.5229  0.3761
  476SOL     hw 1903   0.351   3.729   6.706  2.3510 -0.4709  0.0226
  476SOL     vw 1904   0.369   3.771   6.632  0.4402  0.1819 -0.1152
  477SOL     ow 1905   6.543   1.595   5.778 -0.1402  0.0682  0.1088
  477SOL     hw 1906   6.585   1.536   5.840  0.4927 -1.1703 -1.4147
  477SOL     hw 1907   6.598   1.591   5.700 -2.5037 -0.8687 -1.6579
  477SOL     vw 1908   6.556   1.587   5.776 -0.3688 -0.2188 -0.3254
  478SOL     ow 1909   5.746   2.507   6.441  0.2983  0.5266 -0.9512
  478SOL     hw 1910   5.718   2.432   6.494  0.2879  1.6132  0.6525
  478SOL     hw 1911   5.813   2.550   6.494  0.3984  1.5713 -1.8919
  478SOL     vw 1912   5.751   2.503   6.455  0.3099  0.8079 -0.8636
  479SOL     ow 1913   0.982   5.058   5.658  0.1081  0.0838 -0.2804
  479SOL     hw 1914   1.058   5.021   5.703 -0.5378 -0.3260  0.4988
  479SOL     hw 1915   0.981   5.150   5.682  0.7551  0.2487 -0.8621
  479SOL     vw 1916   0.992   5.065   5.667  0.1082  0.0517 -0.2544
  480SOL     ow 1917   2.656   1.776   5.066 -0.3280 -0.3967  0.2544
  480SOL     hw 1918   2.699   1.733   4.992  0.6607  0.2260  0.4479
  480SOL     hw 1919   2.595   1.710   5.100  3.2500 -2.9900  2.4692
  480SOL     vw 1920   2.654   1.761   5.061  0.2747 -0.6567  0.5722
  481SOL     ow 1921   3.353   5.109   5.469 -0.2821 -0.4086  0.2948
  481SOL     hw 1922   3.289   5.051   5.427 -1.8222  2.2128 -1.2779
  481SOL     hw 1923   3.305   5.151   5.540  0.0193  0.7196 -0.1433
  481SOL     vw 1924   3.338   5.107   5.473 -0.4456  0.0858  0.0296
  482SOL     ow 1925   6.660   2.895   2.005 -0.3928  0.3527  0.5688
  482SOL     hw 1926   6.662   2.842   2.086 -1.9966 -0.4540  0.1437
  482SOL     hw 1927   6.716   2.847   1.944 -0.9247 -0.2583  0.5434
  482SOL     vw 1928   6.667   2.881   2.008 -0.6747  0.1656  0.5094
  483SOL     ow 1929   4.006   3.326   7.031  0.2986 -0.1285  0.4217
  483SOL     hw 1930   3.950   3.393   7.070  1.4301  1.4198 -0.5255
  483SOL     hw 1931   4.091   3.337   7.073 -0.2531 -3.2090  2.6945
  483SOL     vw 1932   4.010   3.336   7.041  0.3755 -0.3308  0.5965
  484SOL     ow 1933   1.621   3.818   5.133 -0.4178  0.5551 -0.3153
  484SOL     hw 1934   1.658   3.900   5.102  0.2524  0.1766 -0.5309
  484SOL     hw 1935   1.685   3.751   5.108 -1.9797 -0.3369 -2.1495
  484SOL     vw 1936   1.634   3.820   5.126 -0.5354  0.3875 -0.5860
  485SOL     ow 1937   1.488   2.257   4.710  0.6710 -0.4212  0.2598
  485SOL     hw 1938   1.530   2.172   4.695  0.8559 -0.7459  2.3076
  485SOL     hw 1939   1.523   2.286   4.794  0.7435  1.8064 -0.4949
  485SOL     vw 1940   1.498   2.249   4.719  0.7049 -0.1701  0.4303
  486SOL     ow 1941   2.677   4.466   0.237  0.5545  0.3850 -0.2700
  486SOL     hw 1942   2.765   4.490   0.208  0.4507 -0.9559 -1.8705
  486SOL     hw 1943   2.627   4.547   0.232  1.5152  1.0077 -0.0541
  486SOL     vw 1944   2.682   4.479   0.233  0.6677  0.2899 -0.4527
  487SOL     ow 1945   6.618   4.245   1.925 -0.4866  0.1057 -0.1843
  487SOL     hw 1946   6.655   4.161   1.898 -0.5820 -0.3637  1.0855
  487SOL     hw 1947   6.661   4.309   1.869  0.8807 -0.6188  0.0006
  487SOL     vw 1948   6.628   4.242   1.914 -0.3190 -0.0517  0.0076
  488SOL     ow 1949   5.000   3.901   1.524 -0.2764 -0.1738  0.0858
  488SOL     hw 1950   5.092   3.894   1.500  0.1690 -1.4011  1.9782
  488SOL     hw 1951   4.981   3.822   1.574 -2.2461  0.2608  0.1309
  488SOL     vw 1952   5.010   3.890   1.528 -0.4776 -0.2784  0.3414
  489SOL     ow 1953   3.976   2.240   2.476  0.6208 -0.1231 -0.5676
  489SOL     hw 1954   4.031   2.227   2.553  1.0855  1.5596 -0.5738
  489SOL     hw 1955   4.025   2.198   2.405 -1.0849 -4.1540  0.3744
  489SOL     vw 1956   3.990   2.232   2.476  0.4570 -0.4327 -0.4443
  490SOL     ow 1957   2.046   1.852   2.178  0.1335 -0.2451  0.0970
  490SOL     hw 1958   2.094   1.918   2.229  2.0599 -0.7244 -0.9993
  490SOL     hw 1959   2.076   1.865   2.088 -1.2942 -1.0684 -0.5325
  490SOL     vw 1960   2.056   1.862   2.173  0.1992 -0.4169 -0.1308
  491SOL     ow 1961   0.086   2.849   5.166 -0.6765 -0.3650 -0.0969
  491SOL     hw 1962   0.159   2.902   5.198  0.2454 -1.8298  0.3426
  491SOL     hw 1963   0.024   2.847   5.238 -2.0175  2.2866 -1.0626
  491SOL     vw 1964   0.088   2.856   5.179 -0.7318 -0.2084 -0.1659
  492SOL     ow 1965   6.785   5.563   4.715 -0.5755 -0.5814  0.0009
  492SOL     hw 1966   6.837   5.484   4.702 -1.6803 -1.0688 -1.7402
  492SOL     hw 1967   6.803   5.589   4.806  1.6249 -1.4649 -0.1413
  492SOL     vw 1968   6.794   5.556   4.725 -0.4311 -0.7622 -0.2477
  493SOL     ow 1969   1.241   1.087   2.839 -0.5276 -0.5024 -0.2042
  493SOL     hw 1970   1.305   1.019   2.858  0.1640 -0.6383 -2.6555
  493SOL     hw 1971   1.294   1.166   2.826 -0.9537 -0.3137 -0.8778
  493SOL     vw 1972   1.256   1.089   2.839 -0.4926 -0.4954 -0.6166
  494SOL     ow 1973   1.155   6.730   0.060 -0.1058  0.8545  0.1126
  494SOL     hw 1974   1.074   6.773   0.086 -1.9196 -1.3648 -1.3685
  494SOL     hw 1975   1.164   6.656   0.121 -0.5081 -0.2422 -1.1096
  494SOL     vw 1976   1.146   6.726   0.071 -0.3981  0.4168 -0.2444
  495SOL     ow 1977   3.411   2.019   3.047  0.0811  0.3386  0.2952
  495SOL     hw 1978   3.367   1.960   2.986  1.7834  0.8892 -1.6304
  495SOL     hw 1979   3.375   2.106   3.027  0.7166  0.5366 -0.0359
  495SOL     vw 1980   3.401   2.023   3.036  0.3896  0.4373 -0.0026
  496SOL     ow 1981   4.264   0.357   4.661  0.1876  0.3799  0.3748
  496SOL     hw 1982   4.189   0.306   4.631 -0.0377  1.6149 -1.2615
  496SOL     hw 1983   4.340   0.300   4.646 -0.1866  0.0326 -0.2254
  496SOL     vw 1984   4.264   0.343   4.655  0.1085  0.4970  0.0796
  497SOL     ow 1985   3.332   0.679   1.968 -1.0235  1.3183 -0.4864
  497SOL     hw 1986   3.280   0.601   1.987 -0.6945  0.9613 -0.9943
  497SOL     hw 1987   3.409   0.645   1.922  0.3799  1.6638  1.4968
  497SOL     vw 1988   3.335   0.664   1.964 -0.7950  1.3168 -0.2918
  498SOL     ow 1989   5.022   6.076   0.737 -0.1335 -0.3390 -0.0905
  498SOL     hw 1990   5.051   6.064   0.828  3.1316 -0.1513 -0.9809
  498SOL     hw 1991   4.942   6.128   0.744 -0.9370 -1.7199  2.7082
  498SOL     vw 1992   5.015   6.081   0.750  0.1915 -0.4966  0.1613
  499SOL     ow 1993   5.737   1.782   4.393  0.0729  0.0550  0.3883
  499SOL     hw 1994   5.667   1.840   4.361  0.4032 -0.4712 -1.3515
  499SOL     hw 1995   5.725   1.701   4.345  1.9592 -0.0082 -0.0278
  499SOL     vw 1996   5.726   1.779   4.383  0.3655 -0.0228  0.1042
  500SOL     ow 1997   0.264   0.775   3.504 -0.0980  0.3107  0.7162
  500SOL     hw 1998   0.225   0.744   3.422 -0.2959 -2.1706  1.6694
  500SOL     hw 1999   0.342   0.824   3.476  0.3693 -1.2735 -0.9348
  500SOL     vw 2000   0.269   0.778   3.489 -0.0625 -0.2257  0.6241
  501SOL     ow 2001   2.788   1.941   7.018 -0.1648 -0.2984 -0.3873
  501SOL     hw 2002   2.837   2.021   7.004  0.3055 -0.6285 -0.6601
  501SOL     hw 2003   2.813   1.912   7.105  0.9023 -0.9894 -0.9032
  501SOL     vw 2004   2.798   1.948   7.028  0.0380 -0.4332 -0.4914
  502SOL     ow 2005   7.118   6.275   2.363 -0.8473  0.0680  0.1013
  502SOL     hw 2006   7.184   6.341   2.344  0.1443 -1.1018 -0.6957
  502SOL     hw 2007   7.146   6.235   2.445  0.9225 -2.0880 -1.4140
  502SOL     vw 2008   7.130   6.278   2.371 -0.4828 -0.3707 -0.2038
  503SOL     ow 2009   0.497   6.944   0.722 -0.2906 -0.4020  0.5182
  503SOL     hw 2010   0.579   6.895   0.722  0.4077  0.6663 -0.9438
  503SOL     hw 2011   0.511   7.015   0.785  1.0463  1.4128 -1.6558
  503SOL     vw 2012   0.510   6.947   0.730 -0.0221 -0.0217  0.0385
  504SOL     ow 2013   2.529   5.544   5.615  0.6865  0.0608 -0.1747
  504SOL     hw 2014   2.489   5.627   5.642  2.6823  0.4118  1.9601
  504SOL     hw 2015   2.571   5.564   5.531 -2.4955 -0.0490 -1.9449
  504SOL     vw 2016   2.529   5.558   5.607  0.5300  0.0927 -0.1268
  505SOL     ow 2017   5.188   3.355   6.890 -0.2123 -0.0727 -0.1102
  505SOL     hw 2018   5.207   3.431   6.945 -0.5439 -1.4250  1.9614
  505SOL     hw 2019   5.104   3.376   6.849 -1.3328 -0.0859  2.0283
  505SOL     vw 2020   5.179   3.368   6.892 -0.4041 -0.2528  0.4451
  506SOL     ow 2021   5.408   3.011   3.359 -0.2422 -0.3569  0.2420
  506SOL     hw 2022   5.396   2.921   3.389 -2.2979 -0.5253 -0.9554
  506SOL     hw 2023   5.398   3.064   3.438 -2.1120 -1.0054  0.4850
  506SOL     vw 2024   5.405   3.006   3.373 -0.7601 -0.4647  0.1161
  507SOL     ow 2025   0.404   0.493   3.990 -0.0651  0.3922  0.0058
  507SOL     hw 2026   0.338   0.469   4.055 -0.8328 -0.3844 -1.0275
  507SOL     hw 2027   0.487   0.484   4.036 -0.4499 -2.2285  0.3416
  507SOL     vw 2028   0.406   0.489   4.004 -0.2171 -0.0560 -0.0863
  508SOL     ow 2029   0.247   6.121   1.595  0.0028  0.9976 -0.0222
  508SOL     hw 2030   0.153   6.136   1.606  0.2062  3.2079 -0.7771
  508SOL     hw 2031   0.274   6.184   1.528  1.6609 -1.0076 -1.4012
  508SOL     vw 2032   0.238   6.131   1.587  0.2484  1.0247 -0.3037
  509SOL     ow 2033   5.306   0.894   2.096  0.4456  0.2859  0.1092
  509SOL     hw 2034   5.369   0.843   2.046  2.1120  3.0779 -0.8572
  509SOL     hw 2035   5.235   0.913   2.034  0.6054  0.4600 -0.0215
  509SOL     vw 2036   5.305   0.890   2.082  0.6869  0.6773 -0.0355
  510SOL     ow 2037   1.252   1.880   0.729  0.3413 -0.4593  0.0395
  510SOL     hw 2038   1.234   1.967   0.763  0.6868 -0.5711  0.5113
  510SOL     hw 2039   1.218   1.882   0.639 -1.5700 -0.5010  0.7118
  510SOL     vw 2040   1.245   1.892   0.721  0.1347 -0.4796  0.1905
  511SOL     ow 2041   6.210   6.920   6.412 -0.0420 -0.1839 -0.3108
  511SOL     hw 2042   6.253   6.984   6.468 -0.9527 -1.6794  2.2895
  511SOL     hw 2043   6.122   6.955   6.398 -0.1736 -0.3207  0.1568
  511SOL     vw 2044   6.204   6.933   6.418 -0.1795 -0.3994  0.0937
  512SOL     ow 2045   4.877   0.356   4.106 -0.5624 -0.2827 -0.1301
  512SOL     hw 2046   4.871   0.447   4.135 -0.0948 -0.9900  2.4622
  512SOL     hw 2047   4.786   0.327   4.098 -0.7110  0.3571 -0.8563
  512SOL     vw 2048   4.865   0.364   4.109 -0.5202 -0.2916  0.1161
  513SOL     ow 2049   1.866   2.084   1.282 -0.2883  0.5547 -0.0856
  513SOL     hw 2050   1.887   2.147   1.351  0.3382 -0.3330  0.5641
  513SOL     hw 2051   1.862   2.135   1.202  0.8771  1.3207  0.3231
  513SOL     vw 2052   1.868   2.099   1.281 -0.0519  0.5387  0.0541
  514SOL     ow 2053   3.863   1.559   1.787  0.3464 -0.3392 -0.0077
  514SOL     hw 2054   3.885   1.592   1.875 -2.1925  1.1891  0.1416
  514SOL     hw 2055   3.768   1.570   1.780  0.4555 -0.5215 -2.9128
  514SOL     vw 2056   3.854   1.565   1.798  0.0259 -0.1616 -0.3712
  515SOL     ow 2057   4.115   0.302   1.578 -0.3654  0.0087  0.4575
  515SOL     hw 2058   4.050   0.329   1.643 -1.3164 -0.5432 -0.2481
  515SOL     hw 2059   4.147   0.384   1.540 -2.5248  0.2572 -0.9816
  515SOL     vw 2060   4.111   0.316   1.582 -0.7758 -0.0313  0.1745
  516SOL     ow 2061   1.514   0.357   1.117  0.6589 -0.9384 -0.0359
  516SOL     hw 2062   1.593   0.382   1.069  0.6952  0.3852  0.6728
  516SOL     hw 2063   1.519   0.406   1.199 -2.3186  1.6459 -1.1796
  516SOL     vw 2064   1.525   0.367   1.121  0.2708 -0.4228 -0.0932
  517SOL     ow 2065   0.181   7.166   1.395 -0.1783 -0.8886 -0.2848
  517SOL     hw 2066   0.258   7.201   1.439 -0.4754  1.0834 -1.1652
  517SOL     hw 2067   0.126   7.132   1.465  1.2922 -1.9485  0.3928
  517SOL     vw 2068   0.184   7.166   1.410 -0.0235 -0.7683 -0.3116
  518SOL     ow 2069   2.660   2.794   5.818 -0.3734  0.3632  0.7241
  518SOL     hw 2070   2.598   2.756   5.756 -1.2588  0.7104  1.3807
  518SOL     hw 2071   2.672   2.884   5.788  0.2495  0.1348  0.2760
  518SOL     vw 2072   2.653   2.801   5.805 -0.4082  0.3787  0.7517
  519SOL     ow 2073   3.724   2.170   6.240 -0.0785  0.6303  0.5563
  519SOL     hw 2074   3.677   2.240   6.195 -1.0992 -1.3449 -1.6660
  519SOL     hw 2075   3.745   2.107   6.171  1.2507 -1.0325  2.3601
  519SOL     vw 2076   3.721   2.171   6.225 -0.0378  0.1503  0.5009
  520SOL     ow 2077   1.248   4.009   1.644  0.0222  0.2132  0.1448
  520SOL     hw 2078   1.250   3.918   1.615 -1.3244  0.1747  0.0910
  520SOL     hw 2079   1.325   4.018   1.701 -0.6769 -1.4080  1.4389
  520SOL     vw 2080   1.258   3.998   1.648 -0.2477 -0.0057  0.3084
  521SOL     ow 2081   0.745   1.089   6.416 -0.5114  0.2209  0.0468
  521SOL     hw 2082   0.762   1.120   6.506  1.2365  0.3868 -0.3006
  521SOL     hw 2083   0.777   0.999   6.415 -0.8411  0.1046 -0.3307
  521SOL     vw 2084   0.751   1.082   6.428 -0.3243  0.2275 -0.0486
  522SOL     ow 2085   3.317   3.266   3.692 -0.2385  0.0348 -0.1677
  522SOL     hw 2086   3.371   3.333   3.650 -1.2739  0.8590 -0.2240
  522SOL     hw 2087   3.378   3.215   3.744  0.5402  1.1953  0.0853
  522SOL     vw 2088   3.332   3.268   3.693 -0.2723  0.2968 -0.1416
  523SOL     ow 2089   0.964   2.307   6.396  0.2327 -0.2051 -0.0229
  523SOL     hw 2090   0.989   2.302   6.304 -1.2331 -1.6247 -0.3829
  523SOL     hw 2091   0.928   2.221   6.416 -1.2210  0.6683  1.3547
  523SOL     vw 2092   0.962   2.295   6.387 -0.1525 -0.2773  0.1118
  524SOL     ow 2093   5.248   3.967   2.871  0.0833 -0.4179 -0.7977
  524SOL     hw 2094   5.338   3.939   2.889  1.2853  3.0191 -0.6722
  524SOL     hw 2095   5.206   3.969   2.957 -0.3616 -2.5374 -0.9149
  524SOL     vw 2096   5.254   3.964   2.885  0.1833 -0.2440 -0.7967
  525SOL     ow 2097   3.269   2.788   6.078  0.2090 -0.9551  0.0652
  525SOL     hw 2098   3.328   2.856   6.044  1.7686 -1.6197  1.2892
  525SOL     hw 2099   3.326   2.731   6.129 -1.4988 -1.7517  1.1653
  525SOL     vw 2100   3.285   2.789   6.080  0.1894 -1.1477  0.3722
  526SOL     ow 2101   6.898   0.096   2.636 -1.0353 -0.0793 -0.0367
  526SOL     hw 2102   6.868   0.163   2.697 -1.6354 -2.6215  2.7039
  526SOL     hw 2103   6.969   0.137   2.588 -2.6724  3.1134 -0.0074
  526SOL     vw 2104   6.903   0.110   2.638 -1.3304  0.0065  0.3287
  527SOL     ow 2105   4.257   6.925   5.403  0.0524  0.5922 -0.3443
  527SOL     hw 2106   4.236   6.909   5.495 -0.5607  3.3801  0.1017
  527SOL     hw 2107   4.349   6.952   5.404  0.8654 -1.8711 -0.9798
  527SOL     vw 2108   4.266   6.927   5.416  0.0789  0.6351 -0.3693
  528SOL     ow 2109   5.000   0.078   0.198  0.3319 -0.3442  0.5329
  528SOL     hw 2110   5.040   0.048   0.116 -1.4679 -2.8155  0.4365
  528SOL     hw 2111   5.048   0.032   0.266 -1.1258 -1.9799  0.5168
  528SOL     vw 2112   5.011   0.068   0.196 -0.0978 -0.8860  0.5181
  529SOL     ow 2113   1.588   4.210   4.568 -0.1796  0.7709 -0.9710
  529SOL     hw 2114   1.539   4.150   4.511 -1.3494 -0.7724  1.4750
  529SOL     hw 2115   1.552   4.296   4.548 -0.7251  0.2567 -2.3650
  529SOL     vw 2116   1.577   4.213   4.558 -0.4060  0.4992 -0.8321
  530SOL     ow 2117   2.277   2.285   0.523 -0.5807  0.4566  0.6061
  530SOL     hw 2118   2.266   2.192   0.545 -2.3947  0.6591  0.7253
  530SOL     hw 2119   2.362   2.289   0.480  0.1434 -1.0303  1.8116
  530SOL     vw 2120   2.286   2.273   0.520 -0.7247  0.2872  0.7809
  531SOL     ow 2121   5.052   4.914   6.551  0.6313  0.2338 -0.0130
  531SOL     hw 2122   5.109   4.936   6.477  1.1489 -3.7577 -1.0397
  531SOL     hw 2123   5.108   4.866   6.611 -0.4914  0.8202  1.5630
  531SOL     vw 2124   5.067   4.911   6.549  0.5515 -0.2155  0.0594
  532SOL     ow 2125   1.688   4.899   4.753 -0.2231 -0.0578 -0.0810
  532SOL     hw 2126   1.629   4.848   4.809 -0.2672 -0.4127 -0.4487
  532SOL     hw 2127   1.673   4.990   4.779 -0.3540 -0.2081  0.3783
  532SOL     vw 2128   1.678   4.904   4.764 -0.2461 -0.1245 -0.0691
  533SOL     ow 2129   3.607   3.971   3.049 -0.0521 -0.4173  0.5305
  533SOL     hw 2130   3.619   3.911   3.122 -0.4086  1.1760  1.9842
  533SOL     hw 2131   3.515   3.960   3.023 -0.0606 -0.6398  0.6608
  533SOL     vw 2132   3.596   3.962   3.055 -0.1003 -0.2365  0.7393
  534SOL     ow 2133   4.928   6.138   1.922 -0.2554 -0.5377  0.5356
  534SOL     hw 2134   4.858   6.174   1.976 -0.9750 -1.0795 -0.0320
  534SOL     hw 2135   4.918   6.043   1.928  0.8597 -0.6413  1.0014
  534SOL     vw 2136   4.918   6.131   1.930 -0.2034 -0.6230  0.5222
  535SOL     ow 2137   5.635   3.358   4.038  0.7293 -0.0927  0.2225
  535SOL     hw 2138   5.627   3.296   3.966 -0.3806  0.8022 -0.4473
  535SOL     hw 2139   5.728   3.356   4.061  0.7684 -1.7592  0.0247
  535SOL     vw 2140   5.647   3.350   4.031  0.5879 -0.1945  0.1080
  536SOL     ow 2141   4.726   6.779   1.415  0.1710  0.2066 -0.1818
  536SOL     hw 2142   4.789   6.806   1.349 -2.3813  1.1283 -2.4409
  536SOL     hw 2143   4.702   6.860   1.460  0.8312 -0.1993  0.9380
  536SOL     vw 2144   4.731   6.793   1.412 -0.0784  0.2747 -0.3322
  537SOL     ow 2145   2.553   2.409   3.809 -0.0127  0.2655  0.0270
  537SOL     hw 2146   2.482   2.468   3.785 -2.0733 -2.0283  0.0749
  537SOL     hw 2147   2.623   2.429   3.746 -1.5251  1.1432 -1.4650
  537SOL     vw 2148   2.553   2.419   3.797 -0.4840  0.0787 -0.1636
  538SOL     ow 2149   4.999   2.250   3.610 -0.8079 -0.6638 -0.0040
  538SOL     hw 2150   5.012   2.234   3.517 -0.6827  0.0342 -0.1089
  538SOL     hw 2151   5.073   2.304   3.637 -1.5419  0.2879  0.1936
  538SOL     vw 2152   5.010   2.255   3.602 -0.8883 -0.4461  0.0083
  539SOL     ow 2153   3.269   0.819   5.145  0.5130  0.6328  0.3204
  539SOL     hw 2154   3.257   0.912   5.164  2.9366  1.2689 -0.8494
  539SOL     hw 2155   3.208   0.774   5.204 -0.9611  2.9486  0.6672
  539SOL     vw 2156   3.259   0.825   5.155  0.6382  1.0222  0.2115
  540SOL     ow 2157   1.750   2.672   0.229  0.9819 -0.1753 -0.3189
  540SOL     hw 2158   1.794   2.653   0.311  0.4474 -0.3573 -0.0758
  540SOL     hw 2159   1.821   2.701   0.171  1.5002 -0.9638 -0.0959
  540SOL     vw 2160   1.765   2.674   0.232  0.9798 -0.3034 -0.2574
  541SOL     ow 2161   7.117   6.327   0.943  0.1416 -0.7123 -0.3160
  541SOL     hw 2162   7.074   6.382   1.008 -1.5333  0.4355 -2.2616
  541SOL     hw 2163   7.068   6.246   0.943  0.6639 -1.0413  0.3825
  541SOL     vw 2164   7.105   6.324   0.951 -0.0103 -0.6044 -0.4806
  542SOL     ow 2165   5.534   0.885   5.188 -0.2477 -0.3350  0.6960
  542SOL     hw 2166   5.540   0.790   5.190  3.9407 -0.3469 -1.4537
  542SOL     hw 2167   5.570   0.913   5.273  0.5714 -0.6967  0.4746
  542SOL     vw 2168   5.540   0.876   5.200  0.4129 -0.3843  0.3829
  543SOL     ow 2169   5.737   4.111   6.085 -0.1563  0.1491  0.1773
  543SOL     hw 2170   5.758   4.024   6.053  0.0392 -0.0097  0.7244
  543SOL     hw 2171   5.821   4.148   6.112  0.0084  1.1223 -1.4989
  543SOL     vw 2172   5.751   4.104   6.084 -0.1087  0.2565  0.0286
  544SOL     ow 2173   2.080   4.990   3.651  0.3964 -0.1000  0.6740
  544SOL     hw 2174   2.084   4.927   3.723  0.9443 -0.0283  0.7078
  544SOL     hw 2175   2.144   4.958   3.588  0.6924  0.4337  0.7027
  544SOL     vw 2176   2.089   4.977   3.652  0.5078 -0.0203  0.6825
  545SOL     ow 2177   5.937   3.419   4.044  0.3413 -0.2225 -0.2513
  545SOL     hw 2178   5.967   3.415   3.953 -1.6261 -1.6456 -0.9105
  545SOL     hw 2179   6.009   3.383   4.095  1.6320  0.9547 -1.1664
  545SOL     vw 2180   5.950   3.414   4.039  0.2520 -0.2549 -0.4592
  546SOL     ow 2181   0.019   1.190   4.186 -0.1638  0.3185 -0.3869
  546SOL     hw 2182   0.041   1.156   4.099 -0.6054 -1.3607  0.1334
  546SOL     hw 2183  -0.043   1.261   4.169  0.8655  0.9874 -1.5080
  546SOL     vw 2184   0.014   1.195   4.172 -0.0863  0.1851 -0.4663
  547SOL     ow 2185   3.540   1.254   6.037  1.0983  0.0028 -0.2155
  547SOL     hw 2186   3.547   1.265   5.942 -0.2665 -0.8263 -0.4424
  547SOL     hw 2187   3.554   1.341   6.073 -1.4241  0.9699 -1.3806
  547SOL     vw 2188   3.543   1.267   6.029  0.5854  0.0210 -0.3991
  548SOL     ow 2189   5.921   2.332   5.980 -0.2230  0.1281  0.6048
  548SOL     hw 2190   5.851   2.270   5.962  0.6884 -0.7727  0.0531
  548SOL     hw 2191   5.900   2.369   6.066 -2.3773  1.3204 -0.3639
  548SOL     vw 2192   5.909   2.329   5.989 -0.3870  0.1665  0.4041
  549SOL     ow 2193   5.154   0.209   1.691 -0.1328  0.6375 -0.5425
  549SOL     hw 2194   5.193   0.126   1.665  1.8715  1.8317 -1.6482
  549SOL     hw 2195   5.112   0.242   1.611  0.2609  1.2777 -0.4934
  549SOL     vw 2196   5.154   0.202   1.677  0.1836  0.8795 -0.6819
  550SOL     ow 2197   1.980   4.545   1.714 -0.8969 -0.7005  0.0403
  550SOL     hw 2198   2.022   4.508   1.791  0.8869 -1.7934 -1.3586
  550SOL     hw 2199   2.025   4.504   1.640 -2.7842 -0.0120 -1.6049
  550SOL     vw 2200   1.991   4.534   1.714 -0.9106 -0.7539 -0.3614
  551SOL     ow 2201   5.387   4.015   6.419  0.2441 -0.2539 -0.5893
  551SOL     hw 2202   5.474   4.038   6.388 -0.3401  0.7565 -1.5381
  551SOL     hw 2203   5.352   3.954   6.354 -0.0899  0.0186 -0.6690
  551SOL     vw 2204   5.394   4.010   6.407  0.1228 -0.0846 -0.7250
  552SOL     ow 2205   5.564   4.204   3.604 -0.1430  0.4571  0.2080
  552SOL     hw 2206   5.591   4.160   3.523  0.9830  0.5020  0.5335
  552SOL     hw 2207   5.469   4.212   3.597  0.0070  1.1865 -1.4718
  552SOL     vw 2208   5.555   4.199   3.593  0.0253  0.5589  0.0293
  553SOL     ow 2209   2.859   4.246   6.612  0.8642 -0.0597  0.2231
  553SOL     hw 2210   2.851   4.310   6.682 -0.5181 -2.1777  2.1670
  553SOL     hw 2211   2.870   4.162   6.657  3.2808 -1.2041 -2.1889
  553SOL     vw 2212   2.859   4.243   6.627  1.0008 -0.4902  0.1616
  554SOL     ow 2213   2.994   3.421   4.888  0.1968 -0.6028  0.0079
  554SOL     hw 2214   3.068   3.476   4.912  0.7389 -1.7384  1.0531
  554SOL     hw 2215   2.981   3.437   4.795  0.9751  0.5157  0.0769
  554SOL     vw 2216   3.002   3.430   4.879  0.3709 -0.6050  0.1547
  555SOL     ow 2217   6.764   7.194   4.475 -0.1380  0.6034 -0.2696
  555SOL     hw 2218   6.786   7.274   4.522 -0.7108 -0.1600  1.3990
  555SOL     hw 2219   6.687   7.217   4.422 -0.9203  0.9286  0.9665
  555SOL     vw 2220   6.757   7.207   4.474 -0.3169  0.5455  0.1137
  556SOL     ow 2221   2.310   0.384   1.006 -0.1464  0.0708  0.1413
  556SOL     hw 2222   2.396   0.346   1.021 -0.3332 -0.1176  0.7459
  556SOL     hw 2223   2.255   0.349   1.076 -0.8003 -0.0817 -0.4382
  556SOL     vw 2224   2.314   0.374   1.017 -0.2573  0.0258  0.1447
  557SOL     ow 2225   5.909   0.632   5.635 -0.2299 -0.2440  0.2958
  557SOL     hw 2226   5.924   0.547   5.595 -1.0759 -0.8956  1.3263
  557SOL     hw 2227   5.988   0.682   5.615 -0.0976 -0.9693 -1.0594
  557SOL     vw 2228   5.922   0.628   5.627 -0.3238 -0.4256  0.2530
  558SOL     ow 2229   1.432   7.162   0.639  1.3230 -0.4317 -0.9467
  558SOL     hw 2230   1.416   7.085   0.585  1.7816  0.2913 -2.1555
  558SOL     hw 2231   1.506   7.207   0.597  2.7585 -0.6471  1.1887
  558SOL     vw 2232   1.440   7.158   0.626  1.5728 -0.3645 -0.8244
  559SOL     ow 2233   6.069   6.687   2.313  0.6718 -1.1190 -1.0586
  559SOL     hw 2234   6.059   6.656   2.223 -0.5332 -3.0527 -0.3171
  559SOL     hw 2235   6.118   6.619   2.358 -0.9364 -1.4371  0.3306
  559SOL     vw 2236   6.074   6.674   2.307  0.3009 -1.4162 -0.7774
  560SOL     ow 2237   4.442   3.406   1.773 -0.8519  0.0914  0.1239
  560SOL     hw 2238   4.362   3.370   1.812  0.3537 -3.5465 -0.3541
  560SOL     hw 2239   4.512   3.352   1.809  0.8690  0.0501 -2.9271
  560SOL     vw 2240   4.440   3.394   1.783 -0.4656 -0.3940 -0.3417
  561SOL     ow 2241   4.459   5.863   5.507  0.5122  0.1840  0.6108
  561SOL     hw 2242   4.550   5.834   5.497 -0.0996 -1.3007 -1.2119
  561SOL     hw 2243   4.419   5.798   5.564  0.2917  0.1323  0.3980
  561SOL     vw 2244   4.466   5.851   5.513  0.4022 -0.0186  0.3421
  562SOL     ow 2245   1.458   1.869   1.625  0.7496 -0.3962 -0.0344
  562SOL     hw 2246   1.389   1.909   1.572  1.2587 -0.2689 -0.6211
  562SOL     hw 2247   1.444   1.775   1.617  0.1677 -0.3605  0.5069
  562SOL     vw 2248   1.447   1.862   1.617  0.7400 -0.3747 -0.0404
  563SOL     ow 2249   6.186   0.180   6.782 -0.0383  0.6461 -0.3016
  563SOL     hw 2250   6.234   0.139   6.710  0.4001  1.4922 -0.4970
  563SOL     hw 2251   6.161   0.266   6.749  0.5897  1.2374  0.7095
  563SOL     vw 2252   6.189   0.186   6.768  0.1020  0.8357 -0.1943
  564SOL     ow 2253   3.312   5.908   0.404 -0.3625 -0.4535 -0.3220
  564SOL     hw 2254   3.253   5.934   0.474  0.5035 -1.1499  0.7097
  564SOL     hw 2255   3.257   5.902   0.326 -1.8888 -2.1277  0.8173
  564SOL     vw 2256   3.297   5.910   0.403 -0.4497 -0.7663 -0.0356
  565SOL     ow 2257   2.719   4.709   0.851  0.3670 -0.0178  0.6469
  565SOL     hw 2258   2.631   4.739   0.825  0.5333 -0.3217 -0.2738
  565SOL     hw 2259   2.718   4.716   0.947 -0.1190  1.4983  0.5658
  565SOL     vw 2260   2.707   4.714   0.860  0.3248  0.1421  0.5148
  566SOL     ow 2261   3.087   2.409   4.036  0.4174  0.2366 -0.2827
  566SOL     hw 2262   3.050   2.341   4.092  1.6771 -0.0155  0.2783
  566SOL     hw 2263   3.067   2.491   4.082  0.0251  0.1497 -0.2975
  566SOL     vw 2264   3.080   2.411   4.049  0.5319  0.1919 -0.2108
  567SOL     ow 2265   1.368   5.387   3.298 -1.0320  0.4389 -0.1067
  567SOL     hw 2266   1.339   5.303   3.332  1.5329 -0.4164  0.1245
  567SOL     hw 2267   1.353   5.381   3.203 -3.6317  0.9592  0.1852
  567SOL     vw 2268   1.362   5.375   3.290 -1.0365  0.3948 -0.0377
  568SOL     ow 2269   2.518   1.114   3.576 -0.4068  0.2459 -0.2005
  568SOL     hw 2270   2.467   1.194   3.566 -0.5667  0.2772  0.7137
  568SOL     hw 2271   2.561   1.124   3.661 -2.2234 -1.5962  1.0365
  568SOL     vw 2272   2.517   1.126   3.586 -0.6675  0.0070  0.0833
  569SOL     ow 2273   6.317   1.529   2.935  0.2639  0.9071  0.5197
  569SOL     hw 2274   6.393   1.517   2.879  0.1852 -2.2840  0.9074
  569SOL     hw 2275   6.315   1.623   2.953  2.2017  1.5572 -2.0660
  569SOL     vw 2276   6.327   1.540   2.930  0.5095  0.5719  0.2297
  570SOL     ow 2277   0.896   4.808   2.952  0.1066  0.5385  0.3172
  570SOL     hw 2278   0.959   4.836   2.886  1.0712 -0.7919  0.6361
  570SOL     hw 2279   0.817   4.788   2.903  1.1055 -1.3790 -0.6245
  570SOL     vw 2280   0.894   4.809   2.937  0.3656  0.1101  0.2350
  571SOL     ow 2281   3.181   2.658   2.069  0.7812 -0.4022  0.5152
  571SOL     hw 2282   3.268   2.659   2.030  0.4674 -0.1385 -0.2050
  571SOL     hw 2283   3.167   2.567   2.095  1.3006 -0.4282  0.6960
  571SOL     vw 2284   3.190   2.646   2.067  0.8084 -0.3710  0.4441
  572SOL     ow 2285   6.280   5.502   0.945 -0.4588 -0.1463 -0.8390
  572SOL     hw 2286   6.292   5.561   0.871 -1.8907 -0.1441 -1.1001
  572SOL     hw 2287   6.196   5.527   0.982 -0.8543 -1.6663 -0.6252
  572SOL     vw 2288   6.271   5.513   0.940 -0.6995 -0.3464 -0.8453
  573SOL     ow 2289   5.731   4.411   6.136  0.2093 -0.2135  0.3917
  573SOL     hw 2290   5.694   4.475   6.196  0.3724  0.8762 -0.6180
  573SOL     hw 2291   5.815   4.386   6.175 -0.5785 -1.0622  1.6048
  573SOL     vw 2292   5.737   4.416   6.149  0.1268 -0.1817  0.4187
  574SOL     ow 2293   5.782   6.479   0.882  0.1762 -0.3621  0.2022
  574SOL     hw 2294   5.871   6.486   0.848  0.1752  0.6081  0.3535
  574SOL     hw 2295   5.740   6.561   0.854 -0.6369 -0.7680  0.2170
  574SOL     vw 2296   5.788   6.491   0.874  0.0687 -0.2875  0.2241
  575SOL     ow 2297   4.437   6.791   1.253  0.0208 -0.0498  0.2523
  575SOL     hw 2298   4.359   6.841   1.278  0.3253 -0.0065  1.1254
  575SOL     hw 2299   4.472   6.838   1.177 -0.0314  0.7201  0.6937
  575SOL     vw 2300   4.431   6.804   1.246  0.0541  0.0575  0.4257
  576SOL     ow 2301   0.146   2.781   4.847 -0.6186 -0.1251 -0.2643
  576SOL     hw 2302   0.200   2.702   4.844 -0.4717 -0.0284 -0.1850
  576SOL     hw 2303   0.096   2.779   4.766  0.0256  0.1497 -0.6790
  576SOL     vw 2304   0.147   2.770   4.836 -0.5143 -0.0761 -0.3085
  577SOL     ow 2305   4.660   5.487   6.244  0.8361  1.0363  0.1767
  577SOL     hw 2306   4.590   5.551   6.237 -0.9663 -0.9465 -1.5467
  577SOL     hw 2307   4.714   5.501   6.167 -0.5757 -0.5017 -1.1812
  577SOL     vw 2308   4.658   5.497   6.233  0.4120  0.5717 -0.2298
  578SOL     ow 2309   3.846   2.576   1.257 -0.1327  0.8348  0.6630
  578SOL     hw 2310   3.864   2.664   1.223  1.0542 -0.3206 -2.0676
  578SOL     hw 2311   3.884   2.518   1.191 -0.6850 -1.7375  2.4890
  578SOL     vw 2312   3.853   2.580   1.244 -0.0491  0.3430  0.5436
  579SOL     ow 2313   4.236   5.142   1.970 -0.3305  0.4578  0.2209
  579SOL     hw 2314   4.303   5.081   1.941 -0.1333  0.8281 -0.1228
  579SOL     hw 2315   4.154   5.094   1.963 -0.1242  0.0763  0.4261
  579SOL     vw 2316   4.234   5.128   1.965 -0.2773  0.4566  0.2026
  580SOL     ow 2317   1.652   4.275   7.155 -0.0292  0.3604  0.0676
  580SOL     hw 2318   1.576   4.328   7.178 -0.8831 -0.9845  0.4695
  580SOL     hw 2319   1.702   4.268   7.237 -0.1436  0.1877  0.1230
  580SOL     vw 2320   1.649   4.281   7.169 -0.1570  0.1602  0.1278
  581SOL     ow 2321   6.192   6.669   6.265  0.5077 -0.5134  0.7884
  581SOL     hw 2322   6.125   6.737   6.267 -0.4998 -1.3749 -1.0505
  581SOL     hw 2323   6.159   6.605   6.203  1.9590 -2.1494  1.6205
  581SOL     vw 2324   6.179   6.669   6.257  0.5665 -0.8430  0.6559
  582SOL     ow 2325   0.959   3.573   1.005 -0.6827 -0.1085  0.5937
  582SOL     hw 2326   0.998   3.488   1.023 -0.0279 -0.2164 -1.1755
  582SOL     hw 2327   0.871   3.568   1.044 -0.4187 -1.3415  1.0655
  582SOL     vw 2328   0.952   3.561   1.013 -0.5615 -0.2855  0.4225
  583SOL     ow 2329   3.999   5.527   4.431  0.0598  0.1803 -0.1070
  583SOL     hw 2330   3.917   5.543   4.478 -0.9437 -2.8869 -0.5890
  583SOL     hw 2331   3.973   5.519   4.339  1.0097 -0.2798 -0.3483
  583SOL     vw 2332   3.985   5.528   4.425  0.0527 -0.2851 -0.2024
  584SOL     ow 2333   3.000   2.893   4.585  0.3183  0.7794  0.0110
  584SOL     hw 2334   2.966   2.831   4.521  1.0815 -0.8952  1.1571
  584SOL     hw 2335   3.095   2.886   4.577  0.4284  0.3947  1.4387
  584SOL     vw 2336   3.008   2.884   4.576  0.4336  0.5077  0.3507
  585SOL     ow 2337   4.985   2.634   5.859  0.0684  0.1806 -0.1068
  585SOL     hw 2338   4.988   2.539   5.847 -1.2992  0.0495  0.4290
  585SOL     hw 2339   5.067   2.654   5.904  0.7571 -0.6208 -0.9494
  585SOL     vw 2340   4.996   2.624   5.864 -0.0210  0.0576 -0.1473
  586SOL     ow 2341   1.503   5.725   2.199 -0.0032 -0.3910  0.0831
  586SOL     hw 2342   1.475   5.795   2.258  1.6074  0.1962  0.1969
  586SOL     hw 2343   1.547   5.662   2.256 -2.8981 -2.4397  0.2719
  586SOL     vw 2344   1.505   5.726   2.215 -0.1727 -0.5839  0.1230
  587SOL     ow 2345   5.062   1.864   0.984  0.0381 -0.1980 -0.0320
  587SOL     hw 2346   5.020   1.857   1.070  1.0010  1.0959  0.5691
  587SOL     hw 2347   5.148   1.826   0.996  0.4329  0.6120 -0.2312
  587SOL     vw 2348   5.068   1.858   0.997  0.2174  0.0795  0.0211
  588SOL     ow 2349   1.778   5.959   1.680 -0.0777  0.9796  0.0917
  588SOL     hw 2350   1.841   5.906   1.631 -1.9143 -0.2078 -1.1333
  588SOL     hw 2351   1.738   5.897   1.741  1.7075  2.2937  2.7837
  588SOL     vw 2352   1.781   5.944   1.682 -0.0845  0.9961  0.2853
  589SOL     ow 2353   6.547   1.760   1.016 -0.2349  0.8699  0.7336
  589SOL     hw 2354   6.534   1.813   0.937 -1.2176  1.3045  1.1716
  589SOL     hw 2355   6.635   1.725   1.006 -0.6996  0.0790 -1.0617
  589SOL     vw 2356   6.557   1.763   1.004 -0.4261  0.8229  0.5545
  590SOL     ow 2357   4.455   5.255   4.223 -0.0136  0.1617  0.2716
  590SOL     hw 2358   4.493   5.222   4.305 -0.8822 -0.1784  0.5515
  590SOL     hw 2359   4.421   5.341   4.246 -0.3312  0.0313  0.2928
  590SOL     vw 2360   4.456   5.262   4.237 -0.1698  0.0997  0.3114
  591SOL     ow 2361   2.894   0.673   0.669  0.2783 -0.0355 -0.1686
  591SOL     hw 2362   2.864   0.605   0.729 -0.8656 -0.3984 -1.1266
  591SOL     hw 2363   2.821   0.687   0.609  1.1659  0.7513 -1.1105
  591SOL     vw 2364   2.880   0.666   0.669  0.2445  0.0204 -0.4193
  592SOL     ow 2365   2.304   0.999   5.526 -1.4257 -0.3512  0.1647
  592SOL     hw 2366   2.292   0.934   5.457 -1.2818  0.3395 -0.5256
  592SOL     hw 2367   2.360   1.066   5.487 -3.1405  1.1620  0.1830
  592SOL     vw 2368   2.310   0.999   5.512 -1.6329 -0.0604  0.0761
  593SOL     ow 2369   1.418   5.998   4.262  0.1233 -0.2736  0.0886
  593SOL     hw 2370   1.492   6.054   4.238  0.8553 -0.5940  1.4793
  593SOL     hw 2371   1.453   5.909   4.257 -0.4072 -0.4843  0.0005
  593SOL     vw 2372   1.432   5.994   4.258  0.1498 -0.3436  0.2606
  594SOL     ow 2373   6.446   1.206   1.108 -0.3429  0.8798 -0.6069
  594SOL     hw 2374   6.411   1.178   1.023 -0.4066  3.4237 -1.5061
  594SOL     hw 2375   6.539   1.219   1.093  0.4510 -2.2314  0.7972
  594SOL     vw 2376   6.454   1.204   1.095 -0.2465  0.8050 -0.5402
  595SOL     ow 2377   5.723   4.327   5.838 -0.3444  0.5470 -0.3410
  595SOL     hw 2378   5.796   4.265   5.847  0.5940  1.7944  1.0724
  595SOL     hw 2379   5.661   4.282   5.781 -0.5427 -2.5017  2.0285
  595SOL     vw 2380   5.724   4.313   5.831 -0.2468  0.3095  0.1583
  596SOL     ow 2381   5.396   1.867   6.322  0.5160  0.1485  0.3278
  596SOL     hw 2382   5.357   1.873   6.235 -0.1830 -0.2503  0.6075
  596SOL     hw 2383   5.365   1.783   6.357 -2.4152  1.9644  2.4984
  596SOL     vw 2384   5.387   1.857   6.315  0.0367  0.3355  0.6511
  597SOL     ow 2385   0.563   6.483   2.818  0.5675  0.6457 -1.0061
  597SOL     hw 2386   0.468   6.472   2.812  0.2648  0.8732  1.8893
  597SOL     hw 2387   0.577   6.577   2.821  0.9953  0.6381 -2.3123
  597SOL     vw 2388   0.552   6.494   2.818  0.5840  0.6747 -0.7966
  598SOL     ow 2389   2.728   6.007   1.383 -0.5263 -0.2632 -0.0222
  598SOL     hw 2390   2.820   5.995   1.407 -0.9337 -0.0360  1.8417
  598SOL     hw 2391   2.711   6.100   1.399 -1.7036 -0.7957  2.2051
  598SOL     vw 2392   2.738   6.018   1.388 -0.7354 -0.3033  0.5176
  599SOL     ow 2393   2.772   3.282   1.379  0.0848  0.6011 -0.0000
  599SOL     hw 2394   2.828   3.231   1.437  0.9373  1.3386 -0.1547
  599SOL     hw 2395   2.820   3.288   1.297 -0.8414  0.0816 -0.6071
  599SOL     vw 2396   2.785   3.276   1.376  0.0751  0.6298 -0.1006
  600SOL     ow 2397   0.697   6.173   4.230 -0.8514  0.1174  0.6645
  600SOL     hw 2398   0.669   6.223   4.153 -1.7401  1.8892  2.0629
  600SOL     hw 2399   0.628   6.108   4.242 -0.0998 -0.9985 -0.6897
  600SOL     vw 2400   0.684   6.171   4.221 -0.8695  0.2041  0.6704
  601SOL     ow 2401   0.995   3.074   1.864 -0.0693 -0.6349 -0.6172
  601SOL     hw 2402   1.011   2.990   1.908 -0.0203 -0.0093  0.5967
  601SOL     hw 2403   1.079   3.120   1.870 -0.3328 -0.1669 -0.5479
  601SOL     vw 2404   1.008   3.069   1.870 -0.0976 -0.4907 -0.4479
  602SOL     ow 2405   3.953   1.156   5.918 -0.7099  0.4378 -0.1577
  602SOL     hw 2406   3.934   1.250   5.917 -1.2495  0.3300 -0.0412
  602SOL     hw 2407   3.953   1.131   5.826  2.2007  1.0893 -0.4393
  602SOL     vw 2408   3.951   1.165   5.906 -0.3970  0.5094 -0.1798
  603SOL     ow 2409   4.221   1.509   5.564 -0.8055 -0.4866 -0.0391
  603SOL     hw 2410   4.245   1.442   5.500  2.4324 -0.9703  1.4918
  603SOL     hw 2411   4.161   1.465   5.624 -1.7543 -0.8107 -1.1993
  603SOL     vw 2412   4.216   1.494   5.563 -0.5035 -0.5932  0.0095
  604SOL     ow 2413   7.103   5.898   5.228 -0.5683 -0.0061 -0.5756
  604SOL     hw 2414   7.084   5.988   5.202  2.3096  0.7451 -0.3700
  604SOL     hw 2415   7.135   5.905   5.318  1.7960 -0.8809 -1.2772
  604SOL     vw 2416   7.104   5.911   5.237  0.1235 -0.0222 -0.6411
  605SOL     ow 2417   0.957   6.076   0.793  0.2850  0.1256 -0.0805
  605SOL     hw 2418   0.889   6.069   0.726  1.3825  2.3924 -1.6022
  605SOL     hw 2419   1.006   6.155   0.768  2.5926 -0.6167  1.7342
  605SOL     vw 2420   0.955   6.086   0.781  0.7342  0.3266 -0.0418
  606SOL     ow 2421   3.868   6.945   7.198 -0.0583  0.4218  0.2142
  606SOL     hw 2422   3.799   6.891   7.159  0.5299  0.2792 -0.6757
  606SOL     hw 2423   3.855   7.032   7.161 -0.5191  0.7087  1.0296
  606SOL     vw 2424   3.857   6.949   7.188 -0.0416  0.4411  0.2044
  607SOL     ow 2425   6.297   2.358   6.050 -0.3014  0.5428  0.5370
  607SOL     hw 2426   6.305   2.307   5.970 -0.1910  0.7439  0.4187
  607SOL     hw 2427   6.225   2.317   6.098  0.5175 -0.4446  0.9741
  607SOL     vw 2428   6.289   2.346   6.046 -0.1791  0.4392  0.5791
  608SOL     ow 2429   2.600   4.329   1.996  0.2201  0.0898 -0.3810
  608SOL     hw 2430   2.509   4.356   2.005  0.3874  0.6319 -0.2840
  608SOL     hw 2431   2.638   4.342   2.083  0.1887 -0.9235 -0.2041
  608SOL     vw 2432   2.593   4.335   2.008  0.2379  0.0277 -0.3449
  609SOL     ow 2433   6.596   6.130   0.412  0.2527  0.0794 -0.4206
  609SOL     hw 2434   6.521   6.084   0.450  0.4892  0.2911  0.3130
  609SOL     hw 2435   6.666   6.118   0.476  0.8845 -0.2215 -1.1586
  609SOL     vw 2436   6.595   6.122   0.425  0.3672  0.0675 -0.4212
  610SOL     ow 2437   2.009   6.538   7.129  0.0964 -0.0605 -0.3693
  610SOL     hw 2438   2.051   6.622   7.107  1.0517 -0.3188  0.3792
  610SOL     hw 2439   1.919   6.562   7.151  0.8135  1.0576  1.6077
  610SOL     vw 2440   2.003   6.553   7.129  0.3171  0.0529 -0.0098
  611SOL     ow 2441   4.868   5.052   5.684  0.0286  0.0952 -0.6386
  611SOL     hw 2442   4.785   5.041   5.637 -0.5762 -0.7845  0.5784
  611SOL     hw 2443   4.857   5.001   5.765  1.0866  1.3905  0.3785
  611SOL     vw 2444   4.855   5.044   5.689  0.0882  0.1500 -0.3440
  612SOL     ow 2445   3.051   5.286   6.396  0.5256  0.2216 -0.6942
  612SOL     hw 2446   3.122   5.257   6.339 -0.0799 -1.1235 -0.8216
  612SOL     hw 2447   3.083   5.271   6.485  0.1138 -1.2139 -0.7605
  612SOL     vw 2448   3.064   5.280   6.400  0.3912 -0.1452 -0.7198
  613SOL     ow 2449   0.060   6.192   4.246  0.0730  0.2197  0.1597
  613SOL     hw 2450   0.058   6.169   4.153 -3.2401  1.5213 -0.2335
  613SOL     hw 2451   0.087   6.284   4.247 -0.9642  0.5318  0.3517
  613SOL     vw 2452   0.064   6.201   4.234 -0.5010  0.4325  0.1333
  614SOL     ow 2453   0.752   0.018   2.899 -0.5162 -0.4324  0.2951
  614SOL     hw 2454   0.678   0.028   2.840  0.1462 -1.2015 -0.7088
  614SOL     hw 2455   0.745   0.091   2.960 -1.9032 -0.3120  0.0141
  614SOL     vw 2456   0.742   0.029   2.899 -0.6118 -0.5180  0.1255
  615SOL     ow 2457   7.036   6.766   5.185  0.0488 -0.3773  0.2186
  615SOL     hw 2458   7.057   6.766   5.092  0.2653  1.5759  0.2209
  615SOL     hw 2459   7.082   6.690   5.220  0.5639 -0.7200 -1.1422
  615SOL     vw 2460   7.045   6.756   5.178  0.1454 -0.1647  0.0393
  616SOL     ow 2461   1.373   0.854   2.842 -0.2223 -0.9041  0.0760
  616SOL     hw 2462   1.348   0.826   2.754 -1.5320 -0.2627  0.2291
  616SOL     hw 2463   1.309   0.812   2.900  1.0672 -1.9177  0.8122
  616SOL     vw 2464   1.361   0.845   2.838 -0.2249 -0.9532  0.1932
  617SOL     ow 2465   4.188   2.304   6.033  0.5818 -0.3824 -0.5471
  617SOL     hw 2466   4.232   2.248   6.097  0.8729 -1.3050 -1.5215
  617SOL     hw 2467   4.193   2.255   5.951  0.4082  0.8583 -1.3265
  617SOL     vw 2468   4.195   2.290   6.031  0.5972 -0.3403 -0.7784
  618SOL     ow 2469   2.100   4.732   5.115 -0.2499  0.4179 -0.4119
  618SOL     hw 2470   2.089   4.640   5.137 -1.4266  0.7907  0.6853
  618SOL     hw 2471   2.160   4.732   5.040 -3.4754 -1.5377 -3.2733
  618SOL     vw 2472   2.107   4.720   5.108 -0.8307  0.2091 -0.6444
  619SOL     ow 2473   4.729   3.281   1.842  0.0752 -0.2471  0.8222
  619SOL     hw 2474   4.706   3.188   1.833  0.5872 -0.1989 -1.6859
  619SOL     hw 2475   4.737   3.313   1.752 -2.0333  2.7589  1.5414
  619SOL     vw 2476   4.727   3.273   1.829 -0.1354  0.1558  0.5862
  620SOL     ow 2477   6.492   1.550   3.687 -0.2096  0.2677 -0.1424
  620SOL     hw 2478   6.464   1.494   3.759 -0.9498  2.1475  1.1033
  620SOL     hw 2479   6.588   1.544   3.689 -0.2720 -1.0624 -0.1705
  620SOL     vw 2480   6.501   1.541   3.697 -0.3154  0.3402  0.0184
  621SOL     ow 2481   4.460   0.777   6.956 -0.5869 -0.0366 -0.5087
  621SOL     hw 2482   4.498   0.720   6.890 -0.7099  0.4377 -1.0011
  621SOL     hw 2483   4.375   0.738   6.976  0.3340 -1.3828  0.9669
  621SOL     vw 2484   4.453   0.765   6.950 -0.4818 -0.1517 -0.3793
  622SOL     ow 2485   4.889   0.077   3.989 -0.2940  0.3957 -0.4355
  622SOL     hw 2486   4.889  -0.018   3.979  0.7797  0.0543  2.0640
  622SOL     hw 2487   4.811   0.096   4.042  1.2702  0.4355  1.9860
  622SOL     vw 2488   4.879   0.067   3.995  0.0541  0.3559  0.2139
  623SOL     ow 2489   6.152   5.258   4.112 -0.1526 -0.0907  0.0632
  623SOL     hw 2490   6.227   5.317   4.110 -2.2167  2.7415 -1.1564
  623SOL     hw 2491   6.142   5.228   4.022  1.1279 -2.9000  0.7252
  623SOL     vw 2492   6.161   5.261   4.100 -0.2558 -0.0877 -0.0105
  624SOL     ow 2493   6.524   1.517   4.792  0.6610  0.1411  0.4484
  624SOL     hw 2494   6.487   1.483   4.711  0.0066 -0.3606  0.9427
  624SOL     hw 2495   6.448   1.534   4.848  1.1119  0.2403  1.0460
  624SOL     vw 2496   6.509   1.514   4.789  0.6342  0.0881  0.5925
  625SOL     ow 2497   6.062   6.059   5.883  0.0188  0.3204  0.3786
  625SOL     hw 2498   6.058   6.154   5.874  0.9556  0.3538  0.2481
  625SOL     hw 2499   5.976   6.028   5.853  0.2761  1.0060 -1.1457
  625SOL     vw 2500   6.050   6.067   5.878  0.1762  0.4151  0.1602
  626SOL     ow 2501   1.920   3.481   5.544 -0.0071 -0.4398 -0.0433
  626SOL     hw 2502   1.856   3.515   5.607  0.4191 -2.8102  1.8192
  626SOL     hw 2503   1.997   3.536   5.555 -0.9490  1.1313 -0.8291
  626SOL     vw 2504   1.922   3.493   5.554 -0.0751 -0.5454  0.0985
  627SOL     ow 2505   2.891   3.979   3.819 -0.3927 -0.2803 -0.0802
  627SOL     hw 2506   2.804   3.956   3.851 -0.5634 -0.5841 -0.7411
  627SOL     hw 2507   2.949   3.966   3.893 -0.8803 -0.2822  0.3042
  627SOL     vw 2508   2.887   3.975   3.833 -0.4795 -0.3207 -0.1167
  628SOL     ow 2509   3.767   6.211   2.463 -0.3066 -0.0051 -0.3974
  628SOL     hw 2510   3.850   6.190   2.420 -0.7602 -2.3714 -0.2812
  628SOL     hw 2511   3.782   6.294   2.507  1.5029  0.3785 -1.6346
  628SOL     vw 2512   3.780   6.219   2.463 -0.1278 -0.2666 -0.5453
  629SOL     ow 2513   6.209   5.391   5.647  0.1993  0.3995 -0.4985
  629SOL     hw 2514   6.262   5.469   5.632  1.4171  0.5196  3.3731
  629SOL     hw 2515   6.126   5.425   5.681  0.1611  0.0395 -0.2329
  629SOL     vw 2516   6.205   5.406   5.650  0.3548  0.3679  0.0472
  630SOL     ow 2517   1.589   5.609   5.006 -0.3505 -1.1197  0.0266
  630SOL     hw 2518   1.650   5.653   4.947 -0.5798 -0.0961  0.5324
  630SOL     hw 2519   1.502   5.637   4.976 -0.4794 -0.7960  0.6700
  630SOL     vw 2520   1.585   5.619   4.994 -0.3978 -0.9422  0.1783
  631SOL     ow 2521   4.091   6.741   2.967  0.0047  0.1150 -0.1118
  631SOL     hw 2522   4.001   6.763   2.989 -0.0078 -1.7048  1.9983
  631SOL     hw 2523   4.114   6.669   3.026  3.2919  1.4104  0.4350
  631SOL     vw 2524   4.082   6.735   2.978  0.4368  0.0458  0.2389
  632SOL     ow 2525   1.591   4.017   4.849 -0.3027 -0.0792  0.4555
  632SOL     hw 2526   1.673   4.002   4.897 -0.1268 -0.0617  0.1622
  632SOL     hw 2527   1.615   4.007   4.757 -0.2919  1.5113  0.2682
  632SOL     vw 2528   1.605   4.014   4.843 -0.2780  0.1328  0.3920
  633SOL     ow 2529   6.209   3.974   0.060 -0.1247  0.2257  0.1723
  633SOL     hw 2530   6.123   4.016   0.068  0.0410  0.7341 -0.6085
  633SOL     hw 2531   6.242   3.969   0.149 -0.9209  0.1284  0.4657
  633SOL     vw 2532   6.202   3.979   0.072 -0.2079  0.2800  0.1080
  634SOL     ow 2533   1.473   4.186   3.206  0.0076 -0.3139  0.2357
  634SOL     hw 2534   1.380   4.164   3.202 -0.6387  1.6566  2.2595
  634SOL     hw 2535   1.479   4.273   3.165  0.7961 -0.0691  0.8468
  634SOL     vw 2536   1.462   4.195   3.200  0.0263 -0.0217  0.5832
  635SOL     ow 2537   4.564   6.455   2.383  0.9974  0.6431 -0.5483
  635SOL     hw 2538   4.656   6.462   2.360  0.8715  0.7814 -1.0163
  635SOL     hw 2539   4.540   6.543   2.413  1.5463  0.1197  1.6251
  635SOL     vw 2540   4.573   6.468   2.384  1.0533  0.5925 -0.3233
  636SOL     ow 2541   4.775   1.649   3.792 -0.1659  0.5894  0.3941
  636SOL     hw 2542   4.724   1.573   3.767 -0.1596  1.2195 -1.7944
  636SOL     hw 2543   4.727   1.723   3.755  1.4514  1.3291 -0.3394
  636SOL     vw 2544   4.762   1.649   3.784  0.0484  0.7702  0.0086
  637SOL     ow 2545   1.774   0.094   4.684  0.4509  0.0002  0.1709
  637SOL     hw 2546   1.840   0.082   4.752  0.0255  0.0544  0.5936
  637SOL     hw 2547   1.795   0.026   4.619  1.2592  0.3769  0.0314
  637SOL     vw 2548   1.786   0.083   4.684  0.5014  0.0570  0.2084
  638SOL     ow 2549   4.993   2.764   3.369 -0.8904 -0.6094 -0.2722
  638SOL     hw 2550   5.058   2.731   3.307  0.7083  1.9423 -0.0798
  638SOL     hw 2551   4.914   2.775   3.316 -0.4487 -1.3029 -1.1189
  638SOL     vw 2552   4.991   2.761   3.354 -0.6213 -0.3642 -0.3585
  639SOL     ow 2553   0.317   4.940   5.133 -0.2355  0.0782  0.3795
  639SOL     hw 2554   0.365   4.857   5.141 -0.4120 -0.1079 -0.3534
  639SOL     hw 2555   0.282   4.938   5.044 -1.0175  0.5313  0.6703
  639SOL     vw 2556   0.319   4.929   5.122 -0.3619  0.1135  0.3211
  640SOL     ow 2557   3.739   6.978   0.948 -0.0408 -0.6138  0.1526
  640SOL     hw 2558   3.780   7.064   0.959  0.8746 -1.1246  0.8155
  640SOL     hw 2559   3.811   6.919   0.928 -0.6602 -1.2460 -0.2588
  640SOL     vw 2560   3.754   6.981   0.947 -0.0018 -0.7648  0.1858
  641SOL     ow 2561   0.017   6.042   2.272  0.3673 -0.4143 -0.1263
  641SOL     hw 2562   0.035   5.962   2.223 -2.3398 -0.8552 -0.5763
  641SOL     hw 2563  -0.005   6.012   2.360 -0.2777 -0.1603 -0.1920
  641SOL     vw 2564   0.016   6.028   2.277 -0.0750 -0.4389 -0.1944
  642SOL     ow 2565   1.630   5.162   4.877  0.2684 -0.0529 -0.0429
  642SOL     hw 2566   1.555   5.172   4.936 -0.3495 -0.6047 -0.7263
  642SOL     hw 2567   1.598   5.192   4.792  0.3264 -1.7796 -0.7055
  642SOL     vw 2568   1.616   5.168   4.874  0.1944 -0.3536 -0.2205
  643SOL     ow 2569   6.666   6.691   6.241 -0.7657  0.3699 -0.2354
  643SOL     hw 2570   6.652   6.606   6.200  1.9582  0.6318 -1.9353
  643SOL     hw 2571   6.741   6.677   6.299  0.9030  1.9300 -1.8902
  643SOL     vw 2572   6.674   6.678   6.244 -0.1860  0.6101 -0.6781
  644SOL     ow 2573   4.481   6.942   3.646  0.1725  0.4821  0.0570
  644SOL     hw 2574   4.454   7.027   3.611  1.3983  0.6443 -0.5689
  644SOL     hw 2575   4.566   6.959   3.687 -0.2096 -0.1723  1.1899
  644SOL     vw 2576   4.489   6.956   3.647  0.2837  0.4172  0.1240
  645SOL     ow 2577   6.366   7.121   1.248 -0.2214  0.1817  0.5543
  645SOL     hw 2578   6.279   7.087   1.228 -0.4485  0.3946  1.1631
  645SOL     hw 2579   6.401   7.148   1.164 -1.0632  0.8472  0.4036
  645SOL     vw 2580   6.359   7.120   1.234 -0.3624  0.2978  0.6148
  646SOL     ow 2581   3.535   0.874   2.006  0.3693 -0.1854  0.1366
  646SOL     hw 2582   3.603   0.896   2.069  1.6690  1.4572 -1.7163
  646SOL     hw 2583   3.577   0.813   1.945 -0.3884 -0.6157  0.0400
  646SOL     vw 2584   3.550   0.869   2.006  0.4408 -0.0255 -0.1208
  647SOL     ow 2585   2.093   2.729   1.741 -0.4148  0.1314  0.4154
  647SOL     hw 2586   2.172   2.703   1.788 -1.4174 -0.9835  1.5737
  647SOL     hw 2587   2.065   2.650   1.695 -0.6133  0.6442 -0.3740
  647SOL     vw 2588   2.100   2.715   1.741 -0.5734  0.0520  0.4641
  648SOL     ow 2589   1.759   3.321   0.028  0.0853 -0.3399  0.3135
  648SOL     hw 2590   1.689   3.383   0.011 -1.4977 -2.9385 -4.7960
  648SOL     hw 2591   1.727   3.268   0.100 -2.2530 -0.0624 -0.4276
  648SOL     vw 2592   1.746   3.322   0.035 -0.4320 -0.6461 -0.4584
  649SOL     ow 2593   4.305   4.611   5.330 -0.3271 -0.6003 -0.2954
  649SOL     hw 2594   4.225   4.559   5.324 -0.9232  0.2436  0.0796
  649SOL     hw 2595   4.286   4.676   5.398  0.7131 -0.4488 -0.1421
  649SOL     vw 2596   4.292   4.613   5.338 -0.2685 -0.4690 -0.2255
  650SOL     ow 2597   5.389   2.706   0.848  0.7603  0.1237  0.1870
  650SOL     hw 2598   5.328   2.779   0.863  1.1881  0.9936 -1.9578
  650SOL     hw 2599   5.336   2.641   0.801  1.4347  0.9001 -1.7215
  650SOL     vw 2600   5.374   2.707   0.844  0.9055  0.3408 -0.3478
  651SOL     ow 2601   1.341   2.083   4.302  0.3029 -0.0337 -0.4475
  651SOL     hw 2602   1.423   2.041   4.274  0.3768  0.1319 -0.4804
  651SOL     hw 2603   1.277   2.057   4.237  0.2208 -0.5447 -0.1690
  651SOL     vw 2604   1.344   2.074   4.290  0.3018 -0.0793 -0.4153
  652SOL     ow 2605   2.083   1.592   1.303 -0.3880  0.4748  0.2095
  652SOL     hw 2606   2.053   1.647   1.375 -0.7124  0.4735  0.0785
  652SOL     hw 2607   2.060   1.641   1.224  0.4294  0.7084  0.1145
  652SOL     vw 2608   2.076   1.605   1.302 -0.3229  0.5055  0.1797
  653SOL     ow 2609   4.223   2.356   3.673  0.7287 -0.3339 -0.0549
  653SOL     hw 2610   4.131   2.366   3.650  0.9359 -0.3464 -0.9511
  653SOL     hw 2611   4.238   2.261   3.671  0.7998 -0.3220 -0.0861
  653SOL     vw 2612   4.213   2.345   3.669  0.7653 -0.3339 -0.1773
  654SOL     ow 2613   4.155   5.200   6.015 -0.3712  0.2480  0.7898
  654SOL     hw 2614   4.169   5.293   6.034 -0.9190  0.4174  0.3889
  654SOL     hw 2615   4.214   5.182   5.941 -0.6249  0.4003  0.5499
  654SOL     vw 2616   4.165   5.210   6.008 -0.4771  0.2904  0.7050
  655SOL     ow 2617   5.161   1.312   5.052  0.4784 -0.5584  0.4836
  655SOL     hw 2618   5.241   1.361   5.037  0.2757  0.4619  2.3723
  655SOL     hw 2619   5.153   1.308   5.147 -1.5466 -0.9060  0.3488
  655SOL     vw 2620   5.171   1.318   5.063  0.1848 -0.4696  0.7150
  656SOL     ow 2621   6.675   0.716   6.084  0.0325 -0.1873  0.0512
  656SOL     hw 2622   6.623   0.791   6.052  1.6729  0.8567 -0.2631
  656SOL     hw 2623   6.739   0.755   6.142  1.6712 -1.1858 -1.0161
  656SOL     vw 2624   6.676   0.731   6.087  0.4652 -0.1813 -0.1311
  657SOL     ow 2625   5.795   6.754   2.323  0.4026  0.7021  0.2616
  657SOL     hw 2626   5.718   6.740   2.379  1.0115 -0.1077  0.9353
  657SOL     hw 2627   5.763   6.739   2.234 -0.4569  1.4236  0.4342
  657SOL     vw 2628   5.780   6.750   2.319  0.3695  0.6905  0.3731
  658SOL     ow 2629   3.652   3.595   6.015 -0.5386 -0.1611 -0.2762
  658SOL     hw 2630   3.709   3.642   5.955  1.6237  1.8989  3.0661
  658SOL     hw 2631   3.663   3.503   5.992  1.7085  0.3954 -1.7220
  658SOL     vw 2632   3.661   3.589   6.004  0.0432  0.1841 -0.0262
  659SOL     ow 2633   1.800   5.970   2.071 -0.1251 -0.5165  0.4731
  659SOL     hw 2634   1.739   5.982   2.144  0.9218 -1.2816  1.5028
  659SOL     hw 2635   1.805   5.875   2.059 -0.4150 -0.4016 -0.7347
  659SOL     vw 2636   1.793   5.959   2.079 -0.0252 -0.6025  0.4497
  660SOL     ow 2637   0.454   5.610   3.786  0.5022  0.5968 -1.1769
  660SOL     hw 2638   0.496   5.688   3.751  0.7519  1.6362  1.2053
  660SOL     hw 2639   0.455   5.623   3.881 -0.9640 -1.5466 -0.7874
  660SOL     vw 2640   0.460   5.622   3.794  0.3417  0.4511 -0.8111
  661SOL     ow 2641   2.827   6.842   2.867  0.0812 -0.2282 -0.6104
  661SOL     hw 2642   2.801   6.899   2.938  0.5078 -0.4073 -0.3066
  661SOL     hw 2643   2.815   6.895   2.788 -1.0130 -0.2416 -0.4727
  661SOL     vw 2644   2.822   6.856   2.866 -0.0069 -0.2534 -0.5521
  662SOL     ow 2645   4.218   4.898   1.473  0.5580 -0.3589 -0.0334
  662SOL     hw 2646   4.140   4.855   1.508  1.6697  0.1308  3.4482
  662SOL     hw 2647   4.188   4.984   1.444 -0.3974 -0.6682  0.0064
  662SOL     vw 2648   4.204   4.903   1.474  0.5786 -0.3352  0.4312
  663SOL     ow 2649   0.865   6.984   3.069 -0.3044  0.2119 -0.1151
  663SOL     hw 2650   0.784   6.941   3.097  0.8123  0.1257  3.4043
  663SOL     hw 2651   0.924   6.975   3.143  1.7678  3.4120 -1.1728
  663SOL     vw 2652   0.862   6.977   3.082  0.1164  0.6225  0.2097
  664SOL     ow 2653   4.619   2.208   6.649  0.2474 -0.1482  0.2152
  664SOL     hw 2654   4.529   2.206   6.617  0.0525  2.3383  0.4128
  664SOL     hw 2655   4.665   2.146   6.593 -1.2807 -0.3671 -0.8859
  664SOL     vw 2656   4.613   2.200   6.637  0.0198  0.1510  0.0961
  665SOL     ow 2657   1.432   3.642   6.024 -0.6551  0.0795  0.2569
  665SOL     hw 2658   1.405   3.640   5.932  0.2811 -1.9089 -0.0250
  665SOL     hw 2659   1.377   3.577   6.067  0.0506 -0.2042  0.7504
  665SOL     vw 2660   1.421   3.633   6.017 -0.4385 -0.2202  0.2849
  666SOL     ow 2661   3.942   5.927   4.972 -0.3272 -0.5155  0.4710
  666SOL     hw 2662   3.959   6.020   4.989  0.2110 -0.4507 -0.3565
  666SOL     hw 2663   4.028   5.890   4.954 -0.7058 -0.8472 -0.7261
  666SOL     vw 2664   3.956   5.935   4.972 -0.3061 -0.5507  0.2041
  667SOL     ow 2665   7.195   4.814   5.550  0.1869 -0.0565  0.2282
  667SOL     hw 2666   7.145   4.838   5.473 -0.0288  0.2434  0.4562
  667SOL     hw 2667   7.268   4.877   5.551  1.2571 -1.2397 -0.7626
  667SOL     vw 2668   7.198   4.826   5.540  0.2997 -0.1733  0.1276
  668SOL     ow 2669   3.139   2.563   6.772  0.0416  0.8327  0.1641
  668SOL     hw 2670   3.197   2.493   6.741 -1.7569  0.2071 -2.0361
  668SOL     hw 2671   3.158   2.570   6.866  1.4361 -1.4592  0.1231
  668SOL     vw 2672   3.149   2.555   6.780 -0.0119  0.4478 -0.1316
  669SOL     ow 2673   0.936   3.439   0.338  0.3079  0.1206 -0.8238
  669SOL     hw 2674   1.014   3.446   0.393 -0.0513 -1.7688  0.0006
  669SOL     hw 2675   0.868   3.409   0.398 -0.0167 -2.3489 -2.3128
  669SOL     vw 2676   0.937   3.436   0.353  0.2177 -0.4544 -0.9115
  670SOL     ow 2677   5.103   5.187   5.816  0.4312 -0.3864  0.4735
  670SOL     hw 2678   5.099   5.122   5.886 -2.8486  0.8236  1.6548
  670SOL     hw 2679   5.190   5.225   5.823  1.4863 -2.7823  1.4593
  670SOL     vw 2680   5.114   5.184   5.827  0.1376 -0.5429  0.7596
  671SOL     ow 2681   5.072   1.599   3.777 -0.1997  0.0212  0.2996
  671SOL     hw 2682   5.093   1.679   3.729 -3.2260 -0.0013 -1.2494
  671SOL     hw 2683   5.147   1.541   3.760  0.1607  1.0647 -2.0083
  671SOL     vw 2684   5.085   1.602   3.769 -0.5512  0.1559 -0.2095
  672SOL     ow 2685   4.957   5.286   5.552 -0.4726  0.4232  0.4143
  672SOL     hw 2686   4.936   5.376   5.577 -1.5092  0.5275 -0.7258
  672SOL     hw 2687   4.890   5.263   5.488 -1.5732 -1.9162  2.2218
  672SOL     vw 2688   4.945   5.295   5.547 -0.7546  0.1285  0.5023
  673SOL     ow 2689   2.406   2.997   2.939 -0.4445 -0.5151 -0.2159
  673SOL     hw 2690   2.350   3.054   2.886 -0.9225  0.9225  1.7412
  673SOL     hw 2691   2.346   2.949   2.995  0.0796  3.1524  4.0374
  673SOL     vw 2692   2.391   2.998   2.939 -0.4383  0.1584  0.6034
  674SOL     ow 2693   2.797   5.174   0.374 -0.0003  0.0868 -0.2476
  674SOL     hw 2694   2.761   5.191   0.461 -0.3194  0.2656 -0.4124
  674SOL     hw 2695   2.755   5.093   0.346 -2.2114  1.5198 -1.4502
  674SOL     vw 2696   2.787   5.166   0.382 -0.3343  0.2997 -0.4280
  675SOL     ow 2697   6.827   4.999   6.784  0.0692 -0.7871  0.4202
  675SOL     hw 2698   6.739   5.036   6.783  0.3032 -0.0221  2.6156
  675SOL     hw 2699   6.854   4.998   6.693 -1.8658 -0.2003 -0.1964
  675SOL     vw 2700   6.819   5.004   6.772 -0.1554 -0.6087  0.6285
  676SOL     ow 2701   2.844   4.174   1.864 -0.2923 -0.1884  0.7789
  676SOL     hw 2702   2.900   4.097   1.856  0.9873  0.7504  0.4008
  676SOL     hw 2703   2.899   4.247   1.835 -1.5995  0.8205  0.7367
  676SOL     vw 2704   2.859   4.174   1.859 -0.2959  0.0689  0.7235
  677SOL     ow 2705   5.635   4.122   0.855 -0.4139  0.0378  0.0124
  677SOL     hw 2706   5.607   4.033   0.836  0.1736 -0.3796  1.0209
  677SOL     hw 2707   5.558   4.176   0.837 -0.6249 -0.5990 -1.0870
  677SOL     vw 2708   5.621   4.118   0.850 -0.3641 -0.1013  0.0004
  678SOL     ow 2709   3.081   1.602   0.219 -0.0746  0.2039 -0.2688
  678SOL     hw 2710   3.131   1.539   0.272 -0.0066  0.7421  0.3186
  678SOL     hw 2711   3.001   1.618   0.269 -0.7746 -0.5166 -1.1242
  678SOL     vw 2712   3.077   1.596   0.233 -0.1581  0.1799 -0.3042
  679SOL     ow 2713   5.021   5.390   0.698 -0.0055 -0.4772 -0.2202
  679SOL     hw 2714   5.116   5.396   0.708 -0.1385 -0.6174  1.4498
  679SOL     hw 2715   4.986   5.428   0.778 -1.3191 -1.7007 -0.1669
  679SOL     vw 2716   5.029   5.396   0.710 -0.1962 -0.6568  0.0072
  680SOL     ow 2717   5.564   6.889   4.516 -0.2681  0.4149  0.2269
  680SOL     hw 2718   5.576   6.891   4.421 -1.3178  0.5540  0.0810
  680SOL     hw 2719   5.652   6.889   4.551  0.2495  3.9541 -0.6894
  680SOL     vw 2720   5.577   6.890   4.508 -0.3383  0.9003  0.0868
  681SOL     ow 2721   3.798   6.966   5.744  0.2655  0.4781  0.7235
  681SOL     hw 2722   3.823   6.874   5.737 -1.6376 -0.2001  2.0178
  681SOL     hw 2723   3.762   6.974   5.833 -0.1201  2.3418  0.4388
  681SOL     vw 2724   3.797   6.955   5.755 -0.0365  0.6347  0.8566
  682SOL     ow 2725   1.680   3.440   3.832 -0.8540 -0.6040  0.6696
  682SOL     hw 2726   1.688   3.441   3.927  1.4684 -1.5905  0.5509
  682SOL     hw 2727   1.699   3.530   3.805 -2.4029 -0.1030  1.1440
  682SOL     vw 2728   1.683   3.452   3.841 -0.7520 -0.6680  0.7166
  683SOL     ow 2729   0.307   0.961   6.836  0.8130  0.9847  0.2292
  683SOL     hw 2730   0.278   1.017   6.908  0.8116  2.9388 -1.2212
  683SOL     hw 2731   0.402   0.971   6.834  0.7046  1.9051 -0.7832
  683SOL     vw 2732   0.316   0.969   6.845  0.7985  1.3639 -0.0956
  684SOL     ow 2733   6.414   5.284   0.810 -0.3311  0.0123 -0.9264
  684SOL     hw 2734   6.398   5.200   0.765  0.9162 -1.3130  0.9555
  684SOL     hw 2735   6.505   5.305   0.787 -0.4793  0.6078 -0.9737
  684SOL     vw 2736   6.424   5.276   0.801 -0.1862 -0.0839 -0.6844
  685SOL     ow 2737   0.069   5.407   6.398 -0.1827  0.4348 -0.4502
  685SOL     hw 2738   0.050   5.392   6.491 -3.2887  1.2623 -0.8320
  685SOL     hw 2739   0.065   5.502   6.387 -1.8902  0.2776 -1.7079
  685SOL     vw 2740   0.066   5.417   6.409 -0.8178  0.5231 -0.6666
  686SOL     ow 2741   3.132   1.488   2.144 -0.0437  0.3651 -0.4823
  686SOL     hw 2742   3.042   1.455   2.145 -0.4572  1.3030 -2.3642
  686SOL     hw 2743   3.184   1.411   2.119 -0.3067 -0.1515  0.4932
  686SOL     vw 2744   3.127   1.473   2.141 -0.1329  0.4207 -0.6019
  687SOL     ow 2745   3.588   1.052   3.915 -0.1877 -0.2585 -0.6181
  687SOL     hw 2746   3.548   0.998   3.983 -1.2598 -0.3561 -1.3074
  687SOL     hw 2747   3.666   1.003   3.889 -0.6193 -1.0045 -0.5555
  687SOL     vw 2748   3.593   1.038   3.921 -0.3859 -0.3698 -0.7008
  688SOL     ow 2749   0.240   0.627   0.119 -0.1777  0.4529 -0.2583
  688SOL     hw 2750   0.167   0.653   0.175  1.8043  0.5842  2.5025
  688SOL     hw 2751   0.246   0.697   0.054 -2.0665  0.7721 -0.1500
  688SOL     vw 2752   0.231   0.640   0.118 -0.1654  0.5123  0.1203
  689SOL     ow 2753   4.023   6.336   2.356  0.1995  0.6130 -0.3885
  689SOL     hw 2754   4.011   6.427   2.384 -2.4818  0.1139  0.4054
  689SOL     hw 2755   3.961   6.324   2.285  1.2629 -0.3476 -1.1900
  689SOL     vw 2756   4.013   6.346   2.351 -0.0141  0.4203 -0.3893
  690SOL     ow 2757   1.086   1.877   2.342  0.4370 -0.3534 -0.1168
  690SOL     hw 2758   1.088   1.943   2.411  1.3743  0.4408 -0.8788
  690SOL     hw 2759   1.146   1.809   2.373 -0.5625 -0.8995  0.6866
  690SOL     vw 2760   1.094   1.877   2.355  0.4287 -0.3207 -0.1113
  691SOL     ow 2761   1.787   4.680   4.424 -0.0661  0.0926  0.6494
  691SOL     hw 2762   1.756   4.595   4.453  0.3893 -0.3116 -0.0288
  691SOL     hw 2763   1.706   4.731   4.412 -0.3863 -0.4533  0.4233
  691SOL     vw 2764   1.772   4.676   4.426 -0.0483 -0.0327  0.5300
  692SOL     ow 2765   3.644   2.757   1.367  0.0265 -0.1334  0.5566
  692SOL     hw 2766   3.723   2.807   1.347  0.2378 -1.2354 -1.5944
  692SOL     hw 2767   3.575   2.801   1.317 -0.7712  0.7123  2.2770
  692SOL     vw 2768   3.645   2.770   1.358 -0.0509 -0.1674  0.4998
  693SOL     ow 2769   4.723   6.140   1.638  0.3515  0.0330  0.0339
  693SOL     hw 2770   4.726   6.068   1.701  0.6266 -1.6348 -1.7726
  693SOL     hw 2771   4.780   6.111   1.567  1.7917  2.7934 -0.0572
  693SOL     vw 2772   4.731   6.126   1.637  0.5779  0.1771 -0.2165
  694SOL     ow 2773   6.215   1.334   1.214  0.0042  0.3439  0.0399
  694SOL     hw 2774   6.209   1.415   1.265  4.4278  1.1637 -0.3693
  694SOL     hw 2775   6.212   1.362   1.123 -1.1848 -0.3728 -0.1777
  694SOL     vw 2776   6.214   1.348   1.209  0.4313  0.3574 -0.0428
  695SOL     ow 2777   7.057   1.710   6.743 -0.7415 -0.1490  0.2905
  695SOL     hw 2778   7.092   1.631   6.700 -0.7143 -0.3820  0.7288
  695SOL     hw 2779   7.052   1.685   6.835  1.4005  1.0882  0.8122
  695SOL     vw 2780   7.061   1.696   6.749 -0.4551 -0.0165  0.4172
  696SOL     ow 2781   5.015   2.746   3.639 -0.4088 -0.0105 -0.1752
  696SOL     hw 2782   5.102   2.785   3.652 -0.1140 -0.3715 -0.9746
  696SOL     hw 2783   5.000   2.752   3.545 -1.2902  0.1109 -0.0320
  696SOL     vw 2784   5.025   2.752   3.629 -0.4864 -0.0421 -0.2619
  697SOL     ow 2785   4.812   6.162   6.466 -0.5701  0.2505 -0.0151
  697SOL     hw 2786   4.774   6.243   6.501  0.7254  2.7309 -3.7475
  697SOL     hw 2787   4.790   6.163   6.373  2.3183 -1.9659 -0.8705
  697SOL     vw 2788   4.804   6.173   6.459 -0.0179  0.2854 -0.6206
  698SOL     ow 2789   5.943   6.644   3.561 -0.1956 -0.1721  0.3326
  698SOL     hw 2790   5.848   6.628   3.559 -0.1443 -0.3982 -1.3562
  698SOL     hw 2791   5.981   6.560   3.588 -0.4956  0.2284  2.1664
  698SOL     vw 2792   5.935   6.631   3.565 -0.2284 -0.1493  0.3518
  699SOL     ow 2793   3.822   3.819   4.149 -0.0475 -0.1135  0.1185
  699SOL     hw 2794   3.890   3.857   4.093 -1.6078  1.1427 -1.0324
  699SOL     hw 2795   3.868   3.793   4.229  1.3577  3.6281  0.7566
  699SOL     vw 2796   3.837   3.821   4.152 -0.0679  0.5459  0.0508
  700SOL     ow 2797   7.092   0.190   5.918 -0.6293  0.1792 -0.2087
  700SOL     hw 2798   7.087   0.099   5.886  0.1347  0.3819 -0.9293
  700SOL     hw 2799   7.076   0.182   6.012  0.5117 -0.8491 -0.0656
  700SOL     vw 2800   7.089   0.177   5.926 -0.3779  0.0703 -0.2851
  701SOL     ow 2801   0.646   0.704   5.404  0.1845 -0.5508 -0.0429
  701SOL     hw 2802   0.702   0.744   5.470  1.1474 -0.9104 -0.6100
  701SOL     hw 2803   0.682   0.616   5.393  0.9677 -0.0426 -2.0428
  701SOL     vw 2804   0.658   0.698   5.411  0.4148 -0.5312 -0.3812
  702SOL     ow 2805   1.173   5.610   3.392 -0.3263 -0.0813 -0.6102
  702SOL     hw 2806   1.126   5.626   3.473 -0.0509 -1.0575 -0.2488
  702SOL     hw 2807   1.106   5.582   3.330 -0.6463  1.3388 -0.9395
  702SOL     vw 2808   1.158   5.608   3.395 -0.3322 -0.0229 -0.6059
  703SOL     ow 2809   0.755   3.003   3.142  0.2493 -0.6335  0.0924
  703SOL     hw 2810   0.846   3.030   3.157 -0.2400  1.2565 -0.0231
  703SOL     hw 2811   0.703   3.059   3.200 -0.8157 -2.1324  0.6323
  703SOL     vw 2812   0.760   3.014   3.151  0.0442 -0.5820  0.1484
  704SOL     ow 2813   2.345   2.513   5.814  0.1871 -0.2644  0.7844
  704SOL     hw 2814   2.407   2.440   5.803  0.7712  0.0409  1.8998
  704SOL     hw 2815   2.389   2.572   5.874 -0.0785  1.2610 -0.4564
  704SOL     vw 2816   2.359   2.511   5.820  0.2294 -0.0229  0.7677
  705SOL     ow 2817   1.450   4.168   2.452  0.2659  0.6540 -0.5031
  705SOL     hw 2818   1.542   4.190   2.465  0.5126  0.5569 -1.9261
  705SOL     hw 2819   1.411   4.247   2.416 -0.5756  1.1883  1.4179
  705SOL     vw 2820   1.457   4.181   2.449  0.1874  0.7119 -0.4374
  706SOL     ow 2821   4.111   0.899   0.051 -0.5437 -0.5572 -0.5704
  706SOL     hw 2822   4.186   0.841   0.059 -1.5858 -2.1168 -1.5790
  706SOL     hw 2823   4.103   0.940   0.137  0.3549 -1.7655  0.1121
  706SOL     vw 2824   4.120   0.897   0.064 -0.5627 -0.9224 -0.6134
  707SOL     ow 2825   1.712   2.656   4.833 -0.0753  0.1422 -0.3973
  707SOL     hw 2826   1.783   2.705   4.873 -0.2393  0.7814 -0.8727
  707SOL     hw 2827   1.737   2.646   4.741 -0.1130 -0.5480 -0.3428
  707SOL     vw 2828   1.724   2.661   4.826 -0.1019  0.1355 -0.4530
  708SOL     ow 2829   1.473   5.764   6.112  0.2239 -0.1980  0.6060
  708SOL     hw 2830   1.546   5.711   6.144  1.0780  0.3630 -0.3455
  708SOL     hw 2831   1.507   5.805   6.033 -2.0313 -2.1540 -1.5309
  708SOL     vw 2832   1.487   5.762   6.106  0.0390 -0.3824  0.1986
  709SOL     ow 2833   6.284   3.616   5.918 -0.3964 -0.1924  0.0606
  709SOL     hw 2834   6.285   3.541   5.858  0.8381  0.5570 -0.9102
  709SOL     hw 2835   6.341   3.590   5.990 -0.9156 -0.6293  0.3210
  709SOL     vw 2836   6.292   3.603   5.920 -0.3021 -0.1512 -0.0329
  710SOL     ow 2837   5.095   0.982   4.970 -0.0631  1.0758  0.7299
  710SOL     hw 2838   5.087   0.924   4.895 -1.1531  0.5158  1.2547
  710SOL     hw 2839   5.160   0.941   5.026  0.5486  1.3517  0.2367
  710SOL     vw 2840   5.102   0.969   4.967 -0.1264  1.0383  0.7341
  711SOL     ow 2841   1.590   2.482   3.186  0.2274  0.1952  0.0249
  711SOL     hw 2842   1.628   2.531   3.113 -0.1770  2.7169  1.3917
  711SOL     hw 2843   1.652   2.494   3.258 -0.8541  0.3656  0.9540
  711SOL     vw 2844   1.603   2.490   3.186  0.0314  0.5503  0.3279
  712SOL     ow 2845   6.604   6.232   1.137  0.0649  0.2784 -0.0310
  712SOL     hw 2846   6.612   6.178   1.058  2.9365 -0.0043  0.3433
  712SOL     hw 2847   6.658   6.309   1.118  3.4812 -1.2358  2.7160
  712SOL     vw 2848   6.612   6.235   1.124  0.8945  0.0415  0.3808
  713SOL     ow 2849   5.502   2.381   6.769  0.3239 -0.3177  0.8402
  713SOL     hw 2850   5.414   2.399   6.738  0.5954  0.5556  0.5419
  713SOL     hw 2851   5.504   2.420   6.857 -0.1332 -1.9127  1.5932
  713SOL     vw 2852   5.491   2.389   6.777  0.2992 -0.4128  0.9005
  714SOL     ow 2853   5.547   0.543   4.717 -0.2617 -0.0344  0.2582
  714SOL     hw 2854   5.485   0.512   4.651  0.5877 -1.5679  0.1407
  714SOL     hw 2855   5.626   0.493   4.701  0.0231 -0.3437  2.3562
  714SOL     vw 2856   5.549   0.532   4.706 -0.1118 -0.2775  0.5195
  715SOL     ow 2857   1.454   5.667   3.218  0.3407  0.1651  0.0900
  715SOL     hw 2858   1.489   5.639   3.133  0.9719 -1.4514  0.8518
  715SOL     hw 2859   1.519   5.729   3.251  0.1993  0.6381 -0.4931
  715SOL     vw 2860   1.468   5.672   3.211  0.4053  0.0143  0.1135
  716SOL     ow 2861   0.436   0.445   2.633 -0.4958  0.3140  0.4022
  716SOL     hw 2862   0.515   0.430   2.580 -0.2902  1.6683  0.2834
  716SOL     hw 2863   0.386   0.364   2.625  0.6439 -0.3822  0.0584
  716SOL     vw 2864   0.440   0.432   2.625 -0.3183  0.4008  0.3411
  717SOL     ow 2865   5.836   2.620   5.867 -0.6458 -0.0524 -0.5514
  717SOL     hw 2866   5.881   2.700   5.838  1.5345 -0.6137  1.0715
  717SOL     hw 2867   5.765   2.652   5.922  0.0553  0.7836 -0.1067
  717SOL     vw 2868   5.833   2.635   5.870 -0.2661 -0.0161 -0.2787
  718SOL     ow 2869   2.398   6.055   2.543 -0.0518 -0.3257  0.2609
  718SOL     hw 2870   2.463   6.108   2.589  0.9107 -0.8803 -0.4323
  718SOL     hw 2871   2.435   5.967   2.542 -1.9428 -1.2330  2.0290
  718SOL     vw 2872   2.411   6.051   2.549 -0.1742 -0.5186  0.4027
  719SOL     ow 2873   2.458   7.161   6.181  0.6206 -0.3779  0.1611
  719SOL     hw 2874   2.536   7.206   6.215  0.5208  0.6200 -0.8787
  719SOL     hw 2875   2.388   7.225   6.188  0.5994 -0.1139 -1.8819
  719SOL     vw 2876   2.459   7.175   6.187  0.6047 -0.2115 -0.2456
  720SOL     ow 2877   6.220   5.970   1.154  0.1775 -0.3913  0.1763
  720SOL     hw 2878   6.126   5.963   1.173 -0.1004  1.1416 -0.4909
  720SOL     hw 2879   6.225   5.978   1.058  0.9444  0.0880  0.2469
  720SOL     vw 2880   6.208   5.970   1.144  0.2418 -0.1259  0.0976
  721SOL     ow 2881   1.315   1.314   4.572 -0.0751 -0.0595  0.2150
  721SOL     hw 2882   1.337   1.406   4.557 -0.4931  0.8110  3.8533
  721SOL     hw 2883   1.241   1.298   4.514 -0.4713  2.1672 -0.0112
  721SOL     vw 2884   1.308   1.324   4.562 -0.1825  0.3492  0.6647
  722SOL     ow 2885   6.825   6.925   2.976  0.1642  0.0570 -0.7959
  722SOL     hw 2886   6.739   6.905   2.940  0.3597  0.5663 -1.5930
  722SOL     hw 2887   6.861   6.840   3.001 -0.2923 -0.2341 -1.1140
  722SOL     vw 2888   6.819   6.911   2.974  0.1295  0.0856 -0.9431
  723SOL     ow 2889   6.966   0.647   6.002 -0.6493 -0.9344 -0.0895
  723SOL     hw 2890   6.972   0.692   6.086  0.7186  0.5489 -0.9342
  723SOL     hw 2891   6.981   0.715   5.936 -0.8488 -2.2066 -1.5174
  723SOL     vw 2892   6.969   0.662   6.004 -0.4952 -0.9066 -0.3896
  724SOL     ow 2893   5.398   2.008   5.046  0.4859  0.2356  0.3805
  724SOL     hw 2894   5.325   1.982   5.102 -0.7783 -0.7154 -1.6144
  724SOL     hw 2895   5.396   2.104   5.047 -0.3915  0.2205  0.8240
  724SOL     vw 2896   5.388   2.017   5.054  0.2031  0.1084  0.1757
  725SOL     ow 2897   2.448   6.623   4.368 -0.0462 -0.2330  0.1446
  725SOL     hw 2898   2.492   6.612   4.452  0.8603 -1.4213 -0.4615
  725SOL     hw 2899   2.518   6.619   4.303 -0.8295 -0.1954 -0.7252
  725SOL     vw 2900   2.463   6.621   4.371 -0.0299 -0.3850 -0.0503
  726SOL     ow 2901   6.706   2.159   2.563 -0.8965  0.0721  0.1617
  726SOL     hw 2902   6.753   2.097   2.507  1.7038 -0.3893  2.6126
  726SOL     hw 2903   6.637   2.106   2.604 -2.8110  0.4079 -2.3392
  726SOL     vw 2904   6.703   2.144   2.561 -0.8061  0.0556  0.1550
  727SOL     ow 2905   2.816   2.635   4.964  0.0524 -0.1324 -0.1152
  727SOL     hw 2906   2.865   2.713   4.937  0.4230 -0.8228 -1.5604
  727SOL     hw 2907   2.852   2.564   4.910  0.0559 -1.4254  1.4943
  727SOL     vw 2908   2.827   2.636   4.953  0.1018 -0.3940 -0.0937
  728SOL     ow 2909   6.085   1.474   5.894  0.5359  0.0207  0.2357
  728SOL     hw 2910   6.109   1.488   5.985  1.9627  1.4108 -0.2998
  728SOL     hw 2911   6.111   1.384   5.875  0.5054 -0.1749  1.1129
  728SOL     vw 2912   6.092   1.464   5.903  0.7203  0.1783  0.2809
  729SOL     ow 2913   3.588   6.536   2.384  0.0213  0.2083 -0.3120
  729SOL     hw 2914   3.647   6.593   2.334  1.3953 -0.9752 -0.1234
  729SOL     hw 2915   3.639   6.511   2.461 -1.9225  1.6766  1.5678
  729SOL     vw 2916   3.603   6.540   2.387 -0.0538  0.2460 -0.0390
  730SOL     ow 2917   5.328   7.119   6.077 -0.4564 -0.5263  0.0687
  730SOL     hw 2918   5.409   7.142   6.032  1.4649  0.6360  3.7415
  730SOL     hw 2919   5.341   7.030   6.108 -0.5402 -0.3170  0.7249
  730SOL     vw 2920   5.340   7.110   6.075 -0.2141 -0.3455  0.6402
  731SOL     ow 2921   4.820   6.553   3.524 -0.3555 -0.5355 -0.4111
  731SOL     hw 2922   4.754   6.516   3.466 -1.4642 -0.9449  1.0281
  731SOL     hw 2923   4.796   6.645   3.534  1.0533  0.0789 -2.1742
  731SOL     vw 2924   4.808   6.560   3.518 -0.3159 -0.5083 -0.4539
  732SOL     ow 2925   4.830   2.824   5.691 -0.0663  0.9398 -0.0939
  732SOL     hw 2926   4.803   2.913   5.714  0.4620  1.3846 -1.1393
  732SOL     hw 2927   4.816   2.819   5.596  2.2629  0.7649 -0.4868
  732SOL     vw 2928   4.824   2.835   5.681  0.3107  0.9753 -0.2837
  733SOL     ow 2929   3.857   3.727   6.175  0.7571 -0.8165  0.4788
  733SOL     hw 2930   3.848   3.819   6.200  2.1240 -0.2886 -0.8193
  733SOL     hw 2931   3.923   3.693   6.236 -1.1568 -1.5302  2.2717
  733SOL     vw 2932   3.865   3.735   6.186  0.6850 -0.8410  0.5441
  734SOL     ow 2933   4.680   4.080   3.638 -0.0983 -0.4701  0.1638
  734SOL     hw 2934   4.612   4.112   3.698  1.0529  1.5263  0.4931
  734SOL     hw 2935   4.762   4.104   3.680  0.7779 -0.6527 -1.3705
  734SOL     vw 2936   4.682   4.087   3.652  0.1690 -0.2308  0.0048
  735SOL     ow 2937   5.665   3.192   3.328  0.1351 -0.6476  0.2143
  735SOL     hw 2938   5.681   3.276   3.285 -0.0223 -0.9219 -0.3930
  735SOL     hw 2939   5.660   3.213   3.421 -0.3288  0.0847  0.0323
  735SOL     vw 2940   5.666   3.206   3.335  0.0529 -0.5870  0.1101
  736SOL     ow 2941   6.789   5.795   4.520  0.0467 -0.1706 -0.0096
  736SOL     hw 2942   6.871   5.804   4.471 -0.1031 -1.5159 -0.5372
  736SOL     hw 2943   6.759   5.885   4.533  0.4398  0.2492 -1.7788
  736SOL     vw 2944   6.796   5.808   4.515  0.0787 -0.2928 -0.3123
  737SOL     ow 2945   1.360   2.340   4.473 -0.3025 -0.3333 -0.1482
  737SOL     hw 2946   1.333   2.432   4.473  2.7247  0.9119 -4.4909
  737SOL     hw 2947   1.419   2.332   4.548 -2.7993  0.2711  2.0361
  737SOL     vw 2948   1.364   2.351   4.483 -0.2325 -0.0894 -0.4330
  738SOL     ow 2949   1.549   4.781   4.034 -0.0992 -0.2155  0.1836
  738SOL     hw 2950   1.611   4.708   4.042 -1.4040 -1.2383  1.6272
  738SOL     hw 2951   1.582   4.847   4.095  0.0424 -0.4115  0.3209
  738SOL     vw 2952   1.562   4.780   4.043 -0.2526 -0.3762  0.3922
  739SOL     ow 2953   4.383   0.754   0.444 -0.4297  0.7296  0.1992
  739SOL     hw 2954   4.447   0.806   0.492  0.1105 -0.6058  0.9870
  739SOL     hw 2955   4.375   0.797   0.359  1.8835  0.6698 -0.1024
  739SOL     vw 2956   4.390   0.767   0.440 -0.0532  0.5455  0.2634
  740SOL     ow 2957   0.366   5.618   3.515 -0.1931  0.7618  0.2752
  740SOL     hw 2958   0.278   5.605   3.481  0.2041  3.4258 -2.2606
  740SOL     hw 2959   0.363   5.703   3.558  1.0790  0.8770  0.1967
  740SOL     vw 2960   0.354   5.628   3.516  0.0272  1.1284 -0.0696
  741SOL     ow 2961   0.163   4.191   0.042  0.0623  0.4939 -0.2382
  741SOL     hw 2962   0.111   4.250  -0.014 -0.6792  0.8627  0.7977
  741SOL     hw 2963   0.223   4.249   0.088 -0.4059  0.3977  0.5005
  741SOL     vw 2964   0.164   4.207   0.041 -0.0973  0.5298 -0.0038
  742SOL     ow 2965   2.486   5.677   3.003  0.1618  0.1613  0.5494
  742SOL     hw 2966   2.417   5.628   3.047  0.7281 -2.7001 -1.5064
  742SOL     hw 2967   2.565   5.658   3.054  0.3575 -1.0467 -0.1710
  742SOL     vw 2968   2.487   5.668   3.016  0.2624 -0.3755  0.1832
  743SOL     ow 2969   1.648   4.972   1.354  0.1006  0.8284  0.0097
  743SOL     hw 2970   1.619   4.959   1.264 -0.5428 -0.2835  0.3549
  743SOL     hw 2971   1.637   5.066   1.370  0.1153  1.0157 -1.0203
  743SOL     vw 2972   1.643   4.983   1.344  0.0176  0.7062 -0.0806
  744SOL     ow 2973   3.338   0.619   6.591  0.1744 -0.1319  0.1591
  744SOL     hw 2974   3.335   0.714   6.601 -0.7804 -0.1580  0.2533
  744SOL     hw 2975   3.268   0.600   6.528  0.6810 -0.7288 -0.2339
  744SOL     vw 2976   3.328   0.629   6.584  0.1154 -0.2141  0.1194
  745SOL     ow 2977   4.531   2.752   1.289  0.8192 -0.0640 -0.0328
  745SOL     hw 2978   4.499   2.784   1.205  0.3713  0.6152  0.3888
  745SOL     hw 2979   4.487   2.806   1.354  1.0051 -0.7155  0.6531
  745SOL     vw 2980   4.521   2.763   1.286  0.7846 -0.0603  0.1134
  746SOL     ow 2981   1.163   7.126   0.804  0.0497 -0.4545  0.0650
  746SOL     hw 2982   1.146   7.064   0.733  1.4081 -2.0775  1.0934
  746SOL     hw 2983   1.091   7.114   0.865  0.1533 -0.8205  0.1166
  746SOL     vw 2984   1.152   7.116   0.802  0.2427 -0.7170  0.2075
  747SOL     ow 2985   5.971   5.833   2.028  0.2099  0.0589 -0.1174
  747SOL     hw 2986   5.912   5.814   1.956  0.1018  0.5755 -0.1721
  747SOL     hw 2987   5.926   5.800   2.106  0.1082 -0.0662 -0.2299
  747SOL     vw 2988   5.957   5.826   2.029  0.1824  0.1109 -0.1395
  748SOL     ow 2989   4.374   3.794   0.956  0.3473 -0.2169 -0.5139
  748SOL     hw 2990   4.439   3.844   0.906 -0.3234  1.4732  0.2434
  748SOL     hw 2991   4.416   3.710   0.972  1.4563  0.0186 -1.9624
  748SOL     vw 2992   4.388   3.789   0.951  0.4048  0.0372 -0.6051
  749SOL     ow 2993   3.560   4.270   4.945  0.1491 -0.4377 -0.5561
  749SOL     hw 2994   3.551   4.326   5.022  4.1333  1.8684 -1.4560
  749SOL     hw 2995   3.534   4.326   4.871 -0.5718 -1.5114 -1.1359
  749SOL     vw 2996   3.555   4.285   4.945  0.5795 -0.2751 -0.7515
  750SOL     ow 2997   4.209   3.237   3.759 -0.0034  0.4060 -0.6362
  750SOL     hw 2998   4.218   3.144   3.738 -0.9230 -0.2193  1.4756
  750SOL     hw 2999   4.117   3.257   3.740  0.8147  1.7937 -4.0230
  750SOL     vw 3000   4.198   3.228   3.753 -0.0167  0.5066 -0.8043
  751SOL     ow 3001   0.989   6.950   4.067  0.1935  0.6671 -0.3952
  751SOL     hw 3002   1.046   7.017   4.107  0.3892 -1.8296  4.1501
  751SOL     hw 3003   0.901   6.972   4.098 -0.2615  0.5465 -1.5470
  751SOL     vw 3004   0.985   6.962   4.077  0.1594  0.3216  0.0529
  752SOL     ow 3005   3.291   6.926   4.795 -1.0015  0.2117  0.1164
  752SOL     hw 3006   3.301   6.924   4.890  1.8979 -0.9371 -0.1112
  752SOL     hw 3007   3.376   6.957   4.763 -1.1535 -1.4528 -2.1301
  752SOL     vw 3008   3.304   6.930   4.803 -0.6390 -0.1595 -0.2098
  753SOL     ow 3009   4.310   0.132   6.576  0.0188 -0.1103 -0.0837
  753SOL     hw 3010   4.343   0.211   6.619  0.9384 -0.3761 -0.2610
  753SOL     hw 3011   4.216   0.133   6.591  0.1182  0.6368  0.5416
  753SOL     vw 3012   4.302   0.142   6.584  0.1533 -0.0468 -0.0248
  754SOL     ow 3013   2.280   3.709   3.316  0.6913  1.0452 -0.0507
  754SOL     hw 3014   2.372   3.736   3.324  0.0002  2.9929  2.5160
  754SOL     hw 3015   2.273   3.630   3.369  0.9203  0.7179 -0.4988
  754SOL     vw 3016   2.291   3.702   3.324  0.6303  1.2590  0.2288
  755SOL     ow 3017   0.794   4.952   5.381  0.8721 -1.0404  0.0383
  755SOL     hw 3018   0.717   4.912   5.340 -0.7358  0.9900  0.8897
  755SOL     hw 3019   0.842   4.993   5.309  1.4048 -2.6048 -0.5452
  755SOL     vw 3020   0.790   4.952   5.366  0.7302 -0.9787  0.0737
  756SOL     ow 3021   3.703   6.807   3.588 -0.2926 -0.6469  0.1225
  756SOL     hw 3022   3.730   6.800   3.680 -0.8556 -1.2268  0.2457
  756SOL     hw 3023   3.775   6.854   3.546  0.9478 -2.1819  0.4475
  756SOL     vw 3024   3.716   6.813   3.594 -0.2031 -0.9260  0.1817
  757SOL     ow 3025   2.022   0.736   3.314 -0.0877  0.6470 -0.4302
  757SOL     hw 3026   2.077   0.670   3.356  0.7754  0.9933 -1.0084
  757SOL     hw 3027   2.076   0.774   3.245 -1.4522  0.1426 -1.8442
  757SOL     vw 3028   2.036   0.732   3.310 -0.1538  0.6261 -0.6931
  758SOL     ow 3029   4.572   7.104   6.037  0.3245 -0.0832  0.4324
  758SOL     hw 3030   4.580   7.016   6.074  0.3826 -0.4619 -0.4631
  758SOL     hw 3031   4.545   7.159   6.111 -1.7296 -1.2124  0.5921
  758SOL     vw 3032   4.570   7.100   6.052  0.0615 -0.2820  0.3352
  759SOL     ow 3033   3.591   4.527   3.979  0.1541  0.1217 -0.7561
  759SOL     hw 3034   3.593   4.432   3.982  0.0449 -0.0276 -3.5484
  759SOL     hw 3035   3.542   4.552   4.057  2.5642 -1.8991  1.6215
  759SOL     vw 3036   3.585   4.518   3.990  0.4576 -0.1643 -0.8109
  760SOL     ow 3037   0.224   2.682   0.558  0.2080  0.1493 -0.3815
  760SOL     hw 3038   0.304   2.734   0.549  1.2244 -0.7640  2.3702
  760SOL     hw 3039   0.240   2.604   0.505  0.2489  0.8667 -1.4679
  760SOL     vw 3040   0.236   2.679   0.550  0.3475  0.1234 -0.1618
  761SOL     ow 3041   3.584   2.547   1.137 -0.2927 -0.5671  0.3390
  761SOL     hw 3042   3.498   2.553   1.097 -0.3817  1.0877  0.6859
  761SOL     hw 3043   3.645   2.572   1.068  0.0248 -2.5947 -0.1656
  761SOL     vw 3044   3.581   2.551   1.123 -0.2625 -0.6164  0.3182
  762SOL     ow 3045   1.048   2.746   1.422  0.2019 -0.3594 -0.5296
  762SOL     hw 3046   0.986   2.799   1.474 -1.9884 -1.3354 -1.9693
  762SOL     hw 3047   1.133   2.784   1.441 -0.4777 -0.3198  3.3076
  762SOL     vw 3048   1.051   2.758   1.432 -0.1768 -0.4828 -0.2133
  763SOL     ow 3049   4.319   6.329   2.462  0.3850 -0.8122  0.2116
  763SOL     hw 3050   4.236   6.337   2.415 -1.1053  1.6341  2.9756
  763SOL     hw 3051   4.383   6.372   2.405 -0.7622 -0.3724 -0.7887
  763SOL     vw 3052   4.317   6.336   2.448  0.0370 -0.4315  0.4442
  764SOL     ow 3053   2.637   2.399   4.997 -0.6885 -0.1451 -0.1119
  764SOL     hw 3054   2.563   2.360   4.951 -0.8653  0.5804 -0.4447
  764SOL     hw 3055   2.714   2.358   4.958 -0.6591  2.2684 -2.9295
  764SOL     vw 3056   2.637   2.388   4.986 -0.7080  0.2691 -0.5276
  765SOL     ow 3057   3.178   3.132   3.042 -0.4693  0.2737  0.7258
  765SOL     hw 3058   3.261   3.178   3.043  0.0679 -0.5142 -1.3250
  765SOL     hw 3059   3.199   3.045   3.007 -2.1595  0.1054  0.0145
  765SOL     vw 3060   3.192   3.127   3.037 -0.6213  0.1476  0.3614
  766SOL     ow 3061   4.873   4.424   0.170 -0.4469 -0.3043 -0.0405
  766SOL     hw 3062   4.916   4.459   0.092  0.9666 -1.2820  0.2505
  766SOL     hw 3063   4.938   4.363   0.207 -1.4820 -0.6108  1.3330
  766SOL     vw 3064   4.888   4.421   0.164 -0.3970 -0.4735  0.1791
  767SOL     ow 3065   4.310   2.046   1.417 -0.1723  0.0070 -0.2463
  767SOL     hw 3066   4.398   2.073   1.442 -0.5394 -0.4233  1.6802
  767SOL     hw 3067   4.270   2.126   1.382  0.8119  0.3272 -0.6700
  767SOL     vw 3068   4.316   2.060   1.416 -0.0911 -0.0074 -0.0480
  768SOL     ow 3069   2.645   4.881   4.204  0.2455 -0.0564  0.4484
  768SOL     hw 3070   2.705   4.936   4.254  0.5822  0.0067 -0.0181
  768SOL     hw 3071   2.619   4.812   4.265  1.3105 -0.4585  0.4771
  768SOL     vw 3072   2.650   4.879   4.218  0.4303 -0.1009  0.3903
  769SOL     ow 3073   1.870   0.043   1.554  0.1643  0.2423  0.1846
  769SOL     hw 3074   1.823   0.094   1.620  0.0146 -0.4756  0.6446
  769SOL     hw 3075   1.802  -0.006   1.509  0.1663  1.3441 -1.0865
  769SOL     vw 3076   1.855   0.044   1.557  0.1448  0.2929  0.0775
  770SOL     ow 3077   6.853   7.065   5.737  0.6095 -0.0873  0.1929
  770SOL     hw 3078   6.769   7.020   5.731  0.4125  0.4704 -1.8993
  770SOL     hw 3079   6.837   7.153   5.703  1.9011  0.2506  0.3656
  770SOL     vw 3080   6.840   7.071   5.732  0.7539  0.0308 -0.0603
  771SOL     ow 3081   2.110   6.314   6.086 -0.2455 -0.2756  0.2054
  771SOL     hw 3082   2.106   6.233   6.137  0.4031 -0.0352  0.6481
  771SOL     hw 3083   2.026   6.356   6.103  0.0056 -0.1340  1.2070
  771SOL     vw 3084   2.098   6.309   6.095 -0.1268 -0.2251  0.3958
  772SOL     ow 3085   0.031   4.104   4.252 -0.1256 -0.3486  0.4184
  772SOL     hw 3086   0.015   4.069   4.340  0.8377 -1.5064  0.1558
  772SOL     hw 3087  -0.054   4.095   4.208 -0.2792 -0.9861  0.8225
  772SOL     vw 3088   0.017   4.098   4.258 -0.0188 -0.5856  0.4373
  773SOL     ow 3089   5.471   3.153   3.093 -0.1836 -0.5467  0.3476
  773SOL     hw 3090   5.498   3.134   3.003  0.7770 -2.0467  0.8914
  773SOL     hw 3091   5.416   3.231   3.087  1.2408  0.3994 -1.3266
  773SOL     vw 3092   5.467   3.160   3.080  0.1309 -0.6198  0.1985
  774SOL     ow 3093   5.609   2.649   0.991  0.7055 -0.2339  0.4101
  774SOL     hw 3094   5.576   2.560   1.007 -1.8570  0.9377  2.4414
  774SOL     hw 3095   5.551   2.683   0.923 -1.8420  1.4739  3.2139
  774SOL     vw 3096   5.597   2.642   0.984  0.0315  0.1459  1.0480
  775SOL     ow 3097   3.029   4.658   0.768  0.5535  0.4314  0.0971
  775SOL     hw 3098   3.068   4.600   0.703 -0.9664 -2.5084  1.5952
  775SOL     hw 3099   3.103   4.696   0.815  1.6452 -1.2157 -0.2184
  775SOL     vw 3100   3.044   4.655   0.766  0.4971 -0.1738  0.2531
  776SOL     ow 3101   2.740   2.947   6.092  0.2225 -0.1334  0.0097
  776SOL     hw 3102   2.682   2.949   6.168 -0.8748  1.3727 -0.8021
  776SOL     hw 3103   2.714   2.870   6.042 -1.1512  0.5385 -0.3545
  776SOL     vw 3104   2.729   2.937   6.095 -0.1035  0.1540 -0.1457
  777SOL     ow 3105   3.199   4.877   5.825  0.5124 -0.5106 -0.0408
  777SOL     hw 3106   3.235   4.854   5.911 -0.0656 -1.8313 -0.1295
  777SOL     hw 3107   3.268   4.855   5.763  0.8258  0.1852  0.0522
  777SOL     vw 3108   3.213   4.871   5.828  0.4774 -0.5932 -0.0401
  778SOL     ow 3109   6.263   2.160   5.858  0.3885  0.2030  0.0672
  778SOL     hw 3110   6.345   2.134   5.901 -0.0814 -2.1723 -0.3325
  778SOL     hw 3111   6.196   2.146   5.924  0.2556  2.0132  0.3491
  778SOL     vw 3112   6.265   2.155   5.872  0.3088  0.1283  0.0517
  779SOL     ow 3113   6.380   1.873   5.611  0.2255 -0.4328 -0.2943
  779SOL     hw 3114   6.448   1.805   5.609  0.8496  0.0426  1.9168
  779SOL     hw 3115   6.422   1.949   5.571 -0.3986 -1.2165 -2.5689
  779SOL     vw 3116   6.395   1.874   5.605  0.2253 -0.4735 -0.3026
  780SOL     ow 3117   3.187   1.746   1.166 -0.3278  0.6077 -0.8627
  780SOL     hw 3118   3.150   1.740   1.078 -1.1034  2.2652 -0.6908
  780SOL     hw 3119   3.183   1.839   1.187  0.5711  0.3379  0.6276
  780SOL     vw 3120   3.181   1.758   1.157 -0.3115  0.7908 -0.6434
  781SOL     ow 3121   3.104   5.466   2.326  0.5091  0.7179  0.4649
  781SOL     hw 3122   3.163   5.391   2.317 -0.5448 -0.2189  1.1689
  781SOL     hw 3123   3.034   5.450   2.263 -0.4771  0.3542  1.6230
  781SOL     vw 3124   3.103   5.454   2.317  0.2400  0.5465  0.7105
  782SOL     ow 3125   4.466   2.397   2.429 -0.4901 -0.7824 -0.3395
  782SOL     hw 3126   4.456   2.327   2.494 -0.7769 -0.1455  0.3139
  782SOL     hw 3127   4.431   2.360   2.348 -0.8773 -1.3075  0.0628
  782SOL     vw 3128   4.460   2.383   2.427 -0.5789 -0.7676 -0.2003
  783SOL     ow 3129   2.957   3.655   2.828 -0.4526  0.8496  0.2282
  783SOL     hw 3130   2.981   3.693   2.912  0.8960  0.0004  0.2622
  783SOL     hw 3131   3.032   3.600   2.805 -0.3747  1.7630 -1.9619
  783SOL     vw 3132   2.970   3.653   2.836 -0.2644  0.8581 -0.0563
  784SOL     ow 3133   1.762   3.366   5.316 -0.4303 -0.2984  0.0174
  784SOL     hw 3134   1.735   3.343   5.227 -1.1096 -2.2500  0.6804
  784SOL     hw 3135   1.818   3.294   5.344  2.7318  1.9709 -0.0274
  784SOL     vw 3136   1.766   3.353   5.308 -0.1026 -0.2564  0.0989
  785SOL     ow 3137   7.075   2.894   4.951  0.3352 -0.0094  0.1767
  785SOL     hw 3138   7.051   2.897   4.858  4.0419 -0.6388 -0.9540
  785SOL     hw 3139   7.009   2.837   4.991 -1.0777 -0.1253 -2.1513
  785SOL     vw 3140   7.063   2.886   4.944  0.6380 -0.1078 -0.2794
  786SOL     ow 3141   1.631   2.924   3.690 -0.0011  0.0175 -0.5671
  786SOL     hw 3142   1.633   2.975   3.609 -3.6594  1.3450 -0.0127
  786SOL     hw 3143   1.711   2.872   3.688  2.0469  2.8957 -3.0767
  786SOL     vw 3144   1.642   2.924   3.679 -0.2136  0.5723 -0.8252
  787SOL     ow 3145   3.341   1.743   0.290 -0.1614  0.7352 -0.0694
  787SOL     hw 3146   3.347   1.777   0.379  2.1062 -1.0637  0.5740
  787SOL     hw 3147   3.422   1.772   0.248  0.1262 -0.7608 -0.6077
  787SOL     vw 3148   3.352   1.751   0.296  0.1756  0.3005 -0.0555
  788SOL     ow 3149   0.041   5.681   6.427 -0.0353  0.1687  0.2069
  788SOL     hw 3150  -0.052   5.693   6.446  0.1581 -1.0612  2.1587
  788SOL     hw 3151   0.057   5.735   6.349 -2.3030  0.6144 -0.0057
  788SOL     vw 3152   0.031   5.689   6.419 -0.3090  0.0653  0.4363
  789SOL     ow 3153   3.351   6.093   0.126 -0.0893 -0.5986 -0.4503
  789SOL     hw 3154   3.328   6.129   0.041 -1.9643 -2.2816 -0.7292
  789SOL     hw 3155   3.447   6.090   0.126  0.1531  2.8180 -0.9497
  789SOL     vw 3156   3.360   6.097   0.115 -0.3047 -0.3703 -0.5530
  790SOL     ow 3157   0.006   6.229   2.059 -0.1000 -0.1722 -0.5611
  790SOL     hw 3158   0.094   6.260   2.037  0.5239 -0.9014  0.7796
  790SOL     hw 3159  -0.053   6.297   2.025  1.0539  0.9674 -0.3470
  790SOL     vw 3160   0.010   6.242   2.052  0.1349 -0.1183 -0.3561
  791SOL     ow 3161   1.247   2.106   4.592  0.1028  0.2898 -0.4231
  791SOL     hw 3162   1.193   2.027   4.598 -1.1497  1.1250 -0.2853
  791SOL     hw 3163   1.271   2.126   4.683  1.4556 -0.5949 -0.5604
  791SOL     vw 3164   1.243   2.099   4.605  0.1161  0.2832 -0.4232
  792SOL     ow 3165   1.353   4.187   1.455 -0.3211  0.0892 -0.3089
  792SOL     hw 3166   1.302   4.114   1.490  2.7122 -1.9514  0.3403
  792SOL     hw 3167   1.339   4.182   1.360 -1.3906 -0.3128 -0.1467
  792SOL     vw 3168   1.345   4.177   1.447 -0.0620 -0.2329 -0.2018
  793SOL     ow 3169   0.421   4.814   0.233 -0.2704  0.1463 -0.1322
  793SOL     hw 3170   0.410   4.752   0.305  3.1073 -0.1639  0.3117
  793SOL     hw 3171   0.414   4.900   0.273 -1.6561  0.0517 -0.1207
  793SOL     vw 3172   0.419   4.817   0.248 -0.0076  0.0932 -0.0721
  794SOL     ow 3173   5.022   0.713   4.915  0.4424 -0.1710 -0.0648
  794SOL     hw 3174   4.973   0.725   4.996 -1.6816  0.3646 -1.3694
  794SOL     hw 3175   4.960   0.676   4.853  1.9926 -0.5518 -1.4911
  794SOL     vw 3176   5.008   0.710   4.918  0.3667 -0.1506 -0.4253
  795SOL     ow 3177   4.107   4.768   1.188  0.2240 -0.2578  0.4639
  795SOL     hw 3178   4.108   4.706   1.115 -1.2492 -0.6422  0.7482
  795SOL     hw 3179   4.015   4.778   1.210  0.6138  0.1336  2.0373
  795SOL     vw 3180   4.095   4.761   1.181  0.0811 -0.2568  0.7091
  796SOL     ow 3181   6.038   7.115   2.958 -0.2186  0.5290 -0.1565
  796SOL     hw 3182   5.967   7.077   2.908  0.0774 -1.2416  0.7009
  796SOL     hw 3183   6.040   7.207   2.931 -1.1082  0.0130 -2.1300
  796SOL     vw 3184   6.029   7.122   2.948 -0.2973  0.2277 -0.3036
  797SOL     ow 3185   3.435   0.908   5.350 -0.7661 -0.1676 -0.4535
  797SOL     hw 3186   3.510   0.849   5.350  0.4617  1.2919 -2.5714
  797SOL     hw 3187   3.374   0.870   5.287 -1.8606 -1.3026  1.1969
  797SOL     vw 3188   3.437   0.895   5.342 -0.7485 -0.1247 -0.5155
  798SOL     ow 3189   1.033   2.594   1.027 -0.1401 -0.2476 -0.4010
  798SOL     hw 3190   1.056   2.683   0.999 -2.4166  0.5080 -0.1130
  798SOL     hw 3191   0.981   2.559   0.954  1.1077 -1.5505 -0.7065
  798SOL     vw 3192   1.029   2.601   1.013 -0.2758 -0.3198 -0.4033
  799SOL     ow 3193   0.864   1.205   0.395  0.2293  0.0665 -0.5107
  799SOL     hw 3194   0.915   1.172   0.470  0.3159 -0.4676 -0.8027
  799SOL     hw 3195   0.898   1.157   0.320 -1.0010 -0.6303 -0.6552
  799SOL     vw 3196   0.875   1.194   0.395  0.0784 -0.0959 -0.5683
  800SOL     ow 3197   0.287   2.194   4.847  0.1985  0.2496  0.0360
  800SOL     hw 3198   0.289   2.270   4.789 -0.7434  0.0613 -0.2469
  800SOL     hw 3199   0.245   2.226   4.927 -1.7789 -0.3739 -0.7014
  800SOL     vw 3200   0.282   2.208   4.850 -0.1866  0.1426 -0.0982
  801SOL     ow 3201   0.794   2.816   6.100 -0.3682 -0.1493 -0.5375
  801SOL     hw 3202   0.840   2.732   6.098 -1.8160 -0.9894 -0.4665
  801SOL     hw 3203   0.701   2.792   6.094 -0.8437  1.4296  0.0354
  801SOL     vw 3204   0.788   2.802   6.099 -0.6219 -0.0517 -0.4525
  802SOL     ow 3205   7.102   4.594   5.245  0.5208  0.0999  0.1144
  802SOL     hw 3206   7.125   4.603   5.153  1.7367  1.3265  0.5009
  802SOL     hw 3207   7.019   4.546   5.245  0.3489  0.3405 -1.6174
  802SOL     vw 3208   7.094   4.589   5.233  0.6585  0.2937 -0.0629
  803SOL     ow 3209   6.740   6.332   7.176  0.2161 -1.0126 -0.2331
  803SOL     hw 3210   6.805   6.281   7.128 -0.3482 -1.1041 -0.9359
  803SOL     hw 3211   6.658   6.318   7.127  0.1605  1.0193 -0.8059
  803SOL     vw 3212   6.737   6.324   7.163  0.1340 -0.7565 -0.4015
  804SOL     ow 3213   3.179   3.993   6.793 -0.4691 -0.1165 -0.0083
  804SOL     hw 3214   3.183   3.912   6.843 -1.2550  0.0208  0.2960
  804SOL     hw 3215   3.104   4.040   6.829  1.1043  1.6479  1.1879
  804SOL     vw 3216   3.170   3.989   6.804 -0.3651  0.1343  0.1898
  805SOL     ow 3217   3.241   5.536   3.142  0.0133 -0.3892  0.0658
  805SOL     hw 3218   3.312   5.503   3.087  1.7038  3.1836 -0.1852
  805SOL     hw 3219   3.195   5.599   3.086 -1.6837 -0.6420  1.0991
  805SOL     vw 3220   3.244   5.540   3.127  0.0124  0.0489  0.1689
  806SOL     ow 3221   6.184   3.282   0.843  0.1952 -0.1394 -0.4474
  806SOL     hw 3222   6.152   3.333   0.769  0.6692 -0.6157 -0.9914
  806SOL     hw 3223   6.177   3.341   0.918 -0.5448  0.2550 -0.8164
  806SOL     vw 3224   6.179   3.297   0.843  0.1602 -0.1503 -0.5679
  807SOL     ow 3225   7.174   3.816   5.981 -0.1279  0.0830  0.5258
  807SOL     hw 3226   7.221   3.887   5.937 -0.5065  0.0741  0.1130
  807SOL     hw 3227   7.099   3.859   6.022 -0.4982 -0.1196  0.0607
  807SOL     vw 3228   7.171   3.831   5.981 -0.2267  0.0551  0.4101
  808SOL     ow 3229   3.920   3.200   6.793  0.1954 -0.3300 -1.2207
  808SOL     hw 3230   3.951   3.243   6.872 -0.5549 -0.3662 -0.8958
  808SOL     hw 3231   3.927   3.266   6.724 -0.4618  0.1561 -0.8310
  808SOL     vw 3232   3.925   3.214   6.794  0.0097 -0.2707 -1.1263
  809SOL     ow 3233   1.713   5.573   5.705 -0.0917 -0.0529  0.5512
  809SOL     hw 3234   1.758   5.574   5.621 -0.4066  2.4484  0.3432
  809SOL     hw 3235   1.620   5.583   5.684 -0.1222  1.1841  1.1836
  809SOL     vw 3236   1.707   5.575   5.691 -0.1373  0.4404  0.6070
  810SOL     ow 3237   5.058   2.407   6.194  0.0753  0.4407  0.3801
  810SOL     hw 3238   5.050   2.374   6.105 -1.8791 -0.8417  0.9702
  810SOL     hw 3239   5.080   2.500   6.184  0.1687  0.2520 -1.4076
  810SOL     vw 3240   5.060   2.415   6.181 -0.1702  0.2466  0.2220
  811SOL     ow 3241   5.599   1.617   3.421 -0.0266 -0.0607  0.5681
  811SOL     hw 3242   5.672   1.668   3.387 -0.8631  1.6110  1.1380
  811SOL     hw 3243   5.621   1.526   3.401  0.5911  0.6264 -2.3262
  811SOL     vw 3244   5.611   1.612   3.414 -0.0553  0.2506  0.2613
  812SOL     ow 3245   3.828   1.704   6.225  0.6573  0.2917 -0.1179
  812SOL     hw 3246   3.810   1.613   6.203 -1.2961  0.5674  0.2288
  812SOL     hw 3247   3.914   1.701   6.267 -0.2610 -1.7053  1.8125
  812SOL     vw 3248   3.837   1.692   6.228  0.2784  0.0647  0.1826
  813SOL     ow 3249   6.536   5.747   3.112  0.4748 -0.2627 -0.0745
  813SOL     hw 3250   6.520   5.698   3.031 -2.8512 -0.4440  0.5526
  813SOL     hw 3251   6.469   5.815   3.112  2.9214  2.3508  0.6846
  813SOL     vw 3252   6.525   5.749   3.101  0.3586  0.0584  0.1082
  814SOL     ow 3253   4.801   0.556   5.377 -0.5158 -0.1742  0.0895
  814SOL     hw 3254   4.723   0.504   5.397 -1.5056  0.8708 -0.8772
  814SOL     hw 3255   4.785   0.640   5.420  0.7863 -0.4463  1.1357
  814SOL     vw 3256   4.788   0.560   5.385 -0.4745 -0.0722  0.0997
  815SOL     ow 3257   3.082   2.802   1.864 -0.7269  0.2696 -0.6868
  815SOL     hw 3258   3.152   2.789   1.801 -1.3465 -1.9577 -0.9956
  815SOL     hw 3259   3.111   2.757   1.943 -2.2164 -1.7561 -1.1936
  815SOL     vw 3260   3.095   2.794   1.866 -1.0051 -0.2916 -0.7945
  816SOL     ow 3261   2.625   6.941   7.120 -1.0332 -0.1770  0.2224
  816SOL     hw 3262   2.687   6.888   7.070 -0.7680 -1.0279  1.4109
  816SOL     hw 3263   2.570   6.983   7.053  0.9824  0.8587 -0.8638
  816SOL     vw 3264   2.626   6.939   7.105 -0.7323 -0.1526  0.2360
  817SOL     ow 3265   4.223   3.530   3.791  0.5374 -0.1206 -0.7995
  817SOL     hw 3266   4.241   3.595   3.858  2.6691 -0.5597 -0.8551
  817SOL     hw 3267   4.128   3.531   3.780  0.1246  0.0410  2.1217
  817SOL     vw 3268   4.213   3.539   3.798  0.7641 -0.1572 -0.4215
  818SOL     ow 3269   4.053   6.677   5.289 -0.2110 -0.0302  0.6812
  818SOL     hw 3270   4.037   6.607   5.353  2.3649 -3.4392 -2.0031
  818SOL     hw 3271   3.993   6.658   5.217  0.2057  0.8095  0.0957
  818SOL     vw 3272   4.043   6.666   5.288  0.1838 -0.3695  0.2499
  819SOL     ow 3273   4.356   3.041   5.001 -0.5102  0.0743 -0.8013
  819SOL     hw 3274   4.398   2.958   4.977  0.5570  0.4769 -0.3968
  819SOL     hw 3275   4.286   3.015   5.061 -1.5750 -0.7100 -2.3117
  819SOL     vw 3276   4.352   3.026   5.006 -0.5102  0.0238 -0.9472
  820SOL     ow 3277   1.579   0.821   3.061  0.1934  0.1386 -0.0997
  820SOL     hw 3278   1.507   0.818   3.124  0.2565  0.9080  0.0210
  820SOL     hw 3279   1.537   0.821   2.975  0.1191 -1.2428 -0.0714
  820SOL     vw 3280   1.564   0.821   3.058  0.1919  0.0578 -0.0800
  821SOL     ow 3281   0.865   6.582   4.188 -0.2393 -0.0654  0.1362
  821SOL     hw 3282   0.814   6.526   4.130 -1.7789  3.2769 -2.0030
  821SOL     hw 3283   0.800   6.622   4.246  0.8297 -0.4167  1.6517
  821SOL     vw 3284   0.849   6.580   4.188 -0.3014  0.3290  0.0539
  822SOL     ow 3285   6.796   3.469   3.389  0.2287 -0.0869  0.4096
  822SOL     hw 3286   6.789   3.459   3.484  1.2462 -2.4123  0.2972
  822SOL     hw 3287   6.719   3.425   3.354  0.6957 -0.6716  0.1081
  822SOL     vw 3288   6.785   3.462   3.397  0.4244 -0.4708  0.3550
  823SOL     ow 3289   0.133   2.966   0.348  0.0086  0.3119 -0.3824
  823SOL     hw 3290   0.161   2.966   0.256  1.1126 -0.8772 -0.0775
  823SOL     hw 3291   0.207   3.004   0.396  0.9541 -2.2240  0.3571
  823SOL     vw 3292   0.147   2.971   0.342  0.2790 -0.1794 -0.2446
  824SOL     ow 3293   5.300   6.082   3.789 -0.2671 -0.3135  0.0980
  824SOL     hw 3294   5.337   6.152   3.843 -1.9144 -0.1998  1.1770
  824SOL     hw 3295   5.289   6.009   3.850 -0.2498 -0.8949 -0.5873
  824SOL     vw 3296   5.303   6.081   3.804 -0.4821 -0.3750  0.1497
  825SOL     ow 3297   0.585   2.221   0.480  0.2210  0.1777  0.4881
  825SOL     hw 3298   0.508   2.276   0.495  1.1719  2.0766 -1.2337
  825SOL     hw 3299   0.656   2.265   0.526  0.8223 -0.1016 -0.1607
  825SOL     vw 3300   0.584   2.234   0.488  0.4259  0.3914  0.1754
  826SOL     ow 3301   2.290   1.198   2.269 -0.3237 -0.4510 -0.6490
  826SOL     hw 3302   2.326   1.247   2.195  0.2414 -0.4059 -0.3490
  826SOL     hw 3303   2.323   1.109   2.258 -0.4651 -0.5090 -0.6041
  826SOL     vw 3304   2.299   1.193   2.258 -0.2676 -0.4527 -0.6034
  827SOL     ow 3305   0.805   4.730   4.209  0.3465 -0.4056  0.0650
  827SOL     hw 3306   0.832   4.687   4.290 -1.0491  0.7108  1.1926
  827SOL     hw 3307   0.876   4.792   4.191  0.5181 -0.4269  0.6302
  827SOL     vw 3308   0.818   4.733   4.217  0.1850 -0.2611  0.2885
  828SOL     ow 3309   7.169   1.790   6.475  0.5119  0.2931 -0.6917
  828SOL     hw 3310   7.260   1.816   6.462  1.2357 -1.3783  0.5602
  828SOL     hw 3311   7.157   1.715   6.417  0.7231 -0.9796  0.8302
  828SOL     vw 3312   7.179   1.783   6.466  0.6351 -0.0953 -0.3259
  829SOL     ow 3313   0.242   2.859   7.009  0.0423 -0.2681  0.0400
  829SOL     hw 3314   0.335   2.845   7.026  0.7437  1.5548 -1.9317
  829SOL     hw 3315   0.202   2.774   7.026  2.0374 -1.0834  0.9871
  829SOL     vw 3316   0.249   2.846   7.014  0.3981 -0.1353 -0.0951
  830SOL     ow 3317   3.581   3.610   1.364  0.0572  0.0786  0.2019
  830SOL     hw 3318   3.491   3.598   1.335  0.4062 -2.2169 -0.1467
  830SOL     hw 3319   3.632   3.610   1.283  0.6342 -1.9802  0.5079
  830SOL     vw 3320   3.576   3.608   1.349  0.1793 -0.4958  0.1963
  831SOL     ow 3321   1.320   0.992   3.724  0.0473 -0.0800  0.2113
  831SOL     hw 3322   1.237   1.017   3.684 -0.2277  0.4499  1.0782
  831SOL     hw 3323   1.384   1.052   3.686  0.3015 -1.3420 -1.4560
  831SOL     vw 3324   1.317   1.004   3.714  0.0446 -0.1766  0.1057
  832SOL     ow 3325   5.166   6.457   1.653 -0.1485  0.3426  0.3810
  832SOL     hw 3326   5.157   6.552   1.663  1.1002  0.4028  1.1421
  832SOL     hw 3327   5.260   6.441   1.662 -0.3912 -1.0153  0.7126
  832SOL     vw 3328   5.177   6.468   1.656 -0.0157  0.1712  0.5252
  833SOL     ow 3329   1.120   3.452   5.845  0.0918 -0.2758  0.5036
  833SOL     hw 3330   1.046   3.485   5.895  0.3993  1.2793  0.0021
  833SOL     hw 3331   1.096   3.363   5.821 -1.6055  0.1962  0.3613
  833SOL     vw 3332   1.107   3.445   5.848 -0.0916 -0.0082  0.4189
  834SOL     ow 3333   6.013   4.417   5.367  0.2767 -0.2697  0.6695
  834SOL     hw 3334   5.972   4.370   5.294 -0.1253  0.4524  0.4126
  834SOL     hw 3335   6.099   4.376   5.377 -0.0490 -1.0348  0.4425
  834SOL     vw 3336   6.019   4.405   5.358  0.1807 -0.2751  0.6056
  835SOL     ow 3337   0.403   3.407   5.350  0.1149 -0.6991  0.0689
  835SOL     hw 3338   0.455   3.334   5.315  2.7859  1.1408 -0.0865
  835SOL     hw 3339   0.389   3.465   5.275 -0.9989 -0.4906  0.4225
  835SOL     vw 3340   0.408   3.405   5.335  0.3203 -0.4288  0.0949
  836SOL     ow 3341   7.050   6.786   4.321 -0.1439  0.2766 -0.2668
  836SOL     hw 3342   7.000   6.705   4.332 -0.2266  0.4851  1.1647
  836SOL     hw 3343   7.140   6.761   4.340 -0.3132  0.6930  1.2189
  836SOL     vw 3344   7.055   6.772   4.325 -0.1771  0.3595  0.1183
  837SOL     ow 3345   1.837   4.446   6.935  0.0871 -0.3985 -0.4480
  837SOL     hw 3346   1.914   4.444   6.878 -1.0313 -0.9943 -2.0308
  837SOL     hw 3347   1.824   4.538   6.954  1.7574 -0.3560  0.7087
  837SOL     vw 3348   1.845   4.458   6.930  0.1599 -0.4718 -0.5043
  838SOL     ow 3349   5.953   0.231   6.986 -0.1242 -0.2638 -0.6406
  838SOL     hw 3350   5.958   0.309   6.931  0.8867  1.1385  1.3496
  838SOL     hw 3351   5.953   0.264   7.076 -0.4510 -2.5214  0.2499
  838SOL     vw 3352   5.954   0.245   6.990 -0.0341 -0.3767 -0.2606
  839SOL     ow 3353   1.791   2.456   5.294  0.1803  0.0787  0.3040
  839SOL     hw 3354   1.793   2.402   5.373 -0.9035 -0.8315 -0.2638
  839SOL     hw 3355   1.856   2.416   5.236  1.2888  1.0042  0.8632
  839SOL     vw 3356   1.800   2.444   5.297  0.1836  0.0807  0.3033
  840SOL     ow 3357   3.922   1.143   5.683  0.6705 -0.3646 -0.0844
  840SOL     hw 3358   3.828   1.159   5.684  0.8169  0.7369 -1.0253
  840SOL     hw 3359   3.934   1.077   5.615  0.5006 -1.1892  0.6733
  840SOL     vw 3360   3.911   1.136   5.674  0.6673 -0.3280 -0.1085
  841SOL     ow 3361   2.520   2.714   5.049  0.1639  0.6550  0.4327
  841SOL     hw 3362   2.498   2.691   5.139  2.0934  0.4500  0.8922
  841SOL     hw 3363   2.506   2.809   5.044 -1.0625  0.4908  0.5957
  841SOL     vw 3364   2.515   2.724   5.060  0.2567  0.6063  0.5150
  842SOL     ow 3365   3.500   0.235   1.683 -0.4160 -0.3831 -0.2748
  842SOL     hw 3366   3.468   0.295   1.615 -1.0452 -0.4342 -0.0330
  842SOL     hw 3367   3.480   0.147   1.649  0.6389 -0.4693 -0.6957
  842SOL     vw 3368   3.493   0.231   1.670 -0.3598 -0.4012 -0.2985
  843SOL     ow 3369   4.231   1.105   5.957 -0.5377 -0.4938  0.0898
  843SOL     hw 3370   4.141   1.139   5.954  0.6293  2.8602 -2.2210
  843SOL     hw 3371   4.256   1.111   6.049 -1.2963  2.9008  0.2056
  843SOL     vw 3372   4.222   1.110   5.969 -0.4838  0.3967 -0.1998
  844SOL     ow 3373   1.139   6.666   6.737  0.6041 -0.6108  0.0440
  844SOL     hw 3374   1.118   6.730   6.669  1.9449  0.5431  0.6564
  844SOL     hw 3375   1.055   6.646   6.778  0.3015  2.0865  0.9537
  844SOL     vw 3376   1.125   6.672   6.733  0.7411 -0.1025  0.2449
  845SOL     ow 3377   5.601   6.851   4.256 -0.2057  0.0438 -0.1971
  845SOL     hw 3378   5.577   6.920   4.194  1.0771  0.0846 -0.6723
  845SOL     hw 3379   5.525   6.792   4.256 -1.7580  1.9158  0.9487
  845SOL     vw 3380   5.588   6.852   4.248 -0.2410  0.2961 -0.1087
  846SOL     ow 3381   4.447   4.556   3.541  0.0239  0.1345 -0.1762
  846SOL     hw 3382   4.431   4.472   3.585  0.3207  0.9235  1.5165
  846SOL     hw 3383   4.361   4.584   3.510 -0.1529 -0.5635 -0.3358
  846SOL     vw 3384   4.434   4.548   3.543  0.0398  0.1466  0.0261
  847SOL     ow 3385   2.307   3.989   7.191  0.4932 -0.0248 -0.1170
  847SOL     hw 3386   2.339   4.048   7.260  1.0487  1.0393 -1.2508
  847SOL     hw 3387   2.344   3.904   7.214 -0.7900 -0.1036  1.8719
  847SOL     vw 3388   2.316   3.986   7.203  0.3973  0.1053 -0.0045
  848SOL     ow 3389   0.226   2.335   4.391 -0.0197  0.3833  0.2847
  848SOL     hw 3390   0.206   2.393   4.318 -0.2905 -0.2282 -0.1388
  848SOL     hw 3391   0.280   2.265   4.353  2.7550  1.7887  1.3120
  848SOL     vw 3392   0.231   2.333   4.377  0.3107  0.4879  0.3643
  849SOL     ow 3393   3.773   2.846   5.177 -0.5218 -0.4146 -0.1286
  849SOL     hw 3394   3.795   2.908   5.108 -0.4476 -0.9357 -0.5863
  849SOL     hw 3395   3.782   2.760   5.135 -0.1078 -0.7527  0.6341
  849SOL     vw 3396   3.777   2.843   5.162 -0.4575 -0.5281 -0.0882
  850SOL     ow 3397   3.310   3.094   4.930  0.0767  0.0994 -0.0829
  850SOL     hw 3398   3.280   3.158   4.995  2.2117 -0.1693  1.2568
  850SOL     hw 3399   3.259   3.015   4.948 -3.6271  1.6257 -2.6520
  850SOL     vw 3400   3.299   3.092   4.941 -0.1303  0.2652 -0.2449
  851SOL     ow 3401   5.762   2.885   1.121 -0.3329 -0.4120  0.0020
  851SOL     hw 3402   5.791   2.921   1.038  3.6313 -1.4581  0.7205
  851SOL     hw 3403   5.802   2.941   1.187 -1.3435 -1.0622  1.2294
  851SOL     vw 3404   5.771   2.897   1.119  0.0565 -0.6357  0.2587
  852SOL     ow 3405   4.743   4.003   1.406  0.2321 -0.2368 -0.2415
  852SOL     hw 3406   4.652   4.003   1.435 -0.4031 -1.6233 -2.0474
  852SOL     hw 3407   4.743   4.053   1.325  0.9109 -0.9855 -0.7148
  852SOL     vw 3408   4.731   4.009   1.399  0.2377 -0.5188 -0.5422
  853SOL     ow 3409   2.934   4.724   5.679  0.0003 -0.0241  0.4874
  853SOL     hw 3410   2.876   4.721   5.603  0.5169 -1.9089  0.1083
  853SOL     hw 3411   2.954   4.632   5.697  0.3373  0.4070  2.5713
  853SOL     vw 3412   2.929   4.711   5.671  0.1129 -0.2158  0.7124
  854SOL     ow 3413   2.569   1.727   7.058 -0.0993 -0.1843 -0.1223
  854SOL     hw 3414   2.574   1.744   7.152 -1.8550  0.9137 -0.1940
  854SOL     hw 3415   2.600   1.808   7.017 -0.6214 -0.1617 -0.4786
  854SOL     vw 3416   2.574   1.740   7.065 -0.3997 -0.0365 -0.1791
  855SOL     ow 3417   4.073   5.494   0.255 -0.3395  0.5409 -0.4819
  855SOL     hw 3418   4.125   5.418   0.280  0.9847  1.4311 -0.4269
  855SOL     hw 3419   4.043   5.531   0.338  0.8258  1.2915 -0.3768
  855SOL     vw 3420   4.076   5.489   0.269 -0.0110  0.7575 -0.4608
  856SOL     ow 3421   4.902   5.507   0.910  0.5732 -0.2224 -0.6214
  856SOL     hw 3422   4.936   5.525   0.998  1.0113  1.5752 -1.1113
  856SOL     hw 3423   4.830   5.446   0.925 -0.3500  1.1948  1.1723
  856SOL     vw 3424   4.897   5.502   0.924  0.5093  0.2017 -0.4494
  857SOL     ow 3425   6.652   4.983   4.266 -0.1202 -0.9173  0.2895
  857SOL     hw 3426   6.687   4.963   4.353 -0.4715 -1.4537  0.3100
  857SOL     hw 3427   6.723   5.028   4.221  0.4902 -1.7204  0.4324
  857SOL     vw 3428   6.666   4.987   4.272 -0.0861 -1.0941  0.3109
  858SOL     ow 3429   2.785   1.147   2.924 -0.2669 -0.6952  0.0045
  858SOL     hw 3430   2.740   1.091   2.860 -1.2094 -0.1649  0.1890
  858SOL     hw 3431   2.793   1.232   2.880 -0.3013 -0.5210  0.3286
  858SOL     vw 3432   2.780   1.151   2.909 -0.3957 -0.6022  0.0716
  859SOL     ow 3433   0.301   2.418   4.695  0.2582  0.0108  0.2264
  859SOL     hw 3434   0.318   2.473   4.772  1.1120 -2.4374  1.9330
  859SOL     hw 3435   0.388   2.400   4.659  0.1108 -1.0498  0.3671
  859SOL     vw 3436   0.315   2.422   4.701  0.3514 -0.4523  0.4699
  860SOL     ow 3437   0.659   5.429   4.263  0.2418 -0.1310  0.1059
  860SOL     hw 3438   0.647   5.391   4.349  2.8708 -0.3235  0.4692
  860SOL     hw 3439   0.688   5.356   4.208 -1.2523  0.0170 -0.9477
  860SOL     vw 3440   0.662   5.414   4.267  0.3916 -0.1369  0.0150
  861SOL     ow 3441   5.976   2.065   1.524  0.2955  0.2182  0.1724
  861SOL     hw 3442   6.065   2.075   1.489  1.3684 -1.4079  2.1653
  861SOL     hw 3443   5.920   2.061   1.446  2.4204 -2.3797 -1.4296
  861SOL     vw 3444   5.981   2.066   1.509  0.7174 -0.3392  0.2240
  862SOL     ow 3445   0.650   0.743   1.739  0.0508  0.1382  0.1959
  862SOL     hw 3446   0.636   0.791   1.658 -2.8984  0.6294  0.8815
  862SOL     hw 3447   0.686   0.808   1.799 -1.2760  0.7964  0.3097
  862SOL     vw 3448   0.653   0.758   1.736 -0.5134  0.2899  0.3014
  863SOL     ow 3449   2.510   0.495   5.652 -0.0196 -0.3835  1.0074
  863SOL     hw 3450   2.499   0.487   5.747  0.7278  0.3162  1.1634
  863SOL     hw 3451   2.431   0.456   5.616  0.0958 -1.5013  1.8927
  863SOL     vw 3452   2.498   0.489   5.660  0.0944 -0.4387  1.1449
  864SOL     ow 3453   3.362   0.170   0.188 -0.0607 -0.5507 -0.1039
  864SOL     hw 3454   3.299   0.115   0.142  0.2954 -0.8280 -0.2674
  864SOL     hw 3455   3.313   0.249   0.210 -1.5980 -2.1915  3.0448
  864SOL     vw 3456   3.347   0.173   0.185 -0.2165 -0.8038  0.2900
  865SOL     ow 3457   3.825   4.997   0.407  0.8859 -0.5737  0.1773
  865SOL     hw 3458   3.743   5.044   0.394  2.1713  1.8791  0.3543
  865SOL     hw 3459   3.829   4.935   0.334 -0.0466  0.9107 -1.1950
  865SOL     vw 3460   3.814   4.995   0.396  0.9325 -0.0544  0.0196
  866SOL     ow 3461   6.093   2.587   6.020  0.5392  0.1401  0.0213
  866SOL     hw 3462   6.169   2.531   6.038  0.0068 -0.5804  0.0675
  866SOL     hw 3463   6.084   2.641   6.098 -0.2898 -1.2829  0.9638
  866SOL     vw 3464   6.102   2.586   6.033  0.3598 -0.1428  0.1516
  867SOL     ow 3465   3.362   3.678   0.879 -0.6560  0.0625  0.1818
  867SOL     hw 3466   3.404   3.640   0.801 -3.1716 -0.7627 -0.8578
  867SOL     hw 3467   3.391   3.622   0.951  1.2990  0.5194 -0.1925
  867SOL     vw 3468   3.372   3.666   0.878 -0.7299  0.0137 -0.0048
  868SOL     ow 3469   6.285   1.202   2.980 -0.6365  0.2176 -0.3563
  868SOL     hw 3470   6.333   1.157   3.050  0.2109 -0.5070 -1.3670
  868SOL     hw 3471   6.280   1.138   2.909 -3.2620  0.2292 -0.2665
  868SOL     vw 3472   6.291   1.188   2.980 -0.8709  0.1235 -0.4777
  869SOL     ow 3473   6.553   3.052   7.106  0.4664 -0.0496  0.9828
  869SOL     hw 3474   6.599   3.083   7.185  1.1910  0.9363  0.1972
  869SOL     hw 3475   6.601   3.092   7.034 -0.4025 -0.6702  0.0472
  869SOL     vw 3476   6.566   3.062   7.107  0.4473 -0.0014  0.7558
  870SOL     ow 3477   1.291   2.353   6.978  0.6216 -0.4934  0.4349
  870SOL     hw 3478   1.367   2.369   6.922  0.2280  0.6905  0.2018
  870SOL     hw 3479   1.231   2.425   6.958  0.9650  0.7184  3.2848
  870SOL     vw 3480   1.293   2.365   6.968  0.6150 -0.1773  0.7803
  871SOL     ow 3481   2.929   5.184   3.509 -0.0347  0.3731 -0.1798
  871SOL     hw 3482   2.893   5.267   3.478  1.6380  0.6562 -1.5503
  871SOL     hw 3483   2.984   5.208   3.583 -2.8995 -0.1299  2.3111
  871SOL     vw 3484   2.932   5.198   3.514 -0.1919  0.3443 -0.0319
  872SOL     ow 3485   0.437   2.123   0.187 -0.6567 -0.1131 -0.2036
  872SOL     hw 3486   0.461   2.151   0.098  1.5547  0.7641  0.5949
  872SOL     hw 3487   0.345   2.146   0.196 -0.2427  2.2750 -1.3699
  872SOL     vw 3488   0.428   2.130   0.176 -0.3103  0.3177 -0.2521
  873SOL     ow 3489   2.025   3.566   5.265 -0.0315  0.1402  0.0963
  873SOL     hw 3490   2.091   3.630   5.292 -0.7161  0.9024 -0.0044
  873SOL     hw 3491   2.004   3.591   5.175  1.0717 -1.4063 -0.6349
  873SOL     vw 3492   2.031   3.578   5.257  0.0237  0.0367 -0.0134
  874SOL     ow 3493   1.711   3.551   6.684  0.1843 -0.2749 -0.6167
  874SOL     hw 3494   1.788   3.550   6.627 -0.3524  0.1400 -1.3693
  874SOL     hw 3495   1.645   3.501   6.635 -0.9386  1.7771 -1.3344
  874SOL     vw 3496   1.712   3.544   6.670 -0.0346  0.0505 -0.8106
  875SOL     ow 3497   0.278   0.617   3.746  0.2350  1.1416  0.0074
  875SOL     hw 3498   0.239   0.694   3.705 -2.1560  1.2735  2.2694
  875SOL     hw 3499   0.216   0.546   3.729 -0.1986  0.9268  2.1177
  875SOL     vw 3500   0.265   0.617   3.738 -0.1377  1.1306  0.5842
  876SOL     ow 3501   2.880   0.014   1.312  0.4691 -0.1273 -0.4150
  876SOL     hw 3502   2.883  -0.055   1.246  1.1363  0.0426 -0.5709
  876SOL     hw 3503   2.922   0.089   1.271  0.0786  0.2640 -0.1163
  876SOL     vw 3504   2.886   0.015   1.298  0.5056 -0.0532 -0.3961
  877SOL     ow 3505   1.711   3.142   3.810  0.1384 -0.1985  0.1726
  877SOL     hw 3506   1.680   3.158   3.899  0.6572 -0.8036  0.4706
  877SOL     hw 3507   1.673   3.057   3.787  1.9455 -1.2063  0.7444
  877SOL     vw 3508   1.702   3.133   3.819  0.4453 -0.4113  0.2874
  878SOL     ow 3509   6.384   6.037   5.838 -0.4358 -0.0991 -0.4142
  878SOL     hw 3510   6.391   6.118   5.888 -2.7345 -0.3874  0.5096
  878SOL     hw 3511   6.462   6.036   5.782 -0.1745  2.5535 -0.2139
  878SOL     vw 3512   6.395   6.047   5.837 -0.7048  0.2129 -0.2658
  879SOL     ow 3513   6.226   3.433   2.884  0.0646 -0.5826  0.2240
  879SOL     hw 3514   6.149   3.386   2.915 -0.7183  0.8156  0.4763
  879SOL     hw 3515   6.218   3.520   2.922  0.8052  0.1621 -1.2341
  879SOL     vw 3516   6.215   3.438   2.893  0.0594 -0.2999  0.0650
  880SOL     ow 3517   3.265   2.924   4.613  0.3177 -0.6628  0.0180
  880SOL     hw 3518   3.329   2.914   4.543  0.3770 -1.0698  0.1248
  880SOL     hw 3519   3.284   2.851   4.673 -0.1334 -0.6819  0.1388
  880SOL     vw 3520   3.276   2.913   4.612  0.2661 -0.7190  0.0479
  881SOL     ow 3521   0.406   3.521   2.427  0.7110  0.3050  0.2614
  881SOL     hw 3522   0.489   3.522   2.379  0.0719 -0.4425 -0.9156
  881SOL     hw 3523   0.370   3.609   2.412  0.0805 -0.2031 -1.5032
  881SOL     vw 3524   0.412   3.533   2.419  0.5435  0.1392 -0.1266
  882SOL     ow 3525   2.998   0.952   2.004 -0.8366 -0.4641 -0.3347
  882SOL     hw 3526   2.970   1.004   1.929 -0.1213  0.2611 -0.1110
  882SOL     hw 3527   2.921   0.949   2.061 -1.0551 -0.1315 -0.6097
  882SOL     vw 3528   2.984   0.958   2.002 -0.7710 -0.3246 -0.3414
  883SOL     ow 3529   5.581   3.323   4.527  0.0169 -0.0621  0.4056
  883SOL     hw 3530   5.668   3.351   4.552  0.1384  0.7718 -0.8818
  883SOL     hw 3531   5.590   3.229   4.509  1.0909  0.3365 -1.4200
  883SOL     vw 3532   5.593   3.314   4.528  0.1745  0.1005 -0.0050
  884SOL     ow 3533   6.959   3.784   2.166 -0.2698  0.4583 -0.0387
  884SOL     hw 3534   6.867   3.794   2.141 -0.2797  0.9043  0.1609
  884SOL     hw 3535   7.007   3.829   2.097  0.0203 -2.3959 -1.8426
  884SOL     vw 3536   6.953   3.791   2.154 -0.2329  0.1407 -0.2503
  885SOL     ow 3537   2.717   1.770   6.495  0.3885  0.2880  0.8018
  885SOL     hw 3538   2.673   1.810   6.420  0.0575 -0.1078  0.7850
  885SOL     hw 3539   2.792   1.723   6.456  0.6362  0.6805  0.7972
  885SOL     vw 3540   2.721   1.769   6.480  0.3773  0.2875  0.7989
  886SOL     ow 3541   2.012   1.001   5.522 -0.3793  0.0355  0.1597
  886SOL     hw 3542   2.106   0.999   5.536 -0.3199 -1.5428 -0.2522
  886SOL     hw 3543   2.000   1.053   5.443  0.1200  0.4059  0.3242
  886SOL     vw 3544   2.023   1.007   5.513 -0.3058 -0.1238  0.1271
  887SOL     ow 3545   6.384   2.906   2.025  0.0382  0.8086  0.2373
  887SOL     hw 3546   6.365   2.819   2.062  2.2421  0.2558  0.1787
  887SOL     hw 3547   6.479   2.911   2.023 -0.0002  2.1380 -2.3105
  887SOL     vw 3548   6.394   2.895   2.030  0.3240  0.9111 -0.1065
  888SOL     ow 3549   6.701   3.576   4.123  0.1644 -0.3117  0.3778
  888SOL     hw 3550   6.607   3.568   4.105  0.4062 -0.9791 -0.6709
  888SOL     hw 3551   6.723   3.497   4.173  0.4070 -0.8277 -0.5146
  888SOL     vw 3552   6.692   3.564   4.127  0.2284 -0.4678  0.1218
  889SOL     ow 3553   0.235   3.457   0.653 -0.0519 -0.3823 -0.6725
  889SOL     hw 3554   0.183   3.501   0.585 -0.5107 -1.0251 -0.7491
  889SOL     hw 3555   0.324   3.459   0.620 -0.3735 -1.3241 -1.6415
  889SOL     vw 3556   0.240   3.463   0.640 -0.1549 -0.5914 -0.8104
  890SOL     ow 3557   0.838   0.201   6.676 -0.1405 -0.5761  0.4034
  890SOL     hw 3558   0.744   0.192   6.693 -0.4257 -1.1163 -1.2890
  890SOL     hw 3559   0.866   0.272   6.733 -2.0576  1.1904 -0.7129
  890SOL     vw 3560   0.829   0.209   6.686 -0.4311 -0.4143  0.0329
  891SOL     ow 3561   1.278   2.974   6.448 -0.3874  0.4462 -0.1676
  891SOL     hw 3562   1.313   2.886   6.436 -1.7024 -0.1107 -0.0510
  891SOL     hw 3563   1.260   2.981   6.542  0.1231  1.0140 -0.1029
  891SOL     vw 3564   1.280   2.963   6.459 -0.4935  0.4476 -0.1438
  892SOL     ow 3565   2.580   4.197   6.502 -0.2019 -0.6131 -0.0543
  892SOL     hw 3566   2.505   4.182   6.443 -2.2731 -0.7285  2.4269
  892SOL     hw 3567   2.543   4.248   6.574  2.7626  1.5647  0.1051
  892SOL     vw 3568   2.565   4.202   6.504 -0.0840 -0.3409  0.2944
  893SOL     ow 3569   5.922   2.949   1.351 -0.6247  0.0091  0.2407
  893SOL     hw 3570   5.930   3.044   1.364  0.0869 -0.2500  1.9380
  893SOL     hw 3571   5.852   2.923   1.410  1.0013 -0.8721  1.8947
  893SOL     vw 3572   5.914   2.958   1.360 -0.3164 -0.1414  0.6829
  894SOL     ow 3573   3.880   2.072   0.356  0.2051 -0.1634  0.5254
  894SOL     hw 3574   3.913   2.154   0.393 -1.9531  0.7478  0.6188
  894SOL     hw 3575   3.784   2.080   0.362 -0.0901 -2.5084  0.1167
  894SOL     vw 3576   3.872   2.084   0.362 -0.1186 -0.3525  0.4838
  895SOL     ow 3577   4.207   6.737   4.349  0.5204  0.2675 -0.2688
  895SOL     hw 3578   4.208   6.790   4.428 -1.5266  1.1578 -0.7692
  895SOL     hw 3579   4.174   6.796   4.281 -1.3500 -1.4497 -0.9548
  895SOL     vw 3580   4.203   6.752   4.350  0.0036  0.1581 -0.4253
  896SOL     ow 3581   3.144   0.705   1.098 -0.2697  0.3178  0.0426
  896SOL     hw 3582   3.105   0.735   1.179 -0.7283  1.4775 -0.5852
  896SOL     hw 3583   3.196   0.629   1.123 -0.1756  0.8246  1.4525
  896SOL     vw 3584   3.145   0.699   1.112 -0.3179  0.5377  0.1459
  897SOL     ow 3585   5.073   0.259   3.817  0.0278  0.1011  0.6813
  897SOL     hw 3586   5.061   0.329   3.753 -1.4654 -0.0138  0.7968
  897SOL     hw 3587   5.153   0.214   3.789  0.9648  1.7781  0.5682
  897SOL     vw 3588   5.082   0.262   3.805 -0.0458  0.3072  0.6816
  898SOL     ow 3589   3.597   4.794   2.247  0.3060 -0.4762 -0.2052
  898SOL     hw 3590   3.566   4.719   2.197 -1.3769 -0.0741  0.1553
  898SOL     hw 3591   3.600   4.866   2.183 -0.5407 -0.2755 -0.0277
  898SOL     vw 3592   3.593   4.794   2.232 -0.0278 -0.3970 -0.1341
  899SOL     ow 3593   0.656   5.739   4.324 -0.3243  0.1201 -0.1102
  899SOL     hw 3594   0.604   5.724   4.403 -0.6292 -1.5529 -0.5905
  899SOL     hw 3595   0.737   5.780   4.355 -0.9631  0.6545  0.9003
  899SOL     vw 3596   0.660   5.743   4.338 -0.4488 -0.0300 -0.0403
  900SOL     ow 3597   3.120   5.510   5.762  0.5330  0.3118 -1.2221
  900SOL     hw 3598   3.170   5.428   5.751 -2.1947 -1.2897 -2.6939
  900SOL     hw 3599   3.176   5.564   5.818  2.7969 -2.2646 -0.7530
  900SOL     vw 3600   3.134   5.506   5.768  0.4717 -0.2391 -1.3545
  901SOL     ow 3601   0.895   3.008   4.241 -0.0332  0.0446  0.2059
  901SOL     hw 3602   0.979   2.963   4.237 -0.5892 -0.9116 -0.9359
  901SOL     hw 3603   0.834   2.943   4.275 -0.0756  1.1462  2.4206
  901SOL     vw 3604   0.898   2.994   4.245 -0.1121  0.0637  0.3474
  902SOL     ow 3605   6.340   4.201   6.555  0.7097  0.6965 -0.6483
  902SOL     hw 3606   6.280   4.213   6.481 -2.7873 -0.1553  1.8575
  902SOL     hw 3607   6.334   4.108   6.577  2.3382  0.7665  0.2622
  902SOL     vw 3608   6.331   4.191   6.548  0.4630  0.5932 -0.1974
  903SOL     ow 3609   1.554   3.874   7.134 -0.0356  0.1430  0.1603
  903SOL     hw 3610   1.551   3.921   7.051  3.2170 -1.4071 -1.0539
  903SOL     hw 3611   1.596   3.935   7.195  1.6371 -0.1250 -0.6471
  903SOL     vw 3612   1.559   3.888   7.131  0.6143 -0.0969 -0.1066
  904SOL     ow 3613   0.607   4.529   4.139 -0.1459 -0.2811 -0.0193
  904SOL     hw 3614   0.621   4.464   4.208  0.2365  1.4313  1.6179
  904SOL     hw 3615   0.539   4.491   4.083  0.3626 -2.2378  0.6040
  904SOL     vw 3616   0.600   4.516   4.141 -0.0284 -0.3135  0.2789
  905SOL     ow 3617   4.238   6.825   2.417 -0.1811  0.6656 -0.0507
  905SOL     hw 3618   4.162   6.820   2.359 -0.5417 -0.2801  0.4619
  905SOL     hw 3619   4.298   6.759   2.383 -0.6282 -0.2892  0.9366
  905SOL     vw 3620   4.236   6.815   2.405 -0.2875  0.4151  0.1471
  906SOL     ow 3621   2.884   3.261   1.696 -0.5333  0.6604  0.1824
  906SOL     hw 3622   2.942   3.186   1.714  0.0032  1.4410  1.8877
  906SOL     hw 3623   2.942   3.337   1.703 -1.2615  1.3041 -0.6540
  906SOL     vw 3624   2.900   3.261   1.699 -0.5586  0.8482  0.2971
  907SOL     ow 3625   5.066   1.989   6.278  0.2977 -0.4770 -0.9496
  907SOL     hw 3626   4.990   2.002   6.222 -1.7325  4.2604  2.3054
  907SOL     hw 3627   5.037   1.928   6.345 -0.1009  0.1023 -0.5925
  907SOL     vw 3628   5.052   1.982   6.279 -0.0229  0.2245 -0.4730
  908SOL     ow 3629   2.724   4.258   0.486  0.5795 -0.3627  0.5071
  908SOL     hw 3630   2.656   4.194   0.505 -0.8243  1.0850  0.4972
  908SOL     hw 3631   2.755   4.286   0.572  1.8146 -1.6252  0.5189
  908SOL     vw 3632   2.719   4.253   0.500  0.5573 -0.3381  0.5073
  909SOL     ow 3633   2.201   4.172   3.261 -0.4299  0.3394 -0.1895
  909SOL     hw 3634   2.289   4.178   3.223 -0.4598  1.1694 -0.1398
  909SOL     hw 3635   2.184   4.259   3.296 -0.9997 -0.0135  0.4220
  909SOL     vw 3636   2.211   4.184   3.261 -0.5090  0.4022 -0.1022
  910SOL     ow 3637   7.190   3.106   2.293 -0.0993 -0.2333  0.2374
  910SOL     hw 3638   7.103   3.112   2.333 -0.0416  0.0844  0.3162
  910SOL     hw 3639   7.248   3.082   2.366 -0.1223 -0.4556  0.1828
  910SOL     vw 3640   7.186   3.104   2.308 -0.0949 -0.2208  0.2407
  911SOL     ow 3641   1.875   4.133   4.654  0.5114  0.3912  0.4681
  911SOL     hw 3642   1.858   4.054   4.603  0.7010 -0.0349  1.0660
  911SOL     hw 3643   1.942   4.108   4.717  0.4429  0.9776  0.7825
  911SOL     vw 3644   1.882   4.119   4.655  0.5274  0.4122  0.5884
  912SOL     ow 3645   5.543   2.708   1.292  0.2489 -0.3699  0.1292
  912SOL     hw 3646   5.594   2.720   1.371  0.8875 -1.3730 -0.1043
  912SOL     hw 3647   5.523   2.614   1.290  1.3192 -0.6186 -1.5051
  912SOL     vw 3648   5.547   2.697   1.302  0.4747 -0.5351 -0.1172
  913SOL     ow 3649   0.932   1.281   3.515 -0.1300  0.3110 -0.6038
  913SOL     hw 3650   0.978   1.220   3.572 -1.5149  0.4378  0.7181
  913SOL     hw 3651   0.855   1.232   3.485 -0.8427  1.1376 -0.1517
  913SOL     vw 3652   0.928   1.266   3.519 -0.4067  0.4368 -0.3699
  914SOL     ow 3653   1.182   3.783   2.580 -0.0553 -0.4324  0.0337
  914SOL     hw 3654   1.249   3.827   2.527 -0.6047  0.4365  0.0370
  914SOL     hw 3655   1.117   3.754   2.517 -0.9356  1.0031  0.2371
  914SOL     vw 3656   1.183   3.785   2.564 -0.2440 -0.1283  0.0610
  915SOL     ow 3657   7.045   2.921   4.288  0.1594  0.2141 -0.0902
  915SOL     hw 3658   7.002   3.006   4.295 -0.4673 -0.1049  0.0349
  915SOL     hw 3659   6.991   2.873   4.224  2.4533  1.0928 -2.9027
  915SOL     vw 3660   7.032   2.926   4.280  0.3796  0.2879 -0.4449
  916SOL     ow 3661   0.107   6.428   4.356 -0.8171 -0.4543 -0.2257
  916SOL     hw 3662   0.129   6.521   4.364  0.0628 -0.6936  0.2710
  916SOL     hw 3663   0.012   6.427   4.340 -1.1552  0.4720  1.4495
  916SOL     vw 3664   0.097   6.440   4.355 -0.7456 -0.3638  0.0610
  917SOL     ow 3665   0.296   5.014   0.393  0.7052 -0.1124 -0.2776
  917SOL     hw 3666   0.344   5.083   0.438 -0.9700  1.6706 -1.0733
  917SOL     hw 3667   0.223   4.993   0.451  1.2242 -1.3152 -0.0166
  917SOL     vw 3668   0.293   5.020   0.406  0.5527 -0.0360 -0.3482
  918SOL     ow 3669   4.141   6.848   2.687  0.2867 -0.2525 -1.2216
  918SOL     hw 3670   4.063   6.903   2.692 -0.6401 -1.5328 -0.9733
  918SOL     hw 3671   4.177   6.864   2.600  3.1653  4.7150  0.4801
  918SOL     vw 3672   4.135   6.857   2.676  0.5443  0.2337 -0.9644
  919SOL     ow 3673   4.658   2.320   5.925 -0.5234 -0.3902 -0.3276
  919SOL     hw 3674   4.650   2.361   5.839 -1.2161  1.5350  0.6043
  919SOL     hw 3675   4.735   2.263   5.917  0.6936  1.3256 -1.6190
  919SOL     vw 3676   4.667   2.318   5.913 -0.4539  0.0902 -0.3753
  920SOL     ow 3677   2.877   4.231   0.228 -0.2502  0.2352 -0.2087
  920SOL     hw 3678   2.899   4.148   0.187  0.3829 -0.2931  1.1192
  920SOL     hw 3679   2.961   4.266   0.257 -0.8050 -1.0277  3.5183
  920SOL     vw 3680   2.891   4.225   0.227 -0.2397 -0.0012  0.4582
  921SOL     ow 3681   6.658   0.563   2.035 -0.6795  0.3042 -0.0311
  921SOL     hw 3682   6.668   0.547   2.129 -0.0048  0.1946 -0.1112
  921SOL     hw 3683   6.615   0.484   2.002 -0.1077 -0.0484  0.0517
  921SOL     vw 3684   6.654   0.550   2.043 -0.5152  0.2432 -0.0308
  922SOL     ow 3685   2.012   4.832   1.708  0.6328  0.0939  0.3232
  922SOL     hw 3686   2.005   4.869   1.621  1.4765 -1.1795 -0.3187
  922SOL     hw 3687   1.989   4.739   1.698 -3.0110  0.5980  2.1549
  922SOL     vw 3688   2.008   4.824   1.695  0.2633 -0.0079  0.4802
  923SOL     ow 3689   5.189   0.979   1.145 -0.3741 -0.3975  0.3503
  923SOL     hw 3690   5.153   1.063   1.173 -0.8822 -0.1948 -0.8588
  923SOL     hw 3691   5.264   1.001   1.091  0.0149 -0.7555  0.7343
  923SOL     vw 3692   5.194   0.993   1.142 -0.3901 -0.4179  0.2415
  924SOL     ow 3693   4.874   6.358   1.689 -0.4304  0.1112 -0.1897
  924SOL     hw 3694   4.836   6.429   1.740 -1.9254  0.3518 -1.5636
  924SOL     hw 3695   4.819   6.282   1.708 -0.9125  0.1699 -1.3253
  924SOL     vw 3696   4.862   6.357   1.698 -0.6914  0.1507 -0.5208
  925SOL     ow 3697   2.964   3.891   1.876  0.7747  0.0792 -0.2374
  925SOL     hw 3698   3.047   3.850   1.902  0.1059 -1.4358 -0.4108
  925SOL     hw 3699   2.899   3.853   1.935  0.2760  1.8145  0.4083
  925SOL     vw 3700   2.967   3.881   1.887  0.6207  0.1082 -0.1751
  926SOL     ow 3701   0.290   1.297   1.798 -0.2208 -0.2501 -0.4186
  926SOL     hw 3702   0.279   1.208   1.834 -1.6149 -0.9914 -2.4685
  926SOL     hw 3703   0.202   1.322   1.771  0.3685  1.2693 -1.0170
  926SOL     vw 3704   0.277   1.288   1.799 -0.3270 -0.1475 -0.7681
  927SOL     ow 3705   2.203   6.817   4.481 -0.3177  0.8599  0.6270
  927SOL     hw 3706   2.256   6.895   4.495 -2.0171  1.6836  3.2642
  927SOL     hw 3707   2.129   6.828   4.540 -1.1864 -2.2715  0.2821
  927SOL     vw 3708   2.200   6.829   4.490 -0.6565  0.5553  0.9294
  928SOL     ow 3709   6.014   6.925   3.540  0.6157 -0.1420  0.1359
  928SOL     hw 3710   6.077   6.993   3.518  1.2229 -0.8961 -0.5152
  928SOL     hw 3711   5.940   6.941   3.480  1.4368 -0.9962 -1.1615
  928SOL     vw 3712   6.012   6.936   3.529  0.8039 -0.3543 -0.1214
  929SOL     ow 3713   1.547   4.146   6.269  0.3055 -0.3127 -0.9569
  929SOL     hw 3714   1.458   4.158   6.302  1.1540 -0.3673  1.6233
  929SOL     hw 3715   1.560   4.217   6.207 -1.8069 -0.8397 -2.0754
  929SOL     vw 3716   1.537   4.157   6.265  0.1388 -0.3893 -0.7641
  930SOL     ow 3717   6.669   4.326   1.534 -0.5276 -0.0058  0.8503
  930SOL     hw 3718   6.753   4.292   1.505 -0.2023  0.6478  1.0058
  930SOL     hw 3719   6.690   4.405   1.584 -1.3187  1.5463 -1.0945
  930SOL     vw 3720   6.683   4.332   1.536 -0.5891  0.2851  0.6142
  931SOL     ow 3721   5.028   0.845   5.314  0.0017 -0.0336  0.6924
  931SOL     hw 3722   5.010   0.846   5.408  0.0011 -0.4586  0.6991
  931SOL     hw 3723   4.988   0.926   5.281  0.5755  0.4513  1.1616
  931SOL     vw 3724   5.020   0.856   5.322  0.0772 -0.0257  0.7548
  932SOL     ow 3725   1.766   4.282   1.857  0.3104 -0.3181 -0.5747
  932SOL     hw 3726   1.850   4.249   1.890  1.1767  0.9846 -1.3492
  932SOL     hw 3727   1.703   4.265   1.927  1.8813  1.5828  1.4599
  932SOL     vw 3728   1.769   4.276   1.870  0.6319  0.1049 -0.4084
  933SOL     ow 3729   0.055   4.518   5.461 -0.0320  0.4465  0.2517
  933SOL     hw 3730   0.005   4.548   5.385  0.5597  1.4959  0.2604
  933SOL     hw 3731   0.120   4.458   5.424 -1.6312 -1.4233  0.3118
  933SOL     vw 3732   0.057   4.514   5.446 -0.1649  0.3383  0.2606
  934SOL     ow 3733   1.115   0.207   5.701 -0.4456 -0.2234  0.5541
  934SOL     hw 3734   1.154   0.126   5.734 -2.2194  0.3244  4.5634
  934SOL     hw 3735   1.134   0.272   5.769 -2.7445  1.6317 -0.4492
  934SOL     vw 3736   1.123   0.205   5.714 -0.9829  0.0936  0.9508
  935SOL     ow 3737   6.729   4.007   1.828  0.4142  0.1867 -0.3331
  935SOL     hw 3738   6.713   3.921   1.867  0.9441  0.5047  0.6254
  935SOL     hw 3739   6.735   3.990   1.734 -0.3579 -0.6843 -0.2387
  935SOL     vw 3740   6.728   3.994   1.821  0.3824  0.1137 -0.1942
  936SOL     ow 3741   4.293   4.715   2.937 -0.1430  0.6210 -0.5529
  936SOL     hw 3742   4.257   4.633   2.906  0.8355 -0.1744  0.3276
  936SOL     hw 3743   4.281   4.712   3.032 -0.6240  1.7624 -0.5642
  936SOL     vw 3744   4.287   4.704   2.946 -0.0772  0.6664 -0.4383
  937SOL     ow 3745   3.900   6.306   5.997 -0.2874  0.1358  0.4006
  937SOL     hw 3746   3.853   6.385   6.026  1.9568  1.1739  1.4506
  937SOL     hw 3747   3.939   6.331   5.914  0.4308  0.1472  0.7352
  937SOL     vw 3748   3.899   6.320   5.990  0.1035  0.2744  0.5834
  938SOL     ow 3749   3.458   4.125   2.176  0.5702  0.4462  0.1485
  938SOL     hw 3750   3.466   4.036   2.141  0.1559  0.0789  0.9484
  938SOL     hw 3751   3.548   4.157   2.181  0.7068  0.1593 -0.3539
  938SOL     vw 3752   3.471   4.117   2.172  0.5335  0.3598  0.1878
  939SOL     ow 3753   6.087   7.023   2.084 -0.2332  0.0865 -0.5027
  939SOL     hw 3754   6.147   6.969   2.033  0.7445  0.9127 -0.2471
  939SOL     hw 3755   6.006   7.024   2.032 -0.1433 -1.2758 -0.7067
  939SOL     vw 3756   6.084   7.016   2.070 -0.0923  0.0160 -0.4959
  940SOL     ow 3757   0.683   4.347   4.347 -0.2640 -0.3136  0.5791
  940SOL     hw 3758   0.732   4.269   4.320  1.8824  0.6682  1.3785
  940SOL     hw 3759   0.640   4.322   4.429 -0.2364 -0.8835  0.4225
  940SOL     vw 3760   0.684   4.334   4.354  0.0229 -0.2592  0.6640
  941SOL     ow 3761   6.092   3.141   4.730 -0.1566  0.0327 -0.6528
  941SOL     hw 3762   6.145   3.084   4.673  0.1867 -0.3962  0.0844
  941SOL     hw 3763   6.148   3.217   4.746 -0.1533  0.0363 -0.6807
  941SOL     vw 3764   6.107   3.143   4.724 -0.1109 -0.0235 -0.5593
  942SOL     ow 3765   6.978   2.776   5.831  0.2932 -0.7599  0.2427
  942SOL     hw 3766   6.977   2.747   5.740  0.9353  1.1617 -0.4158
  942SOL     hw 3767   7.069   2.798   5.849  0.4893 -2.5842  1.9013
  942SOL     vw 3768   6.990   2.775   5.822  0.4039 -0.7471  0.3746
  943SOL     ow 3769   4.007   1.900   0.524 -0.1763  0.2411 -0.2678
  943SOL     hw 3770   4.099   1.920   0.507 -0.3054  0.0048 -1.3252
  943SOL     hw 3771   3.958   1.964   0.473 -0.6461  1.3028  1.4160
  943SOL     vw 3772   4.013   1.911   0.515 -0.2556  0.3501 -0.1852
  944SOL     ow 3773   3.629   1.233   3.638 -0.1915 -0.3504  0.1629
  944SOL     hw 3774   3.601   1.311   3.589  0.9149 -0.7416 -1.1430
  944SOL     hw 3775   3.636   1.165   3.571  1.8302 -0.7796  0.7687
  944SOL     vw 3776   3.626   1.234   3.622  0.2211 -0.4586  0.0706
  945SOL     ow 3777   6.961   5.972   5.544  0.5318  0.2750  0.1329
  945SOL     hw 3778   6.965   5.877   5.558  2.6696  0.6084  2.5465
  945SOL     hw 3779   7.053   6.000   5.543 -0.0624  2.3828 -0.0434
  945SOL     vw 3780   6.974   5.963   5.545  0.7355  0.5972  0.4280
  946SOL     ow 3781   0.984   0.896   2.707 -0.6638 -0.4270 -0.3629
  946SOL     hw 3782   1.047   0.870   2.640 -0.4477  1.8908 -1.1453
  946SOL     hw 3783   0.961   0.814   2.751  3.3169 -1.3938  0.3683
  946SOL     vw 3784   0.989   0.882   2.704 -0.1101 -0.2488 -0.3698
  947SOL     ow 3785   1.253   3.127   3.630 -0.1788 -0.3024  0.2517
  947SOL     hw 3786   1.251   3.036   3.660  0.1317 -0.2350  0.4775
  947SOL     hw 3787   1.248   3.121   3.534 -0.4540 -0.5450  0.2816
  947SOL     vw 3788   1.252   3.114   3.621 -0.1742 -0.3257  0.2854
  948SOL     ow 3789   0.608   4.445   0.784 -0.3905  0.0352  0.8481
  948SOL     hw 3790   0.623   4.403   0.699 -3.4193 -2.4541  1.3843
  948SOL     hw 3791   0.673   4.405   0.841 -1.0952 -1.5517  0.5958
  948SOL     vw 3792   0.619   4.435   0.780 -0.8831 -0.5028  0.8856
  949SOL     ow 3793   4.262   1.391   4.367  0.5234 -0.0716  0.9366
  949SOL     hw 3794   4.207   1.329   4.319  0.1199  0.9143  0.0869
  949SOL     hw 3795   4.282   1.346   4.450  1.7962 -2.1023 -0.3828
  949SOL     vw 3796   4.257   1.377   4.372  0.6378 -0.2094  0.6504
  950SOL     ow 3797   4.737   2.697   3.560  0.1947  0.3596  0.4161
  950SOL     hw 3798   4.797   2.749   3.613 -0.6529  0.5370  1.2503
  950SOL     hw 3799   4.738   2.739   3.474  4.6352 -2.2437 -1.1311
  950SOL     vw 3800   4.745   2.710   3.556  0.6690  0.0396  0.3220
  951SOL     ow 3801   5.074   6.025   0.443 -0.6104  0.1102 -0.0888
  951SOL     hw 3802   5.144   6.024   0.378  0.5223 -1.3001  1.0853
  951SOL     hw 3803   5.035   6.112   0.435  0.9463  0.7562 -1.1133
  951SOL     vw 3804   5.078   6.036   0.433 -0.2556  0.0098 -0.0691
  952SOL     ow 3805   1.282   7.158   2.939  0.8112  0.4373 -0.6955
  952SOL     hw 3806   1.256   7.130   2.851 -0.4051 -0.2340 -0.1474
  952SOL     hw 3807   1.343   7.091   2.969 -0.7859 -0.7754 -0.0445
  952SOL     vw 3808   1.286   7.146   2.932  0.4401  0.1886 -0.5375
  953SOL     ow 3809   4.200   3.906   0.724  0.3995 -0.3539 -0.4188
  953SOL     hw 3810   4.114   3.900   0.683 -0.2494 -1.0028  0.9737
  953SOL     hw 3811   4.256   3.850   0.671 -0.8269 -2.6127  0.5399
  953SOL     vw 3812   4.196   3.898   0.712  0.1519 -0.7374 -0.1086
  954SOL     ow 3813   7.045   0.773   6.511  0.7058  0.3787  0.5113
  954SOL     hw 3814   7.069   0.681   6.523  0.0794 -0.1007 -1.5482
  954SOL     hw 3815   6.971   0.786   6.570  1.0357 -0.3028  1.1072
  954SOL     vw 3816   7.039   0.762   6.521  0.6669  0.2255  0.3183
  955SOL     ow 3817   6.741   0.848   0.686 -0.1984  0.1335  0.7946
  955SOL     hw 3818   6.836   0.850   0.670 -0.2805 -2.5342 -0.5713
  955SOL     hw 3819   6.732   0.882   0.775  1.8691  1.7741  0.4647
  955SOL     vw 3820   6.753   0.853   0.696  0.0639 -0.0020  0.5709
  956SOL     ow 3821   3.107   1.241   2.018 -0.4062 -0.1363  0.5361
  956SOL     hw 3822   3.125   1.198   1.935  0.7472  0.9754  0.1671
  956SOL     hw 3823   3.012   1.253   2.020 -0.7940 -2.7516  0.7266
  956SOL     vw 3824   3.097   1.237   2.008 -0.3053 -0.3347  0.5126
  957SOL     ow 3825   3.182   6.229   0.287  0.4277 -0.8569  0.5347
  957SOL     hw 3826   3.233   6.170   0.231 -0.2408  0.1010 -1.1664
  957SOL     hw 3827   3.105   6.178   0.313  0.3741 -1.0818 -0.0561
  957SOL     vw 3828   3.179   6.214   0.283  0.3324 -0.7603  0.2323
  958SOL     ow 3829   4.565   0.788   4.574  0.2786  0.3925  0.5449
  958SOL     hw 3830   4.658   0.782   4.552  0.0281  0.3573 -0.5806
  958SOL     hw 3831   4.524   0.824   4.495 -0.5816  1.0015  1.2459
  958SOL     vw 3832   4.572   0.792   4.561  0.1318  0.4682  0.4892
  959SOL     ow 3833   6.026   6.849   2.580  0.2209  0.2664  0.1016
  959SOL     hw 3834   5.962   6.791   2.622  0.8534 -0.7625 -0.3135
  959SOL     hw 3835   6.073   6.889   2.653 -2.4161  2.9365  0.5383
  959SOL     vw 3836   6.024   6.847   2.595 -0.0436  0.4830  0.1044
  960SOL     ow 3837   6.659   3.744   1.995  0.3138  0.2416 -0.0276
  960SOL     hw 3838   6.673   3.798   2.072  0.2083  0.8267 -0.4123
  960SOL     hw 3839   6.575   3.700   2.011  0.5426 -0.0336  0.4128
  960SOL     vw 3840   6.650   3.745   2.007  0.3302  0.2826 -0.0201
  961SOL     ow 3841   0.485   1.882   2.866  0.4480  0.4225  0.3168
  961SOL     hw 3842   0.396   1.876   2.830  1.4527  0.8293 -2.4545
  961SOL     hw 3843   0.499   1.796   2.907  0.1683 -1.3002 -2.8576
  961SOL     vw 3844   0.475   1.870   2.867  0.5437  0.2488 -0.4677
  962SOL     ow 3845   3.918   5.881   6.866  0.6244 -0.4146  0.9777
  962SOL     hw 3846   3.850   5.947   6.876  0.1257 -0.9312  1.0218
  962SOL     hw 3847   4.000   5.931   6.865  0.1548  0.4625 -1.4474
  962SOL     vw 3848   3.920   5.897   6.867  0.4966 -0.3672  0.6638
  963SOL     ow 3849   1.756   1.064   0.389 -0.1249 -0.0691 -0.4071
  963SOL     hw 3850   1.817   0.992   0.407  2.9329  2.4311 -0.0528
  963SOL     hw 3851   1.729   1.095   0.476  1.0804  1.1470 -0.4384
  963SOL     vw 3852   1.760   1.058   0.403  0.4376  0.4212 -0.3645
  964SOL     ow 3853   7.023   0.310   7.131 -0.5144  0.2154  0.2253
  964SOL     hw 3854   6.997   0.394   7.094 -0.5906  0.1047  0.0226
  964SOL     hw 3855   7.115   0.321   7.155 -0.6147  0.4549  0.4901
  964SOL     vw 3856   7.032   0.322   7.129 -0.5374  0.2324  0.2334
  965SOL     ow 3857   6.517   3.361   2.712  0.2908 -0.0618 -0.7898
  965SOL     hw 3858   6.553   3.438   2.667  3.1950 -1.0318 -0.3230
  965SOL     hw 3859   6.555   3.287   2.667  1.7464 -1.1133  1.9426
  965SOL     vw 3860   6.526   3.362   2.700  0.8662 -0.3284 -0.3678
  966SOL     ow 3861   1.328   6.029   6.658  0.3357  0.1577  0.2318
  966SOL     hw 3862   1.273   5.957   6.628  2.0847 -1.2632  0.2655
  966SOL     hw 3863   1.267   6.093   6.694 -1.5361  0.1585 -2.6820
  966SOL     vw 3864   1.313   6.028   6.659  0.3195 -0.0293 -0.1481
  967SOL     ow 3865   1.480   3.086   6.180 -0.0853  0.4418  0.3118
  967SOL     hw 3866   1.456   3.007   6.131 -1.0581  1.5249 -1.0310
  967SOL     hw 3867   1.573   3.098   6.161  0.3852 -1.0387  1.5237
  967SOL     vw 3868   1.489   3.077   6.171 -0.1516  0.3893  0.2947
  968SOL     ow 3869   0.557   4.670   6.372 -0.4344 -0.1218  0.1337
  968SOL     hw 3870   0.503   4.695   6.447 -0.0242 -1.2150  0.8254
  968SOL     hw 3871   0.637   4.635   6.411 -0.3613 -1.0234 -0.7933
  968SOL     vw 3872   0.560   4.668   6.387 -0.3707 -0.3850  0.1028
  969SOL     ow 3873   4.586   6.819   6.049 -0.1076 -0.3402 -0.0472
  969SOL     hw 3874   4.515   6.774   6.095  1.1482 -1.8697  0.4816
  969SOL     hw 3875   4.656   6.754   6.044  2.1305  1.7873  1.4797
  969SOL     vw 3876   4.586   6.804   6.054  0.3536 -0.2611  0.2239
  970SOL     ow 3877   5.938   2.245   0.036 -0.6733 -0.0089  0.2113
  970SOL     hw 3878   5.874   2.175   0.030 -0.0529 -0.8408  2.4541
  970SOL     hw 3879   5.887   2.324   0.054 -1.2301 -0.2138 -0.4505
  970SOL     vw 3880   5.923   2.246   0.038 -0.6649 -0.1458  0.4199
  971SOL     ow 3881   3.210   2.011   1.226  0.4847  0.3253 -0.1429
  971SOL     hw 3882   3.265   2.045   1.155 -0.0490  2.5888  0.4161
  971SOL     hw 3883   3.245   2.053   1.305 -0.7167  0.1324  0.5093
  971SOL     vw 3884   3.222   2.021   1.227  0.2556  0.5984  0.0169
  972SOL     ow 3885   3.706   6.473   3.522 -0.7730 -0.3427 -0.7405
  972SOL     hw 3886   3.739   6.441   3.438 -1.7950 -4.7654  0.2635
  972SOL     hw 3887   3.774   6.449   3.585 -1.1459  0.5561  0.0206
  972SOL     vw 3888   3.719   6.465   3.519 -0.9570 -0.8073 -0.5075
  973SOL     ow 3889   3.584   3.954   4.321 -0.2983  0.1420 -0.7384
  973SOL     hw 3890   3.534   4.027   4.284 -0.4314  0.7551  0.5630
  973SOL     hw 3891   3.664   3.995   4.354 -0.2309 -0.3460 -0.2784
  973SOL     vw 3892   3.588   3.969   4.321 -0.3071  0.1584 -0.5062
  974SOL     ow 3893   0.343   1.161   0.963 -0.3861 -0.6231  0.1092
  974SOL     hw 3894   0.282   1.231   0.940 -1.4777 -1.4489  0.3701
  974SOL     hw 3895   0.399   1.199   1.030  0.6479  0.7482 -1.4643
  974SOL     vw 3896   0.342   1.175   0.969 -0.3937 -0.5511 -0.0640
  975SOL     ow 3897   7.050   0.857   0.923  0.0896  0.2425  0.3738
  975SOL     hw 3898   7.000   0.883   0.846  1.7340  2.4493 -0.0614
  975SOL     hw 3899   6.984   0.843   0.991 -1.2665  0.3604 -0.8832
  975SOL     vw 3900   7.035   0.859   0.922  0.1276  0.5492  0.1505
  976SOL     ow 3901   0.883   6.228   5.707 -0.3021  0.1338 -0.0320
  976SOL     hw 3902   0.827   6.257   5.778  1.5247  0.0646  1.5202
  976SOL     hw 3903   0.854   6.138   5.688  1.0944 -1.0476  2.8138
  976SOL     vw 3904   0.872   6.220   5.714  0.1232 -0.0312  0.5481
  977SOL     ow 3905   1.231   5.942   1.636  0.3665 -1.3990  0.3504
  977SOL     hw 3906   1.152   5.967   1.684 -0.3628 -1.4984 -0.7644
  977SOL     hw 3907   1.303   5.965   1.695 -0.2417  2.6603 -0.1977
  977SOL     vw 3908   1.230   5.949   1.650  0.1900 -0.8764  0.1311
  978SOL     ow 3909   6.472   1.082   7.110  0.5491  0.0258 -0.5044
  978SOL     hw 3910   6.396   1.093   7.166  1.0235 -1.5115  0.5113
  978SOL     hw 3911   6.512   1.169   7.107  0.2836  0.2471  1.2307
  978SOL     vw 3912   6.467   1.095   7.117  0.5765 -0.1478 -0.1416
  979SOL     ow 3913   3.676   0.199   0.137  0.4062  0.8205  0.0988
  979SOL     hw 3914   3.711   0.184   0.049 -0.1359  0.2783 -0.0354
  979SOL     hw 3915   3.711   0.284   0.163  0.8531  0.8263 -0.5010
  979SOL     vw 3916   3.685   0.208   0.129  0.3937  0.7497  0.0020
  980SOL     ow 3917   5.724   1.906   6.687 -0.0228 -0.0036  0.0675
  980SOL     hw 3918   5.655   1.840   6.698 -0.8451  1.0541  1.4326
  980SOL     hw 3919   5.721   1.958   6.767  1.7548  0.6545 -0.2557
  980SOL     vw 3920   5.714   1.904   6.699  0.1032  0.2227  0.2053
  981SOL     ow 3921   4.008   5.620   0.487 -0.5075 -0.0911 -0.0370
  981SOL     hw 3922   3.996   5.576   0.571  0.1514 -0.6047 -0.1966
  981SOL     hw 3923   4.085   5.674   0.498  1.7632 -2.8145 -1.2854
  981SOL     vw 3924   4.016   5.621   0.499 -0.1211 -0.5181 -0.2227
  982SOL     ow 3925   6.248   5.799   5.721 -0.6711 -0.2114 -0.3402
  982SOL     hw 3926   6.284   5.853   5.651  0.8049  0.2331  0.7178
  982SOL     hw 3927   6.299   5.718   5.719  0.0657  0.2021  0.8332
  982SOL     vw 3928   6.259   5.795   5.712 -0.3791 -0.0982 -0.0458
  983SOL     ow 3929   5.061   5.175   2.319 -0.1987  1.3418  0.0227
  983SOL     hw 3930   4.968   5.155   2.334  0.4415 -1.2545  1.0279
  983SOL     hw 3931   5.093   5.102   2.266  1.7194  1.0025  1.5347
  983SOL     vw 3932   5.053   5.163   2.314  0.1390  0.9542  0.3548
  984SOL     ow 3933   5.882   4.887   7.194 -0.3012 -0.1241  0.5636
  984SOL     hw 3934   5.961   4.925   7.155 -0.2856  0.2759  0.9752
  984SOL     hw 3935   5.907   4.869   7.285 -0.9999  0.9708  0.9864
  984SOL     vw 3936   5.896   4.889   7.201 -0.3915  0.0730  0.6738
  985SOL     ow 3937   5.155   3.713   2.754 -0.0131 -0.3323  0.2505
  985SOL     hw 3938   5.129   3.699   2.845  0.0023  0.1001  0.3268
  985SOL     hw 3939   5.078   3.690   2.703  0.0275 -0.7214  0.3622
  985SOL     vw 3940   5.142   3.708   2.759 -0.0055 -0.3266  0.2753
  986SOL     ow 3941   4.793   2.089   3.797 -0.2629 -0.5699  0.0525
  986SOL     hw 3942   4.852   2.081   3.872 -1.1246  1.2873  0.9875
  986SOL     hw 3943   4.741   2.009   3.799  0.0480 -0.7645  1.1575
  986SOL     vw 3944   4.794   2.078   3.807 -0.3355 -0.3507  0.3217
  987SOL     ow 3945   4.059   0.233   2.735  0.0832 -0.1938  0.2344
  987SOL     hw 3946   4.013   0.218   2.818  1.5969  0.8002  1.3016
  987SOL     hw 3947   4.134   0.287   2.759 -0.0183  1.0191 -1.9746
  987SOL     vw 3948   4.063   0.238   2.749  0.2697  0.0973  0.0838
  988SOL     ow 3949   5.146   1.879   3.741  0.7699 -0.2188  0.1569
  988SOL     hw 3950   5.188   1.900   3.824  1.3934  0.5568 -0.3384
  988SOL     hw 3951   5.075   1.943   3.733  1.1518  0.1674 -0.2234
  988SOL     vw 3952   5.143   1.890   3.751  0.9024 -0.0656  0.0414
  989SOL     ow 3953   4.827   4.628   2.113  0.3421 -0.1037  0.6416
  989SOL     hw 3954   4.908   4.680   2.116 -0.3399  1.1326 -1.0816
  989SOL     hw 3955   4.826   4.590   2.026 -0.9991 -0.0014  0.5996
  989SOL     vw 3956   4.838   4.630   2.102  0.0753  0.0727  0.4086
  990SOL     ow 3957   3.240   0.088   2.763  0.5806 -0.0253  0.7926
  990SOL     hw 3958   3.253  -0.005   2.744 -0.5354  0.0257 -0.3807
  990SOL     hw 3959   3.328   0.123   2.776  1.1510 -0.9133 -0.4276
  990SOL     vw 3960   3.253   0.080   2.762  0.5085 -0.1357  0.4767
  991SOL     ow 3961   0.279   0.558   2.849 -0.4537 -0.3117 -0.2815
  991SOL     hw 3962   0.341   0.562   2.923  0.1541  4.1031 -0.7964
  991SOL     hw 3963   0.196   0.533   2.889 -0.0420  1.5076  1.8920
  991SOL     vw 3964   0.276   0.555   2.864 -0.3192  0.5108 -0.0625
  992SOL     ow 3965   7.048   5.032   6.998 -0.4606 -0.3696  0.2030
  992SOL     hw 3966   7.024   5.054   7.088  1.5748  0.0531  0.7056
  992SOL     hw 3967   7.043   5.114   6.950  0.0206 -0.2641  0.3279
  992SOL     vw 3968   7.044   5.045   7.004 -0.1285 -0.2999  0.2856
  993SOL     ow 3969   5.050   2.679   6.196 -0.9037 -0.1385 -0.3834
  993SOL     hw 3970   5.098   2.757   6.167 -0.5769 -0.2282 -0.0905
  993SOL     hw 3971   5.019   2.700   6.283 -0.8616 -0.3138 -0.3246
  993SOL     vw 3972   5.052   2.692   6.203 -0.8552 -0.1736 -0.3371
  994SOL     ow 3973   2.240   6.538   4.549  0.6552 -0.4197 -0.1848
  994SOL     hw 3974   2.201   6.458   4.513 -0.7632 -0.2705  0.9306
  994SOL     hw 3975   2.324   6.510   4.583 -0.4719 -1.8412  1.6216
  994SOL     vw 3976   2.246   6.524   4.549  0.3194 -0.5875  0.2010
  995SOL     ow 3977   4.451   0.576   3.207 -1.0424 -0.1649 -0.0216
  995SOL     hw 3978   4.410   0.592   3.292  0.7125 -0.0115  0.8527
  995SOL     hw 3979   4.457   0.481   3.201 -2.1506 -0.2133 -0.4852
  995SOL     vw 3980   4.447   0.566   3.218 -0.9570 -0.1511  0.0325
  996SOL     ow 3981   1.330   2.323   4.992 -0.0979  0.1589  0.0509
  996SOL     hw 3982   1.248   2.363   5.023  0.1642 -0.0559  1.0548
  996SOL     hw 3983   1.305   2.234   4.969 -0.4495  0.5373 -1.1147
  996SOL     vw 3984   1.316   2.317   4.993 -0.1097  0.1805  0.0296
  997SOL     ow 3985   3.008   5.207   4.909 -0.2546  0.9225  0.7426
  997SOL     hw 3986   2.962   5.256   4.841  0.7256  2.3799  1.0969
  997SOL     hw 3987   2.997   5.259   4.988  1.4708  0.9848  0.9729
  997SOL     vw 3988   3.000   5.220   4.910  0.1024  1.1227  0.8197
  998SOL     ow 3989   2.502   5.915   0.147 -0.5207  0.4573 -0.8269
  998SOL     hw 3990   2.499   5.872   0.233 -1.2522  2.2030  0.0781
  998SOL     hw 3991   2.450   5.858   0.090 -1.1717 -0.0463  0.2329
  998SOL     vw 3992   2.495   5.902   0.151 -0.7031  0.6213 -0.5677
  999SOL     ow 3993   6.193   6.354   4.102 -0.2668 -0.2798 -0.5410
  999SOL     hw 3994   6.194   6.269   4.057  0.9692 -1.4565  1.5529
  999SOL     hw 3995   6.270   6.400   4.068 -0.6336 -0.2027 -1.2851
  999SOL     vw 3996   6.204   6.349   4.091 -0.1523 -0.4249 -0.3629
 1000SOL     ow 3997   5.649   0.339   0.657  0.2415  0.0652 -0.0790
 1000SOL     hw 3998   5.630   0.269   0.595  1.6093 -0.8105  0.4576
 1000SOL     hw 3999   5.567   0.349   0.707 -0.7721  0.5674 -1.7608
 1000SOL     vw 4000   5.636   0.331   0.656  0.2885  0.0160 -0.2301
 1001SOL     ow 4001   3.763   6.000   5.176  0.5383 -0.1956 -0.5395
 1001SOL     hw 4002   3.774   6.040   5.262 -0.3379 -1.1164  0.0268
 1001SOL     hw 4003   3.718   6.066   5.123  1.1935  0.4189 -0.3428
 1001SOL     vw 4004   3.759   6.014   5.180  0.5091 -0.2363 -0.4387
 1002SOL     ow 4005   6.672   7.069   2.631  0.6320  0.4721 -0.2724
 1002SOL     hw 4006   6.602   7.126   2.600  0.4053  0.5400  0.3642
 1002SOL     hw 4007   6.627   6.996   2.673  0.9304  1.3983  1.7571
 1002SOL     vw 4008   6.657   7.067   2.632  0.6416  0.6032  0.0795
 1003SOL     ow 4009   6.896   4.420   5.187  0.5977  0.7682  0.5374
 1003SOL     hw 4010   6.800   4.420   5.188  0.4534 -2.5839  2.5245
 1003SOL     hw 4011   6.919   4.457   5.102 -2.6508 -2.0685 -1.8851
 1003SOL     vw 4012   6.887   4.425   5.176  0.1500 -0.0484  0.4797
 1004SOL     ow 4013   2.414   1.615   6.881  0.3949  0.1800 -0.1929
 1004SOL     hw 4014   2.477   1.643   6.947  1.0286 -0.8933 -0.3235
 1004SOL     hw 4015   2.389   1.527   6.908  1.8663 -0.9391 -2.2022
 1004SOL     vw 4016   2.419   1.607   6.893  0.6727 -0.1093 -0.4752
 1005SOL     ow 4017   1.188   5.727   1.490 -0.1869 -0.3208 -0.3964
 1005SOL     hw 4018   1.194   5.817   1.521 -3.4424 -0.3848  0.8110
 1005SOL     hw 4019   1.277   5.692   1.499  0.5703  1.9108  1.8005
 1005SOL     vw 4020   1.201   5.734   1.495 -0.5165 -0.0348  0.0527
 1006SOL     ow 4021   3.538   5.657   1.848 -0.4303 -0.3870  0.3913
 1006SOL     hw 4022   3.541   5.571   1.807  0.4872 -0.9907  1.6524
 1006SOL     hw 4023   3.627   5.672   1.880 -0.3994  1.3394 -0.3756
 1006SOL     vw 4024   3.550   5.648   1.847 -0.3051 -0.2391  0.4566
 1007SOL     ow 4025   7.028   0.886   3.591 -0.5873 -0.2654 -0.6289
 1007SOL     hw 4026   7.107   0.893   3.537  0.4665 -0.0426  0.8757
 1007SOL     hw 4027   6.998   0.976   3.603  0.2347 -0.1288  0.6033
 1007SOL     vw 4028   7.035   0.898   3.586 -0.3400 -0.2180 -0.2679
 1008SOL     ow 4029   2.770   4.687   1.504 -0.0208 -0.3823 -0.2733
 1008SOL     hw 4030   2.783   4.593   1.515 -2.2082 -0.8286 -1.1080
 1008SOL     hw 4031   2.856   4.720   1.477  0.7360 -2.1600 -0.1368
 1008SOL     vw 4032   2.783   4.679   1.502 -0.2097 -0.6757 -0.3654
 1009SOL     ow 4033   4.660   2.967   1.219 -0.0428  0.2039  0.1294
 1009SOL     hw 4034   4.723   2.933   1.156  1.0715  2.6495 -0.2088
 1009SOL     hw 4035   4.623   2.889   1.261  1.5892 -1.3812 -1.2176
 1009SOL     vw 4036   4.663   2.952   1.216  0.3195  0.3175 -0.0929
 1010SOL     ow 4037   6.375   0.555   3.811  0.0689 -0.6720 -0.0956
 1010SOL     hw 4038   6.416   0.480   3.768 -1.4330 -2.2023  1.0422
 1010SOL     hw 4039   6.335   0.605   3.739  0.5924 -1.2546 -0.8072
 1010SOL     vw 4040   6.376   0.552   3.796 -0.0603 -0.9508 -0.0395
 1011SOL     ow 4041   6.755   3.205   3.728 -0.5283 -0.0394  0.6227
 1011SOL     hw 4042   6.699   3.277   3.699  1.8925  1.9644  0.5938
 1011SOL     hw 4043   6.806   3.181   3.651  0.3560 -0.1242  1.2102
 1011SOL     vw 4044   6.754   3.212   3.714 -0.0925  0.2137  0.6964
 1012SOL     ow 4045   2.887   2.862   4.812  0.3101 -0.1401  0.6553
 1012SOL     hw 4046   2.936   2.883   4.732  0.1258  0.2530  0.6423
 1012SOL     hw 4047   2.815   2.925   4.813 -0.1212 -0.6263  0.7446
 1012SOL     vw 4048   2.884   2.873   4.801  0.2289 -0.1525  0.6654
 1013SOL     ow 4049   5.190   4.958   2.175 -0.0721 -0.2310  0.1120
 1013SOL     hw 4050   5.167   4.908   2.254  1.0003 -1.2735 -0.2035
 1013SOL     hw 4051   5.122   4.935   2.112 -0.2688 -0.3349  0.3578
 1013SOL     vw 4052   5.178   4.948   2.177  0.0432 -0.3822  0.1029
 1014SOL     ow 4053   4.039   2.821   5.289 -0.7961 -0.1968  0.0982
 1014SOL     hw 4054   3.952   2.841   5.254 -0.6672  2.2435  1.0290
 1014SOL     hw 4055   4.089   2.902   5.277  0.9737 -1.1377  0.7745
 1014SOL     vw 4056   4.034   2.834   5.283 -0.5455  0.0010  0.3102
 1015SOL     ow 4057   1.530   4.721   0.568  0.0841 -0.0435 -0.4285
 1015SOL     hw 4058   1.507   4.814   0.573 -0.4140 -0.1814 -0.0634
 1015SOL     hw 4059   1.446   4.676   0.556  0.3501 -0.4295 -0.8750
 1015SOL     vw 4060   1.516   4.727   0.567  0.0535 -0.1123 -0.4393
 1016SOL     ow 4061   2.322   1.985   0.515 -0.0079 -0.1711  0.2590
 1016SOL     hw 4062   2.291   1.933   0.589  0.7246 -0.0077  0.6918
 1016SOL     hw 4063   2.382   1.926   0.468  0.7530  0.2271  0.6996
 1016SOL     vw 4064   2.326   1.970   0.519  0.1891 -0.0970  0.3742
 1017SOL     ow 4065   1.049   6.669   3.994  0.0680  0.7065 -0.8807
 1017SOL     hw 4066   1.003   6.638   4.072 -0.5705 -2.1838 -2.2924
 1017SOL     hw 4067   1.133   6.624   3.996  1.1966  2.6942 -0.5553
 1017SOL     vw 4068   1.054   6.659   4.005  0.1327  0.5872 -1.0242
 1018SOL     ow 4069   6.085   0.668   1.703  0.2691 -0.6923 -0.2730
 1018SOL     hw 4070   6.043   0.588   1.735  1.0184 -1.2993 -0.7588
 1018SOL     hw 4071   6.106   0.649   1.611 -1.2919  0.7831 -0.9946
 1018SOL     vw 4072   6.082   0.655   1.695  0.1621 -0.5777 -0.4324
 1019SOL     ow 4073   5.434   6.790   3.002  0.0055  0.1601 -0.3184
 1019SOL     hw 4074   5.447   6.699   3.026  1.1813  0.3463 -0.1713
 1019SOL     hw 4075   5.438   6.791   2.906  1.2237  0.1976 -0.2889
 1019SOL     vw 4076   5.436   6.778   2.992  0.3214  0.1895 -0.2950
 1020SOL     ow 4077   0.649   2.316   4.156  0.1853 -0.4407  0.4618
 1020SOL     hw 4078   0.655   2.377   4.229 -1.4667 -0.2919  0.5067
 1020SOL     hw 4079   0.560   2.328   4.121  1.0431 -0.2237 -1.8322
 1020SOL     vw 4080   0.638   2.326   4.161  0.0806 -0.3924  0.1652
 1021SOL     ow 4081   1.818   5.891   2.807  0.0018  0.0619 -0.5350
 1021SOL     hw 4082   1.842   5.843   2.886  0.6964  1.5512  0.2097
 1021SOL     hw 4083   1.799   5.823   2.742 -1.7584 -1.2487  1.1986
 1021SOL     vw 4084   1.818   5.876   2.809 -0.1388  0.0856 -0.2080
 1022SOL     ow 4085   2.198   4.706   6.868 -0.0477 -0.6290 -0.2700
 1022SOL     hw 4086   2.133   4.677   6.804 -0.0271 -0.1831 -0.4972
 1022SOL     hw 4087   2.176   4.658   6.948  1.0261 -2.5873 -1.0767
 1022SOL     vw 4088   2.187   4.696   6.870  0.0967 -0.8285 -0.4065
 1023SOL     ow 4089   5.036   0.283   2.637 -0.1423 -0.3783 -0.5949
 1023SOL     hw 4090   5.057   0.238   2.719 -0.5578  0.8144  0.1992
 1023SOL     hw 4091   4.941   0.297   2.641 -0.2615 -0.8054 -1.5562
 1023SOL     vw 4092   5.026   0.279   2.648 -0.2129 -0.2773 -0.6169
 1024SOL     ow 4093   2.896   1.810   5.187 -0.0278 -0.2215  0.6378
 1024SOL     hw 4094   2.966   1.786   5.126 -1.8079 -0.2763 -1.4766
 1024SOL     hw 4095   2.850   1.728   5.204 -2.4999  0.4553 -1.9353
 1024SOL     vw 4096   2.899   1.796   5.181 -0.5889 -0.1395  0.0196
 1025SOL     ow 4097   0.417   6.838   1.189  0.6448  0.5128  0.1484
 1025SOL     hw 4098   0.471   6.852   1.112  0.4828  2.1996  0.2921
 1025SOL     hw 4099   0.447   6.755   1.226  1.7022  0.4068 -0.9143
 1025SOL     vw 4100   0.428   6.829   1.184  0.7630  0.7217  0.0272
 1026SOL     ow 4101   3.880   1.355   6.831 -0.3405 -0.0299 -0.0812
 1026SOL     hw 4102   3.935   1.282   6.802 -1.5533 -0.4386 -1.4335
 1026SOL     hw 4103   3.942   1.424   6.855  0.8857 -1.7752  2.1297
 1026SOL     vw 4104   3.895   1.354   6.831 -0.3387 -0.3141  0.0324
 1027SOL     ow 4105   3.364   2.219   4.026  0.2721  0.7505  0.4634
 1027SOL     hw 4106   3.444   2.266   4.050  0.1012  0.2607  2.1469
 1027SOL     hw 4107   3.368   2.138   4.078 -2.1919  1.5734  2.0927
 1027SOL     vw 4108   3.375   2.214   4.036 -0.0755  0.7945  0.9007
 1028SOL     ow 4109   4.389   4.134   6.163  0.3584  0.1259 -0.0020
 1028SOL     hw 4110   4.471   4.092   6.189 -0.0743 -1.2668 -0.7870
 1028SOL     hw 4111   4.321   4.075   6.196 -0.3817  1.5328  1.1238
 1028SOL     vw 4112   4.391   4.121   6.171  0.2038  0.1276  0.0429
 1029SOL     ow 4113   3.291   5.998   5.090 -0.5285  0.4959  0.1679
 1029SOL     hw 4114   3.361   5.933   5.098  0.4593  1.4539 -0.4988
 1029SOL     hw 4115   3.217   5.958   5.137  0.8278  0.0003  2.0349
 1029SOL     vw 4116   3.290   5.984   5.098 -0.2191  0.5569  0.3262
 1030SOL     ow 4117   6.148   6.870   3.161  0.2193  0.3884 -0.1783
 1030SOL     hw 4118   6.071   6.905   3.206 -0.2810 -3.5406  2.6317
 1030SOL     hw 4119   6.221   6.887   3.222  0.6936  0.0853 -0.6489
 1030SOL     vw 4120   6.148   6.877   3.175  0.2155 -0.1702  0.1304
 1031SOL     ow 4121   0.348   4.040   4.160 -0.1324  0.3115 -0.4324
 1031SOL     hw 4122   0.349   4.124   4.205 -0.6499 -0.1234  0.4055
 1031SOL     hw 4123   0.438   4.009   4.163 -0.3328 -0.1683  1.1893
 1031SOL     vw 4124   0.360   4.047   4.166 -0.2271  0.1907 -0.1078
 1032SOL     ow 4125   5.476   4.138   2.967 -0.0273 -0.5168  0.0668
 1032SOL     hw 4126   5.483   4.079   3.042 -1.2509 -3.1695 -1.7165
 1032SOL     hw 4127   5.387   4.125   2.935 -0.8195  3.3642  0.2321
 1032SOL     vw 4128   5.465   4.128   2.973 -0.2933 -0.3548 -0.1469
 1033SOL     ow 4129   6.075   0.055   1.732  0.1316 -0.7986 -0.4647
 1033SOL     hw 4130   6.016   0.115   1.686  0.2296 -0.1181  0.2686
 1033SOL     hw 4131   6.160   0.098   1.728  0.2091 -0.9003  0.0474
 1033SOL     vw 4132   6.078   0.069   1.725  0.1547 -0.7222 -0.3004
 1034SOL     ow 4133   3.345   4.441   2.135 -0.4388  0.2329 -0.2703
 1034SOL     hw 4134   3.252   4.461   2.142 -0.6257 -0.4407 -0.6863
 1034SOL     hw 4135   3.373   4.482   2.053 -0.8857 -1.3647 -1.2662
 1034SOL     vw 4136   3.336   4.449   2.125 -0.5224 -0.0668 -0.4565
 1035SOL     ow 4137   2.607   4.054   1.961 -0.1603  1.0571  0.0544
 1035SOL     hw 4138   2.607   3.958   1.955 -0.6066  1.0778 -0.3012
 1035SOL     hw 4139   2.583   4.072   2.052  2.3740  0.8056  0.8419
 1035SOL     vw 4140   2.604   4.044   1.972  0.1153  1.0269  0.1114
 1036SOL     ow 4141   2.508   6.781   3.369  0.2634 -0.1332 -0.3120
 1036SOL     hw 4142   2.424   6.761   3.328 -0.9098  0.1723  1.7962
 1036SOL     hw 4143   2.510   6.877   3.375  0.6583 -0.1487 -0.1423
 1036SOL     vw 4144   2.497   6.791   3.365  0.1607 -0.0949 -0.0114
 1037SOL     ow 4145   6.365   4.227   1.733 -0.6805  0.7284  0.3296
 1037SOL     hw 4146   6.273   4.201   1.740 -0.2923 -0.8165  0.0444
 1037SOL     hw 4147   6.379   4.242   1.640 -0.5505  0.5313  0.3149
 1037SOL     vw 4148   6.355   4.225   1.722 -0.6123  0.4988  0.2900
 1038SOL     ow 4149   0.842   0.834   6.464  0.5497 -0.0171 -0.7626
 1038SOL     hw 4150   0.872   0.816   6.553 -0.8107  1.3959  0.0177
 1038SOL     hw 4151   0.912   0.887   6.425  0.2363  1.1474  0.2020
 1038SOL     vw 4152   0.855   0.838   6.471  0.3288  0.3229 -0.5322
 1039SOL     ow 4153   3.900   5.736   5.176  0.2942  0.1787 -0.2121
 1039SOL     hw 4154   3.885   5.701   5.263  1.2427 -1.8082 -0.7885
 1039SOL     hw 4155   3.982   5.695   5.147 -0.6717 -0.2688 -2.5427
 1039SOL     vw 4156   3.909   5.726   5.184  0.2918 -0.1426 -0.5958
 1040SOL     ow 4157   6.466   6.232   2.205  0.3234  0.5203 -0.1886
 1040SOL     hw 4158   6.541   6.266   2.156 -0.0333 -1.0452 -1.9521
 1040SOL     hw 4159   6.410   6.193   2.138 -1.7830  1.0793  1.1481
 1040SOL     vw 4160   6.468   6.231   2.189 -0.0014  0.3874 -0.2450
 1041SOL     ow 4161   4.997   0.459   1.725  0.2941 -0.2582 -0.4213
 1041SOL     hw 4162   4.923   0.510   1.758  0.1097 -2.1268  2.3117
 1041SOL     hw 4163   5.005   0.487   1.633 -1.7844  2.2552  0.0257
 1041SOL     vw 4164   4.988   0.470   1.717 -0.0043 -0.1731 -0.0018
 1042SOL     ow 4165   1.590   0.545   6.694 -0.1751  0.0117  0.3235
 1042SOL     hw 4166   1.672   0.592   6.708 -1.1322  1.9361 -0.0605
 1042SOL     hw 4167   1.564   0.515   6.781  1.0147 -0.8139  0.4156
 1042SOL     vw 4168   1.597   0.547   6.707 -0.1443  0.1567  0.2849
 1043SOL     ow 4169   3.053   1.406   6.924  0.2173  1.0318 -0.0036
 1043SOL     hw 4170   3.125   1.465   6.948 -0.4994  1.3861  1.4092
 1043SOL     hw 4171   2.974   1.453   6.952 -0.4607  0.0219 -0.2024
 1043SOL     vw 4172   3.052   1.420   6.931  0.0333  0.9453  0.1566
 1044SOL     ow 4173   7.199   3.655   2.278  0.4389 -0.3239 -0.2332
 1044SOL     hw 4174   7.226   3.606   2.200 -3.4653  0.2014 -2.1897
 1044SOL     hw 4175   7.281   3.680   2.321  2.7137 -3.6247 -2.2058
 1044SOL     vw 4176   7.213   3.652   2.273  0.2239 -0.6901 -0.7515
 1045SOL     ow 4177   3.746   2.899   0.101 -0.0254  0.0291  0.3729
 1045SOL     hw 4178   3.755   2.922   0.193 -1.8650  0.1708  0.5531
 1045SOL     hw 4179   3.686   2.824   0.100  0.6850 -0.5624 -0.6566
 1045SOL     vw 4180   3.739   2.892   0.113 -0.1744 -0.0303  0.2608
 1046SOL     ow 4181   0.163   3.723   5.024 -0.0638  0.1546 -0.0288
 1046SOL     hw 4182   0.080   3.677   5.017 -0.5821  1.0135  0.3486
 1046SOL     hw 4183   0.220   3.662   5.072 -0.4138 -0.4986 -0.4217
 1046SOL     vw 4184   0.160   3.709   5.029 -0.1783  0.1817 -0.0310
 1047SOL     ow 4185   3.114   2.924   4.938 -0.1034  0.2570  0.3422
 1047SOL     hw 4186   3.082   2.912   5.028 -0.4454 -0.0425  0.1841
 1047SOL     hw 4187   3.043   2.891   4.883  0.3913 -0.2190 -0.0230
 1047SOL     vw 4188   3.101   2.918   4.943 -0.0832  0.1546  0.2730
 1048SOL     ow 4189   6.180   0.538   1.957  0.4734 -0.3043 -0.1918
 1048SOL     hw 4190   6.230   0.517   1.878  1.5276  0.8890  0.1308
 1048SOL     hw 4191   6.246   0.566   2.020 -0.3995 -0.8237  0.9889
 1048SOL     vw 4192   6.196   0.539   1.955  0.4973 -0.2154  0.0066
 1049SOL     ow 4193   4.170   3.938   2.336 -0.4593 -0.3739 -0.2776
 1049SOL     hw 4194   4.087   3.984   2.322 -2.0042 -2.3126  1.7012
 1049SOL     hw 4195   4.194   3.957   2.426  2.9146  2.4348 -1.5719
 1049SOL     vw 4196   4.162   3.946   2.346 -0.2179 -0.2592 -0.1873
 1050SOL     ow 4197   1.783   5.351   4.984 -0.8307 -0.3113  0.3203
 1050SOL     hw 4198   1.734   5.274   4.954  0.2417 -0.9130  0.0740
 1050SOL     hw 4199   1.852   5.363   4.919 -0.6149  0.5055  0.6817
 1050SOL     vw 4200   1.786   5.342   4.972 -0.6607 -0.2830  0.3357
 1051SOL     ow 4201   7.015   6.835   5.806 -0.4205  0.4748 -0.7085
 1051SOL     hw 4202   6.975   6.803   5.886  0.5457  2.7436  0.7589
 1051SOL     hw 4203   7.094   6.781   5.796 -0.8169 -0.1665 -0.4412
 1051SOL     vw 4204   7.020   6.824   5.815 -0.3452  0.6895 -0.4797
 1052SOL     ow 4205   4.804   3.325   0.645  0.0508 -0.3038  0.1251
 1052SOL     hw 4206   4.725   3.357   0.601  0.3709 -0.2399 -0.4050
 1052SOL     hw 4207   4.772   3.257   0.704 -0.2373 -1.3073 -1.1440
 1052SOL     vw 4208   4.789   3.320   0.647  0.0553 -0.4278 -0.1122
 1053SOL     ow 4209   3.065   3.260   3.588 -0.2565  0.0630  0.1406
 1053SOL     hw 4210   2.978   3.243   3.553  0.3866 -0.5648 -1.2104
 1053SOL     hw 4211   3.124   3.206   3.535  1.0617  1.1544  0.4345
 1053SOL     vw 4212   3.061   3.250   3.576  0.0023  0.1242  0.0011
 1054SOL     ow 4213   7.144   1.099   3.157 -0.1576  0.7709 -0.3452
 1054SOL     hw 4214   7.075   1.162   3.177  0.3430  1.6170 -1.2166
 1054SOL     hw 4215   7.178   1.073   3.243  1.3892  3.6922  0.0409
 1054SOL     vw 4216   7.139   1.104   3.171  0.1125  1.2679 -0.4092
 1055SOL     ow 4217   4.790   2.078   6.442  0.4785 -0.2788 -0.0843
 1055SOL     hw 4218   4.869   2.129   6.428  0.9394  0.0537  2.9790
 1055SOL     hw 4219   4.819   1.987   6.440  1.2072 -0.1444  1.8309
 1055SOL     vw 4220   4.804   2.072   6.440  0.6354 -0.2172  0.5727
 1056SOL     ow 4221   1.557   3.047   2.280  0.7920  0.6534  0.5355
 1056SOL     hw 4222   1.494   3.109   2.319 -0.0178 -0.3222  0.8404
 1056SOL     hw 4223   1.635   3.055   2.335  0.5424  1.0868  0.8382
 1056SOL     vw 4224   1.559   3.056   2.293  0.6523  0.5819  0.6157
 1057SOL     ow 4225   5.564   2.701   6.453 -0.1574  0.0322 -0.5007
 1057SOL     hw 4226   5.620   2.627   6.431  0.6122  0.4900 -0.1139
 1057SOL     hw 4227   5.476   2.663   6.462  0.4217 -1.0564  0.9666
 1057SOL     vw 4228   5.560   2.686   6.451  0.0207 -0.0509 -0.2561
 1058SOL     ow 4229   6.948   2.006   1.794 -0.0834 -0.2879  0.3119
 1058SOL     hw 4230   6.969   1.920   1.760  0.2998 -0.5365  1.1340
 1058SOL     hw 4231   7.021   2.026   1.854 -0.4479  0.3551  0.5504
 1058SOL     vw 4232   6.961   1.997   1.798 -0.0808 -0.2359  0.4517
 1059SOL     ow 4233   0.482   4.566   0.092 -0.0388 -0.1897 -0.0804
 1059SOL     hw 4234   0.527   4.483   0.078  0.7436  0.4276 -1.4420
 1059SOL     hw 4235   0.435   4.582   0.009 -0.5923  0.4819  0.3454
 1059SOL     vw 4236   0.482   4.557   0.079 -0.0086 -0.0196 -0.2038
 1060SOL     ow 4237   3.427   2.649   1.928  0.7470  0.0276 -1.1533
 1060SOL     hw 4238   3.408   2.608   1.844 -1.0381  0.4263 -0.9842
 1060SOL     hw 4239   3.397   2.739   1.919 -1.3719 -0.4366  0.4955
 1060SOL     vw 4240   3.421   2.655   1.916  0.2319  0.0191 -0.9135
 1061SOL     ow 4241   0.516   0.466   1.666 -0.9082  0.7901  0.0102
 1061SOL     hw 4242   0.477   0.520   1.598 -0.8694  1.0767  0.2141
 1061SOL     hw 4243   0.456   0.392   1.677 -1.1039  0.9383 -0.0706
 1061SOL     vw 4244   0.503   0.464   1.659 -0.9289  0.8475  0.0265
 1062SOL     ow 4245   3.883   2.874   6.698  0.4016  0.0956  0.1137
 1062SOL     hw 4246   3.894   2.837   6.611 -0.3305 -1.1504  0.5354
 1062SOL     hw 4247   3.789   2.874   6.714  0.4658  1.0253  0.6210
 1062SOL     vw 4248   3.872   2.869   6.689  0.3135  0.0538  0.2363
 1063SOL     ow 4249   5.556   1.749   4.995  0.1089 -0.0817 -0.3937
 1063SOL     hw 4250   5.598   1.673   5.037  0.1743  1.2747  2.1549
 1063SOL     hw 4251   5.508   1.711   4.921  1.6210 -2.3455 -0.3327
 1063SOL     vw 4252   5.555   1.734   4.990  0.3171 -0.2014 -0.0494
 1064SOL     ow 4253   1.921   3.192   4.516  0.0915  0.5036 -0.3818
 1064SOL     hw 4254   1.975   3.259   4.559 -1.3494  1.8402 -0.5687
 1064SOL     hw 4255   1.856   3.242   4.467 -2.3968 -0.9924  1.1770
 1064SOL     vw 4256   1.919   3.208   4.516 -0.4269  0.4826 -0.2010
 1065SOL     ow 4257   5.323   5.043   3.673 -0.1012  0.4413  0.5395
 1065SOL     hw 4258   5.340   4.954   3.641 -0.7514 -0.4887  2.6529
 1065SOL     hw 4259   5.236   5.065   3.638  0.3009  0.5077 -0.4577
 1065SOL     vw 4260   5.313   5.034   3.664 -0.1335  0.3273  0.6868
 1066SOL     ow 4261   3.216   5.400   1.529  0.1391  0.5221 -0.1209
 1066SOL     hw 4262   3.157   5.417   1.456 -1.7283  1.5400  1.5374
 1066SOL     hw 4263   3.301   5.434   1.500 -0.8034  1.8748 -1.4097
 1066SOL     vw 4264   3.220   5.407   1.516 -0.2316  0.8349 -0.0722
 1067SOL     ow 4265   6.849   7.084   3.193  0.0915 -0.7175 -0.2079
 1067SOL     hw 4266   6.758   7.113   3.190  0.4006  0.2155 -1.7234
 1067SOL     hw 4267   6.853   7.009   3.134  0.4579 -0.2654 -0.7657
 1067SOL     vw 4268   6.838   7.078   3.185  0.1805 -0.5345 -0.4814
 1068SOL     ow 4269   3.504   5.404   1.759 -0.3668  0.2404  0.8357
 1068SOL     hw 4270   3.508   5.335   1.693  0.9446  1.7839 -0.8249
 1068SOL     hw 4271   3.522   5.360   1.842  0.5925 -1.3830 -0.1875
 1068SOL     vw 4272   3.507   5.389   1.761 -0.0672  0.2296  0.4816
 1069SOL     ow 4273   0.734   0.220   3.067  0.0609  0.5191 -0.5427
 1069SOL     hw 4274   0.653   0.267   3.089 -0.9886 -1.6450  0.5880
 1069SOL     hw 4275   0.795   0.288   3.041 -1.2189  2.5348  1.3665
 1069SOL     vw 4276   0.731   0.235   3.067 -0.2464  0.4995 -0.1417
 1070SOL     ow 4277   5.721   5.036   2.350 -0.5615 -0.2539 -0.4413
 1070SOL     hw 4278   5.785   5.099   2.316 -0.0069 -0.8145 -0.4523
 1070SOL     hw 4279   5.672   5.085   2.417  0.3265 -0.0118  0.0422
 1070SOL     vw 4280   5.723   5.051   2.355 -0.3712 -0.2961 -0.3790
 1071SOL     ow 4281   2.008   6.910   1.584 -0.0031  0.7336  0.7610
 1071SOL     hw 4282   2.063   6.853   1.638 -2.6265 -1.3246  1.5145
 1071SOL     hw 4283   2.029   6.886   1.494 -0.1781 -0.5882  1.0550
 1071SOL     vw 4284   2.018   6.899   1.579 -0.3724  0.2880  0.8991
 1072SOL     ow 4285   1.767   5.655   4.810  0.0992  0.1728 -0.2872
 1072SOL     hw 4286   1.753   5.703   4.729 -0.8546  0.1066 -0.1781
 1072SOL     hw 4287   1.860   5.632   4.810  0.6251  2.1713 -0.2500
 1072SOL     vw 4288   1.777   5.658   4.800  0.0427  0.4275 -0.2682
 1073SOL     ow 4289   0.555   4.283   6.577 -0.0383  0.1687  0.0858
 1073SOL     hw 4290   0.638   4.242   6.600 -0.8232 -0.6483  1.6174
 1073SOL     hw 4291   0.543   4.352   6.642 -0.7517  0.0056  0.1388
 1073SOL     vw 4292   0.564   4.287   6.589 -0.2360  0.0393  0.2947
 1074SOL     ow 4293   3.100   1.925   0.244  0.3718  0.0407  1.0591
 1074SOL     hw 4294   3.139   1.986   0.306  1.1964 -0.7040  1.2803
 1074SOL     hw 4295   3.039   1.979   0.193  1.6257  1.2149  0.7568
 1074SOL     vw 4296   3.097   1.940   0.245  0.6460  0.0974  1.0484
 1075SOL     ow 4297   5.252   2.384   3.895  0.2617  0.1924  0.8542
 1075SOL     hw 4298   5.271   2.350   3.807  1.3525  1.4372  0.5758
 1075SOL     hw 4299   5.173   2.437   3.883 -0.1748 -0.4426  0.8471
 1075SOL     vw 4300   5.244   2.387   3.882  0.3479  0.2729  0.8165
 1076SOL     ow 4301   3.032   0.280   2.802 -0.1490  0.4521  0.1967
 1076SOL     hw 4302   3.121   0.299   2.829  0.4467 -0.3302 -1.1443
 1076SOL     hw 4303   2.980   0.288   2.882  1.2224  0.1761  1.1321
 1076SOL     vw 4304   3.037   0.284   2.816  0.1105  0.3124  0.1432
 1077SOL     ow 4305   5.705   4.140   3.848  0.6751 -0.1751  0.6092
 1077SOL     hw 4306   5.621   4.126   3.803  1.0456 -0.7771  0.0861
 1077SOL     hw 4307   5.680   4.157   3.939 -0.0725  0.7979  0.2478
 1077SOL     vw 4308   5.690   4.140   3.854  0.6256 -0.1264  0.4925
 1078SOL     ow 4309   2.845   3.702   5.012  0.4465  0.3826  0.6820
 1078SOL     hw 4310   2.826   3.712   5.106 -0.0528  1.6527  0.4762
 1078SOL     hw 4311   2.854   3.792   4.981 -3.2979  0.2883 -1.2627
 1078SOL     vw 4312   2.844   3.716   5.021 -0.1132  0.5378  0.3982
 1079SOL     ow 4313   2.534   3.268   0.178 -0.2898 -0.0267  0.5980
 1079SOL     hw 4314   2.482   3.326   0.122 -0.7717  0.3212  1.3849
 1079SOL     hw 4315   2.573   3.326   0.243 -1.5464 -0.6571  1.9835
 1079SOL     vw 4316   2.532   3.283   0.179 -0.5190 -0.0640  0.8846
 1080SOL     ow 4317   0.325   5.781   2.973  0.4058 -0.3659 -0.7549
 1080SOL     hw 4318   0.329   5.685   2.980 -1.0546 -0.3305  1.9455
 1080SOL     hw 4319   0.416   5.809   2.967  1.0136 -1.8650  0.6816
 1080SOL     vw 4320   0.338   5.772   2.973  0.2933 -0.5591 -0.2092
 1081SOL     ow 4321   2.871   6.579   2.950 -0.5352 -0.0979  0.0495
 1081SOL     hw 4322   2.853   6.673   2.954 -0.0568 -0.0224  0.4188
 1081SOL     hw 4323   2.809   6.546   2.884 -0.0391  0.6324 -0.8005
 1081SOL     vw 4324   2.860   6.587   2.942 -0.4066  0.0083 -0.0139
 1082SOL     ow 4325   6.880   1.817   6.460 -0.5390  0.2928 -0.0546
 1082SOL     hw 4326   6.927   1.846   6.381 -0.7331 -4.5888 -2.3633
 1082SOL     hw 4327   6.800   1.778   6.426 -0.7408 -1.8252  2.5548
 1082SOL     vw 4328   6.876   1.816   6.445 -0.5913 -0.6307 -0.0150
 1083SOL     ow 4329   4.688   2.907   2.245 -0.0340  0.5254  0.3510
 1083SOL     hw 4330   4.625   2.974   2.220 -1.6443 -1.3248 -0.8246
 1083SOL     hw 4331   4.727   2.878   2.162  0.2451 -0.3527  0.7708
 1083SOL     vw 4332   4.685   2.912   2.231 -0.2096  0.1653  0.2513
 1084SOL     ow 4333   0.172   3.871   4.330  0.1688  0.6054 -0.0244
 1084SOL     hw 4334   0.189   3.904   4.418  3.8949 -0.2732 -0.2580
 1084SOL     hw 4335   0.176   3.775   4.340  4.7957  0.3988 -1.5582
 1084SOL     vw 4336   0.174   3.862   4.343  1.2709  0.4622 -0.2577
 1085SOL     ow 4337   4.306   6.023   2.568 -0.3277  0.1265 -0.8170
 1085SOL     hw 4338   4.226   5.977   2.592 -0.8581  1.7284  0.7234
 1085SOL     hw 4339   4.343   5.972   2.496 -1.0732 -2.3930  0.4856
 1085SOL     vw 4340   4.300   6.010   2.561 -0.4961  0.0052 -0.4419
 1086SOL     ow 4341   0.215   5.891   4.385  0.2826  0.2468 -0.0354
 1086SOL     hw 4342   0.238   5.844   4.465  0.5115  2.1608  1.0821
 1086SOL     hw 4343   0.165   5.966   4.415 -0.1471  0.6925 -1.7606
 1086SOL     vw 4344   0.212   5.895   4.400  0.2561  0.5581 -0.1156
 1087SOL     ow 4345   3.475   7.100   3.925 -0.7367  0.5288  0.5244
 1087SOL     hw 4346   3.532   7.038   3.970 -0.7630  1.2627  1.5914
 1087SOL     hw 4347   3.408   7.045   3.884  1.0322 -0.4054 -1.2763
 1087SOL     vw 4348   3.473   7.085   3.926 -0.5069  0.5023  0.4276
 1088SOL     ow 4349   2.259   6.665   3.276 -0.2028  0.2855  0.4558
 1088SOL     hw 4350   2.182   6.721   3.285  0.1967  1.4922 -2.5140
 1088SOL     hw 4351   2.227   6.586   3.233  0.4208  1.7576 -3.0129
 1088SOL     vw 4352   2.245   6.662   3.272 -0.0678  0.6390 -0.3937
 1089SOL     ow 4353   0.430   0.584   6.282  0.4986  0.3050  0.9300
 1089SOL     hw 4354   0.521   0.588   6.310  0.4356 -0.8236  1.3413
 1089SOL     hw 4355   0.428   0.630   6.198  1.8180 -1.2368  0.0071
 1089SOL     vw 4356   0.442   0.590   6.274  0.6643 -0.0473  0.8626
 1090SOL     ow 4357   0.392   3.249   2.513  0.9381 -0.2505  0.7139
 1090SOL     hw 4358   0.406   3.263   2.419 -1.6245  1.7428  0.5121
 1090SOL     hw 4359   0.335   3.172   2.517 -0.3516  0.6549  0.4539
 1090SOL     vw 4360   0.386   3.240   2.501  0.4299  0.1318  0.6530
 1091SOL     ow 4361   5.755   3.985   1.292  0.0157  0.9157  0.2611
 1091SOL     hw 4362   5.807   3.933   1.353  0.3564  2.4740  1.3694
 1091SOL     hw 4363   5.666   3.979   1.326 -0.3580 -0.6658 -0.8739
 1091SOL     vw 4364   5.750   3.977   1.305  0.0112  0.9127  0.2575
 1092SOL     ow 4365   4.605   2.612   2.350 -0.1856  0.2207 -0.7795
 1092SOL     hw 4366   4.570   2.548   2.411  1.3942 -0.5093 -0.5931
 1092SOL     hw 4367   4.655   2.560   2.287  0.4827  1.1955 -1.0763
 1092SOL     vw 4368   4.607   2.597   2.350  0.1106  0.2531 -0.7939
 1093SOL     ow 4369   0.977   0.878   0.796  0.3343  0.6519  0.0441
 1093SOL     hw 4370   0.990   0.784   0.787  0.8063  0.7416 -0.2735
 1093SOL     hw 4371   1.061   0.911   0.828  0.8418  1.2108 -1.7454
 1093SOL     vw 4372   0.990   0.870   0.799  0.4635  0.7374 -0.2339
 1094SOL     ow 4373   0.741   4.743   1.063 -0.3073 -0.8037 -0.3456
 1094SOL     hw 4374   0.677   4.720   0.997 -3.3053  0.0918  2.0215
 1094SOL     hw 4375   0.782   4.660   1.088 -1.3603 -1.5776 -1.1371
 1094SOL     vw 4376   0.738   4.729   1.058 -0.8417 -0.7875 -0.1377
 1095SOL     ow 4377   3.345   4.095   2.999  0.6038 -0.7195  0.2491
 1095SOL     hw 4378   3.289   4.046   3.060 -1.1241 -0.2880 -0.9288
 1095SOL     hw 4379   3.286   4.157   2.957  2.3430  0.9681  0.1789
 1095SOL     vw 4380   3.330   4.096   3.002  0.6052 -0.4399  0.0845
 1096SOL     ow 4381   3.175   2.866   6.706 -0.5393  0.3106  0.4282
 1096SOL     hw 4382   3.206   2.950   6.673  2.1280 -0.6462  0.2469
 1096SOL     hw 4383   3.203   2.864   6.798 -0.5013 -0.3859  0.4106
 1096SOL     vw 4384   3.183   2.877   6.714 -0.1824  0.0924  0.4020
 1097SOL     ow 4385   5.296   2.983   4.176 -0.0419  0.3501  0.5697
 1097SOL     hw 4386   5.209   2.956   4.204  1.0207 -4.0079  0.5265
 1097SOL     hw 4387   5.291   2.985   4.081  0.1581 -1.3968  0.4883
 1097SOL     vw 4388   5.284   2.980   4.167  0.1247 -0.4553  0.5531
 1098SOL     ow 4389   4.808   5.210   6.381 -0.0463 -0.2736  0.2176
 1098SOL     hw 4390   4.859   5.166   6.313  1.7445  1.3471  0.4377
 1098SOL     hw 4391   4.873   5.242   6.444 -1.3503  1.4645  0.7615
 1098SOL     vw 4392   4.823   5.208   6.380  0.0181  0.1698  0.3185
 1099SOL     ow 4393   1.452   6.592   0.822 -0.6587 -0.0211  0.1082
 1099SOL     hw 4394   1.359   6.573   0.809 -0.7529 -1.1318  2.0149
 1099SOL     hw 4395   1.495   6.506   0.816  0.1459  0.3767  0.0080
 1099SOL     vw 4396   1.446   6.578   0.819 -0.5649 -0.1152  0.3465
 1100SOL     ow 4397   6.399   6.709   6.496 -0.1858 -0.3734 -0.3083
 1100SOL     hw 4398   6.394   6.749   6.583 -0.0156 -0.1005 -0.4228
 1100SOL     hw 4399   6.480   6.658   6.497  0.5158  0.7129 -0.7567
 1100SOL     vw 4400   6.409   6.707   6.508 -0.0710 -0.1941 -0.3824
 1101SOL     ow 4401   3.736   5.010   6.851 -0.1763 -0.0238  0.5606
 1101SOL     hw 4402   3.824   4.998   6.887  0.0854  2.4115  0.8710
 1101SOL     hw 4403   3.683   5.037   6.926 -0.8116  0.0926  0.0778
 1101SOL     vw 4404   3.741   5.012   6.866 -0.2257  0.3128  0.5381
 1102SOL     ow 4405   0.493   2.120   3.072 -0.5747  0.4866 -0.7498
 1102SOL     hw 4406   0.457   2.076   3.150  0.4042  0.7716 -0.1148
 1102SOL     hw 4407   0.440   2.199   3.064 -1.6640 -0.2691 -1.2799
 1102SOL     vw 4408   0.481   2.124   3.081 -0.5893  0.4246 -0.7360
 1103SOL     ow 4409   3.146   6.416   4.417 -0.7148 -0.1796  0.0336
 1103SOL     hw 4410   3.099   6.381   4.493  1.5019 -0.1402  1.5108
 1103SOL     hw 4411   3.217   6.354   4.402 -0.8435  0.0601 -1.7633
 1103SOL     vw 4412   3.149   6.403   4.425 -0.4394 -0.1428 -0.0083
 1104SOL     ow 4413   5.165   1.898   1.661  0.0531  0.3138  0.3239
 1104SOL     hw 4414   5.161   1.805   1.637 -0.3775  0.2242  0.7263
 1104SOL     hw 4415   5.093   1.939   1.613 -0.9579  0.0947  1.5683
 1104SOL     vw 4416   5.155   1.891   1.652 -0.1371  0.2730  0.5413
 1105SOL     ow 4417   1.297   3.062   5.469  0.2162  0.0408  0.3924
 1105SOL     hw 4418   1.341   3.132   5.421  0.5640  0.2851  1.0553
 1105SOL     hw 4419   1.204   3.081   5.459  0.2511 -0.2849 -0.7315
 1105SOL     vw 4420   1.290   3.074   5.462  0.2667  0.0300  0.3316
 1106SOL     ow 4421   0.200   2.317   1.317  1.3780  0.3547  0.7349
 1106SOL     hw 4422   0.202   2.234   1.366  0.4774  0.7868  1.5194
 1106SOL     hw 4423   0.245   2.296   1.235 -0.8617 -1.6100 -0.1364
 1106SOL     vw 4424   0.206   2.303   1.312  0.9637  0.1523  0.7234
 1107SOL     ow 4425   0.924   5.392   6.394 -0.1023  0.2893 -0.2694
 1107SOL     hw 4426   0.935   5.378   6.488  0.1046  2.3830  0.0697
 1107SOL     hw 4427   0.909   5.305   6.358  1.6017 -0.7992  1.4507
 1107SOL     vw 4428   0.924   5.379   6.402  0.1498  0.4220  0.0026
 1108SOL     ow 4429   6.465   0.855   2.064 -0.3442 -0.0246 -0.3551
 1108SOL     hw 4430   6.430   0.771   2.095 -1.5236  0.6482  0.1808
 1108SOL     hw 4431   6.418   0.921   2.114  0.4324  0.9817 -0.9084
 1108SOL     vw 4432   6.454   0.853   2.075 -0.3974  0.1970 -0.3574
 1109SOL     ow 4433   5.683   2.423   0.339 -0.2635  0.4467  0.4001
 1109SOL     hw 4434   5.658   2.476   0.263 -2.4661  0.6846  1.2005
 1109SOL     hw 4435   5.778   2.423   0.338 -0.2178  1.9893 -1.3015
 1109SOL     vw 4436   5.692   2.430   0.329 -0.5484  0.6815  0.2812
 1110SOL     ow 4437   6.645   4.020   4.744  0.3519  0.3018 -0.1671
 1110SOL     hw 4438   6.679   4.058   4.825 -0.0332 -1.3799  0.8074
 1110SOL     hw 4439   6.662   3.927   4.751 -1.5562 -0.1702 -1.0960
 1110SOL     vw 4440   6.652   4.013   4.755  0.0491  0.0174 -0.1612
 1111SOL     ow 4441   4.877   3.844   4.038  0.1069 -0.1571 -0.1832
 1111SOL     hw 4442   4.793   3.874   4.003  0.2857 -0.2395 -0.6864
 1111SOL     hw 4443   4.931   3.923   4.040 -0.5668  0.3360  1.9745
 1111SOL     vw 4444   4.873   3.858   4.034  0.0417 -0.1028  0.0350
 1112SOL     ow 4445   4.223   2.263   1.286 -0.3972  0.3609  0.2794
 1112SOL     hw 4446   4.288   2.297   1.225 -1.3356  2.0130  0.1455
 1112SOL     hw 4447   4.180   2.340   1.322 -1.9576 -0.6613  0.7457
 1112SOL     vw 4448   4.226   2.277   1.283 -0.7269  0.4441  0.3232
 1113SOL     ow 4449   3.569   5.807   0.320 -0.4417 -0.3610  0.3438
 1113SOL     hw 4450   3.570   5.769   0.232  1.1422 -1.5438  0.8109
 1113SOL     hw 4451   3.478   5.829   0.337 -0.5866  1.3887 -2.1886
 1113SOL     vw 4452   3.557   5.805   0.311 -0.2518 -0.2861  0.0713
 1114SOL     ow 4453   2.634   2.574   4.763  0.6312  0.2822 -0.5556
 1114SOL     hw 4454   2.566   2.534   4.709  0.6638 -2.1447  1.0522
 1114SOL     hw 4455   2.701   2.602   4.700 -1.1730  1.4333 -2.0497
 1114SOL     vw 4456   2.634   2.572   4.748  0.3976  0.1140 -0.5407
 1115SOL     ow 4457   1.433   2.308   0.025 -0.6699 -0.0474 -0.1215
 1115SOL     hw 4458   1.494   2.257   0.078 -1.0156  1.2241  1.6191
 1115SOL     hw 4459   1.480   2.390   0.007 -0.2999 -0.6856 -2.4487
 1115SOL     vw 4460   1.447   2.312   0.029 -0.6667  0.0361 -0.1989
 1116SOL     ow 4461   1.933   4.804   4.603 -0.3497 -0.0316  0.4086
 1116SOL     hw 4462   2.004   4.739   4.608  1.1366  1.5239  0.3328
 1116SOL     hw 4463   1.887   4.782   4.521  3.4409  2.0984 -2.6546
 1116SOL     vw 4464   1.936   4.792   4.593  0.3465  0.4549 -0.0055
 1117SOL     ow 4465   1.663   4.349   4.827 -0.2206  1.1884 -0.5930
 1117SOL     hw 4466   1.569   4.371   4.826 -1.6026 -3.5263  1.0272
 1117SOL     hw 4467   1.693   4.378   4.913 -1.7569 -1.9390  1.1447
 1117SOL     vw 4468   1.654   4.356   4.838 -0.6056  0.1535 -0.1502
 1118SOL     ow 4469   2.828   1.535   6.981  0.6025  0.2402  0.2294
 1118SOL     hw 4470   2.805   1.589   7.057 -0.3711 -0.8298  0.7274
 1118SOL     hw 4471   2.764   1.464   6.982 -1.4630  1.7617 -3.3137
 1118SOL     vw 4472   2.816   1.533   6.991  0.2015  0.2998 -0.1721
 1119SOL     ow 4473   6.173   4.384   6.743  0.1769  0.4358 -0.7298
 1119SOL     hw 4474   6.095   4.401   6.690  0.2100 -0.7454 -1.1976
 1119SOL     hw 4475   6.146   4.404   6.833  0.2298  2.8202 -1.1944
 1119SOL     vw 4476   6.159   4.389   6.748  0.1884  0.5944 -0.8526
 1120SOL     ow 4477   4.812   2.682   1.383 -0.3608 -0.0473  0.3815
 1120SOL     hw 4478   4.861   2.762   1.361  0.0883 -0.0006  1.4495
 1120SOL     hw 4479   4.795   2.691   1.477 -3.1389  0.3072 -0.0870
 1120SOL     vw 4480   4.817   2.694   1.393 -0.6680  0.0057  0.4607
 1121SOL     ow 4481   0.339   4.339   0.179 -0.1895  0.0223  0.2392
 1121SOL     hw 4482   0.368   4.424   0.145 -2.6583  1.5370  1.6704
 1121SOL     hw 4483   0.284   4.360   0.254  0.8040 -2.9867  1.9954
 1121SOL     vw 4484   0.336   4.353   0.184 -0.3842 -0.1748  0.6597
 1122SOL     ow 4485   0.042   2.937   0.665 -0.4130  0.0940 -0.1980
 1122SOL     hw 4486   0.020   2.981   0.583  0.1052  2.0787  0.6831
 1122SOL     hw 4487   0.060   3.008   0.727  2.3183 -1.3247  0.8062
 1122SOL     vw 4488   0.041   2.952   0.663  0.0157  0.1688  0.0507
 1123SOL     ow 4489   0.182   1.228   3.017 -0.5164  0.5988 -0.1682
 1123SOL     hw 4490   0.229   1.233   2.933 -0.8727 -1.6416 -0.5438
 1123SOL     hw 4491   0.214   1.304   3.066  0.1294  1.6477 -2.1034
 1123SOL     vw 4492   0.193   1.239   3.012 -0.4782  0.4416 -0.4731
 1124SOL     ow 4493   5.218   5.958   3.519  0.3962  0.8778  0.3980
 1124SOL     hw 4494   5.123   5.955   3.522  0.3932  0.7453  0.2017
 1124SOL     hw 4495   5.244   5.872   3.488  0.5895  0.8535  0.6206
 1124SOL     vw 4496   5.209   5.946   3.515  0.4213  0.8569  0.4015
 1125SOL     ow 4497   2.891   2.671   6.657 -0.1976  0.5125  0.5092
 1125SOL     hw 4498   2.818   2.627   6.614  0.8099 -0.5544 -0.1768
 1125SOL     hw 4499   2.854   2.708   6.737 -1.4368 -0.1696  0.2650
 1125SOL     vw 4500   2.877   2.670   6.662 -0.2282  0.2818  0.3865
 1126SOL     ow 4501   1.273   0.442   1.827  0.0672 -0.1608 -0.4019
 1126SOL     hw 4502   1.289   0.368   1.768  1.6593 -0.1967  0.0319
 1126SOL     hw 4503   1.343   0.437   1.892 -0.1029  1.4211 -0.0521
 1126SOL     vw 4504   1.284   0.431   1.828  0.2548  0.0432 -0.2984
 1127SOL     ow 4505   4.885   1.422   3.935 -0.6960  0.0572 -0.5482
 1127SOL     hw 4506   4.943   1.384   4.001 -0.6484  1.6052  0.3590
 1127SOL     hw 4507   4.854   1.347   3.884 -0.6115 -1.1879  1.1459
 1127SOL     vw 4508   4.888   1.407   3.937 -0.6785  0.0971 -0.2049
 1128SOL     ow 4509   1.004   6.177   2.932  0.0545 -0.0869 -0.2340
 1128SOL     hw 4510   1.016   6.138   3.018  2.7901 -1.0787 -0.9726
 1128SOL     hw 4511   1.011   6.104   2.871  0.1539  0.8553 -1.3911
 1128SOL     vw 4512   1.007   6.162   2.935  0.4286 -0.0935 -0.4841
 1129SOL     ow 4513   6.751   6.116   5.401 -0.7348  0.4027  0.3368
 1129SOL     hw 4514   6.794   6.087   5.481  1.1947 -0.4435 -0.9427
 1129SOL     hw 4515   6.700   6.193   5.427  0.4818  0.6186  2.1976
 1129SOL     vw 4516   6.750   6.122   5.415 -0.3192  0.3200  0.4134
 1130SOL     ow 4517   5.825   1.847   1.322  0.4400 -0.3375  0.5415
 1130SOL     hw 4518   5.831   1.941   1.305 -1.1944 -0.1293  0.8905
 1130SOL     hw 4519   5.911   1.822   1.356  0.9312  1.0009  0.3232
 1130SOL     vw 4520   5.837   1.856   1.324  0.2892 -0.1335  0.5587
 1131SOL     ow 4521   6.571   2.028   1.136  0.5279  0.0522  0.0589
 1131SOL     hw 4522   6.539   2.056   1.051 -0.4429 -0.7830  0.1388
 1131SOL     hw 4523   6.572   2.108   1.189  1.0129  0.5492 -0.6833
 1131SOL     vw 4524   6.567   2.042   1.132  0.4637  0.0076 -0.0286
 1132SOL     ow 4525   0.011   5.899   2.503  0.2633 -0.7197  0.3240
 1132SOL     hw 4526  -0.009   5.809   2.476  1.6896 -0.8679 -0.3287
 1132SOL     hw 4527  -0.071   5.932   2.540 -0.2781 -2.2840  0.5810
 1132SOL     vw 4528  -0.002   5.891   2.504  0.3798 -0.9456  0.2718
 1133SOL     ow 4529   0.168   5.987   1.863  0.4850 -0.1680  0.5807
 1133SOL     hw 4530   0.138   5.987   1.954  0.3111  0.5128  0.5352
 1133SOL     hw 4531   0.104   5.933   1.817  0.5526 -0.4854  0.8551
 1133SOL     vw 4532   0.156   5.980   1.869  0.4709 -0.1202  0.6109
 1134SOL     ow 4533   6.970   2.702   5.555 -0.6361 -0.2745 -0.0898
 1134SOL     hw 4534   6.915   2.780   5.557  0.0944  0.2644  1.8731
 1134SOL     hw 4535   7.013   2.705   5.469 -1.8549  0.5768 -0.6905
 1134SOL     vw 4536   6.969   2.713   5.544 -0.7005 -0.0912  0.0896
 1135SOL     ow 4537   1.749   3.651   6.938 -0.3836  0.1908 -0.0450
 1135SOL     hw 4538   1.714   3.597   6.868 -1.0912 -1.1404  1.2918
 1135SOL     hw 4539   1.838   3.618   6.952 -0.3128  0.3245 -0.1771
 1135SOL     vw 4540   1.756   3.640   6.931 -0.4677  0.0328  0.1137
 1136SOL     ow 4541   1.886   2.915   4.642  0.1714  0.6547  0.0934
 1136SOL     hw 4542   1.934   2.836   4.665  2.2440  0.8306 -3.0711
 1136SOL     hw 4543   1.808   2.883   4.597  0.6020  0.3685 -0.4655
 1136SOL     vw 4544   1.882   2.900   4.639  0.5016  0.6403 -0.3977
 1137SOL     ow 4545   5.478   2.160   6.281  0.1409 -0.7669 -0.5164
 1137SOL     hw 4546   5.517   2.134   6.197  3.2465 -2.2554  1.1688
 1137SOL     hw 4547   5.470   2.255   6.276 -3.0354 -1.0005 -3.6350
 1137SOL     vw 4548   5.482   2.169   6.269  0.1314 -0.9943 -0.7052
 1138SOL     ow 4549   5.944   5.946   4.611  0.1163  1.1516  0.2583
 1138SOL     hw 4550   5.907   6.020   4.659 -1.3374  0.1159  0.8126
 1138SOL     hw 4551   5.978   5.887   4.679  0.9746  1.1451 -0.1583
 1138SOL     vw 4552   5.943   5.948   4.626  0.0379  1.0140  0.2766
 1139SOL     ow 4553   0.359   7.013   0.455  0.9235  0.2182  0.0563
 1139SOL     hw 4554   0.424   7.083   0.461  2.0536 -0.7401 -0.5312
 1139SOL     hw 4555   0.348   6.997   0.362  1.8718 -1.4104  0.1739
 1139SOL     vw 4556   0.366   7.020   0.444  1.1978 -0.1235 -0.0057
 1140SOL     ow 4557   2.676   3.624   2.791  0.2718 -0.0057  0.2811
 1140SOL     hw 4558   2.589   3.656   2.813  0.8949  1.3435  0.9254
 1140SOL     hw 4559   2.695   3.558   2.858 -0.3415 -0.5077 -0.0248
 1140SOL     vw 4560   2.667   3.620   2.802  0.2730  0.1061  0.3257
 1141SOL     ow 4561   4.294   6.361   6.881  0.2027 -0.9292  0.1085
 1141SOL     hw 4562   4.240   6.387   6.806 -0.2635 -2.8124 -0.2722
 1141SOL     hw 4563   4.234   6.364   6.956  0.3675 -0.1413  0.2108
 1141SOL     vw 4564   4.279   6.365   6.881  0.1631 -1.0738  0.0718
 1142SOL     ow 4565   2.596   5.863   2.745  0.0649 -0.2848  0.1662
 1142SOL     hw 4566   2.653   5.939   2.747 -0.5837  0.2268 -0.3422
 1142SOL     hw 4567   2.621   5.817   2.664 -1.0547  0.6033 -0.7222
 1142SOL     vw 4568   2.607   5.867   2.734 -0.1684 -0.1004 -0.0181
 1143SOL     ow 4569   6.589   6.916   2.865  0.4471  0.4836  0.6113
 1143SOL     hw 4570   6.583   6.821   2.861  0.2813  0.4630  1.2111
 1143SOL     hw 4571   6.499   6.945   2.880  0.3696  0.7884 -0.3883
 1143SOL     vw 4572   6.576   6.907   2.867  0.4153  0.5212  0.5586
 1144SOL     ow 4573   7.197   0.953   1.180 -0.0197  0.8694 -0.3676
 1144SOL     hw 4574   7.213   1.047   1.172 -1.7494  1.2209 -0.1348
 1144SOL     hw 4575   7.107   0.946   1.211  1.5978 -0.7533  4.9855
 1144SOL     vw 4576   7.187   0.964   1.183 -0.0345  0.7016  0.3693
 1145SOL     ow 4577   0.767   6.626   5.004  0.3636 -0.0055  0.4623
 1145SOL     hw 4578   0.704   6.629   4.932  0.9516 -1.0136 -0.1132
 1145SOL     hw 4579   0.713   6.615   5.083 -0.2170 -0.2092  0.0454
 1145SOL     vw 4580   0.751   6.625   5.005  0.3645 -0.1655  0.3316
 1146SOL     ow 4581   5.019   1.217   4.552 -0.2191  0.0451 -0.1906
 1146SOL     hw 4582   5.024   1.261   4.637 -0.6616  0.5384 -0.4139
 1146SOL     hw 4583   5.075   1.140   4.561  1.9574  1.5269 -0.3329
 1146SOL     vw 4584   5.027   1.213   4.564  0.0095  0.3057 -0.2387
 1147SOL     ow 4585   3.111   6.226   5.226  0.5291 -0.7479  0.1781
 1147SOL     hw 4586   3.108   6.188   5.314 -0.3876 -0.1789  0.4126
 1147SOL     hw 4587   3.053   6.302   5.231  0.7420 -0.5062 -0.8254
 1147SOL     vw 4588   3.103   6.231   5.238  0.4362 -0.6406  0.0765
 1148SOL     ow 4589   1.496   0.110   4.540 -0.1928 -0.6195 -0.1145
 1148SOL     hw 4590   1.415   0.159   4.525 -0.2345 -1.2470 -2.2441
 1148SOL     hw 4591   1.543   0.113   4.457  3.4091  2.0982  1.7204
 1148SOL     vw 4592   1.492   0.117   4.527  0.2770 -0.3437 -0.1533
 1149SOL     ow 4593   0.030   3.614   6.154  0.5430 -0.3066 -0.6108
 1149SOL     hw 4594   0.104   3.571   6.110 -0.2863 -2.3978 -0.0944
 1149SOL     hw 4595   0.015   3.693   6.103  2.7045 -0.1574 -1.1241
 1149SOL     vw 4596   0.038   3.619   6.141  0.7188 -0.5628 -0.6101
 1150SOL     ow 4597   6.465   2.621   5.431 -0.1139 -0.0517 -0.9355
 1150SOL     hw 4598   6.418   2.551   5.477  1.9067 -0.1928  1.1313
 1150SOL     hw 4599   6.543   2.578   5.395 -0.5413  0.5257 -2.6207
 1150SOL     vw 4600   6.469   2.606   5.433  0.0961  0.0060 -0.8850
 1151SOL     ow 4601   5.378   5.501   4.743  0.2101 -0.0365  0.2081
 1151SOL     hw 4602   5.364   5.407   4.725 -1.1986 -0.4120  2.6950
 1151SOL     hw 4603   5.458   5.523   4.697 -0.4851 -1.9447 -2.1253
 1151SOL     vw 4604   5.387   5.491   4.734 -0.0675 -0.3376  0.2284
 1152SOL     ow 4605   2.646   2.706   2.881 -0.4908  0.0407  0.2990
 1152SOL     hw 4606   2.629   2.798   2.861  1.3229  0.3352 -0.1027
 1152SOL     hw 4607   2.655   2.664   2.795 -0.5012 -0.3350  0.4795
 1152SOL     vw 4608   2.645   2.712   2.867 -0.2527  0.0300  0.2699
 1153SOL     ow 4609   2.997   4.986   4.699  0.5236 -0.2741 -0.5009
 1153SOL     hw 4610   3.016   4.928   4.625 -0.0942 -1.8091  0.5044
 1153SOL     hw 4611   2.936   5.050   4.664  0.1956 -1.0181 -1.3132
 1153SOL     vw 4612   2.992   4.987   4.685  0.3986 -0.5746 -0.4756
 1154SOL     ow 4613   4.883   3.514   5.172  0.1777  0.8831  0.0524
 1154SOL     hw 4614   4.881   3.474   5.085 -1.1805  1.3332 -0.1484
 1154SOL     hw 4615   4.885   3.608   5.156 -0.0417  0.9692  0.5103
 1154SOL     vw 4616   4.883   3.521   5.158 -0.0308  0.9539  0.0865
 1155SOL     ow 4617   1.480   1.890   6.176 -0.0862 -0.1593  0.9844
 1155SOL     hw 4618   1.419   1.820   6.199  1.3863 -2.6015 -1.8629
 1155SOL     hw 4619   1.554   1.878   6.235 -0.3792 -0.1638  1.3544
 1155SOL     vw 4620   1.482   1.879   6.187  0.0695 -0.4821  0.6576
 1156SOL     ow 4621   2.710   5.645   3.145 -0.8212 -0.0802  0.1371
 1156SOL     hw 4622   2.676   5.593   3.218  2.6130 -1.2494  1.1119
 1156SOL     hw 4623   2.780   5.697   3.184  1.5849 -1.2132 -2.3505
 1156SOL     vw 4624   2.715   5.645   3.160 -0.0507 -0.3841 -0.0626
 1157SOL     ow 4625   1.784   2.518   0.604 -0.2680 -0.0749  0.1371
 1157SOL     hw 4626   1.804   2.520   0.698  2.1539  3.1814 -0.2883
 1157SOL     hw 4627   1.789   2.425   0.581  5.6315 -0.6522  2.1161
 1157SOL     vw 4628   1.787   2.506   0.614  0.8299  0.2786  0.3421
 1158SOL     ow 4629   1.345   3.600   5.758 -0.4591  0.3579 -0.5330
 1158SOL     hw 4630   1.290   3.535   5.802  1.2505 -2.0143 -1.6817
 1158SOL     hw 4631   1.315   3.599   5.667 -0.1954  0.9372 -0.6333
 1158SOL     vw 4632   1.334   3.591   5.752 -0.1988  0.1214 -0.6979
 1159SOL     ow 4633   3.880   5.182   0.694 -0.3869  0.8434  0.8464
 1159SOL     hw 4634   3.952   5.236   0.729  1.1235  0.4808 -1.4958
 1159SOL     hw 4635   3.922   5.126   0.629 -2.5264 -0.7122  0.7291
 1159SOL     vw 4636   3.895   5.182   0.690 -0.4700  0.5901  0.5219
 1160SOL     ow 4637   6.145   3.103   2.107 -0.3390  0.5082 -0.1273
 1160SOL     hw 4638   6.078   3.048   2.148  1.4439 -1.0991  0.8302
 1160SOL     hw 4639   6.125   3.192   2.136 -2.9112  0.3477 -1.1457
 1160SOL     vw 4640   6.134   3.107   2.116 -0.4430  0.2749 -0.1353
 1161SOL     ow 4641   1.305   1.900   1.845  0.3498 -0.2009 -0.3758
 1161SOL     hw 4642   1.351   1.918   1.764  1.6929 -1.3277  0.0965
 1161SOL     hw 4643   1.284   1.807   1.841  2.9533 -1.0045  1.7032
 1161SOL     vw 4644   1.308   1.890   1.834  0.8705 -0.4555 -0.0392
 1162SOL     ow 4645   4.109   4.349   1.134 -0.4530  0.2291 -0.1304
 1162SOL     hw 4646   4.159   4.273   1.106 -0.7078  0.0476 -0.0953
 1162SOL     hw 4647   4.055   4.318   1.206  0.3924  0.7611  0.7477
 1162SOL     vw 4648   4.108   4.335   1.140 -0.3750  0.2751 -0.0099
 1163SOL     ow 4649   1.457   3.286   3.699  0.5191  0.1903 -0.0897
 1163SOL     hw 4650   1.398   3.212   3.682  2.5853 -1.8560  1.0214
 1163SOL     hw 4651   1.435   3.314   3.788 -0.1135  0.8317 -0.4310
 1163SOL     vw 4652   1.446   3.280   3.708  0.7082  0.0049  0.0117
 1164SOL     ow 4653   4.199   4.544   4.413 -0.7098 -0.0124 -0.3664
 1164SOL     hw 4654   4.137   4.508   4.351 -1.2781  0.1167  0.1120
 1164SOL     hw 4655   4.205   4.478   4.483 -0.6488  0.1698 -0.1963
 1164SOL     vw 4656   4.192   4.531   4.414 -0.7765  0.0286 -0.2809
 1165SOL     ow 4657   3.724   3.217   0.032  0.1193 -0.2083  0.4704
 1165SOL     hw 4658   3.714   3.301  -0.014  1.6535 -0.0620  0.3333
 1165SOL     hw 4659   3.763   3.240   0.116  1.1228 -0.8045  0.1936
 1165SOL     vw 4660   3.728   3.231   0.037  0.4541 -0.2676  0.4158
 1166SOL     ow 4661   5.763   6.733   2.038 -0.5857  0.2270 -0.7180
 1166SOL     hw 4662   5.669   6.717   2.033 -0.4661 -0.5278 -0.7442
 1166SOL     hw 4663   5.796   6.713   1.950 -0.3405  0.0198 -0.5830
 1166SOL     vw 4664   5.755   6.728   2.026 -0.5376  0.1001 -0.7037
 1167SOL     ow 4665   0.714   6.425   4.014 -0.2494  0.2382 -0.2954
 1167SOL     hw 4666   0.620   6.438   4.018 -0.4966 -1.3566 -0.3159
 1167SOL     hw 4667   0.733   6.412   3.921 -0.3336 -1.3853 -0.1175
 1167SOL     vw 4668   0.704   6.425   4.002 -0.2931 -0.1867 -0.2749
 1168SOL     ow 4669   5.605   3.169   1.160  0.2083 -0.3589  0.5765
 1168SOL     hw 4670   5.547   3.236   1.197  0.9714 -0.0983  1.3529
 1168SOL     hw 4671   5.625   3.199   1.072  0.7949  0.6191  1.0266
 1168SOL     vw 4672   5.600   3.182   1.154  0.3862 -0.1956  0.7383
 1169SOL     ow 4673   0.202   5.884   2.118  0.4717  0.1578 -0.3765
 1169SOL     hw 4674   0.267   5.932   2.169 -0.0407 -0.0434  0.4836
 1169SOL     hw 4675   0.254   5.829   2.060  1.0924 -0.2493  0.5321
 1169SOL     vw 4676   0.218   5.883   2.117  0.4860  0.0775 -0.1432
 1170SOL     ow 4677   2.678   3.204   5.066  0.3833 -0.2725 -0.3152
 1170SOL     hw 4678   2.695   3.145   5.140 -0.0434 -0.7652 -0.6017
 1170SOL     hw 4679   2.645   3.147   4.998  0.3776  0.2460 -0.7505
 1170SOL     vw 4680   2.676   3.189   5.067  0.3264 -0.2689 -0.4103
 1171SOL     ow 4681   0.917   6.454   4.828  0.4647 -0.1324  0.0355
 1171SOL     hw 4682   0.966   6.380   4.864  0.9710  0.4528  0.5781
 1171SOL     hw 4683   0.826   6.424   4.825  0.7919 -1.0842 -0.5869
 1171SOL     vw 4684   0.911   6.441   4.833  0.5747 -0.1805  0.0248
 1172SOL     ow 4685   2.866   6.550   4.335  0.5308  0.2576 -0.6096
 1172SOL     hw 4686   2.784   6.535   4.383 -0.8904 -1.9573 -3.4132
 1172SOL     hw 4687   2.861   6.642   4.309 -0.3757  0.5153  0.3703
 1172SOL     vw 4688   2.854   6.560   4.338  0.2238 -0.0007 -0.8500
 1173SOL     ow 4689   3.817   5.835   0.588  0.1502  0.3230 -0.2724
 1173SOL     hw 4690   3.763   5.883   0.525 -1.1965 -0.4523  0.2396
 1173SOL     hw 4691   3.883   5.791   0.536 -1.0685 -0.4775 -1.2024
 1173SOL     vw 4692   3.818   5.836   0.573 -0.1884  0.1152 -0.3275
 1174SOL     ow 4693   3.872   1.434   6.574 -0.8892 -0.4550 -0.0696
 1174SOL     hw 4694   3.885   1.413   6.667  4.3755 -0.3551 -0.5031
 1174SOL     hw 4695   3.857   1.529   6.574 -1.1653 -0.4867  0.6821
 1174SOL     vw 4696   3.871   1.444   6.586 -0.2308 -0.4460 -0.0274
 1175SOL     ow 4697   3.130   6.699   3.002  0.1103  0.1455  0.0166
 1175SOL     hw 4698   3.198   6.714   3.068 -0.5137  0.6569  0.5638
 1175SOL     hw 4699   3.162   6.743   2.923 -0.5158  2.2619  0.8620
 1175SOL     vw 4700   3.143   6.707   3.000 -0.0547  0.4921  0.2002
 1176SOL     ow 4701   4.788   2.423   6.232 -0.1457  0.5151  0.1854
 1176SOL     hw 4702   4.880   2.415   6.205 -0.3760  1.0762 -0.8180
 1176SOL     hw 4703   4.793   2.453   6.323  0.6534 -0.4810  0.4983
 1176SOL     vw 4704   4.801   2.426   6.241 -0.0703  0.4576  0.0942
 1177SOL     ow 4705   6.164   6.746   3.727 -0.1673 -0.0030 -0.4540
 1177SOL     hw 4706   6.189   6.709   3.811 -0.2030  4.1955  1.6839
 1177SOL     hw 4707   6.236   6.723   3.668  0.5417 -1.9126  1.0479
 1177SOL     vw 4708   6.177   6.738   3.730 -0.0787  0.2990  0.0262
 1178SOL     ow 4709   4.818   1.693   3.048  0.0152  0.1566  0.2214
 1178SOL     hw 4710   4.836   1.739   3.130 -0.3890  1.3443 -0.3321
 1178SOL     hw 4711   4.871   1.613   3.053 -1.7484 -0.9833  2.6576
 1178SOL     vw 4712   4.828   1.688   3.059 -0.2708  0.1629  0.4698
 1179SOL     ow 4713   3.812   1.308   6.334 -0.7963  0.0952  0.2807
 1179SOL     hw 4714   3.897   1.348   6.313 -1.2030  0.1017 -1.5413
 1179SOL     hw 4715   3.801   1.324   6.428  1.6270 -0.7040  0.7804
 1179SOL     vw 4716   3.822   1.316   6.343 -0.5302 -0.0094  0.1066
 1180SOL     ow 4717   0.501   4.527   2.545 -0.4103  0.0915 -0.2747
 1180SOL     hw 4718   0.530   4.438   2.524  0.7228 -0.1057  1.8494
 1180SOL     hw 4719   0.405   4.521   2.547 -0.3633 -0.9398 -0.6604
 1180SOL     vw 4720   0.492   4.514   2.542 -0.2546 -0.0708 -0.0454
 1181SOL     ow 4721   3.817   4.660   2.145 -0.1553  0.2226 -0.3873
 1181SOL     hw 4722   3.839   4.569   2.125  0.1896  0.3381 -0.5427
 1181SOL     hw 4723   3.811   4.703   2.060  0.6618  0.5635 -0.2858
 1181SOL     vw 4724   3.819   4.654   2.131 -0.0020  0.2825 -0.3943
 1182SOL     ow 4725   6.834   5.805   5.286  0.0018  0.4371 -0.5027
 1182SOL     hw 4726   6.852   5.721   5.327 -1.2978  0.1161 -0.5664
 1182SOL     hw 4727   6.917   5.830   5.244  0.6660 -0.3367  0.3316
 1182SOL     vw 4728   6.847   5.797   5.286 -0.0820  0.2928 -0.4010
 1183SOL     ow 4729   7.124   6.220   4.804 -0.2477  0.0750 -0.3646
 1183SOL     hw 4730   7.046   6.238   4.856 -1.2772 -0.6319 -1.6274
 1183SOL     hw 4731   7.188   6.189   4.868 -1.4897 -0.8172  0.4853
 1183SOL     vw 4732   7.122   6.218   4.819 -0.5474 -0.1359 -0.4191
 1184SOL     ow 4733   1.742   4.883   3.864 -0.5612 -0.0206 -0.2084
 1184SOL     hw 4734   1.759   4.959   3.921  1.3121 -0.6093  0.0799
 1184SOL     hw 4735   1.691   4.824   3.919 -0.6116  0.3216  0.1220
 1184SOL     vw 4736   1.738   4.885   3.879 -0.3207 -0.0532 -0.1267
 1185SOL     ow 4737   5.436   5.088   2.190 -0.5024 -0.4314 -0.2419
 1185SOL     hw 4738   5.485   5.042   2.122 -0.8935  0.3264 -1.0441
 1185SOL     hw 4739   5.344   5.066   2.173 -0.4750 -2.3995  1.6591
 1185SOL     vw 4740   5.430   5.079   2.179 -0.5503 -0.5910 -0.0969
 1186SOL     ow 4741   4.724   0.125   4.877 -0.2002  0.2590 -0.2169
 1186SOL     hw 4742   4.813   0.110   4.843 -0.7897 -3.1325 -0.6233
 1186SOL     hw 4743   4.686   0.188   4.816  2.2123  2.8864  0.7193
 1186SOL     vw 4744   4.731   0.132   4.864  0.0401  0.1582 -0.1471
 1187SOL     ow 4745   1.981   6.178   2.193  0.2437 -0.4265 -0.0772
 1187SOL     hw 4746   1.936   6.150   2.274 -0.2771  0.8327  0.1050
 1187SOL     hw 4747   2.042   6.245   2.223  2.0951 -1.9187 -0.3747
 1187SOL     vw 4748   1.983   6.183   2.208  0.4192 -0.4573 -0.0923
 1188SOL     ow 4749   4.615   6.836   5.779  0.0037  0.0753  0.1257
 1188SOL     hw 4750   4.545   6.818   5.717  0.6694 -1.9843 -0.1087
 1188SOL     hw 4751   4.576   6.823   5.865 -0.3953  0.9122  0.0777
 1188SOL     vw 4752   4.601   6.832   5.783  0.0389 -0.0861  0.0885
 1189SOL     ow 4753   3.373   0.622   4.957 -1.0878 -0.1836 -0.2176
 1189SOL     hw 4754   3.356   0.558   4.887  1.8609  0.7862 -1.9824
 1189SOL     hw 4755   3.404   0.569   5.030  1.7751 -0.9229 -1.8028
 1189SOL     vw 4756   3.375   0.606   4.957 -0.3210 -0.1532 -0.6595
 1190SOL     ow 4757   2.912   3.966   0.151 -0.3809  0.0466  0.0177
 1190SOL     hw 4758   2.991   3.918   0.125 -0.1633  0.2768  0.2463
 1190SOL     hw 4759   2.893   3.934   0.239 -1.9106 -1.7563 -0.8878
 1190SOL     vw 4760   2.920   3.955   0.159 -0.5540 -0.1609 -0.0716
 1191SOL     ow 4761   1.344   4.719   6.396 -0.3211  0.3686 -0.7896
 1191SOL     hw 4762   1.302   4.768   6.467  1.6628  1.3878 -0.2322
 1191SOL     hw 4763   1.315   4.762   6.316 -2.2455 -0.5252 -0.6183
 1191SOL     vw 4764   1.335   4.731   6.394 -0.3133  0.3850 -0.6933
 1192SOL     ow 4765   4.670   2.263   6.997 -0.4673 -0.4049  0.3584
 1192SOL     hw 4766   4.688   2.277   7.090 -1.1891 -0.4582  0.5136
 1192SOL     hw 4767   4.685   2.169   6.985 -3.6749 -1.1691  1.2451
 1192SOL     vw 4768   4.674   2.252   7.008 -0.9856 -0.5128  0.4957
 1193SOL     ow 4769   2.323   3.784   4.260 -0.4398  0.0339 -0.2431
 1193SOL     hw 4770   2.365   3.813   4.179  0.2209 -0.1476  0.0321
 1193SOL     hw 4771   2.342   3.690   4.265 -0.5561  0.0253  0.0801
 1193SOL     vw 4772   2.331   3.775   4.250 -0.3680  0.0088 -0.1643
 1194SOL     ow 4773   2.253   3.475   3.477  0.1038  0.1354 -0.2081
 1194SOL     hw 4774   2.180   3.425   3.441 -2.5959  3.0514  0.7849
 1194SOL     hw 4775   2.214   3.529   3.545  2.8594  3.1169 -0.7635
 1194SOL     vw 4776   2.238   3.475   3.481  0.1112  0.9135 -0.1502
 1195SOL     ow 4777   1.977   6.578   0.421  0.5831 -0.1005 -0.1022
 1195SOL     hw 4778   1.910   6.509   0.418  0.6994 -0.2039 -0.3478
 1195SOL     hw 4779   2.031   6.554   0.497  0.5391 -0.2007 -0.1021
 1195SOL     vw 4780   1.976   6.565   0.431  0.5926 -0.1271 -0.1346
 1196SOL     ow 4781   3.694   5.772   2.812  0.3545 -0.0063  0.2496
 1196SOL     hw 4782   3.631   5.832   2.773 -0.2321 -1.1658 -0.6458
 1196SOL     hw 4783   3.642   5.711   2.865  0.9987  0.6081  1.6541
 1196SOL     vw 4784   3.679   5.772   2.814  0.3622 -0.0782  0.3166
 1197SOL     ow 4785   1.105   3.615   6.300  0.0559  0.5090 -0.0577
 1197SOL     hw 4786   1.093   3.705   6.330 -0.3872  0.6666 -0.6838
 1197SOL     hw 4787   1.016   3.582   6.288  0.1281 -0.8047  2.3893
 1197SOL     vw 4788   1.092   3.622   6.302  0.0069  0.3564  0.1826
 1198SOL     ow 4789   2.113   2.717   6.430  1.1839 -1.0129 -0.7017
 1198SOL     hw 4790   2.184   2.709   6.495 -1.9096 -0.1587  3.1978
 1198SOL     hw 4791   2.104   2.812   6.417 -1.5547 -0.7275  2.0589
 1198SOL     vw 4792   2.121   2.729   6.437  0.4144 -0.8626  0.1769
 1199SOL     ow 4793   1.225   3.254   1.860 -0.1633 -0.2089  0.8642
 1199SOL     hw 4794   1.290   3.296   1.803  0.5452 -0.3803  1.5375
 1199SOL     hw 4795   1.205   3.320   1.926 -0.4789 -0.2563  0.8198
 1199SOL     vw 4796   1.231   3.268   1.861 -0.1115 -0.2379  0.9471
 1200SOL     ow 4797   6.606   1.681   6.410  0.2563  0.8950  0.6395
 1200SOL     hw 4798   6.643   1.593   6.398  0.2722  1.0018 -0.1410
 1200SOL     hw 4799   6.543   1.690   6.339  1.3010  2.0501 -0.1904
 1200SOL     vw 4800   6.603   1.670   6.399  0.3963  1.0615  0.4268
 1201SOL     ow 4801   7.150   1.671   5.549  0.4144  0.2645  0.3710
 1201SOL     hw 4802   7.136   1.707   5.462 -1.2312 -3.4002 -1.0816
 1201SOL     hw 4803   7.077   1.705   5.601 -2.1490 -2.0470 -1.4313
 1201SOL     vw 4804   7.139   1.681   5.545 -0.1411 -0.5239 -0.0584
 1202SOL     ow 4805   2.072   6.853   6.083 -0.2358  0.4657 -0.0926
 1202SOL     hw 4806   2.126   6.866   6.004  0.8125  0.8632  0.6643
 1202SOL     hw 4807   2.135   6.833   6.152 -1.3100 -2.7879  0.1001
 1202SOL     vw 4808   2.088   6.852   6.081 -0.2391  0.0889  0.0329
 1203SOL     ow 4809   1.829   5.971   3.818  0.3665  0.4394  0.5994
 1203SOL     hw 4810   1.802   6.056   3.784  0.5593  0.1397 -0.3167
 1203SOL     hw 4811   1.831   5.983   3.913 -1.9833  0.7691  0.6735
 1203SOL     vw 4812   1.826   5.983   3.826  0.0820  0.4435  0.4883
 1204SOL     ow 4813   2.790   7.025   3.064 -0.4873  0.2402  0.0192
 1204SOL     hw 4814   2.726   7.090   3.035 -2.2264 -1.9025 -1.3104
 1204SOL     hw 4815   2.761   7.000   3.152  0.0132  1.0273  0.4144
 1204SOL     vw 4816   2.778   7.030   3.072 -0.6508  0.0613 -0.1040
 1205SOL     ow 4817   5.046   7.197   4.228  0.4879 -0.2116 -0.2209
 1205SOL     hw 4818   4.960   7.212   4.189  0.2794  0.3922  0.4377
 1205SOL     hw 4819   5.101   7.168   4.156 -0.1631 -0.1870 -0.7337
 1205SOL     vw 4820   5.042   7.195   4.214  0.3743 -0.1288 -0.2017
 1206SOL     ow 4821   2.642   3.129   1.868  0.0142 -0.6781  0.3669
 1206SOL     hw 4822   2.663   3.070   1.796 -2.9367 -3.5179  1.5724
 1206SOL     hw 4823   2.607   3.208   1.826  2.0735 -0.5235 -1.2462
 1206SOL     vw 4824   2.640   3.132   1.853 -0.1034 -1.0324  0.3132
 1207SOL     ow 4825   0.303   6.449   2.737  0.3791  0.9140  0.2976
 1207SOL     hw 4826   0.312   6.432   2.643 -0.6869  0.5647  0.2532
 1207SOL     hw 4827   0.209   6.445   2.754  0.6717 -1.1591  1.7840
 1207SOL     vw 4828   0.292   6.447   2.727  0.2771  0.5941  0.4879
 1208SOL     ow 4829   6.533   7.033   3.458 -0.5724  0.5049  0.3938
 1208SOL     hw 4830   6.586   6.956   3.478  0.2032  0.8473 -0.2818
 1208SOL     hw 4831   6.443   7.001   3.461 -0.3646 -0.0268  1.8219
 1208SOL     vw 4832   6.528   7.018   3.461 -0.4427  0.4802  0.4930
 1209SOL     ow 4833   5.765   4.218   1.075 -0.0560  0.8871  0.1082
 1209SOL     hw 4834   5.767   4.312   1.061 -1.5270  0.8881 -0.3038
 1209SOL     hw 4835   5.721   4.183   0.997 -0.8365  0.0242  0.9064
 1209SOL     vw 4836   5.759   4.225   1.063 -0.3531  0.7732  0.1591
 1210SOL     ow 4837   6.273   5.490   3.017  0.1186 -0.5080  0.2951
 1210SOL     hw 4838   6.355   5.526   2.982  0.2008 -0.7059  0.2862
 1210SOL     hw 4839   6.212   5.564   3.015 -0.3876 -0.9170 -1.8520
 1210SOL     vw 4840   6.276   5.505   3.012  0.0625 -0.5879  0.0106
 1211SOL     ow 4841   2.248   2.598   0.525  0.0915  0.1127 -0.0071
 1211SOL     hw 4842   2.340   2.611   0.502  0.6919 -1.5912  1.1979
 1211SOL     hw 4843   2.215   2.685   0.546  1.2419  0.8297 -1.0723
 1211SOL     vw 4844   2.256   2.611   0.525  0.3225 -0.0176  0.0114
 1212SOL     ow 4845   0.106   2.362   6.813  0.1556 -0.3792  0.3635
 1212SOL     hw 4846   0.139   2.441   6.856 -0.2262 -0.0933  0.1379
 1212SOL     hw 4847   0.172   2.295   6.832  1.8119  0.6002 -1.5590
 1212SOL     vw 4848   0.119   2.364   6.821  0.3238 -0.2122  0.0801
 1213SOL     ow 4849   2.106   1.127   2.081  0.0873  0.5717 -0.4044
 1213SOL     hw 4850   2.123   1.182   2.004  1.0468  0.4925 -0.2599
 1213SOL     hw 4851   2.155   1.170   2.152 -1.2830  0.9910  0.3167
 1213SOL     vw 4852   2.115   1.140   2.080  0.0331  0.6166 -0.2902
 1214SOL     ow 4853   2.476   6.935   5.963 -0.1055  0.1957 -0.3585
 1214SOL     hw 4854   2.400   6.928   5.905  0.3635 -2.4735 -0.8020
 1214SOL     hw 4855   2.548   6.898   5.911  1.0469  0.7673  0.7920
 1214SOL     vw 4856   2.475   6.929   5.948  0.1085 -0.0813 -0.2651
 1215SOL     ow 4857   0.851   5.216   2.037  0.4898  0.2857 -0.0582
 1215SOL     hw 4858   0.920   5.236   1.974  0.4776  3.0783  0.6632
 1215SOL     hw 4859   0.894   5.223   2.122  0.1296 -1.7804  0.3331
 1215SOL     vw 4860   0.866   5.220   2.040  0.4407  0.3812  0.0886
 1216SOL     ow 4861   2.906   3.629   2.522  0.0993  0.7745 -0.2554
 1216SOL     hw 4862   2.863   3.634   2.436  1.6854  0.6503 -1.0934
 1216SOL     hw 4863   3.000   3.638   2.502  0.5057  0.5593  1.4522
 1216SOL     vw 4864   2.913   3.631   2.508  0.3623  0.7297 -0.1408
 1217SOL     ow 4865   3.390   0.786   2.257 -0.0901 -0.1972 -0.0919
 1217SOL     hw 4866   3.321   0.750   2.312  2.7766 -3.3940  1.7321
 1217SOL     hw 4867   3.438   0.846   2.314 -0.0639  0.3679 -0.6888
 1217SOL     vw 4868   3.387   0.789   2.272  0.2916 -0.5445  0.0700
 1218SOL     ow 4869   0.474   5.778   5.589  0.3369  0.1251  0.4233
 1218SOL     hw 4870   0.506   5.857   5.633  0.1106 -0.8109  2.3233
 1218SOL     hw 4871   0.477   5.710   5.655  1.6075 -1.7888 -1.4766
 1218SOL     vw 4872   0.479   5.780   5.603  0.4747 -0.2508  0.4232
 1219SOL     ow 4873   6.027   7.142   6.884  0.2490  0.1758 -0.6009
 1219SOL     hw 4874   6.085   7.084   6.834  1.7601  1.4245 -0.3395
 1219SOL     hw 4875   5.939   7.111   6.862  0.9767 -2.0578 -0.6678
 1219SOL     vw 4876   6.023   7.130   6.874  0.5445  0.0458 -0.5753
 1220SOL     ow 4877   2.712   3.055   5.688 -0.1731 -0.5827  0.1294
 1220SOL     hw 4878   2.632   3.067   5.638  0.5119 -0.0902 -0.8716
 1220SOL     hw 4879   2.779   3.103   5.639  1.0746 -2.3025  0.0845
 1220SOL     vw 4880   2.710   3.063   5.675  0.0819 -0.7446 -0.0086
 1221SOL     ow 4881   6.295   6.900   3.403  0.2366  0.3168  0.5811
 1221SOL     hw 4882   6.213   6.871   3.442 -1.4460 -2.4183 -4.1847
 1221SOL     hw 4883   6.351   6.823   3.406  1.4658  1.1839  0.8005
 1221SOL     vw 4884   6.292   6.886   3.409  0.1769  0.0701 -0.0186
 1222SOL     ow 4885   5.900   0.682   5.955 -0.4083 -0.1681  0.7932
 1222SOL     hw 4886   5.940   0.636   6.029  0.6155 -0.6061  0.0013
 1222SOL     hw 4887   5.821   0.722   5.991 -1.5270 -2.8110  1.4530
 1222SOL     vw 4888   5.895   0.681   5.970 -0.4206 -0.5746  0.7758
 1223SOL     ow 4889   3.834   6.209   1.519 -0.0121 -0.1457 -0.3235
 1223SOL     hw 4890   3.792   6.260   1.449 -1.4555 -1.3065 -0.3649
 1223SOL     hw 4891   3.928   6.225   1.507 -0.1236 -1.0383 -3.1337
 1223SOL     vw 4892   3.841   6.218   1.508 -0.2172 -0.4168 -0.6998
 1224SOL     ow 4893   6.595   5.880   5.457 -0.4856  0.2445  0.2136
 1224SOL     hw 4894   6.601   5.929   5.539 -0.3965  1.7414 -0.6422
 1224SOL     hw 4895   6.502   5.882   5.435 -0.2487  1.7642 -0.7934
 1224SOL     vw 4896   6.584   5.887   5.465 -0.4425  0.6428 -0.0322
 1225SOL     ow 4897   3.179   3.823   1.096  0.1847  0.0332  0.3592
 1225SOL     hw 4898   3.121   3.899   1.096 -0.0050 -0.0392 -1.9028
 1225SOL     hw 4899   3.122   3.749   1.075  0.6721 -0.4347  0.6699
 1225SOL     vw 4900   3.164   3.823   1.093  0.2240 -0.0380  0.1018
 1226SOL     ow 4901   5.752   1.413   6.184 -0.2440  0.3228 -0.3055
 1226SOL     hw 4902   5.846   1.421   6.202 -0.3112 -0.0574  0.2564
 1226SOL     hw 4903   5.718   1.361   6.258 -1.1104  1.4876  0.1473
 1226SOL     vw 4904   5.760   1.407   6.196 -0.3672  0.4263 -0.1714
 1227SOL     ow 4905   3.716   1.024   5.953  0.4087  0.3094 -0.3627
 1227SOL     hw 4906   3.715   0.929   5.950  0.4730  0.2149  1.3508
 1227SOL     hw 4907   3.796   1.049   5.907 -0.8978 -0.2671 -3.1890
 1227SOL     vw 4908   3.726   1.015   5.947  0.2449  0.2209 -0.5095
 1228SOL     ow 4909   2.157   1.411   5.140 -0.1121  0.0851  0.3814
 1228SOL     hw 4910   2.161   1.478   5.071 -3.6002  2.0089  1.7925
 1228SOL     hw 4911   2.090   1.350   5.111  0.7757 -1.0492  0.6181
 1228SOL     vw 4912   2.149   1.412   5.127 -0.4551  0.1893  0.5987
 1229SOL     ow 4913   6.360   5.113   4.234 -0.3885 -0.8360  0.0662
 1229SOL     hw 4914   6.358   5.151   4.322 -0.2780  1.3875 -0.8163
 1229SOL     hw 4915   6.272   5.128   4.199 -0.1734 -0.8776 -0.5091
 1229SOL     vw 4916   6.348   5.120   4.241 -0.3455 -0.5481 -0.1264
 1230SOL     ow 4917   2.588   2.747   1.223 -0.1385 -0.1686  0.1746
 1230SOL     hw 4918   2.659   2.734   1.160  1.3819  0.5069  1.6912
 1230SOL     hw 4919   2.573   2.660   1.261  1.6280  0.1145  1.6139
 1230SOL     vw 4920   2.595   2.734   1.220  0.2953 -0.0422  0.5646
 1231SOL     ow 4921   6.775   4.872   7.056 -0.1197  0.1063 -0.5384
 1231SOL     hw 4922   6.761   4.790   7.104 -1.5511  0.9319  0.5306
 1231SOL     hw 4923   6.713   4.933   7.095  1.6621  2.0345 -0.5363
 1231SOL     vw 4924   6.765   4.869   7.068 -0.0737  0.4694 -0.3970
 1232SOL     ow 4925   4.619   1.073   5.407  0.6914  0.1006 -0.1196
 1232SOL     hw 4926   4.639   1.117   5.490 -1.4246  2.8213 -0.8846
 1232SOL     hw 4927   4.703   1.063   5.364  1.5244  1.4650  1.0945
 1232SOL     vw 4928   4.632   1.078   5.412  0.5221  0.6396 -0.0603
 1233SOL     ow 4929   5.630   4.091   6.341  0.1397 -0.0555 -0.2334
 1233SOL     hw 4930   5.658   4.075   6.251  1.3655 -1.0703  0.3021
 1233SOL     hw 4931   5.700   4.146   6.378 -0.1826  0.0635  0.2033
 1233SOL     vw 4932   5.643   4.096   6.334  0.2587 -0.1736 -0.1049
 1234SOL     ow 4933   5.212   1.195   4.798 -0.0992  0.0393  0.1027
 1234SOL     hw 4934   5.298   1.206   4.839 -0.1431 -1.0451  0.5124
 1234SOL     hw 4935   5.222   1.117   4.744 -1.4375 -1.4159  1.8410
 1234SOL     vw 4936   5.225   1.186   4.796 -0.2816 -0.2958  0.3860
 1235SOL     ow 4937   4.864   2.049   0.828  0.0335  0.0498  0.1208
 1235SOL     hw 4938   4.934   2.114   0.829 -0.1641  0.2686 -0.0577
 1235SOL     hw 4939   4.801   2.082   0.763 -0.6940  0.3428  0.9539
 1235SOL     vw 4940   4.865   2.062   0.820 -0.0885  0.1174  0.2072
 1236SOL     ow 4941   0.206   2.560   7.008  0.3593  0.0680  0.6519
 1236SOL     hw 4942   0.142   2.583   7.075  0.2477 -2.4777  1.5271
 1236SOL     hw 4943   0.280   2.522   7.056  1.5331  0.7689 -0.5068
 1236SOL     vw 4944   0.208   2.558   7.023  0.4995 -0.1754  0.6146
 1237SOL     ow 4945   5.444   5.429   6.774  0.6252  0.1777  0.3129
 1237SOL     hw 4946   5.362   5.425   6.822 -0.2647  1.4206 -1.0236
 1237SOL     hw 4947   5.468   5.337   6.759 -1.1610 -0.2247 -0.3135
 1237SOL     vw 4948   5.436   5.416   6.778  0.2720  0.2885  0.0541
 1238SOL     ow 4949   0.401   3.327   1.100 -0.1618 -0.7543 -0.4999
 1238SOL     hw 4950   0.463   3.388   1.140 -0.3050  0.3996 -1.9372
 1238SOL     hw 4951   0.351   3.291   1.173 -1.8230  2.7549  0.2975
 1238SOL     vw 4952   0.403   3.330   1.115 -0.3999 -0.1391 -0.5842
 1239SOL     ow 4953   4.176   2.478   4.772 -0.5540 -0.2802  0.0903
 1239SOL     hw 4954   4.115   2.480   4.846 -1.2928  2.6703 -0.4720
 1239SOL     hw 4955   4.259   2.450   4.811 -1.5515 -1.6221  1.4227
 1239SOL     vw 4956   4.179   2.474   4.787 -0.7830 -0.0679  0.1919
 1240SOL     ow 4957   2.333   0.272   2.436 -0.7514 -0.8466  0.1940
 1240SOL     hw 4958   2.400   0.262   2.368  0.8907 -0.5855  1.6937
 1240SOL     hw 4959   2.329   0.186   2.478 -0.5908 -0.5784  0.7674
 1240SOL     vw 4960   2.341   0.259   2.432 -0.5134 -0.7768  0.4675
 1241SOL     ow 4961   0.408   2.677   6.707 -0.5824 -0.6134 -0.3993
 1241SOL     hw 4962   0.393   2.746   6.772 -0.4480  0.0654 -1.0686
 1241SOL     hw 4963   0.446   2.605   6.757 -0.8761 -0.2704  0.3467
 1241SOL     vw 4964   0.411   2.677   6.722 -0.6034 -0.4786 -0.3893
 1242SOL     ow 4965   2.655   6.583   3.134  0.0572 -0.8415  0.2760
 1242SOL     hw 4966   2.741   6.566   3.096  0.1180 -1.2170  0.5800
 1242SOL     hw 4967   2.617   6.651   3.077  2.1120  2.3059  2.3555
 1242SOL     vw 4968   2.661   6.589   3.121  0.3363 -0.4754  0.5903
 1243SOL     ow 4969   1.070   2.176   4.367  0.1715  0.1658 -0.5388
 1243SOL     hw 4970   1.027   2.091   4.355  1.8808 -0.5718 -1.7715
 1243SOL     hw 4971   1.026   2.234   4.306  0.2877 -0.3426 -1.1149
 1243SOL     vw 4972   1.059   2.172   4.357  0.4123  0.0014 -0.7775
 1244SOL     ow 4973   3.658   1.944   6.377  0.3076  0.1722 -0.4145
 1244SOL     hw 4974   3.629   1.944   6.468 -0.8331  1.3376 -0.7393
 1244SOL     hw 4975   3.686   2.034   6.360  2.4867 -0.4929 -0.6597
 1244SOL     vw 4976   3.658   1.956   6.386  0.4448  0.2382 -0.4897
 1245SOL     ow 4977   2.296   6.307   3.825  0.0530 -0.1066 -0.0252
 1245SOL     hw 4978   2.339   6.316   3.740  0.2640 -1.4413 -0.0764
 1245SOL     hw 4979   2.340   6.233   3.867 -2.1241 -1.5106 -0.0683
 1245SOL     vw 4980   2.307   6.298   3.819 -0.2064 -0.4683 -0.0377
 1246SOL     ow 4981   2.270   3.968   4.548 -0.3930  0.0339 -0.0901
 1246SOL     hw 4982   2.181   3.962   4.513 -0.6917  1.3949  0.3620
 1246SOL     hw 4983   2.287   4.062   4.553  1.1703 -0.2113 -0.3850
 1246SOL     vw 4984   2.260   3.980   4.544 -0.2263  0.1811 -0.0691
 1247SOL     ow 4985   2.812   3.428   5.135 -0.0235  0.7200  0.0530
 1247SOL     hw 4986   2.755   3.358   5.101 -1.6870  2.4863 -0.9907
 1247SOL     hw 4987   2.881   3.381   5.183 -1.2706 -1.6065 -0.2593
 1247SOL     vw 4988   2.814   3.412   5.137 -0.4075  0.6461 -0.1259
 1248SOL     ow 4989   3.689   6.180   2.035  0.0179 -0.0922 -0.4444
 1248SOL     hw 4990   3.728   6.105   2.079  0.0922  0.4111  0.3714
 1248SOL     hw 4991   3.595   6.169   2.048  0.0254 -0.0758 -0.3746
 1248SOL     vw 4992   3.682   6.169   2.042  0.0286 -0.0236 -0.3276
 1249SOL     ow 4993   1.080   2.985   6.228 -0.3898 -0.4944  0.0922
 1249SOL     hw 4994   1.008   3.023   6.177  0.2611 -0.4351 -0.8099
 1249SOL     hw 4995   1.144   2.958   6.162  0.7561  0.1575  0.9058
 1249SOL     vw 4996   1.079   2.987   6.212 -0.1527 -0.4008  0.0806
 1250SOL     ow 4997   2.833   2.213   0.525 -0.2585 -0.3206 -0.2282
 1250SOL     hw 4998   2.784   2.136   0.495 -4.5163  2.0949 -0.3392
 1250SOL     hw 4999   2.844   2.266   0.446  0.7571  0.1188  0.1967
 1250SOL     vw 5000   2.828   2.210   0.510 -0.6862  0.0561 -0.1868
 1251SOL     ow 5001   2.855   5.214   6.594 -0.3486  0.3150  0.2220
 1251SOL     hw 5002   2.847   5.258   6.678 -0.3368 -0.8211  0.8497
 1251SOL     hw 5003   2.886   5.126   6.616 -1.6508 -0.4505 -0.8432
 1251SOL     vw 5004   2.858   5.208   6.608 -0.5189  0.0639  0.1643
 1252SOL     ow 5005   1.044   2.086   2.503 -0.4027 -0.0991 -0.5746
 1252SOL     hw 5006   1.059   2.178   2.527 -1.1000  0.7114 -2.9213
 1252SOL     hw 5007   1.032   2.041   2.587 -0.9470  2.1150  0.6267
 1252SOL     vw 5008   1.044   2.092   2.517 -0.5665  0.2998 -0.7256
 1253SOL     ow 5009   6.896   0.803   6.226  0.6038 -0.4608  0.8857
 1253SOL     hw 5010   6.957   0.876   6.237  1.3369 -0.9932  0.4695
 1253SOL     hw 5011   6.900   0.755   6.308  0.5949 -0.3804  0.9327
 1253SOL     vw 5012   6.905   0.806   6.238  0.6993 -0.5204  0.8368
 1254SOL     ow 5013   2.880   3.096   3.088  0.0673  0.0419 -0.0395
 1254SOL     hw 5014   2.835   3.088   3.004 -1.8374 -1.2216  1.0284
 1254SOL     hw 5015   2.905   3.006   3.111 -0.2584  0.2316  1.1499
 1254SOL     vw 5016   2.877   3.083   3.080 -0.2269 -0.0999  0.2583
 1255SOL     ow 5017   1.530   1.793   0.860 -0.0207 -0.7763 -0.5040
 1255SOL     hw 5018   1.582   1.745   0.924  0.3802 -1.2549 -1.1781
 1255SOL     hw 5019   1.587   1.866   0.833 -0.9690  0.6662  1.1961
 1255SOL     vw 5020   1.545   1.796   0.865 -0.0928 -0.6491 -0.3686
 1256SOL     ow 5021   3.807   3.941   6.366  0.3076 -0.2423  0.0938
 1256SOL     hw 5022   3.793   4.035   6.362  1.9903  0.0221 -0.2696
 1256SOL     hw 5023   3.760   3.913   6.445 -1.5164  0.6168 -0.6370
 1256SOL     vw 5024   3.799   3.949   6.376  0.2890 -0.0941 -0.0503
 1257SOL     ow 5025   6.728   3.574   3.856 -0.2580  0.0243  0.1906
 1257SOL     hw 5026   6.708   3.590   3.948  0.5748 -2.0279  0.7834
 1257SOL     hw 5027   6.800   3.634   3.836 -1.3926  1.5218  0.4024
 1257SOL     vw 5028   6.735   3.584   3.865 -0.2978 -0.0488  0.2967
 1258SOL     ow 5029   2.352   2.682   2.969  0.0910 -0.5278 -0.1712
 1258SOL     hw 5030   2.326   2.667   2.878  0.4120 -0.6939 -0.2339
 1258SOL     hw 5031   2.275   2.723   3.009 -0.3643 -1.2556 -0.2958
 1258SOL     vw 5032   2.338   2.686   2.963  0.0733 -0.6458 -0.1959
 1259SOL     ow 5033   5.495   5.883   3.615 -0.0582 -0.2778 -0.1403
 1259SOL     hw 5034   5.551   5.819   3.660 -1.2542  0.3616  2.4811
 1259SOL     hw 5035   5.553   5.929   3.555  1.9514 -0.5462  1.4918
 1259SOL     vw 5036   5.510   5.881   3.613  0.0491 -0.2289  0.4208
 1260SOL     ow 5037   1.132   6.937   0.586 -0.4237  0.1660  0.2388
 1260SOL     hw 5038   1.110   6.844   0.595 -0.6884  0.4167  2.9770
 1260SOL     hw 5039   1.047   6.981   0.582 -0.3116  0.3862  0.2724
 1260SOL     vw 5040   1.118   6.931   0.586 -0.4438  0.2282  0.6045
 1261SOL     ow 5041   2.316   2.350   4.289  0.0712 -0.7672 -0.2018
 1261SOL     hw 5042   2.341   2.365   4.381 -1.2024 -0.5431  0.1271
 1261SOL     hw 5043   2.317   2.255   4.280  1.1009 -0.7652 -0.2312
 1261SOL     vw 5044   2.320   2.339   4.300  0.0390 -0.7373 -0.1624
 1262SOL     ow 5045   2.946   4.146   4.470  0.4079 -0.8125  0.1024
 1262SOL     hw 5046   2.993   4.065   4.447 -0.5546 -1.1328 -0.7806
 1262SOL     hw 5047   2.923   4.185   4.385  0.5470  0.2081  0.5261
 1262SOL     vw 5048   2.949   4.141   4.455  0.2992 -0.7200  0.0417
 1263SOL     ow 5049   4.397   3.407   1.469  0.0337 -0.4491  0.3308
 1263SOL     hw 5050   4.324   3.468   1.462  0.1299 -0.1589  1.7107
 1263SOL     hw 5051   4.396   3.378   1.560  0.2718 -2.1741 -0.1690
 1263SOL     vw 5052   4.387   3.411   1.480  0.0777 -0.6385  0.4470
 1264SOL     ow 5053   0.199   5.833   2.742 -0.2856 -0.2209  0.4952
 1264SOL     hw 5054   0.128   5.769   2.742  0.9616 -1.6771  0.8364
 1264SOL     hw 5055   0.239   5.824   2.829  0.7636  0.0230  0.0557
 1264SOL     vw 5056   0.195   5.823   2.754  0.0174 -0.3810  0.4823
 1265SOL     ow 5057   2.521   0.913   4.867  0.1015  0.0310  0.1607
 1265SOL     hw 5058   2.502   0.952   4.952  1.4067 -0.3575  0.6642
 1265SOL     hw 5059   2.576   0.979   4.823 -1.2771  0.6071 -0.7511
 1265SOL     vw 5060   2.526   0.927   4.872  0.0918  0.0558  0.1068
 1266SOL     ow 5061   1.055   6.292   3.227  0.9667 -0.3597 -0.4268
 1266SOL     hw 5062   1.072   6.370   3.174  0.3595 -0.5142 -0.8639
 1266SOL     hw 5063   0.962   6.298   3.249  0.7526 -1.2736 -1.0093
 1266SOL     vw 5064   1.045   6.303   3.223  0.8584 -0.5004 -0.5614
 1267SOL     ow 5065   5.378   1.826   3.610  0.3046 -0.0149 -0.4573
 1267SOL     hw 5066   5.375   1.905   3.556  1.8140  0.6504  0.3920
 1267SOL     hw 5067   5.299   1.833   3.665  0.6636  1.1667 -0.0490
 1267SOL     vw 5068   5.367   1.838   3.610  0.5510  0.2289 -0.2913
 1268SOL     ow 5069   4.425   0.751   0.722 -0.0947  0.0612 -0.2305
 1268SOL     hw 5070   4.391   0.764   0.811  0.5192 -1.2315  0.2259
 1268SOL     hw 5071   4.459   0.837   0.696 -1.1820  0.6979  0.3790
 1268SOL     vw 5072   4.425   0.764   0.731 -0.1574 -0.0254 -0.0899
 1269SOL     ow 5073   4.705   5.408   0.611 -0.7660 -0.0807 -0.2318
 1269SOL     hw 5074   4.618   5.397   0.650 -1.5381  1.3351 -1.4396
 1269SOL     hw 5075   4.692   5.472   0.541  1.0372 -0.7157 -1.2126
 1269SOL     vw 5076   4.692   5.415   0.607 -0.6299  0.0224 -0.5206
 1270SOL     ow 5077   6.478   2.263   4.633 -0.1854 -0.4518 -0.0654
 1270SOL     hw 5078   6.385   2.243   4.645 -0.9179  2.6486  0.2092
 1270SOL     hw 5079   6.514   2.268   4.722 -0.4176  0.9111 -0.0265
 1270SOL     vw 5080   6.471   2.261   4.646 -0.3126  0.1371 -0.0241
 1271SOL     ow 5081   3.765   2.517   3.964 -0.4288 -0.1027  0.5542
 1271SOL     hw 5082   3.734   2.549   3.880  0.8734 -0.4678 -0.0859
 1271SOL     hw 5083   3.858   2.539   3.966  0.0266 -1.9135  1.0106
 1271SOL     vw 5084   3.773   2.524   3.953 -0.1967 -0.3898  0.5299
 1272SOL     ow 5085   6.653   3.683   1.706  0.0471  0.2366 -0.5397
 1272SOL     hw 5086   6.660   3.744   1.780 -0.1275 -0.4664  0.0690
 1272SOL     hw 5087   6.618   3.736   1.635 -0.6007  0.7360  0.1295
 1272SOL     vw 5088   6.650   3.698   1.707 -0.0615  0.2097 -0.3711
 1273SOL     ow 5089   2.006   0.160   5.196 -0.4728  0.2716 -0.6615
 1273SOL     hw 5090   2.043   0.112   5.270  1.4907  1.1692 -0.9877
 1273SOL     hw 5091   1.912   0.162   5.213 -0.4364 -2.2137  0.1962
 1273SOL     vw 5092   1.998   0.154   5.208 -0.2090  0.0621 -0.5915
 1274SOL     ow 5093   2.770   5.348   6.283  0.3667  0.1325 -0.0074
 1274SOL     hw 5094   2.760   5.279   6.218  0.7632 -0.5006  0.5866
 1274SOL     hw 5095   2.683   5.355   6.324  0.0838  0.6162 -0.6680
 1274SOL     vw 5096   2.757   5.340   6.280  0.3817  0.1125 -0.0165
 1275SOL     ow 5097   3.377   4.028   5.007 -0.2030 -0.4018 -0.0725
 1275SOL     hw 5098   3.331   3.945   5.015  1.2393 -1.1153  1.3731
 1275SOL     hw 5099   3.352   4.077   5.085 -1.6681  0.9075 -1.2983
 1275SOL     vw 5100   3.368   4.024   5.018 -0.2059 -0.3231 -0.0439
 1276SOL     ow 5101   2.976   1.531   1.241 -0.1026  0.1835 -0.3289
 1276SOL     hw 5102   2.918   1.581   1.298 -0.0484 -0.2751  0.1346
 1276SOL     hw 5103   2.920   1.464   1.202  0.3340 -1.0515  1.0702
 1276SOL     vw 5104   2.961   1.529   1.243 -0.0379 -0.0399 -0.0831
 1277SOL     ow 5105   2.514   2.941   0.199 -0.0921  0.4910 -0.3187
 1277SOL     hw 5106   2.530   2.919   0.291 -0.0747  0.2402 -0.3805
 1277SOL     hw 5107   2.504   2.856   0.156  1.4105  0.5390 -0.8300
 1277SOL     vw 5108   2.515   2.927   0.206  0.1084  0.4642 -0.3943
 1278SOL     ow 5109   0.035   6.599   3.624  0.0724 -0.1729  0.2667
 1278SOL     hw 5110   0.095   6.536   3.584 -0.8904  0.0204 -1.5659
 1278SOL     hw 5111  -0.050   6.554   3.624 -0.4304  0.7654 -0.1842
 1278SOL     vw 5112   0.032   6.585   3.619 -0.1209 -0.0236 -0.0345
 1279SOL     ow 5113   4.551   1.054   6.995 -0.1268  0.2120 -0.5072
 1279SOL     hw 5114   4.634   1.050   7.042  1.3421  0.6035 -2.8610
 1279SOL     hw 5115   4.513   0.966   7.004  0.9551 -0.2208 -0.0775
 1279SOL     vw 5116   4.557   1.042   7.002  0.2098  0.2066 -0.7610
 1280SOL     ow 5117   1.643   5.447   5.973  0.1001  0.7300 -0.0344
 1280SOL     hw 5118   1.590   5.371   5.947  0.0772  1.4883 -2.4905
 1280SOL     hw 5119   1.662   5.433   6.066  2.4262 -3.7364 -0.9054
 1280SOL     vw 5120   1.639   5.435   5.982  0.4039  0.2408 -0.4730
 1281SOL     ow 5121   4.568   6.112   5.387 -0.0932 -0.2833  0.6486
 1281SOL     hw 5122   4.659   6.094   5.413 -0.5602 -1.1158  1.7990
 1281SOL     hw 5123   4.576   6.155   5.302  1.3718 -0.6273  0.5753
 1281SOL     vw 5124   4.581   6.115   5.379  0.0386 -0.4382  0.7906
 1282SOL     ow 5125   5.183   1.773   6.154 -0.1223 -0.2547 -0.1833
 1282SOL     hw 5126   5.154   1.845   6.211  1.4304 -1.0319  1.7323
 1282SOL     hw 5127   5.126   1.700   6.177 -0.3663 -0.2049 -0.6260
 1282SOL     vw 5128   5.172   1.773   6.165  0.0505 -0.3506  0.0110
 1283SOL     ow 5129   6.339   0.837   1.721  0.3998  0.6750 -0.2257
 1283SOL     hw 5130   6.410   0.780   1.691 -0.3084 -0.3748  0.0357
 1283SOL     hw 5131   6.259   0.790   1.696 -0.2342  2.1863 -1.2090
 1283SOL     vw 5132   6.338   0.823   1.714  0.2227  0.7359 -0.3210
 1284SOL     ow 5133   5.806   4.642   5.424  0.2343 -0.4744  0.0906
 1284SOL     hw 5134   5.772   4.677   5.342  1.7512  0.9734  0.0406
 1284SOL     hw 5135   5.727   4.621   5.475 -0.7236  0.5973 -0.8897
 1284SOL     vw 5136   5.791   4.644   5.420  0.3080 -0.1419 -0.0455
 1285SOL     ow 5137   1.283   4.009   6.814  0.6491  0.1825  0.5082
 1285SOL     hw 5138   1.249   4.021   6.903 -1.4536 -3.5054  0.3943
 1285SOL     hw 5139   1.221   4.058   6.759  0.6722  0.6583  0.8905
 1285SOL     vw 5140   1.270   4.017   6.819  0.3747 -0.2413  0.5438
 1286SOL     ow 5141   4.178   3.013   3.312  0.4599 -0.2872  0.5305
 1286SOL     hw 5142   4.205   2.922   3.324  1.6094  0.0020  0.1944
 1286SOL     hw 5143   4.253   3.064   3.341  0.0450  0.5528  0.1426
 1286SOL     vw 5144   4.191   3.007   3.317  0.5567 -0.1383  0.4350
 1287SOL     ow 5145   4.170   2.919   7.180 -0.1769  0.1223  0.0003
 1287SOL     hw 5146   4.140   2.840   7.223  0.9698 -0.1534  0.3310
 1287SOL     hw 5147   4.265   2.908   7.172 -0.1038  1.0740 -0.7376
 1287SOL     vw 5148   4.179   2.907   7.184 -0.0157  0.2115 -0.0534
 1288SOL     ow 5149   0.660   1.675   6.551 -0.2088 -0.2168 -0.7235
 1288SOL     hw 5150   0.736   1.731   6.564 -0.1214 -0.5450  0.2629
 1288SOL     hw 5151   0.600   1.726   6.497  0.8490 -0.0845 -1.8092
 1288SOL     vw 5152   0.662   1.689   6.546 -0.0577 -0.2427 -0.7365
 1289SOL     ow 5153   3.882   4.877   2.390  0.0523 -0.6123 -0.1917
 1289SOL     hw 5154   3.885   4.923   2.474  2.3772 -1.0367  0.0445
 1289SOL     hw 5155   3.972   4.881   2.357 -0.7765 -0.4729 -2.6854
 1289SOL     vw 5156   3.895   4.883   2.397  0.2497 -0.6499 -0.4896
 1290SOL     ow 5157   1.120   5.899   1.969  0.7034  1.0828 -0.6769
 1290SOL     hw 5158   1.112   5.940   2.055 -0.0415 -0.1879 -0.1148
 1290SOL     hw 5159   1.209   5.919   1.941  1.2297  0.8436  0.7523
 1290SOL     vw 5160   1.130   5.907   1.977  0.6746  0.8836 -0.4143
 1291SOL     ow 5161   6.214   2.270   0.242  0.2552 -0.4675 -0.3401
 1291SOL     hw 5162   6.294   2.320   0.256  0.9762 -0.8463 -2.7380
 1291SOL     hw 5163   6.229   2.188   0.288  0.1982  0.3854  1.2735
 1291SOL     vw 5164   6.226   2.266   0.250  0.3426 -0.4050 -0.4436
 1292SOL     ow 5165   4.647   4.413   2.234  0.0020 -0.0907 -0.2095
 1292SOL     hw 5166   4.577   4.409   2.299 -0.0003 -2.0953 -0.2500
 1292SOL     hw 5167   4.604   4.391   2.151  0.3568  0.4626 -0.5448
 1292SOL     vw 5168   4.632   4.409   2.231  0.0486 -0.2820 -0.2592
 1293SOL     ow 5169   3.221   0.224   3.630  0.3041  0.0800  0.2956
 1293SOL     hw 5170   3.269   0.210   3.712  1.4168 -0.7994 -0.4754
 1293SOL     hw 5171   3.235   0.317   3.610  0.4883  0.1671  0.8032
 1293SOL     vw 5172   3.229   0.234   3.638  0.4753 -0.0245  0.2608
 1294SOL     ow 5173   4.473   1.608   2.080  0.4326 -0.1233 -0.8451
 1294SOL     hw 5174   4.450   1.689   2.125  0.6708 -2.0415  3.2670
 1294SOL     hw 5175   4.396   1.586   2.028  0.4140  2.6506 -2.1840
 1294SOL     vw 5176   4.460   1.616   2.079  0.4618 -0.0104 -0.4792
 1295SOL     ow 5177   7.194   1.187   6.840 -0.1830  0.3666  0.3619
 1295SOL     hw 5178   7.155   1.197   6.753  1.7683  0.8211 -0.5106
 1295SOL     hw 5179   7.138   1.239   6.898 -0.1261  2.1323 -1.0824
 1295SOL     vw 5180   7.182   1.195   6.837  0.0823  0.6595  0.0565
 1296SOL     ow 5181   2.656   5.586   5.376  0.2625  0.0005 -0.2813
 1296SOL     hw 5182   2.580   5.637   5.348  0.1446  0.6454  1.1270
 1296SOL     hw 5183   2.687   5.544   5.296 -1.4057 -0.0703 -0.9353
 1296SOL     vw 5184   2.650   5.587   5.362  0.0268  0.0765 -0.1817
 1297SOL     ow 5185   3.890   5.349   5.896 -0.0722 -0.3197 -0.3610
 1297SOL     hw 5186   3.834   5.409   5.846  1.9064 -0.6639 -3.2103
 1297SOL     hw 5187   3.953   5.405   5.940 -1.1067 -0.0902  0.8882
 1297SOL     vw 5188   3.891   5.364   5.895  0.0525 -0.3350 -0.5720
 1298SOL     ow 5189   6.857   3.003   3.937  0.1696  0.6393  1.5671
 1298SOL     hw 5190   6.875   2.944   4.010  0.1814  0.9968  1.8594
 1298SOL     hw 5191   6.933   2.995   3.879 -0.9126 -1.4746  0.3457
 1298SOL     vw 5192   6.869   2.994   3.939  0.0284  0.4077  1.4445
 1299SOL     ow 5193   0.378   2.159   3.992 -0.2073 -0.1681 -0.0658
 1299SOL     hw 5194   0.308   2.198   3.939 -1.2125 -2.2422 -0.3843
 1299SOL     hw 5195   0.417   2.094   3.935  1.3909  0.2987  0.4494
 1299SOL     vw 5196   0.374   2.156   3.977 -0.1290 -0.3803 -0.0398
 1300SOL     ow 5197   7.016   1.042   6.207 -0.1021 -0.1950  0.6290
 1300SOL     hw 5198   7.109   1.063   6.213 -0.1730 -0.0156  1.1193
 1300SOL     hw 5199   6.973   1.127   6.197 -0.1344 -0.3490 -0.7079
 1300SOL     vw 5200   7.022   1.056   6.207 -0.1159 -0.1917  0.5174
 1301SOL     ow 5201   4.325   2.688   3.864 -0.1006 -0.8144 -0.1523
 1301SOL     hw 5202   4.341   2.782   3.854 -0.3008 -0.2862  3.1941
 1301SOL     hw 5203   4.402   2.646   3.827  1.1816  0.8336  0.5177
 1301SOL     vw 5204   4.337   2.695   3.858  0.0417 -0.5273  0.3777
 1302SOL     ow 5205   3.983   0.474   3.618  0.8687 -0.5347  0.5344
 1302SOL     hw 5206   3.957   0.513   3.702  2.0197  0.6503  0.3629
 1302SOL     hw 5207   4.009   0.384   3.641 -0.2511 -0.7010  1.1975
 1302SOL     vw 5208   3.983   0.467   3.632  0.8727 -0.4003  0.5993
 1303SOL     ow 5209   5.661   0.676   5.829  0.0442 -0.0454 -0.3750
 1303SOL     hw 5210   5.605   0.607   5.865 -0.0501 -0.0567 -0.5419
 1303SOL     hw 5211   5.612   0.710   5.754  1.2167 -1.5271 -1.8740
 1303SOL     vw 5212   5.647   0.671   5.824  0.1864 -0.2424 -0.5946
 1304SOL     ow 5213   4.213   0.754   3.163 -0.5102  0.3033  0.4815
 1304SOL     hw 5214   4.236   0.825   3.222 -0.4625  0.4785  0.2557
 1304SOL     hw 5215   4.119   0.741   3.177 -0.5693  0.5785  0.3453
 1304SOL     vw 5216   4.203   0.762   3.172 -0.5116  0.3627  0.4338
 1305SOL     ow 5217   6.232   6.169   6.893 -0.5026 -0.5240  0.4086
 1305SOL     hw 5218   6.186   6.248   6.867  0.0921 -0.9958 -2.3966
 1305SOL     hw 5219   6.165   6.100   6.891 -0.8839 -0.2492  2.2322
 1305SOL     vw 5220   6.217   6.170   6.889 -0.4742 -0.5500  0.2789
 1306SOL     ow 5221   5.932   4.480   5.669  0.5671 -0.2887 -0.2419
 1306SOL     hw 5222   5.862   4.415   5.672  3.2655 -3.4947 -0.7972
 1306SOL     hw 5223   5.997   4.448   5.732  2.5006  1.2245 -1.3427
 1306SOL     vw 5224   5.932   4.467   5.678  1.1785 -0.5119 -0.4604
 1307SOL     ow 5225   4.499   3.326   3.853 -0.4122 -0.0608  0.3929
 1307SOL     hw 5226   4.511   3.270   3.776 -1.2396  1.2212 -0.7163
 1307SOL     hw 5227   4.532   3.273   3.926  1.1374 -1.0209 -0.9209
 1307SOL     vw 5228   4.505   3.311   3.852 -0.3169 -0.0184  0.0731
 1308SOL     ow 5229   3.762   0.084   0.619 -0.3226  0.8193 -0.0926
 1308SOL     hw 5230   3.772  -0.011   0.627  0.9360  0.7488 -1.8238
 1308SOL     hw 5231   3.838   0.112   0.569 -2.1533  2.3180 -2.2589
 1308SOL     vw 5232   3.773   0.075   0.613 -0.3980  1.0077 -0.6068
 1309SOL     ow 5233   1.547   3.953   6.858  0.2567 -1.1861 -0.0459
 1309SOL     hw 5234   1.452   3.956   6.847  0.2698  1.5936 -0.2354
 1309SOL     hw 5235   1.577   3.889   6.794 -1.4294 -1.5837 -0.4968
 1309SOL     vw 5236   1.538   3.945   6.848  0.0360 -0.8719 -0.1302
 1310SOL     ow 5237   5.659   3.047   6.407 -0.6269 -0.2121  0.4210
 1310SOL     hw 5238   5.708   3.114   6.455 -0.3285 -0.8691  1.0349
 1310SOL     hw 5239   5.713   3.029   6.330 -0.2432 -0.4400  0.7448
 1310SOL     vw 5240   5.673   3.054   6.403 -0.5367 -0.3289  0.5450
 1311SOL     ow 5241   6.429   1.760   3.510 -0.3816 -0.4257  0.2065
 1311SOL     hw 5242   6.513   1.792   3.543 -0.9588  0.9123  0.4465
 1311SOL     hw 5243   6.408   1.818   3.437 -1.2780 -0.4861  0.4003
 1311SOL     vw 5244   6.437   1.772   3.505 -0.5763 -0.2571  0.2637
 1312SOL     ow 5245   3.425   2.829   4.420 -0.0995 -0.2951 -0.0327
 1312SOL     hw 5246   3.438   2.890   4.347  0.5158 -1.0551 -0.5827
 1312SOL     hw 5247   3.363   2.764   4.385  1.0083 -1.2575 -0.2747
 1312SOL     vw 5248   3.418   2.829   4.406  0.1279 -0.5224 -0.1373
 1313SOL     ow 5249   6.507   5.646   4.545 -0.0898 -0.4535  0.2462
 1313SOL     hw 5250   6.468   5.709   4.485  1.0750 -0.8713 -0.9983
 1313SOL     hw 5251   6.440   5.631   4.611 -1.3880  0.0844 -0.9049
 1313SOL     vw 5252   6.493   5.652   4.546 -0.1073 -0.4375 -0.0701
 1314SOL     ow 5253   4.253   1.413   3.360  0.4190 -0.0663 -0.0933
 1314SOL     hw 5254   4.165   1.433   3.392 -0.5803  1.1482 -3.1820
 1314SOL     hw 5255   4.309   1.423   3.437 -2.0282 -0.2406  1.8509
 1314SOL     vw 5256   4.249   1.417   3.374 -0.0358  0.0709 -0.2443
 1315SOL     ow 5257   3.697   4.610   2.462 -0.8381 -0.2294 -0.0475
 1315SOL     hw 5258   3.716   4.529   2.414 -0.7850 -0.6410  0.6511
 1315SOL     hw 5259   3.633   4.584   2.528 -2.0746  0.6444 -0.8337
 1315SOL     vw 5260   3.691   4.596   2.464 -0.9941 -0.1686 -0.0590
 1316SOL     ow 5261   4.528   6.749   0.765  0.6172 -0.2285  0.1455
 1316SOL     hw 5262   4.469   6.687   0.808 -0.7550 -0.2945 -1.7380
 1316SOL     hw 5263   4.539   6.820   0.829 -2.9732  0.6756 -0.0299
 1316SOL     vw 5264   4.522   6.750   0.779 -0.0374 -0.1180 -0.1262
 1317SOL     ow 5265   6.711   3.886   2.213  0.2734 -0.0519 -0.2539
 1317SOL     hw 5266   6.749   3.973   2.202 -0.9165  0.5947  0.4863
 1317SOL     hw 5267   6.679   3.885   2.303 -1.9230 -0.3140 -0.9739
 1317SOL     vw 5268   6.711   3.897   2.223 -0.1733 -0.0012 -0.2513
 1318SOL     ow 5269   2.296   5.576   3.180 -0.3833  0.2651  0.1235
 1318SOL     hw 5270   2.333   5.575   3.268  1.1413  2.8303 -0.3772
 1318SOL     hw 5271   2.209   5.613   3.191 -0.3089  0.3068  0.6054
 1318SOL     vw 5272   2.290   5.581   3.193 -0.1724  0.6092  0.1211
 1319SOL     ow 5273   3.516   7.120   0.187 -0.9759  0.1539  0.1044
 1319SOL     hw 5274   3.430   7.084   0.209 -0.3530 -0.0205  2.5750
 1319SOL     hw 5275   3.579   7.058   0.224  0.2588  0.3127 -1.5869
 1319SOL     vw 5276   3.513   7.107   0.195 -0.7309  0.1516  0.2072
 1320SOL     ow 5277   1.920   3.200   5.441  0.1796 -0.3612  0.0494
 1320SOL     hw 5278   1.948   3.134   5.377  1.2301 -1.5878  1.7021
 1320SOL     hw 5279   1.993   3.261   5.446  0.3513 -0.6083  0.5322
 1320SOL     vw 5280   1.933   3.199   5.433  0.3409 -0.5558  0.3309
 1321SOL     ow 5281   4.357   0.205   1.823 -0.1586  0.2455 -0.1668
 1321SOL     hw 5282   4.298   0.278   1.841 -0.3749  1.0075 -3.3818
 1321SOL     hw 5283   4.439   0.228   1.865 -0.9976  1.0572  1.0570
 1321SOL     vw 5284   4.360   0.217   1.831 -0.2980  0.4532 -0.4295
 1322SOL     ow 5285   6.467   6.870   6.251 -0.7338 -0.1196 -0.2621
 1322SOL     hw 5286   6.543   6.813   6.236 -1.4824 -1.9667  2.2272
 1322SOL     hw 5287   6.502   6.945   6.299 -0.4297 -0.9685  0.8876
 1322SOL     vw 5288   6.482   6.872   6.256 -0.7927 -0.4752  0.2179
 1323SOL     ow 5289   4.320   0.607   4.447 -0.3800 -0.1988  0.2795
 1323SOL     hw 5290   4.281   0.688   4.414 -0.5472  0.0206  1.0101
 1323SOL     hw 5291   4.374   0.576   4.374  0.1129  0.8525  0.1793
 1323SOL     vw 5292   4.322   0.613   4.433 -0.3369 -0.0312  0.3626
 1324SOL     ow 5293   1.099   5.617   1.769  0.6704  0.6030 -0.2764
 1324SOL     hw 5294   1.157   5.543   1.748  0.0564 -0.1058  0.4983
 1324SOL     hw 5295   1.110   5.677   1.695  4.9859  2.1491  1.2745
 1324SOL     vw 5296   1.108   5.615   1.756  1.1588  0.7138  0.0305
 1325SOL     ow 5297   3.617   0.611   2.121  0.5844 -0.1433 -0.0208
 1325SOL     hw 5298   3.698   0.659   2.103  1.0846 -0.4423  1.2632
 1325SOL     hw 5299   3.564   0.673   2.171  1.0738 -0.7617  1.3083
 1325SOL     vw 5300   3.621   0.625   2.125  0.7151 -0.2643  0.3240
 1326SOL     ow 5301   2.576   3.841   1.639  0.6344  0.2565 -0.5252
 1326SOL     hw 5302   2.481   3.858   1.637  0.7832  1.8181  1.5963
 1326SOL     hw 5303   2.604   3.847   1.548 -1.7671 -3.8341 -1.8170
 1326SOL     vw 5304   2.567   3.844   1.627  0.3372 -0.0772 -0.4157
 1327SOL     ow 5305   2.131   1.041   4.500  0.0210  0.1733  0.3199
 1327SOL     hw 5306   2.171   0.954   4.508 -0.1372  0.0748  0.0311
 1327SOL     hw 5307   2.043   1.025   4.466 -0.9725  0.2350  2.6652
 1327SOL     vw 5308   2.125   1.028   4.496 -0.1310  0.1685  0.5915
 1328SOL     ow 5309   0.680   7.058   6.285  0.0104  0.5220 -0.2279
 1328SOL     hw 5310   0.751   6.994   6.291 -0.2838  0.2421  0.2948
 1328SOL     hw 5311   0.676   7.080   6.191  1.7336  1.6241 -0.1086
 1328SOL     vw 5312   0.689   7.053   6.273  0.1990  0.6304 -0.1431
 1329SOL     ow 5313   2.703   6.974   6.213  0.0741  0.3798 -0.5501
 1329SOL     hw 5314   2.723   6.926   6.293  1.2723 -1.5707 -1.9338
 1329SOL     hw 5315   2.716   7.066   6.236 -0.7075 -0.0235  1.7607
 1329SOL     vw 5316   2.707   6.979   6.226  0.1292  0.0691 -0.4277
 1330SOL     ow 5317   0.772   6.295   2.970  0.1467  0.6556 -0.4013
 1330SOL     hw 5318   0.772   6.325   3.061 -1.2815  0.9960 -0.4928
 1330SOL     hw 5319   0.859   6.257   2.957  0.2900  0.3896  1.1772
 1330SOL     vw 5320   0.783   6.294   2.980 -0.0229  0.6654 -0.2052
 1331SOL     ow 5321   4.354   3.350   4.870  0.5402  0.1806  0.0129
 1331SOL     hw 5322   4.382   3.439   4.850 -1.9605  1.1874  0.6841
 1331SOL     hw 5323   4.285   3.331   4.806 -0.3572 -0.4818  1.1372
 1331SOL     vw 5324   4.349   3.359   4.859  0.0920  0.2259  0.2496
 1332SOL     ow 5325   6.368   5.580   5.593 -0.4085  0.0805 -0.6190
 1332SOL     hw 5326   6.399   5.651   5.536 -0.2944  0.8333  0.3461
 1332SOL     hw 5327   6.442   5.563   5.651 -0.1605 -1.3792 -1.3133
 1332SOL     vw 5328   6.382   5.587   5.593 -0.3610 -0.0129 -0.5834
 1333SOL     ow 5329   1.599   1.984   4.198  0.2980 -0.6651  0.3042
 1333SOL     hw 5330   1.616   2.068   4.155 -0.8436 -0.2533  0.6168
 1333SOL     hw 5331   1.564   1.928   4.129 -2.6984  0.3711  0.8463
 1333SOL     vw 5332   1.597   1.988   4.183 -0.2480 -0.4740  0.4170
 1334SOL     ow 5333   5.797   3.405   7.173 -0.3032 -0.2474 -0.1920
 1334SOL     hw 5334   5.753   3.390   7.257  1.3136  1.5039  1.0505
 1334SOL     hw 5335   5.870   3.343   7.173  0.1879  0.3272  0.0909
 1334SOL     vw 5336   5.801   3.395   7.184 -0.0250  0.0596  0.0093
 1335SOL     ow 5337   6.452   3.213   0.931  0.2938  0.0342 -0.4691
 1335SOL     hw 5338   6.523   3.275   0.949  2.1479 -2.0278 -0.3748
 1335SOL     hw 5339   6.449   3.157   1.009 -0.4787 -0.7980 -1.0885
 1335SOL     vw 5340   6.461   3.214   0.944  0.4365 -0.3476 -0.5384
 1336SOL     ow 5341   0.008   2.804   4.471 -0.0637 -0.1526 -0.0130
 1336SOL     hw 5342  -0.055   2.840   4.409  0.7845 -0.6243 -1.1870
 1336SOL     hw 5343   0.076   2.871   4.479 -1.0899  0.7445  1.9423
 1336SOL     vw 5344   0.008   2.817   4.464 -0.0873 -0.0966  0.0901
 1337SOL     ow 5345   4.391   1.756   5.616  0.1091  0.1816  0.1098
 1337SOL     hw 5346   4.409   1.749   5.710 -0.8044  2.5654  0.5517
 1337SOL     hw 5347   4.303   1.794   5.612 -0.4347 -1.1949 -1.7610
 1337SOL     vw 5348   4.382   1.760   5.628 -0.0834  0.3145 -0.0789
 1338SOL     ow 5349   1.592   2.271   5.181 -0.5460  0.0172  0.1082
 1338SOL     hw 5350   1.660   2.286   5.247  1.3960 -0.0597 -1.7739
 1338SOL     hw 5351   1.610   2.183   5.148  0.3371  1.0561 -2.4333
 1338SOL     vw 5352   1.603   2.261   5.185 -0.1732  0.1441 -0.4754
 1339SOL     ow 5353   3.507   6.962   1.106  0.3541 -0.2574 -0.8120
 1339SOL     hw 5354   3.587   6.952   1.055  1.1059 -2.4068  0.6743
 1339SOL     hw 5355   3.537   6.978   1.196 -0.9056 -0.0933 -0.4023
 1339SOL     vw 5356   3.521   6.963   1.111  0.2872 -0.5190 -0.5618
 1340SOL     ow 5357   6.166   5.600   2.007 -0.3243 -0.2020  0.0897
 1340SOL     hw 5358   6.116   5.578   1.928 -0.0239  1.1149 -0.4975
 1340SOL     hw 5359   6.249   5.554   1.997  0.2047  0.9145 -1.0077
 1340SOL     vw 5360   6.171   5.591   1.995 -0.2148  0.1192 -0.1324
 1341SOL     ow 5361   6.977   7.067   2.814 -0.0169 -0.1092 -0.1373
 1341SOL     hw 5362   7.052   7.087   2.870 -0.1793 -1.0493  0.4428
 1341SOL     hw 5363   6.917   7.018   2.870 -0.6139 -0.2467 -0.8720
 1341SOL     vw 5364   6.979   7.063   2.828 -0.1171 -0.2511 -0.1577
 1342SOL     ow 5365   6.601   4.847   2.297  0.6493 -0.2098 -0.3084
 1342SOL     hw 5366   6.549   4.922   2.268  2.3047  0.8437 -0.6256
 1342SOL     hw 5367   6.658   4.826   2.223  2.0628 -0.0807  0.7137
 1342SOL     vw 5368   6.601   4.854   2.283  1.0543 -0.0536 -0.2154
 1343SOL     ow 5369   6.838   0.234   4.740 -0.4834  0.9310 -0.5627
 1343SOL     hw 5370   6.761   0.253   4.793 -0.6732  1.3569 -0.9842
 1343SOL     hw 5371   6.912   0.248   4.799 -0.7621 -2.1968  0.7076
 1343SOL     vw 5372   6.838   0.239   4.755 -0.5450  0.5745 -0.4506
 1344SOL     ow 5373   5.384   1.718   5.945 -0.3239  0.3233 -0.1719
 1344SOL     hw 5374   5.441   1.782   5.987  0.8599  1.1165 -2.7776
 1344SOL     hw 5375   5.311   1.707   6.006  0.5747  2.4139  1.4028
 1344SOL     vw 5376   5.382   1.725   5.959 -0.0489  0.7039 -0.3078
 1345SOL     ow 5377   3.081   3.210   0.276 -0.3355 -0.2305  0.1262
 1345SOL     hw 5378   3.068   3.276   0.208 -1.5237  0.9343  1.4069
 1345SOL     hw 5379   2.992   3.189   0.306  0.1274 -1.1172  0.9422
 1345SOL     vw 5380   3.068   3.216   0.271 -0.4312 -0.1937  0.4028
 1346SOL     ow 5381   2.798   6.661   3.367 -0.4047  0.1174 -0.1292
 1346SOL     hw 5382   2.878   6.715   3.365  0.9405 -1.7635 -2.3395
 1346SOL     hw 5383   2.826   6.578   3.407 -1.2272 -0.6049 -1.0114
 1346SOL     vw 5384   2.813   6.657   3.372 -0.3357 -0.2263 -0.5373
 1347SOL     ow 5385   4.716   6.240   6.222  0.3206 -0.1434  0.3053
 1347SOL     hw 5386   4.753   6.286   6.147 -1.5896 -0.1910 -0.7153
 1347SOL     hw 5387   4.640   6.292   6.248  1.0320 -0.0335  2.3577
 1347SOL     vw 5388   4.711   6.253   6.215  0.1624 -0.1354  0.4416
 1348SOL     ow 5389   6.647   6.671   0.520  0.0642 -0.3845 -0.5374
 1348SOL     hw 5390   6.620   6.717   0.440 -1.2983 -1.3386 -0.6628
 1348SOL     hw 5391   6.647   6.739   0.588 -2.1172 -0.1875 -0.6667
 1348SOL     vw 5392   6.644   6.686   0.518 -0.4034 -0.4845 -0.5710
 1349SOL     ow 5393   3.374   2.116   1.055 -1.0100 -0.0896 -0.1293
 1349SOL     hw 5394   3.456   2.068   1.066 -2.2431 -2.4868 -0.6791
 1349SOL     hw 5395   3.394   2.185   0.992  0.5095 -0.8263 -0.4873
 1349SOL     vw 5396   3.387   2.119   1.048 -0.9722 -0.5032 -0.2491
 1350SOL     ow 5397   5.923   4.253   5.133  0.7821 -0.5668  0.0873
 1350SOL     hw 5398   5.958   4.168   5.161  1.8311 -0.0321  0.4437
 1350SOL     hw 5399   5.999   4.301   5.101  0.3707  0.5820  0.7682
 1350SOL     vw 5400   5.938   4.248   5.133  0.8662 -0.3448  0.2241
 1351SOL     ow 5401   2.434   2.081   1.605 -0.6506 -0.7041  0.2693
 1351SOL     hw 5402   2.380   2.053   1.680 -1.6251 -0.7223 -0.4179
 1351SOL     hw 5403   2.483   2.157   1.638 -2.7960  0.7577  0.2825
 1351SOL     vw 5404   2.433   2.087   1.620 -1.0622 -0.5136  0.1804
 1352SOL     ow 5405   6.599   5.957   5.157  0.1083 -0.1267  0.4883
 1352SOL     hw 5406   6.589   5.905   5.077  3.2227  0.2533 -0.2806
 1352SOL     hw 5407   6.570   6.045   5.132  0.6706 -0.1077 -0.1183
 1352SOL     vw 5408   6.594   5.961   5.143  0.5937 -0.0741  0.3071
 1353SOL     ow 5409   3.268   1.584   6.991  0.1242  0.2887  0.5366
 1353SOL     hw 5410   3.327   1.512   7.016  0.6980  1.4929  2.8713
 1353SOL     hw 5411   3.302   1.613   6.906  0.4641 -1.5312 -0.0149
 1353SOL     vw 5412   3.280   1.578   6.983  0.2449  0.2074  0.7718
 1354SOL     ow 5413   4.850   3.251   1.589 -0.4676  0.4859 -0.1995
 1354SOL     hw 5414   4.878   3.162   1.609 -0.3523  0.6893  0.5702
 1354SOL     hw 5415   4.832   3.250   1.495 -0.0609 -0.2371 -0.2755
 1354SOL     vw 5416   4.851   3.239   1.579 -0.3986  0.4172 -0.1079
 1355SOL     ow 5417   6.056   3.747   5.849  0.4359  0.3468 -0.3746
 1355SOL     hw 5418   6.016   3.680   5.793  0.0741  0.5832 -0.4076
 1355SOL     hw 5419   6.067   3.822   5.790 -1.1131  1.0341  0.1540
 1355SOL     vw 5420   6.052   3.748   5.834  0.1838  0.4686 -0.3095
 1356SOL     ow 5421   4.511   4.279   5.945 -0.3460 -0.8431 -0.0569
 1356SOL     hw 5422   4.493   4.311   5.857 -1.0356  1.6377  0.8792
 1356SOL     hw 5423   4.606   4.287   5.954 -0.5418  2.8540  0.6241
 1356SOL     vw 5424   4.521   4.285   5.935 -0.4632 -0.0284  0.1564
 1357SOL     ow 5425   6.371   2.874   5.529  0.4206  0.0546  0.3992
 1357SOL     hw 5426   6.400   2.796   5.482 -0.3994 -0.3377  0.5265
 1357SOL     hw 5427   6.441   2.938   5.516  0.2263 -0.0440 -1.3489
 1357SOL     vw 5428   6.384   2.872   5.522  0.2871 -0.0103  0.1855
 1358SOL     ow 5429   6.112   7.023   1.562 -0.1158 -0.3412  0.3378
 1358SOL     hw 5430   6.072   7.107   1.583  0.2077  0.4388 -1.9578
 1358SOL     hw 5431   6.048   6.978   1.507  0.0408 -1.2853  0.9023
 1358SOL     vw 5432   6.098   7.028   1.558 -0.0527 -0.3629  0.1094
 1359SOL     ow 5433   3.815   0.763   2.030 -0.0884 -0.0495 -0.4121
 1359SOL     hw 5434   3.846   0.832   2.088 -0.7743 -0.2425  0.2035
 1359SOL     hw 5435   3.838   0.794   1.942 -1.2992  1.4666 -0.2391
 1359SOL     vw 5436   3.822   0.776   2.026 -0.3388  0.1251 -0.3079
 1360SOL     ow 5437   1.013   1.285   0.962  0.0768  0.2715 -0.0982
 1360SOL     hw 5438   1.041   1.221   1.028  1.9560  2.9048  1.8549
 1360SOL     hw 5439   1.089   1.296   0.905 -0.5648  0.1152 -1.0110
 1360SOL     vw 5440   1.027   1.278   0.963  0.2401  0.5984  0.0391
 1361SOL     ow 5441   5.691   5.314   4.356 -0.2313 -0.0190 -0.1615
 1361SOL     hw 5442   5.696   5.332   4.262 -0.9604 -0.1649 -0.2328
 1361SOL     hw 5443   5.609   5.266   4.367  0.9575 -2.0526  0.2270
 1361SOL     vw 5444   5.681   5.310   4.345 -0.1709 -0.3064 -0.1199
 1362SOL     ow 5445   4.041   2.152   4.083 -0.3296 -0.0016 -0.2488
 1362SOL     hw 5446   3.961   2.100   4.093 -0.2934  0.1702  1.2200
 1362SOL     hw 5447   4.104   2.092   4.043 -1.4269  0.1345 -2.2885
 1362SOL     vw 5448   4.039   2.137   4.079 -0.4697  0.0390 -0.3240
 1363SOL     ow 5449   3.684   2.609   2.354 -0.2657 -0.1905  0.7357
 1363SOL     hw 5450   3.770   2.607   2.395  0.1743  1.0663 -0.0715
 1363SOL     hw 5451   3.636   2.676   2.404  0.1977  1.1825 -0.5719
 1363SOL     vw 5452   3.689   2.618   2.366 -0.1465  0.1564  0.4568
 1364SOL     ow 5453   2.638   3.339   1.657  0.4177 -0.2158 -0.1369
 1364SOL     hw 5454   2.712   3.285   1.683 -0.3948 -1.6320 -0.6717
 1364SOL     hw 5455   2.653   3.423   1.702  3.6360  0.4689 -2.1485
 1364SOL     vw 5456   2.650   3.343   1.667  0.7352 -0.3123 -0.4728
 1365SOL     ow 5457   3.615   6.228   1.761  0.1410 -0.1648 -0.0694
 1365SOL     hw 5458   3.668   6.211   1.838  1.1989 -1.1100 -0.9654
 1365SOL     hw 5459   3.528   6.249   1.795  0.5068 -0.8767  1.3530
 1365SOL     vw 5460   3.611   6.229   1.776  0.3288 -0.3834  0.0002
 1366SOL     ow 5461   1.962   6.236   6.988  0.6586  0.2680 -0.2881
 1366SOL     hw 5462   1.902   6.267   6.920  0.8861  1.6660  0.1156
 1366SOL     hw 5463   1.993   6.152   6.956  0.2401  0.5853 -1.5947
 1366SOL     vw 5464   1.958   6.229   6.975  0.6333  0.4945 -0.4075
 1367SOL     ow 5465   4.967   0.936   3.402  0.1549 -0.4373 -0.0738
 1367SOL     hw 5466   5.005   0.991   3.333  0.1215 -1.0338 -0.5767
 1367SOL     hw 5467   4.916   0.997   3.456 -1.2985 -0.2083 -1.6037
 1367SOL     vw 5468   4.965   0.952   3.400 -0.0412 -0.4858 -0.3421
 1368SOL     ow 5469   3.705   6.080   0.712 -0.6891 -0.4378 -0.0415
 1368SOL     hw 5470   3.713   6.166   0.754  1.0001 -1.2463  1.3977
 1368SOL     hw 5471   3.673   6.100   0.624  0.0392  1.7188  0.1120
 1368SOL     vw 5472   3.702   6.094   0.706 -0.3701 -0.2599  0.1687
 1369SOL     ow 5473   4.564   4.590   5.302 -0.3563  0.6332  1.0197
 1369SOL     hw 5474   4.471   4.613   5.296 -0.2952  0.6403 -0.3526
 1369SOL     hw 5475   4.573   4.549   5.387 -1.7675  0.0333  0.9137
 1369SOL     vw 5476   4.553   4.588   5.312 -0.5343  0.5550  0.8247
 1370SOL     ow 5477   6.204   6.519   2.442  0.4641  0.5467  0.6389
 1370SOL     hw 5478   6.137   6.451   2.444  1.3311 -0.3645  0.1262
 1370SOL     hw 5479   6.243   6.517   2.529  1.4723 -0.6778  0.1906
 1370SOL     vw 5480   6.201   6.510   2.454  0.7114  0.2649  0.5121
 1371SOL     ow 5481   5.251   2.121   6.465 -1.4023 -0.1852 -0.1775
 1371SOL     hw 5482   5.234   2.122   6.559  1.7535 -0.9367  0.5237
 1371SOL     hw 5483   5.254   2.213   6.439 -2.0116  0.0322  0.5116
 1371SOL     vw 5484   5.249   2.133   6.474 -1.0667 -0.2556  0.0060
 1372SOL     ow 5485   5.963   5.072   6.086 -0.1539 -0.1980 -0.5804
 1372SOL     hw 5486   5.915   5.126   6.148  0.6889  2.5476 -2.1600
 1372SOL     hw 5487   5.921   5.088   6.001  1.2501 -0.5945 -1.3891
 1372SOL     vw 5488   5.952   5.081   6.083  0.1426  0.1118 -0.8955
 1373SOL     ow 5489   4.774   6.294   3.675  1.0694 -0.1940  0.0655
 1373SOL     hw 5490   4.802   6.264   3.762  0.6649  2.8787  1.3778
 1373SOL     hw 5491   4.679   6.285   3.677  0.8875  1.4050  0.6761
 1373SOL     vw 5492   4.765   6.289   3.687  0.9921  0.4222  0.3192
 1374SOL     ow 5493   3.958   1.623   1.463  0.6581 -0.3566  0.3552
 1374SOL     hw 5494   3.892   1.691   1.455  0.4106 -0.6264  0.0880
 1374SOL     hw 5495   3.964   1.584   1.375  0.3590 -1.0870  0.6500
 1374SOL     vw 5496   3.950   1.627   1.450  0.5859 -0.4885  0.3589
 1375SOL     ow 5497   5.792   4.321   1.601 -0.4317  0.1301  0.4691
 1375SOL     hw 5498   5.818   4.337   1.692 -0.4168 -2.4967  0.9933
 1375SOL     hw 5499   5.704   4.284   1.607 -0.6797  0.5171 -0.6414
 1375SOL     vw 5500   5.784   4.318   1.614 -0.4625 -0.1655  0.3918
 1376SOL     ow 5501   6.999   4.616   5.575 -0.4448  0.3131  0.1665
 1376SOL     hw 5502   6.918   4.665   5.567 -0.6929 -0.2804 -1.2939
 1376SOL     hw 5503   6.974   4.525   5.562  0.0257 -0.2712  2.7332
 1376SOL     vw 5504   6.985   4.611   5.572 -0.4156  0.1574  0.3126
 1377SOL     ow 5505   2.727   4.229   4.692 -0.3352  0.6449 -0.1099
 1377SOL     hw 5506   2.678   4.305   4.659  0.2895  1.2652  0.3598
 1377SOL     hw 5507   2.671   4.192   4.760 -0.7173  0.5851 -0.4566
 1377SOL     vw 5508   2.713   4.234   4.696 -0.3033  0.7186 -0.0935
 1378SOL     ow 5509   4.587   7.029   4.939 -0.2705  0.0701  0.4615
 1378SOL     hw 5510   4.632   6.975   5.003 -2.5146 -1.9621  0.4674
 1378SOL     hw 5511   4.624   7.004   4.855 -1.1319 -1.4184  0.4870
 1378SOL     vw 5512   4.598   7.019   4.936 -0.6802 -0.3948  0.4659
 1379SOL     ow 5513   0.520   5.745   5.998 -0.1883 -0.4194 -0.5152
 1379SOL     hw 5514   0.603   5.781   5.964  0.3880  0.6206  1.8074
 1379SOL     hw 5515   0.479   5.818   6.044 -0.7354 -1.7994  1.2883
 1379SOL     vw 5516   0.526   5.759   6.000 -0.1844 -0.4644  0.0291
 1380SOL     ow 5517   4.403   2.208   7.183  0.1694 -0.0222 -0.1475
 1380SOL     hw 5518   4.448   2.205   7.098 -1.3483  1.3219 -1.0543
 1380SOL     hw 5519   4.461   2.159   7.242  4.0965  3.4977 -0.5765
 1380SOL     vw 5520   4.417   2.201   7.180  0.4873  0.6195 -0.3238
 1381SOL     ow 5521   1.255   4.142   4.793 -0.3775 -0.2248 -0.0429
 1381SOL     hw 5522   1.160   4.135   4.798 -0.3306 -0.0232  1.4148
 1381SOL     hw 5523   1.273   4.151   4.699 -1.9314  1.4909 -0.2431
 1381SOL     vw 5524   1.245   4.142   4.781 -0.5764  0.0281  0.1228
 1382SOL     ow 5525   5.209   3.641   0.678 -0.3278  0.3802  0.7093
 1382SOL     hw 5526   5.167   3.570   0.727  1.3430 -1.0943  0.1249
 1382SOL     hw 5527   5.196   3.618   0.586 -0.2538  1.1428  0.5017
 1382SOL     vw 5528   5.202   3.629   0.672 -0.0980  0.2862  0.6048
 1383SOL     ow 5529   1.244   2.503   3.097 -0.2221  0.6034 -0.0785
 1383SOL     hw 5530   1.204   2.575   3.146  1.6645  1.8460 -0.2478
 1383SOL     hw 5531   1.206   2.511   3.009 -0.2060  1.2677 -0.0352
 1383SOL     vw 5532   1.234   2.514   3.092  0.0290  0.8550 -0.0951
 1384SOL     ow 5533   1.315   4.415   3.881 -0.2757 -0.4105 -0.6657
 1384SOL     hw 5534   1.366   4.360   3.941 -0.0195 -1.6833 -1.9769
 1384SOL     hw 5535   1.381   4.468   3.836 -0.3821 -0.1104 -0.4724
 1384SOL     vw 5536   1.331   4.415   3.883 -0.2559 -0.5391 -0.8131
 1385SOL     ow 5537   6.927   3.138   3.521 -0.6182 -0.0738 -0.2196
 1385SOL     hw 5538   6.952   3.045   3.517  0.7521  0.2700 -4.0545
 1385SOL     hw 5539   6.985   3.175   3.588 -1.2398 -1.9266  1.4400
 1385SOL     vw 5540   6.938   3.131   3.529 -0.5193 -0.2729 -0.5066
 1386SOL     ow 5541   5.638   5.715   6.929  0.1026 -0.3622  0.0646
 1386SOL     hw 5542   5.625   5.756   7.014  0.0579  1.1368 -0.6331
 1386SOL     hw 5543   5.623   5.785   6.866 -1.1309 -1.7412 -1.2522
 1386SOL     vw 5544   5.635   5.729   6.932 -0.0660 -0.3462 -0.2012
 1387SOL     ow 5545   3.024   0.048   2.544  0.3125 -0.1051 -0.7990
 1387SOL     hw 5546   3.055  -0.034   2.505 -1.1962 -0.2393 -1.8150
 1387SOL     hw 5547   3.015   0.108   2.469  1.2244  0.9563 -0.0936
 1387SOL     vw 5548   3.027   0.045   2.529  0.2338  0.0173 -0.8401
 1388SOL     ow 5549   5.886   3.651   0.099  0.2668 -0.1616 -0.3485
 1388SOL     hw 5550   5.855   3.571   0.143 -1.6800  0.3689 -0.6783
 1388SOL     hw 5551   5.946   3.691   0.163 -1.2602 -0.2367  1.2168
 1388SOL     vw 5552   5.890   3.646   0.113 -0.1915 -0.1016 -0.1855
 1389SOL     ow 5553   4.245   5.650   0.019  0.2864 -0.1314 -0.8580
 1389SOL     hw 5554   4.330   5.608   0.008 -0.1576 -1.0841 -0.7632
 1389SOL     hw 5555   4.265   5.738   0.049  1.2864  0.1339 -2.2254
 1389SOL     vw 5556   4.259   5.656   0.021  0.3598 -0.2222 -1.0259
 1390SOL     ow 5557   4.611   5.009   5.573  0.3896  0.1322 -0.2650
 1390SOL     hw 5558   4.548   4.977   5.638  0.0871 -2.2625 -1.6184
 1390SOL     hw 5559   4.567   5.083   5.531 -0.7529 -0.3273  0.0794
 1390SOL     vw 5560   4.597   5.014   5.576  0.1988 -0.2444 -0.3982
 1391SOL     ow 5561   6.993   1.991   6.665  0.8509  0.4568  0.2581
 1391SOL     hw 5562   6.974   2.054   6.595  1.3214  0.0340 -0.2576
 1391SOL     hw 5563   6.907   1.968   6.700  0.4596 -0.5748 -1.2815
 1391SOL     vw 5564   6.979   1.996   6.660  0.8612  0.2649 -0.0131
 1392SOL     ow 5565   2.120   1.699   2.814 -0.0884 -0.1421  0.3093
 1392SOL     hw 5566   2.085   1.768   2.757 -1.8219 -0.2048  1.2148
 1392SOL     hw 5567   2.147   1.745   2.893  1.9513 -0.1061 -0.3458
 1392SOL     vw 5568   2.119   1.714   2.817 -0.0482 -0.1457  0.3422
 1393SOL     ow 5569   3.246   0.884   4.813 -0.1035  0.3358  0.2798
 1393SOL     hw 5570   3.199   0.817   4.765  0.1059  0.0818  0.4255
 1393SOL     hw 5571   3.224   0.966   4.768 -1.3691  0.3440  0.8648
 1393SOL     vw 5572   3.237   0.886   4.801 -0.2428  0.3033  0.3765
 1394SOL     ow 5573   0.084   0.851   6.612  0.1310  0.6522 -0.1249
 1394SOL     hw 5574   0.141   0.882   6.541 -0.3510 -1.1028 -1.3444
 1394SOL     hw 5575  -0.003   0.848   6.572 -0.7784  2.5985  1.4970
 1394SOL     vw 5576   0.080   0.855   6.597 -0.0525  0.6774 -0.0720
 1395SOL     ow 5577   6.817   6.980   4.324 -0.7621  0.0818 -0.1305
 1395SOL     hw 5578   6.727   6.952   4.308 -0.6347  0.2877 -1.2614
 1395SOL     hw 5579   6.809   7.051   4.388 -1.2236 -1.2322  1.3484
 1395SOL     vw 5580   6.804   6.985   4.330 -0.8061 -0.0644 -0.0846
 1396SOL     ow 5581   0.503   5.899   5.320 -0.2078 -1.0930  0.6864
 1396SOL     hw 5582   0.408   5.890   5.321 -0.4626  0.9662  0.4882
 1396SOL     hw 5583   0.519   5.985   5.361  1.3167  0.0892 -2.0843
 1396SOL     vw 5584   0.493   5.909   5.326 -0.0403 -0.6652  0.2947
 1397SOL     ow 5585   5.421   2.309   4.142  0.1237 -0.0819  0.5334
 1397SOL     hw 5586   5.431   2.323   4.236 -0.1556 -0.0939  0.5652
 1397SOL     hw 5587   5.361   2.235   4.135  0.0721 -0.0228  0.3450
 1397SOL     vw 5588   5.414   2.301   4.153  0.0796 -0.0757  0.5128
 1398SOL     ow 5589   5.374   1.518   3.608 -0.4216 -0.0001 -0.2703
 1398SOL     hw 5590   5.295   1.470   3.583 -1.5585  0.5054  2.0411
 1398SOL     hw 5591   5.443   1.452   3.610 -0.7271 -0.4586 -2.3348
 1398SOL     vw 5592   5.372   1.503   3.604 -0.6118  0.0061 -0.2377
 1399SOL     ow 5593   0.028   0.473   5.978  0.5275  0.2322 -0.0109
 1399SOL     hw 5594   0.080   0.503   6.052  0.8557  0.1668 -0.2094
 1399SOL     hw 5595  -0.049   0.530   5.977 -0.1991 -0.6868  1.2345
 1399SOL     vw 5596   0.025   0.484   5.987  0.4752  0.1024  0.1271
 1400SOL     ow 5597   6.793   2.841   4.142  0.2344 -0.4119 -0.0449
 1400SOL     hw 5598   6.754   2.885   4.218  0.8779  1.1509 -0.5582
 1400SOL     hw 5599   6.729   2.853   4.072  1.5617  2.3396 -0.9436
 1400SOL     vw 5600   6.779   2.849   4.143  0.4945  0.1574 -0.2313
 1401SOL     ow 5601   7.159   4.345   3.437 -0.0490  0.3931 -0.2642
 1401SOL     hw 5602   7.199   4.298   3.510 -0.3644 -0.8552 -0.8592
 1401SOL     hw 5603   7.114   4.419   3.477  0.9186  0.4992  0.6548
 1401SOL     vw 5604   7.158   4.348   3.452  0.0370  0.2422 -0.2214
 1402SOL     ow 5605   0.233   3.542   3.470 -0.1036  0.2469 -0.0100
 1402SOL     hw 5606   0.288   3.561   3.546  0.2944  0.9217 -0.4558
 1402SOL     hw 5607   0.220   3.448   3.473 -0.4487  0.3117  1.1332
 1402SOL     vw 5608   0.239   3.532   3.480 -0.0966  0.3445  0.0819
 1403SOL     ow 5609   6.337   7.103   3.179  0.0794  0.6156 -0.9023
 1403SOL     hw 5610   6.295   7.092   3.264 -1.9052  3.9168 -1.3055
 1403SOL     hw 5611   6.423   7.139   3.199  0.7610 -1.2560 -0.2624
 1403SOL     vw 5612   6.342   7.106   3.193 -0.0925  0.8044 -0.8711
 1404SOL     ow 5613   1.107   4.308   1.591  0.7357 -0.0968 -0.6319
 1404SOL     hw 5614   1.045   4.369   1.631  1.1448  0.7106 -1.1784
 1404SOL     hw 5615   1.101   4.327   1.497  0.3323 -1.4323 -0.8925
 1404SOL     vw 5616   1.098   4.319   1.584  0.7365 -0.1662 -0.7384
 1405SOL     ow 5617   6.474   6.348   1.398 -0.7670 -0.1316 -0.5235
 1405SOL     hw 5618   6.441   6.365   1.486  2.0455 -0.4518  0.6952
 1405SOL     hw 5619   6.517   6.429   1.373 -4.0064  1.0697 -3.0026
 1405SOL     vw 5620   6.475   6.361   1.406 -0.8235 -0.0155 -0.6897
 1406SOL     ow 5621   3.986   0.764   5.657  0.3213 -0.1006  0.1728
 1406SOL     hw 5622   3.970   0.749   5.750 -1.7023  0.2620 -0.0651
 1406SOL     hw 5623   4.027   0.683   5.626  3.0039  0.5349  1.7355
 1406SOL     vw 5624   3.989   0.751   5.665  0.4083  0.0311  0.3476
 1407SOL     ow 5625   3.687   0.828   2.678  0.3104 -0.2990  0.0089
 1407SOL     hw 5626   3.765   0.784   2.710  1.4484  0.4489 -1.5720
 1407SOL     hw 5627   3.672   0.791   2.591  0.2040  1.0599 -0.5884
 1407SOL     vw 5628   3.695   0.817   2.670  0.4464 -0.0210 -0.2785
 1408SOL     ow 5629   1.535   5.771   1.926 -0.3874 -0.5256  0.2366
 1408SOL     hw 5630   1.560   5.747   2.015 -2.3026  2.1508  1.6269
 1408SOL     hw 5631   1.596   5.723   1.870  0.5875 -2.6643  2.9282
 1408SOL     vw 5632   1.546   5.762   1.930 -0.5114 -0.4549  0.7751
 1409SOL     ow 5633   5.978   3.558   2.302  0.0372 -0.4462  0.6967
 1409SOL     hw 5634   5.982   3.469   2.266  0.8217  0.6785 -2.2747
 1409SOL     hw 5635   6.045   3.606   2.254  1.0889  1.3427  3.6939
 1409SOL     vw 5636   5.987   3.552   2.291  0.2794 -0.0619  0.7001
 1410SOL     ow 5637   0.984   5.343   1.827  0.0852 -0.1889  0.2032
 1410SOL     hw 5638   0.976   5.438   1.820 -0.2779 -0.2859 -0.9484
 1410SOL     hw 5639   1.051   5.319   1.763  1.0299 -0.6131  1.3091
 1410SOL     vw 5640   0.991   5.352   1.818  0.1620 -0.2575  0.1972
 1411SOL     ow 5641   2.863   5.542   5.549 -0.0215  0.2546 -0.0284
 1411SOL     hw 5642   2.777   5.572   5.519 -1.4131 -0.6236  2.7464
 1411SOL     hw 5643   2.916   5.538   5.470 -2.6177  0.5309 -1.8990
 1411SOL     vw 5644   2.859   5.545   5.535 -0.5478  0.1750  0.0906
 1412SOL     ow 5645   5.024   3.787   4.312  0.6944 -0.1686  0.3793
 1412SOL     hw 5646   5.014   3.763   4.405 -1.0520  0.3055  0.3519
 1412SOL     hw 5647   5.094   3.853   4.312 -1.3471  2.1830  1.8645
 1412SOL     vw 5648   5.032   3.793   4.325  0.1945  0.2042  0.5717
 1413SOL     ow 5649   3.754   4.420   3.767 -0.7622 -0.2757  0.0917
 1413SOL     hw 5650   3.785   4.376   3.688 -2.1147 -1.2321  0.0668
 1413SOL     hw 5651   3.795   4.371   3.839  0.2114  0.3961  0.0182
 1413SOL     vw 5652   3.764   4.408   3.766 -0.8122 -0.3130  0.0788
 1414SOL     ow 5653   7.017   0.092   0.129  0.5178 -0.9001  0.2929
 1414SOL     hw 5654   7.084   0.107   0.196  1.4441 -1.0462 -0.5855
 1414SOL     hw 5655   6.937   0.128   0.168  1.0358 -0.9456  1.4633
 1414SOL     vw 5656   7.015   0.098   0.143  0.7083 -0.9254  0.3314
 1415SOL     ow 5657   1.074   0.678   1.734 -0.1354  0.4272 -0.3999
 1415SOL     hw 5658   1.035   0.744   1.791  0.7482  1.4447 -0.9265
 1415SOL     hw 5659   1.000   0.642   1.685 -0.7553  0.3391  0.5686
 1415SOL     vw 5660   1.059   0.682   1.735 -0.1006  0.5498 -0.3417
 1416SOL     ow 5661   6.543   5.056   6.867  0.7022 -0.0590  0.2900
 1416SOL     hw 5662   6.474   5.089   6.925 -0.4968  0.2819 -1.2714
 1416SOL     hw 5663   6.542   4.962   6.880  0.2175 -0.0178  0.5846
 1416SOL     vw 5664   6.534   5.048   6.877  0.4799 -0.0088  0.1228
 1417SOL     ow 5665   4.266   4.009   2.607  0.1604  0.0299  0.0309
 1417SOL     hw 5666   4.220   4.072   2.663 -1.0554 -0.6209 -0.2044
 1417SOL     hw 5667   4.356   4.042   2.603 -0.0697  0.8771  1.1907
 1417SOL     vw 5668   4.272   4.022   2.614 -0.0305  0.0560  0.1529
 1418SOL     ow 5669   3.150   6.465   2.800  0.3341 -0.1569 -0.2581
 1418SOL     hw 5670   3.157   6.530   2.730 -2.8435 -0.8651 -1.4052
 1418SOL     hw 5671   3.072   6.414   2.778 -0.2711 -1.0566  3.2961
 1418SOL     vw 5672   3.141   6.467   2.788 -0.1650 -0.3691  0.0592
 1419SOL     ow 5673   5.053   0.402   5.912 -0.0670  0.2106  0.3208
 1419SOL     hw 5674   5.074   0.372   5.823 -0.3606 -5.9638  1.8603
 1419SOL     hw 5675   4.959   0.416   5.910 -0.2785 -1.0674 -0.1840
 1419SOL     vw 5676   5.044   0.400   5.900 -0.1335 -0.7727  0.4575
 1420SOL     ow 5677   6.546   6.089   6.949  0.4784  0.5229  0.5171
 1420SOL     hw 5678   6.609   6.157   6.924  1.3050  0.4581  2.2345
 1420SOL     hw 5679   6.526   6.108   7.041 -1.3276 -0.0162  0.2671
 1420SOL     vw 5680   6.552   6.100   6.958  0.3493  0.4435  0.7107
 1421SOL     ow 5681   6.138   2.561   5.038 -0.4893  0.6742  0.3526
 1421SOL     hw 5682   6.090   2.479   5.048 -0.4457  0.4387 -1.0453
 1421SOL     hw 5683   6.201   2.542   4.968  0.4942  1.4759  1.0071
 1421SOL     vw 5684   6.140   2.548   5.030 -0.3536  0.7490  0.2544
 1422SOL     ow 5685   2.236   1.396   2.452 -0.7291  0.4002 -0.2191
 1422SOL     hw 5686   2.255   1.315   2.406 -2.9108 -0.1968 -0.1664
 1422SOL     hw 5687   2.149   1.383   2.490 -0.2938  2.0095  1.5162
 1422SOL     vw 5688   2.227   1.384   2.451 -0.9594  0.5338  0.0167
 1423SOL     ow 5689   1.560   3.223   0.698 -0.3683  0.3336  0.6527
 1423SOL     hw 5690   1.489   3.217   0.762 -2.3794 -4.1134 -1.5473
 1423SOL     hw 5691   1.525   3.280   0.629 -1.5643 -1.0976  0.0117
 1423SOL     vw 5692   1.546   3.230   0.698 -0.7914 -0.4419  0.2779
 1424SOL     ow 5693   4.044   0.158   2.453  0.3904  0.4076 -0.2513
 1424SOL     hw 5694   3.979   0.224   2.428 -0.5432 -0.6916 -0.8318
 1424SOL     hw 5695   4.046   0.162   2.548  0.0305  0.9683 -0.2589
 1424SOL     vw 5696   4.036   0.167   2.462  0.2198  0.3366 -0.3289
 1425SOL     ow 5697   4.356   6.252   2.792  0.0131 -0.6740  0.1571
 1425SOL     hw 5698   4.435   6.247   2.846  0.2796  0.3814 -0.0984
 1425SOL     hw 5699   4.299   6.313   2.839 -0.0893 -0.3836 -0.3326
 1425SOL     vw 5700   4.359   6.260   2.806  0.0350 -0.4964  0.0588
 1426SOL     ow 5701   4.940   3.590   5.449 -0.2326 -0.0620 -0.1629
 1426SOL     hw 5702   4.929   3.685   5.443 -1.1015 -0.2201 -1.5797
 1426SOL     hw 5703   4.993   3.577   5.528  1.4831  1.7063 -0.9232
 1426SOL     vw 5704   4.946   3.601   5.458 -0.1206  0.1504 -0.4501
 1427SOL     ow 5705   5.028   3.965   2.645  0.2125 -0.3248  0.9518
 1427SOL     hw 5706   5.033   4.038   2.584  1.5067  0.0431  1.4553
 1427SOL     hw 5707   4.935   3.959   2.669  0.1265  1.3701  1.1601
 1427SOL     vw 5708   5.016   3.973   2.640  0.3722 -0.0528  1.0456
 1428SOL     ow 5709   1.769   3.508   3.367  0.1070 -0.2025 -0.1949
 1428SOL     hw 5710   1.693   3.526   3.423  0.1777 -2.9055  0.9206
 1428SOL     hw 5711   1.731   3.491   3.281 -0.3176  0.6616 -0.1955
 1428SOL     vw 5712   1.754   3.508   3.363  0.0603 -0.4451 -0.0478
 1429SOL     ow 5713   6.927   1.235   3.189 -0.5789 -0.4025 -1.1299
 1429SOL     hw 5714   6.924   1.331   3.191 -0.9067 -0.4109 -1.1502
 1429SOL     hw 5715   6.866   1.211   3.119 -1.2884 -0.6649 -0.4312
 1429SOL     vw 5716   6.919   1.244   3.180 -0.7160 -0.4383 -1.0405
 1430SOL     ow 5717   3.222   0.247   4.975 -0.4712  0.2116  0.0980
 1430SOL     hw 5718   3.262   0.279   4.894 -0.9357 -0.8368 -0.5625
 1430SOL     hw 5719   3.275   0.286   5.045 -0.2972  1.4422 -0.6904
 1430SOL     vw 5720   3.235   0.257   4.973 -0.5095  0.2356 -0.0932
 1431SOL     ow 5721   4.279   3.120   1.494 -0.0998  0.1544 -0.0473
 1431SOL     hw 5722   4.213   3.146   1.558 -1.1524  0.0390 -1.0489
 1431SOL     hw 5723   4.333   3.056   1.540 -0.4612  0.5076  0.8998
 1431SOL     vw 5724   4.277   3.115   1.509 -0.2866  0.1856 -0.0545
 1432SOL     ow 5725   0.072   5.267   3.597  0.3806 -0.2633 -0.3277
 1432SOL     hw 5726   0.033   5.354   3.594  1.1373  0.1943 -5.4283
 1432SOL     hw 5727  -0.003   5.208   3.605 -1.0341  0.8047 -3.8488
 1432SOL     vw 5728   0.057   5.270   3.598  0.2938 -0.0622 -1.4652
 1433SOL     ow 5729   2.715   7.186   0.083  0.6109 -0.4128 -0.2988
 1433SOL     hw 5730   2.723   7.282   0.083  0.7543 -0.4051  1.0142
 1433SOL     hw 5731   2.801   7.155   0.058  0.1853 -0.2143 -2.1744
 1433SOL     vw 5732   2.727   7.195   0.080  0.5736 -0.3856 -0.3731
 1434SOL     ow 5733   6.035   0.066   2.005 -0.3207  0.2332 -0.1419
 1434SOL     hw 5734   6.091   0.002   2.048  0.7847  2.1539  1.5021
 1434SOL     hw 5735   6.041   0.045   1.912  3.2086  0.2704 -0.0869
 1434SOL     vw 5736   6.043   0.055   1.998  0.2909  0.4916  0.0822
 1435SOL     ow 5737   1.178   1.997   5.932 -0.0890 -0.3950  0.1277
 1435SOL     hw 5738   1.186   1.902   5.931 -1.1876 -0.5735 -3.2909
 1435SOL     hw 5739   1.172   2.019   6.025 -0.5703 -3.7131  1.0278
 1435SOL     vw 5740   1.178   1.987   5.944 -0.2974 -0.8564 -0.2048
 1436SOL     ow 5741   1.572   3.864   6.176  0.5436  0.8319 -0.0106
 1436SOL     hw 5742   1.525   3.790   6.139 -2.0387  2.5825 -0.4594
 1436SOL     hw 5743   1.611   3.908   6.101  0.5463  0.9502  0.0605
 1436SOL     vw 5744   1.571   3.860   6.161  0.2033  1.0786 -0.0603
 1437SOL     ow 5745   5.764   6.789   5.345  0.0466 -0.0661  0.4262
 1437SOL     hw 5746   5.824   6.723   5.380 -0.0724 -0.2788  0.2336
 1437SOL     hw 5747   5.716   6.743   5.276  1.0006  0.6464 -0.7340
 1437SOL     vw 5748   5.765   6.774   5.341  0.1566 -0.0002  0.2477
 1438SOL     ow 5749   3.533   4.671   3.723  0.2945  0.0347  0.5460
 1438SOL     hw 5750   3.450   4.703   3.758 -0.0016 -0.4151  0.2682
 1438SOL     hw 5751   3.554   4.733   3.652  1.4471  1.5949  2.1505
 1438SOL     vw 5752   3.525   4.684   3.718  0.4076  0.1817  0.7210
 1439SOL     ow 5753   0.617   4.757   2.029 -0.1766  0.5858 -0.0417
 1439SOL     hw 5754   0.591   4.749   1.937 -0.8271  3.1213 -0.1616
 1439SOL     hw 5755   0.711   4.741   2.028 -0.6150 -2.4561 -0.6054
 1439SOL     vw 5756   0.626   4.754   2.017 -0.3203  0.5190 -0.1317
 1440SOL     ow 5757   4.719   7.000   4.707  0.7462  0.2913  0.4889
 1440SOL     hw 5758   4.780   7.067   4.675 -2.3364  1.7016 -3.2418
 1440SOL     hw 5759   4.695   6.950   4.628 -2.8290 -0.1330  1.6763
 1440SOL     vw 5760   4.724   7.002   4.692 -0.1321  0.4218  0.1533
 1441SOL     ow 5761   6.747   5.727   3.359 -0.2876  0.0875  0.2466
 1441SOL     hw 5762   6.770   5.813   3.325 -0.9053  0.7444  1.4288
 1441SOL     hw 5763   6.738   5.739   3.454  0.5954 -1.5005  0.5715
 1441SOL     vw 5764   6.749   5.740   3.367 -0.2527 -0.0353  0.4455
 1442SOL     ow 5765   3.266   4.125   6.540  1.0892  0.1626  0.0311
 1442SOL     hw 5766   3.192   4.177   6.508  2.0768  1.2809 -0.5308
 1442SOL     hw 5767   3.255   4.039   6.500 -0.1838  0.1375  0.3937
 1442SOL     vw 5768   3.255   4.121   6.531  1.0515  0.3066  0.0048
 1443SOL     ow 5769   1.217   6.965   2.341 -0.7896 -0.6651 -0.8403
 1443SOL     hw 5770   1.252   7.011   2.265 -1.2691 -0.2427 -0.8084
 1443SOL     hw 5771   1.189   7.034   2.401 -0.9691 -0.9961 -0.5398
 1443SOL     vw 5772   1.218   6.980   2.339 -0.8765 -0.6533 -0.7964
 1444SOL     ow 5773   1.843   3.744   0.008  0.7942 -0.3099 -0.3812
 1444SOL     hw 5774   1.895   3.665   0.020 -0.0593 -1.1262 -1.7782
 1444SOL     hw 5775   1.897   3.800  -0.047  0.3140 -1.0889 -1.6924
 1444SOL     vw 5776   1.857   3.741   0.002  0.6182 -0.5202 -0.7385
 1445SOL     ow 5777   4.461   0.759   2.951 -0.0217  0.7711  0.3348
 1445SOL     hw 5778   4.475   0.846   2.912  0.1684  0.5809 -0.0251
 1445SOL     hw 5779   4.500   0.698   2.888  1.8626  0.5671  1.6207
 1445SOL     vw 5780   4.468   0.763   2.937  0.2520  0.7190  0.4569
 1446SOL     ow 5781   0.301   4.409   0.847 -0.3934  0.1839 -0.0173
 1446SOL     hw 5782   0.394   4.424   0.861 -0.2489 -0.1793 -0.5896
 1446SOL     hw 5783   0.259   4.449   0.924  0.2237  0.3862  0.2207
 1446SOL     vw 5784   0.308   4.416   0.859 -0.2929  0.1626 -0.0614
 1447SOL     ow 5785   2.069   5.038   2.604 -0.1052  0.4675 -0.2960
 1447SOL     hw 5786   2.003   5.002   2.544  1.1297  2.5011 -3.0908
 1447SOL     hw 5787   2.046   5.130   2.612  0.6238  0.5418  1.2639
 1447SOL     vw 5788   2.057   5.045   2.597  0.1538  0.7455 -0.4590
 1448SOL     ow 5789   1.443   1.135   1.991 -0.1023 -0.2225 -0.2330
 1448SOL     hw 5790   1.414   1.168   1.906 -0.7445 -0.1061  0.0258
 1448SOL     hw 5791   1.363   1.129   2.043  0.3455  0.1413  0.5135
 1448SOL     vw 5792   1.428   1.139   1.987 -0.1280 -0.1592 -0.1003
 1449SOL     ow 5793   3.854   1.912   0.779  0.2714 -1.0429  0.2046
 1449SOL     hw 5794   3.916   1.968   0.825  0.0229 -1.3470  0.9080
 1449SOL     hw 5795   3.777   1.967   0.767  0.5755 -0.7375 -0.4777
 1449SOL     vw 5796   3.852   1.927   0.783  0.2786 -1.0427  0.2073
 1450SOL     ow 5797   1.690   0.431   0.942  0.0183 -0.1469 -0.5394
 1450SOL     hw 5798   1.762   0.458   0.999  0.6096  0.4714 -1.5489
 1450SOL     hw 5799   1.722   0.351   0.900 -1.4393 -2.1572  1.8898
 1450SOL     vw 5800   1.704   0.424   0.944 -0.0961 -0.3306 -0.3521
 1451SOL     ow 5801   4.307   3.577   1.937  0.1325 -0.7177  0.3058
 1451SOL     hw 5802   4.234   3.551   1.880 -0.1910 -3.4341  1.7703
 1451SOL     hw 5803   4.383   3.532   1.899 -0.0046 -2.1854  1.6846
 1451SOL     vw 5804   4.307   3.567   1.924  0.0718 -1.2697  0.6809
 1452SOL     ow 5805   5.555   3.643   1.033  0.3100  0.6687  0.5957
 1452SOL     hw 5806   5.546   3.548   1.041  0.2726  0.1573 -3.4742
 1452SOL     hw 5807   5.619   3.667   1.100  0.7052 -2.2806  1.3968
 1452SOL     vw 5808   5.562   3.634   1.043  0.3569  0.2122  0.1644
 1453SOL     ow 5809   2.147   0.662   7.197 -0.0284 -0.7055 -0.3349
 1453SOL     hw 5810   2.193   0.741   7.226 -0.0036 -1.0889  0.7069
 1453SOL     hw 5811   2.115   0.684   7.109  0.2774  0.3398 -0.1999
 1453SOL     vw 5812   2.149   0.675   7.189  0.0154 -0.6182 -0.1795
 1454SOL     ow 5813   2.942   0.255   5.042 -0.3235  0.1531 -0.4924
 1454SOL     hw 5814   2.923   0.344   5.011  1.8901  1.0097  0.3798
 1454SOL     hw 5815   2.874   0.238   5.107 -1.3300  0.8044 -1.3255
 1454SOL     vw 5816   2.931   0.264   5.046 -0.1643  0.3520 -0.4871
 1455SOL     ow 5817   2.699   2.789   1.454  0.4827 -0.4594  0.2694
 1455SOL     hw 5818   2.651   2.775   1.372 -0.4630 -2.1021  1.0518
 1455SOL     hw 5819   2.739   2.704   1.472  3.7925  0.8215 -0.3337
 1455SOL     vw 5820   2.698   2.776   1.445  0.7945 -0.5071  0.2931
 1456SOL     ow 5821   6.567   5.552   5.772  0.2274  0.0980  0.6498
 1456SOL     hw 5822   6.571   5.595   5.857  0.7996 -0.9189  1.1685
 1456SOL     hw 5823   6.641   5.491   5.773  0.6816  0.5898 -0.8764
 1456SOL     vw 5824   6.577   5.549   5.784  0.3624  0.0286  0.5169
 1457SOL     ow 5825   6.012   5.989   4.994  0.3676  0.2449  0.1374
 1457SOL     hw 5826   5.980   5.911   5.040 -0.1170 -0.1113 -0.7715
 1457SOL     hw 5827   6.105   5.972   4.979  0.7095  0.6964  1.6251
 1457SOL     vw 5828   6.020   5.976   4.998  0.3488  0.2573  0.2141
 1458SOL     ow 5829   4.630   2.448   3.417  0.0577  0.0653  0.5857
 1458SOL     hw 5830   4.671   2.504   3.483 -2.1201  2.5736  0.0160
 1458SOL     hw 5831   4.536   2.458   3.432 -0.4396 -2.5548 -0.3703
 1458SOL     vw 5832   4.623   2.457   3.428 -0.2954  0.0505  0.3844
 1459SOL     ow 5833   5.953   1.737   4.584 -0.7372 -0.2250 -0.4827
 1459SOL     hw 5834   5.897   1.738   4.506  0.1541  0.9472 -1.1557
 1459SOL     hw 5835   6.042   1.732   4.548 -0.3773 -1.5723  0.5387
 1459SOL     vw 5836   5.958   1.737   4.569 -0.5722 -0.2481 -0.4365
 1460SOL     ow 5837   2.121   2.006   2.382  0.2700 -0.3833 -0.1046
 1460SOL     hw 5838   2.190   2.072   2.380 -1.0955  1.1136  0.8335
 1460SOL     hw 5839   2.039   2.055   2.390 -0.9893 -2.0790 -1.6011
 1460SOL     vw 5840   2.119   2.021   2.383 -0.0763 -0.4095 -0.1783
 1461SOL     ow 5841   5.727   4.257   4.855 -0.2716  0.5927  0.2499
 1461SOL     hw 5842   5.733   4.257   4.951 -1.7314  0.3464  0.3593
 1461SOL     hw 5843   5.705   4.348   4.832  1.2089  0.9357  0.0268
 1461SOL     vw 5844   5.725   4.269   4.865 -0.2687  0.6053  0.2348
 1462SOL     ow 5845   6.041   6.243   5.199  0.1398 -0.6729  0.0676
 1462SOL     hw 5846   6.109   6.306   5.224  0.0976 -1.7684  3.5588
 1462SOL     hw 5847   5.962   6.276   5.242 -0.6150 -1.4521 -0.7006
 1462SOL     vw 5848   6.039   6.255   5.208  0.0346 -0.9201  0.4270
 1463SOL     ow 5849   2.479   3.301   1.386  0.2500  0.1265 -0.0328
 1463SOL     hw 5850   2.391   3.322   1.355  0.0895 -0.0599  0.2984
 1463SOL     hw 5851   2.506   3.226   1.333 -1.1390 -2.0786  2.1379
 1463SOL     vw 5852   2.471   3.294   1.375  0.0454 -0.1891  0.2973
 1464SOL     ow 5853   0.416   2.750   4.739  0.2115  0.9142 -0.2683
 1464SOL     hw 5854   0.470   2.728   4.663  0.0928  1.2693 -0.4539
 1464SOL     hw 5855   0.456   2.829   4.775 -0.9609  1.9706 -1.1953
 1464SOL     vw 5856   0.428   2.757   4.734  0.0411  1.1004 -0.4148
 1465SOL     ow 5857   1.059   4.842   5.471 -0.0652 -0.1905  0.6024
 1465SOL     hw 5858   1.136   4.895   5.451 -0.4988  0.4152  0.4744
 1465SOL     hw 5859   1.059   4.773   5.405 -0.8373  1.1025 -0.8289
 1465SOL     vw 5860   1.069   4.840   5.460 -0.2242  0.0601  0.3967
 1466SOL     ow 5861   3.951   0.531   3.914 -0.3321 -0.2689 -0.4163
 1466SOL     hw 5862   4.028   0.588   3.917 -1.4869  1.3654 -0.6767
 1466SOL     hw 5863   3.895   0.562   3.986 -1.1945 -0.7816 -0.8487
 1466SOL     vw 5864   3.954   0.542   3.924 -0.5982 -0.1209 -0.5078
 1467SOL     ow 5865   0.778   0.753   7.126  0.9071  0.6387 -0.1353
 1467SOL     hw 5866   0.730   0.758   7.043 -1.9147  0.0004  1.3496
 1467SOL     hw 5867   0.868   0.733   7.100  0.3617  1.5840 -3.0781
 1467SOL     vw 5868   0.784   0.751   7.111  0.4628  0.6792 -0.3278
 1468SOL     ow 5869   2.924   0.232   3.619  0.0629 -0.1001 -1.1848
 1468SOL     hw 5870   2.922   0.311   3.564 -0.3190  2.0217  1.6150
 1468SOL     hw 5871   2.838   0.193   3.609  0.3909 -0.4553 -2.9189
 1468SOL     vw 5872   2.913   0.238   3.610  0.0558  0.1329 -1.0442
 1469SOL     ow 5873   2.082   5.120   1.848 -0.9050 -0.4561 -0.2981
 1469SOL     hw 5874   2.047   5.206   1.824  0.4575 -0.2450 -1.6675
 1469SOL     hw 5875   2.161   5.111   1.795 -0.6979 -2.3073  0.2731
 1469SOL     vw 5876   2.087   5.130   1.838 -0.6980 -0.6728 -0.4035
 1470SOL     ow 5877   6.273   1.025   2.791 -1.1870 -0.2653  0.2737
 1470SOL     hw 5878   6.284   1.049   2.698 -0.7317  2.1942  0.8791
 1470SOL     hw 5879   6.300   0.933   2.795 -1.6132 -0.5721 -2.0868
 1470SOL     vw 5880   6.278   1.016   2.779 -1.1830  0.0188  0.0422
 1471SOL     ow 5881   5.112   3.379   5.341  0.0791  0.0013  0.5045
 1471SOL     hw 5882   5.177   3.428   5.290 -0.9702 -1.2080 -2.2119
 1471SOL     hw 5883   5.145   3.380   5.431  1.7564  2.7973 -0.0434
 1471SOL     vw 5884   5.125   3.385   5.346  0.1621  0.2105  0.0734
 1472SOL     ow 5885   3.502   1.676   3.530 -0.1782 -0.4788 -0.8019
 1472SOL     hw 5886   3.544   1.754   3.567  0.4845 -0.5382 -1.4111
 1472SOL     hw 5887   3.411   1.703   3.515 -1.0551 -1.0620  2.7271
 1472SOL     vw 5888   3.495   1.690   3.533 -0.2065 -0.5636 -0.4166
 1473SOL     ow 5889   2.715   6.095   0.901 -0.1308  0.2307 -0.2156
 1473SOL     hw 5890   2.716   6.011   0.946  0.7872  0.6918  0.6672
 1473SOL     hw 5891   2.757   6.079   0.817  1.1429  0.0530  0.4389
 1473SOL     vw 5892   2.721   6.082   0.896  0.1584  0.2677 -0.0128
 1474SOL     ow 5893   1.757   3.681   5.352 -0.2514 -0.9904 -0.1446
 1474SOL     hw 5894   1.751   3.722   5.438 -0.2051  0.1196 -0.6531
 1474SOL     hw 5895   1.723   3.747   5.291  2.1092 -0.6927 -1.2694
 1474SOL     vw 5896   1.752   3.695   5.355  0.0661 -0.8047 -0.3600
 1475SOL     ow 5897   6.013   6.363   6.841  0.3010 -0.0803 -0.2955
 1475SOL     hw 5898   5.945   6.333   6.902 -0.3401  2.4576  0.3573
 1475SOL     hw 5899   6.007   6.459   6.844  1.2908  0.1694 -3.2212
 1475SOL     vw 5900   6.003   6.372   6.850  0.3469  0.2878 -0.5956
 1476SOL     ow 5901   4.402   4.121   6.968 -0.0647 -0.1847 -0.0628
 1476SOL     hw 5902   4.367   4.052   7.025 -0.0811  1.8393  2.5756
 1476SOL     hw 5903   4.477   4.155   7.016  1.7288 -0.1974 -2.6547
 1476SOL     vw 5904   4.407   4.116   6.982  0.1698  0.0806 -0.0567
 1477SOL     ow 5905   3.782   4.807   0.592 -0.6197 -0.5628 -0.5905
 1477SOL     hw 5906   3.850   4.746   0.563  0.4979  0.2691  0.1953
 1477SOL     hw 5907   3.784   4.878   0.527 -0.7174 -0.5280 -0.5559
 1477SOL     vw 5908   3.791   4.809   0.579 -0.4852 -0.4482 -0.4822
 1478SOL     ow 5909   4.741   1.296   2.417  0.0064 -0.5614  0.2221
 1478SOL     hw 5910   4.738   1.246   2.498  2.5459 -3.1223 -1.0763
 1478SOL     hw 5911   4.787   1.377   2.439 -0.9461 -0.3859  1.6497
 1478SOL     vw 5912   4.746   1.300   2.430  0.2158 -0.8761  0.2391
 1479SOL     ow 5913   4.097   0.507   5.595 -0.1258 -0.3479  0.0708
 1479SOL     hw 5914   4.139   0.490   5.511 -1.2421 -2.5976 -0.0931
 1479SOL     hw 5915   4.165   0.493   5.660 -0.2299 -2.8266 -0.2569
 1479SOL     vw 5916   4.111   0.503   5.593 -0.2871 -0.9717  0.0057
 1480SOL     ow 5917   3.602   5.276   0.674 -0.1094 -0.0507 -0.5201
 1480SOL     hw 5918   3.519   5.312   0.705  0.0172  0.2761 -0.5517
 1480SOL     hw 5919   3.613   5.313   0.586 -0.5019 -1.0279 -0.9906
 1480SOL     vw 5920   3.593   5.286   0.667 -0.1446 -0.1364 -0.5863
 1481SOL     ow 5921   6.008   3.312   2.195  0.1160  0.3289 -0.1379
 1481SOL     hw 5922   5.967   3.231   2.225 -1.5154  1.5539  1.0596
 1481SOL     hw 5923   5.976   3.324   2.105 -2.1520  1.1866  0.7229
 1481SOL     vw 5924   5.998   3.303   2.187 -0.3984  0.6037  0.1336
 1482SOL     ow 5925   6.068   2.553   5.454 -0.5697 -0.2068 -0.3349
 1482SOL     hw 5926   6.085   2.529   5.363 -0.0896 -1.7534  0.1239
 1482SOL     hw 5927   6.080   2.648   5.457 -2.6104  0.1820 -2.2940
 1482SOL     vw 5928   6.072   2.563   5.443 -0.7756 -0.3594 -0.5329
 1483SOL     ow 5929   3.595   0.129   0.417  0.2035  0.4710  0.0406
 1483SOL     hw 5930   3.533   0.191   0.456 -0.4872 -0.8355  1.0692
 1483SOL     hw 5931   3.646   0.095   0.491 -0.6058 -1.4667 -0.2296
 1483SOL     vw 5932   3.594   0.133   0.432  0.0056  0.0430  0.1406
 1484SOL     ow 5933   0.224   2.968   0.067 -0.0563 -0.7041 -0.1556
 1484SOL     hw 5934   0.276   2.888   0.075 -2.4980 -2.4766 -0.7912
 1484SOL     hw 5935   0.275   3.035   0.113  2.2362 -2.5240  0.1101
 1484SOL     vw 5936   0.237   2.966   0.074 -0.0760 -1.1780 -0.2044
 1485SOL     ow 5937   6.797   4.017   7.197  0.4387 -0.2701 -0.2320
 1485SOL     hw 5938   6.857   4.086   7.170  0.8652 -1.0807 -1.4567
 1485SOL     hw 5939   6.780   4.035   7.289  1.8616  0.5048 -0.0809
 1485SOL     vw 5940   6.803   4.028   7.206  0.6828 -0.2751 -0.3736
 1486SOL     ow 5941   1.963   5.525   5.840  0.4269  0.4218  0.0294
 1486SOL     hw 5942   2.014   5.458   5.794  0.3483 -0.8503  1.6622
 1486SOL     hw 5943   2.029   5.578   5.884  0.4803  1.3045 -1.0922
 1486SOL     vw 5944   1.979   5.523   5.840  0.4236  0.3703  0.0966
 1487SOL     ow 5945   4.962   0.201   1.923  0.2482  0.2809 -0.7416
 1487SOL     hw 5946   5.013   0.121   1.936  0.6550  0.4755 -1.1186
 1487SOL     hw 5947   4.881   0.171   1.880 -0.1801 -0.0909  0.3037
 1487SOL     vw 5948   4.958   0.186   1.919  0.2456  0.2575 -0.6534
 1488SOL     ow 5949   4.113   6.006   4.219 -0.2791  0.0830  0.4066
 1488SOL     hw 5950   4.060   5.935   4.183 -1.9174  0.8103  1.3126
 1488SOL     hw 5951   4.182   6.019   4.154 -1.5117 -0.5403 -1.0826
 1488SOL     vw 5952   4.115   5.998   4.205 -0.6578  0.0966  0.3295
 1489SOL     ow 5953   1.873   2.241   0.546 -0.4632 -0.3208  0.3345
 1489SOL     hw 5954   1.829   2.163   0.512  1.2289 -1.4989  0.7232
 1489SOL     hw 5955   1.918   2.278   0.470 -0.8472 -0.0161  0.2548
 1489SOL     vw 5956   1.873   2.236   0.531 -0.2906 -0.4359  0.3753
 1490SOL     ow 5957   6.953   3.280   3.242  0.4933  0.0252  0.2131
 1490SOL     hw 5958   6.960   3.218   3.315 -1.4850  1.8003  2.0582
 1490SOL     hw 5959   6.881   3.246   3.188  0.6319 -0.2406  0.1955
 1490SOL     vw 5960   6.944   3.267   3.244  0.2506  0.2244  0.4543
 1491SOL     ow 5961   3.231   3.361   3.963 -0.7829  0.0372  0.3134
 1491SOL     hw 5962   3.268   3.275   3.981 -0.4888  0.0156 -0.3820
 1491SOL     hw 5963   3.242   3.409   4.045 -0.2660 -0.3426  0.4688
 1491SOL     vw 5964   3.237   3.356   3.976 -0.6759 -0.0159  0.2422
 1492SOL     ow 5965   3.254   4.185   3.535 -0.4325  0.4789  0.2222
 1492SOL     hw 5966   3.183   4.180   3.600  0.1213 -0.3314  0.7801
 1492SOL     hw 5967   3.255   4.098   3.495 -0.0125  0.6160 -0.0619
 1492SOL     vw 5968   3.245   4.173   3.538 -0.3040  0.3901  0.2582
 1493SOL     ow 5969   0.172   6.771   3.832 -0.2159 -0.1614 -0.0459
 1493SOL     hw 5970   0.246   6.712   3.815  0.4765  1.0060 -1.2261
 1493SOL     hw 5971   0.211   6.858   3.839 -1.3380  0.3081  0.6936
 1493SOL     vw 5972   0.187   6.774   3.831 -0.2726  0.0546 -0.1040
 1494SOL     ow 5973   5.971   0.364   1.926  0.5389 -0.7267 -0.5766
 1494SOL     hw 5974   5.968   0.367   1.830 -1.4317 -2.0400 -0.6091
 1494SOL     hw 5975   6.037   0.429   1.949 -1.1033  1.9159 -2.7051
 1494SOL     vw 5976   5.979   0.373   1.916  0.0622 -0.5513 -0.8618
 1495SOL     ow 5977   7.088   1.390   2.224 -0.1548  0.4670 -0.3755
 1495SOL     hw 5978   7.148   1.348   2.286  0.1283  1.3969 -0.0099
 1495SOL     hw 5979   7.134   1.386   2.140 -0.2667 -0.2224 -0.4163
 1495SOL     vw 5980   7.102   1.384   2.221 -0.1318  0.4987 -0.3327
 1496SOL     ow 5981   6.237   4.507   3.803 -0.2922  0.4232  0.4615
 1496SOL     hw 5982   6.333   4.504   3.802 -0.2354 -0.2545 -2.7561
 1496SOL     hw 5983   6.216   4.600   3.808  0.7033  0.8446 -1.7758
 1496SOL     vw 5984   6.247   4.519   3.804 -0.1533  0.3896 -0.2582
 1497SOL     ow 5985   7.090   2.918   4.687  0.1571 -0.3416  0.0712
 1497SOL     hw 5986   7.115   2.862   4.614 -0.3539  0.4208 -0.7097
 1497SOL     hw 5987   7.028   2.981   4.649 -1.1368 -0.7304  1.4233
 1497SOL     vw 5988   7.085   2.919   4.672 -0.0813 -0.2923  0.1466
 1498SOL     ow 5989   0.561   1.092   0.354  0.8369  0.1316 -0.7778
 1498SOL     hw 5990   0.495   1.102   0.423  0.6587  2.0944 -1.1730
 1498SOL     hw 5991   0.535   1.013   0.306 -1.9188  1.4458 -1.6256
 1498SOL     vw 5992   0.549   1.083   0.357  0.4498  0.5640 -0.9418
 1499SOL     ow 5993   5.380   1.716   7.100 -0.1667 -0.6530  0.0571
 1499SOL     hw 5994   5.451   1.672   7.053 -0.8276  0.5553 -2.1739
 1499SOL     hw 5995   5.334   1.767   7.034 -0.3849  2.2157  2.2309
 1499SOL     vw 5996   5.383   1.717   7.085 -0.2828 -0.1151  0.0494
 1500SOL     ow 5997   0.415   4.011   0.097  0.2945  0.2815 -0.3470
 1500SOL     hw 5998   0.385   3.952   0.167 -0.0843  0.8753 -0.0010
 1500SOL     hw 5999   0.496   4.049   0.132 -0.2760  1.1340  0.0990
 1500SOL     vw 6000   0.421   4.008   0.111  0.1693  0.4721 -0.2425
 1501SOL     ow 6001   0.637   0.715   4.181 -0.4181 -0.3575 -0.2438
 1501SOL     hw 6002   0.618   0.626   4.209 -0.5919  0.1098  1.2281
 1501SOL     hw 6003   0.676   0.757   4.258 -0.5199  0.8922 -0.8385
 1501SOL     vw 6004   0.640   0.709   4.195 -0.4545 -0.1310 -0.1278
 1502SOL     ow 6005   1.864   5.359   0.624  0.1617 -0.5331 -0.1483
 1502SOL     hw 6006   1.808   5.375   0.549  0.6708 -0.3694 -0.4980
 1502SOL     hw 6007   1.804   5.358   0.699 -0.2565  0.0551 -0.4649
 1502SOL     vw 6008   1.849   5.361   0.624  0.1737 -0.4337 -0.2362
 1503SOL     ow 6009   2.169   0.538   0.799 -0.3046 -0.0786 -0.7632
 1503SOL     hw 6010   2.132   0.452   0.779  0.9606 -0.3089 -2.3684
 1503SOL     hw 6011   2.096   0.599   0.788 -0.5410 -0.6409 -2.6844
 1503SOL     vw 6012   2.154   0.535   0.795 -0.1689 -0.1831 -1.2285
 1504SOL     ow 6013   4.563   2.474   1.307 -0.0746  0.6589 -0.7093
 1504SOL     hw 6014   4.479   2.489   1.262  0.7029 -0.5974 -2.6854
 1504SOL     hw 6015   4.555   2.386   1.344 -0.0604  1.0140  0.1567
 1504SOL     vw 6016   4.551   2.465   1.306  0.0300  0.5400 -0.8557
 1505SOL     ow 6017   6.286   0.775   3.668 -0.1217 -0.8590 -0.2678
 1505SOL     hw 6018   6.333   0.817   3.596 -0.6650  2.7491  1.2962
 1505SOL     hw 6019   6.198   0.760   3.635  0.0169 -0.5577 -0.7755
 1505SOL     vw 6020   6.281   0.778   3.654 -0.1750 -0.3432 -0.1285
 1506SOL     ow 6021   4.518   1.506   5.518 -0.0304  0.3412 -0.0626
 1506SOL     hw 6022   4.507   1.455   5.598 -2.9369  0.4995 -0.2643
 1506SOL     hw 6023   4.603   1.549   5.529 -0.2267  0.2048  2.8402
 1506SOL     vw 6024   4.528   1.505   5.530 -0.4396  0.3441  0.2942
 1507SOL     ow 6025   7.123   2.941   3.671 -0.0098  0.1549 -0.2395
 1507SOL     hw 6026   7.150   3.028   3.700 -2.2146  0.5678  0.7966
 1507SOL     hw 6027   7.205   2.894   3.655  1.3384  1.2535  2.7316
 1507SOL     vw 6028   7.137   2.946   3.673 -0.1230  0.3543  0.2892
 1508SOL     ow 6029   4.647   4.885   5.333  0.5652 -0.0355 -0.0348
 1508SOL     hw 6030   4.564   4.918   5.297  0.1576  1.0120  1.6949
 1508SOL     hw 6031   4.660   4.938   5.412  2.9795 -0.0821 -0.3440
 1508SOL     vw 6032   4.638   4.896   5.339  0.8297  0.0968  0.1523
 1509SOL     ow 6033   1.603   3.547   7.179  0.7654 -0.1566 -0.4194
 1509SOL     hw 6034   1.567   3.546   7.268  1.7546 -1.1002 -0.0173
 1509SOL     hw 6035   1.536   3.505   7.126  1.5617 -2.7476  0.4721
 1509SOL     vw 6036   1.589   3.542   7.184  1.0010 -0.6229 -0.2487
 1510SOL     ow 6037   2.644   4.026   1.030 -0.8076  0.4805 -0.8865
 1510SOL     hw 6038   2.706   3.973   0.979 -0.3932  0.8070 -0.7317
 1510SOL     hw 6039   2.699   4.094   1.070 -0.9592 -0.3263  0.7743
 1510SOL     vw 6040   2.660   4.028   1.029 -0.7731  0.4172 -0.6469
 1511SOL     ow 6041   5.712   2.365   1.436  0.5062 -0.7039 -0.9945
 1511SOL     hw 6042   5.629   2.412   1.431  0.9840  0.1941 -0.6907
 1511SOL     hw 6043   5.779   2.434   1.443  1.1332 -1.4518  0.9135
 1511SOL     vw 6044   5.710   2.381   1.436  0.6518 -0.6841 -0.7026
 1512SOL     ow 6045   0.086   0.670   1.054  0.1428 -0.8224 -0.2792
 1512SOL     hw 6046   0.167   0.659   1.104  0.0951 -0.8563 -0.2090
 1512SOL     hw 6047   0.042   0.585   1.061 -0.2745 -0.5616  0.3472
 1512SOL     vw 6048   0.091   0.657   1.061  0.0814 -0.7924 -0.1873
 1513SOL     ow 6049   5.115   6.177   1.734  0.6400 -0.3165 -0.3410
 1513SOL     hw 6050   5.181   6.107   1.729  0.2653 -0.6715 -0.3594
 1513SOL     hw 6051   5.057   6.150   1.805 -0.8778 -1.2303 -1.8470
 1513SOL     vw 6052   5.116   6.164   1.742  0.3905 -0.4840 -0.5422
 1514SOL     ow 6053   0.408   5.713   2.010  0.5280 -0.1408 -0.6119
 1514SOL     hw 6054   0.488   5.748   2.048  1.4713 -2.5054 -0.2748
 1514SOL     hw 6055   0.437   5.667   1.931 -0.3017 -1.9668  0.1040
 1514SOL     vw 6056   0.422   5.711   2.004  0.5430 -0.6933 -0.4730
 1515SOL     ow 6057   6.770   5.464   0.265  0.2594 -0.3363  0.0879
 1515SOL     hw 6058   6.746   5.372   0.255 -1.2006 -0.1117  1.1864
 1515SOL     hw 6059   6.848   5.475   0.211 -0.3891 -1.8623 -1.2296
 1515SOL     vw 6060   6.777   5.453   0.257 -0.0188 -0.5078  0.0590
 1516SOL     ow 6061   4.085   3.043   6.587  0.5129  0.4747  0.4177
 1516SOL     hw 6062   4.064   3.073   6.499  1.2027  2.1767  0.8033
 1516SOL     hw 6063   4.159   2.983   6.576  0.8893  1.0349 -0.1200
 1516SOL     vw 6064   4.092   3.039   6.574  0.6535  0.7732  0.3979
 1517SOL     ow 6065   2.307   0.874   3.386 -0.8444  0.6757 -0.3299
 1517SOL     hw 6066   2.247   0.844   3.454 -0.9476  0.9125 -0.3144
 1517SOL     hw 6067   2.311   0.801   3.324 -0.3836  0.2808  0.1645
 1517SOL     vw 6068   2.299   0.861   3.386 -0.7973  0.6549 -0.2625
 1518SOL     ow 6069   4.178   4.880   2.697 -0.4583  0.3584  0.0119
 1518SOL     hw 6070   4.105   4.819   2.702 -0.5823  0.5924  1.2737
 1518SOL     hw 6071   4.151   4.943   2.630 -0.8846 -0.2365 -0.3869
 1518SOL     vw 6072   4.165   4.880   2.689 -0.5312  0.3107  0.1258
 1519SOL     ow 6073   0.292   2.924   3.066  0.3802 -0.0101 -0.6924
 1519SOL     hw 6074   0.260   2.997   3.120  0.9901  1.7815 -2.6167
 1519SOL     hw 6075   0.219   2.862   3.065  0.5282 -0.3919  2.5327
 1519SOL     vw 6076   0.278   2.925   3.073  0.4802  0.1760 -0.5208
 1520SOL     ow 6077   3.995   7.177   2.253 -0.3990 -0.5890 -0.1367
 1520SOL     hw 6078   3.974   7.088   2.226  0.7793 -1.6859  2.2684
 1520SOL     hw 6079   3.911   7.216   2.277 -0.9244 -1.0298 -1.2078
 1520SOL     vw 6080   3.981   7.171   2.253 -0.3128 -0.7920  0.0395
 1521SOL     ow 6081   5.738   6.530   4.325 -0.2217 -0.0067 -0.1374
 1521SOL     hw 6082   5.677   6.530   4.251 -1.5047 -1.4362  0.8615
 1521SOL     hw 6083   5.683   6.542   4.402  1.1368  1.8056  0.6102
 1521SOL     vw 6084   5.723   6.532   4.325 -0.2117  0.0439  0.0927
 1522SOL     ow 6085   0.253   4.219   6.278  0.3357  0.3172  0.1747
 1522SOL     hw 6086   0.246   4.207   6.184  2.6541 -2.8149  0.2693
 1522SOL     hw 6087   0.166   4.249   6.305 -0.6581  0.3677 -2.8127
 1522SOL     vw 6088   0.240   4.222   6.269  0.5104 -0.0892 -0.2072
 1523SOL     ow 6089   2.355   6.725   1.480 -0.7855 -0.2106 -0.4230
 1523SOL     hw 6090   2.292   6.676   1.427 -1.5989 -0.5908  0.8489
 1523SOL     hw 6091   2.431   6.666   1.488 -1.2684 -0.7763  0.0797
 1523SOL     vw 6092   2.357   6.711   1.474 -0.9564 -0.3355 -0.1889
 1524SOL     ow 6093   6.546   4.760   2.597  0.2070  0.0880 -0.3915
 1524SOL     hw 6094   6.491   4.682   2.586  1.2384 -0.9127  1.1498
 1524SOL     hw 6095   6.541   4.779   2.691  2.1113  0.2274 -0.2928
 1524SOL     vw 6096   6.538   4.752   2.608  0.5946 -0.0257 -0.1751
 1525SOL     ow 6097   3.292   5.334   3.348  0.1396  0.7942 -0.3998
 1525SOL     hw 6098   3.365   5.295   3.299  0.9832  1.7063  0.0971
 1525SOL     hw 6099   3.309   5.309   3.439 -1.3653 -0.8105 -0.4910
 1525SOL     vw 6100   3.304   5.325   3.353  0.0523  0.7026 -0.3464
 1526SOL     ow 6101   6.922   6.091   2.220  0.2393 -0.2775 -0.5477
 1526SOL     hw 6102   6.854   6.116   2.158 -0.7527 -0.4458  0.4296
 1526SOL     hw 6103   6.887   6.013   2.263  0.2962  0.5590  1.1023
 1526SOL     vw 6104   6.908   6.084   2.218  0.1159 -0.1893 -0.2009
 1527SOL     ow 6105   2.732   3.722   6.010  0.0661 -0.1520  0.0081
 1527SOL     hw 6106   2.796   3.714   5.939  0.0440  0.3174 -0.0678
 1527SOL     hw 6107   2.659   3.771   5.971  0.5405  1.1218  0.6734
 1527SOL     vw 6108   2.731   3.727   5.995  0.1259  0.0780  0.0861
 1528SOL     ow 6109   4.177   4.379   4.621 -0.1163 -0.4346 -1.4988
 1528SOL     hw 6110   4.118   4.417   4.686 -0.5761  0.3817 -2.3678
 1528SOL     hw 6111   4.127   4.307   4.582  1.3968 -3.3530  1.4324
 1528SOL     vw 6112   4.163   4.374   4.625  0.0226 -0.7119 -1.2269
 1529SOL     ow 6113   4.924   3.520   4.173  0.3365  0.2320 -0.0444
 1529SOL     hw 6114   4.921   3.451   4.107 -0.6130 -0.5877  0.8380
 1529SOL     hw 6115   4.932   3.474   4.256 -1.4024  1.0978  0.6527
 1529SOL     vw 6116   4.924   3.505   4.175 -0.0181  0.2381  0.1638
 1530SOL     ow 6117   0.677   0.726   6.864 -0.4487 -0.0527 -0.6439
 1530SOL     hw 6118   0.696   0.681   6.782 -1.4393 -0.1076 -0.8567
 1530SOL     hw 6119   0.691   0.818   6.845  0.3120 -0.1464 -0.5770
 1530SOL     vw 6120   0.681   0.732   6.851 -0.4790 -0.0723 -0.6633
 1531SOL     ow 6121   5.839   6.897   4.605  0.0310 -0.1271 -0.7358
 1531SOL     hw 6122   5.856   6.905   4.699 -3.3792 -1.2154  0.1108
 1531SOL     hw 6123   5.837   6.987   4.574  1.5667  0.2415  0.0920
 1531SOL     vw 6124   5.841   6.910   4.613 -0.2162 -0.2220 -0.5147
 1532SOL     ow 6125   4.210   4.129   4.804 -0.6411  0.9870 -0.1641
 1532SOL     hw 6126   4.121   4.144   4.834 -1.0205  0.4950 -1.0115
 1532SOL     hw 6127   4.236   4.046   4.845 -1.2657  0.1617 -1.3822
 1532SOL     vw 6128   4.202   4.120   4.813 -0.7737  0.8135 -0.4368
 1533SOL     ow 6129   2.100   3.432   4.420 -0.4076 -0.2787 -0.4802
 1533SOL     hw 6130   2.006   3.412   4.411 -0.2340 -0.3134 -2.7040
 1533SOL     hw 6131   2.106   3.477   4.504 -2.3619 -0.5902 -0.1085
 1533SOL     vw 6132   2.088   3.435   4.430 -0.6424 -0.3242 -0.7243
 1534SOL     ow 6133   5.908   2.172   3.892 -0.2598  0.2329  0.0726
 1534SOL     hw 6134   5.900   2.174   3.797  1.1007  1.4758 -0.0533
 1534SOL     hw 6135   5.884   2.261   3.920  1.0107  0.3993  0.7092
 1534SOL     vw 6136   5.904   2.184   3.883  0.0875  0.4187  0.1400
 1535SOL     ow 6137   4.108   0.823   6.986  0.0628 -0.1119 -0.0909
 1535SOL     hw 6138   4.107   0.729   6.966 -0.8256 -0.0258 -0.4661
 1535SOL     hw 6139   4.100   0.866   6.901 -0.9079  0.2834  0.1921
 1535SOL     vw 6140   4.107   0.816   6.972 -0.1824 -0.0483 -0.1030
 1536SOL     ow 6141   6.219   6.852   1.910  0.1752 -0.0288 -0.1984
 1536SOL     hw 6142   6.143   6.815   1.865 -0.2359 -0.0844  0.5269
 1536SOL     hw 6143   6.241   6.787   1.977  1.0154 -0.1282 -0.5553
 1536SOL     vw 6144   6.212   6.838   1.913  0.2317 -0.0494 -0.1498
 1537SOL     ow 6145   4.660   6.575   1.189 -0.2108 -0.3423 -0.3384
 1537SOL     hw 6146   4.625   6.487   1.176  0.9220 -0.7783 -0.6052
 1537SOL     hw 6147   4.748   6.571   1.151 -0.7669  1.4073 -2.0016
 1537SOL     vw 6148   4.667   6.563   1.182 -0.1347 -0.1688 -0.5931
 1538SOL     ow 6149   1.403   6.515   6.730 -0.2731 -0.2503  0.1512
 1538SOL     hw 6150   1.410   6.426   6.765  0.9810  0.4530  1.8350
 1538SOL     hw 6151   1.371   6.504   6.640 -1.2380 -2.3098  0.7083
 1538SOL     vw 6152   1.400   6.502   6.723 -0.2349 -0.4294  0.4470
 1539SOL     ow 6153   5.561   5.245   0.336 -0.0775 -0.4662  0.1995
 1539SOL     hw 6154   5.542   5.269   0.426 -1.2749 -4.0866  1.0719
 1539SOL     hw 6155   5.651   5.214   0.337  0.0038 -0.2410  0.0563
 1539SOL     vw 6156   5.570   5.244   0.348 -0.2248 -0.9143  0.2957
 1540SOL     ow 6157   2.046   0.312   2.471  0.1016 -0.3314  0.6189
 1540SOL     hw 6158   2.046   0.224   2.433 -1.2088 -0.0308 -0.1486
 1540SOL     hw 6159   1.977   0.309   2.538  0.7271 -0.1563  1.2845
 1540SOL     vw 6160   2.037   0.300   2.475  0.0112 -0.2686  0.6055
 1541SOL     ow 6161   2.553   1.461   2.548  0.6025  0.2399 -0.2886
 1541SOL     hw 6162   2.644   1.477   2.524  1.5399 -1.3905  1.8430
 1541SOL     hw 6163   2.556   1.387   2.608 -2.3717 -1.2949 -1.7928
 1541SOL     vw 6164   2.565   1.453   2.553  0.3338 -0.1777 -0.2059
 1542SOL     ow 6165   1.647   5.393   5.266  0.1924  0.5976 -0.4044
 1542SOL     hw 6166   1.565   5.391   5.315 -0.3259 -0.9306 -1.2667
 1542SOL     hw 6167   1.711   5.428   5.328 -0.6398 -0.3384  1.0654
 1542SOL     vw 6168   1.645   5.397   5.281  0.0143  0.2725 -0.3242
 1543SOL     ow 6169   0.877   2.064   6.453  0.2825 -0.2587  0.1046
 1543SOL     hw 6170   0.839   2.002   6.390 -2.2076  0.9019  0.3390
 1543SOL     hw 6171   0.905   2.010   6.527 -3.1463 -1.0864  0.9438
 1543SOL     vw 6172   0.876   2.049   6.454 -0.4984 -0.2147  0.2465
 1544SOL     ow 6173   0.407   3.212   2.248  0.2729 -0.2283 -0.5420
 1544SOL     hw 6174   0.406   3.302   2.218  1.0387 -0.1914 -0.4714
 1544SOL     hw 6175   0.490   3.177   2.217  0.2589 -0.7277 -0.0379
 1544SOL     vw 6176   0.418   3.219   2.240  0.3721 -0.2892 -0.4663
 1545SOL     ow 6177   3.090   0.868   0.455 -0.0676  0.1018 -0.2097
 1545SOL     hw 6178   3.128   0.950   0.423 -1.7414  1.3436  0.8477
 1545SOL     hw 6179   3.131   0.801   0.401  1.2167  1.6305 -1.2470
 1545SOL     vw 6180   3.101   0.870   0.443 -0.1191  0.4673 -0.2070
 1546SOL     ow 6181   5.435   0.916   2.360  0.4048  0.2390  0.4642
 1546SOL     hw 6182   5.399   0.916   2.449  0.4221 -0.7739  0.4885
 1546SOL     hw 6183   5.475   0.829   2.351  2.2201  1.0380  0.1953
 1546SOL     vw 6184   5.436   0.904   2.371  0.6461  0.2108  0.4318
 1547SOL     ow 6185   5.045   2.536   3.174 -0.0223 -0.0435 -0.0689
 1547SOL     hw 6186   4.988   2.508   3.245  0.6869 -1.3393  0.0197
 1547SOL     hw 6187   5.132   2.539   3.212 -0.0653  2.4928 -0.0542
 1547SOL     vw 6188   5.049   2.532   3.188  0.0653  0.1200 -0.0552
 1548SOL     ow 6189   2.484   0.395   4.653 -0.1968  0.4033 -1.1648
 1548SOL     hw 6190   2.520   0.377   4.566  1.7474 -0.7815 -0.1927
 1548SOL     hw 6191   2.455   0.310   4.685 -0.0950  0.6769 -0.3247
 1548SOL     vw 6192   2.485   0.381   4.645  0.0732  0.2831 -0.9258
 1549SOL     ow 6193   1.273   3.221   6.280  0.0137 -0.5749  0.1127
 1549SOL     hw 6194   1.276   3.310   6.245  0.5600 -0.8553 -0.5747
 1549SOL     hw 6195   1.354   3.181   6.249 -0.4495 -1.4610  0.0279
 1549SOL     vw 6196   1.284   3.227   6.271  0.0247 -0.7287  0.0107
 1550SOL     ow 6197   1.445   5.153   7.022 -0.3623 -1.1059 -0.2611
 1550SOL     hw 6198   1.520   5.099   7.046  1.2388  0.5016 -1.3615
 1550SOL     hw 6199   1.404   5.106   6.949 -1.7661 -3.0463  1.6650
 1550SOL     vw 6200   1.450   5.140   7.016 -0.3362 -1.1499 -0.1521
 1551SOL     ow 6201   4.613   2.771   0.363  0.0410  0.7381  0.2988
 1551SOL     hw 6202   4.705   2.781   0.336 -0.6139  2.1929 -1.6874
 1551SOL     hw 6203   4.614   2.784   0.457  1.8346  1.1226  0.2636
 1551SOL     vw 6204   4.625   2.774   0.372  0.1912  0.9807  0.0321
 1552SOL     ow 6205   1.383   6.828   6.727  0.0764  0.0365  0.8839
 1552SOL     hw 6206   1.470   6.849   6.759 -0.1060  1.1504  0.7157
 1552SOL     hw 6207   1.379   6.869   6.640 -1.5716  2.6531  2.0493
 1552SOL     vw 6208   1.394   6.836   6.720 -0.1651  0.5286  1.0154
 1553SOL     ow 6209   5.755   4.757   2.466 -0.4422  0.3531  0.8558
 1553SOL     hw 6210   5.697   4.683   2.485  0.3076  0.3112  3.3181
 1553SOL     hw 6211   5.760   4.805   2.549  2.7360  0.5524  0.6675
 1553SOL     vw 6212   5.748   4.754   2.479  0.0761  0.3743  1.1557
 1554SOL     ow 6213   5.860   6.425   1.215  0.1994  0.0041 -0.0200
 1554SOL     hw 6214   5.808   6.495   1.255  0.3742  1.4013 -2.0511
 1554SOL     hw 6215   5.891   6.373   1.288 -1.6425  0.8443  1.4472
 1554SOL     vw 6216   5.857   6.427   1.230 -0.0205  0.2992 -0.0944
 1555SOL     ow 6217   1.495   3.916   6.462  0.0460  0.3790  0.0327
 1555SOL     hw 6218   1.402   3.935   6.470  0.0631  0.7988 -0.6767
 1555SOL     hw 6219   1.520   3.881   6.547 -0.8897 -0.2982  0.0466
 1555SOL     vw 6220   1.486   3.914   6.474 -0.0752  0.3451 -0.0591
 1556SOL     ow 6221   3.236   3.102   3.392 -0.4254 -0.4916  0.1381
 1556SOL     hw 6222   3.328   3.117   3.414 -0.3737  0.3317 -0.5941
 1556SOL     hw 6223   3.221   3.010   3.412  1.6955 -1.8506 -3.4784
 1556SOL     vw 6224   3.246   3.092   3.397 -0.1389 -0.5622 -0.4357
 1557SOL     ow 6225   0.347   3.639   5.592  0.1048 -0.1530  0.0954
 1557SOL     hw 6226   0.358   3.734   5.593  0.4187 -0.1948  1.1352
 1557SOL     hw 6227   0.263   3.623   5.634 -0.8368 -0.2509 -1.7267
 1557SOL     vw 6228   0.337   3.650   5.597  0.0220 -0.1715 -0.0076
 1558SOL     ow 6229   0.743   4.248   5.471 -0.4099  0.7746  0.5366
 1558SOL     hw 6230   0.710   4.249   5.381 -0.2088 -2.8514  0.2456
 1558SOL     hw 6231   0.679   4.196   5.519  2.1252 -2.1182  1.0935
 1558SOL     vw 6232   0.731   4.241   5.465 -0.0489 -0.0854  0.5720
 1559SOL     ow 6233   0.755   2.118   0.254  0.0075  0.4623 -0.3892
 1559SOL     hw 6234   0.825   2.055   0.234  0.5062  0.6057  0.7807
 1559SOL     hw 6235   0.802   2.195   0.288 -0.6915  0.8217 -0.2317
 1559SOL     vw 6236   0.771   2.120   0.256 -0.0189  0.5286 -0.2141
 1560SOL     ow 6237   5.145   5.335   3.115 -0.2245  0.1680  0.6572
 1560SOL     hw 6238   5.120   5.280   3.190 -1.5398  0.0411  0.1436
 1560SOL     hw 6239   5.238   5.352   3.129 -0.2330 -0.6015  1.8461
 1560SOL     vw 6240   5.154   5.330   3.127 -0.3991  0.0498  0.7464
 1561SOL     ow 6241   4.149   2.219   4.333 -0.3846  0.4394 -0.1449
 1561SOL     hw 6242   4.138   2.186   4.243 -0.2002  0.6512 -0.2470
 1561SOL     hw 6243   4.244   2.220   4.346 -0.0046  4.7441 -1.6073
 1561SOL     vw 6244   4.160   2.214   4.323 -0.3104  1.0352 -0.3512
 1562SOL     ow 6245   0.138   4.016   4.567  0.1904 -0.4158  0.9290
 1562SOL     hw 6246   0.067   4.059   4.616  1.3868  0.6115  1.8451
 1562SOL     hw 6247   0.202   3.993   4.634 -0.0869 -3.1453  0.3841
 1562SOL     vw 6248   0.137   4.019   4.583  0.3117 -0.6404  0.9780
 1563SOL     ow 6249   2.389   2.436   4.059 -0.4521 -0.2898 -0.2817
 1563SOL     hw 6250   2.349   2.411   4.142 -2.0133  2.6208 -0.0271
 1563SOL     hw 6251   2.320   2.481   4.011  1.5239  1.8693 -1.3370
 1563SOL     vw 6252   2.375   2.439   4.064 -0.3974  0.3791 -0.3872
 1564SOL     ow 6253   6.388   5.272   2.097  0.0910  0.1198 -0.0779
 1564SOL     hw 6254   6.440   5.342   2.137  1.3149 -1.6705  1.6598
 1564SOL     hw 6255   6.421   5.192   2.136 -1.0261 -1.5168 -2.2309
 1564SOL     vw 6256   6.399   5.271   2.107  0.1054 -0.3324 -0.1328
 1565SOL     ow 6257   2.052   1.417   0.115  0.2490 -1.2353  0.1667
 1565SOL     hw 6258   2.016   1.360   0.184 -3.6646  0.5451 -0.0991
 1565SOL     hw 6259   2.003   1.392   0.036 -0.4239  1.3072 -0.2979
 1565SOL     vw 6260   2.041   1.406   0.114 -0.3562 -0.6649  0.0703
 1566SOL     ow 6261   1.387   4.697   4.312  0.1534 -0.1723  0.5608
 1566SOL     hw 6262   1.458   4.761   4.318 -0.6080  0.9619 -1.5780
 1566SOL     hw 6263   1.326   4.724   4.381  0.2136  0.9382  0.2035
 1566SOL     vw 6264   1.389   4.709   4.322  0.0609  0.1240  0.2313
 1567SOL     ow 6265   6.637   3.374   1.057  0.2378 -0.1899  0.7207
 1567SOL     hw 6266   6.559   3.427   1.075  1.1762  1.7851 -0.6243
 1567SOL     hw 6267   6.700   3.402   1.123  0.1595 -1.0213  1.1581
 1567SOL     vw 6268   6.635   3.385   1.068  0.3512 -0.0390  0.6010
 1568SOL     ow 6269   1.074   3.190   5.845  0.1968  0.2274 -0.3219
 1568SOL     hw 6270   1.015   3.149   5.909  1.0476 -2.3787 -1.0926
 1568SOL     hw 6271   1.020   3.202   5.767 -0.0848  0.6811 -0.0605
 1568SOL     vw 6272   1.059   3.186   5.843  0.2719 -0.0565 -0.3893
 1569SOL     ow 6273   2.605   7.016   1.827 -0.6824 -0.1606  0.3753
 1569SOL     hw 6274   2.563   7.087   1.779  1.4818  0.8014 -0.2139
 1569SOL     hw 6275   2.695   7.046   1.841  1.2806 -3.8364 -2.4422
 1569SOL     vw 6276   2.611   7.029   1.822 -0.1378 -0.5188 -0.0741
 1570SOL     ow 6277   2.494   1.202   1.481  0.5861  1.1384 -0.1505
 1570SOL     hw 6278   2.468   1.264   1.549  0.2256  2.0752 -1.1196
 1570SOL     hw 6279   2.561   1.249   1.431  0.6231  0.5690 -0.6381
 1570SOL     vw 6280   2.500   1.216   1.484  0.5434  1.1867 -0.3427
 1571SOL     ow 6281   7.109   2.127   6.882 -0.3498 -0.3008  0.1774
 1571SOL     hw 6282   7.137   2.061   6.945 -0.5374 -0.7539 -0.2095
 1571SOL     hw 6283   7.078   2.077   6.806 -2.0563  0.1810  0.5122
 1571SOL     vw 6284   7.109   2.112   6.880 -0.6001 -0.2968  0.1705
 1572SOL     ow 6285   0.987   5.952   2.784 -0.5292 -0.0401  0.2917
 1572SOL     hw 6286   0.968   5.951   2.690  1.1145 -1.5439 -0.0707
 1572SOL     hw 6287   0.945   5.872   2.818  0.8491 -0.7433  0.3846
 1572SOL     vw 6288   0.979   5.941   2.776 -0.1305 -0.3314  0.2562
 1573SOL     ow 6289   3.891   6.161   6.883 -0.1357  0.0800  0.9460
 1573SOL     hw 6290   3.880   6.143   6.976  0.9621  0.5990  1.1893
 1573SOL     hw 6291   3.985   6.175   6.872 -0.1734 -0.5480 -0.3470
 1573SOL     vw 6292   3.902   6.161   6.894  0.0042  0.0653  0.8070
 1574SOL     ow 6293   5.587   0.530   7.037  0.1492  0.3653 -0.1715
 1574SOL     hw 6294   5.630   0.571   6.962 -2.1220  3.6857  0.1205
 1574SOL     hw 6295   5.544   0.452   7.001  1.0204  0.6018 -1.8043
 1574SOL     vw 6296   5.587   0.525   7.023 -0.0355  0.8346 -0.3486
 1575SOL     ow 6297   1.412   1.848   2.202 -0.2891  0.1594  0.5948
 1575SOL     hw 6298   1.386   1.923   2.256  3.2872  2.7251 -0.8466
 1575SOL     hw 6299   1.468   1.795   2.260  0.7466  1.0564  0.4492
 1575SOL     vw 6300   1.416   1.851   2.217  0.3195  0.6163  0.3855
 1576SOL     ow 6301   1.042   6.903   2.076  0.4209  0.5921  0.2722
 1576SOL     hw 6302   1.036   6.995   2.051  1.3589  0.4099 -0.6806
 1576SOL     hw 6303   1.012   6.855   1.999  1.7796  0.0545  0.0556
 1576SOL     vw 6304   1.037   6.909   2.063  0.7239  0.4969  0.1179
 1577SOL     ow 6305   0.322   6.245   1.880 -0.0080 -0.0433  0.2451
 1577SOL     hw 6306   0.401   6.275   1.837  0.4827  0.1309  1.2345
 1577SOL     hw 6307   0.316   6.299   1.959 -1.1196 -0.0403  0.1743
 1577SOL     vw 6308   0.331   6.256   1.885 -0.0899 -0.0198  0.3663
 1578SOL     ow 6309   0.751   6.754   1.420  0.7260 -0.3855  0.0391
 1578SOL     hw 6310   0.794   6.799   1.347  1.7866 -3.0571 -1.1338
 1578SOL     hw 6311   0.676   6.709   1.381  0.7458 -1.0847  0.7683
 1578SOL     vw 6312   0.747   6.754   1.405  0.8685 -0.8304 -0.0194
 1579SOL     ow 6313   4.073   1.728   4.865  0.0036  0.0543 -0.3813
 1579SOL     hw 6314   4.163   1.698   4.851 -0.3682 -1.3180  0.0188
 1579SOL     hw 6315   4.068   1.750   4.958 -0.2770 -0.6843 -0.2087
 1579SOL     vw 6316   4.084   1.727   4.875 -0.0823 -0.2242 -0.3057
 1580SOL     ow 6317   5.808   0.346   4.735 -0.0915  0.4559 -0.4274
 1580SOL     hw 6318   5.855   0.303   4.807  2.0417  0.7464 -1.5628
 1580SOL     hw 6319   5.819   0.286   4.661  1.5561  2.1301 -1.6185
 1580SOL     vw 6320   5.816   0.332   4.735  0.4072  0.7151 -0.7343
 1581SOL     ow 6321   5.602   4.967   3.772  0.5674  0.4660 -0.0095
 1581SOL     hw 6322   5.602   4.881   3.813  1.8759  0.0200 -0.8738
 1581SOL     hw 6323   5.644   4.953   3.687  0.7524  1.9461 -0.1874
 1581SOL     vw 6324   5.608   4.954   3.766  0.7641  0.6025 -0.1471
 1582SOL     ow 6325   5.672   3.494   4.305  0.2071 -0.9014  0.1178
 1582SOL     hw 6326   5.730   3.426   4.339 -1.3905 -0.0985  5.4100
 1582SOL     hw 6327   5.728   3.572   4.298  1.0338 -1.5843 -1.3859
 1582SOL     vw 6328   5.687   3.496   4.309  0.1054 -0.8856  0.6177
 1583SOL     ow 6329   0.087   1.205   4.474  0.0949 -0.2451 -0.0733
 1583SOL     hw 6330   0.022   1.242   4.533 -1.3691 -2.3109 -0.2827
 1583SOL     hw 6331   0.114   1.123   4.515  2.0913  0.2079 -0.3500
 1583SOL     vw 6332   0.082   1.199   4.487  0.1651 -0.4579 -0.1373
 1584SOL     ow 6333   1.475   5.330   5.063  0.2536 -0.2482 -0.4883
 1584SOL     hw 6334   1.398   5.387   5.064 -0.4351 -1.1559  0.3654
 1584SOL     hw 6335   1.466   5.277   5.142  2.1699  0.1552  0.0608
 1584SOL     vw 6336   1.464   5.331   5.074  0.4156 -0.3147 -0.3028
 1585SOL     ow 6337   4.813   1.748   0.842  0.0584 -0.0604  0.1246
 1585SOL     hw 6338   4.784   1.690   0.912 -0.5884  0.7588  0.5527
 1585SOL     hw 6339   4.739   1.753   0.782  0.1796  0.1691 -0.0086
 1585SOL     vw 6340   4.800   1.741   0.844 -0.0110  0.0779  0.1635
 1586SOL     ow 6341   2.186   0.538   2.365  0.2409 -0.1820 -0.0576
 1586SOL     hw 6342   2.240   0.532   2.287  0.4628 -0.3045  0.1022
 1586SOL     hw 6343   2.099   0.561   2.333  0.2111 -0.7323 -0.3868
 1586SOL     vw 6344   2.182   0.540   2.351  0.2662 -0.2708 -0.0799
 1587SOL     ow 6345   6.302   6.138   2.011 -0.3054  0.4691  0.2162
 1587SOL     hw 6346   6.311   6.074   1.941 -0.1237 -0.1834  0.8247
 1587SOL     hw 6347   6.237   6.200   1.978  0.5730  0.7964 -0.9775
 1587SOL     vw 6348   6.295   6.138   1.997 -0.1655  0.4261  0.1391
 1588SOL     ow 6349   2.780   5.525   5.844 -0.0906  0.1274 -0.0806
 1588SOL     hw 6350   2.759   5.549   5.934  1.9147  1.4284  0.0815
 1588SOL     hw 6351   2.696   5.529   5.798 -0.5076  4.4353  0.6471
 1588SOL     vw 6352   2.766   5.529   5.850  0.1191  0.8674  0.0367
 1589SOL     ow 6353   0.392   1.876   0.534  0.4336  0.0514  0.1282
 1589SOL     hw 6354   0.330   1.948   0.524  1.8181  1.4179  0.9886
 1589SOL     hw 6355   0.363   1.831   0.614  2.0728  2.3949  2.2037
 1589SOL     vw 6356   0.380   1.880   0.544  0.8326  0.5409  0.5155
 1590SOL     ow 6357   2.810   7.197   1.606 -0.5214 -0.1635 -0.3225
 1590SOL     hw 6358   2.792   7.220   1.697 -1.0552 -0.5306 -0.3291
 1590SOL     hw 6359   2.733   7.148   1.578 -0.7918  0.7580 -1.2655
 1590SOL     vw 6360   2.798   7.194   1.614 -0.6275 -0.0904 -0.4478
 1591SOL     ow 6361   4.119   0.324   3.863 -0.7982 -0.9035  0.0006
 1591SOL     hw 6362   4.199   0.368   3.893 -0.6490 -0.4856 -0.9847
 1591SOL     hw 6363   4.050   0.389   3.880 -0.7554 -0.7829 -0.2876
 1591SOL     vw 6364   4.120   0.339   3.869 -0.7727 -0.8324 -0.1674
 1592SOL     ow 6365   5.815   5.705   2.202 -0.6789 -0.9283 -0.1049
 1592SOL     hw 6366   5.725   5.737   2.193 -1.7600 -3.5665  0.4629
 1592SOL     hw 6367   5.825   5.686   2.295  1.7482  2.4708  0.5428
 1592SOL     vw 6368   5.805   5.707   2.213 -0.5012 -0.8278  0.0554
 1593SOL     ow 6369   0.309   5.786   4.149  0.1894 -0.7414  0.3088
 1593SOL     hw 6370   0.267   5.813   4.230  0.6532 -0.5736  0.4971
 1593SOL     hw 6371   0.304   5.863   4.093  1.1504 -0.3760  0.7004
 1593SOL     vw 6372   0.303   5.800   4.152  0.3774 -0.6711  0.3850
 1594SOL     ow 6373   4.787   7.111   5.892  0.1648 -0.7571  0.1160
 1594SOL     hw 6374   4.706   7.121   5.943  0.2215 -0.7183  0.1980
 1594SOL     hw 6375   4.856   7.140   5.951  0.0858  0.8537 -0.5176
 1594SOL     vw 6376   4.785   7.117   5.907  0.1619 -0.5393  0.0429
 1595SOL     ow 6377   3.542   6.230   2.293  0.3846 -0.2788  0.3534
 1595SOL     hw 6378   3.548   6.148   2.244  2.3944 -0.2946  0.5282
 1595SOL     hw 6379   3.624   6.233   2.343 -0.6879  0.7196  2.1424
 1595SOL     vw 6380   3.554   6.220   2.293  0.5083 -0.1493  0.6124
 1596SOL     ow 6381   0.589   2.020   4.226 -0.8006 -0.7278 -0.3859
 1596SOL     hw 6382   0.586   1.943   4.283  2.2625  0.8549  2.2372
 1596SOL     hw 6383   0.501   2.058   4.231 -0.9543 -1.2894  2.4900
 1596SOL     vw 6384   0.577   2.015   4.234 -0.4168 -0.5931  0.3395
 1597SOL     ow 6385   0.304   1.631   6.698  0.1698 -0.1092 -0.4952
 1597SOL     hw 6386   0.258   1.584   6.628 -0.4106  0.6402 -0.6324
 1597SOL     hw 6387   0.293   1.723   6.676  0.0280  0.1409  0.5600
 1597SOL     vw 6388   0.297   1.637   6.686  0.0745  0.0226 -0.3741
 1598SOL     ow 6389   6.652   6.044   4.475  0.3749  0.4171 -0.1006
 1598SOL     hw 6390   6.677   6.129   4.438 -0.7043  0.2986 -1.1341
 1598SOL     hw 6391   6.577   6.064   4.531  1.0540  0.3500  0.8778
 1598SOL     vw 6392   6.646   6.058   4.478  0.3223  0.3927 -0.1075
 1599SOL     ow 6393   2.764   5.847   1.026 -0.0054  0.3546  0.1189
 1599SOL     hw 6394   2.779   5.772   0.967  1.3647  0.3214  0.4738
 1599SOL     hw 6395   2.846   5.897   1.022 -1.2849  2.5361 -1.0509
 1599SOL     vw 6396   2.777   5.844   1.017  0.0064  0.6382  0.0114
 1600SOL     ow 6397   1.292   2.314   5.855  0.2628 -1.1633 -0.7415
 1600SOL     hw 6398   1.221   2.367   5.890 -0.1747 -2.9960  1.4037
 1600SOL     hw 6399   1.357   2.377   5.824  0.1830  0.7248  2.4512
 1600SOL     vw 6400   1.291   2.329   5.856  0.1945 -1.1560 -0.0370
 1601SOL     ow 6401   5.478   3.275   4.251  0.0811 -0.4135 -0.3299
 1601SOL     hw 6402   5.430   3.192   4.246  2.4941 -1.8814 -0.5865
 1601SOL     hw 6403   5.533   3.276   4.173  0.4159  1.2555 -0.1150
 1601SOL     vw 6404   5.479   3.264   4.240  0.4437 -0.3870 -0.3355
 1602SOL     ow 6405   6.730   2.780   2.521 -0.7319 -0.2811 -0.4397
 1602SOL     hw 6406   6.680   2.746   2.595  0.7998  2.1256  1.9107
 1602SOL     hw 6407   6.811   2.728   2.521 -0.9289 -0.5864 -0.7149
 1602SOL     vw 6408   6.734   2.769   2.531 -0.5560 -0.0038 -0.1658
 1603SOL     ow 6409   3.393   1.345   2.088 -0.8515  0.3370  0.0283
 1603SOL     hw 6410   3.347   1.273   2.045  1.2248  0.3965 -2.5418
 1603SOL     hw 6411   3.482   1.341   2.053  0.8206  1.0291  3.7326
 1603SOL     vw 6412   3.399   1.335   2.078 -0.3569  0.4361  0.1780
 1604SOL     ow 6413   2.867   4.998   4.279  0.1383 -0.0987  0.3478
 1604SOL     hw 6414   2.952   4.978   4.319  0.5990  1.8546  0.4664
 1604SOL     hw 6415   2.875   5.090   4.252 -2.8315  1.0555  2.8169
 1604SOL     vw 6416   2.879   5.008   4.281 -0.1926  0.3114  0.6895
 1605SOL     ow 6417   6.140   4.225   0.709 -0.2010  0.4539 -0.0136
 1605SOL     hw 6418   6.139   4.176   0.626  0.6071  1.6349 -0.7645
 1605SOL     hw 6419   6.223   4.200   0.750 -1.3590 -1.4337  1.3073
 1605SOL     vw 6420   6.151   4.215   0.703 -0.2472  0.3607  0.0617
 1606SOL     ow 6421   4.637   1.143   5.678  0.6264  0.2894  0.7259
 1606SOL     hw 6422   4.683   1.102   5.752 -0.3634  0.5404  1.5109
 1606SOL     hw 6423   4.617   1.231   5.709 -0.2629  0.2252  0.3613
 1606SOL     vw 6424   4.641   1.149   5.692  0.3788  0.3141  0.7813
 1607SOL     ow 6425   0.196   5.095   6.761 -0.0218 -0.1718 -0.0442
 1607SOL     hw 6426   0.218   5.004   6.743  0.8501 -0.2430  1.1866
 1607SOL     hw 6427   0.118   5.090   6.816 -1.3398 -0.0481 -1.8172
 1607SOL     vw 6428   0.189   5.083   6.766 -0.0806 -0.1645 -0.1156
 1608SOL     ow 6429   1.162   0.782   2.551  0.4874  0.3929 -0.5507
 1608SOL     hw 6430   1.240   0.833   2.531 -0.6127  1.5783 -2.0854
 1608SOL     hw 6431   1.190   0.691   2.544  1.8115  0.7983 -0.7417
 1608SOL     vw 6432   1.176   0.777   2.547  0.5170  0.6028 -0.7783
 1609SOL     ow 6433   6.080   4.707   5.490 -0.6104  0.0001  0.5499
 1609SOL     hw 6434   6.133   4.716   5.411 -0.8109 -1.3461  0.2392
 1609SOL     hw 6435   6.141   4.673   5.556 -1.2143 -2.4499 -0.0558
 1609SOL     vw 6436   6.095   4.704   5.488 -0.7169 -0.5007  0.4289
 1610SOL     ow 6437   7.189   0.699   1.979 -1.0043 -0.4212  0.5746
 1610SOL     hw 6438   7.207   0.756   1.905 -2.0442 -1.8191 -0.8330
 1610SOL     hw 6439   7.249   0.728   2.048  1.6098 -0.4530 -1.5253
 1610SOL     vw 6440   7.199   0.710   1.978 -0.7966 -0.6099  0.1119
 1611SOL     ow 6441   0.014   5.190   4.928  0.3206 -0.3064 -0.0058
 1611SOL     hw 6442  -0.069   5.142   4.931  0.3835 -0.5750 -1.7804
 1611SOL     hw 6443   0.071   5.137   4.872  0.8161  1.1822 -0.9747
 1611SOL     vw 6444   0.011   5.177   4.921  0.3943 -0.1457 -0.3676
 1612SOL     ow 6445   2.071   2.796   0.595  0.3849  0.3745  0.3612
 1612SOL     hw 6446   2.092   2.873   0.542 -0.8209  0.5167  0.0471
 1612SOL     hw 6447   2.051   2.832   0.682  2.3381  0.1445  0.9458
 1612SOL     vw 6448   2.071   2.811   0.599  0.4834  0.3630  0.3969
 1613SOL     ow 6449   1.253   2.574   1.499  0.1711  0.1362  0.3895
 1613SOL     hw 6450   1.276   2.596   1.589  1.7004  1.1890 -0.1966
 1613SOL     hw 6451   1.313   2.503   1.476 -2.2442 -2.2889  1.0864
 1613SOL     vw 6452   1.264   2.568   1.507  0.0541 -0.0449  0.4041
 1614SOL     ow 6453   5.032   3.428   0.771  0.1703  0.3034 -0.5474
 1614SOL     hw 6454   5.076   3.344   0.758  0.9885  0.8659 -1.6508
 1614SOL     hw 6455   4.942   3.412   0.744  0.3519 -0.2016 -0.8843
 1614SOL     vw 6456   5.026   3.415   0.766  0.3023  0.3109 -0.7374
 1615SOL     ow 6457   3.232   5.260   5.648  0.1287  0.5845  0.2902
 1615SOL     hw 6458   3.149   5.212   5.642  1.5853 -2.1171  0.7576
 1615SOL     hw 6459   3.269   5.234   5.732  1.5493  1.6293  0.0110
 1615SOL     vw 6460   3.226   5.250   5.658  0.5083  0.3662  0.3150
 1616SOL     ow 6461   6.319   6.978   2.904  0.0407 -0.1302  0.2222
 1616SOL     hw 6462   6.291   7.021   2.823  0.9106 -2.6200 -1.5224
 1616SOL     hw 6463   6.305   6.885   2.889  0.2088 -0.7043  2.9969
 1616SOL     vw 6464   6.314   6.972   2.891  0.1776 -0.5343  0.3581
 1617SOL     ow 6465   1.322   0.878   0.894 -0.0995  0.0858 -0.8736
 1617SOL     hw 6466   1.292   0.885   0.984  1.5777 -1.0642 -0.1984
 1617SOL     hw 6467   1.376   0.956   0.881 -0.4001  0.2889 -0.9234
 1617SOL     vw 6468   1.325   0.890   0.904  0.0821 -0.0391 -0.7911
 1618SOL     ow 6469   2.112   6.261   5.726  0.4537 -0.0310 -0.1140
 1618SOL     hw 6470   2.026   6.218   5.734 -1.1913  2.9861 -0.2327
 1618SOL     hw 6471   2.134   6.252   5.634  0.4046 -1.0502 -0.0359
 1618SOL     vw 6472   2.103   6.254   5.715  0.2303  0.2322 -0.1194
 1619SOL     ow 6473   3.396   6.281   5.181 -0.1336 -0.2131  0.4084
 1619SOL     hw 6474   3.361   6.366   5.206  0.0835  0.7248 -2.2521
 1619SOL     hw 6475   3.489   6.285   5.204 -0.0096  0.4787 -0.2102
 1619SOL     vw 6476   3.404   6.293   5.187 -0.0887  0.0019 -0.0241
 1620SOL     ow 6477   3.602   1.606   1.718  0.4240  0.2376  0.1892
 1620SOL     hw 6478   3.565   1.527   1.678 -0.3085 -0.0393  1.3916
 1620SOL     hw 6479   3.549   1.678   1.683  1.2312  0.2668 -1.0825
 1620SOL     vw 6480   3.590   1.605   1.708  0.4340  0.2049  0.1801
 1621SOL     ow 6481   5.563   6.430   6.469  0.2094 -0.4769 -0.2959
 1621SOL     hw 6482   5.510   6.358   6.434  1.3650 -1.0175 -0.9915
 1621SOL     hw 6483   5.584   6.484   6.393 -0.2872  0.3866  0.1567
 1621SOL     vw 6484   5.558   6.428   6.454  0.2964 -0.4342 -0.3281
 1622SOL     ow 6485   1.520   2.743   7.043  0.1236 -0.9875 -0.8178
 1622SOL     hw 6486   1.427   2.766   7.039  0.8218  2.2081 -1.4554
 1622SOL     hw 6487   1.528   2.690   7.122 -2.6217 -3.8443 -2.2271
 1622SOL     vw 6488   1.509   2.739   7.053 -0.1465 -0.9428 -1.0879
 1623SOL     ow 6489   1.765   4.927   3.587  0.3116  0.8270  0.1844
 1623SOL     hw 6490   1.752   4.919   3.682 -0.1155  0.3886  0.0938
 1623SOL     hw 6491   1.694   4.984   3.558 -1.1108 -1.0556 -0.2206
 1623SOL     vw 6492   1.754   4.933   3.596  0.0676  0.5205  0.1190
 1624SOL     ow 6493   2.292   1.674   2.631  0.1370 -0.1630  0.5750
 1624SOL     hw 6494   2.376   1.704   2.666  0.4148 -2.1518  1.8206
 1624SOL     hw 6495   2.234   1.674   2.707 -1.1066  1.3854 -0.3172
 1624SOL     vw 6496   2.296   1.678   2.645  0.0095 -0.2211  0.6216
 1625SOL     ow 6497   2.268   0.287   1.248  0.3726 -0.2345  0.2808
 1625SOL     hw 6498   2.200   0.259   1.309  1.6533 -2.7870  0.6542
 1625SOL     hw 6499   2.351   0.262   1.290  1.3276 -1.5313 -2.1720
 1625SOL     vw 6500   2.270   0.280   1.262  0.6676 -0.7423  0.0065
 1626SOL     ow 6501   5.141   5.962   4.640 -0.0041  0.0406 -0.3197
 1626SOL     hw 6502   5.173   5.888   4.692 -1.8599 -1.9590 -1.8307
 1626SOL     hw 6503   5.183   5.952   4.555 -0.0409  0.9384 -0.4494
 1626SOL     vw 6504   5.151   5.951   4.636 -0.2542 -0.1049 -0.5362
 1627SOL     ow 6505   5.841   0.259   2.190  0.5725  0.2724  0.3178
 1627SOL     hw 6506   5.772   0.324   2.202  1.0702  0.7394  0.6416
 1627SOL     hw 6507   5.874   0.242   2.278 -1.8117 -2.9483  0.7842
 1627SOL     vw 6508   5.836   0.265   2.203  0.3235 -0.0909  0.4220
 1628SOL     ow 6509   1.491   1.841   0.558  0.1622  0.6114  0.0605
 1628SOL     hw 6510   1.562   1.824   0.497 -0.4843 -1.3357 -0.2213
 1628SOL     hw 6511   1.427   1.891   0.507  1.0771  1.9721  0.1858
 1628SOL     vw 6512   1.492   1.845   0.543  0.1976  0.5341  0.0398
 1629SOL     ow 6513   7.123   2.153   1.945 -0.0838  0.0002 -1.0534
 1629SOL     hw 6514   7.214   2.134   1.969  1.0912  0.0416 -4.9076
 1629SOL     hw 6515   7.086   2.193   2.024  2.1509 -3.0004  1.8508
 1629SOL     vw 6516   7.130   2.156   1.959  0.3662 -0.3903 -1.1788
 1630SOL     ow 6517   1.110   5.524   0.290  0.2761 -0.3010 -0.4000
 1630SOL     hw 6518   1.038   5.485   0.241  1.0989  0.0415 -1.9514
 1630SOL     hw 6519   1.176   5.544   0.224  1.2383  0.6622  0.7941
 1630SOL     vw 6520   1.109   5.521   0.275  0.5116 -0.1287 -0.4471
 1631SOL     ow 6521   2.663   2.025   1.400  0.5974 -0.1192  0.5636
 1631SOL     hw 6522   2.696   2.114   1.416  3.1955 -0.3624 -2.4249
 1631SOL     hw 6523   2.630   2.028   1.310  0.8316 -2.1962  0.3746
 1631SOL     vw 6524   2.663   2.037   1.391  0.9711 -0.4253  0.1443
 1632SOL     ow 6525   5.771   3.959   4.736 -0.1919  0.9133  0.1913
 1632SOL     hw 6526   5.840   3.931   4.796 -0.1104  2.3623  0.8041
 1632SOL     hw 6527   5.797   3.923   4.651 -0.5542 -1.5782  1.0415
 1632SOL     vw 6528   5.784   3.951   4.733 -0.2291  0.7757  0.3841
 1633SOL     ow 6529   2.180   4.709   2.652  0.1462  0.1859 -0.0862
 1633SOL     hw 6530   2.164   4.638   2.714  0.6627  0.4554  0.3535
 1633SOL     hw 6531   2.254   4.679   2.599  0.2211  0.2998 -0.0466
 1633SOL     vw 6532   2.187   4.696   2.653  0.2242  0.2365 -0.0230
 1634SOL     ow 6533   4.261   7.110   2.445 -0.0997  0.5398 -0.4196
 1634SOL     hw 6534   4.313   7.115   2.526  0.3114 -1.4125 -0.5340
 1634SOL     hw 6535   4.251   7.017   2.428 -0.4104  0.9005 -2.4933
 1634SOL     vw 6536   4.267   7.099   2.454 -0.0865  0.3300 -0.7082
 1635SOL     ow 6537   2.123   6.241   0.041 -0.5707  0.7463 -0.1503
 1635SOL     hw 6538   2.195   6.265   0.100  0.5885 -0.3384 -1.0891
 1635SOL     hw 6539   2.078   6.170   0.086  2.0630 -2.1171 -1.7196
 1635SOL     vw 6540   2.127   6.235   0.055 -0.0703  0.2255 -0.4811
 1636SOL     ow 6541   2.330   4.977   2.702  0.7566 -0.2266  0.2896
 1636SOL     hw 6542   2.389   4.912   2.740  0.6679 -0.3275  0.2542
 1636SOL     hw 6543   2.356   5.060   2.742 -0.8974 -0.6441  2.4113
 1636SOL     vw 6544   2.341   4.979   2.712  0.5267 -0.2952  0.5648
 1637SOL     ow 6545   3.619   1.130   2.699  0.1764 -0.4567 -0.4335
 1637SOL     hw 6546   3.611   1.123   2.604 -1.2190 -0.8587 -0.3136
 1637SOL     hw 6547   3.709   1.158   2.714 -0.1027  1.4439 -1.9600
 1637SOL     vw 6548   3.630   1.133   2.688 -0.0445 -0.2590 -0.6192
 1638SOL     ow 6549   0.442   3.632   3.329  0.6004  0.5071 -0.4943
 1638SOL     hw 6550   0.366   3.598   3.375 -0.0706  0.3237 -1.6879
 1638SOL     hw 6551   0.408   3.705   3.277  1.6076  1.6377  0.3814
 1638SOL     vw 6552   0.428   3.637   3.328  0.6448  0.6320 -0.5363
 1639SOL     ow 6553   4.525   0.033   6.266  0.4335 -0.2638 -0.0126
 1639SOL     hw 6554   4.558   0.103   6.322 -0.5438  0.6427 -0.5269
 1639SOL     hw 6555   4.482  -0.028   6.326 -0.1350  0.4197  0.2910
 1639SOL     vw 6556   4.524   0.035   6.281  0.2296 -0.0540 -0.0405
 1640SOL     ow 6557   3.460   6.645   3.650 -0.3787 -0.2863  0.6991
 1640SOL     hw 6558   3.463   6.648   3.745  0.7235 -0.0778  0.6665
 1640SOL     hw 6559   3.372   6.674   3.628 -0.5072  0.0720  1.6354
 1640SOL     vw 6560   3.449   6.649   3.660 -0.2503 -0.2110  0.8184
 1641SOL     ow 6561   2.189   6.229   5.452  0.0054 -0.0730  0.3165
 1641SOL     hw 6562   2.165   6.157   5.395 -1.5957 -0.7974  1.8142
 1641SOL     hw 6563   2.268   6.266   5.413 -0.5575 -1.0460 -1.8605
 1641SOL     vw 6564   2.196   6.225   5.440 -0.2801 -0.2971  0.2267
 1642SOL     ow 6565   6.029   5.275   4.352  0.1120 -0.7546  0.3537
 1642SOL     hw 6566   6.070   5.280   4.266  3.0497 -3.1243  1.4211
 1642SOL     hw 6567   6.101   5.290   4.413 -2.1411  2.3467  2.5244
 1642SOL     vw 6568   6.044   5.277   4.349  0.2022 -0.6580  0.7811
 1643SOL     ow 6569   0.759   3.062   1.682  0.2516 -0.1712 -0.0887
 1643SOL     hw 6570   0.820   2.996   1.650  0.9894  0.0225  0.8532
 1643SOL     hw 6571   0.742   3.118   1.607  0.9029 -0.4813 -0.4765
 1643SOL     vw 6572   0.765   3.060   1.668  0.4348 -0.1864 -0.0156
 1644SOL     ow 6573   7.145   5.329   5.202 -0.3894 -0.3023 -0.5029
 1644SOL     hw 6574   7.056   5.309   5.231 -1.2385  0.0877 -2.6477
 1644SOL     hw 6575   7.149   5.425   5.200  0.8456 -0.2544  1.6314
 1644SOL     vw 6576   7.134   5.339   5.206 -0.3383 -0.2444 -0.5043
 1645SOL     ow 6577   2.811   3.438   5.943 -0.1630  0.5504 -0.2851
 1645SOL     hw 6578   2.808   3.450   5.848  2.3674 -2.2981 -0.8892
 1645SOL     hw 6579   2.769   3.353   5.958  2.0132 -0.4281  0.6791
 1645SOL     vw 6580   2.805   3.428   5.933  0.4580  0.0455 -0.2377
 1646SOL     ow 6581   4.193   2.637   5.481 -0.7367  0.6424  0.1485
 1646SOL     hw 6582   4.245   2.556   5.481 -1.9242 -0.2694  3.0845
 1646SOL     hw 6583   4.251   2.703   5.519  0.2076  1.2262 -2.1779
 1646SOL     vw 6584   4.207   2.635   5.486 -0.7689  0.5990  0.2286
 1647SOL     ow 6585   2.400   5.377   5.125  0.2406  0.0225 -0.1332
 1647SOL     hw 6586   2.352   5.442   5.176  2.1065  1.0274  0.4035
 1647SOL     hw 6587   2.458   5.428   5.069 -0.9327 -1.0977 -2.5128
 1647SOL     vw 6588   2.401   5.392   5.124  0.3320  0.0072 -0.3762
 1648SOL     ow 6589   3.972   3.088   7.164  0.5355  0.1128  0.9798
 1648SOL     hw 6590   4.049   3.031   7.162  0.8858  0.2980  4.0528
 1648SOL     hw 6591   3.998   3.164   7.113  0.5100 -1.8195 -2.1662
 1648SOL     vw 6592   3.986   3.091   7.157  0.5784 -0.1178  0.9704
 1649SOL     ow 6593   1.920   2.705   0.042 -0.7831 -0.2944  0.8588
 1649SOL     hw 6594   1.950   2.618   0.016  0.8495  0.1158  1.2964
 1649SOL     hw 6595   2.000   2.754   0.058 -1.6666  1.4124  0.2654
 1649SOL     vw 6596   1.934   2.700   0.041 -0.6842 -0.0151  0.8383
 1650SOL     ow 6597   2.809   1.383   6.721 -0.0203 -0.3555  0.0621
 1650SOL     hw 6598   2.886   1.379   6.777  0.0566 -2.7754 -0.1274
 1650SOL     hw 6599   2.769   1.297   6.728 -1.3500  0.0481 -1.7533
 1650SOL     vw 6600   2.814   1.371   6.729 -0.1856 -0.6215 -0.2022
 1651SOL     ow 6601   4.050   6.286   1.826 -0.3537 -0.0830 -0.0729
 1651SOL     hw 6602   4.026   6.331   1.907 -1.2507  0.7912 -0.7996
 1651SOL     hw 6603   4.000   6.205   1.827 -0.3509 -0.0787  0.2579
 1651SOL     vw 6604   4.041   6.281   1.836 -0.4718  0.0327 -0.1252
 1652SOL     ow 6605   0.472   6.061   4.237  0.4672 -0.0329  0.0039
 1652SOL     hw 6606   0.460   6.064   4.142 -1.9112  1.8779  0.2684
 1652SOL     hw 6607   0.405   6.000   4.268  1.4260 -0.8848  0.4997
 1652SOL     vw 6608   0.462   6.053   4.229  0.2799  0.1070  0.1044
 1653SOL     ow 6609   2.552   3.790   1.324 -0.4199  0.6552 -0.0315
 1653SOL     hw 6610   2.484   3.730   1.293  0.8973 -0.3360 -1.1080
 1653SOL     hw 6611   2.543   3.868   1.270 -1.4898  1.0671  0.6967
 1653SOL     vw 6612   2.542   3.792   1.313 -0.3872  0.5788 -0.0775
 1654SOL     ow 6613   4.739   5.148   4.144  0.4991 -0.0648 -0.2060
 1654SOL     hw 6614   4.784   5.213   4.197  1.4570 -0.0896 -0.9463
 1654SOL     hw 6615   4.798   5.134   4.069 -0.1248 -1.0995 -0.5202
 1654SOL     vw 6616   4.753   5.155   4.141  0.5434 -0.2048 -0.3450
 1655SOL     ow 6617   4.693   2.459   4.964  0.7009 -0.3164 -0.8884
 1655SOL     hw 6618   4.710   2.501   4.880 -1.3347  1.6135 -0.4399
 1655SOL     hw 6619   4.692   2.531   5.027 -2.0093 -1.0751  0.0718
 1655SOL     vw 6620   4.695   2.474   4.961  0.0746 -0.1619 -0.7024
 1656SOL     ow 6621   1.305   1.247   3.506 -0.0466  0.2029  0.2393
 1656SOL     hw 6622   1.291   1.261   3.412 -2.6812  1.9522  0.7976
 1656SOL     hw 6623   1.400   1.257   3.517  0.2063  1.0551 -2.0789
 1656SOL     vw 6624   1.316   1.250   3.495 -0.3609  0.5461  0.0070
 1657SOL     ow 6625   1.535   2.743   2.201 -0.3669 -0.1140  0.4143
 1657SOL     hw 6626   1.583   2.670   2.239 -0.0855 -0.3140 -0.3072
 1657SOL     hw 6627   1.489   2.705   2.126 -2.6297 -0.1963  1.7585
 1657SOL     vw 6628   1.535   2.729   2.196 -0.6283 -0.1512  0.4963
 1658SOL     ow 6629   3.007   4.890   4.976 -0.7934  0.0386  0.1926
 1658SOL     hw 6630   3.059   4.811   4.962 -2.4975 -1.0642 -0.3152
 1658SOL     hw 6631   2.932   4.860   5.028 -0.5899  1.7034  1.5312
 1658SOL     vw 6632   3.004   4.875   4.981 -0.9913  0.1128  0.3023
 1659SOL     ow 6633   5.371   0.605   4.936  0.5966 -0.0897  0.1212
 1659SOL     hw 6634   5.417   0.533   4.893 -0.8371 -0.8657 -0.1934
 1659SOL     hw 6635   5.368   0.674   4.870  1.1125 -0.1085  0.0746
 1659SOL     vw 6636   5.376   0.604   4.922  0.4754 -0.1946  0.0737
 1660SOL     ow 6637   5.986   3.610   6.979 -0.0600 -1.0804 -0.2645
 1660SOL     hw 6638   5.981   3.690   6.926 -0.2948 -1.0987 -0.2739
 1660SOL     hw 6639   6.074   3.576   6.964  0.4506 -0.2146  0.6306
 1660SOL     vw 6640   5.997   3.616   6.970 -0.0236 -0.9687 -0.1476
 1661SOL     ow 6641   1.879   0.778   3.032 -0.2539  0.0534 -0.4687
 1661SOL     hw 6642   1.966   0.812   3.053 -0.3738  0.9225 -1.3396
 1661SOL     hw 6643   1.895   0.705   2.973 -0.0406 -0.9554  0.7823
 1661SOL     vw 6644   1.893   0.773   3.027 -0.2416  0.0349 -0.4185
 1662SOL     ow 6645   4.242   1.746   1.445  0.0664 -0.1169 -0.0060
 1662SOL     hw 6646   4.196   1.678   1.396 -0.0420 -1.6509  2.1035
 1662SOL     hw 6647   4.311   1.699   1.492  0.7853  1.4409  0.5743
 1662SOL     vw 6648   4.245   1.730   1.445  0.1469 -0.1137  0.3489
 1663SOL     ow 6649   4.336   0.424   6.099  0.0817 -0.8130 -0.3179
 1663SOL     hw 6650   4.387   0.474   6.162 -1.6381 -2.6860  2.7896
 1663SOL     hw 6651   4.402   0.381   6.044  1.6286  1.2960 -0.2418
 1663SOL     vw 6652   4.352   0.425   6.100  0.0591 -0.7819  0.1023
 1664SOL     ow 6653   3.577   0.429   6.472  0.1757 -0.2442  0.2487
 1664SOL     hw 6654   3.611   0.349   6.431 -0.9760 -1.3895  1.4139
 1664SOL     hw 6655   3.578   0.494   6.402  0.9156 -1.3566 -0.8100
 1664SOL     vw 6656   3.581   0.427   6.457  0.1215 -0.5421  0.2627
 1665SOL     ow 6657   0.563   4.699   0.859  0.1024  0.0909  0.4189
 1665SOL     hw 6658   0.567   4.763   0.788 -0.0452  0.5217  0.7968
 1665SOL     hw 6659   0.586   4.616   0.817 -0.4055  0.2619 -0.2320
 1665SOL     vw 6660   0.566   4.696   0.844  0.0159  0.1700  0.3829
 1666SOL     ow 6661   4.325   1.296   6.876  0.0676  0.0433 -0.5263
 1666SOL     hw 6662   4.308   1.298   6.782 -1.1685  3.5947 -0.3650
 1666SOL     hw 6663   4.318   1.387   6.904  3.5231 -0.3809  2.5349
 1666SOL     vw 6664   4.322   1.308   6.867  0.3603  0.4560 -0.1009
 1667SOL     ow 6665   6.524   2.031   0.846 -0.6821 -0.3950  0.0371
 1667SOL     hw 6666   6.512   2.119   0.811 -0.1765  0.4248  1.8424
 1667SOL     hw 6667   6.436   1.993   0.848 -0.9268  0.1315 -0.5409
 1667SOL     vw 6668   6.511   2.037   0.841 -0.6475 -0.2172  0.1990
 1668SOL     ow 6669   2.054   2.952   0.886  0.0441 -0.5794  0.2596
 1668SOL     hw 6670   2.148   2.946   0.869  0.1721 -2.0709  1.2784
 1668SOL     hw 6671   2.033   2.872   0.934 -2.4095 -2.0745 -2.8947
 1668SOL     vw 6672   2.064   2.940   0.890 -0.2627 -0.9735 -0.0221
 1669SOL     ow 6673   1.085   0.263   7.158 -0.2035 -0.4735  0.3925
 1669SOL     hw 6674   1.082   0.347   7.112 -1.0791 -0.5625  0.2722
 1669SOL     hw 6675   1.033   0.277   7.237 -2.5185 -1.6009 -0.8386
 1669SOL     vw 6676   1.078   0.276   7.163 -0.6245 -0.6340  0.2139
 1670SOL     ow 6677   6.790   2.136   1.563 -0.2901 -0.1282  0.7147
 1670SOL     hw 6678   6.820   2.215   1.516  0.9297  0.1017  1.8197
 1670SOL     hw 6679   6.699   2.126   1.536 -0.5307  1.7567  0.6477
 1670SOL     vw 6680   6.782   2.145   1.553 -0.1612  0.1508  0.8517
 1671SOL     ow 6681   6.620   6.536   6.536  0.4889 -0.8960 -0.4208
 1671SOL     hw 6682   6.650   6.445   6.532  2.3467 -0.2831 -2.7157
 1671SOL     hw 6683   6.690   6.582   6.582  0.3378 -0.3970 -0.6801
 1671SOL     vw 6684   6.633   6.530   6.541  0.7138 -0.7491 -0.7577
 1672SOL     ow 6685   2.335   0.845   4.469 -0.1397 -0.1029 -0.3353
 1672SOL     hw 6686   2.296   0.778   4.413  0.2690 -0.2374 -0.4607
 1672SOL     hw 6687   2.382   0.903   4.408  0.4881 -0.3742 -0.1195
 1672SOL     vw 6688   2.336   0.844   4.453 -0.0029 -0.1565 -0.3233
 1673SOL     ow 6689   1.806   4.398   4.540 -0.2312 -0.2629 -0.7113
 1673SOL     hw 6690   1.805   4.396   4.444  0.7758  0.0214 -0.7392
 1673SOL     hw 6691   1.898   4.406   4.563 -0.4678 -0.2448  0.2884
 1673SOL     vw 6692   1.818   4.399   4.530 -0.1296 -0.2227 -0.5832
 1674SOL     ow 6693   7.149   5.358   0.972  0.3760 -0.0313  0.6332
 1674SOL     hw 6694   7.137   5.354   0.878 -1.1401 -0.0518  0.7990
 1674SOL     hw 6695   7.181   5.271   0.997 -1.6207 -0.8818  0.4097
 1674SOL     vw 6696   7.151   5.346   0.963 -0.0875 -0.1459  0.6256
 1675SOL     ow 6697   4.180   5.745   4.361 -0.0586  0.3486 -0.3485
 1675SOL     hw 6698   4.235   5.722   4.436 -1.3399 -1.8627  0.0142
 1675SOL     hw 6699   4.092   5.715   4.386 -0.5484 -0.3410 -2.6881
 1675SOL     vw 6700   4.175   5.738   4.374 -0.2923 -0.0341 -0.6092
 1676SOL     ow 6701   4.206   0.525   1.465  0.4423  0.0541  0.4961
 1676SOL     hw 6702   4.125   0.561   1.428  0.6849  0.3898  0.2962
 1676SOL     hw 6703   4.254   0.600   1.498  0.5666 -0.1709  0.8362
 1676SOL     vw 6704   4.201   0.539   1.465  0.4907  0.0687  0.5146
 1677SOL     ow 6705   1.868   0.894   5.783  0.0409  0.0193 -0.1346
 1677SOL     hw 6706   1.939   0.872   5.842  0.9504  0.1333 -1.1560
 1677SOL     hw 6707   1.831   0.975   5.819  0.3692 -0.0828  0.4406
 1677SOL     vw 6708   1.872   0.902   5.795  0.2043  0.0209 -0.1934
 1678SOL     ow 6709   3.006   5.699   6.079 -0.4657  0.1176  0.0381
 1678SOL     hw 6710   3.063   5.648   6.138  1.3159 -0.0822 -1.7536
 1678SOL     hw 6711   3.011   5.788   6.113  0.7258  0.0469  0.1089
 1678SOL     vw 6712   3.014   5.704   6.092 -0.0734  0.0820 -0.1891
 1679SOL     ow 6713   3.367   0.654   0.912  0.6891 -0.2765  0.3710
 1679SOL     hw 6714   3.333   0.579   0.862 -1.0677 -0.4420  1.6934
 1679SOL     hw 6715   3.291   0.686   0.960  1.9261  0.9465  1.5910
 1679SOL     vw 6716   3.352   0.648   0.912  0.6205 -0.1370  0.7065
 1680SOL     ow 6717   6.979   6.942   3.503  0.1850 -0.2111  0.4610
 1680SOL     hw 6718   6.948   7.015   3.450  0.1543 -0.5830 -0.0422
 1680SOL     hw 6719   6.990   6.870   3.441 -1.6573 -1.2277  1.2160
 1680SOL     vw 6720   6.976   6.942   3.488 -0.0618 -0.3943  0.4944
 1681SOL     ow 6721   0.568   1.928   0.343 -0.8297  0.5328 -0.2231
 1681SOL     hw 6722   0.560   1.873   0.265 -0.5791 -1.5164  1.1063
 1681SOL     hw 6723   0.493   1.903   0.398  0.4025 -0.0029  1.2819
 1681SOL     vw 6724   0.557   1.917   0.340 -0.6341  0.1917  0.1509
 1682SOL     ow 6725   0.113   5.167   3.361  0.5681 -0.1614 -0.1627
 1682SOL     hw 6726   0.111   5.206   3.448  2.0911 -0.9415  0.2505
 1682SOL     hw 6727   0.159   5.231   3.307  1.1011 -0.4011  0.0018
 1682SOL     vw 6728   0.119   5.181   3.365  0.8393 -0.2959 -0.0865
 1683SOL     ow 6729   4.548   4.789   3.704  0.5067  0.3175  0.2936
 1683SOL     hw 6730   4.503   4.861   3.662 -0.2247 -0.2234  0.1256
 1683SOL     hw 6731   4.497   4.772   3.784  1.5402  0.9594  1.1115
 1683SOL     vw 6732   4.535   4.796   3.709  0.5465  0.3307  0.3794
 1684SOL     ow 6733   6.707   0.266   4.500  0.0490  0.0574  0.1704
 1684SOL     hw 6734   6.690   0.360   4.490 -0.4945 -0.2106 -1.7216
 1684SOL     hw 6735   6.766   0.261   4.575 -2.2409  1.6516  2.2405
 1684SOL     vw 6736   6.712   0.278   4.508 -0.3247  0.2324  0.1941
 1685SOL     ow 6737   1.764   6.344   5.099  0.2644  0.1405  0.2711
 1685SOL     hw 6738   1.772   6.437   5.079  0.4294  0.5406  2.0998
 1685SOL     hw 6739   1.740   6.340   5.191 -1.9729 -1.5904 -0.2943
 1685SOL     vw 6740   1.762   6.356   5.108 -0.0090 -0.0350  0.4377
 1686SOL     ow 6741   3.515   1.685   6.319  0.1798 -0.3998  0.3884
 1686SOL     hw 6742   3.471   1.763   6.351  1.3859 -0.1366  1.4791
 1686SOL     hw 6743   3.444   1.626   6.293 -0.7912  1.7521 -2.3626
 1686SOL     vw 6744   3.500   1.688   6.320  0.2109 -0.0812  0.1693
 1687SOL     ow 6745   6.098   2.121   6.074 -0.5317 -0.0828  0.1721
 1687SOL     hw 6746   6.017   2.171   6.070 -0.1385  0.5305 -0.2257
 1687SOL     hw 6747   6.069   2.030   6.080 -1.2505  0.0995 -0.3064
 1687SOL     vw 6748   6.083   2.115   6.074 -0.5746  0.0223  0.0563
 1688SOL     ow 6749   3.814   2.698   2.103  0.0333  0.4324 -0.3664
 1688SOL     hw 6750   3.829   2.683   2.010  0.8980 -0.5982 -0.0812
 1688SOL     hw 6751   3.845   2.788   2.117  2.2852 -0.2348 -0.6235
 1688SOL     vw 6752   3.820   2.708   2.093  0.4444  0.2084 -0.3626
 1689SOL     ow 6753   4.770   0.239   0.328 -0.3197  0.1807  0.4031
 1689SOL     hw 6754   4.752   0.220   0.420  1.8453 -1.9143  0.4813
 1689SOL     hw 6755   4.692   0.287   0.298 -0.5367  2.1374  3.6066
 1689SOL     vw 6756   4.757   0.243   0.336 -0.0629  0.1624  0.8361
 1690SOL     ow 6757   2.711   0.751   5.592 -0.1271  0.8414  0.6159
 1690SOL     hw 6758   2.715   0.779   5.500 -0.0535  1.1834  0.7199
 1690SOL     hw 6759   2.638   0.802   5.629 -1.6251 -0.9191  0.2109
 1690SOL     vw 6760   2.702   0.762   5.585 -0.3148  0.6542  0.5760
 1691SOL     ow 6761   3.587   1.421   3.472  0.3122  0.1397 -0.1688
 1691SOL     hw 6762   3.607   1.435   3.379  0.6187  1.0118  0.0215
 1691SOL     hw 6763   3.568   1.508   3.506 -2.5670 -0.4462 -0.0285
 1691SOL     vw 6764   3.587   1.434   3.464 -0.0274  0.1774 -0.1253
 1692SOL     ow 6765   1.569   3.653   3.079 -0.0226  0.4602  0.1211
 1692SOL     hw 6766   1.553   3.627   2.988 -0.8191  2.3735 -0.3546
 1692SOL     hw 6767   1.531   3.583   3.131 -0.2396 -0.3151 -1.0434
 1692SOL     vw 6768   1.562   3.641   3.074 -0.1563  0.6104 -0.0954
 1693SOL     ow 6769   5.808   2.114   1.310 -0.6913 -0.6201  0.2919
 1693SOL     hw 6770   5.754   2.183   1.348 -1.6875 -0.1902 -1.7760
 1693SOL     hw 6771   5.867   2.160   1.250 -2.3629 -1.6177 -2.2373
 1693SOL     vw 6772   5.809   2.129   1.307 -1.0431 -0.6949 -0.3146
 1694SOL     ow 6773   4.191   6.080   6.790  0.6678 -0.4026 -0.6334
 1694SOL     hw 6774   4.241   6.138   6.848 -0.1942  0.5592 -0.8240
 1694SOL     hw 6775   4.206   6.114   6.702  0.2751 -0.5576 -0.7656
 1694SOL     vw 6776   4.199   6.092   6.786  0.5021 -0.2959 -0.6757
 1695SOL     ow 6777   6.034   0.550   4.796 -0.5135 -0.3383 -0.2050
 1695SOL     hw 6778   6.086   0.508   4.728 -0.5624  0.7124 -0.9105
 1695SOL     hw 6779   5.950   0.503   4.795 -0.9148  0.3609 -1.6395
 1695SOL     vw 6780   6.030   0.538   4.787 -0.5729 -0.1074 -0.4873
 1696SOL     ow 6781   6.693   6.083   1.363  0.8270 -0.2599  0.3605
 1696SOL     hw 6782   6.654   6.020   1.424 -0.4540 -0.5367 -0.6749
 1696SOL     hw 6783   6.744   6.030   1.303  0.1204 -0.2753 -0.2380
 1696SOL     vw 6784   6.694   6.068   1.363  0.5648 -0.2985  0.1450
 1697SOL     ow 6785   2.138   5.226   0.567  0.3894 -0.1961  0.1356
 1697SOL     hw 6786   2.189   5.200   0.643  1.4126 -0.4449 -0.6220
 1697SOL     hw 6787   2.109   5.143   0.528 -1.0523 -0.0525  0.8472
 1697SOL     vw 6788   2.141   5.211   0.572  0.3341 -0.2100  0.1296
 1698SOL     ow 6789   4.244   2.415   3.964 -0.0386  0.4265  0.4085
 1698SOL     hw 6790   4.254   2.385   3.874  1.0155  2.6673 -0.3061
 1698SOL     hw 6791   4.198   2.344   4.009 -0.0018 -1.0203 -1.7198
 1698SOL     vw 6792   4.239   2.402   3.958  0.1051  0.5313  0.0334
 1699SOL     ow 6793   3.819   2.278   3.142 -0.0335  0.1781 -0.0461
 1699SOL     hw 6794   3.896   2.313   3.097 -0.0338  1.0240  0.5831
 1699SOL     hw 6795   3.826   2.312   3.231  0.5560 -2.3328  0.9761
 1699SOL     vw 6796   3.830   2.287   3.148  0.0442 -0.0416  0.1717
 1700SOL     ow 6797   5.245   5.279   5.053  0.1087  0.1450 -0.0224
 1700SOL     hw 6798   5.269   5.195   5.016 -3.3060  0.2998 -3.1245
 1700SOL     hw 6799   5.172   5.310   4.999 -0.5648  3.8928  2.5983
 1700SOL     vw 6800   5.238   5.272   5.041 -0.4306  0.6599 -0.0861
 1701SOL     ow 6801   0.286   3.908   4.806  0.3082  0.1377 -0.7689
 1701SOL     hw 6802   0.373   3.946   4.795  0.3714 -0.1954 -1.4675
 1701SOL     hw 6803   0.289   3.825   4.758  0.0571 -0.5919  0.4194
 1701SOL     vw 6804   0.298   3.902   4.798  0.2834 -0.0025 -0.7041
 1702SOL     ow 6805   3.300   0.441   1.758  0.5011  0.5403  0.1273
 1702SOL     hw 6806   3.219   0.391   1.756  1.9431 -1.8866 -1.0826
 1702SOL     hw 6807   3.296   0.496   1.680  1.6151 -2.4556 -2.2353
 1702SOL     vw 6808   3.289   0.442   1.748  0.8383 -0.1752 -0.3440
 1703SOL     ow 6809   3.345   7.048   6.650 -0.1380  0.5462  0.2918
 1703SOL     hw 6810   3.400   7.032   6.573 -0.2025  2.0978 -0.1096
 1703SOL     hw 6811   3.405   7.086   6.714 -0.6688  2.1626 -0.1141
 1703SOL     vw 6812   3.360   7.051   6.648 -0.2166  0.9642  0.1855
 1704SOL     ow 6813   6.653   6.378   0.452 -0.9950  0.0254 -0.0644
 1704SOL     hw 6814   6.747   6.366   0.470 -1.3582  0.2827  2.2486
 1704SOL     hw 6815   6.624   6.292   0.422  0.6078  0.7583 -4.4976
 1704SOL     vw 6816   6.662   6.365   0.451 -0.8314  0.1557 -0.3441
 1705SOL     ow 6817   4.154   0.628   0.631  0.5886 -0.5981  0.0352
 1705SOL     hw 6818   4.139   0.559   0.696  0.8080  0.6061  1.4157
 1705SOL     hw 6819   4.101   0.602   0.555  1.2189 -2.6236  0.2397
 1705SOL     vw 6820   4.145   0.615   0.629  0.7010 -0.7064  0.2443
 1706SOL     ow 6821   3.136   0.603   2.930 -0.1842 -0.7175  0.5368
 1706SOL     hw 6822   3.060   0.555   2.961 -1.0800 -0.2872 -0.8864
 1706SOL     hw 6823   3.210   0.565   2.978 -0.9690 -2.8661  0.1621
 1706SOL     vw 6824   3.136   0.591   2.940 -0.4058 -0.9442  0.2996
 1707SOL     ow 6825   0.192   7.033   1.107 -0.3686  0.0487 -0.3038
 1707SOL     hw 6826   0.260   6.969   1.127  0.7971  0.4037 -2.7722
 1707SOL     hw 6827   0.151   7.001   1.027  0.5012  2.5158 -1.8463
 1707SOL     vw 6828   0.195   7.020   1.099 -0.1001  0.4213 -0.8329
 1708SOL     ow 6829   1.206   2.702   0.619 -0.1111 -0.8283  0.2823
 1708SOL     hw 6830   1.289   2.664   0.647  0.1265  0.2378  1.0905
 1708SOL     hw 6831   1.201   2.785   0.666 -0.6249  0.1362 -1.3848
 1708SOL     vw 6832   1.216   2.708   0.628 -0.1476 -0.5603  0.1690
 1709SOL     ow 6833   1.987   2.941   1.668  0.2299  0.3314 -0.4739
 1709SOL     hw 6834   2.037   2.861   1.685  0.8530  0.7978 -0.0664
 1709SOL     hw 6835   1.994   2.991   1.749 -1.5313  0.0900 -0.1173
 1709SOL     vw 6836   1.994   2.937   1.681  0.0797  0.3610 -0.3731
 1710SOL     ow 6837   4.696   2.639   1.095 -0.4764  1.1834 -0.0464
 1710SOL     hw 6838   4.770   2.599   1.049 -0.0485  0.5959  1.1080
 1710SOL     hw 6839   4.655   2.696   1.030 -0.5450 -0.4075 -1.4719
 1710SOL     vw 6840   4.701   2.641   1.080 -0.4289  0.8960 -0.0821
 1711SOL     ow 6841   4.899   1.521   4.946 -0.2903  0.2962 -0.0511
 1711SOL     hw 6842   4.968   1.581   4.974 -1.0607  0.2249  2.1773
 1711SOL     hw 6843   4.858   1.565   4.871  1.3175  0.9323 -0.5882
 1711SOL     vw 6844   4.903   1.535   4.939 -0.1800  0.3707  0.1719
 1712SOL     ow 6845   3.602   6.641   3.339  0.1299 -0.2445  0.5335
 1712SOL     hw 6846   3.556   6.573   3.289 -0.2564 -1.8393  2.8797
 1712SOL     hw 6847   3.628   6.705   3.274  0.4186 -2.5848 -1.8370
 1712SOL     vw 6848   3.600   6.640   3.324  0.1171 -0.7637  0.5302
 1713SOL     ow 6849   3.128   5.813   4.074  0.0140  0.3065 -0.4562
 1713SOL     hw 6850   3.032   5.809   4.071  0.0069 -3.6777  0.2021
 1713SOL     hw 6851   3.152   5.767   4.154  2.5092 -0.9368 -1.7997
 1713SOL     vw 6852   3.119   5.806   4.084  0.3421 -0.3834 -0.5465
 1714SOL     ow 6853   2.038   0.845   2.070  0.0993 -0.1678  0.0680
 1714SOL     hw 6854   2.054   0.831   1.977  1.5475  2.6799 -0.2204
 1714SOL     hw 6855   2.125   0.858   2.108 -0.6150  2.0466  1.1330
 1714SOL     vw 6856   2.052   0.845   2.062  0.1962  0.5001  0.1705
 1715SOL     ow 6857   1.049   6.513   5.078 -0.0270 -0.2845 -0.0333
 1715SOL     hw 6858   1.106   6.544   5.148  0.0395 -0.7043  0.1037
 1715SOL     hw 6859   0.969   6.484   5.122 -0.3307  0.2507 -0.2187
 1715SOL     vw 6860   1.046   6.513   5.093 -0.0584 -0.2689 -0.0401
 1716SOL     ow 6861   5.734   7.091   5.494  0.6093  0.4946 -0.8144
 1716SOL     hw 6862   5.679   7.164   5.463  1.3919  1.1452 -0.7009
 1716SOL     hw 6863   5.682   7.050   5.563 -0.5384 -0.0697 -1.9676
 1716SOL     vw 6864   5.720   7.096   5.499  0.5612  0.5057 -0.9515
 1717SOL     ow 6865   4.213   2.454   4.524 -0.6310 -0.6163 -0.1737
 1717SOL     hw 6866   4.204   2.469   4.618 -1.4156 -0.7632 -0.2208
 1717SOL     hw 6867   4.220   2.542   4.486 -1.0778 -0.5291 -0.0516
 1717SOL     vw 6868   4.213   2.468   4.531 -0.7935 -0.6242 -0.1636
 1718SOL     ow 6869   5.784   0.613   0.468  0.2143  0.1191  0.9623
 1718SOL     hw 6870   5.820   0.697   0.496 -0.3916  0.8599 -0.4076
 1718SOL     hw 6871   5.846   0.580   0.403 -0.2200  0.1447  0.5294
 1718SOL     vw 6872   5.797   0.620   0.463  0.0768  0.2203  0.7244
 1719SOL     ow 6873   7.151   2.303   6.113  0.4380 -0.0244 -0.2617
 1719SOL     hw 6874   7.073   2.295   6.168  0.9629 -1.1243  0.3720
 1719SOL     hw 6875   7.175   2.212   6.093  1.0773  0.3305 -1.1290
 1719SOL     vw 6876   7.144   2.290   6.118  0.5915 -0.1227 -0.2925
 1720SOL     ow 6877   3.040   1.109   2.787  0.9746 -0.5937 -1.0655
 1720SOL     hw 6878   2.990   1.045   2.736  0.9342 -0.4040 -1.2639
 1720SOL     hw 6879   3.061   1.179   2.725  0.9895 -0.3963 -0.8407
 1720SOL     vw 6880   3.036   1.110   2.772  0.9712 -0.5426 -1.0620
 1721SOL     ow 6881   4.713   5.712   0.939 -0.1945  0.5153  0.4886
 1721SOL     hw 6882   4.786   5.655   0.916  0.1103  1.6222 -1.5783
 1721SOL     hw 6883   4.658   5.713   0.860 -2.0125  0.3902  1.6870
 1721SOL     vw 6884   4.715   5.705   0.925 -0.3939  0.6447  0.3740
 1722SOL     ow 6885   1.908   2.660   0.435 -0.4371  0.4222 -0.1477
 1722SOL     hw 6886   1.968   2.714   0.487 -1.2024  2.0486 -0.8859
 1722SOL     hw 6887   1.856   2.612   0.499 -1.1250  2.1221  0.6010
 1722SOL     vw 6888   1.909   2.661   0.450 -0.6288  0.8609 -0.1463
 1723SOL     ow 6889   2.007   3.957   7.165 -0.3277  0.1289 -0.1231
 1723SOL     hw 6890   2.102   3.968   7.170 -0.4217  1.1771 -0.5182
 1723SOL     hw 6891   1.978   3.955   7.256  0.0526 -0.0758 -0.0039
 1723SOL     vw 6892   2.016   3.958   7.177 -0.2899  0.2401 -0.1595
 1724SOL     ow 6893   4.730   3.468   2.076  0.0937 -0.2056 -0.2504
 1724SOL     hw 6894   4.677   3.416   2.136 -0.4905  0.2045 -0.4065
 1724SOL     hw 6895   4.776   3.531   2.133  0.5773 -0.6956 -0.0934
 1724SOL     vw 6896   4.729   3.470   2.092  0.0803 -0.2161 -0.2503
 1725SOL     ow 6897   0.520   1.310   1.605  0.4102 -0.0123 -0.3833
 1725SOL     hw 6898   0.611   1.337   1.592  0.6196 -0.4180  0.2113
 1725SOL     hw 6899   0.481   1.315   1.517  0.1907  3.0033 -0.2333
 1725SOL     vw 6900   0.526   1.314   1.592  0.4088  0.3321 -0.2851
 1726SOL     ow 6901   0.118   6.691   4.378 -1.2119 -0.4523  0.0827
 1726SOL     hw 6902   0.164   6.741   4.311 -1.6679 -0.1123  0.0206
 1726SOL     hw 6903   0.137   6.738   4.460 -1.8098 -0.0448 -0.0031
 1726SOL     vw 6904   0.126   6.704   4.380 -1.3510 -0.3536  0.0632
 1727SOL     ow 6905   4.465   6.631   6.956  0.4263  0.0687 -0.3770
 1727SOL     hw 6906   4.494   6.634   7.047  4.1700 -0.8748 -1.3638
 1727SOL     hw 6907   4.427   6.543   6.945  0.1036  0.1337  0.1914
 1727SOL     vw 6908   4.464   6.620   6.966  0.8776 -0.0472 -0.4323
 1728SOL     ow 6909   0.854   5.660   4.134 -0.1222  0.4536 -0.2122
 1728SOL     hw 6910   0.890   5.649   4.046  0.5383  1.1442 -0.0369
 1728SOL     hw 6911   0.902   5.734   4.171  2.2946 -2.0320  2.0808
 1728SOL     vw 6912   0.865   5.668   4.128  0.2838  0.2170  0.1135
 1729SOL     ow 6913   0.042   5.184   0.309  0.2457  0.6186 -0.3560
 1729SOL     hw 6914  -0.054   5.185   0.313  0.2772  1.3659  2.6809
 1729SOL     hw 6915   0.068   5.272   0.337  1.7651 -0.4585  1.9204
 1729SOL     vw 6916   0.033   5.196   0.314  0.4503  0.5748  0.3450
 1730SOL     ow 6917   1.928   0.626   2.231 -0.0007 -0.3769  0.0083
 1730SOL     hw 6918   1.942   0.708   2.184 -1.4583  0.6544  1.2996
 1730SOL     hw 6919   1.833   0.621   2.244  0.0839 -2.1275  0.2271
 1730SOL     vw 6920   1.917   0.636   2.226 -0.1818 -0.4718  0.2075
 1731SOL     ow 6921   0.985   4.425   5.606 -0.1415  0.0277  0.8401
 1731SOL     hw 6922   0.999   4.489   5.676 -0.2322  1.7981 -0.6692
 1731SOL     hw 6923   1.054   4.443   5.542 -0.3498 -1.2060  0.2252
 1731SOL     vw 6924   0.996   4.436   5.607 -0.1810  0.0985  0.5598
 1732SOL     ow 6925   5.576   5.278   2.411  0.9719 -0.2610  0.2791
 1732SOL     hw 6926   5.596   5.331   2.487 -1.0009  2.3162 -0.8342
 1732SOL     hw 6927   5.643   5.301   2.346  1.7199 -1.2711  0.6595
 1732SOL     vw 6928   5.588   5.288   2.412  0.8104 -0.0544  0.1824
 1733SOL     ow 6929   7.128   3.346   0.036  0.3379  0.8831  0.3154
 1733SOL     hw 6930   7.086   3.267   0.001  2.7424 -1.7252  2.8129
 1733SOL     hw 6931   7.076   3.369   0.112 -0.1300  1.5131 -0.1854
 1733SOL     vw 6932   7.115   3.338   0.041  0.5934  0.6220  0.5786
 1734SOL     ow 6933   6.419   4.261   1.473  0.1733  0.5299  0.2912
 1734SOL     hw 6934   6.374   4.335   1.432  0.1860  0.2376 -0.2580
 1734SOL     hw 6935   6.508   4.293   1.489  0.0837  0.7440  0.3719
 1734SOL     vw 6936   6.424   4.275   1.470  0.1631  0.5195  0.2294
 1735SOL     ow 6937   5.943   4.139   3.667 -0.2097 -0.0126  0.7676
 1735SOL     hw 6938   5.977   4.130   3.578 -0.1387  0.6082  0.7243
 1735SOL     hw 6939   6.004   4.091   3.722 -1.1268 -1.7653  0.3040
 1735SOL     vw 6940   5.955   4.132   3.662 -0.3214 -0.1619  0.7007
 1736SOL     ow 6941   4.830   6.147   4.625 -0.3804  0.3131 -0.1845
 1736SOL     hw 6942   4.857   6.166   4.535 -1.8123 -2.6817 -1.3970
 1736SOL     hw 6943   4.777   6.222   4.651  2.1137  2.4400 -0.7682
 1736SOL     vw 6944   4.827   6.160   4.617 -0.2403  0.1986 -0.4215
 1737SOL     ow 6945   3.069   0.306   1.718  0.2993 -0.6500 -0.1368
 1737SOL     hw 6946   3.066   0.318   1.623  1.5463  1.8077  0.0260
 1737SOL     hw 6947   3.002   0.365   1.752  1.2880  0.1192  0.5487
 1737SOL     vw 6948   3.060   0.316   1.710  0.5943 -0.2242 -0.0249
 1738SOL     ow 6949   6.660   0.911   4.858 -0.2596 -0.0926 -0.0242
 1738SOL     hw 6950   6.705   0.984   4.816  0.0522 -0.1653  0.1835
 1738SOL     hw 6951   6.639   0.851   4.786 -1.0307  0.4618 -0.2809
 1738SOL     vw 6952   6.663   0.912   4.843 -0.3202 -0.0291 -0.0308
 1739SOL     ow 6953   0.980   6.685   1.877  0.4585  0.7143 -0.0329
 1739SOL     hw 6954   1.075   6.683   1.863  0.4354 -1.8612 -0.3079
 1739SOL     hw 6955   0.960   6.600   1.917 -2.1637 -0.4229 -3.2777
 1739SOL     vw 6956   0.990   6.674   1.881  0.1095  0.2246 -0.4972
 1740SOL     ow 6957   2.299   0.664   0.493 -0.0376 -0.2675  0.4582
 1740SOL     hw 6958   2.351   0.725   0.546 -0.6592  1.2924 -0.6346
 1740SOL     hw 6959   2.209   0.676   0.526 -0.5007  1.0435 -1.1478
 1740SOL     vw 6960   2.294   0.674   0.505 -0.1807  0.1113  0.1022
 1741SOL     ow 6961   3.830   0.795   7.130 -0.3672  0.6178 -0.2884
 1741SOL     hw 6962   3.809   0.761   7.217  1.5909 -0.8753 -0.3358
 1741SOL     hw 6963   3.745   0.808   7.088 -1.5188  3.5472  2.5413
 1741SOL     vw 6964   3.816   0.792   7.136 -0.2607  0.8073  0.0787
 1742SOL     ow 6965   2.551   6.222   0.713 -0.2711 -0.1378 -0.6955
 1742SOL     hw 6966   2.536   6.307   0.672  2.3554  0.7913  0.1049
 1742SOL     hw 6967   2.571   6.164   0.640  3.0852  1.2050 -1.0282
 1742SOL     vw 6968   2.551   6.226   0.698  0.5182  0.1621 -0.6337
 1743SOL     ow 6969   4.429   0.256   1.522  0.4471  0.3448  0.0382
 1743SOL     hw 6970   4.428   0.219   1.434 -0.1715 -1.7485  0.8598
 1743SOL     hw 6971   4.518   0.237   1.554 -0.4198 -2.2834  1.1271
 1743SOL     vw 6972   4.441   0.248   1.514  0.2513 -0.2782  0.2903
 1744SOL     ow 6973   6.827   1.571   4.778 -0.1883 -0.8646 -0.0710
 1744SOL     hw 6974   6.857   1.518   4.852  0.3901 -1.2715 -0.5875
 1744SOL     hw 6975   6.905   1.617   4.747 -0.6845  0.3019  0.3636
 1744SOL     vw 6976   6.841   1.570   4.783 -0.1774 -0.7644 -0.0820
 1745SOL     ow 6977   6.121   4.157   1.818  0.0955  0.4030  0.1548
 1745SOL     hw 6978   6.138   4.070   1.855  2.7944  1.4752  1.6585
 1745SOL     hw 6979   6.028   4.172   1.834  0.0404 -1.3489  1.7751
 1745SOL     vw 6980   6.111   4.147   1.825  0.4444  0.3133  0.5670
 1746SOL     ow 6981   3.355   1.486   4.270  0.3175 -0.5091  0.2319
 1746SOL     hw 6982   3.264   1.512   4.257 -0.2305 -1.6838  1.3741
 1746SOL     hw 6983   3.404   1.568   4.270 -0.8064  0.1881  0.0386
 1746SOL     vw 6984   3.349   1.500   4.268  0.0969 -0.5720  0.3569
 1747SOL     ow 6985   1.607   4.828   1.586 -0.3397 -0.1927  0.2492
 1747SOL     hw 6986   1.528   4.867   1.622 -2.5166 -2.7894 -1.3164
 1747SOL     hw 6987   1.622   4.877   1.505 -0.4106  0.2224  0.4824
 1747SOL     vw 6988   1.599   4.839   1.580 -0.6363 -0.4804  0.0734
 1748SOL     ow 6989   4.665   2.160   4.939 -0.2964 -0.2121  0.3534
 1748SOL     hw 6990   4.698   2.080   4.899 -1.1408 -0.6627  0.5249
 1748SOL     hw 6991   4.575   2.138   4.964 -0.6559  0.9014  0.0802
 1748SOL     vw 6992   4.657   2.146   4.937 -0.4554 -0.1247  0.3400
 1749SOL     ow 6993   7.125   1.644   0.603 -0.7003  0.0444  0.1238
 1749SOL     hw 6994   7.114   1.560   0.648 -1.7197  0.4178  0.6091
 1749SOL     hw 6995   7.218   1.663   0.610  0.0077 -2.1079 -1.9600
 1749SOL     vw 6996   7.136   1.636   0.610 -0.7415 -0.1903 -0.0871
 1750SOL     ow 6997   5.411   1.549   3.118 -0.5034  0.1937  0.2216
 1750SOL     hw 6998   5.476   1.554   3.048  0.5013  2.8686  1.2227
 1750SOL     hw 6999   5.388   1.456   3.123  2.0423 -0.6101 -1.2538
 1750SOL     vw 7000   5.417   1.537   3.109 -0.0348  0.4405  0.1590
 1751SOL     ow 7001   0.439   5.865   1.460 -0.3548  0.2010  0.4079
 1751SOL     hw 7002   0.489   5.946   1.448  2.3577 -0.9616  2.7709
 1751SOL     hw 7003   0.405   5.871   1.549 -1.8733 -0.4377 -0.0936
 1751SOL     vw 7004   0.441   5.876   1.470 -0.1973 -0.0365  0.6535
 1752SOL     ow 7005   4.499   1.615   4.404 -0.2601  0.4724 -0.7942
 1752SOL     hw 7006   4.500   1.696   4.352 -0.3476  1.4226  0.6269
 1752SOL     hw 7007   4.474   1.643   4.492  0.0379 -1.0657 -0.1851
 1752SOL     vw 7008   4.496   1.629   4.409 -0.2322  0.3949 -0.5262
 1753SOL     ow 7009   1.291   5.654   2.001  0.3758 -0.8783 -0.2654
 1753SOL     hw 7010   1.372   5.689   1.964  0.0947 -0.2019 -0.2479
 1753SOL     hw 7011   1.303   5.661   2.096 -0.8027  1.8919 -0.2285
 1753SOL     vw 7012   1.303   5.660   2.009  0.1832 -0.4234 -0.2581
 1754SOL     ow 7013   3.396   3.510   1.627  0.1114 -0.2217 -0.3682
 1754SOL     hw 7014   3.348   3.439   1.584  0.5431 -0.4148 -0.5416
 1754SOL     hw 7015   3.360   3.514   1.715  1.1663 -1.7380  0.1792
 1754SOL     vw 7016   3.385   3.501   1.633  0.3076 -0.4473 -0.3189
 1755SOL     ow 7017   0.679   0.624   6.397  0.2877  0.1817  0.3114
 1755SOL     hw 7018   0.699   0.567   6.472  1.6158 -0.0586 -0.1905
 1755SOL     hw 7019   0.721   0.707   6.418  1.3973 -0.1426 -0.5045
 1755SOL     vw 7020   0.687   0.628   6.410  0.6093  0.1072  0.1378
 1756SOL     ow 7021   1.569   4.854   4.449 -0.0249 -0.2144 -0.2544
 1756SOL     hw 7022   1.601   4.881   4.535 -0.3270 -1.0326  0.1185
 1756SOL     hw 7023   1.504   4.920   4.426  1.2967  1.0072 -0.6512
 1756SOL     vw 7024   1.565   4.867   4.457  0.1097 -0.1612 -0.2573
 1757SOL     ow 7025   6.043   5.988   4.274 -0.5119  0.1049  0.6876
 1757SOL     hw 7026   6.027   6.022   4.186  0.0406  1.3670  1.0532
 1757SOL     hw 7027   6.135   5.964   4.274 -0.6237 -0.3280  0.7825
 1757SOL     vw 7028   6.053   5.990   4.263 -0.4537  0.2143  0.7484
 1758SOL     ow 7029   6.825   6.964   2.033 -0.7748  0.0667 -0.0376
 1758SOL     hw 7030   6.759   7.005   2.090 -0.9957  0.5161 -0.6043
 1758SOL     hw 7031   6.901   6.952   2.090 -1.6257 -1.3028  0.8748
 1758SOL     vw 7032   6.827   6.968   2.048 -0.9160 -0.0548  0.0081
 1759SOL     ow 7033   6.063   0.380   3.080  0.1377 -0.5341 -1.0778
 1759SOL     hw 7034   6.154   0.351   3.068 -0.0460 -1.4542 -0.3246
 1759SOL     hw 7035   6.029   0.324   3.149  0.2628  2.6225  1.7920
 1759SOL     vw 7036   6.071   0.368   3.087  0.1299 -0.2390 -0.5997
 1760SOL     ow 7037   2.180   0.632   6.313 -0.5439  0.4967  0.3921
 1760SOL     hw 7038   2.200   0.563   6.249 -0.4337  0.2427  0.7034
 1760SOL     hw 7039   2.221   0.710   6.277 -1.6550  0.6741 -0.5687
 1760SOL     vw 7040   2.188   0.633   6.299 -0.6759  0.4866  0.3061
 1761SOL     ow 7041   2.048   0.492   0.205  0.8413 -0.0915 -0.0208
 1761SOL     hw 7042   1.963   0.506   0.161  1.0721  0.8393 -0.1970
 1761SOL     hw 7043   2.030   0.425   0.271  0.0105 -0.0524 -0.1934
 1761SOL     vw 7044   2.034   0.485   0.208  0.7623  0.0365 -0.0668
 1762SOL     ow 7045   2.487   5.422   3.985 -0.3931 -0.6972 -0.1462
 1762SOL     hw 7046   2.400   5.461   3.974  0.2569  0.2127 -2.5059
 1762SOL     hw 7047   2.547   5.481   3.940  1.1841 -2.3489 -0.3491
 1762SOL     vw 7048   2.483   5.435   3.978 -0.0993 -0.7951 -0.4842
 1763SOL     ow 7049   5.539   3.489   2.466 -0.1718 -0.3615 -0.6051
 1763SOL     hw 7050   5.477   3.501   2.395  0.7381 -0.3137 -1.4041
 1763SOL     hw 7051   5.618   3.454   2.425  1.3098  2.0975 -0.0692
 1763SOL     vw 7052   5.541   3.486   2.451  0.1440 -0.0306 -0.6399
 1764SOL     ow 7053   3.365   5.993   4.019  0.2490 -0.2040  0.4039
 1764SOL     hw 7054   3.436   5.979   4.081 -0.5636  0.3094  1.5005
 1764SOL     hw 7055   3.402   6.049   3.951  0.7597  0.4656  1.2189
 1764SOL     vw 7056   3.379   5.999   4.018  0.2093 -0.0479  0.6561
 1765SOL     ow 7057   4.227   2.985   3.733 -0.0262 -0.3334 -0.2281
 1765SOL     hw 7058   4.136   2.956   3.729 -0.3519  0.6136  0.0086
 1765SOL     hw 7059   4.266   2.954   3.652 -0.0509 -2.3751  0.4899
 1765SOL     vw 7060   4.220   2.977   3.722 -0.0725 -0.4779 -0.1023
 1766SOL     ow 7061   2.151   6.420   2.279  0.4252  0.3389  0.4849
 1766SOL     hw 7062   2.133   6.419   2.373 -2.1198  0.6262  0.0729
 1766SOL     hw 7063   2.090   6.485   2.244  1.9744  0.9140 -1.2632
 1766SOL     vw 7064   2.140   6.429   2.287  0.2937  0.4525  0.1998
 1767SOL     ow 7065   2.372   1.408   2.077  0.1320 -0.3925  0.0861
 1767SOL     hw 7066   2.460   1.406   2.041  0.3537 -1.0112  0.6400
 1767SOL     hw 7067   2.314   1.385   2.004  0.7788 -4.7652  0.6942
 1767SOL     vw 7068   2.376   1.405   2.063  0.2466 -1.0511  0.2394
 1768SOL     ow 7069   2.336   2.709   1.853 -0.3920  0.3126  0.2162
 1768SOL     hw 7070   2.310   2.753   1.934 -0.7532  1.2508 -0.3832
 1768SOL     hw 7071   2.361   2.621   1.880 -2.2944 -0.0189  1.1147
 1768SOL     vw 7072   2.336   2.704   1.867 -0.6906  0.3927  0.2557
 1769SOL     ow 7073   4.151   0.686   4.691 -0.1300 -0.2856 -0.2845
 1769SOL     hw 7074   4.073   0.704   4.638  0.4944  0.2802 -1.0266
 1769SOL     hw 7075   4.121   0.697   4.781 -0.4659  1.8153 -0.6143
 1769SOL     vw 7076   4.137   0.690   4.696 -0.0920  0.0663 -0.4258
 1770SOL     ow 7077   2.502   0.862   5.687  0.6943 -0.2456  0.2556
 1770SOL     hw 7078   2.537   0.923   5.753  0.2346  1.0573 -0.6652
 1770SOL     hw 7079   2.423   0.904   5.655  0.4213 -1.2945 -0.4949
 1770SOL     vw 7080   2.496   0.876   5.692  0.5976 -0.2121  0.0350
 1771SOL     ow 7081   5.429   6.155   3.538 -0.3831 -0.2448  0.2871
 1771SOL     hw 7082   5.441   6.235   3.590 -0.8980 -0.7088  1.1407
 1771SOL     hw 7083   5.411   6.187   3.450  0.7936  0.5582  0.3080
 1771SOL     vw 7084   5.428   6.170   3.533 -0.2956 -0.1998  0.4025
 1772SOL     ow 7085   4.442   4.323   3.699 -1.1052  0.3310 -0.2463
 1772SOL     hw 7086   4.511   4.377   3.737 -0.6223  0.6227 -1.4837
 1772SOL     hw 7087   4.421   4.260   3.767 -0.9216  1.4013  0.8329
 1772SOL     vw 7088   4.449   4.322   3.713 -1.0173  0.5107 -0.2670
 1773SOL     ow 7089   2.366   2.402   4.615  0.1692  0.4953  0.0894
 1773SOL     hw 7090   2.312   2.434   4.688  1.9902  0.0306  1.7264
 1773SOL     hw 7091   2.339   2.311   4.603 -0.6623  0.7928 -0.3376
 1773SOL     vw 7092   2.355   2.394   4.623  0.2997  0.4735  0.2491
 1774SOL     ow 7093   4.635   1.846   3.703 -0.4936  0.5692 -0.0658
 1774SOL     hw 7094   4.634   1.872   3.611 -1.9550 -2.9939 -1.2495
 1774SOL     hw 7095   4.544   1.853   3.732 -0.8104 -1.8338 -0.1958
 1774SOL     vw 7096   4.623   1.850   3.694 -0.7279 -0.2180 -0.2391
 1775SOL     ow 7097   5.067   0.258   0.419 -0.0071  0.2166 -0.5182
 1775SOL     hw 7098   5.113   0.328   0.466  1.0457  0.5501 -1.9902
 1775SOL     hw 7099   5.100   0.177   0.458  0.0133  0.4895  0.0557
 1775SOL     vw 7100   5.077   0.257   0.431  0.1345  0.2966 -0.6367
 1776SOL     ow 7101   0.026   2.362   7.080 -0.8700 -0.6642  0.1629
 1776SOL     hw 7102   0.003   2.366   7.173  2.8809 -2.0132  1.3373
 1776SOL     hw 7103   0.096   2.296   7.075  0.7551  1.0497 -3.2083
 1776SOL     vw 7104   0.032   2.354   7.092 -0.1607 -0.6161 -0.1268
 1777SOL     ow 7105   2.071   4.851   3.865 -0.1400 -0.3571 -0.6077
 1777SOL     hw 7106   2.131   4.849   3.939 -0.8893  0.0303  0.0141
 1777SOL     hw 7107   1.985   4.834   3.903 -0.4989 -0.3862 -1.4190
 1777SOL     vw 7108   2.068   4.848   3.880 -0.2862 -0.3099 -0.6328
 1778SOL     ow 7109   0.271   5.731   2.445  0.2749  0.2034 -0.3428
 1778SOL     hw 7110   0.316   5.670   2.503  0.2534  0.6255  0.1226
 1778SOL     hw 7111   0.226   5.675   2.381 -0.5153 -0.2986  0.6339
 1778SOL     vw 7112   0.271   5.716   2.444  0.1678  0.1926 -0.1525
 1779SOL     ow 7113   1.509   6.611   1.144  0.3201  0.4953  0.7736
 1779SOL     hw 7114   1.460   6.597   1.225  1.7647  1.0365  1.7697
 1779SOL     hw 7115   1.557   6.529   1.130 -1.9540 -0.6642 -1.0726
 1779SOL     vw 7116   1.509   6.598   1.153  0.2106  0.4137  0.6614
 1780SOL     ow 7117   5.721   0.184   1.937  0.5097  0.0199  0.3100
 1780SOL     hw 7118   5.661   0.116   1.968  0.1994 -0.5855 -1.5132
 1780SOL     hw 7119   5.665   0.261   1.925  0.1196 -0.4338 -1.0086
 1780SOL     vw 7120   5.706   0.185   1.939  0.4170 -0.1199 -0.1045
 1781SOL     ow 7121   5.085   0.635   2.558 -0.2271  0.7131  0.5756
 1781SOL     hw 7122   5.067   0.658   2.649 -0.0939 -0.2161  0.8494
 1781SOL     hw 7123   5.011   0.671   2.509 -0.9197  0.1834  1.2074
 1781SOL     vw 7124   5.073   0.643   2.563 -0.3009  0.5206  0.6951
 1782SOL     ow 7125   6.995   5.601   1.100  0.1771 -1.0498 -0.3352
 1782SOL     hw 7126   6.931   5.530   1.106 -1.7307  0.6581  0.8271
 1782SOL     hw 7127   6.943   5.681   1.107  2.3020  0.4820 -0.9441
 1782SOL     vw 7128   6.980   5.603   1.102  0.2060 -0.6225 -0.2622
 1783SOL     ow 7129   2.194   1.330   1.886  0.1121  0.0553  0.2956
 1783SOL     hw 7130   2.124   1.395   1.885  0.2931  0.2620 -1.4530
 1783SOL     hw 7131   2.241   1.343   1.803  0.6833 -1.7352  0.2891
 1783SOL     vw 7132   2.191   1.341   1.875  0.2114 -0.1537  0.0640
 1784SOL     ow 7133   0.485   2.775   6.405  0.6779 -0.0882 -0.1796
 1784SOL     hw 7134   0.486   2.774   6.309  1.2611 -0.3072 -0.1773
 1784SOL     hw 7135   0.518   2.862   6.428 -2.1855  1.1297 -0.1649
 1784SOL     vw 7136   0.489   2.787   6.395  0.3771  0.0435 -0.1774
 1785SOL     ow 7137   2.636   1.918   6.782  0.5431 -0.2179  0.2816
 1785SOL     hw 7138   2.612   1.993   6.728  0.4120 -0.7794 -0.4682
 1785SOL     hw 7139   2.673   1.955   6.862  1.4943  0.6447 -0.5307
 1785SOL     vw 7140   2.638   1.932   6.785  0.6514 -0.1782  0.0753
 1786SOL     ow 7141   0.132   0.539   6.204  0.2260 -0.5269  0.0161
 1786SOL     hw 7142   0.052   0.511   6.248  0.1264  1.4517  1.2070
 1786SOL     hw 7143   0.202   0.524   6.268  0.1491  1.8622  0.7856
 1786SOL     vw 7144   0.131   0.533   6.218  0.2027  0.0494  0.2747
 1787SOL     ow 7145   5.054   2.368   5.914  0.1392  0.2151  0.1905
 1787SOL     hw 7146   5.067   2.280   5.878  0.8457  0.3588  0.0696
 1787SOL     hw 7147   5.138   2.412   5.900  0.2071  0.5053  1.3969
 1787SOL     vw 7148   5.067   2.362   5.907  0.2413  0.2723  0.3335
 1788SOL     ow 7149   2.992   3.007   1.731 -0.2590  0.4348 -0.2962
 1788SOL     hw 7150   3.022   2.978   1.645 -1.0032  0.7663 -0.6714
 1788SOL     hw 7151   3.009   2.932   1.788  0.7412  0.4091 -0.6086
 1788SOL     vw 7152   2.998   2.993   1.728 -0.2253  0.4752 -0.3870
 1789SOL     ow 7153   2.456   6.864   6.293 -0.3983  0.2701 -0.2719
 1789SOL     hw 7154   2.363   6.838   6.296 -0.5958  1.0421  2.1820
 1789SOL     hw 7155   2.500   6.800   6.348  0.1408  1.2752  0.4840
 1789SOL     vw 7156   2.449   6.852   6.300 -0.3532  0.5045  0.1519
 1790SOL     ow 7157   3.900   1.632   0.597  0.0625  1.0531 -0.0346
 1790SOL     hw 7158   3.967   1.567   0.574  0.3617  1.7078 -1.1194
 1790SOL     hw 7159   3.823   1.605   0.547  0.4650  2.0150 -1.2460
 1790SOL     vw 7160   3.899   1.620   0.587  0.1550  1.2664 -0.3375
 1791SOL     ow 7161   0.676   0.772   0.268  0.4713 -0.0992 -0.5670
 1791SOL     hw 7162   0.728   0.836   0.317 -0.6849  0.0728  0.4952
 1791SOL     hw 7163   0.715   0.687   0.291  0.4910  0.0482 -0.0293
 1791SOL     vw 7164   0.688   0.769   0.278  0.3214 -0.0571 -0.3559
 1792SOL     ow 7165   2.081   1.458   3.929 -0.1824 -0.4220  0.6907
 1792SOL     hw 7166   2.039   1.396   3.988  0.1942  0.2686  1.7206
 1792SOL     hw 7167   2.011   1.516   3.901 -0.4256 -0.9562  0.1794
 1792SOL     vw 7168   2.067   1.458   3.933 -0.1649 -0.4013  0.7591
 1793SOL     ow 7169   2.678   6.799   2.019  0.0225  0.1480 -0.3547
 1793SOL     hw 7170   2.717   6.828   2.101 -0.8665  0.4502 -0.0173
 1793SOL     hw 7171   2.684   6.703   2.021  0.2480  0.1690 -0.0673
 1793SOL     vw 7172   2.684   6.790   2.030 -0.0652  0.1910 -0.2723
 1794SOL     ow 7173   1.638   2.411   4.935  0.1334  0.2883 -0.4257
 1794SOL     hw 7174   1.638   2.496   4.891  1.7005  1.1019  1.0471
 1794SOL     hw 7175   1.727   2.378   4.926 -0.8664 -2.2237 -2.6882
 1794SOL     vw 7176   1.650   2.418   4.928  0.2082  0.0644 -0.5298
 1795SOL     ow 7177   3.208   4.982   2.830 -0.2237 -0.4180  0.3067
 1795SOL     hw 7178   3.223   5.038   2.755 -1.6328 -0.7497 -0.2542
 1795SOL     hw 7179   3.280   4.919   2.828  0.8535  0.7883  0.4185
 1795SOL     vw 7180   3.219   4.981   2.820 -0.2675 -0.3023  0.2474
 1796SOL     ow 7181   5.387   1.992   1.857 -0.4474  0.2521  0.0413
 1796SOL     hw 7182   5.386   2.041   1.939  2.9052 -0.3208  0.5452
 1796SOL     hw 7183   5.378   1.900   1.884  0.2350  0.0929 -0.2599
 1796SOL     vw 7184   5.385   1.986   1.871  0.0851  0.1554  0.0679
 1797SOL     ow 7185   1.435   5.596   1.480  0.2792 -0.6684 -0.2132
 1797SOL     hw 7186   1.493   5.621   1.408  0.4855 -1.0733 -0.1947
 1797SOL     hw 7187   1.465   5.508   1.504  1.8834  0.4301  2.0559
 1797SOL     vw 7188   1.447   5.588   1.473  0.5181 -0.5767  0.0886
 1798SOL     ow 7189   6.276   5.890   6.918 -0.3980 -0.1550 -0.6521
 1798SOL     hw 7190   6.249   5.863   7.006  3.1827  2.8429  1.6753
 1798SOL     hw 7191   6.299   5.809   6.873 -1.2638 -1.7175  1.5549
 1798SOL     vw 7192   6.275   5.876   6.924 -0.0396  0.0343 -0.0539
 1799SOL     ow 7193   7.059   2.518   1.876 -0.4464  0.4722  0.6299
 1799SOL     hw 7194   7.025   2.496   1.963 -1.7746 -1.2463 -0.2485
 1799SOL     hw 7195   7.020   2.603   1.856 -1.8119 -0.0617  0.9123
 1799SOL     vw 7196   7.049   2.527   1.885 -0.8018  0.1751  0.5513
 1800SOL     ow 7197   4.064   2.109   0.077  0.0206 -0.0415  0.0941
 1800SOL     hw 7198   4.022   2.194   0.090 -1.2126 -0.2102 -2.2881
 1800SOL     hw 7199   4.009   2.047   0.125 -1.3829  0.0210 -1.3481
 1800SOL     vw 7200   4.051   2.112   0.085 -0.3273 -0.0556 -0.4104
 1801SOL     ow 7201   2.676   3.179   5.953 -0.6160  0.1775  0.5495
 1801SOL     hw 7202   2.722   3.116   6.008  0.6410  0.5061 -0.0808
 1801SOL     hw 7203   2.698   3.152   5.863  0.6940  1.9935  0.2677
 1801SOL     vw 7204   2.685   3.167   5.948 -0.2773  0.4605  0.4292
 1802SOL     ow 7205   1.980   4.943   3.363 -0.0690  0.4175  0.1318
 1802SOL     hw 7206   2.018   4.855   3.364  1.3319  0.9550 -1.2430
 1802SOL     hw 7207   1.953   4.956   3.272  3.1216  2.6970 -0.6657
 1802SOL     vw 7208   1.982   4.933   3.351  0.5368  0.7889 -0.1547
 1803SOL     ow 7209   4.778   5.849   1.224 -0.4070 -0.1224 -0.6678
 1803SOL     hw 7210   4.866   5.829   1.256 -0.5016 -1.2056 -1.0383
 1803SOL     hw 7211   4.744   5.912   1.286 -0.7442 -2.4566  1.6792
 1803SOL     vw 7212   4.785   5.854   1.236 -0.4640 -0.5734 -0.4069
 1804SOL     ow 7213   5.832   4.210   1.915  0.6677  0.3794 -0.1756
 1804SOL     hw 7214   5.810   4.276   1.980 -0.6990 -0.0703 -0.1477
 1804SOL     hw 7215   5.748   4.169   1.893  1.6120 -2.6100  1.1489
 1804SOL     vw 7216   5.818   4.213   1.921  0.6120 -0.0741  0.0029
 1805SOL     ow 7217   4.561   2.611   3.774 -0.1437 -0.6036 -0.0260
 1805SOL     hw 7218   4.634   2.665   3.802  0.0321 -1.0788  0.4615
 1805SOL     hw 7219   4.570   2.605   3.679  2.4754 -3.4006  0.2284
 1805SOL     vw 7220   4.572   2.617   3.765  0.2251 -1.0353  0.0718
 1806SOL     ow 7221   1.830   0.006   2.678 -0.1231  0.2413 -0.1434
 1806SOL     hw 7222   1.860  -0.061   2.739  0.1722 -0.5543 -1.1333
 1806SOL     hw 7223   1.878   0.085   2.704 -2.2617  0.7781  2.5828
 1806SOL     vw 7224   1.840   0.007   2.689 -0.3663  0.2072  0.0858
 1807SOL     ow 7225   2.058   1.674   2.441  0.2470 -0.5890  0.0922
 1807SOL     hw 7226   2.132   1.690   2.500  0.0244 -0.5288  0.3579
 1807SOL     hw 7227   1.989   1.732   2.473 -0.0157 -0.8667  0.0320
 1807SOL     vw 7228   2.058   1.684   2.453  0.1829 -0.6176  0.1192
 1808SOL     ow 7229   2.905   7.000   1.140  0.5391 -0.6235 -0.0690
 1808SOL     hw 7230   2.853   6.919   1.144 -1.3080  0.4845 -0.6214
 1808SOL     hw 7231   2.853   7.059   1.085  1.5933  1.1189  0.7429
 1808SOL     vw 7232   2.891   6.997   1.133  0.4345 -0.2477 -0.0349
 1809SOL     ow 7233   6.349   4.583   3.208  0.0273  0.4404  0.2684
 1809SOL     hw 7234   6.435   4.602   3.169  0.2496  0.1335  0.6007
 1809SOL     hw 7235   6.293   4.655   3.179 -0.0365 -0.2069 -1.3009
 1809SOL     vw 7236   6.353   4.595   3.199  0.0484  0.3147  0.1053
 1810SOL     ow 7237   4.904   0.684   5.155  0.4609  0.6056  0.2746
 1810SOL     hw 7238   4.941   0.736   5.226  1.5662 -0.2931  0.3809
 1810SOL     hw 7239   4.856   0.614   5.200  0.9312  0.1933  0.1352
 1810SOL     vw 7240   4.902   0.682   5.171  0.6690  0.4326  0.2704
 1811SOL     ow 7241   5.552   4.226   4.659 -0.0486  0.4714  0.1590
 1811SOL     hw 7242   5.474   4.226   4.603  1.8057  1.3817 -2.6234
 1811SOL     hw 7243   5.558   4.317   4.690  0.0965  0.4852  0.0891
 1811SOL     vw 7244   5.542   4.238   4.656  0.2151  0.5932 -0.2174
 1812SOL     ow 7245   0.524   0.632   0.069  0.0325 -0.3921  0.5351
 1812SOL     hw 7246   0.546   0.568   0.001 -2.4326  0.5597 -1.2977
 1812SOL     hw 7247   0.439   0.604   0.102  0.3985  0.1581  2.0274
 1812SOL     vw 7248   0.516   0.620   0.065 -0.2444 -0.1939  0.4902
 1813SOL     ow 7249   3.552   3.768   6.570 -0.4850  1.1792  0.0916
 1813SOL     hw 7250   3.502   3.688   6.584 -0.5912  1.3303  0.6039
 1813SOL     hw 7251   3.630   3.758   6.625 -0.2253  1.1803 -0.2795
 1813SOL     vw 7252   3.556   3.756   6.579 -0.4647  1.1992  0.1104
 1814SOL     ow 7253   2.501   5.119   4.130 -0.0576  0.1185  0.2090
 1814SOL     hw 7254   2.502   5.149   4.221 -2.0974 -1.3864  0.7993
 1814SOL     hw 7255   2.498   5.024   4.136 -0.2318  0.0010 -1.4333
 1814SOL     vw 7256   2.501   5.111   4.143 -0.3499 -0.0954  0.0706
 1815SOL     ow 7257   4.070   2.502   5.268 -0.3541  0.1322  0.0510
 1815SOL     hw 7258   4.020   2.426   5.296  1.3114 -0.8615  0.4502
 1815SOL     hw 7259   4.126   2.470   5.197  0.3302  0.9840  0.1805
 1815SOL     vw 7260   4.071   2.488   5.262 -0.0439  0.1135  0.1211
 1816SOL     ow 7261   3.085   3.294   3.271  0.4631  0.1306  0.3229
 1816SOL     hw 7262   3.148   3.357   3.236 -0.1277  1.1910  1.1224
 1816SOL     hw 7263   3.139   3.225   3.310  1.1217  0.3850 -0.1188
 1816SOL     vw 7264   3.100   3.293   3.272  0.4721  0.3041  0.3701
 1817SOL     ow 7265   6.389   6.105   1.321  0.1697  0.1553 -0.5808
 1817SOL     hw 7266   6.348   6.085   1.405  2.8957 -0.5781  0.6566
 1817SOL     hw 7267   6.339   6.053   1.258 -0.4511 -1.1446  0.9000
 1817SOL     vw 7268   6.377   6.096   1.324  0.4475 -0.1128 -0.2221
 1818SOL     ow 7269   2.471   2.306   5.950 -0.1708  0.8178  0.0822
 1818SOL     hw 7270   2.497   2.348   6.032  1.5982  1.0910 -0.5808
 1818SOL     hw 7271   2.542   2.245   5.930 -0.1156  1.4062 -1.6860
 1818SOL     vw 7272   2.483   2.303   5.958  0.0700  0.9315 -0.2384
 1819SOL     ow 7273   6.483   6.466   2.393 -0.1947 -0.5935  0.3790
 1819SOL     hw 7274   6.565   6.515   2.388  0.0198 -1.0434 -1.3279
 1819SOL     hw 7275   6.466   6.456   2.486  0.2142  1.9347  0.7922
 1819SOL     vw 7276   6.491   6.471   2.404 -0.1123 -0.3192  0.2083
 1820SOL     ow 7277   2.094   6.521   3.959 -0.3739  0.0679  0.1173
 1820SOL     hw 7278   2.033   6.459   3.998 -0.8764  0.3841 -0.1597
 1820SOL     hw 7279   2.049   6.605   3.962  0.8464  0.7068  1.7691
 1820SOL     vw 7280   2.080   6.524   3.964 -0.2792  0.1936  0.2986
 1821SOL     ow 7281   3.105   0.051   1.581 -0.0765  0.5888 -0.2785
 1821SOL     hw 7282   3.190   0.010   1.599 -1.6672 -2.2802  1.5499
 1821SOL     hw 7283   3.092   0.113   1.653  0.6411  1.4225 -0.8489
 1821SOL     vw 7284   3.114   0.054   1.593 -0.1917  0.3203 -0.1125
 1822SOL     ow 7285   3.703   5.198   0.955  0.2374 -0.1113 -0.4580
 1822SOL     hw 7286   3.655   5.142   1.017  1.0057 -0.2681  0.0052
 1822SOL     hw 7287   3.722   5.277   1.005 -1.6916  1.0149 -1.4025
 1822SOL     vw 7288   3.699   5.201   0.970  0.0843  0.0169 -0.5215
 1823SOL     ow 7289   2.708   3.413   2.947 -0.4016 -1.0986 -0.0561
 1823SOL     hw 7290   2.674   3.390   3.034  3.3638 -0.2639  1.8218
 1823SOL     hw 7291   2.697   3.333   2.895 -1.8227 -1.9521  1.4548
 1823SOL     vw 7292   2.702   3.399   2.952 -0.0923 -1.1011  0.3911
 1824SOL     ow 7293   6.943   6.998   6.029  0.1232 -0.0950 -0.4297
 1824SOL     hw 7294   6.931   6.909   6.063 -0.8669 -0.1199 -0.8033
 1824SOL     hw 7295   6.857   7.039   6.039  0.3396  0.5346 -1.0717
 1824SOL     vw 7296   6.930   6.991   6.035  0.0212 -0.0150 -0.5636
 1825SOL     ow 7297   1.048   5.696   1.268  0.3393 -0.0431  0.3117
 1825SOL     hw 7298   1.061   5.696   1.363  4.0304  2.5547 -0.0082
 1825SOL     hw 7299   1.038   5.788   1.245  1.2650 -0.4580 -1.9682
 1825SOL     vw 7300   1.048   5.708   1.278  0.9484  0.2449 -0.0313
 1826SOL     ow 7301   2.069   1.100   4.804  0.3073  0.5623  0.5240
 1826SOL     hw 7302   2.005   1.030   4.817  1.2425 -0.3540  0.3098
 1826SOL     hw 7303   2.039   1.170   4.863 -0.5100 -0.0953  0.9219
 1826SOL     vw 7304   2.056   1.100   4.814  0.3231  0.3546  0.5484
 1827SOL     ow 7305   4.797   2.399   3.779 -0.0488  1.0218 -0.5738
 1827SOL     hw 7306   4.874   2.455   3.789  1.0106 -0.6357  1.3789
 1827SOL     hw 7307   4.726   2.448   3.821  0.9449  0.8486  1.4469
 1827SOL     vw 7308   4.797   2.413   3.786  0.2224  0.7802 -0.0496
 1828SOL     ow 7309   3.186   3.274   5.075 -0.8258  0.3249  0.1666
 1828SOL     hw 7310   3.261   3.324   5.044 -1.1347  1.9632  1.8469
 1828SOL     hw 7311   3.122   3.279   5.003  0.0570  0.2653 -0.6397
 1828SOL     vw 7312   3.187   3.281   5.061 -0.7501  0.5332  0.2818
 1829SOL     ow 7313   5.406   2.281   0.414  0.2530 -0.3296 -0.2253
 1829SOL     hw 7314   5.335   2.297   0.352  0.4561 -0.8672 -0.5947
 1829SOL     hw 7315   5.361   2.262   0.497 -0.0410 -0.8963 -0.5093
 1829SOL     vw 7316   5.391   2.281   0.417  0.2410 -0.4752 -0.3115
 1830SOL     ow 7317   3.992   5.947   0.798 -0.5909 -0.4822  0.5409
 1830SOL     hw 7318   4.032   6.011   0.858 -0.2252 -0.2043  0.0138
 1830SOL     hw 7319   4.067   5.901   0.760 -0.6649  0.7530 -1.2487
 1830SOL     vw 7320   4.008   5.950   0.801 -0.5524 -0.2825  0.2353
 1831SOL     ow 7321   5.837   6.666   1.769 -0.7399  0.5838  0.1063
 1831SOL     hw 7322   5.766   6.602   1.762  2.3525 -2.9977 -1.2371
 1831SOL     hw 7323   5.853   6.695   1.679  2.6647 -2.6893 -0.5692
 1831SOL     vw 7324   5.830   6.661   1.756  0.1173 -0.3204 -0.1600
 1832SOL     ow 7325   7.071   3.557   7.089 -0.3550 -0.8511  0.4272
 1832SOL     hw 7326   7.101   3.477   7.132  0.1561 -0.9674 -0.1349
 1832SOL     hw 7327   7.121   3.561   7.007 -0.1112  0.2268  0.6134
 1832SOL     vw 7328   7.082   3.547   7.084 -0.2553 -0.7241  0.3777
 1833SOL     ow 7329   1.380   2.094   5.682 -0.6900  0.2620  0.2537
 1833SOL     hw 7330   1.325   2.054   5.615 -1.3689 -1.0027  1.5266
 1833SOL     hw 7331   1.469   2.085   5.648 -1.0289 -0.2720 -0.5189
 1833SOL     vw 7332   1.385   2.088   5.668 -0.8243  0.0247  0.3195
 1834SOL     ow 7333   4.129   1.727   0.755 -0.2905  0.2024 -0.2143
 1834SOL     hw 7334   4.119   1.673   0.833 -1.8872  0.7230 -0.0315
 1834SOL     hw 7335   4.179   1.803   0.785 -1.0625  0.4926  0.3611
 1834SOL     vw 7336   4.134   1.730   0.770 -0.6030  0.3094 -0.1142
 1835SOL     ow 7337   3.037   6.764   4.767  0.5636 -0.3775 -0.2468
 1835SOL     hw 7338   2.971   6.795   4.705  0.2598 -1.6519 -0.5767
 1835SOL     hw 7339   2.999   6.685   4.804  2.8277 -2.5181 -2.1768
 1835SOL     vw 7340   3.023   6.758   4.764  0.8223 -0.8280 -0.5445
 1836SOL     ow 7341   6.453   5.524   0.199  0.5164  0.4784 -0.7839
 1836SOL     hw 7342   6.474   5.448   0.145  0.2961  1.1498 -1.8390
 1836SOL     hw 7343   6.391   5.490   0.264 -0.7923  0.0439 -2.1855
 1836SOL     vw 7344   6.448   5.510   0.200  0.3147  0.5097 -1.1080
 1837SOL     ow 7345   6.403   5.023   2.211 -0.2231  0.4225 -0.0781
 1837SOL     hw 7346   6.388   4.955   2.145 -0.4400  1.0549 -0.6868
 1837SOL     hw 7347   6.318   5.033   2.254  0.0916 -0.4952  0.8084
 1837SOL     vw 7348   6.390   5.015   2.208 -0.2100  0.3850 -0.0415
 1838SOL     ow 7349   0.336   2.127   4.251  0.1112  0.4561  0.2170
 1838SOL     hw 7350   0.347   2.146   4.158  0.6130  1.1880  0.4143
 1838SOL     hw 7351   0.263   2.065   4.255  0.1278  0.3698 -0.6647
 1838SOL     vw 7352   0.328   2.121   4.239  0.1796  0.5413  0.1266
 1839SOL     ow 7353   5.208   5.531   1.794  1.0049 -0.1613  1.0520
 1839SOL     hw 7354   5.179   5.495   1.878  1.2032  0.5620  1.4410
 1839SOL     hw 7355   5.274   5.597   1.818 -0.6756  1.8412  0.5196
 1839SOL     vw 7356   5.213   5.535   1.808  0.8097  0.1981  1.0331
 1840SOL     ow 7357   3.227   5.707   5.923 -0.5844 -0.6373 -0.0422
 1840SOL     hw 7358   3.172   5.712   6.001 -0.5216 -0.6535  0.0034
 1840SOL     hw 7359   3.307   5.664   5.953  0.9388  2.4630  0.7301
 1840SOL     vw 7360   3.230   5.702   5.937 -0.3750 -0.2306  0.0656
 1841SOL     ow 7361   4.042   4.924   6.096  0.1080  1.0025 -0.2242
 1841SOL     hw 7362   3.995   4.886   6.170 -0.9137  0.5744 -1.0674
 1841SOL     hw 7363   4.090   4.850   6.058  0.7226  1.2441  0.0657
 1841SOL     vw 7364   4.043   4.909   6.101  0.0544  0.9780 -0.2971
 1842SOL     ow 7365   5.880   1.552   3.139 -0.1161 -0.1675 -0.0847
 1842SOL     hw 7366   5.821   1.581   3.070  0.1444  0.2478 -0.1364
 1842SOL     hw 7367   5.889   1.628   3.196  0.7415 -0.0754 -0.3362
 1842SOL     vw 7368   5.873   1.566   3.137  0.0312 -0.1006 -0.1246
 1843SOL     ow 7369   5.759   6.185   5.117  0.3626  0.3075 -0.4196
 1843SOL     hw 7370   5.679   6.194   5.066  0.3698  0.9448 -0.3325
 1843SOL     hw 7371   5.736   6.220   5.203  0.9988  1.4284 -0.6816
 1843SOL     vw 7372   5.745   6.191   5.122  0.4475  0.5395 -0.4427
 1844SOL     ow 7373   0.860   1.580   3.473 -0.1007 -0.1849 -0.3461
 1844SOL     hw 7374   0.769   1.554   3.458 -0.8159  0.5712  2.1834
 1844SOL     hw 7375   0.859   1.676   3.470  1.1421 -0.1584 -2.6119
 1844SOL     vw 7376   0.848   1.589   3.470 -0.0311 -0.0815 -0.3114
 1845SOL     ow 7377   6.708   2.927   3.704 -0.1577  0.2153  0.3982
 1845SOL     hw 7378   6.652   2.934   3.627  0.1488 -1.1947  0.0253
 1845SOL     hw 7379   6.694   2.838   3.736  1.1317  0.1592  0.8771
 1845SOL     vw 7380   6.699   2.916   3.698  0.0525  0.0218  0.4120
 1846SOL     ow 7381   0.980   3.316   1.699  0.1652 -0.6769 -0.2246
 1846SOL     hw 7382   0.947   3.405   1.683 -1.4801 -1.7752 -4.4488
 1846SOL     hw 7383   1.074   3.328   1.711 -0.0741  1.6754 -0.0894
 1846SOL     vw 7384   0.988   3.330   1.698 -0.0835 -0.5114 -0.7641
 1847SOL     ow 7385   4.565   2.200   6.205  0.1618  0.1898 -0.3339
 1847SOL     hw 7386   4.478   2.221   6.240  0.8541  4.0604 -0.4875
 1847SOL     hw 7387   4.612   2.163   6.280 -2.1202 -4.6100 -0.8599
 1847SOL     vw 7388   4.559   2.198   6.220 -0.0479  0.0674 -0.4234
 1848SOL     ow 7389   2.412   1.634   2.353 -0.1957 -0.3358 -0.3700
 1848SOL     hw 7390   2.404   1.729   2.344 -1.6817 -0.2692  1.1435
 1848SOL     hw 7391   2.492   1.612   2.305  2.5724  2.2140  2.5970
 1848SOL     vw 7392   2.422   1.644   2.346 -0.0265  0.0094  0.2211
 1849SOL     ow 7393   5.476   5.486   4.999  0.6330 -0.7619 -0.0125
 1849SOL     hw 7394   5.454   5.504   4.908  2.2542  0.3437 -0.2354
 1849SOL     hw 7395   5.556   5.537   5.015  0.8195 -1.5329  1.8013
 1849SOL     vw 7396   5.484   5.495   4.989  0.8714 -0.7176  0.1976
 1850SOL     ow 7397   1.862   4.746   4.934 -0.2517 -0.3622  0.6687
 1850SOL     hw 7398   1.784   4.693   4.953  1.8872 -3.5201  1.6034
 1850SOL     hw 7399   1.914   4.740   5.014  1.4082  0.7762 -0.2712
 1850SOL     vw 7400   1.859   4.738   4.947  0.2494 -0.6287  0.6678
 1851SOL     ow 7401   1.948   7.103   6.227 -0.0415  0.1037 -0.1718
 1851SOL     hw 7402   1.973   7.126   6.317 -0.1154  1.3831 -0.4540
 1851SOL     hw 7403   1.947   7.187   6.181 -0.7983 -0.4377 -1.1734
 1851SOL     vw 7404   1.951   7.117   6.233 -0.1512  0.2010 -0.3414
 1852SOL     ow 7405   5.360   1.399   6.212  0.1437 -0.3728  0.0059
 1852SOL     hw 7406   5.353   1.312   6.250 -0.9193 -0.5800 -0.6324
 1852SOL     hw 7407   5.356   1.458   6.288  0.8839 -0.8672  0.4366
 1852SOL     vw 7408   5.358   1.396   6.227  0.1013 -0.4653 -0.0212
 1853SOL     ow 7409   6.347   5.458   1.848  0.5924 -0.3340  0.9334
 1853SOL     hw 7410   6.435   5.483   1.822  0.7202 -0.8761  0.8224
 1853SOL     hw 7411   6.293   5.475   1.771  0.6400 -0.2002  0.9306
 1853SOL     vw 7412   6.351   5.463   1.835  0.6156 -0.3877  0.9184
 1854SOL     ow 7413   4.989   1.672   4.053  0.2358 -0.2906 -0.5506
 1854SOL     hw 7414   4.961   1.637   4.137  0.2329 -0.3188 -0.5630
 1854SOL     hw 7415   5.073   1.714   4.071  0.5146 -0.8037 -0.6450
 1854SOL     vw 7416   4.997   1.673   4.066  0.2723 -0.3620 -0.5648
 1855SOL     ow 7417   0.516   4.665   2.275 -0.2452  0.1369 -0.4103
 1855SOL     hw 7418   0.423   4.644   2.268 -0.0673 -0.7831 -0.1238
 1855SOL     hw 7419   0.547   4.669   2.185 -0.5565  0.4494 -0.5061
 1855SOL     vw 7420   0.508   4.663   2.263 -0.2628  0.0570 -0.3852
 1856SOL     ow 7421   0.622   1.945   5.456 -0.0430  0.0926  0.1191
 1856SOL     hw 7422   0.672   1.974   5.380  0.1108 -1.3206 -0.3502
 1856SOL     hw 7423   0.550   2.007   5.463  0.7711  1.1152 -0.2654
 1856SOL     vw 7424   0.619   1.957   5.447  0.0847  0.0411  0.0064
 1857SOL     ow 7425   4.643   6.385   1.507  0.1223  0.1107  0.2095
 1857SOL     hw 7426   4.732   6.402   1.537  0.2679 -2.0148  1.1790
 1857SOL     hw 7427   4.614   6.310   1.559 -1.5253 -0.4690 -1.4249
 1857SOL     vw 7428   4.651   6.377   1.518 -0.0761 -0.2460  0.1218
 1858SOL     ow 7429   0.856   5.850   0.958 -0.1327  0.1229 -0.3987
 1858SOL     hw 7430   0.776   5.839   0.906 -0.6588  1.9037 -0.0394
 1858SOL     hw 7431   0.896   5.929   0.925 -0.5790  1.4351  1.9422
 1858SOL     vw 7432   0.851   5.859   0.947 -0.2610  0.5310 -0.0424
 1859SOL     ow 7433   2.369   6.642   3.868  0.0570  0.1179  0.3627
 1859SOL     hw 7434   2.382   6.729   3.905  0.7098  0.1691  0.0130
 1859SOL     hw 7435   2.396   6.650   3.777 -2.4404  0.2410 -0.4517
 1859SOL     vw 7436   2.374   6.655   3.861 -0.1863  0.1409  0.2091
 1860SOL     ow 7437   0.443   4.383   6.357 -0.1770  0.3107  0.0514
 1860SOL     hw 7438   0.362   4.334   6.341 -1.2152  1.8501  0.2867
 1860SOL     hw 7439   0.483   4.340   6.432 -1.0499 -0.1721  0.2592
 1860SOL     vw 7440   0.437   4.371   6.365 -0.4291  0.4499  0.1099
 1861SOL     ow 7441   1.383   6.909   0.476  0.0988 -0.2035 -0.0797
 1861SOL     hw 7442   1.291   6.916   0.501  0.2136 -1.2944  0.6952
 1861SOL     hw 7443   1.399   6.815   0.469  1.1524 -0.0248 -0.2043
 1861SOL     vw 7444   1.373   6.898   0.478  0.2530 -0.3238  0.0060
 1862SOL     ow 7445   1.769   0.498   3.400  0.7111  0.3207  0.3284
 1862SOL     hw 7446   1.831   0.537   3.337  0.3141  1.1235  0.4209
 1862SOL     hw 7447   1.813   0.419   3.431  2.6908  1.9788  2.0350
 1862SOL     vw 7448   1.783   0.493   3.396  0.9199  0.6454  0.5659
 1863SOL     ow 7449   2.465   6.489   4.675  0.3203  0.2874  0.2732
 1863SOL     hw 7450   2.457   6.550   4.749  0.1808  1.4081 -0.6498
 1863SOL     hw 7451   2.469   6.402   4.717 -2.2424  0.6496  1.5399
 1863SOL     vw 7452   2.464   6.485   4.691 -0.0361  0.4828  0.3185
 1864SOL     ow 7453   7.025   3.829   2.471 -0.5260 -0.1331 -0.3480
 1864SOL     hw 7454   7.061   3.914   2.495  0.5319 -1.0396  1.5205
 1864SOL     hw 7455   6.973   3.803   2.547 -0.6896 -1.2151 -0.8191
 1864SOL     vw 7456   7.023   3.837   2.484 -0.4079 -0.3955 -0.1637
 1865SOL     ow 7457   7.144   1.619   2.405 -0.9792 -0.3356 -0.2678
 1865SOL     hw 7458   7.182   1.631   2.492 -0.5621 -0.5205 -0.4229
 1865SOL     hw 7459   7.211   1.653   2.345 -0.4679 -1.9189 -0.6224
 1865SOL     vw 7460   7.158   1.625   2.409 -0.8566 -0.5689 -0.3351
 1866SOL     ow 7461   6.103   2.456   5.754 -0.1840 -0.0870 -0.2946
 1866SOL     hw 7462   6.145   2.374   5.780 -0.1405  0.0951  0.2295
 1866SOL     hw 7463   6.080   2.443   5.662 -1.9272 -1.4234  0.2735
 1866SOL     vw 7464   6.106   2.443   5.745 -0.4082 -0.2393 -0.1507
 1867SOL     ow 7465   0.741   0.474   5.360 -0.3378 -0.2788  0.2381
 1867SOL     hw 7466   0.800   0.422   5.414  3.1364  0.7069 -2.2991
 1867SOL     hw 7467   0.704   0.412   5.298  1.6749 -0.2521 -1.0488
 1867SOL     vw 7468   0.744   0.459   5.359  0.3861 -0.1452 -0.2666
 1868SOL     ow 7469   0.218   7.030   4.499  0.5790  0.3645 -0.2656
 1868SOL     hw 7470   0.222   7.001   4.408 -1.8107 -0.6688 -0.1013
 1868SOL     hw 7471   0.156   6.971   4.541 -0.2899  2.3623  1.4329
 1868SOL     vw 7472   0.210   7.019   4.493  0.1491  0.4916 -0.0198
 1869SOL     ow 7473   7.066   3.759   5.059 -0.3299  0.0926  0.5014
 1869SOL     hw 7474   7.069   3.673   5.017  2.8051  0.6186 -0.6479
 1869SOL     hw 7475   7.094   3.743   5.150  2.0438 -0.0025 -0.1704
 1869SOL     vw 7476   7.070   3.746   5.066  0.3967  0.1496  0.2613
 1870SOL     ow 7477   2.564   3.181   2.135  0.2763  0.3050  0.0227
 1870SOL     hw 7478   2.578   3.212   2.225  0.7125  0.1674  0.0052
 1870SOL     hw 7479   2.511   3.250   2.094  0.5207  0.6237  0.2336
 1870SOL     vw 7480   2.559   3.194   2.141  0.3659  0.3290  0.0482
 1871SOL     ow 7481   2.700   1.037   5.844  0.1426  0.0109  0.1375
 1871SOL     hw 7482   2.786   1.073   5.823  0.2461 -1.1405 -1.7283
 1871SOL     hw 7483   2.709   1.002   5.933  0.7787  2.1688  0.9725
 1871SOL     vw 7484   2.713   1.037   5.853  0.2401  0.1437  0.0014
 1872SOL     ow 7485   4.805   3.310   1.344  0.6093 -0.6581  0.5815
 1872SOL     hw 7486   4.861   3.260   1.285  1.4995 -0.5410  1.3013
 1872SOL     hw 7487   4.837   3.400   1.335 -0.9976 -0.1620 -0.7305
 1872SOL     vw 7488   4.816   3.315   1.335  0.5147 -0.5772  0.5034
 1873SOL     ow 7489   3.867   4.774   6.655  0.2418 -0.0109  0.1003
 1873SOL     hw 7490   3.949   4.755   6.700  1.1233  2.3824 -0.3759
 1873SOL     hw 7491   3.886   4.758   6.562  0.9438  2.6648 -0.2875
 1873SOL     vw 7492   3.880   4.769   6.648  0.4507  0.6583 -0.0134
 1874SOL     ow 7493   3.969   2.291   6.247 -0.9187  0.3098  0.2923
 1874SOL     hw 7494   3.880   2.256   6.238 -0.5785 -0.2339 -1.4399
 1874SOL     hw 7495   3.987   2.287   6.341 -2.7600  0.5608  0.6971
 1874SOL     vw 7496   3.960   2.286   6.258 -1.1166  0.2711  0.1171
 1875SOL     ow 7497   6.315   2.814   7.091 -0.8879 -0.8555 -0.6231
 1875SOL     hw 7498   6.303   2.822   6.996 -0.3080  3.8379 -0.5223
 1875SOL     hw 7499   6.246   2.869   7.128  0.1454 -0.9808  1.6222
 1875SOL     vw 7500   6.304   2.822   7.083 -0.6752 -0.2526 -0.3135
 1876SOL     ow 7501   1.906   1.563   2.189  0.4833  0.1237 -0.3694
 1876SOL     hw 7502   1.835   1.515   2.232  0.6088  0.8375  0.6745
 1876SOL     hw 7503   1.906   1.531   2.099 -0.3224 -0.8226 -0.0463
 1876SOL     vw 7504   1.897   1.552   2.183  0.3936  0.0930 -0.1892
 1877SOL     ow 7505   4.749   2.401   6.731  0.2113  0.0217  0.0090
 1877SOL     hw 7506   4.791   2.424   6.648 -0.4711  0.9369 -0.1014
 1877SOL     hw 7507   4.697   2.322   6.711 -0.3166  0.5045 -0.5646
 1877SOL     vw 7508   4.748   2.393   6.717  0.0515  0.2062 -0.0811
 1878SOL     ow 7509   0.024   3.426   0.977 -0.1668 -0.1416  0.5263
 1878SOL     hw 7510  -0.067   3.450   0.964  0.1649  0.2117 -1.4685
 1878SOL     hw 7511   0.056   3.485   1.045 -1.2543  0.1491  0.7942
 1878SOL     vw 7512   0.016   3.437   0.984 -0.2665 -0.0565  0.2984
 1879SOL     ow 7513   5.906   1.705   1.081 -0.0954  0.3326 -0.3439
 1879SOL     hw 7514   5.909   1.648   1.004  1.0100 -1.4065  0.9271
 1879SOL     hw 7515   5.982   1.762   1.071  0.1769 -0.0424 -0.4259
 1879SOL     vw 7516   5.917   1.705   1.069  0.0861  0.0536 -0.1870
 1880SOL     ow 7517   2.348   3.632   1.260 -0.3400  0.0894 -0.6534
 1880SOL     hw 7518   2.310   3.572   1.324 -0.8119 -0.3883 -1.3747
 1880SOL     hw 7519   2.368   3.577   1.184 -0.9523  0.8688 -1.3951
 1880SOL     vw 7520   2.346   3.617   1.258 -0.4830  0.1291 -0.8464
 1881SOL     ow 7521   0.528   0.733   3.942  0.2046  0.1158  0.1096
 1881SOL     hw 7522   0.516   0.821   3.905 -2.0273  0.2789  1.0386
 1881SOL     hw 7523   0.573   0.748   4.025 -1.3407  0.6013  0.9118
 1881SOL     vw 7524   0.532   0.747   3.948 -0.2938  0.2013  0.3381
 1882SOL     ow 7525   0.333   2.555   4.906 -0.0517 -0.4383  0.4995
 1882SOL     hw 7526   0.293   2.588   4.987  3.5261  0.2125  2.2160
 1882SOL     hw 7527   0.379   2.630   4.870  1.4891 -1.6052 -0.0609
 1882SOL     vw 7528   0.334   2.569   4.912  0.6236 -0.5064  0.6518
 1883SOL     ow 7529   0.463   2.432   1.473 -0.1597  0.0940 -0.6310
 1883SOL     hw 7530   0.497   2.470   1.554 -0.2987 -1.2185  0.0598
 1883SOL     hw 7531   0.526   2.363   1.451 -1.8802 -1.8406  0.2240
 1883SOL     vw 7532   0.476   2.428   1.481 -0.4050 -0.3344 -0.4271
 1884SOL     ow 7533   5.006   3.416   1.968 -0.0321  0.5821 -0.4891
 1884SOL     hw 7534   5.058   3.359   1.912 -1.1331 -0.3743 -0.5748
 1884SOL     hw 7535   5.071   3.462   2.022  1.0053  1.1854 -2.2009
 1884SOL     vw 7536   5.021   3.415   1.968 -0.0408  0.5355 -0.7263
 1885SOL     ow 7537   5.408   0.882   4.959  0.8255 -0.1370 -0.9613
 1885SOL     hw 7538   5.448   0.908   5.042 -0.1837 -2.3305  0.3052
 1885SOL     hw 7539   5.476   0.897   4.893  1.8544  1.0951  0.3415
 1885SOL     vw 7540   5.422   0.887   4.961  0.8280 -0.2638 -0.6223
 1886SOL     ow 7541   4.927   2.416   3.367 -0.1637  1.0183 -0.8320
 1886SOL     hw 7542   4.955   2.464   3.445  0.2842  0.5034 -0.6716
 1886SOL     hw 7543   4.832   2.409   3.377  0.0457 -0.6801  0.6577
 1886SOL     vw 7544   4.918   2.421   3.379 -0.0768  0.7263 -0.6143
 1887SOL     ow 7545   6.299   6.687   2.115  0.4440  0.4853 -0.0403
 1887SOL     hw 7546   6.296   6.670   2.209  0.2271  1.2227  0.0944
 1887SOL     hw 7547   6.379   6.644   2.085 -0.8560 -2.1065 -0.0243
 1887SOL     vw 7548   6.309   6.679   2.123  0.2437  0.2406 -0.0204
 1888SOL     ow 7549   2.771   6.856   6.430  0.0794 -0.3326  0.5085
 1888SOL     hw 7550   2.841   6.916   6.454  0.0446  0.7277 -1.7709
 1888SOL     hw 7551   2.814   6.770   6.427  0.9364  0.0835  0.5242
 1888SOL     vw 7552   2.786   6.852   6.433  0.1879 -0.1376  0.2096
 1889SOL     ow 7553   2.426   2.729   5.609  0.0738 -0.9676 -0.1103
 1889SOL     hw 7554   2.469   2.791   5.550 -1.6109 -2.6090 -3.3538
 1889SOL     hw 7555   2.363   2.782   5.657  1.8842  0.5277  0.7607
 1889SOL     vw 7556   2.423   2.745   5.607  0.0905 -0.9869 -0.4232
 1890SOL     ow 7557   5.320   1.536   0.104 -0.0717  0.1612  0.1198
 1890SOL     hw 7558   5.311   1.606   0.038 -1.0436  1.5300  1.6301
 1890SOL     hw 7559   5.246   1.478   0.087 -0.2476  0.4353 -0.0570
 1890SOL     vw 7560   5.309   1.538   0.093 -0.2232  0.3780  0.2957
 1891SOL     ow 7561   6.588   3.433   3.655  0.2763  0.2336 -0.5802
 1891SOL     hw 7562   6.546   3.474   3.579 -0.4869  0.4488 -0.0524
 1891SOL     hw 7563   6.600   3.504   3.718  1.7391  0.2403 -0.8317
 1891SOL     vw 7564   6.584   3.448   3.653  0.3688  0.2629 -0.5436
 1892SOL     ow 7565   2.256   0.482   2.666  0.2313  0.1141 -0.3832
 1892SOL     hw 7566   2.349   0.465   2.683 -0.0152  0.1044  1.1185
 1892SOL     hw 7567   2.215   0.473   2.752 -1.1666  0.1036 -1.0374
 1892SOL     vw 7568   2.263   0.479   2.680  0.0144  0.1114 -0.2714
 1893SOL     ow 7569   2.366   4.113   5.801  0.2997 -0.7165  0.0269
 1893SOL     hw 7570   2.323   4.095   5.885  0.5201 -2.3116 -0.1707
 1893SOL     hw 7571   2.459   4.104   5.819  0.4342  0.3040 -0.0984
 1893SOL     vw 7572   2.372   4.109   5.815  0.3465 -0.7925 -0.0155
 1894SOL     ow 7573   6.428   3.184   2.964 -0.2259 -0.0740 -0.2401
 1894SOL     hw 7574   6.414   3.170   3.058  0.8813 -0.9940 -0.1851
 1894SOL     hw 7575   6.400   3.103   2.923 -0.1609  0.1071 -0.6438
 1894SOL     vw 7576   6.423   3.171   2.971 -0.0710 -0.1717 -0.2861
 1895SOL     ow 7577   5.853   4.825   2.173  0.5492 -0.4106  0.3849
 1895SOL     hw 7578   5.919   4.769   2.133 -0.0106  0.1750 -1.4534
 1895SOL     hw 7579   5.804   4.861   2.099 -0.3694  0.9534  1.6059
 1895SOL     vw 7580   5.855   4.822   2.158  0.3543 -0.1533  0.3034
 1896SOL     ow 7581   3.816   6.721   2.979 -0.6071  0.2996  0.1803
 1896SOL     hw 7582   3.869   6.651   3.019  0.7278  0.4175 -1.3208
 1896SOL     hw 7583   3.805   6.785   3.050 -0.7454 -0.8076  1.2006
 1896SOL     vw 7584   3.822   6.720   2.994 -0.4493  0.1693  0.1168
 1897SOL     ow 7585   0.560   7.091   5.983 -0.2032 -0.4161  0.0126
 1897SOL     hw 7586   0.529   7.111   5.894  1.5265 -0.9276 -0.7452
 1897SOL     hw 7587   0.532   7.000   5.997 -1.0577 -0.1227  0.2736
 1897SOL     vw 7588   0.552   7.082   5.973 -0.0878 -0.4449 -0.0529
 1898SOL     ow 7589   6.096   1.306   2.789 -0.0007 -0.0419  0.0817
 1898SOL     hw 7590   6.137   1.311   2.702  1.7578 -0.4985  0.8306
 1898SOL     hw 7591   6.007   1.336   2.775  0.3789  0.3641 -1.7963
 1898SOL     vw 7592   6.090   1.310   2.776  0.2813 -0.0486 -0.0671
 1899SOL     ow 7593   4.105   0.944   5.546  0.4903 -0.2566 -0.3729
 1899SOL     hw 7594   4.063   0.973   5.465 -0.1423  0.7536  0.2897
 1899SOL     hw 7595   4.046   0.877   5.580 -0.3383  0.7570  0.2638
 1899SOL     vw 7596   4.091   0.939   5.540  0.2978  0.0104 -0.2017
 1900SOL     ow 7597   3.164   3.476   2.815 -0.0947 -0.3432 -0.0619
 1900SOL     hw 7598   3.228   3.532   2.860 -1.6051  0.8545  0.6986
 1900SOL     hw 7599   3.209   3.447   2.736  1.6335 -0.1347  0.7909
 1900SOL     vw 7600   3.178   3.479   2.811 -0.0660 -0.1576  0.1510
 1901SOL     ow 7601   6.344   2.359   3.146 -0.4745  0.1101 -0.3813
 1901SOL     hw 7602   6.270   2.306   3.117  1.4668 -1.1085 -3.7099
 1901SOL     hw 7603   6.419   2.301   3.138  1.1726  2.0366  0.4108
 1901SOL     vw 7604   6.344   2.344   3.141 -0.0010  0.2035 -0.7160
 1902SOL     ow 7605   6.907   6.740   6.052 -0.6719  0.4395 -0.2585
 1902SOL     hw 7606   6.816   6.743   6.081 -0.6111  0.9101 -0.1035
 1902SOL     hw 7607   6.936   6.651   6.073  0.3196  1.5752  4.1244
 1902SOL     vw 7608   6.899   6.728   6.058 -0.5331  0.6514  0.3402
 1903SOL     ow 7609   6.523   1.507   2.732  0.2196 -0.0856  0.2838
 1903SOL     hw 7610   6.532   1.601   2.749 -0.5644 -0.2803  1.9998
 1903SOL     hw 7611   6.461   1.501   2.660  0.6076  0.7197 -0.1291
 1903SOL     vw 7612   6.516   1.519   2.725  0.1674 -0.0051  0.4557
 1904SOL     ow 7613   6.208   4.758   5.244  0.2230  0.0059 -0.0107
 1904SOL     hw 7614   6.169   4.763   5.157 -0.6510 -0.5717  0.3427
 1904SOL     hw 7615   6.287   4.705   5.232 -0.1004 -0.3954 -0.3850
 1904SOL     vw 7616   6.214   4.752   5.231  0.0651 -0.1230 -0.0136
 1905SOL     ow 7617   0.910   0.881   5.515 -0.1275  0.2220  0.0320
 1905SOL     hw 7618   0.953   0.939   5.577 -0.5876  0.0554  0.5115
 1905SOL     hw 7619   0.870   0.813   5.569 -0.1533 -0.1761 -0.4764
 1905SOL     vw 7620   0.910   0.880   5.530 -0.1916  0.1474  0.0279
 1906SOL     ow 7621   5.662   4.521   5.620 -0.0068 -0.0582 -0.1275
 1906SOL     hw 7622   5.579   4.522   5.574 -0.2821  0.3352  0.3699
 1906SOL     hw 7623   5.640   4.542   5.711  0.7024  0.6509 -0.1077
 1906SOL     vw 7624   5.648   4.524   5.626  0.0503  0.0875 -0.0591
 1907SOL     ow 7625   1.019   4.142   5.468  0.1058  0.5439  0.2421
 1907SOL     hw 7626   1.016   4.146   5.373 -1.4025 -0.5524  0.2058
 1907SOL     hw 7627   1.112   4.147   5.490  0.5044  0.3335 -1.3121
 1907SOL     vw 7628   1.031   4.143   5.458 -0.0406  0.3719  0.0324
 1908SOL     ow 7629   6.247   0.673   4.106 -0.2180  0.0179 -1.0653
 1908SOL     hw 7630   6.311   0.700   4.172 -0.6567 -2.1285  0.3401
 1908SOL     hw 7631   6.192   0.750   4.094  0.9152  1.0128 -0.2184
 1908SOL     vw 7632   6.248   0.687   4.113 -0.1264 -0.1340 -0.7682
 1909SOL     ow 7633   4.785   1.073   7.108  0.3524 -0.2288  0.3255
 1909SOL     hw 7634   4.810   1.015   7.180  0.2370  1.0189  1.4062
 1909SOL     hw 7635   4.739   1.146   7.150  0.8962  0.8912 -0.9429
 1909SOL     vw 7636   4.782   1.075   7.123  0.4091  0.0837  0.3007
 1910SOL     ow 7637   5.231   5.100   5.602  0.0553 -0.1891 -0.0737
 1910SOL     hw 7638   5.294   5.030   5.621  2.4153  0.9082 -2.9570
 1910SOL     hw 7639   5.275   5.180   5.632 -1.4984  0.3349  0.8996
 1910SOL     vw 7640   5.245   5.102   5.609  0.1616  0.0248 -0.3259
 1911SOL     ow 7641   2.035   2.414   6.553 -0.7199 -0.9565  0.8960
 1911SOL     hw 7642   2.073   2.328   6.571  2.3328  0.2088  0.7182
 1911SOL     hw 7643   2.034   2.458   6.638  1.4253  0.0679  0.4765
 1911SOL     vw 7644   2.040   2.408   6.567 -0.0341 -0.6675  0.8173
 1912SOL     ow 7645   5.154   5.865   2.434 -0.1370  0.1398  0.6060
 1912SOL     hw 7646   5.160   5.923   2.358 -1.7596 -1.7244 -1.0992
 1912SOL     hw 7647   5.064   5.876   2.465  0.0197 -0.3182  1.2400
 1912SOL     vw 7648   5.143   5.874   2.428 -0.3304 -0.1669  0.4648
 1913SOL     ow 7649   2.681   6.895   0.221  0.1946 -0.5295  0.2398
 1913SOL     hw 7650   2.628   6.841   0.281 -0.4850  0.8883  0.9622
 1913SOL     hw 7651   2.768   6.896   0.261  0.3834 -1.5889 -0.1168
 1913SOL     vw 7652   2.686   6.888   0.234  0.1297 -0.4821  0.2881
 1914SOL     ow 7653   5.564   1.703   6.718  0.1237  0.0499 -0.3838
 1914SOL     hw 7654   5.484   1.651   6.705 -1.9688  1.3716  4.7292
 1914SOL     hw 7655   5.606   1.664   6.794  2.8232  1.2495 -1.1344
 1914SOL     vw 7656   5.559   1.691   6.726  0.2038  0.3825  0.1922
 1915SOL     ow 7657   5.087   1.894   0.699 -0.4108 -0.0092  0.3355
 1915SOL     hw 7658   5.122   1.956   0.636 -0.3477 -0.2649  0.1171
 1915SOL     hw 7659   5.162   1.841   0.725 -0.0425  1.2750  2.0216
 1915SOL     vw 7660   5.102   1.895   0.694 -0.3538  0.1265  0.5292
 1916SOL     ow 7661   6.540   1.374   7.104  0.4397  0.3104 -0.4383
 1916SOL     hw 7662   6.554   1.468   7.091  0.1071  0.2001 -1.8110
 1916SOL     hw 7663   6.452   1.367   7.141  0.4505  0.5429 -0.3691
 1916SOL     vw 7664   6.530   1.386   7.107  0.3972  0.3266 -0.6103
 1917SOL     ow 7665   1.209   0.181   0.662 -0.3868 -0.4858  0.3253
 1917SOL     hw 7666   1.179   0.150   0.576 -0.8433  1.1704 -0.1443
 1917SOL     hw 7667   1.128   0.207   0.707 -0.0160  0.0382  0.6925
 1917SOL     vw 7668   1.194   0.180   0.657 -0.3982 -0.1981  0.3118
 1918SOL     ow 7669   0.394   3.473   2.744 -0.2709 -0.4416  0.1107
 1918SOL     hw 7670   0.373   3.519   2.826 -1.0590 -1.7492  0.6704
 1918SOL     hw 7671   0.462   3.410   2.768 -0.8772 -1.1941 -0.1183
 1918SOL     vw 7672   0.400   3.471   2.758 -0.4549 -0.7133  0.1544
 1919SOL     ow 7673   0.436   5.960   1.782 -0.0275  0.0620  0.9004
 1919SOL     hw 7674   0.436   5.929   1.872  0.3135 -2.6824  0.0582
 1919SOL     hw 7675   0.526   5.945   1.751  0.8604  4.0799  0.9571
 1919SOL     vw 7676   0.448   5.954   1.790  0.1346  0.2298  0.7967
 1920SOL     ow 7677   0.205   1.059   7.049  0.2622  0.1862 -0.2778
 1920SOL     hw 7678   0.272   1.126   7.039  0.1640 -0.0301 -3.5109
 1920SOL     hw 7679   0.122   1.106   7.034 -0.0107 -0.1893  0.0448
 1920SOL     vw 7680   0.203   1.074   7.046  0.2132  0.1082 -0.6618
 1921SOL     ow 7681   2.032   2.422   0.408 -0.2519  0.2744 -0.2030
 1921SOL     hw 7682   2.000   2.511   0.420 -2.7433 -0.1370 -2.6972
 1921SOL     hw 7683   2.043   2.413   0.313  1.8363 -1.5113  0.1327
 1921SOL     vw 7684   2.029   2.433   0.397 -0.3053 -0.0156 -0.4878
 1922SOL     ow 7685   1.784   5.520   6.704 -0.0343 -0.2054 -0.1253
 1922SOL     hw 7686   1.863   5.522   6.649  0.8778 -1.8657  1.0554
 1922SOL     hw 7687   1.712   5.533   6.642  1.1195  1.0269 -1.2805
 1922SOL     vw 7688   1.785   5.522   6.689  0.2383 -0.2618 -0.1218
 1923SOL     ow 7689   6.671   2.832   2.262  0.3571  0.8186 -0.1197
 1923SOL     hw 7690   6.601   2.897   2.267  1.0885  1.5825  0.3246
 1923SOL     hw 7691   6.691   2.811   2.353 -0.0754 -0.2631 -0.2612
 1923SOL     vw 7692   6.665   2.838   2.274  0.3965  0.7766 -0.0799
 1924SOL     ow 7693   3.575   7.171   5.621 -0.1954 -0.4869 -0.0628
 1924SOL     hw 7694   3.609   7.230   5.688  0.0886 -1.9402  1.1310
 1924SOL     hw 7695   3.505   7.220   5.579 -1.1981  0.0573  2.1062
 1924SOL     vw 7696   3.570   7.185   5.624 -0.2903 -0.6070  0.3810
 1925SOL     ow 7697   0.861   0.737   5.224 -0.2595 -0.2678 -0.0323
 1925SOL     hw 7698   0.794   0.798   5.193  0.8769  1.5584  0.9942
 1925SOL     hw 7699   0.811   0.659   5.250 -2.3194  1.8121  2.7940
 1925SOL     vw 7700   0.845   0.735   5.223 -0.3814  0.2475  0.4761
 1926SOL     ow 7701   3.050   7.014   1.447 -0.1258  0.3388 -0.0191
 1926SOL     hw 7702   3.106   6.966   1.508  1.2879  0.2616 -1.3075
 1926SOL     hw 7703   3.014   6.946   1.389  1.5120  0.6887 -1.5549
 1926SOL     vw 7704   3.053   6.999   1.447  0.2769  0.3750 -0.3917
 1927SOL     ow 7705   6.629   6.033   5.677 -0.6511 -0.0341  0.5257
 1927SOL     hw 7706   6.647   6.126   5.687  0.5705  0.4692 -3.8933
 1927SOL     hw 7707   6.698   5.989   5.726 -0.2121  1.4366  1.2573
 1927SOL     vw 7708   6.641   6.039   5.684 -0.4318  0.2260  0.0393
 1928SOL     ow 7709   6.828   2.818   6.064 -0.1572 -0.2913  0.1422
 1928SOL     hw 7710   6.900   2.862   6.110 -0.3215 -1.2849  1.3928
 1928SOL     hw 7711   6.857   2.815   5.972  1.6163 -1.0531  0.6679
 1928SOL     vw 7712   6.842   2.824   6.058  0.0551 -0.5229  0.3762
 1929SOL     ow 7713   2.860   1.749   6.823 -0.0538  0.2308 -0.5708
 1929SOL     hw 7714   2.841   1.670   6.874  1.3806  0.6533  0.6752
 1929SOL     hw 7715   2.849   1.821   6.885  1.8466  0.7505 -0.7671
 1929SOL     vw 7716   2.856   1.748   6.838  0.3862  0.3551 -0.4325
 1930SOL     ow 7717   6.306   4.801   2.097 -0.4625  0.4693  0.4952
 1930SOL     hw 7718   6.290   4.769   2.185 -0.4184 -0.1768  0.2702
 1930SOL     hw 7719   6.256   4.743   2.040  0.1930  0.3535  0.0260
 1930SOL     vw 7720   6.297   4.789   2.101 -0.3698  0.3691  0.4038
 1931SOL     ow 7721   5.749   1.284   5.901 -0.0629 -0.0792  0.3685
 1931SOL     hw 7722   5.780   1.210   5.954 -0.7788 -0.4296  0.3038
 1931SOL     hw 7723   5.814   1.292   5.831  0.0167 -0.6450  0.3757
 1931SOL     vw 7724   5.762   1.275   5.899 -0.1466 -0.2002  0.3610
 1932SOL     ow 7725   0.813   2.624   3.749  0.0668 -0.1972  0.0316
 1932SOL     hw 7726   0.834   2.711   3.715  1.5270 -1.3443 -2.2305
 1932SOL     hw 7727   0.897   2.587   3.776 -0.3285 -1.3964 -0.3053
 1932SOL     vw 7728   0.827   2.630   3.748  0.2074 -0.5070 -0.3111
 1933SOL     ow 7729   4.158   3.048   5.225 -0.6222  0.4749  0.1177
 1933SOL     hw 7730   4.155   3.123   5.166 -0.0242  0.5059  0.1233
 1933SOL     hw 7731   4.217   3.075   5.295  1.4840 -0.8201 -1.0538
 1933SOL     vw 7732   4.165   3.061   5.226 -0.2658  0.3083 -0.0362
 1934SOL     ow 7733   0.643   1.834   5.754 -0.0293  0.1079 -0.5565
 1934SOL     hw 7734   0.646   1.739   5.765  1.9473 -0.0606 -1.9510
 1934SOL     hw 7735   0.559   1.860   5.791 -0.5898 -2.1629 -0.0697
 1934SOL     vw 7736   0.633   1.825   5.760  0.1575 -0.2140 -0.6764
 1935SOL     ow 7737   0.736   3.321   1.828 -0.5132  0.3415  0.0480
 1935SOL     hw 7738   0.708   3.351   1.915 -1.3771  1.7287 -0.6693
 1935SOL     hw 7739   0.703   3.388   1.768 -0.7799 -1.0871 -1.4610
 1935SOL     vw 7740   0.728   3.334   1.832 -0.6624  0.3359 -0.2457
 1936SOL     ow 7741   0.853   3.109   6.099 -0.3119  0.5028  0.1398
 1936SOL     hw 7742   0.827   3.017   6.110 -0.4643  0.6593  1.1817
 1936SOL     hw 7743   0.778   3.159   6.131  1.1120  0.9712  3.0316
 1936SOL     vw 7744   0.839   3.103   6.104 -0.1441  0.5853  0.6588
 1937SOL     ow 7745   2.582   5.861   1.231 -0.3603  0.6216 -0.5871
 1937SOL     hw 7746   2.644   5.840   1.161 -1.5457  2.1747 -2.2063
 1937SOL     hw 7747   2.619   5.937   1.275  0.1993 -0.1288  0.2820
 1937SOL     vw 7748   2.595   5.868   1.227 -0.4427  0.7274 -0.6860
 1938SOL     ow 7749   0.940   3.844   0.970  0.3327 -0.5673  0.3606
 1938SOL     hw 7750   0.947   3.920   1.028  0.0876  0.3360 -0.7662
 1938SOL     hw 7751   0.858   3.802   0.995 -0.3843  0.5128 -0.1359
 1938SOL     vw 7752   0.930   3.848   0.981  0.2057 -0.3055  0.1464
 1939SOL     ow 7753   1.880   3.238   0.796 -0.3994  0.4030 -0.1806
 1939SOL     hw 7754   1.945   3.301   0.766  1.1738 -0.4073  1.3252
 1939SOL     hw 7755   1.929   3.176   0.849 -1.9840 -1.7595 -1.0837
 1939SOL     vw 7756   1.895   3.238   0.799 -0.4009  0.0108 -0.1010
 1940SOL     ow 7757   5.022   1.063   6.125  0.2451 -0.0014  0.0850
 1940SOL     hw 7758   4.973   1.038   6.046  0.7948  0.9479 -0.5852
 1940SOL     hw 7759   5.090   1.121   6.092  0.7870  0.0179  1.2185
 1940SOL     vw 7760   5.024   1.067   6.110  0.3891  0.1264  0.1462
 1941SOL     ow 7761   2.728   4.762   3.697 -0.5572  0.0401  0.5845
 1941SOL     hw 7762   2.799   4.824   3.680  1.2698 -1.5074  2.0134
 1941SOL     hw 7763   2.676   4.762   3.617  0.1727  2.3496  0.0349
 1941SOL     vw 7764   2.731   4.770   3.684 -0.2199  0.1404  0.7005
 1942SOL     ow 7765   3.674   1.485   6.164 -0.9366  0.5841 -0.2737
 1942SOL     hw 7766   3.723   1.423   6.219  0.8104  0.9411 -1.3270
 1942SOL     hw 7767   3.616   1.530   6.225  0.5191  0.5846  1.2137
 1942SOL     vw 7768   3.673   1.482   6.180 -0.5141  0.6312 -0.2162
 1943SOL     ow 7769   1.929   3.093   4.861  0.0329 -0.1526  0.7581
 1943SOL     hw 7770   2.021   3.097   4.886  0.5014 -2.3267 -0.4146
 1943SOL     hw 7771   1.890   3.030   4.922  0.6878 -3.7061 -2.1173
 1943SOL     vw 7772   1.936   3.085   4.872  0.1811 -0.9083  0.2241
 1944SOL     ow 7773   5.779   3.633   1.174 -0.1281  0.5524  0.6214
 1944SOL     hw 7774   5.799   3.572   1.245  1.6956  0.3968  0.0144
 1944SOL     hw 7775   5.853   3.694   1.173 -1.2745  1.9836  0.3511
 1944SOL     vw 7776   5.791   3.633   1.183 -0.0386  0.7206  0.5057
 1945SOL     ow 7777   4.173   4.086   6.724 -0.0076  0.3080  0.4241
 1945SOL     hw 7778   4.112   4.153   6.755 -0.0047  0.1180  0.8410
 1945SOL     hw 7779   4.118   4.010   6.707 -0.2182  0.7944 -1.3086
 1945SOL     vw 7780   4.158   4.085   6.726 -0.0353  0.3471  0.2503
 1946SOL     ow 7781   3.627   1.017   5.593  0.4374  0.4068  0.0039
 1946SOL     hw 7782   3.645   0.949   5.657 -1.4999  0.3362  0.5529
 1946SOL     hw 7783   3.628   1.098   5.644 -1.5417  0.3088  0.2972
 1946SOL     vw 7784   3.629   1.019   5.608 -0.0793  0.3846  0.1154
 1947SOL     ow 7785   5.652   3.474   3.255 -0.6383 -0.1950 -0.4371
 1947SOL     hw 7786   5.559   3.467   3.231 -0.2325 -0.2919 -2.0692
 1947SOL     hw 7787   5.665   3.567   3.273 -0.9192 -0.0759 -0.8235
 1947SOL     vw 7788   5.641   3.485   3.254 -0.6220 -0.1920 -0.7033
 1948SOL     ow 7789   0.047   4.320   6.431 -0.1241 -0.0425 -0.7613
 1948SOL     hw 7790   0.004   4.385   6.487  0.0213  0.0246 -0.7285
 1948SOL     hw 7791  -0.010   4.243   6.437  1.0738 -0.8432  1.2914
 1948SOL     vw 7792   0.034   4.318   6.439  0.0531 -0.1395 -0.4861
 1949SOL     ow 7793   4.938   1.259   4.861 -0.1922 -0.0790 -0.3234
 1949SOL     hw 7794   4.927   1.350   4.886 -0.5099 -0.0647 -0.5180
 1949SOL     hw 7795   4.850   1.223   4.859  0.0345 -0.8231  1.3383
 1949SOL     vw 7796   4.925   1.266   4.864 -0.2043 -0.1753 -0.1297
 1950SOL     ow 7797   4.043   4.762   5.195 -0.4969  0.3444 -1.0039
 1950SOL     hw 7798   3.968   4.704   5.188 -0.4518  0.1492 -0.0169
 1950SOL     hw 7799   4.064   4.764   5.288 -0.6016  2.0675 -0.9728
 1950SOL     vw 7800   4.036   4.755   5.206 -0.5047  0.5462 -0.8698
 1951SOL     ow 7801   6.092   2.817   5.518  0.5143  0.4328  0.1698
 1951SOL     hw 7802   6.183   2.846   5.529  0.1888  0.9021  1.8721
 1951SOL     hw 7803   6.060   2.805   5.608 -1.2052  0.5572 -0.4054
 1951SOL     vw 7804   6.100   2.819   5.532  0.2446  0.5113  0.3185
 1952SOL     ow 7805   3.604   1.850   6.066 -0.4237  0.2238 -0.0000
 1952SOL     hw 7806   3.595   1.810   5.980  0.4504  1.5039 -0.7080
 1952SOL     hw 7807   3.543   1.924   6.065  2.2898  2.6333 -1.0290
 1952SOL     vw 7808   3.595   1.854   6.055  0.0496  0.7106 -0.2294
 1953SOL     ow 7809   3.859   5.208   6.126  0.1477 -0.0018 -0.1189
 1953SOL     hw 7810   3.807   5.245   6.055  0.9869  0.7828 -0.3529
 1953SOL     hw 7811   3.831   5.256   6.204  1.8320  1.8468 -0.5555
 1953SOL     vw 7812   3.849   5.219   6.127  0.4807  0.3455 -0.2072
 1954SOL     ow 7813   2.675   6.554   4.520 -0.1191 -0.0804 -0.3073
 1954SOL     hw 7814   2.655   6.640   4.557  2.5406  0.0837  1.0037
 1954SOL     hw 7815   2.617   6.494   4.567  0.7654  0.5591  1.7007
 1954SOL     vw 7816   2.665   6.557   4.531  0.3486  0.0255  0.1304
 1955SOL     ow 7817   6.043   2.933   4.979 -0.2930 -0.4642  0.7594
 1955SOL     hw 7818   6.025   2.842   5.004 -1.7866 -0.9673 -1.7814
 1955SOL     hw 7819   6.131   2.949   5.012  0.1557 -2.9577  1.0258
 1955SOL     vw 7820   6.052   2.923   4.986 -0.4311 -0.8595  0.4592
 1956SOL     ow 7821   2.839   3.473   4.659 -0.2304 -0.6886 -0.4234
 1956SOL     hw 7822   2.894   3.533   4.609 -0.2121 -0.3206  0.0350
 1956SOL     hw 7823   2.775   3.440   4.596 -0.5737  0.2196 -0.5565
 1956SOL     vw 7824   2.838   3.476   4.644 -0.2733 -0.5202 -0.3803
 1957SOL     ow 7825   1.751   3.303   3.556  0.4010 -0.4083  0.5118
 1957SOL     hw 7826   1.791   3.373   3.504  0.3552 -0.2867  0.6397
 1957SOL     hw 7827   1.753   3.227   3.499 -1.0459  0.0915 -0.2492
 1957SOL     vw 7828   1.756   3.302   3.542  0.2040 -0.3262  0.4282
 1958SOL     ow 7829   6.743   1.675   0.206 -0.2197  0.2937  0.6102
 1958SOL     hw 7830   6.733   1.735   0.132  1.8755  0.3712  0.3244
 1958SOL     hw 7831   6.787   1.598   0.169  2.0745  0.8675  1.9428
 1958SOL     vw 7832   6.748   1.673   0.191  0.3595  0.3796  0.7483
 1959SOL     ow 7833   5.949   3.033   2.267  0.1025  0.4181 -0.1923
 1959SOL     hw 7834   5.862   3.057   2.300 -0.0803 -0.6721  0.1638
 1959SOL     hw 7835   5.993   2.993   2.342 -0.2108 -1.8531 -1.1355
 1959SOL     vw 7836   5.943   3.031   2.281  0.0370 -0.0254 -0.2697
 1960SOL     ow 7837   0.216   2.954   4.551  0.0415  0.1127  0.0818
 1960SOL     hw 7838   0.223   3.029   4.609  1.4845 -0.6030  0.8818
 1960SOL     hw 7839   0.306   2.925   4.538 -0.4284 -1.0228 -0.8354
 1960SOL     vw 7840   0.229   2.960   4.557  0.1699 -0.1315  0.0665
 1961SOL     ow 7841   2.343   0.341   5.505 -0.2679 -0.6908  0.6410
 1961SOL     hw 7842   2.400   0.280   5.457 -0.6299 -0.0106 -0.6883
 1961SOL     hw 7843   2.298   0.285   5.569  0.3819 -1.5863  0.3471
 1961SOL     vw 7844   2.345   0.325   5.507 -0.2301 -0.7192  0.4270
 1962SOL     ow 7845   1.590   6.038   2.875  0.0581 -0.0817 -0.0029
 1962SOL     hw 7846   1.672   5.992   2.861  0.2128  0.5269 -1.2153
 1962SOL     hw 7847   1.526   5.968   2.890  0.7520 -0.5607  0.8566
 1962SOL     vw 7848   1.592   6.023   2.875  0.1701 -0.0646 -0.0495
 1963SOL     ow 7849   1.563   6.137   1.622 -0.1135  0.2926 -0.1737
 1963SOL     hw 7850   1.497   6.199   1.591 -0.4437 -0.1723 -0.4051
 1963SOL     hw 7851   1.568   6.153   1.716  1.2812  2.0870 -0.4993
 1963SOL     vw 7852   1.555   6.148   1.630  0.0270  0.4680 -0.2472
 1964SOL     ow 7853   0.189   2.640   4.573 -0.3651  0.0078  0.0744
 1964SOL     hw 7854   0.140   2.713   4.535  2.3907  1.1688 -1.5724
 1964SOL     hw 7855   0.257   2.682   4.626  0.7329 -1.3931 -0.1765
 1964SOL     vw 7856   0.192   2.655   4.575  0.1433 -0.0240 -0.1760
 1965SOL     ow 7857   0.976   0.365   5.508  0.9573  0.1815 -0.0437
 1965SOL     hw 7858   1.029   0.302   5.458  0.7794 -0.2552  0.3040
 1965SOL     hw 7859   1.037   0.405   5.569  1.9873  3.3005 -2.8851
 1965SOL     vw 7860   0.991   0.362   5.510  1.0698  0.5354 -0.3729
 1966SOL     ow 7861   6.010   4.477   0.591 -0.1462  0.1367  0.4168
 1966SOL     hw 7862   5.961   4.559   0.599 -0.5158 -0.1419  1.1322
 1966SOL     hw 7863   6.034   4.472   0.499  2.8013  2.7444  0.8340
 1966SOL     vw 7864   6.007   4.487   0.580  0.1941  0.4439  0.5662
 1967SOL     ow 7865   6.893   0.233   3.446  0.1672  0.3118 -0.0444
 1967SOL     hw 7866   6.935   0.242   3.532  0.8784  0.6204 -0.4201
 1967SOL     hw 7867   6.800   0.233   3.465  0.2949  1.3201  0.6450
 1967SOL     vw 7868   6.887   0.234   3.460  0.2778  0.4856 -0.0030
 1968SOL     ow 7869   6.534   3.905   5.447 -0.0297  0.2594  0.8079
 1968SOL     hw 7870   6.465   3.840   5.434  0.8078 -0.3713 -0.7675
 1968SOL     hw 7871   6.489   3.981   5.485 -1.9049  0.4082 -1.4920
 1968SOL     vw 7872   6.519   3.907   5.451 -0.1664  0.1959  0.2964
 1969SOL     ow 7873   7.156   3.516   4.962  0.5555  0.7007 -0.1912
 1969SOL     hw 7874   7.206   3.463   4.900 -1.1819 -1.7701  0.3845
 1969SOL     hw 7875   7.174   3.477   5.047 -2.5714 -0.6288 -0.0035
 1969SOL     vw 7876   7.165   3.504   4.965 -0.0863  0.1991 -0.0906
 1970SOL     ow 7877   4.460   0.097   5.001 -0.1133  0.2124 -0.3112
 1970SOL     hw 7878   4.374   0.077   4.965 -1.1999 -1.1690  2.6508
 1970SOL     hw 7879   4.443   0.160   5.071  1.4225  0.5910 -0.2422
 1970SOL     vw 7880   4.446   0.102   5.006 -0.0541  0.0801  0.0885
 1971SOL     ow 7881   3.372   6.813   6.856  0.2346  0.0897  0.5233
 1971SOL     hw 7882   3.351   6.720   6.845  1.5439 -0.7296  3.8203
 1971SOL     hw 7883   3.466   6.818   6.844  0.0760  1.2137 -0.4793
 1971SOL     vw 7884   3.381   6.801   6.853  0.3865  0.1299  0.8259
 1972SOL     ow 7885   4.654   0.036   5.210 -0.5642 -0.2275  0.5371
 1972SOL     hw 7886   4.687  -0.027   5.275  0.6143  0.5973  0.7735
 1972SOL     hw 7887   4.619   0.107   5.263 -0.7513 -0.1209  0.2668
 1972SOL     vw 7888   4.654   0.037   5.226 -0.4330 -0.1046  0.5329
 1973SOL     ow 7889   0.098   5.064   5.200 -0.3292  0.2569 -0.1275
 1973SOL     hw 7890   0.058   5.016   5.274  0.5964 -0.5707 -0.1445
 1973SOL     hw 7891   0.183   5.022   5.188  1.5082  3.2868  1.2369
 1973SOL     vw 7892   0.104   5.052   5.208  0.0354  0.5476  0.0501
 1974SOL     ow 7893   4.333   3.810   2.085 -0.6782  0.1985  0.3672
 1974SOL     hw 7894   4.424   3.820   2.110  0.2936  0.0436 -2.7055
 1974SOL     hw 7895   4.332   3.736   2.025 -3.3436 -1.5521  2.3231
 1974SOL     vw 7896   4.345   3.802   2.081 -0.9017 -0.0527  0.2198
 1975SOL     ow 7897   5.200   0.170   5.953  0.3248 -0.1312 -0.5968
 1975SOL     hw 7898   5.154   0.254   5.952  0.2218 -0.1892 -0.7638
 1975SOL     hw 7899   5.170   0.125   5.874  0.3507 -0.3411 -0.4887
 1975SOL     vw 7900   5.190   0.175   5.942  0.3147 -0.1666 -0.6046
 1976SOL     ow 7901   6.207   5.139   6.747  0.1593  0.2642  0.0354
 1976SOL     hw 7902   6.270   5.066   6.743 -0.9085 -0.7097  0.4639
 1976SOL     hw 7903   6.218   5.176   6.834  0.3808  0.3187 -0.0158
 1976SOL     vw 7904   6.217   5.134   6.758  0.0479  0.1431  0.0851
 1977SOL     ow 7905   1.202   1.243   2.169 -0.3262 -0.1660 -0.9488
 1977SOL     hw 7906   1.145   1.174   2.134  0.2034 -0.1505 -1.8686
 1977SOL     hw 7907   1.190   1.316   2.109  1.1270 -0.3781 -1.5269
 1977SOL     vw 7908   1.193   1.243   2.156 -0.0646 -0.1920 -1.1464
 1978SOL     ow 7909   5.276   2.304   3.640  0.3679 -0.6310  0.2384
 1978SOL     hw 7910   5.257   2.267   3.554 -0.3459 -0.9725  0.5359
 1978SOL     hw 7911   5.304   2.394   3.622 -1.7843 -0.0106 -0.2110
 1978SOL     vw 7912   5.277   2.311   3.626 -0.0103 -0.5943  0.2185
 1979SOL     ow 7913   0.500   7.150   4.454  0.5325 -0.5699 -0.4071
 1979SOL     hw 7914   0.576   7.200   4.484  0.0380 -0.4370  0.6784
 1979SOL     hw 7915   0.536   7.085   4.394  1.5363 -0.6249  0.2275
 1979SOL     vw 7916   0.515   7.148   4.450  0.5997 -0.5598 -0.1802
 1980SOL     ow 7917   3.825   1.434   5.577  0.3079 -0.3494 -0.0847
 1980SOL     hw 7918   3.778   1.512   5.606 -0.1660 -1.6327  2.9739
 1980SOL     hw 7919   3.821   1.439   5.481 -0.1206  3.0628 -0.0412
 1980SOL     vw 7920   3.818   1.445   5.568  0.1888 -0.0685  0.3245
 1981SOL     ow 7921   1.724   4.593   1.713  0.0033 -0.4956  0.0677
 1981SOL     hw 7922   1.672   4.549   1.780 -1.1062 -1.4080 -1.3386
 1981SOL     hw 7923   1.813   4.561   1.726 -0.0701 -0.1925  1.4587
 1981SOL     vw 7924   1.728   4.583   1.723 -0.1528 -0.5760  0.0657
 1982SOL     ow 7925   5.880   6.991   1.919  0.6251  0.4735 -0.5769
 1982SOL     hw 7926   5.838   7.028   1.841  1.6950  0.8886 -0.9673
 1982SOL     hw 7927   5.807   6.956   1.970 -0.0961  0.1108 -1.8018
 1982SOL     vw 7928   5.864   6.991   1.915  0.6714  0.4807 -0.7900
 1983SOL     ow 7929   2.649   3.110   2.851 -0.2806  0.2255  0.1231
 1983SOL     hw 7930   2.622   3.150   2.768 -2.6256 -0.4393  0.4976
 1983SOL     hw 7931   2.570   3.068   2.885  1.2453 -1.8977  1.3709
 1983SOL     vw 7932   2.635   3.109   2.844 -0.3886 -0.1423  0.3371
 1984SOL     ow 7933   6.552   4.646   4.362 -0.3063  0.3371 -0.2344
 1984SOL     hw 7934   6.575   4.564   4.319 -2.2535  0.1387 -1.0291
 1984SOL     hw 7935   6.524   4.620   4.450 -1.0240  0.1218 -0.5216
 1984SOL     vw 7936   6.551   4.632   4.368 -0.6578  0.2823 -0.3772
 1985SOL     ow 7937   6.009   6.276   4.919  1.0296 -0.1562  0.3029
 1985SOL     hw 7938   5.958   6.356   4.934 -0.8346 -1.2719  0.1887
 1985SOL     hw 7939   6.099   6.301   4.941  0.3271  1.6486  1.3747
 1985SOL     vw 7940   6.014   6.290   4.924  0.6907 -0.0653  0.4294
 1986SOL     ow 7941   2.041   3.326   4.704 -0.5103 -0.2388 -0.3715
 1986SOL     hw 7942   2.125   3.317   4.749 -0.8294  0.7241  0.4488
 1986SOL     hw 7943   1.987   3.377   4.765 -0.7843  1.6024 -2.0546
 1986SOL     vw 7944   2.045   3.332   4.718 -0.5887  0.1312 -0.4854
 1987SOL     ow 7945   6.381   0.929   3.875  0.6444 -0.8588 -0.1466
 1987SOL     hw 7946   6.357   0.865   3.808 -1.4834 -1.1107  0.7815
 1987SOL     hw 7947   6.308   0.991   3.875  2.0605  0.8478 -0.1271
 1987SOL     vw 7948   6.368   0.928   3.866  0.5505 -0.6669 -0.0216
 1988SOL     ow 7949   5.309   1.610   6.379  0.1096 -0.7075 -0.2911
 1988SOL     hw 7950   5.217   1.631   6.363  0.0759  2.7443  2.9868
 1988SOL     hw 7951   5.307   1.557   6.459  0.9308 -0.8167 -0.3384
 1988SOL     vw 7952   5.296   1.606   6.388  0.2136 -0.2665  0.1352
 1989SOL     ow 7953   2.332   1.008   4.707  0.6197 -0.2161 -0.6077
 1989SOL     hw 7954   2.352   0.944   4.639  1.6184  0.2842 -0.8029
 1989SOL     hw 7955   2.392   0.986   4.779 -0.1970 -0.5361 -0.0177
 1989SOL     vw 7956   2.343   0.997   4.708  0.6438 -0.1923 -0.5558
 1990SOL     ow 7957   5.932   4.966   5.446  0.0530 -0.3739 -0.9219
 1990SOL     hw 7958   5.991   4.891   5.437  0.3954 -0.2535  0.1698
 1990SOL     hw 7959   5.859   4.933   5.498 -1.8252 -1.0342 -3.7451
 1990SOL     vw 7960   5.930   4.952   5.452 -0.1495 -0.4449 -1.1501
 1991SOL     ow 7961   7.169   1.968   7.072 -0.0997 -0.1354  0.0876
 1991SOL     hw 7962   7.084   1.975   7.115 -1.3911 -0.5106 -2.2316
 1991SOL     hw 7963   7.204   1.884   7.102  0.2506  0.7309  2.2879
 1991SOL     vw 7964   7.163   1.958   7.081 -0.2239 -0.0706  0.0720
 1992SOL     ow 7965   4.351   0.771   5.626  0.5741 -0.2452 -0.1780
 1992SOL     hw 7966   4.438   0.751   5.593  0.4832 -2.7030  0.8178
 1992SOL     hw 7967   4.322   0.689   5.667 -1.8465  0.7639  0.2906
 1992SOL     vw 7968   4.359   0.758   5.627  0.2427 -0.4363  0.0155
 1993SOL     ow 7969   1.402   3.629   2.086  0.0082 -0.5174  0.3672
 1993SOL     hw 7970   1.334   3.561   2.092  0.5304 -1.0225  0.6283
 1993SOL     hw 7971   1.471   3.590   2.033 -0.1062  0.1820 -0.3214
 1993SOL     vw 7972   1.402   3.615   2.080  0.0620 -0.4919  0.3108
 1994SOL     ow 7973   6.220   5.183   5.918  0.1083  0.3905 -0.0379
 1994SOL     hw 7974   6.176   5.185   5.833 -0.1220 -1.1748  0.0202
 1994SOL     hw 7975   6.296   5.240   5.907  0.8739 -0.8890 -1.7601
 1994SOL     vw 7976   6.224   5.191   5.905  0.1786  0.0153 -0.2575
 1995SOL     ow 7977   3.700   1.056   6.279 -0.0655  0.3848  0.3131
 1995SOL     hw 7978   3.745   1.122   6.331  0.0689  0.4854  0.0694
 1995SOL     hw 7979   3.658   0.999   6.344  1.7388 -0.6775  0.6149
 1995SOL     vw 7980   3.700   1.057   6.295  0.1901  0.2578  0.3204
 1996SOL     ow 7981   5.905   2.708   5.079 -0.0843 -0.2723  0.2973
 1996SOL     hw 7982   5.846   2.695   5.005 -0.9194  0.7772  0.7487
 1996SOL     hw 7983   5.982   2.655   5.059 -1.3687 -2.0763 -0.0759
 1996SOL     vw 7984   5.907   2.699   5.067 -0.3641 -0.3718  0.3073
 1997SOL     ow 7985   5.102   1.917   0.412 -0.9228  0.7717 -0.4852
 1997SOL     hw 7986   5.168   1.949   0.351  0.9888 -0.8140  0.6628
 1997SOL     hw 7987   5.045   1.861   0.359 -0.1344  0.5325 -1.0894
 1997SOL     vw 7988   5.103   1.914   0.397 -0.5662  0.5310 -0.4134
 1998SOL     ow 7989   1.482   0.301   3.451 -0.0122  0.0499  0.5368
 1998SOL     hw 7990   1.455   0.248   3.526  0.1535  0.6536  1.0371
 1998SOL     hw 7991   1.493   0.239   3.380 -1.2697 -0.3952  0.7083
 1998SOL     vw 7992   1.480   0.286   3.452 -0.1562  0.0708  0.6254
 1999SOL     ow 7993   0.197   1.638   5.357  0.5771 -0.3900 -0.3701
 1999SOL     hw 7994   0.190   1.554   5.313  0.5402 -0.0375 -1.0586
 1999SOL     hw 7995   0.290   1.661   5.349  0.4029  0.1053 -1.1039
 1999SOL     vw 7996   0.209   1.630   5.350  0.5493 -0.2782 -0.5579
 2000SOL     ow 7997   1.559   3.889   3.200  0.7458  0.2805  0.0221
 2000SOL     hw 7998   1.472   3.864   3.232  0.7357  1.3163  0.8416
 2000SOL     hw 7999   1.590   3.811   3.154 -0.0181 -0.6195  0.9696
 2000SOL     vw 8000   1.552   3.875   3.198  0.6437  0.2985  0.2553
 2001SOL     ow 8001   1.167   5.895   4.182 -0.0087  0.2955  0.2744
 2001SOL     hw 8002   1.181   5.844   4.102  2.0972 -0.3111  0.9687
 2001SOL     hw 8003   1.254   5.928   4.206 -0.0899 -1.3355  3.4509
 2001SOL     vw 8004   1.180   5.893   4.175  0.2584  0.0002  0.7851
 2002SOL     ow 8005   5.392   6.653   4.588 -0.6097 -0.1771 -0.1417
 2002SOL     hw 8006   5.485   6.632   4.598 -0.0226  1.5149 -1.5043
 2002SOL     hw 8007   5.367   6.612   4.506 -2.1988 -3.9028  1.9584
 2002SOL     vw 8008   5.401   6.645   4.579 -0.7420 -0.4456 -0.0443
 2003SOL     ow 8009   0.357   0.730   5.561  0.4556 -0.0433  0.4444
 2003SOL     hw 8010   0.262   0.728   5.560  0.4562 -1.0901 -0.7596
 2003SOL     hw 8011   0.382   0.691   5.645 -0.1508  1.8085  1.5401
 2003SOL     vw 8012   0.348   0.725   5.572  0.3757  0.0629  0.4299
 2004SOL     ow 8013   4.716   4.749   5.067  0.4234 -0.2032  0.2022
 2004SOL     hw 8014   4.747   4.825   5.018  2.3858  0.2455  1.9783
 2004SOL     hw 8015   4.700   4.682   5.001  1.7547  0.7441 -1.1296
 2004SOL     vw 8016   4.718   4.750   5.052  0.8581 -0.0193  0.2608
 2005SOL     ow 8017   4.556   1.376   5.780  0.6810  0.3503  0.0238
 2005SOL     hw 8018   4.613   1.397   5.854  0.8587  0.1870 -0.0670
 2005SOL     hw 8019   4.472   1.356   5.820  0.4381  1.4640  0.0990
 2005SOL     vw 8020   4.552   1.376   5.795  0.6723  0.4758  0.0219
 2006SOL     ow 8021   1.892   1.688   0.272  0.9500 -0.7001  0.1854
 2006SOL     hw 8022   1.837   1.644   0.336  1.1101 -3.0717 -1.2115
 2006SOL     hw 8023   1.871   1.781   0.282  0.4122 -1.0511  3.0797
 2006SOL     vw 8024   1.882   1.695   0.281  0.9003 -1.0592  0.3830
 2007SOL     ow 8025   2.971   3.389   3.005 -0.4205  0.1471  0.4909
 2007SOL     hw 8026   2.904   3.439   2.959 -0.4559  0.9858  1.4224
 2007SOL     hw 8027   3.051   3.404   2.955 -0.5630  0.6157  0.3980
 2007SOL     vw 8028   2.973   3.397   2.993 -0.4438  0.3196  0.6016
 2008SOL     ow 8029   3.372   0.140   1.933 -0.2831 -0.1310  0.1264
 2008SOL     hw 8030   3.302   0.140   1.998 -1.0715 -1.0297 -0.6860
 2008SOL     hw 8031   3.405   0.050   1.934  1.6488  0.5396  1.2886
 2008SOL     vw 8032   3.367   0.128   1.942 -0.1322 -0.1611  0.1726
 2009SOL     ow 8033   6.966   2.389   6.900 -0.1164  0.0091  0.1537
 2009SOL     hw 8034   6.884   2.358   6.940 -0.4513  0.0205 -0.5048
 2009SOL     hw 8035   6.943   2.402   6.808  0.8948 -0.9970 -0.2619
 2009SOL     vw 8036   6.952   2.386   6.893 -0.0269 -0.1221  0.0122
 2010SOL     ow 8037   4.046   1.433   5.748  0.4926  0.0592 -0.4834
 2010SOL     hw 8038   3.980   1.425   5.679  0.8365  2.6381 -1.2099
 2010SOL     hw 8039   3.994   1.439   5.829 -0.0188 -0.4901 -0.7558
 2010SOL     vw 8040   4.030   1.433   5.750  0.4706  0.3270 -0.6154
 2011SOL     ow 8041   4.435   0.601   4.709 -0.5558  0.5561  0.5384
 2011SOL     hw 8042   4.422   0.631   4.799 -0.5642  0.1401  0.6818
 2011SOL     hw 8043   4.481   0.672   4.666 -2.8269  1.8766  0.1547
 2011SOL     vw 8044   4.439   0.614   4.716 -0.8564  0.6754  0.5064
 2012SOL     ow 8045   6.068   1.355   3.084  0.4117 -0.2376 -0.4271
 2012SOL     hw 8046   5.991   1.407   3.107  0.6333 -0.8033  1.8118
 2012SOL     hw 8047   6.054   1.270   3.125  1.7716 -0.7020 -0.8452
 2012SOL     vw 8048   6.056   1.351   3.092  0.6201 -0.3735 -0.1869
 2013SOL     ow 8049   0.220   3.151   2.074 -0.0917  0.7199  0.5962
 2013SOL     hw 8050   0.247   3.114   1.990  0.3873  0.6221  0.7927
 2013SOL     hw 8051   0.302   3.165   2.122 -0.2849  1.7090  0.6660
 2013SOL     vw 8052   0.234   3.148   2.069 -0.0540  0.8374  0.6313
 2014SOL     ow 8053   3.171   1.816   2.610 -0.1582 -0.5984 -0.4597
 2014SOL     hw 8054   3.080   1.839   2.629  0.0433 -0.7851  0.8357
 2014SOL     hw 8055   3.217   1.899   2.606 -0.4055 -0.4921 -1.2995
 2014SOL     vw 8056   3.165   1.830   2.612 -0.1643 -0.6090 -0.3995
 2015SOL     ow 8057   0.572   2.025   4.763 -0.8252 -0.6678 -0.1015
 2015SOL     hw 8058   0.644   2.087   4.753 -1.7122  0.9532  2.3923
 2015SOL     hw 8059   0.611   1.949   4.805 -0.7585  1.1210  3.4811
 2015SOL     vw 8060   0.587   2.023   4.767 -0.9334 -0.2179  0.7000
 2016SOL     ow 8061   1.279   5.613   0.114 -0.3299  0.3880  0.1660
 2016SOL     hw 8062   1.258   5.672   0.041 -3.1774  0.6210  1.0530
 2016SOL     hw 8063   1.357   5.651   0.154  1.8219 -0.1544 -3.0958
 2016SOL     vw 8064   1.286   5.626   0.109 -0.4217  0.3471 -0.1473
 2017SOL     ow 8065   0.889   4.789   2.063  0.2129 -0.1396  0.1700
 2017SOL     hw 8066   0.921   4.761   1.978 -1.0791 -1.5724  0.1137
 2017SOL     hw 8067   0.965   4.829   2.106  1.0254  0.0787 -1.4082
 2017SOL     vw 8068   0.903   4.791   2.058  0.1496 -0.2999 -0.0458
 2018SOL     ow 8069   2.941   6.894   5.746  0.3685 -0.5996  0.2821
 2018SOL     hw 8070   2.902   6.811   5.717  1.0536 -1.4177  1.6277
 2018SOL     hw 8071   2.894   6.915   5.827  0.2206  0.3202 -0.0368
 2018SOL     vw 8072   2.929   6.885   5.753  0.4393 -0.5860  0.4177
 2019SOL     ow 8073   2.509   0.919   1.363 -0.0026  0.2256  0.1297
 2019SOL     hw 8074   2.564   0.971   1.305 -0.1339 -0.1266 -0.3155
 2019SOL     hw 8075   2.568   0.892   1.434  0.5535 -0.6027 -0.6208
 2019SOL     vw 8076   2.524   0.922   1.365  0.0534  0.0699 -0.0281
 2020SOL     ow 8077   4.313   5.178   5.798  0.4327  0.3155 -0.1236
 2020SOL     hw 8078   4.358   5.097   5.779  0.9671  0.9853 -1.8746
 2020SOL     hw 8079   4.366   5.246   5.758 -0.0764  1.5422  1.1689
 2020SOL     vw 8080   4.326   5.177   5.790  0.4361  0.5655 -0.1838
 2021SOL     ow 8081   5.261   1.596   0.441 -0.1143  0.3723 -0.0766
 2021SOL     hw 8082   5.225   1.678   0.476 -0.0408  1.1561 -1.7229
 2021SOL     hw 8083   5.304   1.555   0.515  0.8856  2.4136  0.5486
 2021SOL     vw 8084   5.262   1.601   0.455  0.0272  0.7451 -0.2113
 2022SOL     ow 8085   6.527   5.045   3.996 -0.3011  0.4365  0.0436
 2022SOL     hw 8086   6.539   5.139   4.007 -0.0899  0.2644  1.3908
 2022SOL     hw 8087   6.592   5.021   3.929 -1.8207  1.5605 -1.9430
 2022SOL     vw 8088   6.537   5.054   3.989 -0.4740  0.5622 -0.0408
 2023SOL     ow 8089   6.016   3.651   6.112 -0.3985 -0.4599 -0.1029
 2023SOL     hw 8090   5.924   3.648   6.084 -0.4678 -1.9921  0.2202
 2023SOL     hw 8091   6.032   3.565   6.149  1.1530 -0.1608 -0.0457
 2023SOL     vw 8092   6.006   3.639   6.113 -0.2031 -0.6225 -0.0525
 2024SOL     ow 8093   5.293   0.683   7.062  0.1659  0.3281  0.9907
 2024SOL     hw 8094   5.222   0.739   7.094  0.6585  1.6619 -0.1426
 2024SOL     hw 8095   5.250   0.602   7.034 -0.5226 -0.0407  2.9813
 2024SOL     vw 8096   5.278   0.680   7.063  0.1400  0.4554  1.1036
 2025SOL     ow 8097   2.767   2.436   0.736  0.0345 -0.5726 -0.4156
 2025SOL     hw 8098   2.722   2.507   0.688  1.3809 -0.4359 -1.5465
 2025SOL     hw 8099   2.696   2.384   0.773 -1.0093  1.1286  0.1120
 2025SOL     vw 8100   2.751   2.439   0.734  0.0744 -0.3301 -0.4953
 2026SOL     ow 8101   5.082   0.667   3.377 -0.5285  0.5790  0.2220
 2026SOL     hw 8102   5.132   0.599   3.422 -0.7989  1.5192  2.0319
 2026SOL     hw 8103   5.149   0.720   3.333 -0.3720 -1.2630 -1.8927
 2026SOL     vw 8104   5.098   0.665   3.377 -0.5436  0.4600  0.1817
 2027SOL     ow 8105   6.976   2.506   6.008 -0.1604  0.6103  0.3007
 2027SOL     hw 8106   6.934   2.577   5.958 -0.0051 -0.6824 -1.7995
 2027SOL     hw 8107   6.910   2.479   6.072 -1.2164  0.9532 -0.6008
 2027SOL     vw 8108   6.962   2.512   6.010 -0.2792  0.4849 -0.0954
 2028SOL     ow 8109   0.980   1.099   0.624 -0.2043 -0.3069  0.2992
 2028SOL     hw 8110   1.001   1.009   0.650  2.0212  0.2816  0.8331
 2028SOL     hw 8111   0.993   1.150   0.704 -0.3845  0.6240 -0.2594
 2028SOL     vw 8112   0.985   1.094   0.638  0.0655 -0.1065  0.2959
 2029SOL     ow 8113   3.049   0.036   3.393 -0.1901 -0.0627 -0.4590
 2029SOL     hw 8114   3.074  -0.036   3.335  2.6986  0.6359 -0.2336
 2029SOL     hw 8115   3.000   0.096   3.337 -1.1335 -1.3277 -1.0650
 2029SOL     vw 8116   3.046   0.034   3.378  0.0665 -0.1374 -0.5094
 2030SOL     ow 8117   6.879   6.485   0.200  0.1630  0.0178 -0.3855
 2030SOL     hw 8118   6.889   6.408   0.255 -2.7149 -1.5891 -1.9242
 2030SOL     hw 8119   6.967   6.501   0.165  0.7181 -3.0530 -0.6201
 2030SOL     vw 8120   6.892   6.477   0.202 -0.1433 -0.5994 -0.6194
 2031SOL     ow 8121   1.093   2.443   5.045  0.1889 -0.5938 -0.3473
 2031SOL     hw 8122   1.046   2.459   5.127  1.0460  2.3172 -0.3190
 2031SOL     hw 8123   1.093   2.527   5.000  1.4507 -1.6302 -2.4457
 2031SOL     vw 8124   1.087   2.456   5.050  0.4684 -0.3464 -0.6206
 2032SOL     ow 8125   4.464   6.522   1.394  0.1077  0.0580 -0.6718
 2032SOL     hw 8126   4.397   6.486   1.336 -0.2987  1.0972 -0.8636
 2032SOL     hw 8127   4.511   6.445   1.427 -0.3240 -0.6006 -1.5616
 2032SOL     vw 8128   4.462   6.507   1.391 -0.0029  0.1082 -0.8146
 2033SOL     ow 8129   5.910   3.078   6.644 -0.0797  0.0645  0.2815
 2033SOL     hw 8130   5.878   3.142   6.580 -0.4192  0.4905  0.8704
 2033SOL     hw 8131   5.972   3.127   6.698  0.5146 -0.3970  0.0437
 2033SOL     vw 8132   5.914   3.093   6.643 -0.0460  0.0598  0.3278
 2034SOL     ow 8133   3.736   2.932   5.473 -0.4775  0.7863 -0.0047
 2034SOL     hw 8134   3.778   3.015   5.497 -1.8732  1.3646  0.6037
 2034SOL     hw 8135   3.701   2.899   5.556 -3.7956  1.8730 -0.8145
 2034SOL     vw 8136   3.737   2.939   5.487 -1.0995  1.0059 -0.0312
 2035SOL     ow 8137   2.360   2.886   6.129 -0.1364 -0.2595  0.1972
 2035SOL     hw 8138   2.435   2.884   6.188  0.4895 -1.8190 -0.5924
 2035SOL     hw 8139   2.285   2.904   6.185  0.5958 -0.5424  1.2935
 2035SOL     vw 8140   2.360   2.888   6.144  0.0427 -0.5026  0.2379
 2036SOL     ow 8141   5.535   4.808   2.255  0.3082 -0.1293  0.5436
 2036SOL     hw 8142   5.465   4.864   2.289 -0.2080  0.9108 -1.9483
 2036SOL     hw 8143   5.509   4.719   2.278 -2.1033  0.1899 -0.6366
 2036SOL     vw 8144   5.522   4.804   2.262 -0.0780  0.0501  0.0591
 2037SOL     ow 8145   4.670   4.651   0.240  0.0634  0.0178 -0.2869
 2037SOL     hw 8146   4.686   4.699   0.159 -0.9026  0.6627 -0.1070
 2037SOL     hw 8147   4.578   4.667   0.260 -0.4903 -2.4529 -0.5633
 2037SOL     vw 8148   4.660   4.660   0.232 -0.1369 -0.2232 -0.2996
 2038SOL     ow 8149   1.880   1.810   4.268 -0.0730  0.2325  0.0508
 2038SOL     hw 8150   1.975   1.814   4.276  0.0882 -1.5824 -0.5864
 2038SOL     hw 8151   1.864   1.778   4.179 -1.3162  1.3429 -0.1570
 2038SOL     vw 8152   1.891   1.806   4.257 -0.2157  0.1395 -0.0608
 2039SOL     ow 8153   0.163   6.303   4.598  0.0794 -0.0978 -0.1730
 2039SOL     hw 8154   0.258   6.308   4.604  0.0445  0.4759 -0.1172
 2039SOL     hw 8155   0.140   6.355   4.522 -0.2684  0.5968  0.3968
 2039SOL     vw 8156   0.172   6.310   4.589  0.0289  0.0694 -0.0906
 2040SOL     ow 8157   5.139   0.448   4.903  0.4307  0.7274 -0.0599
 2040SOL     hw 8158   5.167   0.448   4.812 -1.3022  1.6453 -0.6342
 2040SOL     hw 8159   5.140   0.356   4.929 -1.7684  0.0912 -1.9298
 2040SOL     vw 8160   5.143   0.436   4.895 -0.0880  0.7645 -0.3822
 2041SOL     ow 8161   2.085   6.870   5.625 -0.1649  0.0646 -0.1321
 2041SOL     hw 8162   2.170   6.851   5.585  0.0482 -0.8166  0.7053
 2041SOL     hw 8163   2.032   6.793   5.604 -0.2046 -0.1828  0.8195
 2041SOL     vw 8164   2.089   6.857   5.617 -0.1420 -0.0839  0.1042
 2042SOL     ow 8165   4.781   3.810   5.389 -0.1074  0.0946  0.0279
 2042SOL     hw 8166   4.712   3.744   5.380  1.5914 -1.6721 -0.8824
 2042SOL     hw 8167   4.827   3.808   5.305  3.1053 -1.2654  1.6377
 2042SOL     vw 8168   4.778   3.801   5.377  0.5407 -0.3181  0.1204
 2043SOL     ow 8169   3.177   6.788   6.612  0.3340 -0.6882  0.1733
 2043SOL     hw 8170   3.193   6.822   6.524 -2.9344  0.3585 -0.1319
 2043SOL     hw 8171   3.224   6.704   6.614 -1.4260 -1.9550 -3.4651
 2043SOL     vw 8172   3.186   6.781   6.600 -0.3294 -0.7174 -0.3469
 2044SOL     ow 8173   3.614   2.305   4.071 -0.5077 -0.6138  0.5188
 2044SOL     hw 8174   3.677   2.235   4.084  1.1232  0.5682 -0.5875
 2044SOL     hw 8175   3.667   2.381   4.047 -2.3228  0.5476 -0.0465
 2044SOL     vw 8176   3.629   2.306   4.069 -0.5320 -0.3046  0.2983
 2045SOL     ow 8177   1.851   6.241   1.951  0.2852  0.1858  0.4100
 2045SOL     hw 8178   1.773   6.264   1.900  0.7247 -0.3328 -0.5228
 2045SOL     hw 8179   1.846   6.298   2.028  0.3993  2.1153 -0.9271
 2045SOL     vw 8180   1.840   6.251   1.954  0.3583  0.3719  0.1106
 2046SOL     ow 8181   1.326   6.241   2.825  0.4110 -0.0233 -0.3331
 2046SOL     hw 8182   1.316   6.336   2.834  0.5301 -0.1703  1.7288
 2046SOL     hw 8183   1.238   6.206   2.840  0.4492 -0.2753 -0.6788
 2046SOL     vw 8184   1.313   6.249   2.828  0.4317 -0.0761 -0.1067
 2047SOL     ow 8185   0.984   4.734   1.814 -0.1123 -0.0303  0.3454
 2047SOL     hw 8186   1.040   4.657   1.808  0.6995  0.1922  3.5304
 2047SOL     hw 8187   1.044   4.809   1.809 -0.6637  0.3698 -0.6052
 2047SOL     vw 8188   0.999   4.734   1.813 -0.0780  0.0517  0.6402
 2048SOL     ow 8189   3.043   4.167   3.714  0.2035 -0.3293  0.3695
 2048SOL     hw 8190   2.981   4.097   3.734  0.8218 -1.2152 -0.6909
 2048SOL     hw 8191   3.023   4.236   3.777  0.4246 -1.9776  2.3557
 2048SOL     vw 8192   3.032   4.167   3.725  0.3144 -0.6638  0.4917
 2049SOL     ow 8193   6.237   6.403   2.175  0.6475 -0.0257 -0.4825
 2049SOL     hw 8194   6.245   6.482   2.122  2.6329  2.2071  2.7634
 2049SOL     hw 8195   6.147   6.374   2.162 -0.0297  2.4825 -2.1614
 2049SOL     vw 8196   6.226   6.410   2.166  0.8202  0.5999 -0.2757
 2050SOL     ow 8197   5.779   2.264   1.654 -0.0985  0.7374  0.2613
 2050SOL     hw 8198   5.789   2.340   1.713  0.8863  1.1428 -0.3920
 2050SOL     hw 8199   5.734   2.299   1.578 -1.7776  0.1104  0.9383
 2050SOL     vw 8200   5.775   2.279   1.652 -0.1900  0.7081  0.2644
 2051SOL     ow 8201   0.361   6.220   0.285 -0.2280 -0.2188 -0.3517
 2051SOL     hw 8202   0.398   6.201   0.372 -0.6363  1.4588  0.2392
 2051SOL     hw 8203   0.271   6.190   0.290 -1.3329  2.9420  1.0989
 2051SOL     vw 8204   0.354   6.214   0.297 -0.4276  0.4196 -0.0823
 2052SOL     ow 8205   0.026   3.968   4.936 -0.4849  0.6045 -0.3908
 2052SOL     hw 8206  -0.038   3.939   5.002  0.8879  0.2832  0.8488
 2052SOL     hw 8207   0.026   4.063   4.944  0.3942  0.5295  0.8321
 2052SOL     vw 8208   0.017   3.977   4.946 -0.1878  0.5523 -0.0660
 2053SOL     ow 8209   2.844   6.680   5.611  0.7824 -0.0761 -0.0954
 2053SOL     hw 8210   2.793   6.601   5.628  0.6299  0.5270  2.5843
 2053SOL     hw 8211   2.901   6.656   5.537  1.2449 -2.9244  1.0775
 2053SOL     vw 8212   2.845   6.666   5.603  0.8234 -0.3724  0.4129
 2054SOL     ow 8213   3.091   6.970   6.824 -0.0154 -0.2815  0.0063
 2054SOL     hw 8214   3.051   6.973   6.911 -1.0345 -2.9543 -0.3056
 2054SOL     hw 8215   3.018   6.965   6.764  0.5621  3.5562 -1.3195
 2054SOL     vw 8216   3.076   6.970   6.828 -0.0738 -0.1276 -0.2100
 2055SOL     ow 8217   2.233   6.921   5.857  0.0248  0.2435  0.1291
 2055SOL     hw 8218   2.239   7.015   5.872 -2.4431  0.4602  0.1001
 2055SOL     hw 8219   2.180   6.912   5.779 -0.7318 -1.1913  0.7625
 2055SOL     vw 8220   2.227   6.932   5.849 -0.4005  0.0827  0.2089
 2056SOL     ow 8221   1.774   1.808   1.168  0.5573 -0.1171 -0.3729
 2056SOL     hw 8222   1.866   1.798   1.145  0.8529  0.7334  0.3812
 2056SOL     hw 8223   1.741   1.718   1.176  1.1925 -0.4203 -1.1079
 2056SOL     vw 8224   1.782   1.795   1.166  0.6800 -0.0449 -0.3704
 2057SOL     ow 8225   1.542   7.102   2.774  0.4498  0.4329  0.4408
 2057SOL     hw 8226   1.556   7.119   2.867 -3.3895  2.3572  0.8635
 2057SOL     hw 8227   1.460   7.052   2.771  0.3289  0.6443 -1.9259
 2057SOL     vw 8228   1.533   7.097   2.786 -0.0728  0.7145  0.1843
 2058SOL     ow 8229   2.837   5.331   0.051 -0.0935  0.0583 -0.0894
 2058SOL     hw 8230   2.788   5.284  -0.016 -0.5253 -1.7815  1.4388
 2058SOL     hw 8231   2.927   5.302   0.040  0.2256  1.3449 -1.1419
 2058SOL     vw 8232   2.842   5.321   0.041 -0.1084 -0.0145 -0.0267
 2059SOL     ow 8233   1.946   1.471   1.895 -0.6410  0.3537 -0.1581
 2059SOL     hw 8234   1.876   1.414   1.861 -0.2562 -0.3966  0.2772
 2059SOL     hw 8235   1.951   1.542   1.832 -1.1850 -0.0580 -0.6840
 2059SOL     vw 8236   1.937   1.473   1.882 -0.6620  0.2005 -0.1701
 2060SOL     ow 8237   0.275   3.252   0.873  0.1375 -0.0587 -0.0911
 2060SOL     hw 8238   0.326   3.288   0.945  3.7287  0.1118 -2.4325
 2060SOL     hw 8239   0.286   3.157   0.881 -0.7611 -0.1272  0.4112
 2060SOL     vw 8240   0.283   3.245   0.883  0.4928 -0.0452 -0.3338
 2061SOL     ow 8241   5.457   6.022   2.521 -0.1220 -0.2314 -1.1310
 2061SOL     hw 8242   5.407   6.000   2.443  1.3782 -0.1005 -2.1555
 2061SOL     hw 8243   5.524   5.955   2.527 -1.0358 -1.0752  0.8804
 2061SOL     vw 8244   5.459   6.010   2.512 -0.0443 -0.3257 -1.0006
 2062SOL     ow 8245   1.991   5.006   4.788 -0.1859  0.2416 -0.4429
 2062SOL     hw 8246   1.990   5.097   4.758  0.6904  0.3247 -0.2479
 2062SOL     hw 8247   2.069   4.969   4.747  0.9030  0.2900  1.5044
 2062SOL     vw 8248   2.001   5.013   4.778  0.0733  0.2587 -0.1605
 2063SOL     ow 8249   5.627   4.904   6.993  0.3462  0.8074 -0.4375
 2063SOL     hw 8250   5.561   4.892   6.925  1.7907  0.4363 -1.8573
 2063SOL     hw 8251   5.578   4.918   7.073 -1.4644 -1.6693 -1.0062
 2063SOL     vw 8252   5.612   4.904   6.994  0.2980  0.4315 -0.6998
 2064SOL     ow 8253   3.982   4.992   5.044 -0.1235  0.2980 -0.2740
 2064SOL     hw 8254   4.000   4.912   5.093 -0.1468  0.1012 -0.5826
 2064SOL     hw 8255   3.961   5.057   5.111 -3.2648 -0.7367 -0.1007
 2064SOL     vw 8256   3.982   4.990   5.059 -0.5410  0.1359 -0.2921
 2065SOL     ow 8257   5.859   0.053   0.707 -0.3077 -0.8697  0.6211
 2065SOL     hw 8258   5.807   0.014   0.636  0.4916 -0.9143  0.0510
 2065SOL     hw 8259   5.948   0.054   0.674 -0.3477  1.9916  0.3679
 2065SOL     vw 8260   5.864   0.048   0.693 -0.2077 -0.4981  0.5125
 2066SOL     ow 8261   0.259   1.565   6.965 -0.1355  0.2351 -0.4696
 2066SOL     hw 8262   0.190   1.594   6.904 -0.7851  2.7231  1.3159
 2066SOL     hw 8263   0.214   1.555   7.048  1.3825  0.3983  0.3986
 2066SOL     vw 8264   0.244   1.567   6.968 -0.0209  0.5850 -0.1194
 2067SOL     ow 8265   2.206   1.581   2.191  0.1651 -0.2080 -0.3416
 2067SOL     hw 8266   2.276   1.612   2.248 -0.6695  1.8969 -0.3655
 2067SOL     hw 8267   2.249   1.520   2.131  1.9710  0.9832 -0.3233
 2067SOL     vw 8268   2.221   1.577   2.190  0.2931  0.2269 -0.3424
 2068SOL     ow 8269   4.648   4.710   2.368 -0.3597  0.0525  0.1946
 2068SOL     hw 8270   4.727   4.750   2.406 -0.1853  0.5500 -0.6539
 2068SOL     hw 8271   4.595   4.685   2.443  0.1416  0.6638  0.7681
 2068SOL     vw 8272   4.652   4.712   2.383 -0.2701  0.1988  0.1584
 2069SOL     ow 8273   1.884   6.957   3.270 -0.0756 -0.5451  0.1320
 2069SOL     hw 8274   1.824   6.920   3.334  1.6560 -2.5842  0.7328
 2069SOL     hw 8275   1.963   6.903   3.279  1.2065  0.8931 -1.8004
 2069SOL     vw 8276   1.887   6.945   3.280  0.3220 -0.6244 -0.0436
 2070SOL     ow 8277   1.084   3.210   4.305  0.2855  0.2290 -0.6983
 2070SOL     hw 8278   1.177   3.192   4.287  1.1269  1.6375  1.7579
 2070SOL     hw 8279   1.078   3.212   4.400 -2.8689 -2.3253 -0.6933
 2070SOL     vw 8280   1.096   3.208   4.315 -0.0196  0.0780 -0.3736
 2071SOL     ow 8281   4.703   2.206   3.523  0.2106 -0.5508  0.8004
 2071SOL     hw 8282   4.652   2.266   3.469 -1.4718 -1.6975  1.0229
 2071SOL     hw 8283   4.730   2.137   3.463  2.0967  0.3574  0.5542
 2071SOL     vw 8284   4.700   2.205   3.508  0.2375 -0.5822  0.7973
 2072SOL     ow 8285   3.922   5.106   5.858  0.6493  0.5227 -0.1956
 2072SOL     hw 8286   3.917   5.201   5.850 -1.8920  0.3763 -1.2488
 2072SOL     hw 8287   3.990   5.080   5.795  0.7322  1.5749 -0.5583
 2072SOL     vw 8288   3.931   5.115   5.849  0.3250  0.6421 -0.3827
 2073SOL     ow 8289   4.779   1.667   2.734 -0.2928 -0.0401  0.1978
 2073SOL     hw 8290   4.833   1.680   2.656 -1.4188  1.3487 -0.3870
 2073SOL     hw 8291   4.727   1.590   2.714  0.3993 -0.5142  0.1693
 2073SOL     vw 8292   4.779   1.659   2.721 -0.3498  0.0805  0.1168
 2074SOL     ow 8293   1.221   1.165   6.805  0.9600  0.2508 -0.4817
 2074SOL     hw 8294   1.177   1.249   6.814  1.5540  0.3968  1.8422
 2074SOL     hw 8295   1.190   1.114   6.880  1.3973 -1.2334 -1.2734
 2074SOL     vw 8296   1.211   1.169   6.816  1.0960  0.0743 -0.2794
 2075SOL     ow 8297   2.411   1.615   5.389 -0.2306  0.2207  0.7999
 2075SOL     hw 8298   2.467   1.690   5.407 -0.1726  0.7537 -1.3074
 2075SOL     hw 8299   2.470   1.539   5.394  0.8304  0.7830 -1.5414
 2075SOL     vw 8300   2.426   1.615   5.392 -0.0830  0.3652  0.2131
 2076SOL     ow 8301   2.994   4.394   1.770  0.2380 -0.6079 -0.7349
 2076SOL     hw 8302   3.080   4.386   1.728  1.0570 -2.3591  1.0900
 2076SOL     hw 8303   3.010   4.452   1.845  0.4990 -2.7184  0.9617
 2076SOL     vw 8304   3.008   4.400   1.774  0.3805 -1.1172 -0.2703
 2077SOL     ow 8305   0.832   7.179   6.534  0.5078 -0.1395 -0.2011
 2077SOL     hw 8306   0.848   7.269   6.564  0.7179  0.2709 -1.5134
 2077SOL     hw 8307   0.891   7.167   6.460  0.0451 -1.1588 -0.4260
 2077SOL     vw 8308   0.842   7.190   6.529  0.4745 -0.2199 -0.4044
 2078SOL     ow 8309   6.501   4.608   3.482 -0.2061  0.2615 -0.2938
 2078SOL     hw 8310   6.549   4.591   3.563  1.7116  0.7153 -1.2492
 2078SOL     hw 8311   6.550   4.680   3.441 -2.4711  1.6010 -0.7995
 2078SOL     vw 8312   6.514   4.615   3.487 -0.2520  0.4981 -0.4867
 2079SOL     ow 8313   4.065   3.680   0.844 -0.1268  0.1598  0.2310
 2079SOL     hw 8314   4.107   3.594   0.845  1.7159  0.9917 -0.1873
 2079SOL     hw 8315   4.004   3.676   0.770 -1.3106 -1.2936  1.2325
 2079SOL     vw 8316   4.062   3.668   0.834 -0.0396  0.0778  0.3080
 2080SOL     ow 8317   6.971   4.750   6.821 -0.6420 -0.3606  0.4781
 2080SOL     hw 8318   6.905   4.718   6.759 -1.0601  0.4977  0.4736
 2080SOL     hw 8319   7.020   4.671   6.846 -1.4415 -0.9570  0.2181
 2080SOL     vw 8320   6.969   4.735   6.816 -0.8028 -0.3262  0.4432
 2081SOL     ow 8321   5.878   6.776   4.238  0.4164 -0.0189 -0.3507
 2081SOL     hw 8322   5.919   6.857   4.266 -0.5911 -0.1135  1.6322
 2081SOL     hw 8323   5.785   6.798   4.229  0.5485 -0.2179 -3.0354
 2081SOL     vw 8324   5.871   6.789   4.241  0.3011 -0.0577 -0.4432
 2082SOL     ow 8325   6.903   4.381   5.461 -0.2267 -0.6178 -0.7111
 2082SOL     hw 8326   6.820   4.415   5.496 -0.5884  1.3071 -3.1504
 2082SOL     hw 8327   6.880   4.346   5.375  1.4348 -0.2984 -1.3263
 2082SOL     vw 8328   6.889   4.381   5.454 -0.0548 -0.3219 -1.1141
 2083SOL     ow 8329   0.772   1.143   6.090 -0.0911  0.0913  0.0905
 2083SOL     hw 8330   0.837   1.147   6.020 -0.4476 -1.3299 -0.3483
 2083SOL     hw 8331   0.689   1.161   6.046 -0.2895 -0.5842  0.1819
 2083SOL     vw 8332   0.770   1.146   6.075 -0.1644 -0.1854  0.0443
 2084SOL     ow 8333   0.165   3.256   0.106  0.0585  0.1518  0.2115
 2084SOL     hw 8334   0.206   3.327   0.155 -0.5203  0.2354  0.5733
 2084SOL     hw 8335   0.081   3.291   0.078 -0.3179 -0.4567  0.5651
 2084SOL     vw 8336   0.159   3.270   0.108 -0.0675  0.0824  0.3059
 2085SOL     ow 8337   5.652   1.600   1.195  0.6589 -0.4274  0.2327
 2085SOL     hw 8338   5.704   1.521   1.185 -1.7958 -2.2829  0.9831
 2085SOL     hw 8339   5.592   1.581   1.268 -4.0138 -0.4066 -3.0987
 2085SOL     vw 8340   5.651   1.587   1.203 -0.2811 -0.6695 -0.1079
 2086SOL     ow 8341   1.310   6.977   7.060 -0.4680  0.3728  0.0259
 2086SOL     hw 8342   1.325   6.964   7.154 -0.5671  0.7230  0.0907
 2086SOL     hw 8343   1.396   6.999   7.025 -0.8594  2.9877  0.4981
 2086SOL     vw 8344   1.324   6.978   7.068 -0.5327  0.7639  0.0970
 2087SOL     ow 8345   1.616   1.910   1.423  0.3078  0.4491  0.0641
 2087SOL     hw 8346   1.572   1.976   1.476 -0.8424  1.6994 -2.2861
 2087SOL     hw 8347   1.614   1.831   1.478 -2.2176  1.2292  1.2900
 2087SOL     vw 8348   1.610   1.908   1.437 -0.1771  0.7170 -0.0842
 2088SOL     ow 8349   0.332   4.090   6.598  0.5626  0.0936  0.2552
 2088SOL     hw 8350   0.261   4.088   6.534  3.1429 -0.9119 -2.8546
 2088SOL     hw 8351   0.373   4.175   6.585  0.6779  0.1826  1.1595
 2088SOL     vw 8352   0.328   4.101   6.587  0.9183 -0.0274 -0.0358
 2089SOL     ow 8353   0.973   3.903   2.864  0.1569  0.5771  0.8352
 2089SOL     hw 8354   0.977   3.952   2.946 -3.0088 -0.1272  1.5350
 2089SOL     hw 8355   0.880   3.901   2.842  0.8598  0.4274 -2.6331
 2089SOL     vw 8356   0.961   3.909   2.872 -0.1681  0.4644  0.4700
 2090SOL     ow 8357   3.039   3.484   1.633  0.1934 -0.7206  0.1120
 2090SOL     hw 8358   2.984   3.561   1.623 -1.7581 -1.8587  1.4398
 2090SOL     hw 8359   3.127   3.519   1.647 -0.0828  1.1550 -2.2149
 2090SOL     vw 8360   3.043   3.499   1.634 -0.1004 -0.6233 -0.0198
 2091SOL     ow 8361   1.888   3.086   7.178 -0.2956  0.2845 -0.1299
 2091SOL     hw 8362   1.865   3.177   7.196 -0.7106  0.7411 -2.5446
 2091SOL     hw 8363   1.971   3.073   7.224  0.2030  2.1746 -0.3867
 2091SOL     vw 8364   1.896   3.096   7.186 -0.2846  0.5940 -0.4823
 2092SOL     ow 8365   5.649   2.904   3.200 -0.3127 -0.3860  0.5046
 2092SOL     hw 8366   5.728   2.878   3.153 -1.3238 -1.7667 -0.4769
 2092SOL     hw 8367   5.606   2.822   3.223 -2.9478  0.2865 -1.5496
 2092SOL     vw 8368   5.654   2.890   3.197 -0.7939 -0.4795  0.1042
 2093SOL     ow 8369   5.299   2.198   2.027 -0.7804 -0.5787  0.5684
 2093SOL     hw 8370   5.217   2.180   2.073 -0.1675  1.9140  2.8727
 2093SOL     hw 8371   5.344   2.262   2.082  2.7988 -1.8973 -0.5423
 2093SOL     vw 8372   5.294   2.204   2.041 -0.2272 -0.4238  0.7257
 2094SOL     ow 8373   1.298   4.622   4.065 -0.7147 -0.3398 -0.6773
 2094SOL     hw 8374   1.378   4.660   4.031  0.6513 -1.9904  0.4998
 2094SOL     hw 8375   1.308   4.627   4.161 -1.4311 -1.6730 -0.5081
 2094SOL     vw 8376   1.309   4.628   4.073 -0.6290 -0.7334 -0.4997
 2095SOL     ow 8377   6.140   4.430   7.026 -0.3169 -0.1374  0.2336
 2095SOL     hw 8378   6.192   4.505   7.053  0.5801  0.1520 -2.0896
 2095SOL     hw 8379   6.128   4.379   7.107 -0.9589  2.4396  1.8627
 2095SOL     vw 8380   6.145   4.433   7.041 -0.2832  0.2408  0.1421
 2096SOL     ow 8381   7.128   2.857   5.360 -0.3584 -0.8523 -0.0742
 2096SOL     hw 8382   7.172   2.887   5.440  3.3163 -1.4524 -1.6981
 2096SOL     hw 8383   7.072   2.930   5.335  3.8493  2.5009 -0.7440
 2096SOL     vw 8384   7.126   2.871   5.367  0.6814 -0.4890 -0.3769
 2097SOL     ow 8385   6.185   6.518   4.491  0.6298 -0.4772  0.0497
 2097SOL     hw 8386   6.168   6.446   4.552  0.4427  1.0562  1.9021
 2097SOL     hw 8387   6.277   6.508   4.467  0.3499 -1.8910 -0.5298
 2097SOL     vw 8388   6.195   6.507   4.496  0.5682 -0.4613  0.2177
 2098SOL     ow 8389   6.548   4.251   0.578 -0.5068  0.1369  0.5002
 2098SOL     hw 8390   6.548   4.218   0.668 -1.6000 -2.6423 -0.4220
 2098SOL     hw 8391   6.621   4.205   0.536 -1.6407 -0.6140 -0.6854
 2098SOL     vw 8392   6.558   4.241   0.584 -0.8006 -0.3288  0.2221
 2099SOL     ow 8393   1.553   4.284   1.677  0.0192  0.2654 -0.1819
 2099SOL     hw 8394   1.627   4.286   1.737 -2.6692 -0.4254  3.4813
 2099SOL     hw 8395   1.512   4.370   1.686 -0.5137  0.1077 -0.9923
 2099SOL     vw 8396   1.557   4.296   1.686 -0.4058  0.1533  0.1945
 2100SOL     ow 8397   2.468   3.391   1.992  0.5269  0.1305 -0.0103
 2100SOL     hw 8398   2.516   3.471   2.013  1.0958 -0.1403 -0.2744
 2100SOL     hw 8399   2.430   3.407   1.906 -2.8997  1.7603  1.5983
 2100SOL     vw 8400   2.469   3.404   1.984  0.1496  0.3098  0.1671
 2101SOL     ow 8401   7.166   3.209   3.670 -0.6112  0.1024 -0.2977
 2101SOL     hw 8402   7.224   3.218   3.595  0.4534  1.9900  0.6613
 2101SOL     hw 8403   7.216   3.244   3.744 -2.1080 -0.4143  1.0367
 2101SOL     vw 8404   7.180   3.215   3.670 -0.6682  0.2834  0.0049
 2102SOL     ow 8405   0.551   7.195   2.726  0.4125 -0.7568 -0.0673
 2102SOL     hw 8406   0.588   7.241   2.652  1.0609 -1.3951 -0.1494
 2102SOL     hw 8407   0.461   7.226   2.732  0.2694 -0.9183 -1.2994
 2102SOL     vw 8408   0.544   7.205   2.717  0.4792 -0.8623 -0.2407
 2103SOL     ow 8409   2.743   2.630   6.886 -0.2087 -1.0715 -0.2424
 2103SOL     hw 8410   2.767   2.582   6.966 -1.1139 -0.5369  0.3681
 2103SOL     hw 8411   2.648   2.631   6.887 -0.2215  0.6668 -0.2730
 2103SOL     vw 8412   2.734   2.624   6.897 -0.3300 -0.7716 -0.1659
 2104SOL     ow 8413   4.037   5.083   4.324  0.0354 -0.1899  0.5493
 2104SOL     hw 8414   3.966   5.147   4.321  0.5040  0.2927 -1.2504
 2104SOL     hw 8415   4.110   5.130   4.364 -0.7586 -0.8736  2.9976
 2104SOL     vw 8416   4.037   5.097   4.329 -0.0074 -0.2165  0.6349
 2105SOL     ow 8417   7.073   0.603   3.509 -0.1902 -0.1565 -0.1255
 2105SOL     hw 8418   7.064   0.554   3.428 -1.6137 -0.2413  0.0627
 2105SOL     hw 8419   7.140   0.555   3.559 -0.4046 -0.9721 -0.6121
 2105SOL     vw 8420   7.081   0.590   3.505 -0.4065 -0.2753 -0.1649
 2106SOL     ow 8421   5.799   4.323   0.728 -0.1822  0.1816 -0.1455
 2106SOL     hw 8422   5.748   4.403   0.716 -0.9998 -0.1027  1.2217
 2106SOL     hw 8423   5.740   4.263   0.775  0.9629 -0.6295  0.3082
 2106SOL     vw 8424   5.785   4.326   0.733 -0.1388  0.0370  0.0947
 2107SOL     ow 8425   0.040   5.670   0.915 -0.0264  0.1207 -0.0483
 2107SOL     hw 8426   0.009   5.754   0.883  0.0368  0.5882  1.0511
 2107SOL     hw 8427   0.104   5.641   0.850 -2.6452 -0.8782 -2.3999
 2107SOL     vw 8428   0.044   5.677   0.902 -0.3636  0.0508 -0.2135
 2108SOL     ow 8429   0.540   2.615   3.964 -0.1087  0.2234  0.6668
 2108SOL     hw 8430   0.463   2.563   3.983 -0.8324  0.3267 -1.6072
 2108SOL     hw 8431   0.511   2.706   3.972 -0.0984  0.2631  0.2885
 2108SOL     vw 8432   0.526   2.620   3.967 -0.2028  0.2422  0.3170
 2109SOL     ow 8433   4.490   1.345   2.199  1.1146 -0.4153  0.0922
 2109SOL     hw 8434   4.411   1.311   2.156  1.1677 -1.3837  0.7245
 2109SOL     hw 8435   4.492   1.438   2.175 -0.8692 -0.0844  0.9789
 2109SOL     vw 8436   4.480   1.353   2.191  0.8600 -0.4994  0.2928
 2110SOL     ow 8437   1.786   1.831   2.531 -0.5295 -0.1567  0.4426
 2110SOL     hw 8438   1.728   1.755   2.533 -1.0921  0.2845  1.1474
 2110SOL     hw 8439   1.741   1.894   2.475 -1.4809  0.7686  2.2044
 2110SOL     vw 8440   1.773   1.829   2.524 -0.7292  0.0237  0.7681
 2111SOL     ow 8441   2.784   4.429   1.592  0.8839 -0.4582  0.4772
 2111SOL     hw 8442   2.845   4.415   1.665  0.7666 -0.9708  0.4781
 2111SOL     hw 8443   2.826   4.388   1.517  0.5373 -0.8220  0.4791
 2111SOL     vw 8444   2.797   4.422   1.592  0.8228 -0.5736  0.4776
 2112SOL     ow 8445   5.719   3.104   2.367  0.1818 -0.1621 -0.3628
 2112SOL     hw 8446   5.670   3.094   2.285  1.0012  0.5794 -0.9643
 2112SOL     hw 8447   5.673   3.049   2.430 -1.9756  1.1817 -0.6569
 2112SOL     vw 8448   5.707   3.096   2.365  0.0055  0.1129 -0.4810
 2113SOL     ow 8449   1.040   0.021   3.037 -0.5349 -0.1313  0.0351
 2113SOL     hw 8450   1.039   0.032   3.132 -0.6013  1.7643 -0.1383
 2113SOL     hw 8451   1.126  -0.018   3.018  0.5464  1.7974  0.7036
 2113SOL     vw 8452   1.051   0.017   3.047 -0.4010  0.3732  0.1005
 2114SOL     ow 8453   3.664   6.025   0.425 -0.3056  0.1555 -0.1324
 2114SOL     hw 8454   3.632   5.947   0.381 -1.1950  0.5799 -0.2489
 2114SOL     hw 8455   3.705   6.077   0.355 -2.0175  0.9895 -0.5818
 2114SOL     vw 8456   3.665   6.022   0.410 -0.6489  0.3219 -0.2070
 2115SOL     ow 8457   0.044   3.267   0.707  0.0606 -0.5762 -0.0877
 2115SOL     hw 8458   0.095   3.257   0.627 -0.7839 -2.8614 -0.4065
 2115SOL     hw 8459  -0.038   3.306   0.677  0.2629 -0.1582 -0.1092
 2115SOL     vw 8460   0.040   3.271   0.692 -0.0238 -0.8227 -0.1326
 2116SOL     ow 8461   6.454   0.998   6.817  0.4218 -0.0724 -0.0415
 2116SOL     hw 8462   6.378   0.972   6.766  0.8731 -1.4008 -0.0790
 2116SOL     hw 8463   6.479   1.084   6.783 -1.0842  0.4139  0.0213
 2116SOL     vw 8464   6.447   1.006   6.806  0.2823 -0.1835 -0.0381
 2117SOL     ow 8465   5.869   2.428   6.204 -0.3386  0.6961 -0.0506
 2117SOL     hw 8466   5.798   2.451   6.264 -0.3786  2.4123 -0.7035
 2117SOL     hw 8467   5.948   2.438   6.256 -0.5452 -1.9407  0.8989
 2117SOL     vw 8468   5.870   2.432   6.218 -0.3712  0.5747 -0.0112
 2118SOL     ow 8469   5.977   6.697   4.487 -0.4539 -0.4583 -0.0935
 2118SOL     hw 8470   5.932   6.775   4.519  0.7840  1.1585 -2.0953
 2118SOL     hw 8471   6.053   6.687   4.544  0.6133  1.1763 -1.1640
 2118SOL     vw 8472   5.981   6.706   4.499 -0.1497 -0.0293 -0.4990
 2119SOL     ow 8473   3.168   1.737   2.318  0.0672  0.0913  0.5430
 2119SOL     hw 8474   3.167   1.760   2.411 -0.2258  1.9280  0.1404
 2119SOL     hw 8475   3.097   1.788   2.280 -1.4210 -2.4871 -0.3514
 2119SOL     vw 8476   3.159   1.747   2.326 -0.1677 -0.0065  0.3718
 2120SOL     ow 8477   4.106   6.284   1.495  0.3379 -0.3437  0.5094
 2120SOL     hw 8478   4.152   6.200   1.496  0.5579 -0.2646 -0.8528
 2120SOL     hw 8479   4.140   6.329   1.418  0.8381  1.3700  1.6776
 2120SOL     vw 8480   4.117   6.279   1.485  0.4330 -0.1073  0.4838
 2121SOL     ow 8481   3.695   2.064   3.081  0.0763 -0.4164 -0.5004
 2121SOL     hw 8482   3.748   2.144   3.094  1.5924 -1.2491 -1.2464
 2121SOL     hw 8483   3.751   2.007   3.029 -0.6571 -2.3088  0.6959
 2121SOL     vw 8484   3.710   2.067   3.076  0.1795 -0.7759 -0.4410
 2122SOL     ow 8485   6.412   1.560   2.481  0.1080 -0.4772  0.2976
 2122SOL     hw 8486   6.383   1.522   2.397  0.1154 -0.1991  0.1687
 2122SOL     hw 8487   6.399   1.654   2.470  0.6432 -0.3881  0.4030
 2122SOL     vw 8488   6.406   1.567   2.468  0.1795 -0.4288  0.2943
 2123SOL     ow 8489   0.179   0.922   0.914 -0.1772  0.6857  0.3227
 2123SOL     hw 8490   0.170   0.945   0.821 -3.0726  1.3424  0.6643
 2123SOL     hw 8491   0.236   0.990   0.950 -0.3277  1.3601 -0.6801
 2123SOL     vw 8492   0.185   0.934   0.906 -0.5791  0.8613  0.2355
 2124SOL     ow 8493   0.219   3.166   7.055  0.1405 -0.4624 -0.0990
 2124SOL     hw 8494   0.271   3.218   6.994 -0.0188  0.7962  0.8132
 2124SOL     hw 8495   0.232   3.207   7.140  0.4439 -2.2457  0.7761
 2124SOL     vw 8496   0.228   3.178   7.058  0.1595 -0.5317  0.1371
 2125SOL     ow 8497   2.283   5.087   5.108 -0.0866  0.6288 -0.5938
 2125SOL     hw 8498   2.201   5.053   5.145  1.3590 -1.1601  1.2411
 2125SOL     hw 8499   2.279   5.063   5.016  0.0231 -3.1956  0.2330
 2125SOL     vw 8500   2.272   5.079   5.101  0.1186 -0.1118 -0.2427
 2126SOL     ow 8501   6.376   7.054   1.570 -0.3804 -0.3290  0.5442
 2126SOL     hw 8502   6.397   7.032   1.661  0.9945  0.5729  0.4781
 2126SOL     hw 8503   6.282   7.068   1.570 -0.2758  0.5989  2.0550
 2126SOL     vw 8504   6.366   7.053   1.582 -0.1850 -0.0880  0.7348
 2127SOL     ow 8505   4.383   2.530   3.511  0.0209  0.1478  0.4906
 2127SOL     hw 8506   4.335   2.525   3.429  2.9917 -0.2326 -1.3870
 2127SOL     hw 8507   4.345   2.462   3.566 -1.0049 -0.6717 -1.1580
 2127SOL     vw 8508   4.372   2.520   3.508  0.2775 -0.0105  0.0255
 2128SOL     ow 8509   2.638   3.943   0.086  0.1863  0.4879 -0.1863
 2128SOL     hw 8510   2.624   3.887   0.010  2.2377  2.4977 -2.1763
 2128SOL     hw 8511   2.727   3.923   0.115  0.0390  0.9626  0.6227
 2128SOL     vw 8512   2.648   3.933   0.080  0.4375  0.8159 -0.3421
 2129SOL     ow 8513   1.320   1.583   0.712  0.0874 -0.6061  0.1637
 2129SOL     hw 8514   1.230   1.559   0.730  0.4738 -0.9652  1.7600
 2129SOL     hw 8515   1.369   1.501   0.718  0.6417 -0.2786  0.1936
 2129SOL     vw 8516   1.315   1.569   0.715  0.2115 -0.6103  0.3783
 2130SOL     ow 8517   2.457   2.681   5.981 -0.3593  0.0155  0.2239
 2130SOL     hw 8518   2.410   2.745   6.034  0.2604  0.0274  0.7815
 2130SOL     hw 8519   2.530   2.730   5.943  0.1098 -0.3549  0.6440
 2130SOL     vw 8520   2.460   2.696   5.983 -0.2158 -0.0318  0.3529
 2131SOL     ow 8521   6.369   1.843   1.264  0.1848  0.3042  0.1811
 2131SOL     hw 8522   6.342   1.771   1.320  0.7596 -0.2155 -0.1907
 2131SOL     hw 8523   6.315   1.917   1.291 -1.0050 -0.4782  0.0028
 2131SOL     vw 8524   6.359   1.844   1.275  0.1037  0.1324  0.1085
 2132SOL     ow 8525   1.745   5.719   5.971 -0.0477 -0.4121 -0.2479
 2132SOL     hw 8526   1.807   5.790   5.955  0.0200 -0.4117  0.0126
 2132SOL     hw 8527   1.767   5.686   6.058 -0.5047 -0.3206 -0.0933
 2132SOL     vw 8528   1.756   5.724   5.980 -0.0991 -0.4001 -0.1931
 2133SOL     ow 8529   2.697   4.891   1.720  0.3618  0.3887 -0.5769
 2133SOL     hw 8530   2.751   4.884   1.798 -0.0064 -0.8550 -0.3963
 2133SOL     hw 8531   2.674   4.983   1.713  2.6972  1.0082 -0.8111
 2133SOL     vw 8532   2.701   4.902   1.729  0.6213  0.3064 -0.5841
 2134SOL     ow 8533   4.005   4.863   3.873  0.3517  0.0071 -0.3390
 2134SOL     hw 8534   4.055   4.907   3.804  0.0476  1.3814  0.2857
 2134SOL     hw 8535   3.931   4.922   3.889 -0.0674 -0.7449  0.5318
 2134SOL     vw 8536   4.002   4.877   3.866  0.2565  0.0892 -0.1416
 2135SOL     ow 8537   0.939   5.673   2.043 -0.6012  0.6114  0.0644
 2135SOL     hw 8538   0.861   5.698   1.994 -0.7539  0.8831  0.4455
 2135SOL     hw 8539   0.922   5.702   2.132 -0.2757  0.2220  0.2577
 2135SOL     vw 8540   0.927   5.680   2.048 -0.5784  0.5960  0.1401
 2136SOL     ow 8541   4.190   4.818   4.384  0.4546 -0.3297  0.3297
 2136SOL     hw 8542   4.257   4.831   4.451 -1.4977 -1.5070  2.6801
 2136SOL     hw 8543   4.156   4.730   4.401  0.5788 -1.1723 -2.9880
 2136SOL     vw 8544   4.194   4.808   4.395  0.2129 -0.5960  0.2022
 2137SOL     ow 8545   2.129   7.145   1.543  0.4310 -0.6075 -0.1647
 2137SOL     hw 8546   2.119   7.235   1.515 -2.5244 -1.1619 -1.2652
 2137SOL     hw 8547   2.142   7.095   1.462 -1.2583 -1.4588  0.0248
 2137SOL     vw 8548   2.129   7.150   1.529 -0.1818 -0.7925 -0.2848
 2138SOL     ow 8549   4.403   7.040   3.953 -0.2718 -0.7068 -0.4452
 2138SOL     hw 8550   4.449   7.120   3.927 -0.2865 -0.2706  0.8171
 2138SOL     hw 8551   4.367   7.005   3.871  0.4809  0.0995 -1.1353
 2138SOL     vw 8552   4.404   7.046   3.938 -0.1745 -0.5429 -0.3698
 2139SOL     ow 8553   0.125   4.752   1.355  0.6536 -0.1473 -0.0001
 2139SOL     hw 8554   0.157   4.797   1.434  0.6775 -0.4886  0.1851
 2139SOL     hw 8555   0.093   4.668   1.387 -0.8290  0.3417 -0.1140
 2139SOL     vw 8556   0.125   4.747   1.370  0.4611 -0.1278  0.0093
 2140SOL     ow 8557   2.455   1.600   5.100 -0.1451 -0.4787 -0.1701
 2140SOL     hw 8558   2.406   1.549   5.036  0.5923 -2.2442  0.6118
 2140SOL     hw 8559   2.395   1.608   5.175 -0.9829  1.5280 -0.9959
 2140SOL     vw 8560   2.440   1.595   5.102 -0.1584 -0.4469 -0.1757
 2141SOL     ow 8561   4.460   2.453   6.116 -0.5892 -0.1768  0.7487
 2141SOL     hw 8562   4.443   2.547   6.106 -2.6903 -0.5243  0.7655
 2141SOL     hw 8563   4.375   2.411   6.104 -0.3246 -1.8802  3.9173
 2141SOL     vw 8564   4.447   2.460   6.113 -0.8316 -0.4475  1.1690
 2142SOL     ow 8565   5.425   6.201   6.363  0.2440 -0.1177  0.3207
 2142SOL     hw 8566   5.336   6.188   6.332  0.5318  0.2028 -0.6731
 2142SOL     hw 8567   5.443   6.125   6.419  0.4698 -1.9008 -2.0587
 2142SOL     vw 8568   5.416   6.190   6.367  0.3119 -0.3104 -0.1242
 2143SOL     ow 8569   5.964   7.075   3.238 -0.2006 -0.1084 -0.1439
 2143SOL     hw 8570   5.921   7.111   3.315 -2.5354  2.0932 -2.2894
 2143SOL     hw 8571   5.897   7.021   3.196  0.8485 -0.8512 -0.9197
 2143SOL     vw 8572   5.949   7.072   3.242 -0.3703  0.0842 -0.5293
 2144SOL     ow 8573   2.568   0.653   4.780 -0.3560 -0.1988 -0.0517
 2144SOL     hw 8574   2.619   0.595   4.837  1.4463  0.0731 -1.3030
 2144SOL     hw 8575   2.571   0.738   4.822  0.8787 -0.0218 -0.4748
 2144SOL     vw 8576   2.575   0.656   4.793  0.0448 -0.1396 -0.2725
 2145SOL     ow 8577   3.810   0.051   0.910  0.9406  0.5475  0.3717
 2145SOL     hw 8578   3.892   0.003   0.899 -0.9573 -2.5084 -2.0223
 2145SOL     hw 8579   3.781   0.071   0.821 -0.9043  1.6054  1.1528
 2145SOL     vw 8580   3.817   0.048   0.897  0.4469  0.2839  0.1589
 2146SOL     ow 8581   4.099   2.971   6.880 -0.4087 -1.0048 -0.2032
 2146SOL     hw 8582   4.178   3.015   6.911  0.5272 -1.1098 -2.3249
 2146SOL     hw 8583   4.119   2.877   6.886 -1.3876 -1.1482  1.7039
 2146SOL     vw 8584   4.112   2.964   6.885 -0.4146 -1.0377 -0.2315
 2147SOL     ow 8585   4.170   3.300   5.074  0.8180 -0.2025 -0.5566
 2147SOL     hw 8586   4.137   3.375   5.124 -0.9920 -0.3126 -1.5291
 2147SOL     hw 8587   4.226   3.338   5.006 -0.9610  0.4014 -1.7335
 2147SOL     vw 8588   4.173   3.315   5.072  0.3445 -0.1373 -0.8404
 2148SOL     ow 8589   2.686   7.184   2.799 -0.2215 -0.7384 -0.1097
 2148SOL     hw 8590   2.615   7.124   2.818 -0.8773 -0.1169 -0.5532
 2148SOL     hw 8591   2.643   7.268   2.781  0.6477 -0.2300  0.1108
 2148SOL     vw 8592   2.671   7.187   2.799 -0.1932 -0.5893 -0.1392
 2149SOL     ow 8593   3.908   5.599   6.712  0.2390  0.7319  0.6352
 2149SOL     hw 8594   3.838   5.589   6.776 -0.4516  1.9785  0.1205
 2149SOL     hw 8595   3.971   5.530   6.733 -1.6026 -1.0802  0.4848
 2149SOL     vw 8596   3.907   5.589   6.723 -0.0950  0.6571  0.5476
 2150SOL     ow 8597   1.696   5.425   0.873 -0.3579 -0.3160 -0.2962
 2150SOL     hw 8598   1.692   5.424   0.968 -0.1814  0.5119 -0.2723
 2150SOL     hw 8599   1.614   5.466   0.845 -0.7611 -1.2598 -0.5362
 2150SOL     vw 8600   1.685   5.431   0.882 -0.3878 -0.3312 -0.3247
 2151SOL     ow 8601   0.336   1.980   4.637 -0.4105  0.1347 -0.1641
 2151SOL     hw 8602   0.249   1.943   4.621  0.1435 -1.2343 -0.1351
 2151SOL     hw 8603   0.391   1.943   4.567  0.9722 -2.1172  1.9620
 2151SOL     vw 8604   0.332   1.970   4.625 -0.1550 -0.3430  0.1204
 2152SOL     ow 8605   3.456   6.177   3.845 -0.3046  0.4987 -0.3139
 2152SOL     hw 8606   3.496   6.251   3.891 -0.2285  0.9891 -1.1368
 2152SOL     hw 8607   3.459   6.203   3.753 -1.6630  0.1351 -0.4834
 2152SOL     vw 8608   3.462   6.191   3.839 -0.4739  0.5155 -0.4449
 2153SOL     ow 8609   2.943   0.966   0.722 -0.3734  0.3804  0.0263
 2153SOL     hw 8610   2.931   0.968   0.817  0.8033  2.2088  0.1753
 2153SOL     hw 8611   2.954   1.057   0.697  2.3347 -0.2431 -1.4426
 2153SOL     vw 8612   2.942   0.978   0.732  0.1391  0.5393 -0.1478
 2154SOL     ow 8613   6.904   6.735   2.451  0.0317  0.0674 -0.1137
 2154SOL     hw 8614   6.845   6.679   2.500 -0.6168 -0.8130 -1.8260
 2154SOL     hw 8615   6.881   6.721   2.359  2.3872  0.2815 -0.8146
 2154SOL     vw 8616   6.893   6.726   2.445  0.2570 -0.0203 -0.4320
 2155SOL     ow 8617   5.983   6.976   2.316 -0.1358  0.3350 -0.9748
 2155SOL     hw 8618   6.026   6.976   2.230  0.3978  1.9612 -0.7416
 2155SOL     hw 8619   5.954   7.066   2.329 -0.2292  0.1231  0.5392
 2155SOL     vw 8620   5.985   6.988   2.307 -0.0777  0.5217 -0.7442
 2156SOL     ow 8621   0.637   3.498   3.535 -0.1870  0.5298  0.0616
 2156SOL     hw 8622   0.556   3.498   3.585  0.2702  0.5534  0.8214
 2156SOL     hw 8623   0.630   3.422   3.477 -0.2284 -0.2156  1.0111
 2156SOL     vw 8624   0.626   3.488   3.534 -0.1321  0.4346  0.2872
 2157SOL     ow 8625   2.494   4.642   0.260  0.0327 -0.3619 -0.2099
 2157SOL     hw 8626   2.413   4.643   0.210 -0.8139  1.0559  1.0987
 2157SOL     hw 8627   2.467   4.656   0.350  1.7363  0.5944  0.2088
 2157SOL     vw 8628   2.480   4.644   0.265  0.1458 -0.0486  0.0180
 2158SOL     ow 8629   4.870   1.040   5.257  0.0559 -1.0052  0.2027
 2158SOL     hw 8630   4.901   1.115   5.308  2.2284 -1.8181  0.1852
 2158SOL     hw 8631   4.824   1.080   5.183  1.1855  0.3444  0.1749
 2158SOL     vw 8632   4.868   1.055   5.254  0.4914 -0.9345  0.1965
 2159SOL     ow 8633   0.635   6.866   3.131 -0.7175  0.0671  0.0853
 2159SOL     hw 8634   0.548   6.893   3.100 -1.6445 -1.5060  1.1459
 2159SOL     hw 8635   0.638   6.772   3.116  1.3688  0.2789 -1.1330
 2159SOL     vw 8636   0.624   6.857   3.125 -0.5645 -0.1123  0.0645
 2160SOL     ow 8637   3.897   0.565   1.019  0.2342 -0.5992  0.6247
 2160SOL     hw 8638   3.968   0.576   1.082 -0.3978 -0.8037  1.3859
 2160SOL     hw 8639   3.822   0.609   1.059  0.5107  1.7442 -1.2324
 2160SOL     vw 8640   3.896   0.572   1.033  0.1872 -0.3169  0.4801
 2161poe    c31 8641   5.414   2.260   4.506 -0.1539  0.0695  0.3609
 2161poe     o2 8642   5.386   2.351   4.402 -0.3536 -0.4136 -0.0080
 2161poe    c23 8643   5.292   2.448   4.440 -0.7443 -0.7445 -0.1252
 2161poe    c23 8644   5.238   2.523   4.317  0.2552  0.5401  0.1984
 2161poe     o2 8645   5.349   2.573   4.246  0.4898  0.1302  0.2738
 2161poe    c23 8646   5.327   2.679   4.156  0.0415  0.4438  0.7545
 2161poe    c23 8647   5.452   2.706   4.071 -0.3759 -0.2925 -0.1093
 2161poe     o2 8648   5.492   2.593   3.997  0.0893 -0.2893  0.1331
 2161poe    c23 8649   5.618   2.609   3.936 -0.1260 -0.0791 -0.2565
 2161poe    c23 8650   5.674   2.466   3.938 -0.3474 -0.1582  0.4636
 2161poe     o2 8651   5.569   2.375   3.911 -0.3518 -0.0432  0.0832
 2161poe    c31 8652   5.597   2.298   3.796 -0.0367  0.0401  0.1022
 2162poe    c31 8653   5.892   0.084   3.495  0.4319  0.8223 -0.0891
 2162poe     o2 8654   5.839  -0.034   3.439  0.0194  1.0283 -0.1364
 2162poe    c23 8655   5.752  -0.112   3.517  0.4648  0.1978 -0.4546
 2162poe    c23 8656   5.682  -0.208   3.420 -0.6433  0.2134  0.3177
 2162poe     o2 8657   5.783  -0.275   3.349 -0.6002  0.2263  0.3674
 2162poe    c23 8658   5.726  -0.373   3.265  0.1497  0.1055 -0.0078
 2162poe    c23 8659   5.813  -0.427   3.150 -0.1413 -0.1284 -0.1174
 2162poe     o2 8660   5.854  -0.323   3.064  0.3773  0.2978  0.6343
 2162poe    c23 8661   5.845  -0.381   2.936 -0.0534  0.8006  0.4315
 2162poe    c23 8662   5.763  -0.286   2.846 -0.1383 -0.1004 -0.4645
 2162poe     o2 8663   5.824  -0.165   2.807 -0.3665  0.1017 -0.1911
 2162poe    c31 8664   5.765  -0.134   2.682 -0.5140  0.3440 -0.0633
 2163poe    c31 8665   0.152   1.714   3.607  0.1846 -0.0890  0.0035
 2163poe     o2 8666   0.174   1.840   3.548 -0.3626  0.2113  0.4367
 2163poe    c23 8667   0.257   1.914   3.635 -0.0570 -0.3013  0.5816
 2163poe    c23 8668   0.273   2.049   3.564 -0.0737 -0.2665  0.6441
 2163poe     o2 8669   0.149   2.080   3.504  0.3367  0.0196 -0.0700
 2163poe    c23 8670   0.132   2.218   3.480  0.0953  0.0204  0.1047
 2163poe    c23 8671  -0.012   2.270   3.466 -0.0204 -0.3171  0.0353
 2163poe     o2 8672  -0.071   2.215   3.350 -0.0043  0.4595 -0.3431
 2163poe    c23 8673  -0.208   2.251   3.349 -0.1169  0.0602  0.1948
 2163poe    c23 8674  -0.299   2.174   3.251 -0.0397 -0.0287  0.1919
 2163poe     o2 8675  -0.271   2.036   3.251 -0.4683 -0.1231 -0.6292
 2163poe    c31 8676  -0.329   1.973   3.139 -0.7428 -0.1928 -0.4481
 2164poe    c31 8677   4.485   1.809   2.872 -0.1610 -0.0068  0.4129
 2164poe     o2 8678   4.617   1.847   2.842 -0.1774  0.0505  0.4108
 2164poe    c23 8679   4.619   1.987   2.823 -0.6048 -0.0665 -0.5599
 2164poe    c23 8680   4.753   2.022   2.757 -0.0546 -0.8935  0.0989
 2164poe     o2 8681   4.852   1.947   2.824  0.6596 -0.2523 -0.2172
 2164poe    c23 8682   4.980   1.962   2.767  0.8655  0.0558  0.3233
 2164poe    c23 8683   5.078   1.870   2.842  0.3735 -0.9406 -0.2444
 2164poe     o2 8684   5.047   1.735   2.871  0.1928 -0.8369  0.0455
 2164poe    c23 8685   5.141   1.675   2.958  0.6076  0.0207  0.1993
 2164poe    c23 8686   5.128   1.522   2.949 -0.0079  0.1014 -0.3274
 2164poe     o2 8687   4.999   1.494   2.999 -0.0934  0.0183 -0.5921
 2164poe    c31 8688   4.986   1.359   3.039  0.6435  0.0991 -0.0617
 2165poe    c31 8689   6.529   6.087   0.106 -0.8731 -0.7366 -0.3752
 2165poe     o2 8690   6.465   6.153  -0.001  0.2230  0.2077 -0.4771
 2165poe    c23 8691   6.423   6.282   0.037 -0.3014 -0.1428  0.1594
 2165poe    c23 8692   6.404   6.378  -0.082 -0.3225  0.3050  0.5242
 2165poe     o2 8693   6.528   6.386  -0.147 -0.2992 -0.2963  0.4935
 2165poe    c23 8694   6.539   6.481  -0.251 -0.1366  0.1217  0.8887
 2165poe    c23 8695   6.665   6.456  -0.336 -0.7696 -0.0834 -0.0096
 2165poe     o2 8696   6.670   6.333  -0.405  0.4783 -0.1284  0.1415
 2165poe    c23 8697   6.791   6.314  -0.476  0.1862 -0.0012 -0.3881
 2165poe    c23 8698   6.783   6.221  -0.598 -0.3665 -0.7128  0.1825
 2165poe     o2 8699   6.740   6.302  -0.705 -0.2983 -0.3186  0.4547
 2165poe    c31 8700   6.710   6.234  -0.825  0.0993  0.0140  0.1645
 2166poe    c31 8701   3.302   6.291   0.702  0.0770  0.3594  0.9595
 2166poe     o2 8702   3.361   6.359   0.594  0.0165 -0.0881  0.6430
 2166poe    c23 8703   3.458   6.282   0.527  0.1786  0.6939 -0.0426
 2166poe    c23 8704   3.520   6.359   0.409  0.6716  1.1836  0.5275
 2166poe     o2 8705   3.433   6.376   0.299  0.8238 -0.4475  0.1286
 2166poe    c23 8706   3.489   6.471   0.211  0.2561  0.1239  0.3773
 2166poe    c23 8707   3.402   6.492   0.087  0.0120 -0.0572  0.5171
 2166poe     o2 8708   3.274   6.513   0.143 -0.0860  0.2377  0.1878
 2166poe    c23 8709   3.181   6.516   0.038  0.0647 -0.1821  0.0401
 2166poe    c23 8710   3.052   6.556   0.113 -0.1322 -0.0633 -0.3563
 2166poe     o2 8711   3.013   6.473   0.220 -0.1855 -0.8451 -0.9678
 2166poe    c31 8712   2.890   6.509   0.279  0.1058 -0.1399 -0.7751
 2167poe    c31 8713   3.979   2.761   4.669  0.4944 -0.4585 -0.5594
 2167poe     o2 8714   3.940   2.885   4.724 -0.2879 -0.9822  0.0913
 2167poe    c23 8715   3.992   2.900   4.854  1.0731 -0.4184 -0.4947
 2167poe    c23 8716   3.941   3.028   4.922 -0.5047 -1.1322 -0.2771
 2167poe     o2 8717   3.812   3.013   4.975 -0.4394 -0.2461  0.1587
 2167poe    c23 8718   3.752   3.132   5.020  0.0553  0.1458 -0.2169
 2167poe    c23 8719   3.611   3.116   5.080  0.1200 -0.1554 -0.1471
 2167poe     o2 8720   3.585   3.059   5.207  0.0614 -0.4852 -0.3073
 2167poe    c23 8721   3.445   3.063   5.223 -0.0548 -0.0005 -1.3573
 2167poe    c23 8722   3.401   2.924   5.272  0.1640  0.5634  0.5033
 2167poe     o2 8723   3.502   2.860   5.346 -0.1599 -0.1199  0.3641
 2167poe    c31 8724   3.462   2.749   5.422 -0.3184 -0.4804 -0.2357
 2168poe    c31 8725   0.652   5.327   5.007  0.2927 -0.2205 -0.1921
 2168poe     o2 8726   0.543   5.298   5.091 -0.0289  0.1614 -0.4731
 2168poe    c23 8727   0.585   5.234   5.209 -0.2516 -0.8227 -0.9175
 2168poe    c23 8728   0.486   5.226   5.327 -0.0077 -0.2558 -0.6678
 2168poe     o2 8729   0.438   5.353   5.365  0.4222 -0.3301  0.1645
 2168poe    c23 8730   0.328   5.319   5.447 -0.1013  0.3752 -0.2304
 2168poe    c23 8731   0.241   5.444   5.466 -0.3193  0.1708  0.1138
 2168poe     o2 8732   0.186   5.475   5.340  0.0106  0.1519 -0.0354
 2168poe    c23 8733   0.134   5.606   5.334 -0.8628 -0.1680  0.4439
 2168poe    c23 8734   0.100   5.642   5.188 -0.0926  0.1620  0.3425
 2168poe     o2 8735  -0.009   5.569   5.135  0.0142  0.3964 -0.2077
 2168poe    c31 8736  -0.069   5.631   5.024 -0.4865 -0.0535 -0.1912
 2169poe    c31 8737   1.074   0.902   6.265 -0.0972  0.6632 -0.3995
 2169poe     o2 8738   1.025   1.004   6.349 -0.2495  0.1429  0.1469
 2169poe    c23 8739   1.109   1.116   6.336 -0.0641  0.0776  0.7371
 2169poe    c23 8740   1.048   1.246   6.392 -0.3405 -0.0268  0.6828
 2169poe     o2 8741   0.927   1.294   6.340 -0.1076  0.0683  0.2241
 2169poe    c23 8742   0.875   1.409   6.403 -0.1044  0.2823 -0.1574
 2169poe    c23 8743   0.756   1.450   6.315 -0.1981  0.2020 -0.0688
 2169poe     o2 8744   0.675   1.343   6.271  0.4321 -0.3031 -0.0097
 2169poe    c23 8745   0.557   1.394   6.213  0.0656 -0.4653  0.5953
 2169poe    c23 8746   0.461   1.294   6.147 -0.2229  0.4306 -0.3564
 2169poe     o2 8747   0.504   1.229   6.029 -0.1369 -0.3857  0.1185
 2169poe    c31 8748   0.397   1.153   5.977 -0.1175 -0.2969 -0.0534
 2170poe    c31 8749   0.405   4.236   2.414 -0.2451  0.4832 -0.3078
 2170poe     o2 8750   0.535   4.244   2.468 -0.2161 -0.5574 -0.1998
 2170poe    c23 8751   0.631   4.222   2.368  0.2335 -0.3352  0.1818
 2170poe    c23 8752   0.760   4.302   2.394  0.0718 -0.0063 -0.0167
 2170poe     o2 8753   0.757   4.442   2.381  0.3921 -0.0062 -0.1179
 2170poe    c23 8754   0.871   4.511   2.427 -0.0180  0.5742  0.0486
 2170poe    c23 8755   0.876   4.658   2.382 -0.0496  0.5428 -0.0594
 2170poe     o2 8756   0.757   4.714   2.434 -0.2153  0.3467 -0.2288
 2170poe    c23 8757   0.738   4.850   2.402  0.3854  0.4224 -0.2767
 2170poe    c23 8758   0.645   4.922   2.502 -0.2462 -0.4414 -0.2324
 2170poe     o2 8759   0.539   4.829   2.516 -0.0757 -0.5927  0.0749
 2170poe    c31 8760   0.431   4.898   2.575  0.1525 -0.0568 -0.1254
 2171poe    c31 8761   4.506   3.472   4.509 -0.5800  0.9014 -0.0981
 2171poe     o2 8762   4.635   3.512   4.468 -0.3201  0.3071  0.1211
 2171poe    c23 8763   4.736   3.486   4.563 -0.2058  0.1722 -0.0376
 2171poe    c23 8764   4.878   3.536   4.529  0.1975 -0.8113  0.1756
 2171poe     o2 8765   4.964   3.462   4.445  0.1230 -0.2834 -0.3759
 2171poe    c23 8766   5.000   3.332   4.485 -0.0740 -0.1955  0.0958
 2171poe    c23 8767   5.072   3.239   4.385 -0.4612 -0.3538 -0.0364
 2171poe     o2 8768   5.005   3.255   4.262  0.0219  0.2025 -0.2286
 2171poe    c23 8769   5.091   3.229   4.153  0.0910 -0.3265 -0.0457
 2171poe    c23 8770   5.022   3.208   4.017 -0.6462 -0.0904  0.2919
 2171poe     o2 8771   4.944   3.322   3.987  0.1444  0.4580  0.2837
 2171poe    c31 8772   4.884   3.315   3.859  0.0238  0.2220  0.3512
 2172poe    c31 8773   1.468   1.793   3.203 -0.1362  0.0360  0.9180
 2172poe     o2 8774   1.582   1.863   3.159 -0.1408 -0.0706  0.7343
 2172poe    c23 8775   1.666   1.789   3.074  0.0319  0.5852  0.3317
 2172poe    c23 8776   1.793   1.861   3.024  0.3691 -0.1315  0.1292
 2172poe     o2 8777   1.894   1.891   3.117  0.1689  0.8467  0.0436
 2172poe    c23 8778   1.994   1.979   3.070 -0.1682  0.9339 -0.5155
 2172poe    c23 8779   1.996   2.121   3.131 -0.7360  0.6066  0.2768
 2172poe     o2 8780   2.025   2.123   3.269  0.0988 -0.4238  0.1306
 2172poe    c23 8781   2.037   2.259   3.307 -0.2200 -0.3523 -0.0214
 2172poe    c23 8782   2.084   2.257   3.454  0.3105  0.4134 -0.1761
 2172poe     o2 8783   2.022   2.153   3.525  1.0331  0.3916  0.4239
 2172poe    c31 8784   2.027   2.177   3.664 -0.2669 -0.2233  0.5913
 2173poe    c31 8785   5.349   2.856   4.981 -0.2825  0.2025 -0.2049
 2173poe     o2 8786   5.427   2.910   5.085  0.0425 -0.0319 -0.3243
 2173poe    c23 8787   5.364   3.025   5.136  0.2027  0.0256 -0.2564
 2173poe    c23 8788   5.436   3.099   5.251 -0.1390  0.0102 -0.0327
 2173poe     o2 8789   5.462   3.013   5.359 -0.2333  0.0300  0.0061
 2173poe    c23 8790   5.532   3.084   5.458 -0.2883 -0.0363  0.0925
 2173poe    c23 8791   5.555   3.001   5.586 -0.8946 -0.3416  0.0060
 2173poe     o2 8792   5.612   2.878   5.549  0.1780  0.1554 -0.0224
 2173poe    c23 8793   5.597   2.785   5.654 -0.0301  0.0931 -0.1078
 2173poe    c23 8794   5.589   2.648   5.583  0.3737  0.0037  0.0202
 2173poe     o2 8795   5.686   2.657   5.480  0.1986  0.1960 -0.1284
 2173poe    c31 8796   5.744   2.531   5.454 -0.7356 -0.2754 -0.0012
 2174poe    c31 8797   1.514   3.090   7.005 -0.0435  0.4219 -0.5637
 2174poe     o2 8798   1.650   3.084   6.971 -0.0086  0.4660 -0.4328
 2174poe    c23 8799   1.670   3.103   6.832  0.4848 -0.2802 -0.4714
 2174poe    c23 8800   1.810   3.159   6.797  0.4292  0.0789 -0.1384
 2174poe     o2 8801   1.906   3.074   6.856 -0.1526 -0.0218  0.6839
 2174poe    c23 8802   2.035   3.125   6.834 -0.4481  0.3308 -0.3212
 2174poe    c23 8803   2.136   3.011   6.857 -0.4694  0.3592 -0.0839
 2174poe     o2 8804   2.132   2.975   6.993  0.2977  0.5683  0.0019
 2174poe    c23 8805   2.202   2.855   7.015 -1.2009 -0.2133  0.6622
 2174poe    c23 8806   2.246   2.836   7.161  0.0746  0.3670  0.3640
 2174poe     o2 8807   2.145   2.813   7.257 -0.4995 -0.0421 -0.3300
 2174poe    c31 8808   2.200   2.813   7.387 -0.1610 -0.0361 -0.4711
 2175poe    c31 8809   1.548   0.501   5.986 -0.6798 -0.1406  0.5408
 2175poe     o2 8810   1.496   0.612   6.056  0.1060  0.6290 -0.0845
 2175poe    c23 8811   1.573   0.641   6.170  0.5222 -0.7210 -0.0077
 2175poe    c23 8812   1.530   0.569   6.299 -0.4041  0.0122  0.0943
 2175poe     o2 8813   1.539   0.429   6.295 -0.3447  0.0321 -0.6456
 2175poe    c23 8814   1.483   0.372   6.411  0.5709  0.4374  0.0105
 2175poe    c23 8815   1.528   0.246   6.486 -0.6698 -0.0454 -0.0248
 2175poe     o2 8816   1.507   0.131   6.407 -0.1792  0.0320 -0.2745
 2175poe    c23 8817   1.615   0.096   6.324 -0.0326 -0.7369  0.2251
 2175poe    c23 8818   1.607   0.133   6.175  0.2279 -0.1942  0.3425
 2175poe     o2 8819   1.704   0.091   6.083 -0.1088  0.0034 -0.1076
 2175poe    c31 8820   1.674   0.140   5.954  0.1450 -0.2733 -0.2728
 2176poe    c31 8821   1.827   6.113   2.571 -0.0741 -0.8455  0.2887
 2176poe     o2 8822   1.931   6.132   2.478 -0.2787 -0.3937  0.1478
 2176poe    c23 8823   2.065   6.149   2.519 -0.3600 -0.0405  0.2640
 2176poe    c23 8824   2.106   6.268   2.608 -0.4250 -0.0474  0.3036
 2176poe     o2 8825   2.102   6.393   2.544  0.0057 -0.3460 -0.3165
 2176poe    c23 8826   2.123   6.498   2.636  0.2027 -0.6002 -0.0700
 2176poe    c23 8827   2.030   6.547   2.748  0.1062 -0.8224 -0.0515
 2176poe     o2 8828   2.027   6.468   2.865 -0.1701 -0.3392  0.2722
 2176poe    c23 8829   2.141   6.491   2.945  0.4193 -0.2016 -0.5921
 2176poe    c23 8830   2.153   6.404   3.071 -0.6886 -0.1292 -0.4233
 2176poe     o2 8831   2.088   6.471   3.176  0.2164  0.3986 -0.1914
 2176poe    c31 8832   2.054   6.385   3.282 -0.0574 -0.1758 -0.7462
 2177poe    c31 8833   1.345   6.901   4.210 -0.3645 -0.1620  0.5249
 2177poe     o2 8834   1.367   6.819   4.098  0.2828  0.1331  0.4304
 2177poe    c23 8835   1.429   6.697   4.132 -0.7580 -0.5249  0.0020
 2177poe    c23 8836   1.443   6.611   4.005  0.1388 -0.4910  0.0738
 2177poe     o2 8837   1.324   6.585   3.934  0.0334 -0.6802  0.3184
 2177poe    c23 8838   1.346   6.562   3.796  0.0018 -0.5841  0.2981
 2177poe    c23 8839   1.213   6.552   3.719  0.1292  0.5742 -0.1028
 2177poe     o2 8840   1.138   6.671   3.718 -0.0668  0.4517 -0.0751
 2177poe    c23 8841   1.013   6.647   3.657  0.0463 -0.3369 -0.0085
 2177poe    c23 8842   0.943   6.783   3.641  0.3016 -0.2309 -0.2318
 2177poe     o2 8843   0.938   6.856   3.762  0.1654 -0.0215 -0.3634
 2177poe    c31 8844   0.883   6.981   3.727 -0.0659 -0.0838 -0.2227
 2178poe    c31 8845   0.586   6.801   0.328  0.7823  0.3976 -0.1583
 2178poe     o2 8846   0.548   6.774   0.461  0.1039  0.0578 -0.4166
 2178poe    c23 8847   0.588   6.643   0.495  0.0429  0.1103 -0.1449
 2178poe    c23 8848   0.554   6.612   0.642  0.1033  0.3275 -0.0855
 2178poe     o2 8849   0.637   6.695   0.720  0.0252  0.2246  0.1072
 2178poe    c23 8850   0.654   6.632   0.845  0.0699 -0.1859 -0.1050
 2178poe    c23 8851   0.732   6.712   0.952  0.5622 -0.0583 -0.5536
 2178poe     o2 8852   0.652   6.818   1.000  0.6807 -0.4179  0.4666
 2178poe    c23 8853   0.727   6.937   1.004  0.4064 -0.2094 -0.3653
 2178poe    c23 8854   0.631   7.055   1.028  0.5226 -0.2006  0.0573
 2178poe     o2 8855   0.556   7.090   0.914  0.3224  0.3011  0.3399
 2178poe    c31 8856   0.525   7.226   0.890 -0.3510  0.0844 -0.0343
 2179poe    c31 8857   3.932   3.644   5.823 -0.5493 -0.4072  0.1215
 2179poe     o2 8858   3.831   3.739   5.849 -0.1221  0.1347 -0.1710
 2179poe    c23 8859   3.881   3.869   5.868  0.2476 -0.0149 -0.1192
 2179poe    c23 8860   3.790   3.993   5.864  0.0739 -0.1588 -0.8044
 2179poe     o2 8861   3.741   4.013   5.995  0.2060  0.1223 -0.7975
 2179poe    c23 8862   3.636   4.107   5.995  0.2175  0.1356 -0.2701
 2179poe    c23 8863   3.551   4.094   6.123  0.6682  0.3938  0.0584
 2179poe     o2 8864   3.472   3.978   6.135  0.3005  0.6863  0.5139
 2179poe    c23 8865   3.338   3.991   6.093  0.3733 -0.4553 -0.1372
 2179poe    c23 8866   3.240   4.031   6.205  0.2537 -0.2589 -0.3118
 2179poe     o2 8867   3.220   3.952   6.320 -0.5593  0.2236 -0.1080
 2179poe    c31 8868   3.205   3.815   6.289 -0.6060  0.1968  0.0320
 2180poe    c31 8869   4.831   5.887   4.867  0.0961  0.4047 -0.3653
 2180poe     o2 8870   4.927   5.990   4.860  0.5831 -0.0166  0.0024
 2180poe    c23 8871   4.975   6.048   4.979 -0.0583 -0.3357  0.4210
 2180poe    c23 8872   5.102   6.124   4.939 -0.2583 -0.1980  0.0465
 2180poe     o2 8873   5.068   6.197   4.823  0.3408 -0.5223 -0.3449
 2180poe    c23 8874   5.167   6.293   4.794  0.1813 -0.2760 -0.0805
 2180poe    c23 8875   5.144   6.362   4.658  0.0348 -0.2864 -0.0617
 2180poe     o2 8876   5.113   6.260   4.566  0.5489  0.0952 -0.6607
 2180poe    c23 8877   5.065   6.320   4.447 -0.4093  0.0485 -0.3113
 2180poe    c23 8878   5.036   6.199   4.356 -0.1868 -0.1917 -0.0664
 2180poe     o2 8879   4.920   6.129   4.394  0.1868 -0.4273  0.6617
 2180poe    c31 8880   4.898   6.026   4.301 -0.6867  0.4160 -0.0884
 2181poe    c31 8881   7.084   3.526   3.516  0.3517  0.0588 -0.0223
 2181poe     o2 8882   7.080   3.516   3.376 -0.4754 -0.3761  0.0258
 2181poe    c23 8883   7.155   3.619   3.316  0.1716 -0.5724  0.4756
 2181poe    c23 8884   7.167   3.582   3.167 -0.5575 -0.3804  0.3617
 2181poe     o2 8885   7.037   3.548   3.126 -0.4290  0.2832 -0.6562
 2181poe    c23 8886   7.014   3.558   2.988  0.3479 -0.6618 -0.8603
 2181poe    c23 8887   6.890   3.481   2.941 -0.1412 -0.3904 -0.0323
 2181poe     o2 8888   6.895   3.346   2.982  0.6834 -0.4412 -0.2721
 2181poe    c23 8889   6.775   3.284   2.940  0.3777  0.2111 -0.3766
 2181poe    c23 8890   6.757   3.136   2.980  0.2890  0.4415  0.4607
 2181poe     o2 8891   6.801   3.079   3.101  0.1111 -0.2082  0.2248
 2181poe    c31 8892   6.834   2.942   3.092  0.3894 -0.1422  0.2149
 2182poe    c31 8893   1.059   5.525   0.633  0.0128 -0.2488 -0.6775
 2182poe     o2 8894   1.069   5.643   0.557 -0.0672 -0.1310 -0.5067
 2182poe    c23 8895   1.196   5.702   0.573  0.0049 -0.3559 -0.2423
 2182poe    c23 8896   1.198   5.833   0.492  0.1581 -0.4279 -0.3561
 2182poe     o2 8897   1.103   5.834   0.388 -0.4767 -0.3485  0.2157
 2182poe    c23 8898   1.108   5.956   0.318  0.8628 -0.2715  0.4088
 2182poe    c23 8899   1.214   5.991   0.212 -0.1381  0.1069 -0.4958
 2182poe     o2 8900   1.194   5.898   0.108  0.2788 -0.4191 -0.1148
 2182poe    c23 8901   1.267   5.927  -0.009  0.0490  0.0472 -0.1468
 2182poe    c23 8902   1.226   5.849  -0.135 -0.0837  0.1910 -0.1930
 2182poe     o2 8903   1.231   5.709  -0.116  0.0728  0.1733 -0.3628
 2182poe    c31 8904   1.193   5.649  -0.237 -0.6699  0.7633 -0.4340
 2183poe    c31 8905   4.013   3.835   2.008  0.6835 -0.0728 -0.0851
 2183poe     o2 8906   4.052   3.765   2.123  0.5808 -0.6279 -0.3838
 2183poe    c23 8907   3.953   3.707   2.205  0.3177 -0.4045 -0.5437
 2183poe    c23 8908   4.025   3.620   2.310 -0.4735 -0.0984  0.2647
 2183poe     o2 8909   4.146   3.685   2.342 -0.1210 -0.3406 -0.5638
 2183poe    c23 8910   4.232   3.615   2.429 -0.8729 -0.0871  0.3973
 2183poe    c23 8911   4.344   3.708   2.481  0.0685 -0.8979 -0.1549
 2183poe     o2 8912   4.412   3.752   2.366 -0.2089  0.3397  0.1501
 2183poe    c23 8913   4.527   3.831   2.389 -0.1544  0.3920 -0.3011
 2183poe    c23 8914   4.636   3.843   2.281  0.7950  0.0921  0.6066
 2183poe     o2 8915   4.578   3.883   2.158  0.6011  0.4256  0.8060
 2183poe    c31 8916   4.673   3.883   2.054  0.1871  0.4320  0.4248
 2184poe    c31 8917   5.587   1.907   5.297 -0.3640  0.5779  0.3531
 2184poe     o2 8918   5.657   1.963   5.188 -0.1964  0.0583  0.1894
 2184poe    c23 8919   5.796   1.978   5.207 -0.2127  0.0016  0.3545
 2184poe    c23 8920   5.839   2.053   5.079 -0.1120 -0.0109  0.3815
 2184poe     o2 8921   5.742   2.013   4.986 -0.0972  0.0365  0.3461
 2184poe    c23 8922   5.792   2.024   4.854  0.2869 -0.0586  0.4832
 2184poe    c23 8923   5.665   2.068   4.779 -0.0224 -0.2027  0.9157
 2184poe     o2 8924   5.562   1.971   4.778 -0.6658  0.4715  0.1415
 2184poe    c23 8925   5.559   1.892   4.662 -0.0836 -0.1379  0.5358
 2184poe    c23 8926   5.420   1.826   4.645 -0.1348 -0.0035  0.4316
 2184poe     o2 8927   5.403   1.717   4.734 -0.2401 -0.1740  0.2031
 2184poe    c31 8928   5.308   1.633   4.673  0.3184 -0.4016 -0.3746
 2185poe    c31 8929   6.995   6.757   1.730  0.3746 -0.1548  0.4873
 2185poe     o2 8930   6.995   6.845   1.841 -0.4898  0.2612  0.1720
 2185poe    c23 8931   7.096   6.792   1.924  0.3797  0.3672 -0.7892
 2185poe    c23 8932   7.174   6.897   2.006 -0.2177  0.5720 -0.4795
 2185poe     o2 8933   7.082   6.964   2.090 -0.0213 -0.0238  0.2243
 2185poe    c23 8934   7.154   7.045   2.180 -0.0041 -0.6520  0.7828
 2185poe    c23 8935   7.076   7.160   2.247  0.2906  0.1171 -0.1733
 2185poe     o2 8936   6.952   7.120   2.301  0.3525  0.1484 -0.0095
 2185poe    c23 8937   6.856   7.224   2.305 -0.3961 -0.5508  0.5507
 2185poe    c23 8938   6.717   7.161   2.325 -0.8324  0.1313 -0.2747
 2185poe     o2 8939   6.696   7.053   2.237  0.6719 -0.5892  0.2222
 2185poe    c31 8940   6.593   6.970   2.286  0.2972  0.1692  0.7338
 2186poe    c31 8941   6.954   5.759   2.250  0.4055  0.2372  0.1599
 2186poe     o2 8942   6.908   5.857   2.340  0.3355  0.4404 -0.0952
 2186poe    c23 8943   6.852   5.800   2.456  0.2768  0.3013 -0.1916
 2186poe    c23 8944   6.832   5.913   2.559  0.0483 -0.4321  0.5787
 2186poe     o2 8945   6.957   5.974   2.582 -0.1876  0.0561  0.5696
 2186poe    c23 8946   6.925   6.095   2.647 -0.1761  0.5930 -0.3978
 2186poe    c23 8947   7.062   6.158   2.680  0.1904 -0.2854 -0.1998
 2186poe     o2 8948   7.163   6.157   2.582  0.1642  0.0300 -0.2340
 2186poe    c23 8949   7.279   6.196   2.652 -0.0827  0.3341  0.0073
 2186poe    c23 8950   7.397   6.188   2.553 -0.0831  0.0465  0.0282
 2186poe     o2 8951   7.440   6.058   2.519 -0.2492  0.0849 -0.3307
 2186poe    c31 8952   7.543   6.074   2.424 -0.2338  0.2383 -0.2890
 2187poe    c31 8953   2.884   6.718   7.039 -0.3109 -0.1887 -0.3850
 2187poe     o2 8954   2.804   6.819   6.982 -0.3035  0.1851  0.2498
 2187poe    c23 8955   2.741   6.787   6.860  0.1651 -0.0820  0.0750
 2187poe    c23 8956   2.712   6.907   6.768 -0.1206 -0.0114  0.2539
 2187poe     o2 8957   2.834   6.973   6.741 -0.0792  0.2072  0.9648
 2187poe    c23 8958   2.806   7.098   6.683  0.1199 -0.1139  0.1727
 2187poe    c23 8959   2.925   7.150   6.600 -0.4854  0.0883 -0.5811
 2187poe     o2 8960   2.957   7.050   6.506  0.0496  0.0659 -0.3801
 2187poe    c23 8961   3.060   7.105   6.427  0.8910 -0.5536  0.2741
 2187poe    c23 8962   3.108   7.006   6.320  0.0259 -0.2997 -0.3562
 2187poe     o2 8963   3.171   6.892   6.374  0.3879  0.3151  0.5339
 2187poe    c31 8964   3.224   6.814   6.269 -0.6479  0.1039  0.1602
 2188poe    c31 8965   3.346   1.254   3.082 -0.2808  0.2584 -0.5304
 2188poe     o2 8966   3.244   1.319   3.155  0.0615  0.0671  0.1284
 2188poe    c23 8967   3.292   1.397   3.262  0.2400  0.0651  0.0513
 2188poe    c23 8968   3.177   1.445   3.353  0.0931  0.6177 -0.4189
 2188poe     o2 8969   3.087   1.507   3.263 -0.4708  0.0945 -0.2204
 2188poe    c23 8970   2.971   1.555   3.326 -0.4050 -0.6983  0.5345
 2188poe    c23 8971   2.868   1.589   3.217 -0.2114 -0.2749  0.4799
 2188poe     o2 8972   2.835   1.470   3.147 -0.5372  0.2518 -0.2801
 2188poe    c23 8973   2.732   1.490   3.053 -0.5816 -0.1477 -0.3183
 2188poe    c23 8974   2.778   1.518   2.909  0.0772  0.2472 -0.0393
 2188poe     o2 8975   2.824   1.399   2.849 -0.3519  0.1965 -0.2728
 2188poe    c31 8976   2.846   1.418   2.710  0.2540 -0.1196 -0.2213
 2189poe    c31 8977   2.640   3.995   3.517  0.5034 -0.2295 -0.1626
 2189poe     o2 8978   2.560   4.091   3.453  0.5484  0.5235  0.8794
 2189poe    c23 8979   2.627   4.144   3.340 -0.2644 -0.9375 -0.3229
 2189poe    c23 8980   2.559   4.265   3.275  0.5302 -0.4013 -0.1657
 2189poe     o2 8981   2.455   4.231   3.185  0.2996 -0.3447  0.0754
 2189poe    c23 8982   2.430   4.328   3.085 -0.0441 -0.4616  0.0488
 2189poe    c23 8983   2.485   4.308   2.943 -0.0083 -0.3487  0.0466
 2189poe     o2 8984   2.624   4.288   2.931 -0.0344 -0.6844  0.2841
 2189poe    c23 8985   2.657   4.285   2.794 -0.2178 -0.1348  0.2268
 2189poe    c23 8986   2.802   4.237   2.780 -0.0748  0.3097  0.1688
 2189poe     o2 8987   2.808   4.098   2.804  0.2892  0.2989  0.0255
 2189poe    c31 8988   2.877   4.081   2.925 -0.6129 -0.4996  0.4342
 2190poe    c31 8989   2.905   6.225   3.005  0.0473 -0.3420 -0.1454
 2190poe     o2 8990   2.986   6.336   3.034  0.3298 -0.5170 -0.2563
 2190poe    c23 8991   3.050   6.299   3.154  0.5489 -0.4029 -0.3367
 2190poe    c23 8992   3.121   6.426   3.204 -0.8074  0.3819 -0.3530
 2190poe     o2 8993   3.205   6.467   3.099 -0.5693 -0.0417 -0.3304
 2190poe    c23 8994   3.332   6.406   3.102 -0.3610  0.4054  0.3394
 2190poe    c23 8995   3.442   6.493   3.039  0.0050 -0.3706 -0.1170
 2190poe     o2 8996   3.429   6.622   3.095  0.2003 -0.4690  0.1554
 2190poe    c23 8997   3.491   6.713   3.008  0.3689 -0.6271  0.1100
 2190poe    c23 8998   3.477   6.851   3.076  0.4953 -0.4766 -0.1673
 2190poe     o2 8999   3.572   6.870   3.178 -0.2066  0.0501  0.3944
 2190poe    c31 9000   3.549   6.998   3.234 -0.1073  0.0569  0.4194
 2191poe    c31 9001   5.428   6.919   5.561 -0.0450 -0.5540  0.3422
 2191poe     o2 9002   5.544   6.930   5.640  0.2127 -0.0019 -0.1133
 2191poe    c23 9003   5.599   6.805   5.673 -0.4705 -0.2335  0.1644
 2191poe    c23 9004   5.738   6.814   5.738 -0.6899  0.1468  0.5872
 2191poe     o2 9005   5.830   6.853   5.638 -0.4603  0.4035  0.8945
 2191poe    c23 9006   5.951   6.894   5.698 -0.1247  0.1016  0.4347
 2191poe    c23 9007   6.038   6.888   5.572 -0.6127  0.1282  0.0924
 2191poe     o2 9008   5.984   6.973   5.473 -0.0389  0.0705 -0.2745
 2191poe    c23 9009   6.067   6.975   5.359  0.1067 -0.1981 -0.1737
 2191poe    c23 9010   6.013   7.088   5.270  0.4795  0.2783  0.1994
 2191poe     o2 9011   5.895   7.024   5.227  0.7458  0.3128 -0.6096
 2191poe    c31 9012   5.809   7.109   5.155 -0.2393 -0.0674  0.0915
 2192poe    c31 9013   6.322   1.977   6.709  0.6259 -0.3631 -0.4745
 2192poe     o2 9014   6.275   1.845   6.717 -0.1441 -0.0880 -0.3640
 2192poe    c23 9015   6.369   1.759   6.777  0.0717  0.6716  0.4077
 2192poe    c23 9016   6.340   1.608   6.761  0.3056  0.5914  0.7406
 2192poe     o2 9017   6.249   1.571   6.862 -0.3228  0.0737 -0.0015
 2192poe    c23 9018   6.233   1.432   6.875 -0.5863  0.1039  0.0044
 2192poe    c23 9019   6.163   1.400   7.008 -0.7975  0.1892 -0.0864
 2192poe     o2 9020   6.253   1.413   7.116 -0.8622 -0.0573 -0.0000
 2192poe    c23 9021   6.189   1.383   7.238 -0.6756 -0.6457 -0.0435
 2192poe    c23 9022   6.253   1.430   7.369 -0.1708 -0.7682 -0.2440
 2192poe     o2 9023   6.388   1.397   7.396  0.2622  0.8377 -0.3409
 2192poe    c31 9024   6.442   1.469   7.505  0.4933  0.0425  0.0738
 2193poe    c31 9025   2.802   0.695   0.332 -0.8321  1.0262  0.0619
 2193poe     o2 9026   2.755   0.743   0.456  0.0431  0.2678  0.6961
 2193poe    c23 9027   2.625   0.798   0.453  0.0308  0.1933 -0.7142
 2193poe    c23 9028   2.579   0.883   0.572  0.1053 -0.3349 -0.3036
 2193poe     o2 9029   2.442   0.869   0.599  0.0593 -0.4050 -0.5770
 2193poe    c23 9030   2.402   0.950   0.707  0.3642 -0.9151 -0.0776
 2193poe    c23 9031   2.253   0.989   0.722  0.4587 -0.6988  0.3131
 2193poe     o2 9032   2.171   0.874   0.732  0.0997 -0.4581  0.1182
 2193poe    c23 9033   2.041   0.910   0.772  0.1613  0.1336 -0.1868
 2193poe    c23 9034   1.942   0.799   0.730 -0.1762  0.5632 -0.5367
 2193poe     o2 9035   1.954   0.672   0.791 -0.6918  0.8028  0.0732
 2193poe    c31 9036   1.846   0.586   0.763  0.2383 -0.4082  0.1179
 2194poe    c31 9037   5.660   1.890   1.666  0.1634 -0.2410 -0.0939
 2194poe     o2 9038   5.775   1.959   1.712 -0.2496  0.2164  0.2599
 2194poe    c23 9039   5.815   1.920   1.841 -0.1397  0.2386  0.2327
 2194poe    c23 9040   5.955   1.965   1.887  0.2712 -0.5511 -0.2338
 2194poe     o2 9041   5.979   2.093   1.834 -0.0695 -0.4305 -0.1033
 2194poe    c23 9042   6.095   2.156   1.885 -0.1396 -0.4809  0.1199
 2194poe    c23 9043   6.102   2.302   1.836 -1.7384 -0.4945 -0.2073
 2194poe     o2 9044   6.096   2.323   1.697 -0.0580  0.3015 -0.1810
 2194poe    c23 9045   6.108   2.462   1.680  0.0402  0.3720  0.4570
 2194poe    c23 9046   6.083   2.499   1.533  0.0205 -0.1536  0.3270
 2194poe     o2 9047   5.952   2.501   1.481  0.0522  0.0728  0.2541
 2194poe    c31 9048   5.953   2.564   1.355 -0.2517  0.1067  0.2664
 2195poe    c31 9049   5.639   1.335   3.274  0.6247  0.3683  0.0038
 2195poe     o2 9050   5.646   1.365   3.411  0.1792 -0.0609  0.1233
 2195poe    c23 9051   5.631   1.239   3.473  0.4696 -0.1959 -0.0756
 2195poe    c23 9052   5.650   1.244   3.626 -0.2180  0.7921 -0.0123
 2195poe     o2 9053   5.559   1.332   3.688 -0.2713  0.8176 -0.1278
 2195poe    c23 9054   5.586   1.401   3.808  0.4283  0.1430  0.1126
 2195poe    c23 9055   5.622   1.324   3.936  0.3435  0.1845  0.1623
 2195poe     o2 9056   5.673   1.408   4.037 -0.3289  0.4423  0.2876
 2195poe    c23 9057   5.748   1.349   4.140 -0.5813 -0.2957  0.0539
 2195poe    c23 9058   5.800   1.458   4.235 -0.6235 -0.6568  0.4957
 2195poe     o2 9059   5.713   1.537   4.314 -0.2035 -0.1849  0.4957
 2195poe    c31 9060   5.610   1.468   4.382 -0.1606 -0.1461  0.5998
 2196poe    c31 9061   7.081   5.626   5.662 -0.4516 -0.1697 -0.3317
 2196poe     o2 9062   6.964   5.699   5.633 -0.3904 -0.1349 -0.4949
 2196poe    c23 9063   6.846   5.675   5.706 -0.1059  0.1896  0.0754
 2196poe    c23 9064   6.825   5.764   5.830 -0.8172 -0.1995  0.2372
 2196poe     o2 9065   6.821   5.899   5.790 -0.3272 -0.2449  0.0325
 2196poe    c23 9066   6.884   5.982   5.886 -0.1577  0.5078 -0.7211
 2196poe    c23 9067   6.910   6.127   5.842  0.3181  0.6208 -0.0737
 2196poe     o2 9068   6.801   6.203   5.794 -0.0712  0.1164  0.0062
 2196poe    c23 9069   6.825   6.337   5.757  0.4047  0.0909  0.2124
 2196poe    c23 9070   6.689   6.401   5.723  0.6683  0.2760 -0.5214
 2196poe     o2 9071   6.650   6.342   5.601  0.3392  0.1727 -0.3673
 2196poe    c31 9072   6.537   6.410   5.552  0.0463 -0.5836 -0.7484
 2197poe    c31 9073   6.514   1.512   3.283  0.1413  0.2971 -0.2124
 2197poe     o2 9074   6.415   1.492   3.381  0.5401  0.7308  0.2871
 2197poe    c23 9075   6.294   1.486   3.310  0.6948  0.2864  0.0603
 2197poe    c23 9076   6.191   1.448   3.419  0.5660  0.5038  0.0151
 2197poe     o2 9077   6.202   1.550   3.516  0.3448  0.3803  0.1693
 2197poe    c23 9078   6.089   1.580   3.594  0.4134 -0.4652  0.6085
 2197poe    c23 9079   6.083   1.493   3.721 -0.7274 -1.0378  0.1752
 2197poe     o2 9080   6.209   1.484   3.784 -0.6359 -0.0352  0.1429
 2197poe    c23 9081   6.210   1.370   3.866 -0.1874  0.0367  0.2360
 2197poe    c23 9082   6.337   1.371   3.953  0.0502 -0.5992 -0.0910
 2197poe     o2 9083   6.451   1.392   3.873 -0.1232  0.6010 -0.0386
 2197poe    c31 9084   6.561   1.330   3.935  0.1771 -0.3462 -1.4748
 2198poe    c31 9085   3.683   4.094   3.983 -0.0861  0.2340 -0.5031
 2198poe     o2 9086   3.597   4.003   4.047  0.1411  0.1230 -0.3541
 2198poe    c23 9087   3.507   3.949   3.953  0.3405 -0.3168 -0.2945
 2198poe    c23 9088   3.411   3.846   4.017  0.4098 -0.1450  0.0898
 2198poe     o2 9089   3.502   3.757   4.079  0.7661 -0.0218 -0.2534
 2198poe    c23 9090   3.442   3.650   4.147  0.0755  0.5546  0.0588
 2198poe    c23 9091   3.562   3.555   4.162 -0.1519  0.1676 -0.5098
 2198poe     o2 9092   3.643   3.624   4.255 -0.7452 -0.2005  0.2992
 2198poe    c23 9093   3.706   3.535   4.343  0.7595  0.1312 -0.4112
 2198poe    c23 9094   3.795   3.613   4.442  0.3898  0.1795 -0.1144
 2198poe     o2 9095   3.895   3.698   4.391 -0.1003  0.6182 -0.3613
 2198poe    c31 9096   3.991   3.740   4.486 -0.5383 -0.4857  0.5922
 2199poe    c31 9097   3.012   4.207   7.025 -0.0450 -0.2864 -0.2059
 2199poe     o2 9098   2.994   4.097   6.938 -0.0741 -0.0475 -0.5048
 2199poe    c23 9099   2.857   4.070   6.921 -0.2013  0.0823  0.2641
 2199poe    c23 9100   2.834   3.959   6.817 -0.6392  0.0876  0.3512
 2199poe     o2 9101   2.868   4.008   6.689 -0.6292  0.1561  0.3799
 2199poe    c23 9102   2.840   3.903   6.599 -0.3188  0.3813  0.0141
 2199poe    c23 9103   2.878   3.941   6.455  0.1869 -0.1746 -0.0001
 2199poe     o2 9104   2.828   4.062   6.404  0.1504 -0.1537  0.0864
 2199poe    c23 9105   2.904   4.092   6.289 -0.0188 -0.0232  0.0083
 2199poe    c23 9106   2.833   4.200   6.206  0.8389  0.1609 -0.4984
 2199poe     o2 9107   2.790   4.298   6.298  0.5298  0.1007 -0.5749
 2199poe    c31 9108   2.719   4.403   6.237  0.1896  0.3917  0.3182
 2200poe    c31 9109   3.830   1.807   1.965 -0.0438  0.0565 -0.6199
 2200poe     o2 9110   3.915   1.699   1.996 -0.0918  0.1924 -0.0004
 2200poe    c23 9111   3.992   1.735   2.109  0.1629  0.3661 -0.2275
 2200poe    c23 9112   4.011   1.625   2.215  0.0514 -0.1969 -0.7861
 2200poe     o2 9113   4.075   1.508   2.170  0.1086 -0.3434 -0.3239
 2200poe    c23 9114   4.122   1.426   2.275 -0.0745 -0.1163 -0.0645
 2200poe    c23 9115   4.147   1.280   2.234  0.0551 -0.1350  0.0784
 2200poe     o2 9116   4.238   1.255   2.129  0.0589  0.4547 -0.0641
 2200poe    c23 9117   4.179   1.164   2.039 -0.5194  0.5940  0.1673
 2200poe    c23 9118   4.288   1.138   1.933 -0.2335  0.0353  0.5956
 2200poe     o2 9119   4.314   1.256   1.860  0.1433 -0.3953  0.0188
 2200poe    c31 9120   4.394   1.236   1.746 -0.7889  0.2563 -0.7650
 2201poe    c31 9121   4.071   1.838   4.421  0.1469 -0.0419  0.1497
 2201poe     o2 9122   4.020   1.726   4.491 -0.0866  0.1276  0.2520
 2201poe    c23 9123   4.112   1.621   4.511 -0.2729 -0.1095 -0.1341
 2201poe    c23 9124   4.038   1.501   4.573 -0.0981  0.0906  0.4731
 2201poe     o2 9125   3.992   1.532   4.702 -0.3036  0.3364  0.3411
 2201poe    c23 9126   3.886   1.443   4.727 -0.0627  0.0228  0.2440
 2201poe    c23 9127   3.817   1.453   4.865 -0.4888 -0.4578  0.0704
 2201poe     o2 9128   3.802   1.593   4.880 -0.3959 -0.4210 -0.1740
 2201poe    c23 9129   3.741   1.618   5.004 -0.0155 -0.2952 -0.0114
 2201poe    c23 9130   3.719   1.769   4.991 -0.1937 -0.3210 -0.0089
 2201poe     o2 9131   3.838   1.841   4.965  0.0241 -0.5481  0.3464
 2201poe    c31 9132   3.826   1.980   4.983 -0.3010 -0.4591 -0.4794
 2202poe    c31 9133   1.034   6.234   6.665 -0.4824 -0.4828  0.4492
 2202poe     o2 9134   1.150   6.201   6.739  0.0695  0.3262 -0.0465
 2202poe    c23 9135   1.154   6.276   6.858  0.0703 -0.1225  0.2384
 2202poe    c23 9136   1.267   6.244   6.958 -0.0015  0.6981  0.5877
 2202poe     o2 9137   1.386   6.317   6.941  0.2853 -0.0164 -0.5721
 2202poe    c23 9138   1.491   6.255   7.011 -0.3623 -0.2554  0.1996
 2202poe    c23 9139   1.628   6.325   7.013 -0.3519 -0.2718  0.0885
 2202poe     o2 9140   1.701   6.313   6.893  0.2295  0.4537  0.3599
 2202poe    c23 9141   1.698   6.433   6.821 -0.2612  0.1349 -0.1600
 2202poe    c23 9142   1.803   6.432   6.708  0.5388 -0.3320  0.5827
 2202poe     o2 9143   1.761   6.349   6.602  0.2745  0.3961  0.1143
 2202poe    c31 9144   1.862   6.344   6.504  0.2582  0.1104  0.1122
 2203poe    c31 9145   2.964   3.583   6.255  0.4155 -0.1552  0.3754
 2203poe     o2 9146   2.836   3.533   6.224  0.2789  0.2508  0.2859
 2203poe    c23 9147   2.791   3.422   6.298 -0.4696 -0.0350 -0.5846
 2203poe    c23 9148   2.638   3.409   6.289 -0.5721  0.4667  0.4099
 2203poe     o2 9149   2.614   3.430   6.152 -0.2159  0.1014  0.2926
 2203poe    c23 9150   2.475   3.437   6.134 -0.1790 -0.2301 -0.1347
 2203poe    c23 9151   2.449   3.437   5.982 -0.1260 -0.1765 -0.1433
 2203poe     o2 9152   2.543   3.513   5.910 -0.4583  0.1803 -0.2014
 2203poe    c23 9153   2.536   3.483   5.772 -0.1391 -0.8808  0.0075
 2203poe    c23 9154   2.631   3.549   5.670 -0.1880 -0.6424  0.1154
 2203poe     o2 9155   2.768   3.521   5.689 -0.1059 -0.5511 -0.3428
 2203poe    c31 9156   2.843   3.569   5.579  0.2899  0.0973  0.1992
 2204poe    c31 9157   0.635   3.633   1.634 -0.4342 -0.0381 -0.2982
 2204poe     o2 9158   0.635   3.492   1.635  0.3352 -0.0390  0.0735
 2204poe    c23 9159   0.589   3.450   1.509  0.6010  0.0699 -0.0626
 2204poe    c23 9160   0.575   3.296   1.517 -0.4207  0.1555  0.0122
 2204poe     o2 9161   0.702   3.236   1.506 -0.4532  0.1709 -0.4786
 2204poe    c23 9162   0.720   3.171   1.382 -0.1627  0.0180 -0.3564
 2204poe    c23 9163   0.870   3.171   1.348 -0.1927 -0.5965 -0.5122
 2204poe     o2 9164   0.951   3.125   1.454 -0.1134  0.0567 -0.2855
 2204poe    c23 9165   1.087   3.115   1.420  0.0060 -0.4331  0.3198
 2204poe    c23 9166   1.181   3.105   1.541  0.6222  0.3159 -0.0903
 2204poe     o2 9167   1.154   2.985   1.609  0.3901  0.0006 -0.7309
 2204poe    c31 9168   1.267   2.974   1.693 -0.2867  0.3304  0.2404
 2205poe    c31 9169   0.814   7.124   0.705  0.7211 -0.1716  0.3592
 2205poe     o2 9170   0.886   7.112   0.584  0.5578  0.1417  0.2287
 2205poe    c23 9171   0.900   7.240   0.528 -0.2830  0.2667  0.2823
 2205poe    c23 9172   1.001   7.240   0.411 -0.4732 -0.7187  0.1112
 2205poe     o2 9173   1.136   7.243   0.449 -0.4775  0.1557  0.0915
 2205poe    c23 9174   1.218   7.229   0.335 -0.2238  0.1354  0.2734
 2205poe    c23 9175   1.271   7.353   0.261 -0.5323  0.4667  0.6006
 2205poe     o2 9176   1.396   7.394   0.313 -0.3683  0.0301  0.5527
 2205poe    c23 9177   1.457   7.499   0.243  0.4846 -0.5869  0.3538
 2205poe    c23 9178   1.592   7.545   0.302  0.2977 -0.1048  0.4105
 2205poe     o2 9179   1.588   7.637   0.409 -0.2714  0.8190 -0.3861
 2205poe    c31 9180   1.720   7.658   0.454  0.0106 -0.6840 -0.4558
 2206poe    c31 9181   4.925   5.590   6.065 -0.1458 -0.3072  0.4380
 2206poe     o2 9182   4.819   5.500   6.042 -0.0040 -0.4693  0.4185
 2206poe    c23 9183   4.859   5.394   5.958  0.2053 -0.4174  0.4511
 2206poe    c23 9184   4.745   5.291   5.947 -0.4512  0.3502 -0.0718
 2206poe     o2 9185   4.715   5.227   6.069  0.1715  0.4277  0.1239
 2206poe    c23 9186   4.579   5.189   6.065  0.1559  0.4797  0.1538
 2206poe    c23 9187   4.518   5.113   6.184 -0.3021  0.4509 -0.0991
 2206poe     o2 9188   4.538   5.197   6.296 -0.6490  0.8094 -0.3026
 2206poe    c23 9189   4.472   5.150   6.411  0.5765  0.5211  0.2950
 2206poe    c23 9190   4.451   5.277   6.494  0.0102  0.6001  0.0338
 2206poe     o2 9191   4.577   5.340   6.497  0.2111  0.1995 -0.0353
 2206poe    c31 9192   4.574   5.445   6.591  0.3160  0.2095 -0.0418
 2207poe    c31 9193   6.277   0.616   5.798  0.4216  0.1553  0.5757
 2207poe     o2 9194   6.204   0.554   5.901 -0.5257 -0.5224 -0.4893
 2207poe    c23 9195   6.246   0.609   6.023 -0.8371 -0.1994 -0.5279
 2207poe    c23 9196   6.175   0.538   6.140 -0.1905  0.0287  0.0086
 2207poe     o2 9197   6.043   0.584   6.159 -0.1071 -0.0098  0.6964
 2207poe    c23 9198   5.969   0.497   6.242  0.2986 -0.0786  0.9905
 2207poe    c23 9199   5.828   0.554   6.266 -0.0175 -0.5535  0.2757
 2207poe     o2 9200   5.744   0.557   6.153 -0.6143 -0.0317  0.7309
 2207poe    c23 9201   5.628   0.637   6.166 -0.6582 -0.1260  0.9166
 2207poe    c23 9202   5.496   0.567   6.128  0.0163 -0.9974  0.1311
 2207poe     o2 9203   5.503   0.537   5.990 -0.1378  0.3511 -0.1818
 2207poe    c31 9204   5.388   0.486   5.927  0.1874 -0.4794 -0.1228
 2208poe    c31 9205   0.521   2.420   1.832  0.4857 -0.1870  0.1143
 2208poe     o2 9206   0.535   2.488   1.709  0.5062 -0.3958  0.0008
 2208poe    c23 9207   0.643   2.579   1.714 -0.4252  0.7026  0.5019
 2208poe    c23 9208   0.653   2.666   1.587  0.0838  0.1344  0.1482
 2208poe     o2 9209   0.541   2.748   1.564  0.3093  0.4520  0.1805
 2208poe    c23 9210   0.560   2.852   1.471  1.1692  0.2793  0.1547
 2208poe    c23 9211   0.592   2.805   1.328  0.0662 -0.6624  0.1942
 2208poe     o2 9212   0.723   2.761   1.300  0.0394 -0.5561 -0.1060
 2208poe    c23 9213   0.752   2.735   1.164 -0.2338 -0.8517 -0.1074
 2208poe    c23 9214   0.774   2.855   1.071 -0.2879 -0.3765  0.4892
 2208poe     o2 9215   0.652   2.900   1.017  0.0998  0.2499  0.1192
 2208poe    c31 9216   0.682   3.020   0.949  0.3881  0.3626  0.4428
 2209poe    c31 9217   2.232   2.483   6.212  0.4016  0.3899 -0.2754
 2209poe     o2 9218   2.099   2.503   6.254  0.4328 -0.1779  0.1139
 2209poe    c23 9219   2.023   2.559   6.149  0.8068  0.2941  0.0899
 2209poe    c23 9220   1.879   2.533   6.197  0.8690 -0.2352 -0.0033
 2209poe     o2 9221   1.868   2.592   6.325 -0.0477 -0.0603 -0.1533
 2209poe    c23 9222   1.741   2.641   6.362 -0.1497 -0.4463  0.0059
 2209poe    c23 9223   1.766   2.726   6.488  0.5099 -0.4300 -0.1321
 2209poe     o2 9224   1.807   2.642   6.593  0.6526 -0.0169  0.1500
 2209poe    c23 9225   1.858   2.709   6.705  0.9255 -0.0106  0.0218
 2209poe    c23 9226   1.923   2.622   6.814  0.3949  0.0662  0.4052
 2209poe     o2 9227   2.022   2.531   6.769  0.1927  0.1114 -0.1411
 2209poe    c31 9228   2.116   2.507   6.871 -0.3595  0.3779  0.4385
 2210poe    c31 9229   4.440   4.564   0.952  0.3523 -0.5321  0.2718
 2210poe     o2 9230   4.349   4.468   0.902 -0.4831  0.4546 -0.1396
 2210poe    c23 9231   4.401   4.339   0.875 -0.6442  0.4054 -0.2190
 2210poe    c23 9232   4.295   4.258   0.798 -0.1272 -0.0521 -0.4504
 2210poe     o2 9233   4.169   4.285   0.855  0.0461 -0.3649  0.0908
 2210poe    c23 9234   4.065   4.229   0.779 -0.6978  0.5098  0.4449
 2210poe    c23 9235   3.926   4.273   0.828 -0.7054 -0.0257  0.9173
 2210poe     o2 9236   3.919   4.414   0.838  0.3290  0.0777  0.3500
 2210poe    c23 9237   3.794   4.452   0.893 -0.0507  0.0764 -0.5047
 2210poe    c23 9238   3.774   4.603   0.877 -0.1940  0.1217  0.0982
 2210poe     o2 9239   3.867   4.668   0.961 -0.0808 -0.4404  0.4082
 2210poe    c31 9240   3.832   4.804   0.956  0.1830 -0.3824  0.0594
 2211poe    c31 9241   6.979   0.489   1.100  0.3029  0.0083  0.3248
 2211poe     o2 9242   7.081   0.450   1.011  0.2670  0.0825  0.2507
 2211poe    c23 9243   7.061   0.487   0.876  0.3220 -0.8291 -0.0161
 2211poe    c23 9244   6.962   0.405   0.790  0.0973 -0.3887 -0.1784
 2211poe     o2 9245   7.031   0.295   0.736  0.1016 -0.7587  0.5689
 2211poe    c23 9246   6.943   0.231   0.647  0.2085 -0.3201  0.1457
 2211poe    c23 9247   6.999   0.110   0.569  0.1975 -0.0210 -0.3347
 2211poe     o2 9248   7.105   0.140   0.482  0.5238  0.2600  0.1600
 2211poe    c23 9249   7.129   0.025   0.405  0.1892  0.1069  0.2826
 2211poe    c23 9250   7.263   0.045   0.331  0.1354 -0.5616 -0.0028
 2211poe     o2 9251   7.281   0.145   0.234 -0.0742 -0.2180  0.3109
 2211poe    c31 9252   7.308   0.262   0.309  0.6312 -0.2943  0.1865
 2212poe    c31 9253   5.894   0.851   1.517 -0.4363  0.0219 -0.3363
 2212poe     o2 9254   5.904   0.932   1.401 -0.1510  0.8581  0.2583
 2212poe    c23 9255   5.840   0.892   1.282  0.1260  0.0422  0.3730
 2212poe    c23 9256   5.696   0.948   1.282  0.3283  0.5852 -0.2440
 2212poe     o2 9257   5.614   0.867   1.363  0.4606  0.3317 -0.3626
 2212poe    c23 9258   5.487   0.926   1.379  0.0801 -0.5809  0.0931
 2212poe    c23 9259   5.434   0.871   1.513 -0.0291 -0.1653  0.2221
 2212poe     o2 9260   5.385   0.739   1.510 -0.3827 -0.0382  0.3537
 2212poe    c23 9261   5.477   0.635   1.483  0.2368  0.7151 -0.4827
 2212poe    c23 9262   5.407   0.499   1.463 -0.3736  0.9817 -0.1886
 2212poe     o2 9263   5.357   0.474   1.334  0.2857 -0.0360 -0.2577
 2212poe    c31 9264   5.352   0.335   1.314 -0.0069 -0.1481  0.5818
 2213poe    c31 9265   7.163   3.019   5.645  0.2206 -0.1432 -0.0494
 2213poe     o2 9266   7.238   2.925   5.572 -0.0137 -0.4586  0.1097
 2213poe    c23 9267   7.375   2.946   5.601 -0.1000 -0.3055  0.4087
 2213poe    c23 9268   7.484   2.885   5.511 -0.1260 -0.4050  0.4442
 2213poe     o2 9269   7.496   2.935   5.380 -0.1877 -0.8291  0.2757
 2213poe    c23 9270   7.607   2.896   5.302 -0.0807  0.1998 -0.1124
 2213poe    c23 9271   7.629   2.989   5.182  0.3509 -0.0188 -0.2027
 2213poe     o2 9272   7.528   2.959   5.089 -0.5836  0.1159  0.7535
 2213poe    c23 9273   7.515   3.044   4.978  0.4115 -0.0211  0.5268
 2213poe    c23 9274   7.407   3.151   4.999 -0.1507 -0.3191 -0.7254
 2213poe     o2 9275   7.275   3.102   5.010 -0.2371  0.1390  0.4008
 2213poe    c31 9276   7.178   3.197   4.972 -0.0376  0.0991 -0.2073
 2214poe    c31 9277   2.930   3.821   5.307  0.4389 -0.2569  0.6680
 2214poe     o2 9278   2.810   3.762   5.262  0.7137 -0.3466  0.0402
 2214poe    c23 9279   2.700   3.758   5.350  0.4697 -0.2902 -0.2614
 2214poe    c23 9280   2.575   3.709   5.275  0.1479  0.1836 -0.0387
 2214poe     o2 9281   2.503   3.808   5.204 -0.4144 -0.1707  0.0310
 2214poe    c23 9282   2.394   3.744   5.142 -0.5118 -0.5754  0.6150
 2214poe    c23 9283   2.257   3.780   5.203 -0.4750  0.0369  0.3445
 2214poe     o2 9284   2.210   3.713   5.318 -0.3209  0.0451  0.4136
 2214poe    c23 9285   2.199   3.796   5.431 -0.1681  0.1229  0.3713
 2214poe    c23 9286   2.238   3.708   5.552  0.2992  0.6094  0.5781
 2214poe     o2 9287   2.144   3.611   5.593  0.2204  0.4404  0.0054
 2214poe    c31 9288   2.202   3.549   5.706 -0.6131 -0.3584  0.0038
 2215poe    c31 9289   1.987   5.207   3.174  0.0835  0.4032  0.1467
 2215poe     o2 9290   1.987   5.077   3.119  0.0448  0.5478 -0.1944
 2215poe    c23 9291   1.978   5.104   2.980  0.2036  0.0288 -0.3097
 2215poe    c23 9292   1.953   4.978   2.896 -0.1611  0.3323 -0.6580
 2215poe     o2 9293   2.073   4.916   2.856 -0.3108 -0.2938 -0.1475
 2215poe    c23 9294   2.135   4.836   2.954  0.3917 -0.2467 -0.5451
 2215poe    c23 9295   2.068   4.707   3.007 -0.2589  0.2915 -0.0437
 2215poe     o2 9296   2.044   4.619   2.900 -0.1037  0.2977 -0.0831
 2215poe    c23 9297   2.000   4.488   2.924 -0.3385  0.4201  0.1600
 2215poe    c23 9298   2.016   4.398   2.799 -0.0375 -0.1653  0.6160
 2215poe     o2 9299   2.147   4.368   2.755 -0.1574  0.5096 -0.2182
 2215poe    c31 9300   2.158   4.334   2.619 -0.5450 -0.1333 -0.0929
 2216poe    c31 9301   6.018   2.427   2.960  0.7592  0.2808  0.1261
 2216poe     o2 9302   6.056   2.407   3.094  0.1306 -0.2080  0.2359
 2216poe    c23 9303   5.947   2.399   3.183 -0.2122 -0.4406 -0.2001
 2216poe    c23 9304   5.991   2.315   3.305 -0.3508  0.1278  0.2451
 2216poe     o2 9305   6.087   2.379   3.386  0.1278  0.1984 -0.3759
 2216poe    c23 9306   6.144   2.285   3.473  0.2743  0.3755 -0.2800
 2216poe    c23 9307   6.268   2.347   3.542  0.3442 -0.1106  0.0383
 2216poe     o2 9308   6.362   2.415   3.463 -0.1052  0.7584  0.2373
 2216poe    c23 9309   6.458   2.477   3.545  0.2852 -0.2088  0.5270
 2216poe    c23 9310   6.576   2.483   3.446 -0.1882 -0.5693 -0.0612
 2216poe     o2 9311   6.532   2.541   3.325  0.4979 -0.0700 -0.0746
 2216poe    c31 9312   6.631   2.596   3.241  0.2323  0.2106 -0.2019
 2217poe    c31 9313   0.204   1.299   1.385  0.3210  0.2130  0.1174
 2217poe     o2 9314   0.312   1.370   1.329  0.4001 -0.3984 -0.5255
 2217poe    c23 9315   0.260   1.494   1.287 -0.2032 -0.0887  1.0692
 2217poe    c23 9316   0.381   1.589   1.292 -0.3477  0.1628 -0.0730
 2217poe     o2 9317   0.449   1.604   1.414  0.1733 -0.3738 -0.2928
 2217poe    c23 9318   0.587   1.628   1.399  0.1964 -0.2622  0.0837
 2217poe    c23 9319   0.656   1.684   1.525  0.0586  0.1147 -0.0047
 2217poe     o2 9320   0.628   1.585   1.621  0.0621 -0.0692 -0.1904
 2217poe    c23 9321   0.679   1.619   1.749 -0.4783  0.4331 -0.1035
 2217poe    c23 9322   0.681   1.501   1.847  0.2083  0.0642 -0.5532
 2217poe     o2 9323   0.557   1.441   1.878  0.1440  0.2714 -0.4065
 2217poe    c31 9324   0.552   1.382   2.006 -0.4932  1.1182 -0.0329
 2218poe    c31 9325   0.360   3.266   5.669 -0.6619  0.6258  0.2281
 2218poe     o2 9326   0.470   3.338   5.617 -0.2202 -0.3658 -0.2390
 2218poe    c23 9327   0.569   3.332   5.718 -0.1428  0.3754 -0.2661
 2218poe    c23 9328   0.681   3.423   5.664 -0.2111  0.7123  0.1512
 2218poe     o2 9329   0.626   3.526   5.586 -0.1590  0.3665 -0.3518
 2218poe    c23 9330   0.726   3.595   5.514 -0.0161  0.6286  0.0935
 2218poe    c23 9331   0.659   3.696   5.419 -0.0648  0.0722 -0.4753
 2218poe     o2 9332   0.537   3.649   5.366 -0.2467  0.2592 -0.2269
 2218poe    c23 9333   0.492   3.730   5.260 -0.0130  0.1960 -0.3752
 2218poe    c23 9334   0.506   3.659   5.124 -0.1676 -0.0464 -0.2641
 2218poe     o2 9335   0.420   3.547   5.110 -0.1793 -0.0988  0.2204
 2218poe    c31 9336   0.432   3.490   4.982 -0.2049 -0.0703  0.2050
 2219poe    c31 9337   2.983   6.027   2.230  0.2328  0.3504 -0.1370
 2219poe     o2 9338   3.069   5.924   2.273 -0.2548 -0.1018 -0.2314
 2219poe    c23 9339   3.073   5.919   2.414  0.0600 -0.2027 -0.2431
 2219poe    c23 9340   3.216   5.919   2.471 -0.3079 -0.0965  0.6981
 2219poe     o2 9341   3.263   5.791   2.437 -0.2277  0.2889 -0.6995
 2219poe    c23 9342   3.403   5.775   2.450 -0.2732 -0.0136 -0.5620
 2219poe    c23 9343   3.441   5.626   2.453 -0.2011  0.0111 -0.1290
 2219poe     o2 9344   3.379   5.556   2.347  0.0625  0.1151 -0.3537
 2219poe    c23 9345   3.442   5.430   2.344 -0.6557 -0.2451 -0.3745
 2219poe    c23 9346   3.404   5.328   2.235 -0.6507 -0.3707 -0.2583
 2219poe     o2 9347   3.275   5.279   2.264 -0.5753 -0.0080  0.7378
 2219poe    c31 9348   3.243   5.179   2.170 -0.6589  0.3206  0.4142
 2220poe    c31 9349   1.632   0.002   4.198 -0.2656  0.5264 -0.3059
 2220poe     o2 9350   1.653   0.093   4.304 -0.1930  0.7385 -0.5007
 2220poe    c23 9351   1.693   0.221   4.258  0.0176  0.5710 -0.7930
 2220poe    c23 9352   1.752   0.300   4.377  0.1664  0.1531 -0.5871
 2220poe     o2 9353   1.659   0.316   4.481  0.6605 -0.3347 -0.0597
 2220poe    c23 9354   1.701   0.436   4.543  0.0631  0.1376 -0.5548
 2220poe    c23 9355   1.598   0.482   4.648  0.7985 -0.0264  0.2466
 2220poe     o2 9356   1.587   0.372   4.735 -0.1509  0.1313  0.3362
 2220poe    c23 9357   1.495   0.379   4.841 -0.5345  0.0607  0.0108
 2220poe    c23 9358   1.495   0.244   4.916  0.0467  0.2438  0.3468
 2220poe     o2 9359   1.519   0.150   4.815  0.2654 -0.3804  0.9751
 2220poe    c31 9360   1.484   0.020   4.858  0.3501 -0.4176  0.9332
 2221poe    c31 9361   1.674   4.286   1.038  0.1275 -0.5196  0.7323
 2221poe     o2 9362   1.587   4.190   1.093 -0.7602 -0.3104 -0.2749
 2221poe    c23 9363   1.584   4.071   1.018  0.1274 -0.3443 -0.2635
 2221poe    c23 9364   1.515   3.948   1.080  0.4658 -0.4354 -0.0663
 2221poe     o2 9365   1.599   3.910   1.186  0.7636 -0.4669 -0.3110
 2221poe    c23 9366   1.578   3.775   1.219 -0.1510 -0.2527  0.0068
 2221poe    c23 9367   1.683   3.732   1.324 -0.3646 -0.8229 -0.0059
 2221poe     o2 9368   1.697   3.818   1.435 -0.1424 -0.3275 -0.4138
 2221poe    c23 9369   1.830   3.821   1.480 -0.2003  0.2639 -0.2693
 2221poe    c23 9370   1.894   3.956   1.444 -0.0201  0.2046 -0.1751
 2221poe     o2 9371   1.824   4.049   1.522  0.0990 -0.0211  0.2014
 2221poe    c31 9372   1.892   4.166   1.562 -0.2932  0.2957 -0.0490
 2222poe    c31 9373   2.061   1.832   5.113  0.0042 -0.2339  0.1883
 2222poe     o2 9374   2.100   1.799   5.244 -0.0544  0.4843  0.3879
 2222poe    c23 9375   2.172   1.913   5.286 -0.5060  0.8075  0.2900
 2222poe    c23 9376   2.243   1.888   5.420 -0.7289 -0.2501  0.2224
 2222poe     o2 9377   2.145   1.840   5.508 -0.5411 -0.8948  0.0815
 2222poe    c23 9378   2.188   1.845   5.643  0.0258  0.3745 -0.1387
 2222poe    c23 9379   2.066   1.800   5.725  0.2109  0.1355  0.0051
 2222poe     o2 9380   2.054   1.670   5.673  0.1789  0.1634 -0.0564
 2222poe    c23 9381   1.977   1.600   5.768  0.1653  0.1713 -0.0614
 2222poe    c23 9382   1.921   1.465   5.720  0.2261 -0.0797  0.5626
 2222poe     o2 9383   1.824   1.498   5.623  0.5659 -0.2268  0.1711
 2222poe    c31 9384   1.780   1.378   5.563  0.4539  0.1085 -0.4321
 2223poe    c31 9385   3.466   1.548   2.647 -0.5739  0.4914 -0.1282
 2223poe     o2 9386   3.481   1.599   2.516  0.2374 -0.2932 -0.3526
 2223poe    c23 9387   3.491   1.495   2.423  0.0254 -0.3162 -0.3497
 2223poe    c23 9388   3.536   1.544   2.284  0.2845  0.5520  0.0426
 2223poe     o2 9389   3.443   1.621   2.212  0.0338 -0.0542 -0.2769
 2223poe    c23 9390   3.489   1.676   2.091 -0.0103 -0.2181 -0.3698
 2223poe    c23 9391   3.382   1.776   2.041 -0.2328 -0.5705 -0.5989
 2223poe     o2 9392   3.255   1.714   2.035 -0.8583  0.5168  0.8677
 2223poe    c23 9393   3.168   1.797   1.962 -0.2828 -0.1697 -0.6271
 2223poe    c23 9394   3.022   1.779   2.009 -0.2348  0.4235 -0.2416
 2223poe     o2 9395   2.996   1.848   2.129  0.0711  0.7094 -0.3384
 2223poe    c31 9396   2.869   1.810   2.175  0.2708  0.6912  0.2051
 2224poe    c31 9397   2.867   5.341   1.713 -0.4269  0.3740  0.2492
 2224poe     o2 9398   2.999   5.314   1.755 -0.2106 -0.1219 -0.7279
 2224poe    c23 9399   3.005   5.180   1.799 -0.4625 -0.0220 -0.3944
 2224poe    c23 9400   3.141   5.125   1.844 -0.3847  0.2998 -0.2316
 2224poe     o2 9401   3.237   5.162   1.748 -0.4542 -0.1470 -0.4796
 2224poe    c23 9402   3.351   5.079   1.745 -0.2251  0.1546 -0.2972
 2224poe    c23 9403   3.431   5.097   1.615 -0.2415 -0.0277 -0.3338
 2224poe     o2 9404   3.503   5.218   1.603 -0.2466  0.0553  0.3888
 2224poe    c23 9405   3.547   5.238   1.471 -0.2689  0.4304  0.4384
 2224poe    c23 9406   3.582   5.387   1.450  0.1435  0.1998 -0.5820
 2224poe     o2 9407   3.463   5.462   1.455 -0.0032 -0.0226 -0.7030
 2224poe    c31 9408   3.493   5.585   1.394  0.0447  0.1523 -0.3272
 2225poe    c31 9409   1.444   1.045   0.100 -0.1684  0.2399 -0.1882
 2225poe     o2 9410   1.415   1.119  -0.017  0.0914  0.3469 -0.1845
 2225poe    c23 9411   1.413   1.256   0.015 -0.2848  0.3387 -0.1692
 2225poe    c23 9412   1.371   1.339  -0.107 -0.3568 -0.0437 -0.4043
 2225poe     o2 9413   1.464   1.340  -0.213  0.0387 -0.0102 -0.0554
 2225poe    c23 9414   1.418   1.439  -0.302 -0.2322 -0.3651 -0.3096
 2225poe    c23 9415   1.471   1.415  -0.445  0.3301  0.3351 -0.2182
 2225poe     o2 9416   1.449   1.283  -0.488 -0.0261  0.2843  0.1131
 2225poe    c23 9417   1.496   1.271  -0.620 -0.1099  0.1546  0.0949
 2225poe    c23 9418   1.561   1.131  -0.625 -0.1177  0.1308  0.5755
 2225poe     o2 9419   1.476   1.032  -0.572  0.1159 -0.3815  0.0112
 2225poe    c31 9420   1.530   0.904  -0.592  0.5017 -0.1816 -0.2382
 2226poe    c31 9421   6.367   5.118   5.508 -0.2774 -0.1470 -0.3355
 2226poe     o2 9422   6.276   5.185   5.424  0.0743  0.3151 -0.3544
 2226poe    c23 9423   6.302   5.183   5.285  0.2742 -0.1875 -0.3120
 2226poe    c23 9424   6.192   5.253   5.204  0.4853 -0.1862 -0.5979
 2226poe     o2 9425   6.153   5.358   5.290 -0.1522 -0.6475 -0.3179
 2226poe    c23 9426   6.030   5.412   5.247  0.1901  0.2459 -0.1923
 2226poe    c23 9427   6.012   5.541   5.330  0.1378  0.0696  0.0726
 2226poe     o2 9428   6.041   5.505   5.463  0.0595 -0.1418  0.0316
 2226poe    c23 9429   5.996   5.611   5.544 -0.2198  0.1993 -0.5615
 2226poe    c23 9430   5.890   5.555   5.640  0.3078 -0.0920 -0.1372
 2226poe     o2 9431   5.950   5.468   5.733 -0.2562 -0.1747  0.1549
 2226poe    c31 9432   5.889   5.479   5.859 -0.2176  0.5394  0.1168
 2227poe    c31 9433   6.076   5.888   0.009 -0.0799 -0.0579 -0.2608
 2227poe     o2 9434   6.145   5.814  -0.089 -0.2389 -0.2030 -0.2618
 2227poe    c23 9435   6.166   5.686  -0.033 -0.8827 -0.1420  0.1391
 2227poe    c23 9436   6.172   5.581  -0.146  0.2385  0.0806 -0.0178
 2227poe     o2 9437   6.295   5.600  -0.212 -0.0505  0.4945 -0.4350
 2227poe    c23 9438   6.300   5.529  -0.334 -0.4675  0.5897 -0.5073
 2227poe    c23 9439   6.415   5.587  -0.418  0.0558 -0.2157 -0.3536
 2227poe     o2 9440   6.376   5.708  -0.479 -0.0433 -0.4040 -0.6627
 2227poe    c23 9441   6.489   5.768  -0.540  0.1928  0.3263  0.4704
 2227poe    c23 9442   6.455   5.909  -0.592  0.2149 -0.0142 -0.4809
 2227poe     o2 9443   6.435   6.018  -0.505 -0.1465 -0.2169 -0.3100
 2227poe    c31 9444   6.434   6.129  -0.592 -0.2292  0.0994  0.0896
 2228poe    c31 9445   5.777   1.494   0.793  0.9224  0.2909  0.4562
 2228poe     o2 9446   5.840   1.473   0.918  0.1102 -0.1061  0.8056
 2228poe    c23 9447   5.861   1.337   0.949 -0.0027 -0.4143 -0.4022
 2228poe    c23 9448   5.893   1.330   1.100 -0.0377  0.1034 -0.3697
 2228poe     o2 9449   5.778   1.364   1.174 -0.0374 -0.6177 -0.0396
 2228poe    c23 9450   5.816   1.361   1.310 -0.3365 -0.0433  0.0576
 2228poe    c23 9451   5.695   1.356   1.405 -0.4683 -0.0401 -0.1108
 2228poe     o2 9452   5.612   1.470   1.411 -0.3627  0.0262  0.1012
 2228poe    c23 9453   5.478   1.434   1.435 -0.1409 -0.5596  0.4738
 2228poe    c23 9454   5.398   1.565   1.449  0.1521 -0.2325 -0.7744
 2228poe     o2 9455   5.424   1.648   1.339  0.2800 -0.0135 -0.5784
 2228poe    c31 9456   5.363   1.775   1.332  0.3163  0.0162 -0.3425
 2229poe    c31 9457   0.095   5.977   0.438  0.0477  0.4204  0.2480
 2229poe     o2 9458   0.142   6.066   0.340 -0.3362  1.0130  0.6014
 2229poe    c23 9459   0.097   6.015   0.217  0.3994  0.7397  0.4487
 2229poe    c23 9460   0.114   6.115   0.101  0.2821  0.2679  0.0165
 2229poe     o2 9461   0.237   6.132   0.035  0.1202  0.7312 -0.1745
 2229poe    c23 9462   0.292   6.013  -0.018 -0.5685  0.1420  0.4004
 2229poe    c23 9463   0.409   5.968   0.071  0.2928  0.6024 -0.4763
 2229poe     o2 9464   0.504   6.070   0.094  0.5920  0.3023 -0.3716
 2229poe    c23 9465   0.600   6.023   0.186 -0.0906 -0.0224  0.1885
 2229poe    c23 9466   0.682   6.152   0.201 -0.3699  0.2147 -0.3227
 2229poe     o2 9467   0.608   6.272   0.207 -0.3628  0.1968  0.1132
 2229poe    c31 9468   0.700   6.375   0.235  0.3835 -0.5976  0.6443
 2230poe    c31 9469   1.529   2.331   6.398 -0.0727 -0.6028  0.4490
 2230poe     o2 9470   1.407   2.271   6.361 -0.1520  0.1195 -0.4853
 2230poe    c23 9471   1.392   2.156   6.441 -0.0483  0.2213 -0.3208
 2230poe    c23 9472   1.327   2.155   6.581  0.2434  0.8362 -0.1773
 2230poe     o2 9473   1.197   2.211   6.582  0.2222  0.7867  0.4740
 2230poe    c23 9474   1.130   2.184   6.703  0.3664 -0.0543  0.3705
 2230poe    c23 9475   0.997   2.261   6.713  0.4432  0.1546 -0.1874
 2230poe     o2 9476   1.012   2.394   6.666  0.0287  0.3440  0.2179
 2230poe    c23 9477   0.900   2.474   6.698 -0.7559 -0.4679 -0.4325
 2230poe    c23 9478   0.949   2.606   6.635 -0.0868 -0.3392  0.3475
 2230poe     o2 9479   0.990   2.579   6.503 -0.2370 -0.4491  0.3230
 2230poe    c31 9480   0.971   2.699   6.431 -0.4127 -0.9370 -0.4554
 2231poe    c31 9481   4.962   3.572   6.719 -0.8888 -0.1814  0.0196
 2231poe     o2 9482   4.970   3.447   6.784  0.4732  0.0705  0.3732
 2231poe    c23 9483   4.844   3.392   6.814  0.1073  0.0786 -1.0754
 2231poe    c23 9484   4.860   3.246   6.861  0.0378  0.3872 -0.0682
 2231poe     o2 9485   4.944   3.231   6.974 -0.4194  0.2776  0.2595
 2231poe    c23 9486   4.921   3.099   7.018 -0.1219 -0.0234 -0.4567
 2231poe    c23 9487   5.025   3.002   6.960  0.3522  0.1516  0.0874
 2231poe     o2 9488   5.144   3.053   7.016  0.3524 -0.2859  0.4908
 2231poe    c23 9489   5.262   2.980   6.992  0.1787 -0.2621 -0.4974
 2231poe    c23 9490   5.366   3.044   7.087 -0.4561  0.0038  0.0267
 2231poe     o2 9491   5.342   3.183   7.079 -0.6398 -0.0068  0.3642
 2231poe    c31 9492   5.436   3.252   7.159 -0.4098  0.1429 -0.0325
 2232poe    c31 9493   0.796   3.384   3.266  0.5283 -0.3764  0.8021
 2232poe     o2 9494   0.741   3.511   3.291 -0.0702 -0.3896 -0.4049
 2232poe    c23 9495   0.797   3.602   3.199 -0.3395  0.1584 -0.0330
 2232poe    c23 9496   0.805   3.737   3.273 -0.2496 -0.1876  0.5966
 2232poe     o2 9497   0.680   3.774   3.327 -0.3342 -0.0091  0.2831
 2232poe    c23 9498   0.685   3.897   3.395  0.0753  0.3779 -0.4337
 2232poe    c23 9499   0.567   3.903   3.493 -0.0699 -0.2275 -0.5699
 2232poe     o2 9500   0.584   3.780   3.561  0.4694  0.3100  0.2907
 2232poe    c23 9501   0.497   3.782   3.671  0.2240 -0.1920  0.1101
 2232poe    c23 9502   0.474   3.658   3.760  0.3704 -0.2633  0.0496
 2232poe     o2 9503   0.413   3.559   3.681  0.6414 -0.0403 -0.4427
 2232poe    c31 9504   0.376   3.451   3.764 -0.2122  0.5094 -0.0958
 2233poe    c31 9505   5.425   6.608   0.256 -0.2740 -0.2000 -0.8452
 2233poe     o2 9506   5.546   6.548   0.297 -0.2250  0.7245  0.4104
 2233poe    c23 9507   5.653   6.608   0.228  0.3383 -0.1805  0.4865
 2233poe    c23 9508   5.790   6.545   0.260  0.3116 -0.1194  0.7207
 2233poe     o2 9509   5.772   6.405   0.252  0.4945 -0.1056  0.0132
 2233poe    c23 9510   5.873   6.318   0.295  0.3625  0.0162  0.5817
 2233poe    c23 9511   5.810   6.184   0.340 -0.8499  0.2329 -0.4089
 2233poe     o2 9512   5.709   6.201   0.437  0.1746 -0.1813  0.7639
 2233poe    c23 9513   5.675   6.074   0.488 -0.3576 -0.3726 -0.0384
 2233poe    c23 9514   5.629   6.107   0.632 -0.9115 -0.2271 -0.2460
 2233poe     o2 9515   5.524   6.199   0.654 -0.1852  0.4537  0.4418
 2233poe    c31 9516   5.423   6.115   0.707  0.0379  0.1900  0.4521
 2234poe    c31 9517   3.238   2.933   2.265  0.0010  0.3356 -0.0552
 2234poe     o2 9518   3.326   2.972   2.162 -0.0492  0.0421 -0.2091
 2234poe    c23 9519   3.255   3.023   2.051 -0.3261 -0.1780 -0.1321
 2234poe    c23 9520   3.343   3.034   1.926 -0.2105 -0.3628 -0.0675
 2234poe     o2 9521   3.351   2.914   1.853  0.4910 -0.3275 -0.0558
 2234poe    c23 9522   3.390   2.932   1.718  0.1736 -0.3139 -0.1476
 2234poe    c23 9523   3.377   2.808   1.628  0.0553 -0.0670 -0.4687
 2234poe     o2 9524   3.268   2.728   1.668  0.2931 -0.1681 -0.0181
 2234poe    c23 9525   3.255   2.619   1.579 -0.0489 -0.1104 -0.0407
 2234poe    c23 9526   3.226   2.487   1.653 -0.0028 -0.1357 -0.0676
 2234poe     o2 9527   3.324   2.461   1.751 -1.1122 -0.0251  1.0877
 2234poe    c31 9528   3.302   2.329   1.796  0.3017 -0.4042  0.6931
 2235poe    c31 9529   3.350   1.430   0.053  0.6141 -0.6402  0.0380
 2235poe     o2 9530   3.398   1.426  -0.080 -0.1061 -0.0262 -0.2446
 2235poe    c23 9531   3.538   1.423  -0.069 -0.0843  0.5469 -0.3370
 2235poe    c23 9532   3.592   1.427  -0.213  0.0881  0.2999 -0.2785
 2235poe     o2 9533   3.551   1.555  -0.253  0.3003  0.3546 -0.3237
 2235poe    c23 9534   3.593   1.585  -0.384  0.1926  0.4008 -0.3483
 2235poe    c23 9535   3.476   1.545  -0.476  0.2683  0.0349 -0.2887
 2235poe     o2 9536   3.368   1.634  -0.459 -0.1251 -0.4871 -0.0594
 2235poe    c23 9537   3.278   1.609  -0.565 -0.2261 -0.4395  0.0141
 2235poe    c23 9538   3.145   1.685  -0.551 -0.1913 -0.3076 -0.3731
 2235poe     o2 9539   3.150   1.813  -0.611 -0.5741  0.0570  0.3639
 2235poe    c31 9540   3.150   1.918  -0.517 -0.4412  0.1312  0.2827
 2236poe    c31 9541   6.222   6.726   4.118  0.0200  0.2256  0.1126
 2236poe     o2 9542   6.252   6.648   4.005 -0.4994 -0.1783  0.2483
 2236poe    c23 9543   6.393   6.648   3.998 -0.5081 -0.3438  0.0639
 2236poe    c23 9544   6.434   6.548   3.887 -0.5095 -0.0817 -0.1735
 2236poe     o2 9545   6.399   6.425   3.945  0.3202 -0.2584 -0.0430
 2236poe    c23 9546   6.445   6.314   3.871 -0.0589 -0.3591 -0.1292
 2236poe    c23 9547   6.408   6.179   3.936  0.1321  0.0761  0.9091
 2236poe     o2 9548   6.269   6.161   3.950  0.0880  0.0330  0.4500
 2236poe    c23 9549   6.228   6.028   3.932  0.0985 -0.0307  0.8751
 2236poe    c23 9550   6.075   6.009   3.928  0.1180 -0.0352 -0.3475
 2236poe     o2 9551   6.002   6.074   4.030  0.0619 -0.2593 -0.2452
 2236poe    c31 9552   5.872   6.062   3.977  0.1429 -0.4254 -0.4085
 2237poe    c31 9553   6.340   3.825   6.532 -0.2002 -0.2461  0.3388
 2237poe     o2 9554   6.316   3.941   6.609 -0.7731  0.0645 -0.3059
 2237poe    c23 9555   6.316   3.909   6.746  0.1844  0.7411 -0.1412
 2237poe    c23 9556   6.269   4.026   6.834 -0.0817  0.1954  0.4501
 2237poe     o2 9557   6.361   4.132   6.818  0.5401 -0.3716  0.2007
 2237poe    c23 9558   6.461   4.155   6.915  0.5641  0.3774  0.0020
 2237poe    c23 9559   6.578   4.229   6.847  0.4387  0.3714 -0.2187
 2237poe     o2 9560   6.522   4.343   6.786  0.2788  0.3344 -0.1450
 2237poe    c23 9561   6.623   4.399   6.704 -0.0155 -0.4894 -1.0819
 2237poe    c23 9562   6.552   4.509   6.623 -0.0219  0.2520 -0.0758
 2237poe     o2 9563   6.450   4.460   6.539  0.5430 -0.1650 -0.5235
 2237poe    c31 9564   6.366   4.561   6.489  0.2418  0.0032  0.3005
 2238poe    c31 9565   5.005   3.573   1.452 -0.5419  0.1705  0.6034
 2238poe     o2 9566   4.891   3.565   1.369 -0.5909  0.2773  0.6602
 2238poe    c23 9567   4.859   3.690   1.312  1.0005  0.1144 -0.6568
 2238poe    c23 9568   4.711   3.710   1.275  0.8733  0.1676 -0.1237
 2238poe     o2 9569   4.688   3.670   1.142  0.6620 -0.2057  0.0235
 2238poe    c23 9570   4.632   3.541   1.129  0.1136  0.0152  0.1587
 2238poe    c23 9571   4.606   3.508   0.981  0.3215  0.0820  0.1066
 2238poe     o2 9572   4.466   3.487   0.974  0.2817  0.1731  0.5838
 2238poe    c23 9573   4.447   3.434   0.845 -0.1428  0.4953  0.5119
 2238poe    c23 9574   4.321   3.348   0.823  0.1620  0.2260 -0.2136
 2238poe     o2 9575   4.201   3.422   0.832 -0.0407 -0.1106 -0.1544
 2238poe    c31 9576   4.087   3.351   0.876  0.1772 -0.2208  0.2337
 2239poe    c31 9577   3.022   3.185   4.687  0.1109  0.8096 -0.3167
 2239poe     o2 9578   3.161   3.201   4.698  0.2130 -0.0753 -0.2313
 2239poe    c23 9579   3.193   3.316   4.622 -0.2667 -0.0275 -0.3628
 2239poe    c23 9580   3.345   3.336   4.629 -0.2848 -0.0135  0.0796
 2239poe     o2 9581   3.398   3.208   4.655  0.0683  0.1851  0.3529
 2239poe    c23 9582   3.538   3.191   4.658  0.0568 -0.0238 -0.2131
 2239poe    c23 9583   3.583   3.044   4.661 -0.1770 -0.0986 -0.3566
 2239poe     o2 9584   3.507   2.982   4.762  0.6725  0.0019  0.3563
 2239poe    c23 9585   3.559   2.851   4.773  0.0640 -0.3493 -0.7259
 2239poe    c23 9586   3.471   2.741   4.834  0.3919 -0.3632 -0.2695
 2239poe     o2 9587   3.366   2.730   4.741  0.4662  0.6139 -0.4853
 2239poe    c31 9588   3.293   2.611   4.764  0.3296  0.7790 -0.0556
 2240poe    c31 9589   7.095   2.703   6.818  0.6846  0.3466 -0.6106
 2240poe     o2 9590   7.124   2.755   6.946  0.2922 -0.1026 -0.3358
 2240poe    c23 9591   7.060   2.691   7.053  0.0800  0.3876 -0.1667
 2240poe    c23 9592   7.121   2.724   7.190  0.4631 -0.7045 -0.0657
 2240poe     o2 9593   7.251   2.673   7.214  0.6370 -0.5116 -0.6023
 2240poe    c23 9594   7.289   2.672   7.349 -0.1963  0.6738 -0.3400
 2240poe    c23 9595   7.436   2.633   7.373 -0.3493  0.1573 -0.2271
 2240poe     o2 9596   7.528   2.727   7.321  0.2748 -0.1380  0.3302
 2240poe    c23 9597   7.663   2.685   7.319  0.5118  0.6073  0.1762
 2240poe    c23 9598   7.741   2.785   7.233  0.4958  0.1922 -0.3305
 2240poe     o2 9599   7.675   2.826   7.115 -0.3339  0.1157  0.1005
 2240poe    c31 9600   7.771   2.891   7.035 -0.1422  0.0775  0.2976
 2241poe    c31 9601   0.874   6.320   4.487  0.2024  0.0945  0.2513
 2241poe     o2 9602   0.929   6.208   4.421  0.0953  0.2483 -0.1030
 2241poe    c23 9603   1.067   6.193   4.448 -0.0508 -0.6371  0.1677
 2241poe    c23 9604   1.143   6.227   4.319  0.0707 -0.0198  0.3982
 2241poe     o2 9605   1.072   6.155   4.220 -0.4239  0.3564  0.4781
 2241poe    c23 9606   1.070   6.240   4.108 -0.2059 -0.0052  0.1995
 2241poe    c23 9607   1.015   6.146   3.999  0.5655  0.1899 -0.3699
 2241poe     o2 9608   0.892   6.090   4.038  0.4131  0.5562 -0.3206
 2241poe    c23 9609   0.826   6.037   3.925 -0.1492  0.3701  0.0866
 2241poe    c23 9610   0.698   5.958   3.957  0.1896 -0.0357  0.4683
 2241poe     o2 9611   0.580   6.029   3.988  0.2670  0.2429  0.1356
 2241poe    c31 9612   0.506   6.073   3.876  0.2138  0.2895  0.1885
 2242poe    c31 9613   5.228   1.189   5.391 -0.3791  0.0279 -0.0363
 2242poe     o2 9614   5.132   1.265   5.321 -0.6853 -0.1085  0.2313
 2242poe    c23 9615   5.049   1.330   5.415  0.4264  0.6363  0.7171
 2242poe    c23 9616   4.929   1.404   5.354  0.0324 -0.3978  0.2284
 2242poe     o2 9617   4.839   1.309   5.302 -0.0091  0.0385 -0.5099
 2242poe    c23 9618   4.744   1.354   5.207 -0.3127  0.4254 -0.0246
 2242poe    c23 9619   4.645   1.252   5.149 -0.0102 -0.1310  0.4256
 2242poe     o2 9620   4.714   1.152   5.077 -0.3852  0.0134 -0.1375
 2242poe    c23 9621   4.619   1.073   5.010 -0.4404 -0.1806  0.1683
 2242poe    c23 9622   4.670   0.987   4.892 -0.2114  0.2779 -0.0671
 2242poe     o2 9623   4.728   1.071   4.794  0.3599  0.3016  0.2849
 2242poe    c31 9624   4.809   1.004   4.700 -0.9253 -0.2363 -0.4788
 2243poe    c31 9625   6.001   0.606   3.814 -0.3285 -0.6894 -0.4535
 2243poe     o2 9626   6.078   0.559   3.922 -0.0159  0.1380 -0.3085
 2243poe    c23 9627   6.003   0.492   4.020  0.1624  0.0285 -0.2454
 2243poe    c23 9628   6.064   0.354   4.046 -0.1520 -0.0129  0.2921
 2243poe     o2 9629   6.197   0.397   4.066  0.1122 -0.4462 -0.4952
 2243poe    c23 9630   6.281   0.288   4.094  0.0027 -0.4023  0.0044
 2243poe    c23 9631   6.416   0.346   4.140 -0.2412  0.0987  0.0952
 2243poe     o2 9632   6.444   0.466   4.072 -0.4424 -0.0589 -0.2665
 2243poe    c23 9633   6.560   0.508   4.140 -0.1374  0.1417 -0.9024
 2243poe    c23 9634   6.574   0.660   4.164  0.1746  0.0048 -0.1827
 2243poe     o2 9635   6.467   0.728   4.226  0.1657 -0.2229  0.0523
 2243poe    c31 9636   6.510   0.861   4.248 -0.0424 -0.1285 -0.1131
 2244poe    c31 9637   3.082   5.634   6.527  0.3985 -0.7816 -0.1457
 2244poe     o2 9638   2.949   5.641   6.574  0.4448  0.0954 -0.1372
 2244poe    c23 9639   2.934   5.748   6.665 -0.2825 -0.3025  0.2248
 2244poe    c23 9640   2.785   5.784   6.677 -0.1028  0.2773  0.7954
 2244poe     o2 9641   2.715   5.668   6.715  0.0397 -0.0745  0.0039
 2244poe    c23 9642   2.577   5.687   6.688  0.1990  0.2516 -0.5929
 2244poe    c23 9643   2.481   5.571   6.718  0.2866  0.2156 -0.4500
 2244poe     o2 9644   2.513   5.462   6.634  0.2159  0.0344 -0.2439
 2244poe    c23 9645   2.396   5.421   6.567  0.1987 -0.5556  0.1422
 2244poe    c23 9646   2.424   5.334   6.442  0.1417 -0.2035 -0.1184
 2244poe     o2 9647   2.513   5.394   6.351 -0.2674 -0.2528 -0.5540
 2244poe    c31 9648   2.451   5.478   6.256 -0.2577 -0.2863 -0.5899
 2245poe    c31 9649   6.327   2.563   2.093 -0.3046  0.2658 -0.4006
 2245poe     o2 9650   6.236   2.615   1.998 -0.2674  0.1610 -0.4946
 2245poe    c23 9651   6.127   2.688   2.051  0.1401  0.3743  0.0697
 2245poe    c23 9652   6.062   2.771   1.938 -0.6403 -0.7249 -0.3169
 2245poe     o2 9653   6.141   2.877   1.888 -1.2673 -0.2867 -0.4018
 2245poe    c23 9654   6.126   2.911   1.752 -0.1165 -0.1094 -0.4947
 2245poe    c23 9655   6.251   2.988   1.706  0.4522 -0.2610  0.7358
 2245poe     o2 9656   6.270   3.095   1.795  0.1162 -0.1115  0.6294
 2245poe    c23 9657   6.384   3.172   1.762  0.1410 -0.4940 -0.2037
 2245poe    c23 9658   6.401   3.272   1.878  0.2798 -0.2396 -0.4423
 2245poe     o2 9659   6.402   3.187   1.991 -0.2232  0.6032  0.2104
 2245poe    c31 9660   6.445   3.263   2.102 -0.3208  0.0126  0.6546
 2246poe    c31 9661   4.719   3.461   7.143  0.2823  0.3463 -0.1328
 2246poe     o2 9662   4.816   3.434   7.243 -0.1178  0.1699  0.2122
 2246poe    c23 9663   4.780   3.481   7.371 -0.4245 -0.0624  0.2117
 2246poe    c23 9664   4.863   3.601   7.420 -0.1611 -0.1066 -0.1213
 2246poe     o2 9665   4.994   3.575   7.463 -0.6013 -0.0809  1.3010
 2246poe    c23 9666   5.050   3.695   7.510  0.7181  0.2591 -0.9634
 2246poe    c23 9667   5.198   3.663   7.539  0.5058 -0.0594 -0.2204
 2246poe     o2 9668   5.230   3.576   7.645 -0.1881  0.4980  0.4615
 2246poe    c23 9669   5.295   3.463   7.591 -0.8480  0.2370  0.1956
 2246poe    c23 9670   5.312   3.354   7.699 -0.3186  0.3271  0.2092
 2246poe     o2 9671   5.208   3.262   7.726  0.3437 -0.4458  0.1324
 2246poe    c31 9672   5.177   3.170   7.623  0.3521  0.0370 -0.3095
 2247poe    c31 9673   7.107   1.488   4.347  0.1743  0.7260  0.2074
 2247poe     o2 9674   7.238   1.438   4.346 -0.3514 -0.6965 -0.0660
 2247poe    c23 9675   7.303   1.489   4.232  0.2974 -0.6277  0.3290
 2247poe    c23 9676   7.455   1.464   4.239  0.3989 -0.0998  0.0632
 2247poe     o2 9677   7.463   1.323   4.227 -0.3142 -0.1169 -0.2325
 2247poe    c23 9678   7.596   1.278   4.231 -0.0781  0.6046  0.3055
 2247poe    c23 9679   7.595   1.135   4.174  0.3161  0.8200 -0.2431
 2247poe     o2 9680   7.509   1.065   4.260  0.1840  0.7045 -0.4677
 2247poe    c23 9681   7.509   0.925   4.240  0.3245  0.4872  0.9304
 2247poe    c23 9682   7.411   0.846   4.328 -0.3613  0.2570 -0.0324
 2247poe     o2 9683   7.290   0.913   4.354 -0.2032  0.3212  0.5318
 2247poe    c31 9684   7.197   0.810   4.379 -0.5318  0.3293 -0.6466
 2248poe    c31 9685   4.334   3.153   6.379 -0.1543  0.4088 -0.0203
 2248poe     o2 9686   4.196   3.131   6.363 -0.0774 -0.0083 -0.1026
 2248poe    c23 9687   4.160   3.104   6.229 -0.1423 -0.4553  0.0020
 2248poe    c23 9688   4.041   3.007   6.214 -0.4580 -0.0919  0.1373
 2248poe     o2 9689   3.925   3.059   6.275 -0.2852  0.0972  0.3059
 2248poe    c23 9690   3.837   2.952   6.301  0.4776 -0.3501  1.1100
 2248poe    c23 9691   3.705   3.000   6.363  0.1697  0.0032  0.2001
 2248poe     o2 9692   3.706   3.026   6.502  0.2321 -0.1466  0.2292
 2248poe    c23 9693   3.583   3.067   6.557  0.3251  0.1141  0.2437
 2248poe    c23 9694   3.541   2.941   6.634 -0.4000  0.2824  0.1361
 2248poe     o2 9695   3.622   2.905   6.744 -0.0087  0.4713 -0.0864
 2248poe    c31 9696   3.546   2.804   6.807  0.0760  0.0976 -0.5731
 2249poe    c31 9697   2.861   3.227   2.137 -0.3314  0.2256  0.1287
 2249poe     o2 9698   2.822   3.091   2.134  0.1117  0.1056 -0.2127
 2249poe    c23 9699   2.869   3.018   2.245  0.0674 -0.1607 -0.3678
 2249poe    c23 9700   2.883   2.867   2.221  0.4996 -0.1893  0.0356
 2249poe     o2 9701   2.758   2.804   2.199  0.3809 -0.0688  0.3608
 2249poe    c23 9702   2.788   2.667   2.215  0.4130 -0.1166 -0.1111
 2249poe    c23 9703   2.676   2.562   2.198  0.6622 -0.3961 -0.0224
 2249poe     o2 9704   2.652   2.522   2.065 -0.4250  0.0405  0.0367
 2249poe    c23 9705   2.562   2.414   2.074 -0.1939 -0.1314  0.3080
 2249poe    c23 9706   2.478   2.381   1.949  0.3218  0.2293 -0.1401
 2249poe     o2 9707   2.363   2.459   1.929  0.1426 -0.0463 -0.1968
 2249poe    c31 9708   2.243   2.402   1.979  0.1700  0.2618  0.2311
 2250poe    c31 9709   5.011   5.227   4.799  0.2880 -0.7823  0.2681
 2250poe     o2 9710   5.074   5.338   4.858 -0.4339 -0.3312  0.1981
 2250poe    c23 9711   4.986   5.435   4.911 -0.4621 -0.2134 -0.0668
 2250poe    c23 9712   5.040   5.559   4.983  0.2333 -0.5697  0.0306
 2250poe     o2 9713   5.104   5.516   5.101 -0.0328 -0.3461  0.2570
 2250poe    c23 9714   5.121   5.618   5.197  0.0610 -0.2695  0.1580
 2250poe    c23 9715   5.185   5.554   5.321 -0.4005 -0.0940  0.4872
 2250poe     o2 9716   5.312   5.503   5.287 -0.3484  0.1321  0.3399
 2250poe    c23 9717   5.381   5.456   5.401 -0.4581 -0.3321  0.2179
 2250poe    c23 9718   5.509   5.385   5.354 -0.3417 -0.2518  0.4084
 2250poe     o2 9719   5.466   5.316   5.238 -0.2891 -0.0606  0.2731
 2250poe    c31 9720   5.566   5.221   5.208 -0.3978  0.0933 -0.5948
 2251poe    c31 9721   7.010   3.039   2.004  0.1869 -0.2146  0.3163
 2251poe     o2 9722   7.146   3.009   1.984  0.1892  0.0002 -0.0090
 2251poe    c23 9723   7.176   3.010   1.846 -0.0505 -0.6108 -0.0682
 2251poe    c23 9724   7.307   2.947   1.795  0.1104  0.2076 -0.6820
 2251poe     o2 9725   7.427   3.002   1.845 -0.1374  0.2397 -0.1144
 2251poe    c23 9726   7.541   2.944   1.785 -0.0192  0.7374 -0.3782
 2251poe    c23 9727   7.670   3.007   1.841 -0.0243  0.4309 -0.0115
 2251poe     o2 9728   7.704   2.963   1.970 -0.4995 -0.2249 -0.1017
 2251poe    c23 9729   7.843   2.979   1.990 -0.5692 -0.0853  0.2774
 2251poe    c23 9730   7.878   2.944   2.136  0.1377  0.1552  0.1684
 2251poe     o2 9731   7.819   3.023   2.237  0.4066  0.0412  0.4177
 2251poe    c31 9732   7.834   2.955   2.359 -0.0940 -0.1867  0.3567
 2252poe    c31 9733   6.424   1.691   5.346 -0.0633  0.2719  0.4791
 2252poe     o2 9734   6.485   1.619   5.450  0.2324 -0.2748 -0.0675
 2252poe    c23 9735   6.478   1.482   5.417  0.0770 -0.2623 -0.0829
 2252poe    c23 9736   6.590   1.402   5.485  0.2409 -0.2284 -0.3100
 2252poe     o2 9737   6.716   1.440   5.435  0.0416 -0.0468 -0.6815
 2252poe    c23 9738   6.817   1.378   5.512 -0.1267 -0.0008 -0.4198
 2252poe    c23 9739   6.851   1.458   5.639  0.5108  0.0210 -0.5999
 2252poe     o2 9740   6.773   1.442   5.755  0.6487  1.0998 -0.3557
 2252poe    c23 9741   6.845   1.395   5.867  0.0091  0.1291 -0.3391
 2252poe    c23 9742   6.749   1.360   5.981  0.6865 -0.0580  0.1786
 2252poe     o2 9743   6.715   1.476   6.053  0.2006 -0.2869  0.3202
 2252poe    c31 9744   6.600   1.458   6.133  0.0853  0.3790  0.3104
 2253poe    c31 9745   0.292   3.832   0.407  0.1342  0.6356 -0.0668
 2253poe     o2 9746   0.345   3.797   0.281 -0.0281 -0.2313  0.0992
 2253poe    c23 9747   0.259   3.712   0.208  0.0911  0.0375 -0.3593
 2253poe    c23 9748   0.128   3.773   0.154 -0.1860 -0.3945 -0.1781
 2253poe     o2 9749   0.139   3.869   0.052 -0.8290 -0.0428  0.0822
 2253poe    c23 9750   0.021   3.909  -0.014 -0.2661  0.6678 -0.5200
 2253poe    c23 9751   0.066   3.933  -0.160 -0.1925  0.3623 -0.5486
 2253poe     o2 9752   0.173   4.024  -0.168  0.3173 -0.1919 -0.1742
 2253poe    c23 9753   0.219   4.058  -0.297 -0.6746  0.8439 -0.2701
 2253poe    c23 9754   0.307   4.183  -0.284  0.0779  0.2978 -0.0549
 2253poe     o2 9755   0.382   4.168  -0.166  0.3619 -0.0642 -0.2782
 2253poe    c31 9756   0.510   4.222  -0.188  0.5901 -0.5243 -0.0732
 2254poe    c31 9757   3.569   2.728   2.622  0.1750 -0.1784 -0.0614
 2254poe     o2 9758   3.623   2.789   2.506  0.9057  0.2183  0.4829
 2254poe    c23 9759   3.592   2.927   2.512 -0.4697 -0.0295 -0.5470
 2254poe    c23 9760   3.708   3.011   2.457  0.1914 -0.4219  0.2308
 2254poe     o2 9761   3.730   3.011   2.317  0.1064 -0.2838  0.2171
 2254poe    c23 9762   3.869   3.019   2.299  0.1139 -0.1353  0.3405
 2254poe    c23 9763   3.890   3.057   2.152 -0.1994 -0.1526  0.2914
 2254poe     o2 9764   3.877   2.945   2.067 -0.1267 -0.1242  0.2423
 2254poe    c23 9765   3.903   2.976   1.932  0.0991 -0.2369  0.2599
 2254poe    c23 9766   3.949   2.855   1.849  0.1654 -0.1457  0.1635
 2254poe     o2 9767   3.856   2.749   1.851  0.1784 -0.1713 -0.3073
 2254poe    c31 9768   3.802   2.715   1.726 -0.1172  0.4234 -0.3467
 2255poe    c31 9769   3.721   5.686   4.846  0.1606 -0.3508 -0.0138
 2255poe     o2 9770   3.678   5.741   4.968  0.3471  0.2101 -0.1996
 2255poe    c23 9771   3.547   5.697   4.995  0.2853  0.5348  0.0337
 2255poe    c23 9772   3.514   5.719   5.144  0.7331  0.0109  0.2141
 2255poe     o2 9773   3.487   5.851   5.187  0.2994 -0.0460  0.1179
 2255poe    c23 9774   3.504   5.848   5.327 -0.4479 -0.4002  0.2056
 2255poe    c23 9775   3.387   5.908   5.408 -0.0776  0.4668  0.1040
 2255poe     o2 9776   3.269   5.834   5.388  0.0815  0.1896  0.1939
 2255poe    c23 9777   3.162   5.899   5.452  0.1710  0.8039 -0.2690
 2255poe    c23 9778   3.031   5.877   5.375 -0.0376 -0.0481  0.3083
 2255poe     o2 9779   3.020   5.953   5.257  0.1800 -0.7710 -0.1802
 2255poe    c31 9780   2.888   5.948   5.205  0.5109  0.0886 -1.1495
 2256poe    c31 9781   0.468   7.147   4.803 -0.0513 -0.1305 -0.3099
 2256poe     o2 9782   0.348   7.141   4.728 -0.0991 -0.2882 -0.2220
 2256poe    c23 9783   0.227   7.167   4.795  0.1093  0.0873  0.0141
 2256poe    c23 9784   0.188   7.072   4.909 -0.5561  0.1528 -0.1528
 2256poe     o2 9785   0.152   6.939   4.877 -0.4655  0.0118  0.3190
 2256poe    c23 9786   0.158   6.858   4.992  0.2178 -0.1392  0.1825
 2256poe    c23 9787   0.108   6.714   4.966 -0.0002 -0.0425  0.0645
 2256poe     o2 9788  -0.031   6.707   4.946 -0.0838  0.0805  0.5831
 2256poe    c23 9789  -0.095   6.641   4.839  0.3381  0.5904  0.0129
 2256poe    c23 9790  -0.229   6.697   4.789  0.4094  1.0460  0.3189
 2256poe     o2 9791  -0.202   6.783   4.680 -0.2836 -0.0508 -0.7562
 2256poe    c31 9792  -0.316   6.855   4.640 -0.4231  0.0096 -0.2636
 2257poe    c31 9793   0.632   0.969   3.726 -0.8450 -0.1456  0.7054
 2257poe     o2 9794   0.507   0.920   3.769 -0.9050 -0.6100  0.0245
 2257poe    c23 9795   0.408   1.013   3.731 -0.4674 -0.2285 -0.2058
 2257poe    c23 9796   0.265   0.964   3.763 -0.4803 -0.3912 -0.5097
 2257poe     o2 9797   0.244   0.935   3.899 -0.0563 -0.4279 -0.4502
 2257poe    c23 9798   0.129   0.859   3.930 -0.2343  0.1864  0.4575
 2257poe    c23 9799  -0.008   0.911   3.884 -0.2149 -0.0412  0.1374
 2257poe     o2 9800  -0.039   1.042   3.924  0.2030  0.0898  0.0326
 2257poe    c23 9801  -0.175   1.072   3.900  0.1075 -0.6623 -0.4019
 2257poe    c23 9802  -0.259   1.058   4.028  1.2000 -0.1459  0.3948
 2257poe     o2 9803  -0.260   1.165   4.120  0.7789 -0.0221  0.2516
 2257poe    c31 9804  -0.337   1.137   4.235  0.6409  0.0201  0.1703
 2258poe    c31 9805   1.532   0.767   0.601 -0.0578  0.2095 -0.1049
 2258poe     o2 9806   1.453   0.684   0.684 -0.3348 -0.0208 -0.5892
 2258poe    c23 9807   1.367   0.600   0.611 -0.3265 -0.4343 -0.1338
 2258poe    c23 9808   1.329   0.495   0.717 -0.6333  0.0221  0.2153
 2258poe     o2 9809   1.281   0.573   0.823 -0.0762  0.5066  0.1137
 2258poe    c23 9810   1.219   0.497   0.924  0.4152 -0.0614 -0.0125
 2258poe    c23 9811   1.149   0.581   1.032  0.0452 -0.1222 -0.2039
 2258poe     o2 9812   1.225   0.681   1.097 -0.1976 -0.2426  0.2751
 2258poe    c23 9813   1.142   0.757   1.182  0.0602 -0.2871  0.5648
 2258poe    c23 9814   1.206   0.884   1.241  0.0878  0.1324 -0.3493
 2258poe     o2 9815   1.248   0.962   1.132  0.2940  0.0621 -0.3208
 2258poe    c31 9816   1.304   1.086   1.170 -0.0354 -0.0215  0.4761
 2259poe    c31 9817   4.972   4.595   6.492 -0.0956  0.6396  0.5002
 2259poe     o2 9818   4.871   4.678   6.546 -0.1981  0.5356  0.4713
 2259poe    c23 9819   4.804   4.602   6.644 -0.3240 -0.0567 -0.0685
 2259poe    c23 9820   4.686   4.694   6.680 -0.3629 -0.1166 -0.0430
 2259poe     o2 9821   4.742   4.821   6.706 -0.3105 -0.2233  0.3693
 2259poe    c23 9822   4.646   4.910   6.759  0.2530  0.3728  0.3960
 2259poe    c23 9823   4.715   5.036   6.814  0.7230  0.3324 -0.0991
 2259poe     o2 9824   4.797   5.083   6.709  0.7958  0.5685  0.0619
 2259poe    c23 9825   4.856   5.202   6.756  0.1188  0.6289  0.7752
 2259poe    c23 9826   4.989   5.242   6.690 -0.2453  0.9327  0.2155
 2259poe     o2 9827   4.977   5.281   6.555  0.7791  0.1786 -0.1036
 2259poe    c31 9828   5.096   5.337   6.504  0.6929  0.3379 -0.1283
 2260poe    c31 9829   3.292   5.463   0.825  0.9279 -0.0098  0.0419
 2260poe     o2 9830   3.350   5.353   0.758  0.5999 -0.4000  0.3919
 2260poe    c23 9831   3.249   5.256   0.747 -0.0064  0.2893 -0.2400
 2260poe    c23 9832   3.276   5.115   0.690 -0.3831  0.0246  0.2317
 2260poe     o2 9833   3.325   5.117   0.558  0.1216 -0.0711  0.4140
 2260poe    c23 9834   3.392   4.993   0.551  0.3898  0.0670  0.5222
 2260poe    c23 9835   3.465   4.966   0.418 -0.6889  0.4321 -0.1583
 2260poe     o2 9836   3.564   5.061   0.383 -0.4239  0.1095 -0.2876
 2260poe    c23 9837   3.519   5.184   0.330 -0.4088  0.2710  0.0741
 2260poe    c23 9838   3.621   5.293   0.293 -0.4628  0.2770 -0.0586
 2260poe     o2 9839   3.650   5.356   0.416 -0.5063  0.3168 -0.0690
 2260poe    c31 9840   3.713   5.481   0.403 -0.0130  0.1025  0.2705
 2261poe    c31 9841   7.152   0.377   5.633  0.6320 -0.0048 -0.1430
 2261poe     o2 9842   7.265   0.346   5.712  0.7092  0.4558 -0.0662
 2261poe    c23 9843   7.328   0.243   5.638  0.0140 -0.2238  0.2676
 2261poe    c23 9844   7.445   0.203   5.730  0.4570  0.0189 -0.1836
 2261poe     o2 9845   7.388   0.206   5.859  0.6190 -0.1504 -0.1067
 2261poe    c23 9846   7.479   0.183   5.963  0.4106 -0.2159  0.0608
 2261poe    c23 9847   7.403   0.144   6.092  0.0706  0.2150 -0.0091
 2261poe     o2 9848   7.304   0.239   6.122 -0.2280  0.0211 -0.3704
 2261poe    c23 9849   7.259   0.203   6.251 -0.3266  0.3394 -0.3147
 2261poe    c23 9850   7.143   0.102   6.255 -0.5349  0.6122  0.5987
 2261poe     o2 9851   7.030   0.135   6.177 -0.1517  0.7455  0.0982
 2261poe    c31 9852   6.914   0.067   6.219  0.0519  0.2800 -0.0853
 2262poe    c31 9853   6.970   3.103   2.614  0.2151 -0.1347 -0.1855
 2262poe     o2 9854   7.105   3.073   2.641  0.1435  0.0006  0.3409
 2262poe    c23 9855   7.108   2.967   2.734 -0.2604 -0.1520  0.1802
 2262poe    c23 9856   7.244   2.947   2.803 -0.2002  0.3963  0.2190
 2262poe     o2 9857   7.342   2.946   2.702  0.1245  0.3568  0.5320
 2262poe    c23 9858   7.408   2.823   2.725  0.3853  0.3631 -0.1354
 2262poe    c23 9859   7.530   2.803   2.634  0.1427 -0.6486 -0.2514
 2262poe     o2 9860   7.508   2.771   2.498 -0.0239 -0.1869 -0.3380
 2262poe    c23 9861   7.604   2.675   2.458  0.4417  0.0908  0.0997
 2262poe    c23 9862   7.575   2.625   2.315 -0.7855  0.3196  0.2559
 2262poe     o2 9863   7.563   2.731   2.223  0.6409  0.0907 -0.2150
 2262poe    c31 9864   7.589   2.682   2.093  0.7280 -0.0239 -0.1547
 2263poe    c31 9865   2.615   0.798   5.245  0.1271 -1.1001 -0.1759
 2263poe     o2 9866   2.679   0.706   5.330  0.0272  0.1878  1.3484
 2263poe    c23 9867   2.614   0.582   5.310  0.4292  0.0822  0.6770
 2263poe    c23 9868   2.728   0.483   5.340  0.0481 -0.5197  0.1615
 2263poe     o2 9869   2.768   0.496   5.474 -0.5047  0.1917  0.2688
 2263poe    c23 9870   2.845   0.388   5.525 -0.0666  0.2453 -0.2687
 2263poe    c23 9871   2.891   0.418   5.668  0.0928  0.6595 -0.4066
 2263poe     o2 9872   2.786   0.474   5.744  0.0005  0.3858 -0.3322
 2263poe    c23 9873   2.802   0.464   5.884 -0.0549  0.3312 -0.3302
 2263poe    c23 9874   2.692   0.544   5.957 -0.0285  0.1585 -0.1001
 2263poe     o2 9875   2.564   0.536   5.899 -0.1574  0.4251  0.1455
 2263poe    c31 9876   2.467   0.561   5.998  0.0445  0.1269  0.4199
 2264poe    c31 9877   5.166   0.333   6.960 -0.7463 -0.4283  0.0212
 2264poe     o2 9878   5.244   0.415   7.044 -0.4205 -0.3383 -0.3645
 2264poe    c23 9879   5.292   0.347   7.158 -0.0850  0.3329 -0.0988
 2264poe    c23 9880   5.313   0.439   7.280  0.0046  0.5663 -0.2900
 2264poe     o2 9881   5.429   0.519   7.265  0.2332  0.0741 -1.2249
 2264poe    c23 9882   5.478   0.560   7.390 -0.4984 -0.2107 -0.8331
 2264poe    c23 9883   5.603   0.648   7.367 -0.5269  0.0948  0.1028
 2264poe     o2 9884   5.564   0.732   7.260 -0.2705  0.0818 -0.0018
 2264poe    c23 9885   5.661   0.831   7.232  0.0785 -0.3453 -0.3130
 2264poe    c23 9886   5.611   0.912   7.111 -0.2431 -0.5090 -0.2927
 2264poe     o2 9887   5.557   0.817   7.022 -0.0949 -0.6196 -0.2646
 2264poe    c31 9888   5.541   0.866   6.891 -0.1106 -0.2136 -0.1113
 2265poe    c31 9889   0.022   2.067   4.220 -0.3422 -0.7902  0.0231
 2265poe     o2 9890   0.133   1.981   4.215  0.3169  0.0422  0.1412
 2265poe    c23 9891   0.150   1.919   4.090 -0.4633  0.1493 -0.0188
 2265poe    c23 9892   0.268   1.821   4.078 -0.1461  0.4832  0.3463
 2265poe     o2 9893   0.366   1.846   3.979 -0.1122 -0.7091  0.0603
 2265poe    c23 9894   0.474   1.755   3.973  0.1174 -0.4132 -0.3031
 2265poe    c23 9895   0.566   1.736   4.095 -0.3365  0.6380  0.2132
 2265poe     o2 9896   0.511   1.672   4.207 -0.3396  0.1663 -0.0564
 2265poe    c23 9897   0.611   1.639   4.301 -0.5913 -0.0574  0.1382
 2265poe    c23 9898   0.568   1.593   4.441 -0.4363  0.0146  0.2102
 2265poe     o2 9899   0.505   1.698   4.511 -0.4654  0.4774 -0.4982
 2265poe    c31 9900   0.422   1.656   4.617 -0.1303 -0.1732 -0.4917
 2266poe    c31 9901   2.674   1.123   4.629 -0.7885 -0.3197  0.3015
 2266poe     o2 9902   2.672   1.105   4.769  0.5390 -0.4549  0.3185
 2266poe    c23 9903   2.633   1.233   4.814 -0.2683 -0.2895 -0.8080
 2266poe    c23 9904   2.564   1.244   4.951  0.0525 -0.1274 -0.6590
 2266poe     o2 9905   2.454   1.157   4.959  0.3190 -0.4774 -0.7547
 2266poe    c23 9906   2.382   1.181   5.078 -0.0288 -0.3076 -0.9969
 2266poe    c23 9907   2.280   1.070   5.110  0.0967 -0.1857 -0.1484
 2266poe     o2 9908   2.332   0.943   5.142  0.2057 -0.3370 -0.8968
 2266poe    c23 9909   2.235   0.842   5.151  0.0497 -0.1231 -0.1237
 2266poe    c23 9910   2.140   0.822   5.271 -0.0245 -0.0964 -0.1784
 2266poe     o2 9911   2.213   0.791   5.387  0.4772  0.2678 -0.3921
 2266poe    c31 9912   2.251   0.657   5.411 -0.0162  0.0891 -0.6018
 2267poe    c31 9913   0.594   2.166   5.746 -0.0420 -0.5875  0.1354
 2267poe     o2 9914   0.700   2.110   5.673 -0.0588 -0.0460 -0.3169
 2267poe    c23 9915   0.819   2.120   5.748 -0.2735 -0.0565  0.0249
 2267poe    c23 9916   0.938   2.055   5.675 -0.2819  0.2298 -0.2427
 2267poe     o2 9917   0.910   1.927   5.623 -0.0982  0.1622 -0.1772
 2267poe    c23 9918   1.034   1.862   5.640 -0.0177  0.2822 -0.2963
 2267poe    c23 9919   1.030   1.715   5.593  0.6736  0.0982  0.1964
 2267poe     o2 9920   0.927   1.642   5.656  0.2161 -0.1205 -0.7902
 2267poe    c23 9921   0.850   1.578   5.556  0.2240 -0.1659 -0.7671
 2267poe    c23 9922   0.737   1.501   5.627  0.2091  0.1841 -0.4088
 2267poe     o2 9923   0.671   1.582   5.722 -0.0754 -0.1255 -0.3412
 2267poe    c31 9924   0.648   1.492   5.828 -0.3066  0.4981  0.1484
 2268poe    c31 9925   2.825   6.478   1.971  0.0516 -0.0748  0.5963
 2268poe     o2 9926   2.701   6.533   2.010 -0.4342 -0.0817 -0.8870
 2268poe    c23 9927   2.657   6.469   2.128 -0.6004  0.1422 -0.8281
 2268poe    c23 9928   2.557   6.559   2.204  0.0384 -0.0605  0.2545
 2268poe     o2 9929   2.611   6.668   2.275  0.1301 -0.1303  0.2937
 2268poe    c23 9930   2.519   6.736   2.358 -0.3131  0.3898 -0.6042
 2268poe    c23 9931   2.592   6.836   2.449  0.1194  0.0858 -0.6120
 2268poe     o2 9932   2.644   6.939   2.367  0.5984  0.1811 -0.1952
 2268poe    c23 9933   2.677   7.049   2.449 -0.5553  0.1831  0.2820
 2268poe    c23 9934   2.731   7.180   2.389  0.1839 -0.3680 -0.2747
 2268poe     o2 9935   2.636   7.268   2.333  0.0019 -0.2443  0.2220
 2268poe    c31 9936   2.655   7.390   2.401  0.2710  0.1884 -0.6149
 2269poe    c31 9937   0.953   3.178   0.073  0.1677  0.3024  0.7831
 2269poe     o2 9938   0.842   3.258   0.108 -0.2681  0.0032  0.1075
 2269poe    c23 9939   0.740   3.243   0.012 -0.2280 -0.5242  0.1432
 2269poe    c23 9940   0.627   3.332   0.067  0.1635 -0.0263  0.1487
 2269poe     o2 9941   0.683   3.461   0.076 -0.6243  0.3918 -0.8198
 2269poe    c23 9942   0.598   3.554   0.138 -0.1526  0.3569 -0.1121
 2269poe    c23 9943   0.655   3.693   0.172  0.2154  0.1698  0.0374
 2269poe     o2 9944   0.764   3.695   0.261  0.1766 -0.0654  0.0890
 2269poe    c23 9945   0.826   3.820   0.244 -0.1471  0.0815  0.0009
 2269poe    c23 9946   0.979   3.829   0.258 -0.1802  0.1239  0.3488
 2269poe     o2 9947   1.054   3.759   0.161 -0.2543 -0.1260  0.4706
 2269poe    c31 9948   1.190   3.793   0.175 -0.1827 -0.4159  0.4904
 2270poe    c31 9949   3.896   1.972   3.419 -0.7786 -0.6873 -0.7542
 2270poe     o2 9950   3.785   1.991   3.503  0.2007  0.4102  0.3147
 2270poe    c23 9951   3.788   1.910   3.619 -0.2321  0.2189  0.1940
 2270poe    c23 9952   3.675   1.943   3.719  0.2480  0.4645  0.6598
 2270poe     o2 9953   3.552   1.891   3.672  0.4994 -0.5569  1.0921
 2270poe    c23 9954   3.454   1.938   3.762  0.5467 -0.3092  1.0162
 2270poe    c23 9955   3.343   1.836   3.792  0.2489 -0.3902 -0.3161
 2270poe     o2 9956   3.263   1.823   3.676 -0.0972 -0.1029 -0.1128
 2270poe    c23 9957   3.130   1.798   3.715 -0.2497  0.2457 -0.4069
 2270poe    c23 9958   3.045   1.803   3.587  0.1193 -0.2194 -0.6759
 2270poe     o2 9959   3.089   1.911   3.508 -0.1719  0.6577  0.3359
 2270poe    c31 9960   2.994   1.941   3.409 -0.3224  0.2282  0.3478
 2271poe    c31 9961   5.033   1.457   3.476 -1.0862 -0.7853  0.5076
 2271poe     o2 9962   5.136   1.410   3.560 -0.3059  0.3236  0.1921
 2271poe    c23 9963   5.096   1.282   3.605  0.7324 -0.0929 -0.0246
 2271poe    c23 9964   5.189   1.238   3.719  0.1181  0.3343  0.6494
 2271poe     o2 9965   5.160   1.321   3.830 -0.6125  0.3973  0.4159
 2271poe    c23 9966   5.227   1.257   3.936 -0.0305  0.0639 -0.1385
 2271poe    c23 9967   5.211   1.355   4.054  0.6016 -0.3113  0.2653
 2271poe     o2 9968   5.084   1.342   4.114  0.2271  0.1318 -0.4114
 2271poe    c23 9969   5.078   1.385   4.248  0.3191  0.3822 -0.4880
 2271poe    c23 9970   4.945   1.443   4.300 -0.0334 -0.4122 -0.4989
 2271poe     o2 9971   4.905   1.567   4.247  0.4889  0.0086  0.0837
 2271poe    c31 9972   4.882   1.649   4.359 -0.0418  0.3393 -0.2616
 2272poe    c31 9973   1.914   0.171   1.184  0.2817 -0.0255 -0.2348
 2272poe     o2 9974   1.848   0.051   1.217 -0.2312  0.1227 -0.7093
 2272poe    c23 9975   1.714   0.083   1.248  0.0029  0.1239  0.3531
 2272poe    c23 9976   1.649  -0.047   1.298  0.3494 -0.1740  0.0420
 2272poe     o2 9977   1.679  -0.074   1.433 -0.2016 -0.1302  0.1757
 2272poe    c23 9978   1.652  -0.210   1.460  1.0063 -0.4474 -0.1613
 2272poe    c23 9979   1.668  -0.234   1.611  0.0100  0.0270  0.0261
 2272poe     o2 9980   1.777  -0.165   1.668 -0.0063 -0.0643  0.1701
 2272poe    c23 9981   1.788  -0.188   1.806 -0.3529  0.0747  0.2208
 2272poe    c23 9982   1.903  -0.111   1.875 -0.2008  0.0713 -0.0287
 2272poe     o2 9983   2.023  -0.143   1.808 -0.2077  0.0095 -0.0117
 2272poe    c31 9984   2.122  -0.087   1.890 -0.2625  0.3717 -0.1928
 2273poe    c31 9985   3.659   0.006   2.293  0.3989 -1.0492  0.3604
 2273poe     o2 9986   3.767   0.096   2.299 -0.4660  0.0317  0.0696
 2273poe    c23 9987   3.729   0.231   2.315 -0.4062  0.0148  0.3621
 2273poe    c23 9988   3.822   0.347   2.273 -0.0902 -0.3541  0.0341
 2273poe     o2 9989   3.936   0.364   2.354 -0.2473  0.3339  0.1195
 2273poe    c23 9990   4.001   0.486   2.327 -0.0543  0.0281 -0.8052
 2273poe    c23 9991   4.153   0.466   2.339 -0.1406 -0.4679 -0.4894
 2273poe     o2 9992   4.185   0.376   2.235  0.2718 -0.3753 -0.4462
 2273poe    c23 9993   4.316   0.326   2.242  0.3693 -0.0567  0.1074
 2273poe    c23 9994   4.327   0.191   2.168  0.3097 -0.3263  0.5886
 2273poe     o2 9995   4.249   0.082   2.211 -0.1626 -0.0736  0.3763
 2273poe    c31 9996   4.280  -0.019   2.118 -0.0233 -0.3728  0.7407
 2274poe    c31 9997   0.290   6.760   3.094 -0.0661 -0.6569 -0.0475
 2274poe     o2 9998   0.393   6.818   3.016 -0.4345  0.1433  0.0589
 2274poe    c23 9999   0.380   6.805   2.876 -0.6365  0.1589  0.0757
 2274poe    c2310000   0.510   6.846   2.805 -0.1358 -0.4859  0.6127
 2274poe     o210001   0.609   6.746   2.815 -0.1978 -0.6235 -0.0832
 2274poe    c2310002   0.742   6.788   2.799 -0.2787 -0.1426  0.4662
 2274poe    c2310003   0.845   6.680   2.836  0.1192  0.2490  0.5060
 2274poe     o210004   0.828   6.559   2.766  0.1772  0.2597  0.4727
 2274poe    c2310005   0.942   6.482   2.734 -0.1467  0.2430 -0.6507
 2274poe    c2310006   0.897   6.378   2.629 -0.5857  0.0141 -0.2407
 2274poe     o210007   0.799   6.299   2.693  0.1395 -0.2643  0.5486
 2274poe    c3110008   0.767   6.180   2.624  0.5679  0.1191 -0.3297
 2275poe    c3110009   7.179   0.815   7.037 -0.1332 -0.7548  0.1045
 2275poe     o210010   7.294   0.767   6.972  0.2327  0.1584  0.0588
 2275poe    c2310011   7.315   0.628   6.977 -0.1050  0.0769 -0.7002
 2275poe    c2310012   7.448   0.599   6.906  0.2912  0.8622 -0.2869
 2275poe     o210013   7.438   0.645   6.773 -0.0738  0.1024 -0.5330
 2275poe    c2310014   7.545   0.599   6.695  0.2828 -0.4244  0.2538
 2275poe    c2310015   7.560   0.677   6.563  0.0935  0.2448  0.6236
 2275poe     o210016   7.559   0.817   6.580 -0.3958  0.2858  0.2699
 2275poe    c2310017   7.622   0.890   6.477 -0.0852  0.0438  0.2856
 2275poe    c2310018   7.565   1.033   6.475 -0.0897  0.0374 -0.1798
 2275poe     o210019   7.427   1.012   6.450 -0.0178 -0.1690 -0.4118
 2275poe    c3110020   7.365   1.137   6.474 -0.2702 -0.3877  0.0845
 2276poe    c3110021   1.336   3.651   7.029  0.1479  0.0340 -0.4518
 2276poe     o210022   1.373   3.519   7.059  0.2461  0.2232  0.2957
 2276poe    c2310023   1.272   3.425   7.090  0.7199 -0.5110 -0.3377
 2276poe    c2310024   1.162   3.405   6.984  0.2755 -0.0384  0.0285
 2276poe     o210025   1.057   3.497   7.005  0.4384  0.1220  0.1438
 2276poe    c2310026   1.005   3.524   6.877 -0.1922 -0.3801  0.2918
 2276poe    c2310027   0.937   3.662   6.887  0.1594 -0.1635 -0.2909
 2276poe     o210028   1.016   3.758   6.952 -0.2472 -0.0086 -0.0205
 2276poe    c2310029   0.951   3.881   6.975 -0.1430 -0.0043  0.2581
 2276poe    c2310030   1.035   3.967   7.071  0.2409 -0.4292  0.3044
 2276poe     o210031   1.147   4.034   7.015 -0.4428  0.3031 -0.2093
 2276poe    c3110032   1.190   4.144   7.093  0.1283  0.0860 -0.2148
 2277poe    c3110033   2.822   2.465   6.281  0.6674  0.4803  0.2118
 2277poe     o210034   2.932   2.511   6.207  0.2961  0.5213 -0.3194
 2277poe    c2310035   2.952   2.439   6.088  0.1528  0.2627 -0.1886
 2277poe    c2310036   3.077   2.486   6.011  0.7105 -0.1898  0.4301
 2277poe     o210037   3.076   2.619   5.964 -0.0225 -0.2272  0.3349
 2277poe    c2310038   3.086   2.626   5.824 -0.9469 -0.2184  0.2626
 2277poe    c2310039   3.018   2.757   5.778 -0.0587  0.0829 -0.2196
 2277poe     o210040   3.073   2.849   5.869  0.0122 -0.1590 -0.0165
 2277poe    c2310041   3.030   2.977   5.829 -0.7819 -0.2161  0.6230
 2277poe    c2310042   3.089   3.086   5.920 -0.2441 -0.0977  0.1422
 2277poe     o210043   3.030   3.074   6.048  0.0447 -0.2926  0.2564
 2277poe    c3110044   3.060   3.186   6.129  0.1195  0.2026 -0.4425
 2278poe    c3110045   4.713   0.755   0.457  0.1523 -0.2740 -0.8328
 2278poe     o210046   4.639   0.862   0.512  0.4904 -0.3845 -0.1523
 2278poe    c2310047   4.704   0.913   0.626 -0.3915  0.3500  0.0303
 2278poe    c2310048   4.635   1.034   0.692  0.0670  0.6031  0.0491
 2278poe     o210049   4.497   1.008   0.707  0.1906 -0.0116  0.1375
 2278poe    c2310050   4.430   1.107   0.781  0.7312 -0.2256  0.9376
 2278poe    c2310051   4.276   1.115   0.769  0.8417  0.4606 -0.2197
 2278poe     o210052   4.229   1.169   0.648 -0.3242 -0.2684 -0.1092
 2278poe    c2310053   4.220   1.310   0.643  0.0287 -0.2597 -0.5745
 2278poe    c2310054   4.197   1.374   0.505 -0.5025  0.1688 -0.2928
 2278poe     o210055   4.119   1.492   0.501 -0.2087  0.3921  0.4451
 2278poe    c3110056   4.169   1.562   0.389  0.5811  0.7240  0.9903
 2279poe    c3110057   5.270   0.695   6.563  0.0336 -0.1544 -0.2889
 2279poe     o210058   5.175   0.706   6.459 -0.0512  0.4999 -0.1495
 2279poe    c2310059   5.079   0.602   6.451  0.0685  0.2995  0.8674
 2279poe    c2310060   4.939   0.642   6.401  0.3719  0.4139  0.1045
 2279poe     o210061   4.875   0.742   6.476 -0.4874 -0.0038 -0.0567
 2279poe    c2310062   4.851   0.721   6.613 -0.4402 -0.0859 -0.0608
 2279poe    c2310063   4.771   0.836   6.677 -0.0814 -0.0816  0.3880
 2279poe     o210064   4.836   0.960   6.662 -0.1310 -0.1296 -0.2488
 2279poe    c2310065   4.908   0.999   6.777 -0.6030  0.5209 -0.1706
 2279poe    c2310066   4.956   1.145   6.774  0.0929  0.2970 -0.1856
 2279poe     o210067   4.845   1.223   6.733  0.1795  0.4742 -0.0852
 2279poe    c3110068   4.886   1.353   6.698  0.6454  0.4356  0.3071
 2280poe    c3110069   4.004   2.685   2.406 -0.3042  0.1420  0.2336
 2280poe     o210070   3.903   2.636   2.491 -0.0684 -0.5247  0.1409
 2280poe    c2310071   3.954   2.566   2.603  0.3001 -0.3176  0.1032
 2280poe    c2310072   3.836   2.515   2.687  0.1344  0.2551  0.2231
 2280poe     o210073   3.781   2.395   2.638  0.4626  0.0472  0.3630
 2280poe    c2310074   3.698   2.337   2.736 -0.3455  0.3469 -0.1333
 2280poe    c2310075   3.722   2.185   2.737  0.2356  0.4318 -0.3848
 2280poe     o210076   3.706   2.151   2.601 -0.3231 -0.1232 -0.1881
 2280poe    c2310077   3.698   2.013   2.576 -0.2850 -0.1883  0.1488
 2280poe    c2310078   3.655   1.985   2.430  0.0502 -0.4726  0.1041
 2280poe     o210079   3.714   2.083   2.348 -0.7007  0.3719  0.5546
 2280poe    c3110080   3.689   2.078   2.209  0.0858  0.5915  0.3996
 2281poe    c3110081   1.430   1.300   3.926 -0.3756  0.4621 -0.0460
 2281poe     o210082   1.355   1.223   4.018 -0.3823  0.3416 -0.1522
 2281poe    c2310083   1.447   1.176   4.114 -0.1566  0.6332 -0.2240
 2281poe    c2310084   1.371   1.104   4.228  0.2149  0.1135 -0.3024
 2281poe     o210085   1.345   0.969   4.198 -0.4315  0.1228  0.1917
 2281poe    c2310086   1.290   0.902   4.309 -0.1593 -0.5670 -0.0881
 2281poe    c2310087   1.249   0.755   4.287 -0.2658 -0.6170  0.4393
 2281poe     o210088   1.154   0.749   4.183 -0.2111 -0.3790  0.3767
 2281poe    c2310089   1.147   0.619   4.131 -0.5062 -0.5003  0.7215
 2281poe    c2310090   1.042   0.617   4.018 -0.5051  0.6844  0.6892
 2281poe     o210091   1.064   0.735   3.944  0.2983 -0.0153 -0.2054
 2281poe    c3110092   1.001   0.717   3.819  0.2440  0.1750 -0.2052
 2282poe    c3110093   4.608   7.163   7.010 -0.1271  0.2736 -0.3194
 2282poe     o210094   4.604   7.083   6.894 -0.2539  0.2741 -0.3153
 2282poe    c2310095   4.729   7.021   6.872 -0.4912 -0.3135 -0.0241
 2282poe    c2310096   4.765   7.028   6.722  0.3307 -0.9886  0.1352
 2282poe     o210097   4.647   6.985   6.658  0.1950 -0.5721  0.1077
 2282poe    c2310098   4.672   6.999   6.520 -0.2785  0.2056  0.0938
 2282poe    c2310099   4.563   6.944   6.427  0.0782  0.2203 -0.3332
 2282poe     o210100   4.434   6.999   6.439 -0.1498 -0.3522 -0.1179
 2282poe    c2310101   4.323   6.918   6.406 -0.0838 -0.4738 -0.0429
 2282poe    c2310102   4.286   6.887   6.259  0.3325  0.1944 -0.2984
 2282poe     o210103   4.358   6.786   6.192 -0.3240 -0.0985 -0.5708
 2282poe    c3110104   4.303   6.656   6.191 -0.0326 -0.2278  0.0991
 2283poe    c3110105   0.823   7.130   4.519  0.4291 -0.2589 -0.1954
 2283poe     o210106   0.720   7.225   4.537  0.5637 -0.1048 -0.2325
 2283poe    c2310107   0.777   7.344   4.586  0.5526 -0.4561  0.6662
 2283poe    c2310108   0.691   7.433   4.677 -0.0963 -0.2437 -0.1383
 2283poe     o210109   0.563   7.460   4.625  0.1480  0.0414 -0.5926
 2283poe    c2310110   0.492   7.545   4.712 -0.2201 -0.3241 -0.5343
 2283poe    c2310111   0.391   7.643   4.650  0.0094  0.1013 -0.2383
 2283poe     o210112   0.262   7.595   4.619 -0.1047  0.1005  0.2269
 2283poe    c2310113   0.177   7.553   4.723 -0.1258  0.2394  0.2669
 2283poe    c2310114   0.038   7.531   4.662 -0.0386  0.6031 -0.0670
 2283poe     o210115   0.018   7.427   4.569 -0.2367  0.3580  0.2461
 2283poe    c3110116  -0.110   7.437   4.510 -0.0755 -0.0192 -0.1741
 2284poe    c3110117   5.797   0.691   3.050 -0.5967  1.2515  0.1437
 2284poe     o210118   5.824   0.736   2.919  0.3779 -1.0336 -0.4965
 2284poe    c2310119   5.720   0.814   2.863  0.4412 -0.3822  0.2827
 2284poe    c2310120   5.739   0.793   2.712 -0.2201  1.0831 -0.0259
 2284poe     o210121   5.878   0.806   2.690 -0.2711  0.3472 -0.8466
 2284poe    c2310122   5.917   0.818   2.555  0.1508 -0.1496 -0.7747
 2284poe    c2310123   6.071   0.822   2.551  0.1570  0.8528  0.0107
 2284poe     o210124   6.128   0.724   2.635  0.2598  0.1893 -0.8211
 2284poe    c2310125   6.263   0.694   2.608  0.4405  0.6696 -0.4673
 2284poe    c2310126   6.324   0.661   2.746 -0.2008  0.1279 -0.3020
 2284poe     o210127   6.323   0.775   2.829  0.1938 -0.0781 -0.0111
 2284poe    c3110128   6.363   0.756   2.962 -0.4848  0.2182  0.2393
 2285poe    c3110129   6.346   2.110   0.561  0.2300  0.0638 -0.2675
 2285poe     o210130   6.296   2.096   0.430 -0.3978 -0.0683 -0.0177
 2285poe    c2310131   6.303   1.961   0.388  0.1082 -0.1791  0.4018
 2285poe    c2310132   6.339   1.956   0.239 -0.7973 -0.4191  0.1828
 2285poe     o210133   6.255   2.020   0.145 -0.3918  0.0975  0.1640
 2285poe    c2310134   6.325   2.035   0.024  0.1494  0.3924  0.5087
 2285poe    c2310135   6.226   2.081  -0.085  0.1082 -0.1000  0.3373
 2285poe     o210136   6.194   2.215  -0.057  0.6669  0.2373 -0.5942
 2285poe    c2310137   6.215   2.312  -0.157 -0.5767  0.3190 -0.8035
 2285poe    c2310138   6.215   2.455  -0.099 -0.1436  0.2828 -0.7033
 2285poe     o210139   6.137   2.463   0.018  0.4199  0.3385 -0.3314
 2285poe    c3110140   6.148   2.592   0.073  0.3037  0.0493  0.3934
 2286poe    c3110141   0.418   4.445   3.843  0.1889  0.3836 -0.6315
 2286poe     o210142   0.396   4.422   3.981 -0.1073 -1.1249 -0.9106
 2286poe    c2310143   0.271   4.357   3.992 -0.8165  0.2870 -0.4251
 2286poe    c2310144   0.218   4.375   4.136  0.6286  0.5080  0.0994
 2286poe     o210145   0.293   4.305   4.232 -0.0853 -0.2846  0.0988
 2286poe    c2310146   0.302   4.393   4.342 -0.3253  0.3085 -0.3549
 2286poe    c2310147   0.305   4.330   4.482  0.4952  0.6077 -0.2316
 2286poe     o210148   0.426   4.261   4.504  0.3132  0.4047  0.1550
 2286poe    c2310149   0.421   4.186   4.623 -0.5337 -0.3027 -0.3162
 2286poe    c2310150   0.537   4.085   4.625 -0.3565 -0.1003 -0.3286
 2286poe     o210151   0.517   3.990   4.727 -0.1282 -0.0175 -0.2066
 2286poe    c3110152   0.629   3.904   4.727  0.3441  0.5841  0.1760
 2287poe    c3110153   3.730   0.735   5.322 -0.0950  0.2420 -0.6263
 2287poe     o210154   3.639   0.745   5.429 -0.0779 -0.3785 -0.5540
 2287poe    c2310155   3.685   0.692   5.551  0.1762  0.0524 -0.4615
 2287poe    c2310156   3.569   0.683   5.653  0.1156  0.4294 -0.4941
 2287poe     o210157   3.517   0.806   5.696  0.0673  0.0759  0.4880
 2287poe    c2310158   3.389   0.786   5.752 -0.5091  0.2855 -0.7085
 2287poe    c2310159   3.328   0.926   5.773 -0.1607  0.4056 -0.4792
 2287poe     o210160   3.328   0.993   5.649 -0.4022  0.3016 -0.5359
 2287poe    c2310161   3.280   1.125   5.647 -0.1833  0.3886 -0.2497
 2287poe    c2310162   3.291   1.198   5.512 -0.3158 -0.1750 -0.5725
 2287poe     o210163   3.421   1.179   5.459 -0.4508 -0.8331 -0.6691
 2287poe    c3110164   3.474   1.297   5.404 -0.0412 -0.7826 -0.1705
 2288poe    c3110165   0.069   0.026   7.111 -0.5078 -0.6320  0.3136
 2288poe     o210166  -0.033   0.093   7.041  0.6829  0.3789 -0.4783
 2288poe    c2310167  -0.049   0.041   6.911  0.1840 -0.8060  0.0450
 2288poe    c2310168  -0.200   0.038   6.881  0.2581 -0.4255 -0.3878
 2288poe     o210169  -0.265   0.004   7.001 -0.0678  0.7560 -0.2257
 2288poe    c2310170  -0.404  -0.011   6.982 -0.0483  0.2458  0.0314
 2288poe    c2310171  -0.477  -0.002   7.117  0.1092 -0.3078  0.1575
 2288poe     o210172  -0.431   0.110   7.190  0.1700  0.2065 -0.6582
 2288poe    c2310173  -0.518   0.157   7.290  0.5715 -0.1601 -0.1329
 2288poe    c2310174  -0.496   0.305   7.325 -0.1693 -0.0840  0.0266
 2288poe     o210175  -0.372   0.303   7.391  0.0091 -0.4126 -0.3143
 2288poe    c3110176  -0.370   0.433   7.447  0.2225 -0.2370 -0.7260
 2289poe    c3110177   4.588   4.444   6.287 -0.0451  0.3491 -0.1127
 2289poe     o210178   4.470   4.429   6.212  0.2668 -0.0240 -0.5383
 2289poe    c2310179   4.422   4.557   6.176  0.3323  0.2135  0.1909
 2289poe    c2310180   4.274   4.538   6.135  0.4869 -0.4395 -0.0883
 2289poe     o210181   4.267   4.425   6.052 -0.1429  0.2328 -0.9788
 2289poe    c2310182   4.143   4.405   5.988 -0.4239 -0.3828 -0.2670
 2289poe    c2310183   4.057   4.312   6.075 -0.0114  0.1081  0.6806
 2289poe     o210184   4.109   4.182   6.076  0.5179  0.3086 -0.0885
 2289poe    c2310185   4.026   4.112   6.167  0.2526 -0.2501 -0.7541
 2289poe    c2310186   4.088   3.976   6.206  0.2478 -0.2623 -0.7889
 2289poe     o210187   4.226   3.968   6.234  0.1844 -0.1906 -0.4553
 2289poe    c3110188   4.267   3.834   6.252  0.2310 -0.1632 -0.3542
 2290poe    c3110189   4.864   1.059   4.088  0.0898 -0.1669 -0.2077
 2290poe     o210190   4.782   0.993   4.181  0.4694  0.2095  0.4029
 2290poe    c2310191   4.702   0.896   4.117  0.4869  0.5174 -0.0866
 2290poe    c2310192   4.624   0.812   4.221  0.5286  0.8177  0.1883
 2290poe     o210193   4.538   0.885   4.305 -0.2467 -0.4139  0.4731
 2290poe    c2310194   4.416   0.926   4.247  0.1862  0.3474  0.0861
 2290poe    c2310195   4.304   0.957   4.348 -0.0375  0.7024 -0.2670
 2290poe     o210196   4.231   0.838   4.368  0.1984  0.6754  0.4612
 2290poe    c2310197   4.108   0.848   4.301  0.3100 -0.1018  0.1325
 2290poe    c2310198   4.006   0.922   4.390  0.7551  0.0886  0.4844
 2290poe     o210199   3.951   0.870   4.510 -0.0914 -0.0351  0.0509
 2290poe    c3110200   3.848   0.948   4.566 -0.0777 -0.2998  0.4479
 2291poe    c3110201   6.133   6.691   6.851 -0.1710 -0.3949 -0.1066
 2291poe     o210202   6.041   6.623   6.933 -0.2476 -0.0886  0.0640
 2291poe    c2310203   5.928   6.700   6.966 -0.1123  0.1538 -0.0359
 2291poe    c2310204   5.819   6.628   7.049 -0.4680  0.4259 -0.2620
 2291poe     o210205   5.813   6.493   7.006  0.2437  0.2838  0.0750
 2291poe    c2310206   5.708   6.423   7.068  0.1674  0.0439 -0.3238
 2291poe    c2310207   5.756   6.281   7.102  0.0648  0.0395 -0.1949
 2291poe     o210208   5.809   6.229   6.981  0.3906 -0.0540 -0.0142
 2291poe    c2310209   5.805   6.088   6.983 -0.0686 -0.0491 -0.4656
 2291poe    c2310210   5.875   6.032   6.858  0.2439 -0.4568 -0.1077
 2291poe     o210211   6.015   6.018   6.841  0.2703  0.2855 -0.5579
 2291poe    c3110212   6.028   5.966   6.711  0.0036 -0.2672 -0.3660
 2292poe    c3110213   2.310   6.705   4.843 -0.3507 -0.1378 -0.2421
 2292poe     o210214   2.423   6.630   4.882  0.1360  0.5299 -0.3555
 2292poe    c2310215   2.401   6.555   4.999  1.1744  0.2352 -0.3413
 2292poe    c2310216   2.506   6.447   5.033  0.9538  0.1560  0.1000
 2292poe     o210217   2.524   6.347   4.936 -0.1466  0.0187  0.0287
 2292poe    c2310218   2.473   6.224   4.982 -0.2824  0.2235  0.4328
 2292poe    c2310219   2.530   6.106   4.901 -0.4656  0.3272  0.1505
 2292poe     o210220   2.458   6.102   4.780 -0.7613 -0.3756  0.3471
 2292poe    c2310221   2.518   6.023   4.679 -0.1574 -0.0814  0.4746
 2292poe    c2310222   2.458   6.065   4.543  0.6925 -0.2058  0.0552
 2292poe     o210223   2.513   6.191   4.513  0.1144  0.0727  0.1528
 2292poe    c3110224   2.465   6.245   4.392 -0.1165  0.0298  0.2254
 2293poe    c3110225   2.465   2.389   0.901  0.5621  0.4238  0.3206
 2293poe     o210226   2.568   2.313   0.842 -0.0472 -0.0423 -0.1470
 2293poe    c2310227   2.542   2.177   0.867  0.0028  0.0096  0.1867
 2293poe    c2310228   2.648   2.099   0.787 -0.0581 -0.1273  0.2383
 2293poe     o210229   2.784   2.137   0.797  0.0109 -0.3526  0.1586
 2293poe    c2310230   2.842   2.079   0.912  0.0501  0.0912  0.3656
 2293poe    c2310231   2.992   2.096   0.879  0.0777 -0.1017  0.3888
 2293poe     o210232   3.009   2.220   0.814  0.0050 -0.5044 -0.4128
 2293poe    c2310233   3.143   2.257   0.795 -0.0126 -0.3568 -0.2569
 2293poe    c2310234   3.127   2.379   0.702 -0.1248 -0.0841  0.1152
 2293poe     o210235   3.029   2.359   0.602 -0.4858  0.1013  0.4337
 2293poe    c3110236   3.058   2.454   0.502  0.5406  0.1924  0.8016
 2294poe    c3110237   2.889   5.550   2.035 -0.0545 -0.0665  0.2950
 2294poe     o210238   2.903   5.484   2.159  0.2282  0.4120  0.5208
 2294poe    c2310239   2.818   5.372   2.167  0.0873  0.4882  0.1032
 2294poe    c2310240   2.812   5.336   2.317  0.2084  0.0883  0.0131
 2294poe     o210241   2.706   5.404   2.379  0.3000  0.3934 -0.1623
 2294poe    c2310242   2.615   5.327   2.454  0.6188 -0.1953 -0.3761
 2294poe    c2310243   2.657   5.226   2.562  0.3892 -0.1779 -0.2708
 2294poe     o210244   2.725   5.110   2.521 -0.2123 -0.4235 -0.5889
 2294poe    c2310245   2.635   5.004   2.497 -0.2034 -0.4459 -0.5230
 2294poe    c2310246   2.702   4.871   2.458 -0.3965 -0.6957 -0.0067
 2294poe     o210247   2.784   4.835   2.567  0.4539  0.2914 -0.3062
 2294poe    c3110248   2.902   4.787   2.506  0.4480 -0.4765  0.2687
 2295poe    c3110249   4.814   4.134   4.493 -0.3173 -0.3836  0.1158
 2295poe     o210250   4.923   4.223   4.478 -0.1826 -0.3866  1.0524
 2295poe    c2310251   5.019   4.161   4.397 -0.4562  0.5952 -0.0624
 2295poe    c2310252   5.158   4.211   4.442  0.0487 -0.3787 -0.4908
 2295poe     o210253   5.211   4.158   4.561 -0.2935  0.3899  0.0151
 2295poe    c2310254   5.142   4.190   4.680  0.3145 -0.4062  0.5928
 2295poe    c2310255   5.208   4.261   4.799  0.5820 -0.4180  0.4538
 2295poe     o210256   5.286   4.364   4.742  0.7672 -0.6000  0.3813
 2295poe    c2310257   5.354   4.437   4.841  0.1617 -0.3448  0.6129
 2295poe    c2310258   5.454   4.533   4.772  0.0799 -0.5951  0.1456
 2295poe     o210259   5.572   4.473   4.725  0.4106 -0.0543  0.2812
 2295poe    c3110260   5.645   4.567   4.648  0.9706 -0.3939  0.3849
 2296poe    c3110261   3.295   6.541   4.708 -0.3848 -0.5002  0.4491
 2296poe     o210262   3.274   6.663   4.640  0.5768 -0.5402  0.0618
 2296poe    c2310263   3.351   6.674   4.522  0.3341 -0.0439 -0.0541
 2296poe    c2310264   3.256   6.770   4.449 -0.8175 -0.4925  0.8301
 2296poe     o210265   3.226   6.880   4.533 -0.2089  0.1031  0.2743
 2296poe    c2310266   3.249   7.009   4.481 -0.1031 -0.0883 -0.1613
 2296poe    c2310267   3.398   7.042   4.462 -0.1464  0.2500  0.0781
 2296poe     o210268   3.463   7.023   4.585  0.3848  0.3979 -0.1739
 2296poe    c2310269   3.602   7.042   4.596  0.4821 -0.5596  0.3772
 2296poe    c2310270   3.630   7.094   4.738 -0.5936  0.2308  0.3087
 2296poe     o210271   3.539   7.031   4.825 -0.6502 -0.3193 -0.1492
 2296poe    c3110272   3.597   7.055   4.951 -0.0837  0.5945 -0.5774
 2297poe    c3110273   1.279   2.452   3.459 -0.2228  0.4026 -0.1070
 2297poe     o210274   1.334   2.380   3.351  0.3797 -0.3933  0.7147
 2297poe    c2310275   1.279   2.251   3.340  0.2318 -0.2799  0.0925
 2297poe    c2310276   1.372   2.180   3.239  0.0664  0.4886 -0.6117
 2297poe     o210277   1.412   2.253   3.125 -0.4909  0.9010 -0.5483
 2297poe    c2310278   1.460   2.170   3.022 -0.2223  0.4070 -0.0354
 2297poe    c2310279   1.457   2.256   2.894  0.3125  0.2631 -0.1443
 2297poe     o210280   1.554   2.357   2.912  0.4701  0.0650  0.1356
 2297poe    c2310281   1.545   2.461   2.817  0.3262  0.1488  0.2419
 2297poe    c2310282   1.657   2.565   2.834 -0.6214  1.2714 -0.2378
 2297poe     o210283   1.665   2.623   2.962 -0.5269 -0.1075  0.3945
 2297poe    c3110284   1.767   2.721   2.955 -0.3639 -0.3000  0.0550
 2298poe    c3110285   1.803   5.070   2.367 -0.1527  0.2063  0.2164
 2298poe     o210286   1.852   4.991   2.473 -0.1421 -0.2418 -0.1214
 2298poe    c2310287   1.763   4.888   2.507 -0.3130 -0.1882 -0.3998
 2298poe    c2310288   1.710   4.876   2.651 -0.3316  0.0702 -0.3851
 2298poe     o210289   1.623   4.982   2.686  0.0966  0.3652 -0.2014
 2298poe    c2310290   1.577   4.970   2.818  0.1569  0.2063 -0.1934
 2298poe    c2310291   1.457   5.060   2.855 -0.0686 -0.1380 -0.0857
 2298poe     o210292   1.339   5.019   2.790 -0.0748  0.3306 -0.3742
 2298poe    c2310293   1.219   5.082   2.831 -0.2251 -0.3332  0.2381
 2298poe    c2310294   1.096   5.021   2.761  0.0547  0.1087 -0.6642
 2298poe     o210295   1.066   4.883   2.764  0.3577  0.0505 -0.2100
 2298poe    c3110296   1.155   4.807   2.685 -0.3586 -0.8076 -0.2061
 2299poe    c3110297   7.026   3.428   3.903  0.0469 -0.2875 -0.2205
 2299poe     o210298   7.146   3.354   3.912 -0.2134 -0.7139 -0.2284
 2299poe    c2310299   7.126   3.237   3.989 -0.6554 -0.6480 -0.2372
 2299poe    c2310300   7.257   3.166   4.027 -0.0473  0.5792  0.0032
 2299poe     o210301   7.337   3.108   3.927 -0.0532  0.3949  0.1041
 2299poe    c2310302   7.442   3.034   3.984 -0.1543 -0.1974 -0.4669
 2299poe    c2310303   7.530   2.961   3.881 -0.0405 -0.7482  0.0163
 2299poe     o210304   7.653   2.907   3.925  0.1814 -0.3112 -0.0662
 2299poe    c2310305   7.734   3.011   3.977 -0.1959 -0.2794  0.4628
 2299poe    c2310306   7.852   3.057   3.890 -0.5491  0.6458  0.4647
 2299poe     o210307   7.805   3.119   3.772 -0.2481 -0.2471 -0.1403
 2299poe    c3110308   7.883   3.235   3.751 -0.1679 -0.2894 -0.0767
 2300poe    c3110309   4.024   5.805   3.986 -0.0471  0.4606 -0.1362
 2300poe     o210310   3.979   5.828   4.118 -0.6293  0.4032 -0.3228
 2300poe    c2310311   3.878   5.741   4.162 -0.5162  0.4863  0.1041
 2300poe    c2310312   3.818   5.794   4.294 -0.1443  0.0319  0.4577
 2300poe     o210313   3.915   5.821   4.393  0.0478  0.5640  0.1275
 2300poe    c2310314   3.876   5.932   4.469  0.0930  0.5122  0.2258
 2300poe    c2310315   3.971   5.973   4.583  0.1104  0.0315  0.3886
 2300poe     o210316   4.093   6.014   4.526 -0.0604 -0.0917 -0.0699
 2300poe    c2310317   4.186   6.065   4.619 -0.3789 -0.3127  0.3721
 2300poe    c2310318   4.319   6.094   4.546 -0.8879  0.0918 -0.4078
 2300poe     o210319   4.350   6.002   4.445  0.5584  0.1143 -0.0063
 2300poe    c3110320   4.467   6.039   4.376  0.5297  0.0128 -0.1105
 2301poe    c3110321   0.928   1.463   2.174 -0.2736  0.3946 -1.6653
 2301poe     o210322   0.835   1.561   2.216  0.5575  0.4058  0.2363
 2301poe    c2310323   0.768   1.537   2.338  0.0714  0.9220  0.0718
 2301poe    c2310324   0.661   1.646   2.355 -0.8572  0.0675 -0.2001
 2301poe     o210325   0.728   1.766   2.386 -0.2044  0.0201 -1.4031
 2301poe    c2310326   0.631   1.865   2.409  0.3360  0.2469  0.0338
 2301poe    c2310327   0.689   2.008   2.404 -0.8578  0.7500  0.0508
 2301poe     o210328   0.769   2.013   2.288 -0.4086  0.2594  0.3320
 2301poe    c2310329   0.800   2.150   2.277  0.3203  0.1480  0.8998
 2301poe    c2310330   0.889   2.160   2.152 -0.5432  0.0017  0.2602
 2301poe     o210331   0.978   2.050   2.150 -0.3394  0.1706 -0.1072
 2301poe    c3110332   1.084   2.068   2.060 -0.0864 -0.0134  0.1509
 2302poe    c3110333   2.528   0.427   0.468  0.0065 -0.3283  0.2766
 2302poe     o210334   2.580   0.449   0.597  0.1604 -0.0121  0.1630
 2302poe    c2310335   2.688   0.361   0.622  0.6656  0.4963 -0.1815
 2302poe    c2310336   2.715   0.371   0.774  0.2378  0.2825 -0.0877
 2302poe     o210337   2.780   0.491   0.807  0.2999  0.1400  0.3077
 2302poe    c2310338   2.809   0.508   0.944  0.2328 -0.0921  0.3511
 2302poe    c2310339   2.722   0.621   1.003 -0.2004 -0.1336 -0.2004
 2302poe     o210340   2.584   0.593   1.009 -0.3208  0.3461 -0.6293
 2302poe    c2310341   2.536   0.706   1.078 -0.3209  0.0656 -0.1617
 2302poe    c2310342   2.403   0.680   1.150 -0.1812  0.1493  0.1298
 2302poe     o210343   2.307   0.686   1.046 -0.2055 -0.3860  0.1191
 2302poe    c3110344   2.180   0.716   1.099 -0.3657 -0.1961 -0.3756
 2303poe    c3110345   6.108   5.157   2.388  0.1423  0.6175 -0.8125
 2303poe     o210346   6.181   5.039   2.364 -0.3033  0.2157 -0.2053
 2303poe    c2310347   6.139   4.942   2.458  0.3593  0.4886  0.3866
 2303poe    c2310348   6.227   4.815   2.454  0.1433  0.3527 -0.3122
 2303poe     o210349   6.210   4.730   2.343 -0.0566 -0.7549  0.5471
 2303poe    c2310350   6.087   4.661   2.345 -0.4790 -0.0506 -0.3479
 2303poe    c2310351   6.088   4.553   2.235  0.0085 -0.3488 -0.0553
 2303poe     o210352   6.080   4.625   2.113 -0.0664  0.1130  0.2195
 2303poe    c2310353   6.049   4.528   2.016 -0.2565  0.5432 -0.1490
 2303poe    c2310354   6.051   4.602   1.881  0.1148 -0.3263 -0.6293
 2303poe     o210355   6.180   4.649   1.850 -0.0975  0.2960 -0.5949
 2303poe    c3110356   6.189   4.739   1.741 -0.1342 -0.2588 -1.0632
 2304poe    c3110357   0.221   1.805   4.930 -0.4517  0.5531  0.1448
 2304poe     o210358   0.332   1.891   4.942  0.0126 -0.0719  0.3254
 2304poe    c2310359   0.353   1.922   5.078  0.0189 -0.0746  0.3250
 2304poe    c2310360   0.479   2.006   5.109 -0.6164  0.9239  0.2499
 2304poe     o210361   0.495   2.112   5.017 -0.1242  0.5031 -0.1520
 2304poe    c2310362   0.554   2.220   5.085  0.1889  0.3109 -0.1130
 2304poe    c2310363   0.642   2.301   4.988  0.3257  0.5805  0.2330
 2304poe     o210364   0.741   2.214   4.937  0.0947  0.2626  0.3262
 2304poe    c2310365   0.837   2.279   4.857  0.4465 -0.2734  0.3067
 2304poe    c2310366   0.961   2.206   4.802  0.4249 -0.1186  0.0486
 2304poe     o210367   0.934   2.088   4.731  0.2702  0.0108 -0.1064
 2304poe    c3110368   0.942   1.981   4.822 -0.6631 -0.0910 -0.1332
 2305poe    c3110369   4.360   3.480   3.362 -0.6716  0.4410  0.0566
 2305poe     o210370   4.389   3.371   3.446 -0.2706  0.6176  0.1488
 2305poe    c2310371   4.528   3.376   3.470 -0.2111  0.0696 -0.0706
 2305poe    c2310372   4.598   3.241   3.499 -0.2061  0.0750 -0.0565
 2305poe     o210373   4.572   3.182   3.624  0.2728  0.7526  0.3689
 2305poe    c2310374   4.637   3.058   3.639 -0.3568  0.3893  0.1338
 2305poe    c2310375   4.579   2.995   3.767  0.3671 -0.4329  0.0697
 2305poe     o210376   4.613   3.073   3.879  0.3401 -0.1548 -0.1149
 2305poe    c2310377   4.584   3.033   4.011 -0.0331 -0.6225 -0.3386
 2305poe    c2310378   4.653   3.129   4.109 -0.3608 -0.4098 -0.3135
 2305poe     o210379   4.582   3.251   4.102  0.4017  0.0206 -0.7813
 2305poe    c3110380   4.644   3.358   4.169 -0.6134  0.0181  0.2012
 2306poe    c3110381   1.809   6.301   0.312 -0.2488  0.0237  0.3564
 2306poe     o210382   1.786   6.419   0.386 -0.6001  0.4000 -0.3449
 2306poe    c2310383   1.658   6.439   0.440 -0.5057 -0.3231  0.1646
 2306poe    c2310384   1.656   6.551   0.545  0.2733 -0.2997  0.1559
 2306poe     o210385   1.712   6.668   0.490  0.4121 -0.3821  0.1219
 2306poe    c2310386   1.683   6.782   0.568 -0.0690 -0.3030 -0.1694
 2306poe    c2310387   1.730   6.909   0.495 -0.0651 -0.0601  0.2546
 2306poe     o210388   1.863   6.885   0.452  0.0275  0.1410  0.4245
 2306poe    c2310389   1.911   6.984   0.364  0.5473 -0.3837  0.1170
 2306poe    c2310390   2.042   6.954   0.288  0.2288 -0.5065 -0.3884
 2306poe     o210391   2.024   6.817   0.257  0.3829 -0.6325  0.0671
 2306poe    c3110392   2.143   6.762   0.206  0.3332 -0.2520 -0.4774
 2307poe    c3110393   4.703   4.440   0.488  0.3969  0.3591  0.1716
 2307poe     o210394   4.680   4.380   0.363 -0.3598  0.5904  0.1943
 2307poe    c2310395   4.563   4.302   0.365  0.1682 -0.2452 -0.6510
 2307poe    c2310396   4.540   4.241   0.226  0.3314  0.0662 -0.8158
 2307poe     o210397   4.549   4.350   0.137 -0.3130  0.6552 -0.1728
 2307poe    c2310398   4.539   4.312   0.002 -1.2466 -0.1876  0.1198
 2307poe    c2310399   4.536   4.431  -0.096 -0.1197  0.0243  0.3302
 2307poe     o210400   4.644   4.514  -0.061 -0.3025  0.1790  0.5337
 2307poe    c2310401   4.648   4.630  -0.142 -0.1948  0.0377  0.3342
 2307poe    c2310402   4.756   4.726  -0.089  0.1798 -0.5404  0.6173
 2307poe     o210403   4.719   4.800   0.025 -0.0398 -0.6376  0.6096
 2307poe    c3110404   4.821   4.891   0.060  0.4875 -1.1668  0.4670
 2308poe    c3110405   2.709   1.913   1.759  0.1699  1.0087 -0.4309
 2308poe     o210406   2.649   1.867   1.639 -0.5830  0.3076  0.2006
 2308poe    c2310407   2.642   1.727   1.646  0.4897  0.2513  0.2890
 2308poe    c2310408   2.602   1.694   1.501 -0.4558 -0.7106  0.7533
 2308poe     o210409   2.499   1.783   1.466  0.1911 -0.3229 -0.1967
 2308poe    c2310410   2.446   1.753   1.339 -0.5819 -0.2872  0.1165
 2308poe    c2310411   2.333   1.854   1.309 -0.1098  0.1322 -0.2793
 2308poe     o210412   2.390   1.982   1.305  0.2032  0.0024  0.0245
 2308poe    c2310413   2.304   2.091   1.282  0.5225  0.3062  0.2449
 2308poe    c2310414   2.249   2.113   1.140  0.9665 -0.7436 -0.0980
 2308poe     o210415   2.144   2.031   1.092  0.5974 -0.1589 -0.3046
 2308poe    c3110416   2.115   2.086   0.965  0.3754  0.0282 -0.1714
 2309poe    c3110417   5.927   5.025   0.878 -0.0793 -0.4939 -0.1055
 2309poe     o210418   6.057   5.069   0.849 -0.1649 -0.0395  0.1906
 2309poe    c2310419   6.095   4.995   0.735 -0.1206  0.2005  0.0486
 2309poe    c2310420   6.191   5.056   0.631  0.1610  0.4264  0.4342
 2309poe     o210421   6.330   5.052   0.654  0.1460 -0.0186  0.4601
 2309poe    c2310422   6.405   5.046   0.535 -0.2326 -0.0948  0.2244
 2309poe    c2310423   6.556   5.030   0.557 -0.1285 -0.0708 -0.4560
 2309poe     o210424   6.589   5.152   0.620  0.2129 -0.3855 -0.0249
 2309poe    c2310425   6.710   5.138   0.692  0.3566  0.2498 -0.1398
 2309poe    c2310426   6.771   5.275   0.725  0.4995  0.1312  0.0862
 2309poe     o210427   6.679   5.357   0.794  0.7467 -0.0697  0.6595
 2309poe    c3110428   6.746   5.463   0.858 -0.3510  1.0266  0.0247
 2310poe    c3110429   7.193   1.476   3.286  0.1592 -0.6775  0.5553
 2310poe     o210430   7.075   1.457   3.211  0.4045 -0.0925  0.0191
 2310poe    c2310431   7.014   1.584   3.200  0.4024 -0.0906  0.0516
 2310poe    c2310432   6.931   1.572   3.070  0.0005 -0.4159  0.3347
 2310poe     o210433   6.847   1.459   3.076  0.0593 -0.5071 -0.4704
 2310poe    c2310434   6.785   1.429   2.953 -0.1183 -0.3977 -0.4088
 2310poe    c2310435   6.697   1.302   2.958 -0.2365 -0.2833  1.1783
 2310poe     o210436   6.792   1.199   2.970  0.2039 -0.1020 -0.4501
 2310poe    c2310437   6.728   1.080   2.931  0.1917 -0.3245  0.2301
 2310poe    c2310438   6.808   1.019   2.815 -0.1333 -0.1553 -0.0886
 2310poe     o210439   6.799   1.112   2.710 -0.3288  0.2240  0.2646
 2310poe    c3110440   6.907   1.088   2.623 -0.3717  0.5950  0.1046
 2311poe    c3110441   6.005   1.638   2.571  0.6432  0.2060  0.0157
 2311poe     o210442   5.975   1.734   2.669 -0.4924 -0.0319 -0.0799
 2311poe    c2310443   6.081   1.828   2.679 -0.2359 -0.2700 -0.5340
 2311poe    c2310444   6.042   1.959   2.608  0.3154  0.3542  0.2948
 2311poe     o210445   5.925   2.021   2.655 -0.4243 -0.4505 -0.4279
 2311poe    c2310446   5.896   2.128   2.567 -0.1985 -0.1237 -0.1092
 2311poe    c2310447   5.781   2.209   2.630  0.0244  0.1800 -0.0926
 2311poe     o210448   5.688   2.114   2.677  0.3705 -0.0847  0.0643
 2311poe    c2310449   5.558   2.164   2.698  0.1106 -0.6177 -0.2676
 2311poe    c2310450   5.485   2.061   2.787 -0.0484  0.2844  0.6599
 2311poe     o210451   5.580   2.036   2.888  0.4201  0.0510  0.1600
 2311poe    c3110452   5.521   1.998   3.010  0.3892  0.3636  0.2443
 2312poe    c3110453   4.864   2.608   6.916 -0.5835 -0.4495 -0.0779
 2312poe     o210454   4.902   2.495   6.992  0.8359 -0.3178 -0.5487
 2312poe    c2310455   4.940   2.523   7.125  0.3470 -0.8072 -0.2957
 2312poe    c2310456   4.965   2.407   7.222  0.0066 -0.6261  0.0115
 2312poe     o210457   4.851   2.328   7.247 -0.4126  0.0364  0.2040
 2312poe    c2310458   4.849   2.239   7.357  0.1236 -0.2545 -0.0188
 2312poe    c2310459   4.702   2.194   7.360  0.1825 -0.4038  0.5406
 2312poe     o210460   4.676   2.107   7.252  0.2187  0.1728  0.0631
 2312poe    c2310461   4.747   1.987   7.231 -0.3028 -0.1464  0.1013
 2312poe    c2310462   4.710   1.924   7.095 -0.2796 -0.0223  0.0376
 2312poe     o210463   4.714   2.016   6.988 -0.3764  0.2634  0.2788
 2312poe    c3110464   4.660   1.957   6.872 -0.2659  0.1768  0.2705
 2313poe    c3110465   4.981   5.292   4.319  0.4892  0.4597  0.4552
 2313poe     o210466   4.868   5.357   4.267  0.0364 -0.3103  0.4766
 2313poe    c2310467   4.904   5.478   4.206  0.3867 -0.4411  0.4218
 2313poe    c2310468   4.772   5.541   4.157  0.5795 -0.2354  0.1594
 2313poe     o210469   4.708   5.456   4.065 -0.4240  0.1368  0.4980
 2313poe    c2310470   4.601   5.524   4.002 -0.5173 -0.3029  0.1708
 2313poe    c2310471   4.539   5.446   3.885 -1.0876  0.2920  0.0727
 2313poe     o210472   4.517   5.310   3.913  0.2615  0.0106 -0.1390
 2313poe    c2310473   4.470   5.237   3.802 -0.9970  0.1617  0.2727
 2313poe    c2310474   4.482   5.087   3.835 -0.4806  0.0934 -0.1977
 2313poe     o210475   4.466   5.078   3.975  0.8865  0.1245 -0.0229
 2313poe    c3110476   4.457   4.953   4.040 -0.2087  0.0050 -0.3890
 2314poe    c3110477   4.526   6.440   3.448  0.0102 -0.5785  0.6389
 2314poe     o210478   4.659   6.409   3.414 -0.0353  0.0052 -0.0767
 2314poe    c2310479   4.668   6.279   3.362  0.0920 -0.0667  0.1273
 2314poe    c2310480   4.812   6.250   3.317  0.1417 -0.0199  0.2565
 2314poe     o210481   4.899   6.283   3.423  0.0033  0.0586  0.3455
 2314poe    c2310482   5.029   6.250   3.381 -0.2533 -0.2848 -0.1878
 2314poe    c2310483   5.111   6.256   3.511 -0.0359 -0.6237 -0.3064
 2314poe     o210484   5.096   6.385   3.566  0.3199 -0.6182 -0.2187
 2314poe    c2310485   5.124   6.386   3.704 -0.4233 -0.5613 -0.0620
 2314poe    c2310486   5.056   6.496   3.786  0.1493 -0.1045 -0.1977
 2314poe     o210487   4.917   6.487   3.769  0.1797  0.0463 -0.5324
 2314poe    c3110488   4.842   6.553   3.869  0.1030 -0.3485 -0.3266
 2315poe    c3110489   6.220   3.928   6.177 -0.1780 -0.0372 -0.1365
 2315poe     o210490   6.246   3.882   6.046  0.4463 -0.3320  0.0846
 2315poe    c2310491   6.287   3.994   5.971 -0.3359  0.0470  0.2041
 2315poe    c2310492   6.286   3.977   5.818 -0.1994 -0.1887  0.2295
 2315poe     o210493   6.164   3.947   5.755 -0.3462 -0.3363  0.5833
 2315poe    c2310494   6.189   3.963   5.618  0.0400 -0.6300  0.6196
 2315poe    c2310495   6.076   3.982   5.515 -0.0543 -0.9108  0.6725
 2315poe     o210496   5.979   4.060   5.582 -0.1559  0.1266 -0.6489
 2315poe    c2310497   5.852   4.041   5.523 -0.3547  0.0930 -0.2138
 2315poe    c2310498   5.772   3.929   5.593  0.7693 -0.6758 -0.1274
 2315poe     o210499   5.749   3.937   5.732  0.0462 -0.2129 -0.2693
 2315poe    c3110500   5.644   3.849   5.766 -0.2787  0.3835  0.2830
 2316poe    c3110501   2.641   2.863   3.186 -0.2252  0.7092 -0.4479
 2316poe     o210502   2.566   2.745   3.175  0.4678  0.1642  0.5175
 2316poe    c2310503   2.605   2.643   3.265 -0.1205 -0.1768  0.3978
 2316poe    c2310504   2.540   2.510   3.222 -0.7059  0.3777 -0.4700
 2316poe     o210505   2.540   2.508   3.081 -0.7141  0.3303 -0.4692
 2316poe    c2310506   2.482   2.386   3.042 -0.7214 -0.0440  0.6676
 2316poe    c2310507   2.541   2.342   2.907 -0.8593  0.2702  0.5042
 2316poe     o210508   2.506   2.432   2.804 -0.5648 -0.1019  0.0703
 2316poe    c2310509   2.552   2.394   2.677 -0.2626  0.1950  0.0893
 2316poe    c2310510   2.698   2.436   2.651 -0.1765 -0.0297  0.2068
 2316poe     o210511   2.711   2.577   2.660 -0.5484  0.0385 -0.2650
 2316poe    c3110512   2.770   2.653   2.558  0.1055 -0.0123  0.0713
 2317poe    c3110513   3.702   2.397   1.518  0.3727  0.2683 -0.5433
 2317poe     o210514   3.619   2.430   1.409  0.9564 -0.2164 -1.1424
 2317poe    c2310515   3.503   2.357   1.441  0.3499  0.8434 -0.8803
 2317poe    c2310516   3.412   2.332   1.318 -0.4833  0.2257 -0.1519
 2317poe     o210517   3.378   2.457   1.263  0.0929  0.3444 -0.2513
 2317poe    c2310518   3.262   2.450   1.182 -0.0192 -0.3239 -0.0399
 2317poe    c2310519   3.240   2.576   1.096 -0.5233 -0.4676 -0.1201
 2317poe     o210520   3.320   2.577   0.980  0.0761 -0.1822  0.2910
 2317poe    c2310521   3.329   2.708   0.929 -0.1576 -0.2734  0.0108
 2317poe    c2310522   3.366   2.732   0.782 -0.6226  0.6922  0.0459
 2317poe     o210523   3.271   2.685   0.689  0.2088 -0.4604 -0.2408
 2317poe    c3110524   3.309   2.723   0.559 -0.1493 -0.1288 -0.2498
 2318poe    c3110525   6.138   2.843   6.812 -0.4249  0.1378  0.3342
 2318poe     o210526   6.270   2.811   6.849 -0.3646 -0.2802 -0.2276
 2318poe    c2310527   6.351   2.842   6.738  0.0154 -0.4170  0.0060
 2318poe    c2310528   6.490   2.782   6.764  0.3075  0.0110 -0.5488
 2318poe     o210529   6.535   2.825   6.890 -0.2791 -0.4881 -0.1636
 2318poe    c2310530   6.656   2.754   6.902  0.0364  0.0822  0.0782
 2318poe    c2310531   6.671   2.683   7.038  0.2781 -0.2666 -0.1298
 2318poe     o210532   6.629   2.771   7.141 -0.4793 -0.9792  0.1813
 2318poe    c2310533   6.642   2.719   7.271 -0.2797 -0.7464  0.2564
 2318poe    c2310534   6.585   2.816   7.376  0.3450 -0.3769  0.2572
 2318poe     o210535   6.457   2.841   7.322  0.5844  0.0627 -0.1075
 2318poe    c3110536   6.393   2.935   7.406  0.6885 -0.1769  0.2448
 2319poe    c3110537   5.465   1.156   0.979  0.3685 -0.1984 -0.1608
 2319poe     o210538   5.375   1.155   1.087 -0.3097  0.0424 -0.7239
 2319poe    c2310539   5.328   1.285   1.114  0.0533 -0.0441  0.3598
 2319poe    c2310540   5.230   1.302   1.232 -0.0888 -0.3706  0.2885
 2319poe     o210541   5.124   1.211   1.212 -0.4501  0.2144 -0.5044
 2319poe    c2310542   5.036   1.224   1.321  0.6222 -0.6383  0.4818
 2319poe    c2310543   4.908   1.153   1.273  0.4761  0.2582 -0.4880
 2319poe     o210544   4.914   1.017   1.236  0.0146  0.1343 -0.1177
 2319poe    c2310545   4.850   1.008   1.110 -0.2684  0.3031  0.0119
 2319poe    c2310546   4.823   0.861   1.072 -0.3231  0.1224  0.7330
 2319poe     o210547   4.947   0.800   1.043 -0.3527  0.4335 -0.0564
 2319poe    c3110548   4.929   0.665   1.006  0.4530  0.1225  0.6566
 2320poe    c3110549   2.347   6.163   2.167 -0.2599  0.1310  0.5580
 2320poe     o210550   2.287   6.056   2.097  0.1091  0.3107 -0.0434
 2320poe    c2310551   2.352   5.933   2.123 -0.0313  0.2283 -0.0827
 2320poe    c2310552   2.278   5.841   2.221  0.0089  0.2673 -0.0156
 2320poe     o210553   2.153   5.794   2.176  0.1979 -0.2898  0.0351
 2320poe    c2310554   2.040   5.809   2.259 -0.1452 -0.1412 -0.4570
 2320poe    c2310555   1.927   5.715   2.214 -0.0168 -0.4485 -0.1373
 2320poe     o210556   1.897   5.719   2.076  0.1553 -0.1315 -0.1659
 2320poe    c2310557   1.855   5.593   2.029 -0.0945 -0.1961  0.2241
 2320poe    c2310558   1.852   5.581   1.875 -0.1312  0.5056  0.1669
 2320poe     o210559   1.758   5.663   1.809 -0.7898 -0.3084  0.0758
 2320poe    c3110560   1.714   5.603   1.689  0.2938  0.2849 -0.6350
 2321poe    c3110561   0.971   6.867   5.163 -0.9061  0.0340  0.1033
 2321poe     o210562   0.975   6.846   5.024  0.4522  0.0085  0.1349
 2321poe    c2310563   1.104   6.864   4.970  0.4661 -0.3379  0.0501
 2321poe    c2310564   1.120   6.838   4.819 -0.5614  0.1805 -0.1521
 2321poe     o210565   1.065   6.709   4.800 -0.0307 -0.0622 -0.0604
 2321poe    c2310566   1.060   6.697   4.659 -0.3690 -0.3687 -0.0242
 2321poe    c2310567   1.144   6.577   4.610  0.3876  0.1951 -0.1179
 2321poe     o210568   1.284   6.577   4.628  0.3438 -0.1230  0.2336
 2321poe    c2310569   1.346   6.451   4.623  0.2278 -0.1747  0.1259
 2321poe    c2310570   1.490   6.477   4.575  0.3070 -0.0606  0.4269
 2321poe     o210571   1.556   6.352   4.584 -0.2878 -0.4614 -0.6431
 2321poe    c3110572   1.675   6.342   4.509 -0.0120 -0.4258 -0.2126
 2322poe    c3110573   4.345   4.079   4.473  0.5127  0.1747  0.5838
 2322poe     o210574   4.367   4.200   4.542  0.1388  0.2825  0.5120
 2322poe    c2310575   4.499   4.245   4.527  0.1204  0.0437 -0.4145
 2322poe    c2310576   4.535   4.374   4.603  0.2537 -0.3255  0.1584
 2322poe     o210577   4.445   4.369   4.712  0.4886 -0.2437  0.3551
 2322poe    c2310578   4.444   4.493   4.779 -0.3814  0.0967 -0.2743
 2322poe    c2310579   4.365   4.472   4.909 -0.2086  0.3145 -0.1324
 2322poe     o210580   4.233   4.430   4.881 -0.1125 -0.4321  0.4872
 2322poe    c2310581   4.143   4.475   4.979 -0.0705 -0.1551  0.3998
 2322poe    c2310582   4.029   4.373   4.956  0.2204 -0.5314  0.6105
 2322poe     o210583   3.997   4.368   4.819 -0.1794 -0.2426  0.6912
 2322poe    c3110584   3.858   4.365   4.795 -0.0031  0.3294 -0.4397
 2323poe    c3110585   1.059   6.930   1.657 -0.3239 -0.5837 -0.0784
 2323poe     o210586   0.979   6.939   1.772 -0.2973  0.7098 -0.1473
 2323poe    c2310587   0.874   7.020   1.726 -0.7972  0.0023 -0.2704
 2323poe    c2310588   0.772   7.027   1.842 -0.4328 -0.0218  0.0519
 2323poe     o210589   0.723   6.897   1.865 -0.2912 -0.0956 -0.0541
 2323poe    c2310590   0.659   6.902   1.991 -0.0785  0.2871  0.0394
 2323poe    c2310591   0.634   6.755   2.026  0.4624  0.1535 -0.1183
 2323poe     o210592   0.718   6.660   1.965  0.2069  0.0343 -0.2876
 2323poe    c2310593   0.697   6.531   2.018 -0.2212  0.4436  0.5560
 2323poe    c2310594   0.790   6.425   1.956 -0.3205  0.3844  0.5066
 2323poe     o210595   0.928   6.455   1.957 -0.1768 -0.2118 -0.3073
 2323poe    c3110596   0.989   6.334   1.919  0.2211 -0.0008 -0.3376
 2324poe    c3110597   3.492   3.902   1.150 -0.2388 -0.9072 -0.1902
 2324poe     o210598   3.473   3.898   1.011  0.4917  0.5097 -0.3522
 2324poe    c2310599   3.584   3.956   0.946  0.7107  0.3158 -0.1510
 2324poe    c2310600   3.535   4.029   0.820  0.2781 -0.1511 -0.2611
 2324poe     o210601   3.478   3.943   0.724 -0.0282 -0.0646 -0.1552
 2324poe    c2310602   3.463   4.014   0.603  0.0191  0.1003 -0.0645
 2324poe    c2310603   3.366   3.945   0.506 -0.3690 -0.1098  0.4676
 2324poe     o210604   3.236   3.932   0.557 -0.5409  0.2569  0.1271
 2324poe    c2310605   3.151   3.919   0.445 -0.6898 -0.4803  0.3188
 2324poe    c2310606   3.003   3.917   0.489 -0.7182 -0.5997  0.2172
 2324poe     o210607   2.902   3.899   0.392 -0.3015  0.4364 -0.4288
 2324poe    c3110608   2.786   3.903   0.472  0.1648 -0.0172  0.2863
 2325poe    c3110609   3.967   1.378   3.560  0.1326 -0.1858  0.0635
 2325poe     o210610   4.016   1.447   3.448  0.3694  0.0086  0.2836
 2325poe    c2310611   3.969   1.580   3.444 -0.1839 -0.1914 -0.1937
 2325poe    c2310612   4.003   1.658   3.316  0.1720  0.0609  0.0506
 2325poe     o210613   4.143   1.661   3.295  0.1212 -0.5312 -0.3936
 2325poe    c2310614   4.178   1.796   3.274 -0.3708 -0.3418 -0.0319
 2325poe    c2310615   4.324   1.803   3.325 -0.4873 -0.3860  0.3099
 2325poe     o210616   4.395   1.692   3.274  0.0438  0.3339 -0.5618
 2325poe    c2310617   4.520   1.667   3.333 -0.1951 -0.0696 -0.2149
 2325poe    c2310618   4.576   1.550   3.250  0.3036  0.2856 -0.3920
 2325poe     o210619   4.467   1.468   3.213  0.1492  0.1440  0.3426
 2325poe    c3110620   4.530   1.349   3.169  0.4300  0.3999  0.0398
 2326poe    c3110621   3.310   5.471   5.407 -0.0914 -0.0906 -0.7346
 2326poe     o210622   3.416   5.427   5.325  0.0697 -1.0158 -0.0391
 2326poe    c2310623   3.374   5.346   5.217 -0.3053 -0.7577 -0.0890
 2326poe    c2310624   3.488   5.260   5.159 -0.2622 -0.6454 -0.1703
 2326poe     o210625   3.535   5.162   5.249 -0.3294 -0.5677 -0.0500
 2326poe    c2310626   3.638   5.090   5.184  0.1735  0.2217 -0.1524
 2326poe    c2310627   3.653   4.958   5.263  0.2482  0.2508 -0.1188
 2326poe     o210628   3.655   4.993   5.400  0.0307 -0.0627 -0.0361
 2326poe    c2310629   3.672   4.882   5.485 -0.9784  0.1196  0.4152
 2326poe    c2310630   3.693   4.936   5.628 -0.0219  0.0085  0.3199
 2326poe     o210631   3.599   5.041   5.628  0.0784  0.0982  0.2636
 2326poe    c3110632   3.578   5.099   5.755 -1.1376  0.1401  0.0547
 2327poe    c3110633   3.017   4.383   5.707 -0.7354 -0.4310 -0.4862
 2327poe     o210634   2.991   4.498   5.783  0.9373 -0.3497 -0.0014
 2327poe    c2310635   3.065   4.498   5.903  0.4421 -0.5082  0.3097
 2327poe    c2310636   3.000   4.591   6.006 -0.3601 -0.5060 -0.1939
 2327poe     o210637   2.986   4.724   5.963 -0.0941 -0.2663  0.4416
 2327poe    c2310638   2.911   4.797   6.057 -1.2329 -0.6354 -0.1626
 2327poe    c2310639   2.913   4.947   6.023  0.1339 -0.6674 -0.2623
 2327poe     o210640   2.929   4.983   5.888 -0.0690  0.2451 -0.0501
 2327poe    c2310641   2.916   5.123   5.880  0.1291  0.2603 -0.1166
 2327poe    c2310642   2.893   5.185   5.741  0.3321  0.5525 -0.0224
 2327poe     o210643   2.990   5.177   5.640  0.2809 -0.2052 -0.0206
 2327poe    c3110644   2.947   5.247   5.525  0.7356 -0.2258 -0.2067
 2328poe    c3110645   1.933   0.655   1.814 -0.3067 -1.0895 -0.8908
 2328poe     o210646   1.998   0.781   1.812 -0.1969 -1.1413 -0.6167
 2328poe    c2310647   1.886   0.859   1.776  0.1171 -0.1345  0.5006
 2328poe    c2310648   1.905   1.011   1.786  0.6824 -0.1509 -0.2143
 2328poe     o210649   1.883   1.076   1.909 -0.6806 -0.1913 -0.4204
 2328poe    c2310650   1.748   1.097   1.945 -0.5761  0.2301 -0.2743
 2328poe    c2310651   1.735   1.140   2.093 -0.0040  0.7556 -0.3702
 2328poe     o210652   1.820   1.067   2.177 -0.8016 -0.0482 -0.2416
 2328poe    c2310653   1.842   1.138   2.297  0.2421 -0.1918 -0.3348
 2328poe    c2310654   1.884   1.031   2.399  0.0798 -0.2560 -0.3360
 2328poe     o210655   1.987   0.962   2.332  0.3735 -0.1558  0.0146
 2328poe    c3110656   2.037   0.886   2.440 -0.0259  0.2174  0.4695
 2329poe    c3110657   2.965   7.009   1.925  0.0358 -0.2334  0.4220
 2329poe     o210658   2.874   7.116   1.909 -0.0840 -0.3724  0.1643
 2329poe    c2310659   2.931   7.244   1.928  0.2346 -0.4578 -0.1963
 2329poe    c2310660   2.810   7.328   1.973  0.0272 -0.5838 -0.5181
 2329poe     o210661   2.728   7.329   1.858  0.2121  0.2537 -0.6501
 2329poe    c2310662   2.602   7.379   1.897  0.0083 -0.4303 -0.4283
 2329poe    c2310663   2.506   7.366   1.777  0.1202  0.4263 -0.6121
 2329poe     o210664   2.507   7.236   1.724 -0.0141  0.2380 -0.1563
 2329poe    c2310665   2.475   7.249   1.587 -0.8826 -0.1406  0.0054
 2329poe    c2310666   2.494   7.117   1.510  0.2313 -0.1984  0.3584
 2329poe     o210667   2.630   7.082   1.492  0.1380 -0.2199 -0.3386
 2329poe    c3110668   2.636   6.957   1.428 -0.5646 -0.3740 -0.1106
 2330poe    c3110669   6.476   3.410   0.672  0.0541  0.0942  0.4308
 2330poe     o210670   6.428   3.277   0.667  0.6736 -0.1308  0.4395
 2330poe    c2310671   6.446   3.222   0.538  0.0103 -0.3182  0.4238
 2330poe    c2310672   6.456   3.070   0.564 -0.9624 -0.6930 -1.2437
 2330poe     o210673   6.356   3.033   0.656 -0.2455 -0.3022 -0.2749
 2330poe    c2310674   6.350   2.892   0.665 -0.0172 -0.2492  0.7274
 2330poe    c2310675   6.271   2.871   0.796 -0.2482  0.1928  0.6643
 2330poe     o210676   6.330   2.956   0.892  0.5023  0.0548  0.3379
 2330poe    c2310677   6.298   2.918   1.024  0.1432  0.2895  0.3201
 2330poe    c2310678   6.419   2.916   1.120  0.0741 -0.3197  0.4002
 2330poe     o210679   6.471   3.045   1.142 -0.5070 -0.0514  0.2475
 2330poe    c3110680   6.579   3.028   1.232 -0.2724 -0.3998 -0.0950
 2331poe    c3110681   3.934   4.579   2.796 -0.3975  0.4492 -0.1136
 2331poe     o210682   3.959   4.716   2.778  0.0619  0.3315 -0.3836
 2331poe    c2310683   3.924   4.766   2.906 -0.1645 -0.2256 -0.2277
 2331poe    c2310684   3.949   4.916   2.928 -0.4654 -0.2719  0.4427
 2331poe     o210685   4.083   4.946   2.962 -0.5758  0.4161  0.2839
 2331poe    c2310686   4.105   5.083   2.984  0.1271  0.2959  0.3574
 2331poe    c2310687   4.254   5.108   3.012  0.3193  0.1107 -0.4635
 2331poe     o210688   4.332   5.048   2.911  0.2724  0.2432 -0.5778
 2331poe    c2310689   4.462   5.099   2.933  0.0607  0.7224 -0.4281
 2331poe    c2310690   4.558   4.997   2.869 -0.2280 -0.3449  0.8083
 2331poe     o210691   4.474   4.890   2.832 -0.1241 -0.4114  0.7639
 2331poe    c3110692   4.560   4.798   2.768  0.1559  0.0833  0.4276
 2332poe    c3110693   6.253   0.279   2.244  0.3693 -0.2387  0.8295
 2332poe     o210694   6.362   0.368   2.234  0.2763 -0.2162 -0.1099
 2332poe    c2310695   6.442   0.364   2.350 -0.0100  0.0430  0.0993
 2332poe    c2310696   6.595   0.367   2.332 -0.0051 -0.3215  0.0677
 2332poe     o210697   6.653   0.489   2.289 -0.3500 -0.1039  0.2176
 2332poe    c2310698   6.665   0.590   2.386 -0.2128  0.2240 -0.1395
 2332poe    c2310699   6.645   0.735   2.339 -0.9387  0.1699 -0.0031
 2332poe     o210700   6.749   0.779   2.254 -0.1226  0.0091  0.8986
 2332poe    c2310701   6.735   0.918   2.242  0.6315  0.0164  0.0384
 2332poe    c2310702   6.868   0.994   2.227  0.6588  0.0120  0.2634
 2332poe     o210703   6.920   0.960   2.101 -0.6705 -0.1195 -0.2593
 2332poe    c3110704   7.034   1.042   2.086 -0.7825  0.0576 -0.1467
 2333poe    c3110705   4.891   6.681   0.712  0.2338  0.2947 -0.1832
 2333poe     o210706   4.797   6.741   0.625 -0.0789 -0.5022 -0.4071
 2333poe    c2310707   4.856   6.772   0.501  1.1861  0.9314  0.5174
 2333poe    c2310708   4.780   6.901   0.464  0.3609  0.2045 -0.3705
 2333poe     o210709   4.641   6.881   0.478  0.4943 -0.2926  0.2840
 2333poe    c2310710   4.561   6.949   0.385  0.2079 -0.1608  0.6237
 2333poe    c2310711   4.415   6.900   0.397  0.1550 -0.2513 -0.2717
 2333poe     o210712   4.402   6.761   0.380 -0.2034 -0.1394 -0.9325
 2333poe    c2310713   4.273   6.704   0.380 -0.0583 -0.4953  0.1406
 2333poe    c2310714   4.266   6.556   0.340 -0.3960 -0.4783  0.1323
 2333poe     o210715   4.362   6.478   0.408  0.0525  0.0182  0.0711
 2333poe    c3110716   4.367   6.348   0.353  0.1699 -0.1918  0.5746
 2334poe    c3110717   5.097   7.037   7.103  0.6189 -0.5816  0.1000
 2334poe     o210718   5.117   7.084   7.234 -0.4861 -0.2052  0.1470
 2334poe    c2310719   5.113   6.982   7.331  0.3476 -0.6353 -0.2553
 2334poe    c2310720   5.190   7.012   7.461 -0.5059 -0.1694  0.1559
 2334poe     o210721   5.161   7.128   7.536 -0.3420  0.0941 -0.1856
 2334poe    c2310722   5.186   7.099   7.671  0.0601  0.7098 -0.1249
 2334poe    c2310723   5.053   7.098   7.749 -0.0810 -0.3229 -0.3656
 2334poe     o210724   4.998   7.227   7.758 -0.0036 -0.2871 -0.4027
 2334poe    c2310725   4.923   7.238   7.877  0.5224  0.0696 -0.0987
 2334poe    c2310726   4.890   7.382   7.917 -0.5456 -0.2525  0.1994
 2334poe     o210727   4.811   7.447   7.820 -0.4818  0.4186  0.5850
 2334poe    c3110728   4.798   7.587   7.819  0.3657  0.5003 -0.4675
 2335poe    c3110729   4.670   0.421   1.499 -0.4282 -0.6829 -0.4876
 2335poe     o210730   4.709   0.286   1.513  0.1653 -0.4814 -0.1567
 2335poe    c2310731   4.760   0.247   1.388 -0.2660  0.0058 -0.4903
 2335poe    c2310732   4.845   0.119   1.396  0.4939  0.5201 -0.1583
 2335poe     o210733   4.976   0.141   1.440  0.6467 -0.1287 -0.2756
 2335poe    c2310734   5.062   0.048   1.379  0.0646 -0.4784 -0.5637
 2335poe    c2310735   5.134  -0.045   1.479 -0.3769  0.0634  0.2605
 2335poe     o210736   5.239  -0.001   1.562  0.0995 -0.4557 -0.0626
 2335poe    c2310737   5.334  -0.095   1.608  0.0249 -0.5978 -0.1966
 2335poe    c2310738   5.453  -0.098   1.510  0.5498  0.6738  0.3812
 2335poe     o210739   5.523   0.023   1.494  0.3965  0.7184  0.0362
 2335poe    c3110740   5.598   0.074   1.602 -0.0281  0.2626  0.5500
 2336poe    c3110741   2.025   6.047   6.317 -0.2224  0.8381  0.4491
 2336poe     o210742   2.120   6.099   6.226  0.1181 -0.2955  0.1454
 2336poe    c2310743   2.244   6.032   6.213  0.3204  0.0777  0.1552
 2336poe    c2310744   2.356   6.112   6.144 -0.4348  0.3836 -0.7379
 2336poe     o210745   2.362   6.131   6.005 -0.2155 -0.2665 -0.8204
 2336poe    c2310746   2.479   6.196   5.959  0.1090 -0.2725 -0.0224
 2336poe    c2310747   2.472   6.350   5.954 -0.8658 -0.2953  0.2999
 2336poe     o210748   2.357   6.389   5.884 -0.5723 -0.3979 -0.2455
 2336poe    c2310749   2.338   6.529   5.882  0.1977 -0.2901 -0.2417
 2336poe    c2310750   2.197   6.572   5.839  0.1002 -0.0461  0.3117
 2336poe     o210751   2.092   6.503   5.904 -0.3422  0.2583 -0.0660
 2336poe    c3110752   1.967   6.568   5.911 -0.5943 -0.2305 -0.0002
 2337poe    c3110753   0.620   0.640   3.599 -0.4355  0.2053 -0.5420
 2337poe     o210754   0.566   0.564   3.704 -0.1454  0.0487 -0.5026
 2337poe    c2310755   0.610   0.430   3.709  0.5368  0.2737 -0.5085
 2337poe    c2310756   0.730   0.406   3.803 -0.0600 -0.1022  0.1604
 2337poe     o210757   0.698   0.430   3.938 -0.0171  0.5633  0.0553
 2337poe    c2310758   0.795   0.386   4.030 -0.0976  1.1273  0.4167
 2337poe    c2310759   0.715   0.355   4.158  0.6514  0.0242  0.6287
 2337poe     o210760   0.637   0.456   4.218  0.3327 -0.0161  0.2793
 2337poe    c2310761   0.585   0.395   4.334  0.0534  0.1381  0.2362
 2337poe    c2310762   0.439   0.350   4.318  0.0901  0.2316 -0.3941
 2337poe     o210763   0.352   0.460   4.302  0.0221  0.1855 -0.3454
 2337poe    c3110764   0.215   0.427   4.292  0.1734 -0.6639  0.2486
 2338poe    c3110765   0.430   4.430   5.413 -0.1538  0.2819  0.4807
 2338poe     o210766   0.317   4.465   5.336  0.3807  0.1796 -0.3619
 2338poe    c2310767   0.338   4.587   5.268  0.2441  0.6302  0.3855
 2338poe    c2310768   0.449   4.590   5.162 -0.6331 -0.4560 -0.5974
 2338poe     o210769   0.485   4.721   5.122 -0.2519 -0.4940 -0.3845
 2338poe    c2310770   0.578   4.702   5.018  0.2793 -0.5382  0.0938
 2338poe    c2310771   0.676   4.818   4.990 -0.0821 -0.2955 -0.1740
 2338poe     o210772   0.761   4.868   5.090  0.1626 -0.0701 -0.4930
 2338poe    c2310773   0.865   4.939   5.027  0.0475  0.2836 -0.2868
 2338poe    c2310774   0.874   5.082   5.082 -0.2739  0.1780  0.0384
 2338poe     o210775   0.909   5.088   5.219 -0.3885 -0.2746  0.0884
 2338poe    c3110776   0.991   5.199   5.247  0.0401 -0.4943 -0.2883
 2339poe    c3110777   5.784   7.137   6.666 -0.8312  0.0849  0.0050
 2339poe     o210778   5.804   7.063   6.785  0.4288 -0.4079 -0.5016
 2339poe    c2310779   5.684   7.046   6.856  0.5721  0.0242 -0.1462
 2339poe    c2310780   5.672   7.067   7.008  0.8261  0.0080 -0.1246
 2339poe     o210781   5.756   6.985   7.086 -0.5435 -1.1073  0.2131
 2339poe    c2310782   5.784   7.035   7.215  0.2656  0.3085 -0.4966
 2339poe    c2310783   5.935   7.034   7.247  0.1926 -0.1241 -0.1643
 2339poe     o210784   5.992   7.155   7.200  0.0912 -0.1256 -0.2903
 2339poe    c2310785   6.128   7.154   7.235  0.0959 -0.1980 -0.3104
 2339poe    c2310786   6.192   7.292   7.215 -0.1764 -0.1146 -0.6049
 2339poe     o210787   6.218   7.333   7.083  0.4532  0.1599 -0.3961
 2339poe    c3110788   6.274   7.463   7.089  0.4917  0.1539 -0.6267
 2340poe    c3110789   1.996   0.055   2.268 -0.2364 -0.0942  0.1364
 2340poe     o210790   2.062   0.083   2.389 -0.0964 -0.6489  0.1897
 2340poe    c2310791   2.161  -0.014   2.416  0.6319 -0.0089 -0.1268
 2340poe    c2310792   2.204  -0.028   2.564 -0.3439  0.1675  0.1833
 2340poe     o210793   2.288   0.081   2.594 -0.3399  0.1180  0.3489
 2340poe    c2310794   2.323   0.062   2.729  0.8108 -0.3584 -0.0080
 2340poe    c2310795   2.403   0.183   2.782  0.6232 -0.3318  0.2163
 2340poe     o210796   2.540   0.174   2.752  0.4734 -0.1496 -0.5287
 2340poe    c2310797   2.597   0.298   2.789  0.3775 -0.0512 -0.7072
 2340poe    c2310798   2.644   0.397   2.681  0.4572  0.3873 -0.2707
 2340poe     o210799   2.529   0.454   2.624 -0.0257 -0.2142  0.0917
 2340poe    c3110800   2.557   0.572   2.552 -0.6785 -0.3052 -0.3233
 2341poe    c3110801   6.764   0.404   6.138  0.3879 -0.4314 -0.1208
 2341poe     o210802   6.738   0.451   6.007  0.5743  0.6627  0.2255
 2341poe    c2310803   6.675   0.366   5.915  0.2825  1.0537  0.0586
 2341poe    c2310804   6.634   0.446   5.790  0.0988  0.5717 -0.1966
 2341poe     o210805   6.734   0.544   5.766  0.6827  0.0752  0.1835
 2341poe    c2310806   6.713   0.615   5.647  0.4761 -0.0554  0.1414
 2341poe    c2310807   6.755   0.762   5.664  0.2814 -0.0016  0.1684
 2341poe     o210808   6.707   0.808   5.789  0.1442 -0.1439  0.1688
 2341poe    c2310809   6.700   0.949   5.783  0.3126 -0.1155  0.6268
 2341poe    c2310810   6.684   1.012   5.922  0.4904  0.1693  0.5182
 2341poe     o210811   6.587   0.934   5.988  0.0957 -0.2622 -0.5524
 2341poe    c3110812   6.513   1.014   6.077  0.4730 -0.5754  0.0514
 2342poe    c3110813   4.994   4.121   0.255 -0.0426 -0.9917 -0.3809
 2342poe     o210814   5.032   4.256   0.243  0.0296 -0.9619  0.1638
 2342poe    c2310815   5.161   4.259   0.187 -0.0899 -0.3153 -0.0845
 2342poe    c2310816   5.230   4.391   0.225 -0.6775 -0.1439  0.3912
 2342poe     o210817   5.306   4.392   0.343 -0.3801 -0.4197  0.2044
 2342poe    c2310818   5.416   4.304   0.351  0.0851  0.1513  0.2560
 2342poe    c2310819   5.494   4.308   0.483  0.9056 -0.3225 -0.2072
 2342poe     o210820   5.447   4.232   0.591 -0.1812 -0.1713 -0.5645
 2342poe    c2310821   5.345   4.301   0.660  0.2517 -0.2270  0.1434
 2342poe    c2310822   5.293   4.244   0.793 -1.0516  0.4858 -0.0416
 2342poe     o210823   5.391   4.244   0.895 -0.6600  0.2128 -0.4186
 2342poe    c3110824   5.357   4.166   1.007 -0.0046 -0.3438 -0.5967
 2343poe    c3110825   0.046   5.020   6.436 -0.2703  0.2150 -0.4209
 2343poe     o210826   0.120   5.115   6.362 -0.0365  0.4538  0.1127
 2343poe    c2310827   0.254   5.074   6.348 -0.1819 -0.0190  0.0550
 2343poe    c2310828   0.295   5.127   6.209  0.2529 -0.1785  0.1204
 2343poe     o210829   0.244   5.256   6.183  0.0929 -0.2084  0.2872
 2343poe    c2310830   0.265   5.291   6.048 -0.0375  0.6085  0.4769
 2343poe    c2310831   0.199   5.425   6.009 -0.2781  0.4576  0.3589
 2343poe     o210832   0.073   5.425   6.071 -0.3979 -0.3834  0.1226
 2343poe    c2310833  -0.011   5.524   6.015 -0.4258 -0.0754  0.7045
 2343poe    c2310834  -0.153   5.523   6.076 -0.7257  0.0865  0.0135
 2343poe     o210835  -0.224   5.406   6.041 -0.0237 -0.1875 -0.5354
 2343poe    c3110836  -0.364   5.414   6.055  0.0886  0.1278  0.5456
 2344poe    c3110837   0.848   1.857   0.455  0.0447 -1.0918  0.4441
 2344poe     o210838   0.925   1.967   0.497 -0.4327 -0.4832 -0.2574
 2344poe    c2310839   0.875   2.005   0.623  0.5921 -0.7552  0.2435
 2344poe    c2310840   0.951   2.125   0.683 -0.5707  0.0036  0.2232
 2344poe     o210841   1.088   2.099   0.699 -0.6607 -0.4410  0.2948
 2344poe    c2310842   1.156   2.222   0.706 -0.1611 -0.7098  0.2293
 2344poe    c2310843   1.279   2.240   0.797  0.0026 -0.1541 -0.0917
 2344poe     o210844   1.384   2.157   0.751 -0.1090 -0.5469  0.3519
 2344poe    c2310845   1.486   2.156   0.849  0.5068  0.3322 -0.2609
 2344poe    c2310846   1.622   2.119   0.786  0.2105 -0.1178 -0.6446
 2344poe     o210847   1.669   1.986   0.785  0.5045 -0.0157 -0.4123
 2344poe    c3110848   1.810   1.985   0.775  0.5699  0.6323  0.3043
 2345poe    c3110849   5.517   2.466   6.059  0.8085  0.1270  0.0958
 2345poe     o210850   5.463   2.596   6.050 -0.3076 -0.3502 -0.2772
 2345poe    c2310851   5.422   2.663   6.167 -0.3299 -0.7728 -0.0406
 2345poe    c2310852   5.386   2.809   6.134  0.3420 -0.5834  0.0503
 2345poe     o210853   5.293   2.817   6.028 -0.1725  0.5919  0.5806
 2345poe    c2310854   5.315   2.909   5.923  0.0799 -0.2097 -0.0777
 2345poe    c2310855   5.193   2.893   5.830  0.1801  0.2689 -0.2934
 2345poe     o210856   5.065   2.912   5.886  0.3470 -0.0869  0.2197
 2345poe    c2310857   5.016   3.044   5.880  0.0291 -0.2210 -0.1395
 2345poe    c2310858   4.908   3.037   5.988  0.0879 -0.4627 -0.0961
 2345poe     o210859   4.810   2.948   5.939 -0.5365 -0.1377  0.5307
 2345poe    c3110860   4.681   3.004   5.949 -0.4591  0.1312  0.0641
 2346poe    c3110861   4.780   1.606   1.196  0.4288  1.0137  0.1301
 2346poe     o210862   4.761   1.591   1.057 -0.7405  0.4449  0.3308
 2346poe    c2310863   4.664   1.492   1.035  0.2142 -0.7039  1.1585
 2346poe    c2310864   4.707   1.421   0.906 -0.5490  0.0045  0.5035
 2346poe     o210865   4.695   1.502   0.791 -0.1249 -0.8057 -0.1277
 2346poe    c2310866   4.712   1.437   0.667  0.3954  0.4562 -0.7396
 2346poe    c2310867   4.859   1.421   0.624  0.5309 -0.1046 -0.0789
 2346poe     o210868   4.933   1.341   0.714  0.2381 -0.1307  0.1407
 2346poe    c2310869   5.068   1.323   0.676  0.3614 -0.0619  0.5447
 2346poe    c2310870   5.141   1.197   0.724 -0.0883 -0.1507  1.0052
 2346poe     o210871   5.073   1.079   0.687 -0.3024  0.1825  0.3278
 2346poe    c3110872   5.080   0.975   0.782 -0.0120 -0.3979 -0.3174
 2347poe    c3110873   0.633   4.859   3.954 -0.2809  0.0689 -0.1843
 2347poe     o210874   0.578   4.828   4.079  0.2737  0.1788  0.0901
 2347poe    c2310875   0.490   4.921   4.137  0.0933  0.0898 -0.0427
 2347poe    c2310876   0.412   4.845   4.246  0.1013  0.4400  0.2105
 2347poe     o210877   0.505   4.761   4.310 -0.0553  0.1069  0.0051
 2347poe    c2310878   0.474   4.749   4.447  0.2241 -0.6681  0.0070
 2347poe    c2310879   0.563   4.647   4.520  0.4657 -0.5662 -0.1465
 2347poe     o210880   0.695   4.698   4.518  0.1910  0.1415 -0.5876
 2347poe    c2310881   0.790   4.616   4.581 -0.2724  0.2879  0.3139
 2347poe    c2310882   0.930   4.654   4.529 -0.0883 -0.6038  0.1419
 2347poe     o210883   0.934   4.598   4.400 -0.1115 -0.1945 -0.0405
 2347poe    c3110884   1.068   4.601   4.353 -0.1874 -0.1351 -0.2554
 2348poe    c3110885   3.848   0.163   1.747 -0.5873  0.3074 -0.5522
 2348poe     o210886   3.935   0.271   1.773  0.1027 -0.2062 -0.7051
 2348poe    c2310887   3.985   0.280   1.904 -0.2448  0.2520 -0.6014
 2348poe    c2310888   4.069   0.409   1.907 -0.1174  0.1504  0.4893
 2348poe     o210889   4.194   0.402   1.842 -0.2734  0.3741  0.1641
 2348poe    c2310890   4.253   0.529   1.847 -0.1118  0.3547 -0.9361
 2348poe    c2310891   4.404   0.524   1.817 -0.0453 -0.4116 -0.4789
 2348poe     o210892   4.467   0.452   1.921 -0.1274  0.3495  0.1038
 2348poe    c2310893   4.607   0.443   1.907 -0.1714  0.1669 -0.2304
 2348poe    c2310894   4.657   0.332   2.002 -0.0531 -0.0196 -0.5103
 2348poe     o210895   4.601   0.204   1.982  0.3852 -0.1808 -0.7303
 2348poe    c3110896   4.662   0.116   2.074 -0.4613 -0.0878 -0.0642
 2349poe    c3110897   2.260   5.844   7.125  0.1906 -0.1250 -0.2931
 2349poe     o210898   2.320   5.770   7.229 -0.2007 -0.0357  0.0036
 2349poe    c2310899   2.334   5.632   7.200  0.4370 -0.0046  0.1395
 2349poe    c2310900   2.447   5.599   7.101  0.5308 -0.3573  0.3636
 2349poe     o210901   2.567   5.628   7.168  0.4912  0.6835  0.0062
 2349poe    c2310902   2.674   5.664   7.083  0.0928  0.1290 -0.7376
 2349poe    c2310903   2.802   5.675   7.167 -0.3347 -0.4664  0.0018
 2349poe     o210904   2.782   5.792   7.244 -0.1999 -0.5601  0.1788
 2349poe    c2310905   2.894   5.827   7.322 -0.1024  0.1811 -0.2787
 2349poe    c2310906   2.932   5.974   7.299  0.1660  0.0538 -0.6569
 2349poe     o210907   2.807   6.038   7.308  0.2287  0.1298 -0.3492
 2349poe    c3110908   2.820   6.178   7.326  0.0087  0.1297 -0.1735
 2350poe    c3110909   3.420   3.225   6.932 -0.0192 -0.1407 -0.1724
 2350poe     o210910   3.561   3.218   6.944 -0.0118  0.4530  0.1040
 2350poe    c2310911   3.618   3.337   6.895 -0.3507  0.5578 -0.0434
 2350poe    c2310912   3.613   3.465   6.981 -0.1138  0.0575  0.7248
 2350poe     o210913   3.686   3.442   7.099 -0.4503 -0.0458  0.9161
 2350poe    c2310914   3.706   3.567   7.162 -0.0677  0.2875  0.1563
 2350poe    c2310915   3.809   3.556   7.276 -0.3156 -0.1740  0.3429
 2350poe     o210916   3.931   3.522   7.213 -0.1281  0.5990  0.2738
 2350poe    c2310917   4.028   3.492   7.311 -0.1469 -0.3064  0.0267
 2350poe    c2310918   4.173   3.506   7.261 -0.1893  0.1188  0.0170
 2350poe     o210919   4.208   3.401   7.174 -0.2414 -0.1390  0.3090
 2350poe    c3110920   4.347   3.383   7.165 -0.2862  0.1613 -1.1663
 2351poe    c3110921   2.742   4.526   4.280  1.1147 -0.3425  0.5707
 2351poe     o210922   2.816   4.630   4.220  0.1960  0.0296  0.0608
 2351poe    c2310923   2.933   4.556   4.193  0.1472 -0.0839  0.1581
 2351poe    c2310924   3.043   4.655   4.149 -0.2902  0.0242 -0.7098
 2351poe     o210925   3.102   4.728   4.254 -0.3385 -0.5405 -0.2854
 2351poe    c2310926   3.216   4.805   4.224 -0.5661 -0.1351 -0.1207
 2351poe    c2310927   3.252   4.903   4.337 -0.3127 -0.2938 -0.0603
 2351poe     o210928   3.162   5.009   4.363  0.1917 -0.0437  0.6759
 2351poe    c2310929   3.221   5.133   4.331 -0.2614  0.0792  0.3055
 2351poe    c2310930   3.111   5.237   4.361  0.2953  0.8823 -0.3857
 2351poe     o210931   3.003   5.246   4.270  0.1999  0.4682 -0.3171
 2351poe    c3110932   2.936   5.369   4.279 -1.2101 -0.3347  0.3650
 2352poe    c3110933   5.169   5.600   6.749 -0.0352 -0.0865 -0.2930
 2352poe     o210934   5.190   5.547   6.878 -0.1021  0.3172 -0.1155
 2352poe    c2310935   5.277   5.634   6.948 -0.2002  0.1502  0.2126
 2352poe    c2310936   5.337   5.577   7.078  0.0805  0.0162  0.0251
 2352poe     o210937   5.447   5.493   7.049 -0.1555 -0.4736  0.5319
 2352poe    c2310938   5.525   5.458   7.161  0.1968  0.0372  0.4471
 2352poe    c2310939   5.642   5.374   7.105 -0.0025 -0.4539  0.7685
 2352poe     o210940   5.686   5.442   6.990 -0.1899 -1.0508  0.3350
 2352poe    c2310941   5.801   5.382   6.934  0.2824  0.2225 -0.1110
 2352poe    c2310942   5.847   5.448   6.803  0.3101  0.1062 -0.1603
 2352poe     o210943   5.727   5.486   6.740  0.3279 -0.1620 -0.3595
 2352poe    c3110944   5.731   5.464   6.601  0.2943 -0.9220 -0.2442
 2353poe    c3110945   3.142   4.977   5.281 -0.2006 -0.0699 -0.1921
 2353poe     o210946   3.206   4.922   5.395 -0.3248  0.8176  0.3190
 2353poe    c2310947   3.235   4.785   5.386 -0.1859  0.8452  0.3546
 2353poe    c2310948   3.189   4.692   5.501  0.1747  0.0399 -0.1411
 2353poe     o210949   3.253   4.720   5.623  0.0859  0.1747 -0.1256
 2353poe    c2310950   3.385   4.671   5.632 -0.0663 -0.3058 -0.4938
 2353poe    c2310951   3.421   4.640   5.778  0.6284  0.2969 -0.5343
 2353poe     o210952   3.446   4.758   5.851 -0.1736  0.0506  0.1525
 2353poe    c2310953   3.452   4.714   5.985 -0.3337 -0.1268  0.1016
 2353poe    c2310954   3.424   4.837   6.074  0.6612  0.3303 -0.1978
 2353poe     o210955   3.290   4.879   6.068  0.5513  0.0173  0.0146
 2353poe    c3110956   3.259   4.962   6.178  0.3586  0.0600 -0.0719
 2354poe    c3110957   5.874   2.547   0.745 -0.6134 -0.0347  0.5044
 2354poe     o210958   5.773   2.464   0.798 -0.4259 -0.3578  0.3577
 2354poe    c2310959   5.807   2.405   0.921  0.0227 -0.0716  0.3753
 2354poe    c2310960   5.699   2.320   0.990 -0.0163 -0.6236 -0.3580
 2354poe     o210961   5.576   2.388   1.003  0.2142 -0.2715  0.0101
 2354poe    c2310962   5.471   2.294   1.001 -0.4138  0.4120  0.5663
 2354poe    c2310963   5.338   2.371   1.015 -0.8553 -0.1438 -0.4668
 2354poe     o210964   5.320   2.422   1.145  0.0982 -0.2554 -0.2855
 2354poe    c2310965   5.191   2.475   1.168  0.3500 -0.0248  0.6465
 2354poe    c2310966   5.184   2.594   1.266  0.2849  0.4087  0.1205
 2354poe     o210967   5.189   2.521   1.386 -0.5110 -0.4417 -0.3476
 2354poe    c3110968   5.162   2.599   1.501 -0.3540 -0.5021 -0.2693
 2355poe    c3110969   4.517   0.671   6.278  0.8427  0.0436  0.9562
 2355poe     o210970   4.399   0.594   6.290  0.6103  0.3139  0.4479
 2355poe    c2310971   4.351   0.610   6.421  0.1491  0.6356  0.2431
 2355poe    c2310972   4.198   0.602   6.424  0.1862 -0.3173 -0.1378
 2355poe     o210973   4.153   0.469   6.404 -0.2893 -0.2268  0.3119
 2355poe    c2310974   4.013   0.465   6.386 -0.2584 -0.2272  0.0660
 2355poe    c2310975   3.975   0.329   6.325  0.6766 -0.3091 -0.3421
 2355poe     o210976   4.041   0.316   6.201  0.1224  0.3653 -0.7154
 2355poe    c2310977   3.996   0.200   6.134  0.1218 -0.3184  0.4505
 2355poe    c2310978   4.088   0.157   6.018 -0.0848 -0.2276  0.2544
 2355poe     o210979   4.209   0.126   6.082  0.0168  0.0946  0.2242
 2355poe    c3110980   4.301   0.079   5.985 -0.1205  0.1400  0.0729
 2356poe    c3110981   5.404   6.280   1.451 -0.6904 -0.5821 -0.2004
 2356poe     o210982   5.418   6.317   1.587 -0.6416 -0.6476 -0.1874
 2356poe    c2310983   5.547   6.273   1.622 -0.3155  0.3135 -0.1669
 2356poe    c2310984   5.585   6.342   1.755 -0.4651 -0.1003  0.0949
 2356poe     o210985   5.616   6.479   1.763 -0.4451 -0.0721 -0.3928
 2356poe    c2310986   5.497   6.554   1.757 -0.2526  0.1801 -1.1219
 2356poe    c2310987   5.492   6.671   1.858 -0.0892 -0.4265 -0.4032
 2356poe     o210988   5.496   6.631   1.993  0.7593 -0.5602 -0.4661
 2356poe    c2310989   5.372   6.652   2.055  1.0437 -0.3114  0.0218
 2356poe    c2310990   5.312   6.515   2.093 -0.8680  0.3641 -0.4630
 2356poe     o210991   5.263   6.443   1.983 -0.0740  0.0453 -0.6095
 2356poe    c3110992   5.214   6.315   2.017  0.0529  0.2726  0.4770
 2357poe    c3110993   0.577   2.714   3.255  0.9124 -0.5122 -0.2321
 2357poe     o210994   0.677   2.738   3.159 -0.0894  0.4317 -1.0663
 2357poe    c2310995   0.733   2.614   3.124  0.2194  0.3098 -0.1785
 2357poe    c2310996   0.841   2.660   3.024 -0.0366  0.2701 -0.4744
 2357poe     o210997   0.804   2.772   2.947 -0.7099  0.3925  0.0154
 2357poe    c2310998   0.926   2.832   2.910 -0.4936 -0.2018 -0.2392
 2357poe    c2310999   0.887   2.934   2.802  1.2411  0.9372  0.1671
 2357poe     o211000   0.797   3.028   2.856  0.0578 -0.2878  0.3710
 2357poe    c2311001   0.832   3.154   2.802 -0.1795 -0.1573  0.5168
 2357poe    c2311002   0.729   3.264   2.833 -0.0643  0.1996 -0.3560
 2357poe     o211003   0.595   3.264   2.789 -0.1386 -0.3064 -0.1358
 2357poe    c3111004   0.515   3.189   2.878 -0.3208  0.0488 -0.0006
 2358poe    c3111005   5.322   7.110   4.481 -0.1678  0.0296  0.4204
 2358poe     o211006   5.309   6.970   4.492  0.1145 -0.0163  0.1993
 2358poe    c2311007   5.193   6.919   4.428  0.2221 -0.3100  0.2356
 2358poe    c2311008   5.079   6.879   4.524  0.3206  0.0597  0.5144
 2358poe     o211009   5.141   6.805   4.626  0.3190 -0.3715  0.2082
 2358poe    c2311010   5.052   6.782   4.733  0.6038  0.3218  0.6031
 2358poe    c2311011   5.115   6.685   4.835  0.2566 -0.0898  0.4310
 2358poe     o211012   5.232   6.745   4.886 -0.2183  0.4764  0.8765
 2358poe    c2311013   5.269   6.672   5.001  1.0607 -0.1891  0.0602
 2358poe    c2311014   5.379   6.752   5.072  0.4792  0.0055  0.7513
 2358poe     o211015   5.335   6.874   5.126 -0.0216  0.0611  0.2249
 2358poe    c3111016   5.441   6.960   5.163 -0.1728  0.3689 -0.0503
 2359poe    c3111017   5.494   0.216   0.378 -0.6362 -0.0425  0.1865
 2359poe     o211018   5.623   0.226   0.434 -0.3615  0.0860 -0.4566
 2359poe    c2311019   5.723   0.239   0.336 -0.3704  0.0374 -0.4722
 2359poe    c2311020   5.860   0.258   0.403 -0.3429 -0.3253 -0.4265
 2359poe     o211021   5.873   0.362   0.496 -0.2044 -0.5923 -0.1451
 2359poe    c2311022   5.993   0.340   0.567  0.0624  0.1078 -0.3633
 2359poe    c2311023   6.022   0.456   0.663  0.1999 -0.3551  0.1609
 2359poe     o211024   5.943   0.474   0.778 -0.2874  0.5204 -0.2986
 2359poe    c2311025   5.977   0.583   0.860 -0.2583 -0.0375  0.4419
 2359poe    c2311026   5.900   0.579   0.993  0.3011  0.0835  0.7765
 2359poe     o211027   5.760   0.571   0.975  0.4194 -0.1801 -0.0519
 2359poe    c3111028   5.705   0.557   1.104 -0.0504  0.1283 -0.2154
 2360poe    c3111029   6.247   3.794   2.939  0.3595 -0.3940 -0.3576
 2360poe     o211030   6.192   3.669   2.973 -0.7324  0.1054 -0.2479
 2360poe    c2311031   6.131   3.684   3.100  0.1193 -0.2768  0.2150
 2360poe    c2311032   6.057   3.561   3.155 -0.0817 -0.2172  0.0798
 2360poe     o211033   5.979   3.505   3.051  0.0709  0.3005 -0.3194
 2360poe    c2311034   5.920   3.384   3.093  0.1142  0.2560 -0.3850
 2360poe    c2311035   5.909   3.298   2.966 -0.3959 -0.3770  0.0803
 2360poe     o211036   6.039   3.260   2.930 -0.4004 -0.4970  0.1890
 2360poe    c2311037   6.050   3.139   2.857 -0.7793 -0.7107  0.4854
 2360poe    c2311038   6.074   3.014   2.943  0.0560 -1.0120 -0.1790
 2360poe     o211039   5.956   2.968   3.005  0.0383  0.0403  0.6005
 2360poe    c3111040   5.986   2.858   3.087  0.5289  0.1524  0.5787
 2361poe    c3111041   1.000   1.494   0.641 -0.3077  0.5935  0.2108
 2361poe     o211042   1.059   1.527   0.765  0.2233 -0.2609  0.1927
 2361poe    c2311043   0.989   1.636   0.821  0.3872 -0.2294  0.3388
 2361poe    c2311044   1.037   1.671   0.963  0.0313  0.4807  0.2901
 2361poe     o211045   1.009   1.574   1.061 -0.1224  0.1859 -0.0396
 2361poe    c2311046   1.044   1.612   1.193 -0.6160 -0.5654  0.3132
 2361poe    c2311047   1.081   1.484   1.270 -0.3540 -0.4078  0.4469
 2361poe     o211048   0.998   1.381   1.224 -0.0480 -0.3939 -0.1414
 2361poe    c2311049   0.975   1.291   1.330  0.1472 -0.3799 -0.0872
 2361poe    c2311050   0.873   1.187   1.281  0.2074 -0.1756 -0.6492
 2361poe     o211051   0.920   1.114   1.170  0.6193 -0.4588 -0.2910
 2361poe    c3111052   0.834   1.008   1.136 -0.1559 -0.0934  0.4858
 2362poe    c3111053   0.146   2.512   5.924 -0.4130  0.4583  0.2943
 2362poe     o211054   0.049   2.434   5.857  0.6034 -0.2538 -0.3922
 2362poe    c2311055   0.014   2.497   5.736 -0.0387  0.0681 -0.0489
 2362poe    c2311056  -0.095   2.427   5.653 -0.3647 -0.2972  0.6797
 2362poe     o211057  -0.209   2.424   5.736 -0.3892  0.6078  0.6880
 2362poe    c2311058  -0.326   2.425   5.657  0.0159  0.0957  0.0692
 2362poe    c2311059  -0.455   2.416   5.741  0.4171 -0.2533  0.6547
 2362poe     o211060  -0.460   2.289   5.803 -0.6407 -0.3252  0.4435
 2362poe    c2311061  -0.589   2.257   5.851 -0.8934  0.0682  0.0370
 2362poe    c2311062  -0.594   2.106   5.883  0.3795  0.0911  0.3825
 2362poe     o211063  -0.718   2.045   5.911  0.4234  0.0769  0.5494
 2362poe    c3111064  -0.698   1.908   5.937 -0.1234  0.0181  0.6644
 2363poe    c3111065   4.112   6.052   6.076  0.4382  0.8343  0.6021
 2363poe     o211066   3.973   6.033   6.078  0.4880  0.2604 -0.6455
 2363poe    c2311067   3.922   5.920   6.011 -0.2752  0.2055  0.0155
 2363poe    c2311068   3.784   5.902   6.077 -0.2317 -0.0504  0.0381
 2363poe     o211069   3.726   6.030   6.072 -0.4284 -0.1461 -0.2014
 2363poe    c2311070   3.589   6.039   6.104 -0.4892 -0.4774 -0.3696
 2363poe    c2311071   3.540   6.183   6.087 -0.2733 -0.2855  0.5446
 2363poe     o211072   3.633   6.276   6.137 -0.1733 -0.2102  0.2207
 2363poe    c2311073   3.574   6.403   6.125  0.1358 -0.0571  0.2933
 2363poe    c2311074   3.668   6.521   6.156 -0.3323  0.3975  0.0076
 2363poe     o211075   3.780   6.531   6.071  0.0885  0.3606  0.5578
 2363poe    c3111076   3.836   6.660   6.081 -0.8706  0.8024  0.3136
 2364poe    c3111077   6.816   6.124   4.813  0.3730 -0.4640  0.0384
 2364poe     o211078   6.882   6.204   4.908 -0.3325  0.6110 -0.3653
 2364poe    c2311079   6.850   6.162   5.039 -0.5959  0.5271 -0.4561
 2364poe    c2311080   6.946   6.208   5.150 -0.4108 -0.0238 -0.3813
 2364poe     o211081   7.069   6.139   5.151 -0.1444  0.4328  0.7852
 2364poe    c2311082   7.180   6.225   5.159  0.2127 -0.0485  0.9808
 2364poe    c2311083   7.312   6.174   5.097 -0.3353  0.6162 -0.7796
 2364poe     o211084   7.290   6.130   4.965  0.2712 -0.1835 -0.6211
 2364poe    c2311085   7.406   6.095   4.894  0.7741  0.3104 -0.0601
 2364poe    c2311086   7.391   5.995   4.777 -0.6508 -0.1585  0.4996
 2364poe     o211087   7.274   6.027   4.706 -0.3710 -0.1164  0.0510
 2364poe    c3111088   7.191   5.917   4.675 -0.0705 -0.3880  0.2100
 2365poe    c3111089   1.536   4.135   3.542 -0.1639  0.0654  0.0038
 2365poe     o211090   1.622   4.120   3.432  0.0998  0.1338  0.2006
 2365poe    c2311091   1.754   4.098   3.478  0.1356 -0.6735 -0.2710
 2365poe    c2311092   1.850   4.126   3.361  0.0026  0.5269 -0.1017
 2365poe     o211093   1.799   4.098   3.233 -0.3318 -0.1895  0.1863
 2365poe    c2311094   1.888   4.140   3.132 -0.8220  0.1543 -0.1113
 2365poe    c2311095   1.856   4.102   2.987 -0.3287 -0.4658 -0.0626
 2365poe     o211096   1.832   3.964   2.969  0.5257 -0.6190 -0.0813
 2365poe    c2311097   1.770   3.930   2.847 -0.3037 -0.5628  0.3179
 2365poe    c2311098   1.876   3.872   2.752  0.1125  0.0855  0.3824
 2365poe     o211099   1.951   3.983   2.707  0.0713 -0.0321  0.0227
 2365poe    c3111100   2.051   3.974   2.609 -0.2732 -0.0003 -0.3372
 2366poe    c3111101   3.257   5.205   6.636 -0.0466  0.1622  0.5003
 2366poe     o211102   3.156   5.302   6.647 -0.0259  0.2999 -0.4233
 2366poe    c2311103   3.130   5.324   6.784  0.2110  0.4259 -0.3992
 2366poe    c2311104   3.007   5.405   6.828 -0.1300 -0.5018  0.3764
 2366poe     o211105   2.888   5.335   6.799 -0.1491 -0.0983 -0.5371
 2366poe    c2311106   2.789   5.393   6.881  0.2232 -0.2609  0.0293
 2366poe    c2311107   2.698   5.284   6.940 -0.2871  0.2667  0.2189
 2366poe     o211108   2.756   5.204   7.041 -0.9044 -0.1035  0.2863
 2366poe    c2311109   2.687   5.082   7.054  0.0172 -0.6367  0.2201
 2366poe    c2311110   2.760   4.970   7.131 -0.0706 -1.1876 -0.4879
 2366poe     o211111   2.727   4.955   7.268  0.6895 -0.1036 -0.1755
 2366poe    c3111112   2.768   4.826   7.307  0.3050 -0.2200 -0.1497
 2367poe    c3111113   0.349   0.673   1.893  0.5319 -0.2620 -0.4951
 2367poe     o211114   0.473   0.619   1.932  0.3048 -0.5227 -0.1309
 2367poe    c2311115   0.461   0.516   2.027  0.7975 -0.0299  0.4726
 2367poe    c2311116   0.599   0.463   2.070  0.5127 -0.6220  0.6712
 2367poe     o211117   0.689   0.456   1.962  0.5365  1.1139  0.5565
 2367poe    c2311118   0.823   0.439   2.002  0.4044 -0.1092  0.5252
 2367poe    c2311119   0.886   0.370   1.880 -0.1086  0.5043 -0.0964
 2367poe     o211120   0.855   0.452   1.770  0.0090  0.1613 -0.3873
 2367poe    c2311121   0.868   0.370   1.656 -0.9296 -0.4221 -0.0883
 2367poe    c2311122   0.838   0.458   1.534 -0.6205 -0.2385 -0.0346
 2367poe     o211123   0.926   0.567   1.547 -0.2792 -0.5827  0.5400
 2367poe    c3111124   0.888   0.650   1.439  0.5660 -0.7379  0.1155
 2368poe    c3111125   0.600   0.500   2.919  0.3460  0.9755  0.4850
 2368poe     o211126   0.535   0.605   2.852  0.0453  0.3861 -0.1572
 2368poe    c2311127   0.617   0.717   2.826  0.0703  0.4854  0.3421
 2368poe    c2311128   0.522   0.812   2.752 -0.7213 -0.1111  0.5688
 2368poe     o211129   0.475   0.759   2.630 -0.3728  0.5217  0.1482
 2368poe    c2311130   0.515   0.827   2.513 -0.3412  0.4276  0.1047
 2368poe    c2311131   0.620   0.736   2.447 -0.2114  0.1464  0.6878
 2368poe     o211132   0.725   0.707   2.537  0.0318  0.5003  0.5203
 2368poe    c2311133   0.805   0.595   2.511 -0.3412  0.3137  0.1641
 2368poe    c2311134   0.753   0.458   2.559  0.1292 -0.1892 -0.7206
 2368poe     o211135   0.645   0.413   2.480 -0.5998 -0.4687  0.4162
 2368poe    c3111136   0.692   0.300   2.410  0.2582  0.1978 -0.1020
 2369poe    c3111137   3.721   0.492   0.040  0.2985  0.7154  0.4962
 2369poe     o211138   3.778   0.438   0.156  0.0551 -0.1465  0.2186
 2369poe    c2311139   3.876   0.516   0.221 -0.0365 -0.8133  1.1859
 2369poe    c2311140   3.821   0.650   0.275  0.4024  0.0698 -0.4647
 2369poe     o211141   3.801   0.762   0.193  0.0656  0.3294 -0.0307
 2369poe    c2311142   3.762   0.869   0.277  0.4409  0.2839  0.2028
 2369poe    c2311143   3.726   0.991   0.191  0.1407  0.2886  0.3330
 2369poe     o211144   3.844   1.052   0.143  0.3142 -0.1988  0.1369
 2369poe    c2311145   3.859   1.184   0.190  0.2548  0.2664 -1.1252
 2369poe    c2311146   3.993   1.242   0.141  0.4195  1.3213  0.5097
 2369poe     o211147   3.992   1.251   0.000  0.0355  0.1949  0.4295
 2369poe    c3111148   4.120   1.299  -0.037 -0.2629  0.3978 -0.3475
 2370poe    c3111149   3.516   3.901   1.549 -0.5006  0.0192 -0.1085
 2370poe     o211150   3.436   3.786   1.536 -0.2851 -0.1363 -0.0825
 2370poe    c2311151   3.314   3.832   1.482 -0.3349  0.3392  0.4236
 2370poe    c2311152   3.241   3.711   1.421  0.4382  0.2772 -0.4034
 2370poe     o211153   3.324   3.635   1.336  0.4629  0.6082 -0.6778
 2370poe    c2311154   3.260   3.532   1.265  0.6672 -0.5091  0.7199
 2370poe    c2311155   3.359   3.454   1.177 -0.3648 -0.2641 -0.6969
 2370poe     o211156   3.427   3.527   1.078 -0.1422  0.6936  0.1532
 2370poe    c2311157   3.542   3.454   1.043 -0.4683  0.1276  0.2618
 2370poe    c2311158   3.656   3.554   1.017 -0.0651 -0.1767  0.8130
 2370poe     o211159   3.707   3.618   1.132  0.3319  0.5086  0.2684
 2370poe    c3111160   3.836   3.670   1.111  0.3603  0.1817 -0.3994
 2371poe    c3111161   6.252   0.959   0.166 -0.9248  0.2273  0.1940
 2371poe     o211162   6.240   1.013   0.036  0.2418 -0.6724 -0.3169
 2371poe    c2311163   6.106   0.998  -0.007 -0.0604  0.5047  0.1712
 2371poe    c2311164   6.055   1.052  -0.142 -0.3908 -0.9584 -0.3108
 2371poe     o211165   6.127   1.015  -0.257  0.2603 -0.0628 -0.2028
 2371poe    c2311166   6.078   1.068  -0.378 -0.3199  0.3859  0.2289
 2371poe    c2311167   6.106   0.988  -0.506 -0.3642 -0.1771  0.5669
 2371poe     o211168   6.240   0.952  -0.528 -0.4643 -0.2482  0.0568
 2371poe    c2311169   6.247   0.850  -0.625 -0.2479 -0.3755  0.2042
 2371poe    c2311170   6.379   0.770  -0.623  0.0945  0.1664 -0.3352
 2371poe     o211171   6.479   0.841  -0.692 -0.0565  0.5124 -0.1987
 2371poe    c3111172   6.610   0.794  -0.670 -0.3286 -0.1548  0.0055
 2372poe    c3111173   5.686   5.228   3.604  0.2610  0.1402  0.4424
 2372poe     o211174   5.561   5.233   3.670  0.0805  0.1936  0.0991
 2372poe    c2311175   5.545   5.368   3.706  0.0873  0.2301 -0.0324
 2372poe    c2311176   5.413   5.374   3.784  0.4370 -0.1951  0.6045
 2372poe     o211177   5.401   5.253   3.855 -0.2151 -0.4904  0.0013
 2372poe    c2311178   5.396   5.262   3.995 -0.2207  0.1129 -0.0375
 2372poe    c2311179   5.344   5.123   4.034 -0.1640  0.1879  0.3132
 2372poe     o211180   5.407   5.023   3.957 -0.1650  0.2260  0.2636
 2372poe    c2311181   5.410   4.907   4.037 -0.2368  0.2175  0.2538
 2372poe    c2311182   5.419   4.772   3.962  0.6308  0.5238 -0.2061
 2372poe     o211183   5.541   4.758   3.892  0.6493 -0.1127 -0.0483
 2372poe    c3111184   5.580   4.625   3.868 -0.0428 -0.3719  0.2191
 2373poe    c3111185   3.321   2.063   6.124 -0.3417 -0.7502 -0.3339
 2373poe     o211186   3.438   2.073   6.046 -0.2517 -0.1455 -0.1202
 2373poe    c2311187   3.439   2.212   6.024 -0.2863 -0.1210  0.0291
 2373poe    c2311188   3.546   2.257   5.922 -0.2617 -0.5216 -0.1214
 2373poe     o211189   3.674   2.215   5.963 -0.0535  0.1585 -0.0706
 2373poe    c2311190   3.722   2.128   5.863  0.7531  0.1613  0.3007
 2373poe    c2311191   3.816   2.184   5.754 -0.1793 -0.0344 -0.6301
 2373poe     o211192   3.913   2.273   5.804  0.2191 -0.8267  0.0457
 2373poe    c2311193   3.996   2.310   5.696  0.0214 -0.4898  0.0101
 2373poe    c2311194   4.117   2.216   5.685  0.1867 -0.2003 -0.7424
 2373poe     o211195   4.196   2.205   5.801 -0.7856 -0.8255 -0.1260
 2373poe    c3111196   4.305   2.116   5.792 -0.3182 -0.2287 -0.4222
 2374poe    c3111197   4.734   1.937   5.812  0.1594 -0.3688  0.5103
 2374poe     o211198   4.840   2.002   5.879 -0.0831  0.9345 -0.3344
 2374poe    c2311199   4.958   1.956   5.817  0.1336  0.0288  0.7201
 2374poe    c2311200   5.093   2.016   5.861  0.2603  0.2274  0.0769
 2374poe     o211201   5.117   2.140   5.799 -0.0601  0.2812  0.0585
 2374poe    c2311202   5.251   2.157   5.759  0.0050 -0.4267 -0.0344
 2374poe    c2311203   5.246   2.221   5.619 -0.1532 -0.0008  0.1641
 2374poe     o211204   5.249   2.362   5.609  0.7352 -0.0016  0.2802
 2374poe    c2311205   5.238   2.419   5.480 -0.7032 -0.1948  0.2933
 2374poe    c2311206   5.165   2.553   5.459 -0.3115 -0.1009 -0.5098
 2374poe     o211207   5.261   2.657   5.464 -0.2946 -0.1323 -0.1136
 2374poe    c3111208   5.205   2.787   5.468 -0.1526 -0.0685 -0.1947
 2375poe    c3111209   1.713   5.710   3.676  0.0800 -0.0048 -0.0641
 2375poe     o211210   1.848   5.747   3.661 -0.0359  0.3178 -0.3307
 2375poe    c2311211   1.933   5.636   3.681 -0.0606  0.4747  0.7407
 2375poe    c2311212   2.070   5.691   3.637 -0.1723  0.3101  0.1666
 2375poe     o211213   2.068   5.825   3.682  0.6571  0.1102  0.8325
 2375poe    c2311214   2.188   5.895   3.655  0.5349 -0.0910 -0.2881
 2375poe    c2311215   2.169   6.039   3.708  0.1157 -0.1531 -0.2652
 2375poe     o211216   2.037   6.075   3.675 -0.0098 -0.4371 -0.0815
 2375poe    c2311217   2.002   6.198   3.735 -0.1464 -0.1521 -0.7374
 2375poe    c2311218   1.875   6.264   3.677 -0.0146  0.1557 -0.6760
 2375poe     o211219   1.773   6.171   3.704  0.2897 -0.1034 -0.4048
 2375poe    c3111220   1.644   6.223   3.677  0.4283  0.2811 -0.3240
 2376poe    c3111221   1.401   3.354   5.287  0.4234 -0.1791 -0.1469
 2376poe     o211222   1.404   3.283   5.409  0.5047  0.3496  0.1605
 2376poe    c2311223   1.440   3.366   5.518 -0.0122  0.6013  0.1433
 2376poe    c2311224   1.404   3.296   5.650  0.2390 -0.0077 -0.1029
 2376poe     o211225   1.456   3.170   5.686  0.1548  0.1696  0.6663
 2376poe    c2311226   1.596   3.161   5.705  0.1903  0.0954  0.3662
 2376poe    c2311227   1.630   3.015   5.739  0.4098  0.0348 -0.1003
 2376poe     o211228   1.559   2.940   5.642 -0.4843  0.0266  0.5478
 2376poe    c2311229   1.566   2.801   5.669  0.7281 -0.0661 -0.1537
 2376poe    c2311230   1.492   2.720   5.560 -0.3885  0.4200  0.2214
 2376poe     o211231   1.361   2.770   5.553 -0.4503  0.2104 -0.1408
 2376poe    c3111232   1.290   2.725   5.440 -0.2498 -0.6911  0.0868
 2377poe    c3111233   6.107   4.600   4.141 -0.1499 -0.5134 -0.4941
 2377poe     o211234   6.215   4.650   4.217 -0.3262 -0.5118 -0.2426
 2377poe    c2311235   6.226   4.572   4.333 -0.2812  0.3889  0.3666
 2377poe    c2311236   6.272   4.428   4.302  0.0357  0.7078 -0.6547
 2377poe     o211237   6.404   4.419   4.253  0.2879 -0.1311  0.1650
 2377poe    c2311238   6.422   4.291   4.196 -0.2189 -0.1468  0.0377
 2377poe    c2311239   6.568   4.246   4.178 -0.1247  0.2543 -0.2025
 2377poe     o211240   6.645   4.242   4.295 -0.1935 -0.3774 -0.1753
 2377poe    c2311241   6.783   4.216   4.279 -0.0881 -0.3003  0.5403
 2377poe    c2311242   6.872   4.335   4.238  0.1508 -0.5332  0.3750
 2377poe     o211243   6.895   4.428   4.342  0.0671 -0.1061  0.0118
 2377poe    c3111244   7.002   4.504   4.292  0.0613 -0.3972 -0.4563
 2378poe    c3111245   6.256   1.519   0.956  0.4938  0.1961 -0.1307
 2378poe     o211246   6.240   1.378   0.957  0.7400  0.1687  0.1059
 2378poe    c2311247   6.280   1.326   0.833  0.0068  0.1960 -0.1478
 2378poe    c2311248   6.233   1.180   0.825 -0.3876  0.2925  0.3850
 2378poe     o211249   6.287   1.089   0.919 -0.5546 -0.2302 -0.0222
 2378poe    c2311250   6.189   1.011   0.983 -0.2307 -0.4448  0.2142
 2378poe    c2311251   6.231   0.936   1.111 -0.0749 -0.2966  0.2483
 2378poe     o211252   6.244   1.021   1.223  0.2724  0.0728 -0.0660
 2378poe    c2311253   6.272   0.941   1.336 -0.2136 -0.0318 -0.0177
 2378poe    c2311254   6.252   1.032   1.458  0.8197 -0.1753  0.2700
 2378poe     o211255   6.300   1.158   1.415 -0.7304  0.3393 -0.0104
 2378poe    c3111256   6.295   1.246   1.524  0.0698  0.5764 -0.1591
 2379poe    c3111257   5.873   2.822   4.675  0.1741  0.4510 -0.6770
 2379poe     o211258   5.867   2.940   4.751 -0.5987  0.3714 -0.6031
 2379poe    c2311259   5.734   2.974   4.784 -0.5944 -0.0646 -0.1158
 2379poe    c2311260   5.742   3.120   4.833  0.0555 -0.3003  0.5104
 2379poe     o211261   5.852   3.145   4.916  0.0959 -0.3176  0.4618
 2379poe    c2311262   5.847   3.281   4.954  0.3845 -0.1152 -0.2072
 2379poe    c2311263   5.957   3.300   5.060  0.1301 -0.2638  0.0871
 2379poe     o211264   6.080   3.269   4.998  0.2687  0.3548  0.0529
 2379poe    c2311265   6.172   3.374   5.022  0.3985  0.1225  0.5793
 2379poe    c2311266   6.297   3.341   4.938  0.1686  0.2191  0.1980
 2379poe     o211267   6.279   3.330   4.798  0.3172  0.3591  0.1676
 2379poe    c3111268   6.401   3.301   4.735  0.0158  0.5716 -0.5183
 2380poe    c3111269   5.658   2.781   2.491 -0.3488  0.6966  0.6869
 2380poe     o211270   5.578   2.872   2.419 -0.0858  0.1030 -0.3875
 2380poe    c2311271   5.539   2.827   2.291 -0.5408  0.0238 -0.2230
 2380poe    c2311272   5.473   2.943   2.215 -0.2266  0.2995 -0.0776
 2380poe     o211273   5.562   3.052   2.202 -0.1924  0.2835  0.0239
 2380poe    c2311274   5.486   3.149   2.134 -0.4018  0.0672 -0.0515
 2380poe    c2311275   5.544   3.194   1.999  0.3097 -0.3507  0.1099
 2380poe     o211276   5.670   3.257   2.005  0.3484 -0.3605 -0.4579
 2380poe    c2311277   5.729   3.291   1.882  0.0089 -0.0702 -0.5407
 2380poe    c2311278   5.883   3.285   1.883  0.0367  0.5534 -0.6691
 2380poe     o211279   5.936   3.394   1.956  0.1153 -0.0574  0.2024
 2380poe    c3111280   6.036   3.458   1.880  0.1636 -0.2497  0.1013
 2381poe    c3111281   6.582   4.333   0.261  0.6111 -0.4104  0.8137
 2381poe     o211282   6.493   4.407   0.342 -0.1150 -0.3557 -0.0252
 2381poe    c2311283   6.409   4.501   0.279  0.0096 -0.2699 -0.0634
 2381poe    c2311284   6.322   4.555   0.394 -0.0092  0.3876 -0.3851
 2381poe     o211285   6.390   4.544   0.517 -0.1864 -0.2598 -0.3409
 2381poe    c2311286   6.312   4.617   0.609  0.4471  0.1747 -0.1440
 2381poe    c2311287   6.371   4.591   0.749 -0.3869  0.2549  0.2279
 2381poe     o211288   6.402   4.454   0.763  0.0296  0.3087 -0.1491
 2381poe    c2311289   6.445   4.415   0.892 -0.1658  0.2212 -0.1093
 2381poe    c2311290   6.496   4.270   0.903  0.0772  0.3237  0.1345
 2381poe     o211291   6.400   4.190   0.838  0.4218 -0.0197  0.0496
 2381poe    c3111292   6.427   4.057   0.878  0.4928 -0.0313 -0.0356
 2382poe    c3111293   2.104   0.904   3.632 -0.3285  0.0401 -0.0865
 2382poe     o211294   2.171   0.785   3.596  0.0023  0.1529  0.1570
 2382poe    c2311295   2.095   0.671   3.626  0.6867 -0.1481  0.7735
 2382poe    c2311296   2.186   0.560   3.568  0.5921 -0.0291  0.3956
 2382poe     o211297   2.191   0.569   3.427  0.7002  0.8510  0.4504
 2382poe    c2311298   2.276   0.477   3.362  0.1574  0.3132  0.4968
 2382poe    c2311299   2.300   0.534   3.221  0.9748 -0.7830  0.1852
 2382poe     o211300   2.336   0.669   3.231  0.3243 -0.5829 -0.0739
 2382poe    c2311301   2.356   0.737   3.109 -0.1322 -0.1322  0.0974
 2382poe    c2311302   2.226   0.768   3.032 -0.0301  0.0134 -0.0155
 2382poe     o211303   2.130   0.837   3.109 -0.5897 -0.3040 -0.4273
 2382poe    c3111304   2.151   0.975   3.093  0.1616 -0.3391  0.2151
 2383poe    c3111305   6.860   4.133   4.979  0.1162 -0.9298  0.0442
 2383poe     o211306   6.721   4.117   4.964  0.0234 -0.0530 -0.0508
 2383poe    c2311307   6.648   4.167   5.074 -0.1249  0.7191 -0.4933
 2383poe    c2311308   6.585   4.305   5.046 -0.4050  0.6568 -0.1648
 2383poe     o211309   6.640   4.424   5.095  0.3141  0.0400  0.5445
 2383poe    c2311310   6.581   4.542   5.045 -0.0409 -0.1813  0.4453
 2383poe    c2311311   6.632   4.672   5.109  0.1835 -0.0419 -0.0209
 2383poe     o211312   6.630   4.665   5.250  0.4761 -0.0786 -0.0174
 2383poe    c2311313   6.702   4.771   5.308 -0.0046  0.0585  0.3340
 2383poe    c2311314   6.679   4.787   5.459 -0.9902 -0.0152  0.1994
 2383poe     o211315   6.746   4.701   5.548  0.1429  0.3742 -0.2524
 2383poe    c3111316   6.679   4.725   5.670  0.3794 -0.2309  0.0018
 2384poe    c3111317   3.154   1.324   2.501  0.4815  0.2288  0.0025
 2384poe     o211318   3.061   1.234   2.556 -0.0301  0.9057  0.2472
 2384poe    c2311319   2.996   1.151   2.462  0.3328  0.6259  0.2423
 2384poe    c2311320   2.874   1.071   2.509  0.5696 -0.0665 -0.3130
 2384poe     o211321   2.908   0.977   2.609 -0.3109  0.3357  0.3700
 2384poe    c2311322   2.793   0.910   2.657  0.0962 -0.2738  0.4924
 2384poe    c2311323   2.812   0.804   2.767  0.2920 -0.4653  0.2756
 2384poe     o211324   2.859   0.877   2.878  0.0729  0.5559 -0.2882
 2384poe    c2311325   2.845   0.808   3.000  0.1474  0.6368 -0.2338
 2384poe    c2311326   2.951   0.854   3.102  0.0676  0.0107  0.1395
 2384poe     o211327   2.970   0.994   3.107  0.4206 -0.0322  0.0376
 2384poe    c3111328   3.011   1.022   3.239  0.5726  0.0382 -0.0251
 2385poe    c3111329   6.416   5.164   2.924 -0.1146  0.2481  0.0926
 2385poe     o211330   6.295   5.165   2.997  0.0385  0.4625  0.3470
 2385poe    c2311331   6.294   5.056   3.086 -0.4373  0.2077  0.0298
 2385poe    c2311332   6.166   5.078   3.168 -0.4366  0.1313  0.0522
 2385poe     o211333   6.144   5.218   3.176  0.1628  0.2495 -0.3200
 2385poe    c2311334   6.020   5.247   3.237  0.3118 -0.4270  0.3154
 2385poe    c2311335   6.002   5.399   3.252  0.6370 -0.3534 -0.0236
 2385poe     o211336   6.011   5.468   3.130 -0.3133 -0.7073 -0.3017
 2385poe    c2311337   5.966   5.599   3.157  0.5694 -0.5313  0.3769
 2385poe    c2311338   6.007   5.687   3.038 -0.1191  0.4816  0.8735
 2385poe     o211339   6.148   5.701   3.035 -0.0690 -0.1155 -0.2756
 2385poe    c3111340   6.183   5.804   2.946 -0.6872 -0.1654 -0.5820
 2386poe    c3111341   3.795   5.154   6.520  0.3615 -0.0352  0.4037
 2386poe     o211342   3.684   5.086   6.573  0.0102 -0.1397 -0.4500
 2386poe    c2311343   3.605   5.034   6.469 -0.8225  0.2317 -0.0084
 2386poe    c2311344   3.507   4.941   6.543 -0.3201  0.1481  0.5496
 2386poe     o211345   3.582   4.842   6.610 -0.3219 -0.3632 -0.1834
 2386poe    c2311346   3.484   4.765   6.674 -0.2054  0.1297  0.6087
 2386poe    c2311347   3.541   4.663   6.775  1.0693 -0.2945 -0.5156
 2386poe     o211348   3.632   4.731   6.859 -0.4323  0.2910  0.6823
 2386poe    c2311349   3.715   4.652   6.941  0.4051 -0.0854 -0.5013
 2386poe    c2311350   3.770   4.736   7.058 -0.4208  0.2936 -0.3784
 2386poe     o211351   3.883   4.817   7.036  0.1598 -0.3908  0.0284
 2386poe    c3111352   3.922   4.873   7.160  0.1450 -0.4269  0.0494
 2387poe    c3111353   2.197   6.505   1.944  0.0279  0.6269  0.2045
 2387poe     o211354   2.133   6.551   1.828  0.3641 -0.1943 -0.3189
 2387poe    c2311355   2.058   6.443   1.776  0.4840 -0.1496 -0.5840
 2387poe    c2311356   1.966   6.484   1.660 -0.0528 -0.8174 -0.3939
 2387poe     o211357   2.034   6.531   1.546  0.0058  0.0621  0.0036
 2387poe    c2311358   1.929   6.556   1.455  0.1055  0.4804 -0.0020
 2387poe    c2311359   1.999   6.584   1.321  0.5447 -0.1040  0.0991
 2387poe     o211360   2.044   6.715   1.294  0.0606  0.0754  0.1496
 2387poe    c2311361   2.126   6.728   1.180 -0.1526  0.4978  0.0427
 2387poe    c2311362   2.221   6.844   1.148  0.0053  0.2919 -0.2397
 2387poe     o211363   2.159   6.968   1.121 -0.3930  0.2748  0.5663
 2387poe    c3111364   2.159   7.007   0.985  0.1619 -0.4152  0.3604
 2388poe    c3111365   0.556   5.898   3.493  0.4548  0.8258  0.0699
 2388poe     o211366   0.580   5.772   3.551 -0.1913 -0.0386 -1.4461
 2388poe    c2311367   0.667   5.681   3.488  0.1063 -0.3936 -0.5442
 2388poe    c2311368   0.700   5.557   3.572 -0.0758  0.1759  0.3853
 2388poe     o211369   0.610   5.449   3.585  0.1000  0.0450  0.5278
 2388poe    c2311370   0.657   5.325   3.635  0.0123 -0.2618 -0.1456
 2388poe    c2311371   0.638   5.321   3.788 -0.4009  0.4145 -0.1721
 2388poe     o211372   0.506   5.301   3.832 -0.1837  0.0579  0.3177
 2388poe    c2311373   0.508   5.271   3.970 -0.2960 -0.6826  0.1615
 2388poe    c2311374   0.368   5.295   4.029 -0.3479 -0.2575 -0.1323
 2388poe     o211375   0.346   5.433   4.047 -0.1649 -0.1455 -0.7368
 2388poe    c3111376   0.239   5.458   4.135  0.0041 -0.4131 -0.4523
 2389poe    c3111377   2.510   3.254   3.213  0.3056 -0.3903 -0.1182
 2389poe     o211378   2.621   3.342   3.220 -0.0187  0.0623 -0.5318
 2389poe    c2311379   2.607   3.451   3.308  0.6794 -0.2725  0.0018
 2389poe    c2311380   2.651   3.592   3.264  0.2784  0.1080  0.7968
 2389poe     o211381   2.545   3.653   3.194  0.1862 -0.6692  0.2463
 2389poe    c2311382   2.591   3.774   3.138 -0.2001 -0.4296  0.4390
 2389poe    c2311383   2.481   3.850   3.063 -0.2978 -0.2015  0.8104
 2389poe     o211384   2.480   3.804   2.929  0.3122  0.3765  0.6031
 2389poe    c2311385   2.377   3.864   2.853 -0.1644 -0.4859  0.5623
 2389poe    c2311386   2.282   3.751   2.809 -0.1533 -0.2330 -0.1163
 2389poe     o211387   2.207   3.686   2.909  0.0464  0.4353  0.4760
 2389poe    c3111388   2.273   3.569   2.952 -0.8112 -0.1930  0.1098
 2390poe    c3111389   2.408   5.577   4.671 -0.5500  0.0621  0.9781
 2390poe     o211390   2.299   5.566   4.582  0.1901  0.2497  0.0292
 2390poe    c2311391   2.271   5.695   4.532 -0.0831  0.2212  0.1099
 2390poe    c2311392   2.134   5.689   4.462 -0.0385 -0.7748  0.0921
 2390poe     o211393   2.024   5.654   4.543 -0.0192 -0.1540  0.3937
 2390poe    c2311394   1.903   5.658   4.472 -0.1958 -0.2682  0.6847
 2390poe    c2311395   1.820   5.787   4.491  0.1087 -0.0093  0.2704
 2390poe     o211396   1.749   5.808   4.611  0.3776  0.0302  0.4249
 2390poe    c2311397   1.693   5.937   4.597  0.0019 -0.1941 -0.1985
 2390poe    c2311398   1.540   5.936   4.608  0.0155 -0.1295 -0.0042
 2390poe     o211399   1.491   5.918   4.739 -0.0125 -0.4773 -0.0632
 2390poe    c3111400   1.351   5.909   4.728 -0.0761  0.1030  0.2579
 2391poe    c3111401   2.103   4.847   0.865  0.2315 -0.4171  0.2295
 2391poe     o211402   2.069   4.959   0.786 -0.5068 -0.4064  0.5552
 2391poe    c2311403   1.955   5.033   0.824 -0.3238  0.1389  0.0574
 2391poe    c2311404   1.985   5.165   0.897  0.0305  0.5506 -0.8235
 2391poe     o211405   2.078   5.251   0.834  0.3414  0.3528 -0.6399
 2391poe    c2311406   2.082   5.373   0.904 -0.0918  0.0470 -0.0818
 2391poe    c2311407   2.177   5.479   0.847  0.0538 -0.1580 -0.2185
 2391poe     o211408   2.137   5.527   0.721  0.0908  0.3039 -0.0539
 2391poe    c2311409   2.228   5.600   0.641  0.6217 -0.0257  0.2498
 2391poe    c2311410   2.151   5.634   0.512  0.3394 -0.4588  0.2997
 2391poe     o211411   2.096   5.512   0.471 -0.5617  0.1250 -0.2554
 2391poe    c3111412   2.038   5.503   0.343 -0.6318  0.3115 -0.2370
 2392poe    c3111413   2.929   4.323   0.744  0.1270  0.2045  0.5181
 2392poe     o211414   2.792   4.301   0.716  0.3354  0.0623 -0.4151
 2392poe    c2311415   2.701   4.317   0.822  0.5796  0.0446 -0.2017
 2392poe    c2311416   2.567   4.361   0.760  0.5146  0.2477  0.0796
 2392poe     o211417   2.480   4.255   0.727 -0.1185  0.4839  0.9658
 2392poe    c2311418   2.368   4.314   0.663  0.4138 -0.1558 -0.6012
 2392poe    c2311419   2.270   4.205   0.614  0.0185 -0.6128  1.1117
 2392poe     o211420   2.336   4.100   0.547 -0.4825 -0.1031 -0.2150
 2392poe    c2311421   2.245   4.011   0.485 -1.0497  0.0668  0.3706
 2392poe    c2311422   2.301   3.868   0.483  0.8555  0.7772  0.4515
 2392poe     o211423   2.322   3.817   0.612  0.2245 -0.2613  0.1552
 2392poe    c3111424   2.352   3.679   0.604  0.6857 -0.1398 -0.2177
 2393poe    c3111425   0.683   2.209   1.591 -0.3434  0.0551  0.8356
 2393poe     o211426   0.646   2.262   1.465  0.2714 -0.6500  0.3512
 2393poe    c2311427   0.736   2.235   1.360 -0.1701 -0.1902 -0.1505
 2393poe    c2311428   0.703   2.310   1.229 -0.3020  0.7195  0.3937
 2393poe     o211429   0.576   2.280   1.175  0.2615 -0.5284 -0.2740
 2393poe    c2311430   0.562   2.352   1.055  0.2228  0.3116  0.2332
 2393poe    c2311431   0.423   2.331   0.993  0.3625 -0.4192  0.1608
 2393poe     o211432   0.300   2.348   1.061  0.2705 -0.1909 -0.0607
 2393poe    c2311433   0.192   2.330   0.973  0.0753 -0.0232  0.1423
 2393poe    c2311434   0.045   2.359   1.009 -0.0103  0.3308 -0.4703
 2393poe     o211435   0.010   2.495   1.003 -0.1922  0.3181  0.2355
 2393poe    c3111436  -0.125   2.517   1.039 -0.1017  0.5195  0.4618
 2394poe    c3111437   2.247   0.678   4.778  0.0779 -0.3748 -0.1167
 2394poe     o211438   2.268   0.599   4.664 -0.3377 -0.1492 -0.3532
 2394poe    c2311439   2.147   0.573   4.597 -0.7849  0.1642  0.3316
 2394poe    c2311440   2.136   0.565   4.444 -0.2495 -0.2660  0.3147
 2394poe     o211441   2.181   0.675   4.367 -0.7406 -0.1755  0.1531
 2394poe    c2311442   2.148   0.657   4.232  0.0623 -0.5907  0.0089
 2394poe    c2311443   2.289   0.649   4.170  0.0527 -0.3027 -0.0492
 2394poe     o211444   2.347   0.777   4.185 -0.2664 -0.1501 -0.1124
 2394poe    c2311445   2.482   0.783   4.144  0.0976 -0.1911  1.0270
 2394poe    c2311446   2.545   0.923   4.157  0.3027 -0.2078  0.2766
 2394poe     o211447   2.557   0.974   4.288 -0.0545 -0.1365  0.2824
 2394poe    c3111448   2.667   1.063   4.291  0.0990 -0.3096 -0.1293
 2395poe    c3111449   5.993   7.013   3.824 -0.3857  0.0454  0.1502
 2395poe     o211450   5.931   6.888   3.805  0.2108 -0.1974 -0.2193
 2395poe    c2311451   5.855   6.846   3.916  0.3080 -0.1256 -0.1256
 2395poe    c2311452   5.812   6.700   3.893  0.1318 -0.1529  0.3703
 2395poe     o211453   5.929   6.635   3.848  0.0178 -0.0452 -0.0872
 2395poe    c2311454   5.922   6.496   3.874  0.0148  0.0402  0.3896
 2395poe    c2311455   6.039   6.420   3.810 -0.0237  0.3765 -0.0875
 2395poe     o211456   6.039   6.443   3.671 -0.2763 -0.7232 -0.2800
 2395poe    c2311457   6.133   6.357   3.611  0.0365 -0.5537 -0.0297
 2395poe    c2311458   6.120   6.363   3.458 -0.1867  0.3174  0.0235
 2395poe     o211459   6.178   6.482   3.407  0.6252 -0.2042 -0.2888
 2395poe    c3111460   6.138   6.500   3.273 -0.2252  0.6849  0.0720
 2396poe    c3111461   5.065   5.619   1.134  0.2642 -0.7892  0.4738
 2396poe     o211462   4.949   5.539   1.138  0.1566 -0.6801 -0.2567
 2396poe    c2311463   4.897   5.538   1.269 -0.0331 -0.0903 -0.3248
 2396poe    c2311464   4.750   5.492   1.266 -0.0529 -0.1563  0.9958
 2396poe     o211465   4.658   5.574   1.198  0.6277 -0.0247  0.2135
 2396poe    c2311466   4.528   5.519   1.194  0.4843  0.3411 -0.1184
 2396poe    c2311467   4.448   5.606   1.094 -0.5980 -0.1865  0.2714
 2396poe     o211468   4.489   5.740   1.107  0.0380 -0.3419 -0.0546
 2396poe    c2311469   4.395   5.837   1.066 -0.2571 -0.3718  0.5304
 2396poe    c2311470   4.453   5.979   1.057  0.0181 -0.5275 -0.2408
 2396poe     o211471   4.536   6.005   1.168 -0.2434  0.4162 -0.2552
 2396poe    c3111472   4.498   6.131   1.218  0.0820  0.5626 -0.3738
 2397poe    c3111473   2.926   2.196   0.134 -0.4806  0.0186  0.2403
 2397poe     o211474   3.006   2.097   0.073 -0.6309 -0.1353  0.2926
 2397poe    c2311475   3.114   2.141  -0.006 -0.2265 -0.8345  0.4477
 2397poe    c2311476   3.106   2.070  -0.142  0.5855  0.1339 -0.1265
 2397poe     o211477   3.003   2.093  -0.236  0.2579  0.5087  0.3168
 2397poe    c2311478   3.018   2.221  -0.294  0.0712  0.1764 -0.4860
 2397poe    c2311479   2.920   2.256  -0.407 -0.3653  0.2971 -0.0739
 2397poe     o211480   2.797   2.202  -0.364 -0.0590 -0.2681  0.1101
 2397poe    c2311481   2.696   2.279  -0.426  0.1172 -0.4806 -0.4424
 2397poe    c2311482   2.552   2.233  -0.396 -0.0893  0.4784  0.0684
 2397poe     o211483   2.507   2.138  -0.489  0.5579 -0.0668  0.3023
 2397poe    c3111484   2.379   2.083  -0.462  0.3809  0.1525 -0.0840
 2398poe    c3111485   0.349   5.350   0.173 -0.1200 -0.5650 -0.4644
 2398poe     o211486   0.289   5.224   0.155 -0.3771 -0.5176  0.0472
 2398poe    c2311487   0.371   5.139   0.077  0.4336  0.4867 -0.2150
 2398poe    c2311488   0.284   5.043  -0.007  0.1843  0.3987  0.1391
 2398poe     o211489   0.190   4.985   0.081  0.0887  0.4132  0.0461
 2398poe    c2311490   0.114   4.877   0.031  0.8093 -0.0970  0.0383
 2398poe    c2311491   0.082   4.800   0.161  0.2599 -0.0940 -0.0948
 2398poe     o211492   0.076   4.892   0.268 -0.1893  0.0697 -0.2581
 2398poe    c2311493  -0.005   4.825   0.362  0.2575  0.0702  0.1307
 2398poe    c2311494  -0.022   4.910   0.490 -0.3554  0.5536 -0.2665
 2398poe     o211495   0.105   4.935   0.545 -0.3808  0.1409 -0.0196
 2398poe    c3111496   0.114   4.917   0.685  0.4930  0.3625 -0.0397
 2399poe    c3111497   5.561   3.724   3.716  0.6317  0.4669 -0.4426
 2399poe     o211498   5.532   3.773   3.845 -0.1542 -0.0325 -0.4243
 2399poe    c2311499   5.402   3.739   3.888 -0.0909 -0.0532 -0.2489
 2399poe    c2311500   5.346   3.861   3.964  0.3601  0.3532 -0.5638
 2399poe     o211501   5.410   3.889   4.087 -0.0360 -0.2490 -0.2142
 2399poe    c2311502   5.347   3.992   4.160 -0.3460 -0.2880 -0.4266
 2399poe    c2311503   5.352   3.977   4.313  0.0352 -0.3782 -0.4476
 2399poe     o211504   5.274   3.865   4.349  0.4746 -0.5042  0.1171
 2399poe    c2311505   5.349   3.799   4.448  0.8431 -0.1539  0.0737
 2399poe    c2311506   5.334   3.647   4.467 -0.2252  0.0012  0.5357
 2399poe     o211507   5.393   3.548   4.384  0.3792  0.7882  0.0150
 2399poe    c3111508   5.333   3.541   4.257  0.5467  1.4499 -0.1042
 2400poe    c3111509   4.332   0.622   2.663 -0.1960  0.2864  0.0269
 2400poe     o211510   4.236   0.570   2.753  0.1408 -0.1766  0.1236
 2400poe    c2311511   4.109   0.629   2.739  0.1925 -0.2075 -0.5533
 2400poe    c2311512   3.994   0.553   2.809  0.2128  0.4418  0.2006
 2400poe     o211513   4.009   0.581   2.946 -0.7296 -0.2821  0.4627
 2400poe    c2311514   3.898   0.551   3.028 -0.7901 -0.4200  0.3297
 2400poe    c2311515   3.926   0.562   3.179  0.3267 -0.3571  0.1287
 2400poe     o211516   3.973   0.689   3.217  0.3153 -0.2814 -0.1090
 2400poe    c2311517   3.954   0.719   3.353 -0.2462  0.4592 -0.3474
 2400poe    c2311518   3.955   0.870   3.384 -0.9391  0.3876  0.0493
 2400poe     o211519   3.863   0.950   3.312 -0.7388  0.0424 -0.5944
 2400poe    c3111520   3.881   1.089   3.326 -0.1753 -0.0171 -0.6838
 2401poe    c3111521   1.070   3.030   3.970 -0.0145  0.1081 -0.5610
 2401poe     o211522   1.033   3.157   4.019 -0.5165  0.0346 -0.7361
 2401poe    c2311523   0.974   3.235   3.918 -0.3165  0.4239 -0.5571
 2401poe    c2311524   0.929   3.363   3.990 -0.3194  0.1037  0.0189
 2401poe     o211525   0.866   3.319   4.108 -0.1658  0.2474  0.1555
 2401poe    c2311526   0.819   3.430   4.180  0.0981  0.5156 -0.0828
 2401poe    c2311527   0.745   3.387   4.308 -0.2370 -0.3040 -0.5480
 2401poe     o211528   0.818   3.273   4.350  0.1463  0.0224 -0.3263
 2401poe    c2311529   0.790   3.227   4.480  0.3250  0.1049 -0.2572
 2401poe    c2311530   0.884   3.120   4.538  0.0756  0.3537  0.6095
 2401poe     o211531   1.019   3.161   4.548  0.1591  0.2380 -0.0432
 2401poe    c3111532   1.103   3.057   4.591 -0.6766 -0.0418  0.9312
 2402poe    c3111533   4.567   4.637   4.329 -0.1460  0.0971 -0.5781
 2402poe     o211534   4.653   4.535   4.282  0.5631  0.3346  0.1711
 2402poe    c2311535   4.782   4.549   4.338  0.6669  0.0793 -0.0019
 2402poe    c2311536   4.896   4.513   4.241  0.3385 -0.6520 -0.1241
 2402poe     o211537   4.904   4.588   4.122  0.3239  0.2768  0.4496
 2402poe    c2311538   4.996   4.694   4.125  0.7061 -0.0451  0.1773
 2402poe    c2311539   4.987   4.791   4.005  0.2777 -0.1912  0.0909
 2402poe     o211540   4.859   4.850   3.992  0.4681  0.2042  0.0016
 2402poe    c2311541   4.830   4.908   3.866 -0.1486 -0.3898 -0.1298
 2402poe    c2311542   4.887   5.045   3.829  0.3924 -0.6389 -0.2319
 2402poe     o211543   4.837   5.151   3.908  0.1487 -0.3996 -0.6997
 2402poe    c3111544   4.856   5.278   3.850 -0.6059 -0.0978 -0.2900
 2403poe    c3111545   3.892   6.346   0.456  0.0487 -0.3033 -0.2723
 2403poe     o211546   3.832   6.308   0.578 -0.2189  0.0965 -0.2771
 2403poe    c2311547   3.774   6.420   0.641  0.2223  0.1779 -0.0154
 2403poe    c2311548   3.796   6.427   0.794 -0.0527  0.2714  0.0202
 2403poe     o211549   3.730   6.316   0.850  0.8074 -0.3872 -0.2598
 2403poe    c2311550   3.783   6.287   0.977 -0.2897 -0.1249  0.2574
 2403poe    c2311551   3.740   6.159   1.052  0.4240 -0.3096  0.3559
 2403poe     o211552   3.800   6.046   0.994  0.0252 -0.1413 -0.4110
 2403poe    c2311553   3.751   5.921   1.037  0.0279 -0.1759 -0.5091
 2403poe    c2311554   3.628   5.867   0.962 -0.2568  0.5635 -0.5801
 2403poe     o211555   3.673   5.830   0.834  0.6440 -0.7041  0.0859
 2403poe    c3111556   3.586   5.736   0.774 -0.3481  0.1435  0.1835
 2404poe    c3111557   1.279   2.227   5.368 -0.4619  0.1123  0.2455
 2404poe     o211558   1.263   2.105   5.437 -0.5166 -0.2455 -0.3888
 2404poe    c2311559   1.326   2.014   5.351  1.0705 -0.2214  0.6938
 2404poe    c2311560   1.303   1.869   5.399  0.2205 -0.4580 -0.3870
 2404poe     o211561   1.351   1.827   5.525  0.1896 -0.0617 -0.2433
 2404poe    c2311562   1.474   1.758   5.523  0.6385  0.7215 -0.3080
 2404poe    c2311563   1.526   1.739   5.666  0.2201  0.6687 -0.1609
 2404poe     o211564   1.430   1.671   5.745  0.7992  0.0460  0.0196
 2404poe    c2311565   1.450   1.707   5.880 -0.4752  1.0695 -0.0447
 2404poe    c2311566   1.326   1.652   5.954  0.1151 -0.0332  0.1557
 2404poe     o211567   1.214   1.737   5.941  0.4564  0.4949  0.6220
 2404poe    c3111568   1.102   1.676   6.000  0.0505 -0.3596 -0.9765
 2405poe    c3111569   5.667   4.880   5.237  0.0307  0.3096 -0.6173
 2405poe     o211570   5.684   4.745   5.199 -0.3404 -0.0025  0.2982
 2405poe    c2311571   5.713   4.735   5.061  0.3103 -0.3878  0.4553
 2405poe    c2311572   5.755   4.593   5.020  0.0388 -0.2844 -0.1842
 2405poe     o211573   5.666   4.484   5.031 -0.5313  0.1793 -0.1565
 2405poe    c2311574   5.644   4.439   5.162 -0.2390 -0.2565 -0.2550
 2405poe    c2311575   5.537   4.329   5.164 -0.0584 -0.4331 -0.2373
 2405poe     o211576   5.592   4.225   5.088  0.2764 -0.3124 -0.1589
 2405poe    c2311577   5.501   4.122   5.058 -0.1617  0.4026 -1.3711
 2405poe    c2311578   5.549   3.996   4.983 -0.4602 -0.4389 -0.1870
 2405poe     o211579   5.528   4.004   4.844  0.2241 -0.5637 -0.3025
 2405poe    c3111580   5.414   3.930   4.805 -0.2610  0.3299 -0.6095
 2406poe    c3111581   5.558   3.614   0.673 -0.5688 -0.0311 -0.0326
 2406poe     o211582   5.479   3.719   0.622 -0.4949 -0.2075 -0.5159
 2406poe    c2311583   5.550   3.816   0.548  0.2374 -1.1624 -1.0924
 2406poe    c2311584   5.441   3.904   0.484  0.0995 -0.4007  0.1609
 2406poe     o211585   5.329   3.905   0.570 -0.0236  0.4287 -0.0037
 2406poe    c2311586   5.226   3.999   0.546 -0.4947 -0.2793 -0.8328
 2406poe    c2311587   5.104   3.967   0.634  0.3491  0.3740  0.6256
 2406poe     o211588   5.130   3.957   0.772 -0.1233 -1.0175  0.6358
 2406poe    c2311589   5.029   3.886   0.839 -0.4321 -0.3756  0.8609
 2406poe    c2311590   5.055   3.894   0.990  0.5048  0.0247  0.6861
 2406poe     o211591   5.175   3.828   1.022  0.3681 -0.2526  0.6365
 2406poe    c3111592   5.199   3.809   1.159  0.4379 -0.2442  0.6260
 2407poe    c3111593   3.165   6.443   5.579 -0.2299  0.2660  0.5292
 2407poe     o211594   3.173   6.561   5.657 -0.1260  0.3221  0.4340
 2407poe    c2311595   3.144   6.520   5.789 -0.4343 -0.3002  0.1775
 2407poe    c2311596   3.237   6.581   5.895 -0.7802  0.6764 -0.0726
 2407poe     o211597   3.239   6.722   5.905  0.6184  0.6350  0.3765
 2407poe    c2311598   3.344   6.794   5.846  0.2036  0.4751 -0.5765
 2407poe    c2311599   3.345   6.947   5.868 -0.5784  0.3541  0.3739
 2407poe     o211600   3.232   7.000   5.803 -0.7508 -0.0324  0.3553
 2407poe    c2311601   3.260   7.129   5.753 -0.7300 -0.0713  0.2685
 2407poe    c2311602   3.141   7.196   5.683 -0.6952  0.3561  0.6167
 2407poe     o211603   3.073   7.099   5.606 -0.2237  0.0949  0.5270
 2407poe    c3111604   2.956   7.135   5.537  0.1493  0.1691 -0.0674
 2408poe    c3111605   4.428   4.093   1.412 -0.1370  0.0526  0.4473
 2408poe     o211606   4.512   3.999   1.477  0.0797 -0.4531 -0.5554
 2408poe    c2311607   4.424   3.940   1.570  0.1316 -0.1084 -0.2869
 2408poe    c2311608   4.480   3.802   1.606  0.3737  0.0548 -0.0312
 2408poe     o211609   4.605   3.792   1.670  0.1794  0.1146  0.3623
 2408poe    c2311610   4.648   3.659   1.658 -0.1319  0.0483 -0.0363
 2408poe    c2311611   4.770   3.631   1.748 -0.1323 -0.0270 -0.0588
 2408poe     o211612   4.872   3.726   1.722  0.2807 -0.3578  0.3404
 2408poe    c2311613   4.958   3.726   1.833 -0.1245  0.0818  0.6599
 2408poe    c2311614   5.031   3.860   1.855 -0.2568  0.2602  0.0361
 2408poe     o211615   4.940   3.963   1.885 -0.7373 -0.0606 -0.3023
 2408poe    c3111616   5.015   4.071   1.936 -0.0437 -0.7716  0.2220
 2409poe    c3111617   7.125   2.528   0.551  0.0120 -0.4501 -0.2131
 2409poe     o211618   7.105   2.637   0.639 -0.1932 -0.2716 -0.4804
 2409poe    c2311619   6.969   2.645   0.674  0.0759 -0.0272  0.5431
 2409poe    c2311620   6.923   2.774   0.744  0.3645  0.4403 -0.1195
 2409poe     o211621   6.994   2.788   0.864 -0.4293 -0.4519  0.4665
 2409poe    c2311622   6.990   2.922   0.909  0.0376 -0.2887  0.0317
 2409poe    c2311623   7.096   2.951   1.017 -0.1625  0.0509  0.1371
 2409poe     o211624   7.230   2.913   0.997 -0.0993  0.3354  0.0068
 2409poe    c2311625   7.322   2.996   1.065  0.3122 -0.4245  0.4021
 2409poe    c2311626   7.464   2.959   1.021  0.1119  0.0228 -0.6673
 2409poe     o211627   7.497   3.000   0.890 -0.0941  0.1589 -0.6759
 2409poe    c3111628   7.555   2.892   0.819  0.8580  0.3407 -0.1869
 2410poe    c3111629   1.975   7.114   2.961  0.1913  0.6454  0.0395
 2410poe     o211630   1.871   7.046   2.895  0.2228  0.1296  0.5115
 2410poe    c2311631   1.910   6.911   2.887  0.3515  0.1976 -0.0621
 2410poe    c2311632   1.798   6.850   2.801 -0.4134  0.7241  0.5437
 2410poe     o211633   1.778   6.914   2.676 -0.2189  0.0044  0.1390
 2410poe    c2311634   1.687   6.841   2.597 -0.0031 -0.2403  0.1142
 2410poe    c2311635   1.658   6.931   2.475  0.3855 -0.0368  0.1701
 2410poe     o211636   1.606   7.058   2.503  0.3328 -0.0527  0.1433
 2410poe    c2311637   1.574   7.136   2.390 -0.5915 -0.0789  0.3728
 2410poe    c2311638   1.489   7.249   2.451 -0.3794  0.1723  0.2055
 2410poe     o211639   1.564   7.303   2.558 -0.4546 -0.1303  0.4128
 2410poe    c3111640   1.485   7.401   2.622 -0.6162 -0.0166  0.0455
 2411poe    c3111641   1.601   6.371   2.726  0.1577 -0.4465  0.0275
 2411poe     o211642   1.609   6.321   2.857  0.0234 -0.3463  0.0746
 2411poe    c2311643   1.705   6.388   2.936  0.0163 -0.1426 -0.0911
 2411poe    c2311644   1.647   6.413   3.077  0.0333  0.0333 -0.1140
 2411poe     o211645   1.567   6.299   3.104 -0.1253  0.2484  0.3292
 2411poe    c2311646   1.485   6.294   3.218  0.0611 -0.3465  0.4386
 2411poe    c2311647   1.424   6.153   3.222 -0.3456 -0.1888 -0.0353
 2411poe     o211648   1.381   6.121   3.092 -0.3569 -0.0475 -0.0659
 2411poe    c2311649   1.300   6.007   3.114 -0.1403 -0.2193 -0.1545
 2411poe    c2311650   1.270   5.922   2.990 -0.4561 -0.4682  0.0938
 2411poe     o211651   1.386   5.888   2.918 -0.1712  0.5132  0.0834
 2411poe    c3111652   1.350   5.814   2.804  0.7345 -0.6594  0.5389
 2412poe    c3111653   1.962   5.273   3.568  0.1594 -0.4885 -0.0817
 2412poe     o211654   1.876   5.185   3.499 -0.5125  0.0039  0.1149
 2412poe    c2311655   1.763   5.253   3.451 -0.3559  0.1972  0.0222
 2412poe    c2311656   1.670   5.169   3.362  0.4056 -0.7060  0.0716
 2412poe     o211657   1.598   5.072   3.434 -0.0687 -0.1881  0.2999
 2412poe    c2311658   1.517   5.018   3.332  0.5790 -0.4568 -0.0809
 2412poe    c2311659   1.371   5.008   3.380  0.4754  0.0500 -0.2942
 2412poe     o211660   1.314   5.137   3.393 -0.1289 -0.2711  0.3327
 2412poe    c2311661   1.188   5.121   3.455 -0.2914 -1.1125 -0.2015
 2412poe    c2311662   1.055   5.074   3.393 -0.3516 -0.6637 -0.4179
 2412poe     o211663   0.934   5.094   3.462 -0.1206 -0.4881 -0.0584
 2412poe    c3111664   0.824   5.026   3.405 -0.3362 -0.6251  0.5190
 2413poe    c3111665   1.767   3.499   5.879 -0.2968  0.1328 -0.3027
 2413poe     o211666   1.760   3.579   5.763 -0.0010 -0.3471 -0.6514
 2413poe    c2311667   1.747   3.715   5.797 -0.1042 -0.4045 -0.4580
 2413poe    c2311668   1.814   3.801   5.688 -0.0427 -0.0835 -0.1659
 2413poe     o211669   1.736   3.806   5.571 -0.2209 -0.4383 -0.0649
 2413poe    c2311670   1.678   3.934   5.559 -0.2214 -0.4284  0.0433
 2413poe    c2311671   1.549   3.965   5.480  0.0455  0.4315 -0.0599
 2413poe     o211672   1.429   3.895   5.501  0.2592  0.0334 -0.1483
 2413poe    c2311673   1.422   3.782   5.418 -0.0573 -0.1949  0.1833
 2413poe    c2311674   1.290   3.706   5.402  0.3308 -0.7643 -0.3820
 2413poe     o211675   1.234   3.637   5.512  0.3404 -0.6078 -0.2807
 2413poe    c3111676   1.109   3.576   5.496 -0.3786  0.6768  0.2506
 2414poe    c3111677   1.955   1.476   6.501  0.7503  0.8231 -0.3171
 2414poe     o211678   2.095   1.456   6.512  0.6325  0.2234  0.1396
 2414poe    c2311679   2.138   1.356   6.602 -0.2571 -0.7259 -0.4651
 2414poe    c2311680   2.291   1.366   6.612 -0.3432  0.5193 -0.1225
 2414poe     o211681   2.365   1.343   6.494 -0.1138 -0.6150  0.2301
 2414poe    c2311682   2.501   1.370   6.521 -0.3487  0.0771  0.7539
 2414poe    c2311683   2.588   1.386   6.395 -0.5125  0.3015  0.6685
 2414poe     o211684   2.525   1.469   6.300  0.5053  0.4023  0.0575
 2414poe    c2311685   2.564   1.443   6.167 -0.0223 -0.2165  0.0175
 2414poe    c2311686   2.467   1.486   6.055 -0.1431  0.8131  0.5052
 2414poe     o211687   2.344   1.420   6.076 -0.0942  0.5510 -0.0261
 2414poe    c3111688   2.237   1.457   5.993 -0.1394  1.0010  0.2320
 2415poe    c3111689   3.092   5.789   4.400 -0.4933  0.1097  0.1012
 2415poe     o211690   3.149   5.699   4.307  0.3659  0.6105  0.1363
 2415poe    c2311691   3.284   5.667   4.331  0.2385  0.1839  0.2811
 2415poe    c2311692   3.382   5.752   4.248 -0.0402  0.4272  0.2018
 2415poe     o211693   3.380   5.744   4.107 -0.5738 -0.0171  0.2316
 2415poe    c2311694   3.430   5.625   4.050  0.4630  0.6035 -0.1828
 2415poe    c2311695   3.459   5.648   3.901  0.1842  0.0877 -0.3188
 2415poe     o211696   3.336   5.699   3.853 -0.1650 -0.7694 -0.3500
 2415poe    c2311697   3.335   5.735   3.716 -0.1251  0.1365 -0.1134
 2415poe    c2311698   3.210   5.823   3.704 -0.1773  0.0961  0.1177
 2415poe     o211699   3.176   5.882   3.827 -0.4185 -0.1541  0.1720
 2415poe    c3111700   3.072   5.977   3.824  0.4496  0.7934 -0.8992
 2416poe    c3111701   1.868   6.626   0.870 -0.2287 -0.1371  0.0067
 2416poe     o211702   1.828   6.761   0.864  0.4784  0.0649 -0.3076
 2416poe    c2311703   1.801   6.790   0.999 -0.0074 -0.5680 -0.2639
 2416poe    c2311704   1.706   6.910   0.993  0.1122 -0.4664 -0.1282
 2416poe     o211705   1.572   6.865   0.988  0.0407 -0.2727  0.0316
 2416poe    c2311706   1.488   6.978   0.997  0.1917 -0.1593  0.0177
 2416poe    c2311707   1.357   6.935   0.929  0.0332  0.1908  0.0962
 2416poe     o211708   1.329   6.806   0.979 -0.5300  0.4149  0.3642
 2416poe    c2311709   1.191   6.779   0.985 -0.4809  0.2320  0.6482
 2416poe    c2311710   1.154   6.658   1.073 -0.4290 -0.1871  0.0974
 2416poe     o211711   1.239   6.555   1.027 -0.4863 -0.2432  0.1170
 2416poe    c3111712   1.188   6.432   1.073 -0.2376 -0.1546  0.6413
 2417poe    c3111713   1.891   5.987   0.070 -0.3130 -0.5909  0.5694
 2417poe     o211714   2.002   6.044   0.137  0.3082 -1.0411 -0.0532
 2417poe    c2311715   2.041   5.953   0.238  0.9139 -0.2234  0.4546
 2417poe    c2311716   2.179   5.994   0.292  0.7228  0.5443  0.3705
 2417poe     o211717   2.174   6.133   0.319  0.0798  0.5627  0.1684
 2417poe    c2311718   2.297   6.184   0.366 -0.1617  0.4602  0.9132
 2417poe    c2311719   2.384   6.243   0.254 -0.7291  0.0068  0.2263
 2417poe     o211720   2.329   6.353   0.186  0.6769  0.1154 -0.7757
 2417poe    c2311721   2.417   6.460   0.161  0.4889  0.4295 -0.1168
 2417poe    c2311722   2.522   6.428   0.053  0.4126  0.4961 -0.2104
 2417poe     o211723   2.477   6.406  -0.079 -0.0122 -0.3219  0.0706
 2417poe    c3111724   2.592   6.398  -0.160 -0.0524  0.0007 -0.0169
 2418poe    c3111725   5.697   4.585   1.375 -1.1219 -0.2998  0.0461
 2418poe     o211726   5.638   4.670   1.279 -0.4034  0.0925 -0.0574
 2418poe    c2311727   5.635   4.807   1.312  0.2424  0.0739  0.0891
 2418poe    c2311728   5.612   4.892   1.186 -0.8846 -0.0713  0.1887
 2418poe     o211729   5.490   4.866   1.121 -0.6617 -0.4089 -0.0952
 2418poe    c2311730   5.495   4.934   0.998 -0.1683 -0.0977  0.0948
 2418poe    c2311731   5.346   4.955   0.967 -0.2153 -0.1651  0.2771
 2418poe     o211732   5.272   4.838   0.995 -0.0833 -0.3785 -0.2710
 2418poe    c2311733   5.136   4.848   0.961 -0.1913  0.4155  0.3707
 2418poe    c2311734   5.085   4.781   0.832  0.2179  0.1376  0.3521
 2418poe     o211735   5.107   4.642   0.848 -0.0703  0.0823  0.2809
 2418poe    c3111736   5.070   4.564   0.737  0.1187  0.1992  0.1353
 2419poe    c3111737   5.717   3.555   1.555 -0.3664  0.4692  0.0505
 2419poe     o211738   5.750   3.691   1.539 -0.0003  0.3233 -0.4743
 2419poe    c2311739   5.883   3.711   1.579 -0.0759 -0.0239 -0.0345
 2419poe    c2311740   5.943   3.852   1.563  0.7558 -0.4230 -0.5273
 2419poe     o211741   5.978   3.890   1.431  1.0322  0.0585 -0.3193
 2419poe    c2311742   6.102   3.955   1.418  1.0476  0.0233 -0.3472
 2419poe    c2311743   6.138   3.994   1.273 -0.1052  0.4171 -0.5361
 2419poe     o211744   6.050   4.091   1.221 -0.5521  0.2589 -0.0865
 2419poe    c2311745   6.083   4.118   1.086 -0.2213  0.6739  0.0794
 2419poe    c2311746   6.054   4.007   0.984 -0.4557  0.8508 -0.0460
 2419poe     o211747   5.918   3.969   0.981 -0.2613  0.1493 -0.1773
 2419poe    c3111748   5.880   3.870   0.889 -0.1341  0.2474 -0.3369
 2420poe    c3111749   1.929   3.949   6.821 -0.0242  0.5475 -0.1728
 2420poe     o211750   1.916   3.891   6.693 -0.5103 -0.4060  0.3043
 2420poe    c2311751   2.033   3.818   6.664  0.0588  0.5154  0.2316
 2420poe    c2311752   2.024   3.765   6.519 -0.1685  0.7616  0.1551
 2420poe     o211753   1.917   3.675   6.506  0.1884  0.3279  0.1768
 2420poe    c2311754   1.933   3.603   6.386 -0.8853  0.0940  0.1578
 2420poe    c2311755   1.801   3.543   6.335 -0.5628 -0.5015  0.0204
 2420poe     o211756   1.732   3.448   6.413  0.2209 -0.8788  0.2673
 2420poe    c2311757   1.604   3.433   6.356  0.5088 -0.2877 -0.5484
 2420poe    c2311758   1.512   3.351   6.448  0.2200  0.6445  0.0164
 2420poe     o211759   1.507   3.399   6.580 -0.6822  0.5560  0.0217
 2420poe    c3111760   1.401   3.333   6.644  0.1070 -0.7812 -0.0165
 2421poe    c3111761   3.354   0.979   2.553 -0.1164  0.3210  0.2588
 2421poe     o211762   3.421   0.939   2.671 -0.0207  0.2310  0.1742
 2421poe    c2311763   3.315   0.928   2.763  0.0869 -0.1632  0.2544
 2421poe    c2311764   3.369   0.899   2.905  0.2546 -0.3866  0.1460
 2421poe     o211765   3.486   0.976   2.919 -0.1525  0.3231 -0.2569
 2421poe    c2311766   3.542   0.949   3.045 -0.8370  0.9663  0.1932
 2421poe    c2311767   3.685   1.008   3.034 -0.5603  0.1835 -0.4660
 2421poe     o211768   3.743   0.963   2.914  0.2132 -0.3773  0.1070
 2421poe    c2311769   3.883   0.970   2.900  0.1483  0.5625 -0.1094
 2421poe    c2311770   3.931   1.112   2.864  0.5219  0.4022 -0.2500
 2421poe     o211771   3.880   1.157   2.740 -0.4211  0.0591  0.0047
 2421poe    c3111772   3.968   1.260   2.701 -0.0557 -0.2237  0.0755
 2422poe    c3111773   2.163   0.328   1.794  0.2454 -0.7471  0.6520
 2422poe     o211774   2.216   0.343   1.664  0.3417 -0.0318  0.7682
 2422poe    c2311775   2.275   0.471   1.658  0.6126 -0.2069 -0.5199
 2422poe    c2311776   2.363   0.506   1.536  0.5294  0.0149 -0.5168
 2422poe     o211777   2.461   0.406   1.517 -0.0306 -0.5647 -0.3790
 2422poe    c2311778   2.551   0.439   1.414  0.7117 -0.1862  0.3745
 2422poe    c2311779   2.621   0.318   1.351  0.1540 -0.1733 -0.2853
 2422poe     o211780   2.526   0.259   1.265 -0.3901 -0.8053  0.7261
 2422poe    c2311781   2.594   0.160   1.192 -0.2144 -0.0126 -0.2131
 2422poe    c2311782   2.498   0.091   1.094 -0.9897  0.0628  0.4856
 2422poe     o211783   2.495   0.176   0.981  0.2609 -0.0919  0.3261
 2422poe    c3111784   2.426   0.120   0.872  0.1782 -0.1747  0.4194
 2423poe    c3111785   6.519   1.321   6.602 -0.4145 -0.0106  0.0737
 2423poe     o211786   6.543   1.256   6.724 -0.2475  0.1522  0.1282
 2423poe    c2311787   6.650   1.316   6.795 -0.2234  0.1822  0.0671
 2423poe    c2311788   6.766   1.216   6.814 -0.2571  0.0806 -0.2549
 2423poe     o211789   6.742   1.126   6.920  0.1883  0.4076  0.1280
 2423poe    c2311790   6.835   1.021   6.921  0.2351  0.4505  0.3733
 2423poe    c2311791   6.795   0.907   7.016  0.5272 -0.5999 -0.7304
 2423poe     o211792   6.664   0.859   6.997  0.2794  0.1204 -0.8658
 2423poe    c2311793   6.632   0.762   7.094  0.2393  0.2993 -0.6987
 2423poe    c2311794   6.507   0.694   7.036  0.1536  0.3063 -0.5238
 2423poe     o211795   6.406   0.784   6.993 -0.0081  0.0841 -0.6084
 2423poe    c3111796   6.282   0.723   6.966 -0.0598 -0.2095  0.2478
 2424poe    c3111797   1.904   3.130   2.453  0.0397 -0.3446  0.5150
 2424poe     o211798   1.804   3.065   2.377  0.5734 -0.4397 -0.1164
 2424poe    c2311799   1.822   2.925   2.374  0.1792 -0.4778 -0.8380
 2424poe    c2311800   1.764   2.847   2.493 -0.0088  0.3153 -0.3999
 2424poe     o211801   1.624   2.859   2.480  0.0079  0.9329 -0.0692
 2424poe    c2311802   1.546   2.778   2.566  0.0955  0.4007 -0.4825
 2424poe    c2311803   1.409   2.847   2.573 -0.2120 -0.2772  0.2951
 2424poe     o211804   1.365   2.857   2.439 -0.0051  0.0343  0.2492
 2424poe    c2311805   1.235   2.911   2.436 -0.3423 -0.7691  0.1123
 2424poe    c2311806   1.190   2.911   2.289  0.2756 -0.0838 -0.0814
 2424poe     o211807   1.304   2.966   2.227  0.2070  0.0345 -0.1025
 2424poe    c3111808   1.274   2.995   2.092 -0.1430  0.5199  0.0773
 2425poe    c3111809   1.652   3.096   1.039  0.3058  0.2838 -0.5178
 2425poe     o211810   1.627   3.033   0.916  0.4739 -0.0022 -0.4078
 2425poe    c2311811   1.693   2.909   0.904  0.9674  0.2057  0.1037
 2425poe    c2311812   1.703   2.870   0.755  0.2662  0.2656  0.0350
 2425poe     o211813   1.754   2.982   0.686  0.4771  0.1522  0.0051
 2425poe    c2311814   1.753   2.950   0.549  0.4833 -0.0077  0.0430
 2425poe    c2311815   1.822   3.070   0.483  0.3360 -0.1105 -0.3022
 2425poe     o211816   1.772   3.190   0.538  0.2410 -0.1790 -0.2380
 2425poe    c2311817   1.803   3.315   0.481 -0.2510  0.4247  0.7852
 2425poe    c2311818   1.940   3.384   0.502 -0.1053  0.4852 -0.2912
 2425poe     o211819   1.956   3.418   0.638 -0.1481  0.3254 -0.2461
 2425poe    c3111820   1.900   3.544   0.666 -0.7677  0.0149 -0.0690
 2426poe    c3111821   6.145   7.165   0.408 -0.0759 -0.1419 -0.1304
 2426poe     o211822   6.128   7.232   0.531  0.5919  0.5550 -0.4070
 2426poe    c2311823   6.242   7.210   0.611  0.2707 -0.0552 -0.1014
 2426poe    c2311824   6.257   7.311   0.726 -0.0012  0.4096 -0.4682
 2426poe     o211825   6.167   7.267   0.826  0.4903 -0.0404 -0.2179
 2426poe    c2311826   6.147   7.374   0.916  0.3342 -0.2983  0.0549
 2426poe    c2311827   6.067   7.335   1.042  0.5532 -0.0697  0.2666
 2426poe     o211828   5.940   7.285   1.008  0.4756  0.1778  0.1864
 2426poe    c2311829   5.872   7.283   1.132 -0.1884  0.2653 -0.1700
 2426poe    c2311830   5.730   7.227   1.116 -0.0782 -0.1524  0.2850
 2426poe     o211831   5.696   7.210   0.980 -0.5921  0.0445  0.3867
 2426poe    c3111832   5.570   7.153   0.953 -0.3560  0.1148 -0.9029
 2427poe    c3111833   4.738   4.262   2.652  0.0422 -0.1175 -0.5033
 2427poe     o211834   4.816   4.182   2.567  0.3236 -0.3558 -0.0289
 2427poe    c2311835   4.900   4.279   2.507  0.2115 -0.1396  0.1614
 2427poe    c2311836   4.997   4.219   2.404 -0.2196 -0.0399 -0.3055
 2427poe     o211837   5.097   4.152   2.479 -0.2289  0.1933 -0.0834
 2427poe    c2311838   5.209   4.110   2.405 -0.0194  0.1432  0.2617
 2427poe    c2311839   5.310   4.054   2.507  0.5553 -0.3450 -0.5601
 2427poe     o211840   5.291   3.939   2.587  0.4074 -0.2792 -0.5011
 2427poe    c2311841   5.395   3.846   2.572  0.9444  0.3342 -0.6380
 2427poe    c2311842   5.500   3.869   2.683  0.4592 -0.3641 -0.0214
 2427poe     o211843   5.474   3.855   2.821  0.0664  0.1914 -0.0363
 2427poe    c3111844   5.587   3.807   2.891  0.0770  0.4696  0.1379
 2428poe    c3111845   0.930   3.952   1.517  0.0158 -0.0920 -0.0633
 2428poe     o211846   0.961   4.031   1.630 -0.3532 -0.3560  0.2233
 2428poe    c2311847   0.942   3.962   1.752  0.9028 -0.4454  0.3778
 2428poe    c2311848   0.950   4.070   1.862 -0.1866 -0.0455  0.0744
 2428poe     o211849   1.065   4.145   1.831  0.0696 -0.4477  0.0493
 2428poe    c2311850   1.147   4.170   1.943 -0.1806  0.7936 -0.0370
 2428poe    c2311851   1.291   4.210   1.905  0.1323 -0.3023 -0.0277
 2428poe     o211852   1.369   4.102   1.859  0.8773  0.4778 -0.6169
 2428poe    c2311853   1.431   4.026   1.961 -0.2552  0.1813 -0.1418
 2428poe    c2311854   1.580   3.993   1.944 -0.3363  0.1360 -0.8244
 2428poe     o211855   1.603   3.896   1.845  0.4564 -0.0579 -0.4576
 2428poe    c3111856   1.741   3.865   1.853  0.5460  0.4990  0.1714
 2429poe    c3111857   2.017   5.361   1.607 -0.1073  0.6461  0.6575
 2429poe     o211858   1.960   5.298   1.720 -0.1889 -0.2762  0.1170
 2429poe    c2311859   1.837   5.240   1.684 -0.3757  0.3864 -0.3141
 2429poe    c2311860   1.755   5.148   1.775 -0.2356 -0.4169 -0.9901
 2429poe     o211861   1.816   5.027   1.815  0.1681  0.0577 -0.1357
 2429poe    c2311862   1.716   4.959   1.886 -0.1970  0.4626 -0.2632
 2429poe    c2311863   1.776   4.829   1.941 -0.0243  0.3287 -0.7725
 2429poe     o211864   1.898   4.860   2.005 -0.3963  0.1723  0.0224
 2429poe    c2311865   1.971   4.747   2.047 -0.1180  0.2687 -0.1955
 2429poe    c2311866   2.106   4.812   2.082 -0.5326  1.0515 -0.0345
 2429poe     o211867   2.170   4.853   1.963 -0.0324 -0.2747 -0.2341
 2429poe    c3111868   2.299   4.898   1.998 -0.2022  0.0915 -0.0757
 2430poe    c3111869   3.428   4.165   4.647  0.1885  0.0464 -0.0721
 2430poe     o211870   3.498   4.077   4.731  0.3646 -0.0692 -0.3376
 2430poe    c2311871   3.615   4.034   4.665 -0.1781 -1.2359 -0.5696
 2430poe    c2311872   3.681   3.938   4.766 -0.1010 -0.3799  0.2118
 2430poe     o211873   3.677   4.002   4.891 -0.5236  0.2615 -0.1262
 2430poe    c2311874   3.776   3.964   4.984 -0.5013  0.2764 -0.1436
 2430poe    c2311875   3.706   3.943   5.119 -0.1748 -0.4354 -0.0776
 2430poe     o211876   3.614   4.049   5.133  0.2089 -0.0168 -0.6840
 2430poe    c2311877   3.576   4.058   5.269  0.3689  0.7432 -0.6861
 2430poe    c2311878   3.458   4.150   5.305  0.2449  0.5347 -0.5603
 2430poe     o211879   3.329   4.129   5.252  0.2297 -0.5115 -0.1359
 2430poe    c3111880   3.229   4.173   5.340  0.3502 -0.3425 -0.0824
 2431poe    c3111881   6.904   4.017   5.512 -0.1117 -0.5450 -0.3200
 2431poe     o211882   6.835   3.914   5.580 -0.4066 -0.0574  0.1285
 2431poe    c2311883   6.882   3.906   5.713 -0.1123  0.2004  0.0420
 2431poe    c2311884   6.762   3.934   5.806 -0.3922  0.0178 -0.2620
 2431poe     o211885   6.651   3.859   5.762 -0.3577  0.1264 -0.5334
 2431poe    c2311886   6.638   3.732   5.822 -0.6476  0.1083 -0.6343
 2431poe    c2311887   6.578   3.639   5.714 -0.3656 -0.6782 -0.1162
 2431poe     o211888   6.654   3.676   5.601 -0.5508  0.1533  0.0255
 2431poe    c2311889   6.634   3.586   5.494 -0.3608 -0.4141  0.4567
 2431poe    c2311890   6.739   3.612   5.384 -0.3407  0.1495  0.6028
 2431poe     o211891   6.746   3.752   5.381  0.0140  0.1236 -0.1453
 2431poe    c3111892   6.807   3.786   5.258 -0.2475 -0.5552 -0.4643
 2432poe    c3111893   1.781   5.181   5.665  0.3270 -0.5895 -0.2846
 2432poe     o211894   1.896   5.229   5.731 -0.1939  0.3129 -0.0321
 2432poe    c2311895   1.982   5.128   5.778 -0.1604  0.3683  0.0261
 2432poe    c2311896   2.085   5.185   5.878 -0.1171 -0.0058  0.1960
 2432poe     o211897   2.135   5.308   5.831  0.1021 -0.2109 -0.1108
 2432poe    c2311898   2.249   5.353   5.901  0.4576 -0.5370 -0.4754
 2432poe    c2311899   2.300   5.492   5.859  0.0583 -0.3706 -0.4188
 2432poe     o211900   2.231   5.603   5.911 -0.1372 -0.7136  0.0616
 2432poe    c2311901   2.303   5.712   5.962 -0.5061 -0.0211 -0.8534
 2432poe    c2311902   2.347   5.815   5.857 -0.1531 -0.1542 -0.8373
 2432poe     o211903   2.443   5.777   5.761  0.5862 -0.4654  0.0151
 2432poe    c3111904   2.485   5.884   5.679  0.1727 -0.3276 -0.0169
 2433poe    c3111905   6.850   1.277   4.960  0.0868 -0.0703  0.0312
 2433poe     o211906   6.855   1.412   4.998 -0.3975 -0.0437  0.0091
 2433poe    c2311907   6.752   1.449   5.087 -0.1291  0.1583  0.2392
 2433poe    c2311908   6.749   1.599   5.119  1.0603  0.2437  0.0176
 2433poe     o211909   6.706   1.669   5.004  0.1375 -0.3538 -0.0120
 2433poe    c2311910   6.736   1.805   5.030  0.0966 -0.3549  0.0428
 2433poe    c2311911   6.647   1.871   4.923 -0.3901 -1.1926 -0.0851
 2433poe     o211912   6.647   1.812   4.795  0.3377 -0.0551 -0.6336
 2433poe    c2311913   6.561   1.879   4.705  0.0509  0.0508 -0.2850
 2433poe    c2311914   6.622   1.840   4.569 -0.5863 -0.2971 -0.4747
 2433poe     o211915   6.619   1.699   4.572  0.1559 -0.3109  0.0330
 2433poe    c3111916   6.674   1.628   4.464 -0.0086  0.3743 -0.5055
 2434poe    c3111917   4.868   5.515   2.846  0.4108 -0.0966  0.3835
 2434poe     o211918   4.896   5.387   2.899 -0.0650 -0.2042  0.3753
 2434poe    c2311919   4.794   5.295   2.867  0.0971 -0.2918  0.1134
 2434poe    c2311920   4.865   5.166   2.822 -0.0021 -0.4352  0.3651
 2434poe     o211921   4.971   5.146   2.912  0.2115  0.4764  0.3211
 2434poe    c2311922   5.009   5.011   2.903  0.1331  0.4639  0.1750
 2434poe    c2311923   5.119   4.970   3.002  0.1107  0.1641  0.0780
 2434poe     o211924   5.224   5.060   2.973 -0.1648  0.2620 -0.6296
 2434poe    c2311925   5.342   5.023   3.041 -0.8267  0.7817  0.8360
 2434poe    c2311926   5.437   5.144   3.052 -0.1028  0.3036 -0.1160
 2434poe     o211927   5.396   5.232   3.153 -0.3017  0.0480  0.0285
 2434poe    c3111928   5.506   5.309   3.199 -0.4172  0.3010 -0.1167
 2435poe    c3111929   1.034   0.624   4.971  0.0685 -0.6681 -0.1759
 2435poe     o211930   1.083   0.622   5.104  0.2556  0.6880 -0.2173
 2435poe    c2311931   1.090   0.494   5.162  0.0331  0.8790  0.2294
 2435poe    c2311932   1.210   0.477   5.257  0.4156  0.0959 -0.3884
 2435poe     o211933   1.219   0.562   5.369 -0.3180  0.1543 -0.3671
 2435poe    c2311934   1.283   0.490   5.472 -0.1062  0.6765 -0.1285
 2435poe    c2311935   1.262   0.541   5.616 -0.4005  0.9828 -0.2797
 2435poe     o211936   1.136   0.490   5.656 -0.0337  0.2743 -0.0080
 2435poe    c2311937   1.097   0.549   5.778 -0.0413 -0.0084  0.1249
 2435poe    c2311938   1.176   0.501   5.902  0.1011 -0.5138 -0.1580
 2435poe     o211939   1.154   0.364   5.926 -0.1165 -0.4882 -0.1999
 2435poe    c3111940   1.235   0.320   6.034 -0.3728 -0.9819 -0.2081
 2436poe    c3111941   5.700   2.220   2.037  0.3654 -0.0814  0.4434
 2436poe     o211942   5.754   2.119   2.118  0.9445  0.2529  0.4874
 2436poe    c2311943   5.656   2.074   2.209 -0.0729 -0.3728 -0.8757
 2436poe    c2311944   5.697   1.935   2.260  0.2046 -0.0602 -0.2222
 2436poe     o211945   5.725   1.837   2.162  0.0961  0.1376 -0.4515
 2436poe    c2311946   5.779   1.729   2.234  0.0124 -0.1468 -0.8072
 2436poe    c2311947   5.855   1.620   2.157  0.4542 -0.2300 -0.2628
 2436poe     o211948   5.780   1.533   2.075 -0.3732 -0.0998  0.3359
 2436poe    c2311949   5.855   1.471   1.973  0.2131  0.3347  0.4946
 2436poe    c2311950   5.766   1.359   1.914  0.6619  0.0672  0.3172
 2436poe     o211951   5.801   1.292   1.795  0.3134 -0.6009  0.5838
 2436poe    c3111952   5.706   1.199   1.750  0.0790  0.1730 -0.5544
 2437poe    c3111953   2.077   5.019   1.422  0.7403 -0.4872  0.4855
 2437poe     o211954   2.013   4.902   1.468  0.1409 -0.2191  0.3419
 2437poe    c2311955   1.979   4.812   1.364 -0.3483 -0.2718  0.5462
 2437poe    c2311956   1.927   4.670   1.390 -0.5184 -0.1853  0.6829
 2437poe     o211957   1.791   4.650   1.422 -0.7820  0.2109 -0.1617
 2437poe    c2311958   1.730   4.603   1.304 -0.4559 -0.0155 -0.2423
 2437poe    c2311959   1.576   4.607   1.310 -0.4165  1.3655  0.2771
 2437poe     o211960   1.535   4.601   1.445 -0.2708  0.5353  0.2882
 2437poe    c2311961   1.400   4.562   1.449 -0.1690  0.1775  0.2835
 2437poe    c2311962   1.340   4.577   1.590 -0.5917 -0.5478  0.1891
 2437poe     o211963   1.407   4.499   1.686  0.0460  0.0986  0.2794
 2437poe    c3111964   1.337   4.529   1.805  0.0491  0.2591  0.2411
 2438poe    c3111965   4.031   1.953   1.215  0.2929  0.2218 -0.1206
 2438poe     o211966   4.035   1.949   1.356 -0.0713  0.0798 -0.1142
 2438poe    c2311967   3.956   2.052   1.410 -0.1149  0.1337 -0.2809
 2438poe    c2311968   3.971   2.057   1.563  0.2609  0.7804 -0.3376
 2438poe     o211969   4.086   1.987   1.606 -0.0862  0.4638  0.0838
 2438poe    c2311970   4.074   1.921   1.730 -0.1447  0.4507  0.0711
 2438poe    c2311971   4.221   1.907   1.774 -0.1801 -0.6208 -0.1261
 2438poe     o211972   4.299   1.842   1.677  0.0194 -0.2082 -0.2408
 2438poe    c2311973   4.388   1.751   1.737 -0.3541 -0.5210 -0.1614
 2438poe    c2311974   4.489   1.669   1.654  0.1320  0.0378 -0.1267
 2438poe     o211975   4.424   1.596   1.553  0.1453 -0.2965  0.1039
 2438poe    c3111976   4.515   1.520   1.477  0.1935 -0.1933  0.0593
 2439poe    c3111977   1.248   5.576   6.237  0.3203  0.3304  0.2193
 2439poe     o211978   1.146   5.486   6.199  0.3517  0.5766 -0.4619
 2439poe    c2311979   1.198   5.386   6.114 -0.1971  0.0159 -0.1428
 2439poe    c2311980   1.085   5.299   6.055 -0.1494 -0.0142 -0.1882
 2439poe     o211981   1.027   5.216   6.152 -0.1553  0.1506 -0.0502
 2439poe    c2311982   0.932   5.122   6.107 -0.0102  0.1965 -0.4562
 2439poe    c2311983   0.886   5.036   6.226  0.1313  0.3291 -0.3038
 2439poe     o211984   0.833   5.114   6.330  0.3131  0.2446 -0.1480
 2439poe    c2311985   0.811   5.027   6.439 -0.3179  0.5349 -0.0380
 2439poe    c2311986   0.734   5.088   6.558  0.0802  0.1098  0.4427
 2439poe     o211987   0.595   5.065   6.556  0.2127 -0.6885  0.1314
 2439poe    c3111988   0.535   5.071   6.683 -0.2864 -0.1150 -0.1263
 2440poe    c3111989   3.624   0.831   4.992  0.3329  0.0018 -0.0030
 2440poe     o211990   3.504   0.904   4.980  0.1236 -0.2707  0.3878
 2440poe    c2311991   3.523   1.026   5.048 -0.0383  0.0704 -0.1723
 2440poe    c2311992   3.405   1.126   5.053 -0.1096 -0.0261  0.1166
 2440poe     o211993   3.288   1.077   5.114 -0.2651 -0.2351 -0.3393
 2440poe    c2311994   3.180   1.165   5.135  0.0684 -0.0292  0.5609
 2440poe    c2311995   3.059   1.086   5.188 -0.2506  0.6171  0.8128
 2440poe     o211996   3.087   1.021   5.310 -0.0499  0.0393  0.4598
 2440poe    c2311997   2.988   0.929   5.352 -0.1085 -0.1171 -0.0099
 2440poe    c2311998   3.033   0.804   5.429  1.1635  0.2234 -0.1756
 2440poe     o211999   3.108   0.716   5.349  0.4427 -0.0768 -0.5351
 2440poe    c3112000   3.108   0.594   5.418 -0.7053  0.0185 -0.3539
 2441poe    c3112001   3.026   4.478   3.477  0.0490 -0.1587  0.0026
 2441poe     o212002   3.160   4.466   3.436  0.0065 -0.1877 -0.1284
 2441poe    c2312003   3.175   4.465   3.296 -0.0242 -0.5942 -0.1307
 2441poe    c2312004   3.323   4.451   3.257 -0.1974 -0.0336 -1.0279
 2441poe     o212005   3.385   4.353   3.336  0.1747  0.6235 -0.4899
 2441poe    c2312006   3.499   4.298   3.273  0.2906  0.7454 -0.3877
 2441poe    c2312007   3.560   4.182   3.353 -0.2309  0.6437 -0.1325
 2441poe     o212008   3.614   4.231   3.474  0.0710  0.4604 -0.1914
 2441poe    c2312009   3.703   4.137   3.528 -0.3502 -0.2416 -0.7067
 2441poe    c2312010   3.852   4.175   3.515 -0.2843 -0.2557 -0.0283
 2441poe     o212011   3.885   4.290   3.590 -0.0775 -0.3084 -0.0390
 2441poe    c3112012   4.025   4.303   3.605 -0.1429  0.1256  0.2230
 2442poe    c3112013   3.999   4.779   4.790  0.2489  0.4147  0.9104
 2442poe     o212014   4.024   4.914   4.758  0.2300  0.3330  0.5393
 2442poe    c2312015   4.155   4.913   4.706 -0.1789 -0.2625 -0.5070
 2442poe    c2312016   4.192   5.059   4.675 -1.2480 -0.0464 -0.8018
 2442poe     o212017   4.125   5.136   4.772 -0.6254 -0.1741 -0.2593
 2442poe    c2312018   4.158   5.272   4.792 -0.3616 -0.2990  0.1511
 2442poe    c2312019   4.058   5.347   4.881  0.1129  0.0321  0.4137
 2442poe     o212020   4.024   5.270   4.994 -0.2313 -0.2626  0.1124
 2442poe    c2312021   3.926   5.325   5.079 -0.0236 -0.5155  0.5180
 2442poe    c2312022   3.942   5.327   5.233  0.3653  0.0233  0.4751
 2442poe     o212023   3.937   5.195   5.282 -0.3844  0.1603  0.7850
 2442poe    c3112024   3.934   5.192   5.423  0.4457 -0.1993  0.7978
 2443poe    c3112025   2.126   2.765   4.825  0.1082  0.5973  0.0805
 2443poe     o212026   2.033   2.735   4.723  0.6328 -0.4334 -0.1058
 2443poe    c2312027   2.044   2.604   4.672  0.2488 -0.5747  0.1697
 2443poe    c2312028   1.958   2.597   4.545 -0.1317  0.2363  0.3783
 2443poe     o212029   1.823   2.618   4.579 -0.2960  0.2632 -0.2842
 2443poe    c2312030   1.750   2.651   4.462  0.1354  0.9302 -0.3671
 2443poe    c2312031   1.622   2.723   4.507 -0.1048  0.3525 -0.1133
 2443poe     o212032   1.657   2.856   4.538 -0.1249  0.3300  0.0045
 2443poe    c2312033   1.557   2.939   4.593 -0.3072  0.1697 -0.0865
 2443poe    c2312034   1.582   3.091   4.598 -0.1732  0.1228  0.6617
 2443poe     o212035   1.700   3.138   4.661  0.4925 -0.4161 -0.1516
 2443poe    c3112036   1.658   3.188   4.786  0.3982  0.5681 -0.5681
 2444poe    c3112037   3.980   3.155   5.480 -0.5434  0.3343  0.1243
 2444poe     o212038   3.845   3.155   5.521 -0.5705 -0.0122  0.0449
 2444poe    c2312039   3.796   3.287   5.526  0.0876  0.2456 -0.1178
 2444poe    c2312040   3.660   3.281   5.599  0.0880  0.1080 -0.1283
 2444poe     o212041   3.692   3.302   5.734  0.0054 -0.1924 -0.0612
 2444poe    c2312042   3.577   3.287   5.815 -0.0933  0.8551  0.0088
 2444poe    c2312043   3.644   3.232   5.942  0.5916 -0.1506 -0.7668
 2444poe     o212044   3.703   3.336   6.017 -0.2861  0.1455 -0.4760
 2444poe    c2312045   3.726   3.302   6.152 -0.4563  0.2990 -0.4078
 2444poe    c2312046   3.787   3.402   6.253 -0.0821  0.1059 -0.4428
 2444poe     o212047   3.703   3.505   6.297  0.1454  0.2215 -0.2778
 2444poe    c3112048   3.619   3.469   6.405  0.4729  0.7801  0.1635
 2445poe    c3112049   3.016   1.719   0.846  0.1650  0.1546  0.2088
 2445poe     o212050   3.137   1.673   0.903  0.0830  0.5386  0.6959
 2445poe    c2312051   3.157   1.534   0.915  0.0269  0.3948 -0.7140
 2445poe    c2312052   3.272   1.486   1.006 -0.4035  0.1932 -0.2746
 2445poe     o212053   3.238   1.484   1.143  0.6112  0.5123 -0.0122
 2445poe    c2312054   3.346   1.425   1.211  0.3299  0.2800  0.2340
 2445poe    c2312055   3.310   1.410   1.360 -0.4102  0.2370  0.0553
 2445poe     o212056   3.236   1.521   1.405 -0.4134  0.1899  0.1677
 2445poe    c2312057   3.182   1.517   1.535 -0.5227  0.3214  0.1274
 2445poe    c2312058   3.102   1.646   1.556  0.1469  0.7109  0.3089
 2445poe     o212059   2.990   1.666   1.472  0.2194  0.5533  0.1741
 2445poe    c3112060   2.956   1.802   1.458  0.8537  0.7396  0.4058
 2446poe    c3112061   3.598   3.039   3.351  0.3439  0.1493  0.1795
 2446poe     o212062   3.510   3.146   3.378  0.2493  0.1981 -0.3132
 2446poe    c2312063   3.586   3.253   3.430  0.3044 -0.1938  0.4248
 2446poe    c2312064   3.527   3.395   3.429  0.5533 -0.0901  0.1005
 2446poe     o212065   3.434   3.424   3.531 -0.3158 -0.6120 -0.5320
 2446poe    c2312066   3.382   3.556   3.529  0.7537 -0.1544  0.4299
 2446poe    c2312067   3.306   3.588   3.658  0.3094 -0.1613  0.1727
 2446poe     o212068   3.184   3.519   3.672  0.2330 -0.0061  0.2801
 2446poe    c2312069   3.093   3.597   3.746  0.0642  0.2438 -0.1847
 2446poe    c2312070   2.965   3.520   3.782  0.0915  0.2322 -0.1117
 2446poe     o212071   2.999   3.393   3.833 -0.0338  0.1459 -0.2389
 2446poe    c3112072   2.893   3.339   3.908  0.4575 -0.3293  0.1203
 2447poe    c3112073   6.161   2.104   4.729  0.0055 -0.1250  0.2815
 2447poe     o212074   6.242   2.217   4.705 -0.4315  0.1276 -0.0012
 2447poe    c2312075   6.154   2.327   4.711 -0.3050  0.2215  0.1370
 2447poe    c2312076   6.230   2.458   4.690  0.0518 -0.0109 -0.0187
 2447poe     o212077   6.297   2.505   4.805  0.1432  0.1540 -0.1385
 2447poe    c2312078   6.404   2.596   4.791  0.7858 -0.5098  0.4007
 2447poe    c2312079   6.444   2.663   4.923  0.4420 -0.1135  0.3046
 2447poe     o212080   6.350   2.758   4.969  0.1242 -0.1430 -0.2754
 2447poe    c2312081   6.423   2.840   5.058  0.0296 -0.4043  0.0409
 2447poe    c2312082   6.338   2.890   5.177 -0.2316  0.0518 -0.3380
 2447poe     o212083   6.242   2.984   5.135 -0.0336  0.3388 -0.1497
 2447poe    c3112084   6.176   3.034   5.250  0.3405 -0.0345  0.2304
 2448poe    c3112085   2.327   4.981   6.642  0.1670 -0.2465 -0.3894
 2448poe     o212086   2.405   4.890   6.716 -0.0714 -0.4678 -0.4095
 2448poe    c2312087   2.517   4.844   6.644  0.2205 -0.2284 -0.1098
 2448poe    c2312088   2.595   4.753   6.740  0.2642 -0.1566 -0.0769
 2448poe     o212089   2.507   4.682   6.825  0.1556  0.3237  0.2138
 2448poe    c2312090   2.586   4.603   6.911 -0.3231 -0.1827  0.1916
 2448poe    c2312091   2.502   4.502   6.993 -0.0048 -0.0315  0.7106
 2448poe     o212092   2.471   4.393   6.909 -0.3114  0.2897  0.4024
 2448poe    c2312093   2.441   4.276   6.981  0.0406 -0.1306 -0.1318
 2448poe    c2312094   2.392   4.150   6.907 -0.2285 -0.4284  0.5486
 2448poe     o212095   2.486   4.103   6.813 -0.0928 -0.1370  0.5391
 2448poe    c3112096   2.479   3.963   6.798  0.3741 -0.0884 -0.1765
 2449poe    c3112097   5.116   6.391   0.959  0.3124 -0.3960  0.2854
 2449poe     o212098   5.220   6.390   0.864  0.0856  0.2383  0.0237
 2449poe    c2312099   5.191   6.483   0.761 -0.0529 -0.0790 -0.2261
 2449poe    c2312100   5.141   6.415   0.632 -0.3702 -0.5460  0.1364
 2449poe     o212101   5.076   6.496   0.536  0.3964 -0.3868 -0.2540
 2449poe    c2312102   5.052   6.433   0.412  0.2300 -0.1214 -0.3553
 2449poe    c2312103   4.923   6.350   0.408 -0.0810  0.3544 -0.2791
 2449poe     o212104   4.904   6.234   0.486  0.2048  0.6793  0.2757
 2449poe    c2312105   4.774   6.217   0.538  0.1147  0.3365 -0.0631
 2449poe    c2312106   4.717   6.309   0.648  0.0768  0.2300  0.0073
 2449poe     o212107   4.805   6.298   0.757  0.1621  0.2546 -0.0579
 2449poe    c3112108   4.743   6.343   0.876  0.6626  0.2155  0.2180
 2450poe    c3112109   6.329   4.433   2.482  0.1291 -0.9450 -0.4348
 2450poe     o212110   6.457   4.493   2.484 -0.1536 -0.3487  0.1713
 2450poe    c2312111   6.502   4.489   2.350  0.2824 -0.2862  0.3145
 2450poe    c2312112   6.656   4.487   2.345  0.2991 -0.2467  0.7531
 2450poe     o212113   6.722   4.599   2.400 -0.1356  0.1781  0.4182
 2450poe    c2312114   6.860   4.598   2.369 -0.2678  0.5063 -0.1995
 2450poe    c2312115   6.933   4.682   2.476 -0.2428  0.2963 -0.0519
 2450poe     o212116   6.850   4.795   2.493 -0.0815  0.4227 -0.1109
 2450poe    c2312117   6.914   4.901   2.561  0.9343 -0.0431 -0.3173
 2450poe    c2312118   6.842   5.022   2.499  0.1204 -0.3391  0.0398
 2450poe     o212119   6.704   5.001   2.519  0.1225  0.0399  0.4652
 2450poe    c3112120   6.633   5.116   2.479  0.1201 -0.0575  0.1871
 2451poe    c3112121   1.617   4.546   3.704  0.1419  0.6553 -0.1657
 2451poe     o212122   1.503   4.612   3.754 -0.0994  0.2552 -0.1885
 2451poe    c2312123   1.469   4.727   3.681  0.1398  0.4046 -0.0674
 2451poe    c2312124   1.340   4.807   3.708 -0.3567 -0.5692  0.5019
 2451poe     o212125   1.219   4.736   3.697 -0.4143 -0.4734  0.5130
 2451poe    c2312126   1.108   4.805   3.750 -0.4501 -0.4707  0.4339
 2451poe    c2312127   0.987   4.717   3.785 -0.7445 -0.4507 -0.5004
 2451poe     o212128   1.004   4.637   3.900  0.2964 -0.1708 -0.4549
 2451poe    c2312129   0.899   4.544   3.892  0.3122 -0.2173 -0.1278
 2451poe    c2312130   0.919   4.427   3.991  0.1474  0.2007  0.4062
 2451poe     o212131   1.054   4.388   3.988  0.2066  0.3636  0.9764
 2451poe    c3112132   1.065   4.259   4.045 -0.2723 -0.0377  0.1776
 2452poe    c3112133   2.154   6.139   0.713 -0.8362  0.7024  0.9125
 2452poe     o212134   2.211   6.069   0.822 -0.8451  0.2405  0.6238
 2452poe    c2312135   2.178   5.932   0.817 -0.0068  0.0628 -0.3496
 2452poe    c2312136   2.240   5.846   0.928 -0.2536  0.1136 -0.1715
 2452poe     o212137   2.198   5.876   1.060 -0.3093 -0.2970 -0.0955
 2452poe    c2312138   2.287   5.807   1.145 -0.0217 -0.1497 -0.2778
 2452poe    c2312139   2.243   5.777   1.289  0.6551  0.3585  0.0429
 2452poe     o212140   2.352   5.745   1.372  0.3613 -0.8216 -0.0033
 2452poe    c2312141   2.304   5.720   1.503 -0.7532  0.4022 -0.1560
 2452poe    c2312142   2.374   5.813   1.603  0.4716 -0.0498 -0.5682
 2452poe     o212143   2.512   5.815   1.573  0.5706  0.1408 -0.1020
 2452poe    c3112144   2.581   5.888   1.672  0.1338  0.1655  0.1896
 2453poe    c3112145   0.266   1.659   2.301 -0.3999  0.2834 -0.1301
 2453poe     o212146   0.134   1.696   2.269 -0.5532 -0.1967 -0.0594
 2453poe    c2312147   0.126   1.713   2.129  0.6600  0.0311 -0.1085
 2453poe    c2312148  -0.011   1.766   2.084  0.1976 -0.8787  0.2040
 2453poe     o212149  -0.114   1.678   2.124  0.1569 -0.8353  0.1955
 2453poe    c2312150  -0.230   1.702   2.047  0.0491 -0.0835  0.5797
 2453poe    c2312151  -0.322   1.581   2.069 -0.5096  0.2465  0.0787
 2453poe     o212152  -0.350   1.579   2.207  0.2855  0.3119  0.2456
 2453poe    c2312153  -0.436   1.473   2.243  0.4900 -0.0500 -0.3356
 2453poe    c2312154  -0.455   1.509   2.391 -0.0093 -0.1302 -0.3774
 2453poe     o212155  -0.328   1.515   2.452 -0.3260 -0.7679  0.3712
 2453poe    c3112156  -0.333   1.541   2.591  0.6296  0.1200  0.2542
 2454poe    c3112157   5.852   5.246   1.126  0.2090  0.3930 -0.2473
 2454poe     o212158   5.933   5.355   1.087 -0.4199  0.6175 -0.9357
 2454poe    c2312159   5.879   5.479   1.126 -0.1242  0.3613  0.3288
 2454poe    c2312160   5.953   5.600   1.066 -0.5333  0.5171  0.1363
 2454poe     o212161   6.091   5.580   1.090 -0.4005  1.2726  0.0425
 2454poe    c2312162   6.140   5.620   1.216 -0.0371  0.6224  0.1134
 2454poe    c2312163   6.281   5.572   1.255 -0.3021  0.0695  0.3918
 2454poe     o212164   6.298   5.433   1.271 -0.0409  0.1226  0.5740
 2454poe    c2312165   6.435   5.399   1.265 -0.1955 -0.3656 -0.3797
 2454poe    c2312166   6.447   5.248   1.237  0.8289 -0.2492 -0.6125
 2454poe     o212167   6.389   5.225   1.110 -0.5052 -0.2345 -0.0225
 2454poe    c3112168   6.377   5.085   1.100  0.4446 -0.2888 -0.5640
 2455poe    c3112169   3.915   6.482   3.784  0.5927 -0.0715  0.0070
 2455poe     o212170   3.845   6.377   3.721 -0.0999  0.3116  0.1235
 2455poe    c2312171   3.926   6.268   3.759  0.0278  0.2583 -0.2910
 2455poe    c2312172   3.889   6.139   3.684 -0.2027  0.1000  0.0919
 2455poe     o212173   3.776   6.072   3.736 -0.5981  0.5310 -0.2128
 2455poe    c2312174   3.744   5.943   3.691 -0.6212  0.3665  0.2769
 2455poe    c2312175   3.674   5.936   3.554  0.0778  0.6949 -0.1055
 2455poe     o212176   3.556   6.011   3.535 -0.2023  0.3564  0.2759
 2455poe    c2312177   3.583   6.128   3.462  0.5974  0.2710  0.4257
 2455poe    c2312178   3.464   6.226   3.458  0.4128  0.0311  0.0031
 2455poe     o212179   3.422   6.252   3.590  0.3136  0.6083 -0.1374
 2455poe    c3112180   3.313   6.341   3.603 -0.0833  0.1656 -0.3662
 2456poe    c3112181   4.165   5.156   1.229  0.2276  0.4050  0.2443
 2456poe     o212182   4.074   5.091   1.314  0.0946 -0.0761 -0.2641
 2456poe    c2312183   3.951   5.099   1.245 -0.0260 -0.1244 -0.0592
 2456poe    c2312184   3.845   4.995   1.284  0.5851 -0.5879  0.3859
 2456poe     o212185   3.882   4.859   1.279  0.5770 -0.5898  0.3741
 2456poe    c2312186   3.764   4.788   1.310  0.3165  0.2184  1.2644
 2456poe    c2312187   3.793   4.640   1.342  0.5666  0.0254  0.1664
 2456poe     o212188   3.890   4.629   1.444  0.1662  0.8094  0.6338
 2456poe    c2312189   3.919   4.497   1.482  0.4007  0.5640 -0.3653
 2456poe    c2312190   4.023   4.470   1.592 -0.3468  0.1844  0.2599
 2456poe     o212191   4.157   4.476   1.548 -0.3086 -0.3838  0.2946
 2456poe    c3112192   4.242   4.431   1.651  0.2054  0.1661  0.1115
 2457poe    c3112193   2.964   5.587   3.765  0.9530  0.4706 -0.2712
 2457poe     o212194   2.921   5.602   3.631  0.4704  0.1404 -0.1556
 2457poe    c2312195   2.837   5.714   3.621 -0.2785 -0.4022 -0.0106
 2457poe    c2312196   2.791   5.743   3.477 -0.0206  0.0220 -0.0072
 2457poe     o212197   2.893   5.774   3.385  0.1360 -0.1474  0.1086
 2457poe    c2312198   2.972   5.890   3.401 -0.4618  0.3853 -0.7461
 2457poe    c2312199   3.112   5.888   3.336 -0.3006  0.9758 -0.4176
 2457poe     o212200   3.211   5.809   3.398 -0.8829  0.0007 -0.7236
 2457poe    c2312201   3.336   5.836   3.340 -0.5169 -0.2505 -0.0526
 2457poe    c2312202   3.454   5.743   3.375  0.1659  0.3283 -0.7776
 2457poe     o212203   3.411   5.609   3.385  0.2132  0.3759  0.1786
 2457poe    c3112204   3.532   5.544   3.417  0.0541 -0.0696 -0.1086
 2458poe    c3112205   0.201   4.731   6.233  0.1881 -0.1995 -0.3882
 2458poe     o212206   0.309   4.651   6.190  0.0306 -0.4669 -0.2859
 2458poe    c2312207   0.287   4.650   6.051 -0.1464  0.1217 -0.2648
 2458poe    c2312208   0.408   4.568   6.002 -0.1829 -0.3383  0.4125
 2458poe     o212209   0.469   4.483   6.097  0.0585 -0.4864  0.1284
 2458poe    c2312210   0.553   4.393   6.028  0.6670  0.3123 -0.1781
 2458poe    c2312211   0.665   4.331   6.113  0.3162 -0.0956 -0.0086
 2458poe     o212212   0.726   4.448   6.165 -0.0348  0.1096 -0.0550
 2458poe    c2312213   0.820   4.415   6.265  0.3191  0.2657 -0.3365
 2458poe    c2312214   0.862   4.538   6.348 -0.6535  0.4307 -0.0839
 2458poe     o212215   0.768   4.577   6.446 -0.6465  0.1893  0.0201
 2458poe    c3112216   0.834   4.668   6.530  0.0087  0.0183 -0.3060
 2459poe    c3112217   3.784   2.644   3.048  0.6913 -0.6175  0.0579
 2459poe     o212218   3.905   2.711   3.022 -0.1794  1.0443  0.0781
 2459poe    c2312219   4.019   2.652   3.082 -0.5214 -0.1366 -0.4012
 2459poe    c2312220   4.146   2.704   3.011 -0.1275 -0.0716  0.3406
 2459poe     o212221   4.142   2.845   3.023  0.1071 -0.0901  0.6430
 2459poe    c2312222   4.244   2.906   2.946 -0.0222 -0.2951  0.3044
 2459poe    c2312223   4.223   3.057   2.927  0.5235 -0.2501  0.0390
 2459poe     o212224   4.209   3.115   3.054 -0.5211 -0.0012 -0.1774
 2459poe    c2312225   4.207   3.254   3.031 -0.0186  0.0067 -0.1913
 2459poe    c2312226   4.154   3.309   3.165 -0.2216  0.4530 -0.4521
 2459poe     o212227   4.045   3.233   3.210  0.1669  0.2390  0.1441
 2459poe    c3112228   4.004   3.260   3.342 -0.2548 -0.1932  0.1057
 2460poe    c3112229   3.923   2.470   0.150  0.2219 -0.4970 -0.3550
 2460poe     o212230   3.970   2.369   0.064  0.9584  0.0344 -0.5941
 2460poe    c2312231   3.971   2.395  -0.074  0.3887  0.9703 -0.4301
 2460poe    c2312232   4.108   2.387  -0.144  0.6298  0.0203  0.1309
 2460poe     o212233   4.167   2.260  -0.161 -0.2286 -0.3479 -0.1778
 2460poe    c2312234   4.112   2.187  -0.267  0.2305 -0.6943 -0.1790
 2460poe    c2312235   4.199   2.061  -0.282  0.6234 -0.4591  0.1190
 2460poe     o212236   4.217   1.991  -0.160  0.0707  0.1225  0.5376
 2460poe    c2312237   4.323   1.899  -0.171  0.0073  0.0746  0.3244
 2460poe    c2312238   4.318   1.821  -0.039  0.3292 -0.0970  0.2365
 2460poe     o212239   4.308   1.916   0.065 -0.7293 -0.0436  0.0955
 2460poe    c3112240   4.312   1.852   0.190 -0.1033 -0.3469 -0.0789
 2461poe    c3112241   6.244   6.409   1.782 -1.1253  0.3470  0.0922
 2461poe     o212242   6.163   6.381   1.894  0.1400  0.0549  0.9590
 2461poe    c2312243   6.029   6.420   1.874  0.2510 -0.0155  0.0273
 2461poe    c2312244   5.937   6.355   1.979 -0.1126  0.0626 -0.2412
 2461poe     o212245   5.961   6.414   2.105 -0.7410  0.3529 -0.2556
 2461poe    c2312246   5.909   6.337   2.211  0.1556  0.3664  0.1930
 2461poe    c2312247   5.976   6.202   2.244 -0.2408  0.2090  0.3531
 2461poe     o212248   6.099   6.221   2.310 -0.1426 -0.1740  0.2774
 2461poe    c2312249   6.133   6.099   2.372 -0.2857 -0.1594  0.3832
 2461poe    c2312250   6.208   6.118   2.505  0.4071 -0.1778 -0.0031
 2461poe     o212251   6.320   6.195   2.467  0.2500  0.0641  0.0233
 2461poe    c3112252   6.430   6.161   2.548 -0.0409 -0.2425  0.2896
 2462poe    c3112253   1.609   6.617   5.712 -0.0430  0.2813 -0.5515
 2462poe     o212254   1.739   6.632   5.660  0.3852  0.1317  0.4581
 2462poe    c2312255   1.758   6.740   5.572 -0.6389 -0.0126  0.0464
 2462poe    c2312256   1.856   6.687   5.465  0.3525  1.3804  0.2416
 2462poe     o212257   1.978   6.629   5.506 -0.2826 -0.0529  0.1489
 2462poe    c2312258   2.037   6.551   5.404  0.4920  0.0614  0.5014
 2462poe    c2312259   2.188   6.526   5.419  0.4548 -0.1643  0.5037
 2462poe     o212260   2.264   6.645   5.406  0.1564  0.0031  0.2646
 2462poe    c2312261   2.380   6.638   5.487  0.2858 -0.1956  0.0630
 2462poe    c2312262   2.454   6.772   5.507 -0.0084  0.0330 -0.3421
 2462poe     o212263   2.375   6.855   5.589  0.2386 -0.0708  0.0019
 2462poe    c3112264   2.422   6.987   5.589 -0.3094  0.1293 -0.0237
 2463poe    c3112265   2.827   0.844   1.510 -0.4829 -0.0135  0.5441
 2463poe     o212266   2.690   0.855   1.538 -0.6656 -0.2766 -0.2040
 2463poe    c2312267   2.667   0.895   1.672 -0.5852  0.1170 -0.3066
 2463poe    c2312268   2.538   0.825   1.719 -0.5515  0.1020 -0.2365
 2463poe     o212269   2.435   0.842   1.625 -0.3344  0.4794 -0.4106
 2463poe    c2312270   2.338   0.907   1.704 -0.1362 -0.7157  0.8452
 2463poe    c2312271   2.213   0.948   1.624  0.6474 -0.4796 -0.2704
 2463poe     o212272   2.250   1.037   1.521 -0.3641 -0.3493 -0.5235
 2463poe    c2312273   2.133   1.104   1.478 -0.1644  0.4050  0.1069
 2463poe    c2312274   2.137   1.083   1.326  0.4264  0.4384  0.1158
 2463poe     o212275   2.268   1.114   1.284  0.3114  0.2379 -0.4082
 2463poe    c3112276   2.291   1.130   1.146 -0.1152  0.0684 -0.4977
 2464poe    c3112277   1.120   0.485   2.432 -0.4796  0.8083 -0.4343
 2464poe     o212278   1.229   0.516   2.515 -0.1915 -0.2865 -0.3872
 2464poe    c2312279   1.352   0.483   2.454 -0.1454 -0.3376 -0.2671
 2464poe    c2312280   1.472   0.562   2.511 -0.0466 -0.0562 -0.8512
 2464poe     o212281   1.440   0.696   2.485 -0.6538 -0.0446 -0.1100
 2464poe    c2312282   1.535   0.785   2.539 -0.9745 -0.0208  0.4164
 2464poe    c2312283   1.504   0.918   2.468 -0.0812  0.3342  0.6744
 2464poe     o212284   1.370   0.955   2.490 -0.3656 -0.2269 -0.0781
 2464poe    c2312285   1.324   1.073   2.428  0.7112  0.2591  0.0421
 2464poe    c2312286   1.224   1.148   2.517 -0.0853 -1.1229  0.3397
 2464poe     o212287   1.103   1.082   2.549 -0.3719 -0.4236  0.7229
 2464poe    c3112288   0.994   1.126   2.471  0.2376 -0.2192 -0.0278
 2465poe    c3112289   0.206   0.306   0.701 -0.2819  0.4387 -0.1985
 2465poe     o212290   0.216   0.370   0.826  0.3309  0.1536 -0.0977
 2465poe    c2312291   0.250   0.506   0.807  0.0909  0.2172 -0.0850
 2465poe    c2312292   0.399   0.538   0.782 -0.0357  0.0332 -1.1154
 2465poe     o212293   0.421   0.659   0.713 -0.3512  0.5599 -0.3120
 2465poe    c2312294   0.547   0.712   0.747 -0.4782  0.2279  0.6974
 2465poe    c2312295   0.591   0.829   0.658  0.1632 -0.0323  0.6629
 2465poe     o212296   0.517   0.949   0.663  0.4960  0.2135 -0.0861
 2465poe    c2312297   0.384   0.957   0.618  0.5817 -0.2198 -0.4150
 2465poe    c2312298   0.322   1.098   0.625  0.3508 -0.3477  0.1846
 2465poe     o212299   0.362   1.162   0.506  0.4845  0.0255  0.4313
 2465poe    c3112300   0.284   1.279   0.499  0.4903 -0.0245 -0.6229
 2466poe    c3112301   4.261   6.889   5.782  0.2272 -0.0627  0.4002
 2466poe     o212302   4.351   6.797   5.724  0.0776  0.1307 -0.1410
 2466poe    c2312303   4.317   6.663   5.750  0.0523  0.1369 -0.1398
 2466poe    c2312304   4.373   6.556   5.653  0.3933  0.2089 -0.0253
 2466poe     o212305   4.311   6.556   5.526  0.3293  0.2029  0.0056
 2466poe    c2312306   4.403   6.510   5.430 -0.3027 -0.5355 -0.2529
 2466poe    c2312307   4.343   6.503   5.288 -0.0021  0.5837 -0.4375
 2466poe     o212308   4.321   6.624   5.219 -0.2711  0.7607 -0.0472
 2466poe    c2312309   4.278   6.606   5.085  0.1062 -0.2479 -0.0388
 2466poe    c2312310   4.292   6.747   5.024 -0.2454 -0.2828 -0.1991
 2466poe     o212311   4.241   6.845   5.112  0.8129  0.1226 -0.0292
 2466poe    c3112312   4.258   6.970   5.047  0.3255  0.1234 -0.1569
 2467poe    c3112313   5.856   3.431   5.768 -0.4133  0.2355 -0.4090
 2467poe     o212314   5.965   3.517   5.743 -0.2544  0.0144 -0.4761
 2467poe    c2312315   6.023   3.472   5.622 -0.0982  0.4452 -0.5664
 2467poe    c2312316   6.170   3.513   5.605  0.0387  0.1658 -0.0764
 2467poe     o212317   6.270   3.474   5.697  0.1183  0.2983 -0.1063
 2467poe    c2312318   6.284   3.337   5.731 -0.1908  0.2341 -0.2292
 2467poe    c2312319   6.417   3.317   5.806 -0.2076 -0.1725 -0.3051
 2467poe     o212320   6.413   3.384   5.930 -0.0968 -0.3684 -0.1956
 2467poe    c2312321   6.529   3.356   6.005 -0.1611 -0.0736  0.0172
 2467poe    c2312322   6.483   3.316   6.146 -0.0361  0.4122  0.2005
 2467poe     o212323   6.497   3.418   6.242 -0.2335  0.6070  0.0234
 2467poe    c3112324   6.499   3.373   6.375  0.0525  0.5394 -0.0041
 2468poe    c3112325   6.717   1.822   1.403  0.1870  0.1589 -0.1433
 2468poe     o212326   6.649   1.761   1.295  0.2990 -0.1017 -0.0670
 2468poe    c2312327   6.722   1.652   1.245 -0.1426 -0.2798 -0.3267
 2468poe    c2312328   6.848   1.697   1.169  0.2466 -0.1041  0.4158
 2468poe     o212329   6.794   1.750   1.050 -0.3657  0.0200  0.7434
 2468poe    c2312330   6.893   1.806   0.967 -0.9902 -0.2511 -0.2007
 2468poe    c2312331   6.899   1.737   0.829  0.2099 -0.3335 -0.1168
 2468poe     o212332   6.787   1.766   0.749  0.3804  0.4082 -0.0917
 2468poe    c2312333   6.795   1.896   0.694  0.6674  0.2726 -0.3740
 2468poe    c2312334   6.719   1.892   0.560 -0.2215 -0.3244  0.1430
 2468poe     o212335   6.760   1.834   0.439 -0.1090 -0.2819  0.1613
 2468poe    c3112336   6.775   1.953   0.365 -0.6299 -0.5896 -0.4421
 2469poe    c3112337   0.903   1.939   5.250  0.1388  0.7337 -0.1887
 2469poe     o212338   0.835   2.056   5.293 -1.0095 -0.0396  0.1478
 2469poe    c2312339   0.925   2.164   5.291 -0.2180 -0.6872  0.0073
 2469poe    c2312340   0.849   2.292   5.333  0.3182 -0.4927  0.4037
 2469poe     o212341   0.919   2.406   5.288 -0.0595 -0.3226  0.2401
 2469poe    c2312342   0.848   2.525   5.313  0.3101  0.0161 -0.3050
 2469poe    c2312343   0.926   2.653   5.277  0.0547  0.3302  0.2487
 2469poe     o212344   0.960   2.660   5.140  0.0895 -0.4548  0.2108
 2469poe    c2312345   1.036   2.775   5.111 -0.4900 -0.2032 -0.3311
 2469poe    c2312346   1.080   2.788   4.964  0.5753  0.3637  0.0313
 2469poe     o212347   1.124   2.668   4.905  0.3840  0.3524 -0.0880
 2469poe    c3112348   1.137   2.667   4.765  0.6379 -0.3083 -0.0640
 2470poe    c3112349   1.188   0.689   2.090  0.2395  0.7743 -0.1670
 2470poe     o212350   1.251   0.697   1.964  0.1368 -0.7322 -0.3329
 2470poe    c2312351   1.380   0.744   1.998 -0.2859  0.0878  0.1460
 2470poe    c2312352   1.428   0.820   1.873 -0.6503  0.2648  0.1118
 2470poe     o212353   1.428   0.726   1.767  0.2398  0.3607  0.0240
 2470poe    c2312354   1.420   0.811   1.654 -0.0626  0.3667  0.0505
 2470poe    c2312355   1.433   0.710   1.539  0.6112  0.0999  0.3559
 2470poe     o212356   1.346   0.600   1.552  0.7372 -0.0122  0.2589
 2470poe    c2312357   1.379   0.483   1.481  0.5601 -0.2100  0.4988
 2470poe    c2312358   1.287   0.361   1.500 -0.1555  0.2839  0.2466
 2470poe     o212359   1.295   0.299   1.626 -0.3441 -0.0260  0.1064
 2470poe    c3112360   1.251   0.165   1.623 -0.4790  0.0279 -0.6773
 2471poe    c3112361   4.527   6.078   5.796  0.5922  0.2730 -0.1857
 2471poe     o212362   4.440   6.088   5.685 -0.2406 -0.0189  0.4250
 2471poe    c2312363   4.310   6.043   5.714 -0.2866  0.0905  0.3882
 2471poe    c2312364   4.218   6.112   5.612 -0.3694 -0.9152 -0.2287
 2471poe     o212365   4.271   6.100   5.482 -0.3958 -0.5572 -0.2735
 2471poe    c2312366   4.184   6.150   5.384 -0.5015 -0.4196 -0.1096
 2471poe    c2312367   4.239   6.104   5.248  0.6918 -0.0226  0.2309
 2471poe     o212368   4.341   6.191   5.205  0.2304  0.3200 -0.1853
 2471poe    c2312369   4.390   6.129   5.088  0.0735  0.1482 -0.1595
 2471poe    c2312370   4.512   6.208   5.038  0.0220  0.3440  0.0224
 2471poe     o212371   4.604   6.240   5.140  0.0861  0.0976  0.0420
 2471poe    c3112372   4.710   6.322   5.097  0.4377 -0.2845  0.1664
 2472poe    c3112373   0.082   3.380   2.598  0.3645 -0.0556  0.1992
 2472poe     o212374   0.163   3.493   2.579 -0.2465  0.3378 -0.1184
 2472poe    c2312375   0.094   3.614   2.596 -0.2925  0.3435 -0.3389
 2472poe    c2312376   0.183   3.728   2.543  0.0102  0.1169 -0.3153
 2472poe     o212377   0.209   3.744   2.405 -0.6725  0.4348 -0.4073
 2472poe    c2312378   0.261   3.869   2.368 -0.8834  0.4520 -0.6513
 2472poe    c2312379   0.316   3.873   2.224  0.0130  0.1125 -0.3247
 2472poe     o212380   0.221   3.809   2.142 -0.6707  0.7666 -0.0573
 2472poe    c2312381   0.279   3.702   2.070 -0.0173  0.6397  0.6364
 2472poe    c2312382   0.179   3.615   1.991  0.3995  0.3734  0.3984
 2472poe     o212383   0.104   3.534   2.078  0.1062  0.0474 -0.1542
 2472poe    c3112384   0.064   3.430   1.991  0.3352 -0.6104  0.5146
 2473poe    c3112385   5.535   5.970   2.870  0.3423  0.4576 -0.4873
 2473poe     o212386   5.445   6.062   2.813 -0.1619  0.0463 -0.3601
 2473poe    c2312387   5.468   6.190   2.866  0.1501 -0.2220  0.1567
 2473poe    c2312388   5.345   6.278   2.835  0.4978  0.4378  0.6416
 2473poe     o212389   5.293   6.225   2.716 -0.1149  0.0861  1.0609
 2473poe    c2312390   5.205   6.319   2.658  0.7106  0.2931  0.1067
 2473poe    c2312391   5.155   6.300   2.514  0.2486 -0.1675  0.3219
 2473poe     o212392   5.076   6.189   2.478  0.5538 -0.1589 -0.3865
 2473poe    c2312393   4.945   6.195   2.530  0.6115  0.2737 -0.2876
 2473poe    c2312394   4.866   6.068   2.495  0.1000  0.5146 -0.0118
 2473poe     o212395   4.916   5.947   2.547 -0.3354  0.2764 -0.1418
 2473poe    c3112396   4.826   5.838   2.556  0.5958 -0.4916  0.0488
 2474poe    c3112397   5.329   3.057   4.680 -0.2656 -0.3115  0.5046
 2474poe     o212398   5.442   2.998   4.620  0.0536  0.4720  0.3250
 2474poe    c2312399   5.410   2.983   4.483 -0.1181  0.1855  0.3955
 2474poe    c2312400   5.541   2.954   4.407 -0.2322  0.2822  0.1646
 2474poe     o212401   5.629   3.061   4.431  0.1499  0.2407 -0.9681
 2474poe    c2312402   5.755   3.027   4.380  0.4581  0.0583 -0.1021
 2474poe    c2312403   5.865   3.118   4.439  0.4709 -0.0263  0.0052
 2474poe     o212404   5.859   3.258   4.431  0.2971 -0.0297  0.0617
 2474poe    c2312405   5.960   3.302   4.519  0.2601  0.1512  0.0162
 2474poe    c2312406   5.937   3.443   4.575  0.1874  0.0977  0.1214
 2474poe     o212407   5.807   3.449   4.630 -0.0207  0.4189 -0.3924
 2474poe    c3112408   5.771   3.570   4.691 -0.1737  0.0736  0.2035
 2475poe    c3112409   5.829   4.770   6.106 -0.0058  0.5160  0.5186
 2475poe     o212410   5.702   4.711   6.091  0.2381  0.2577 -0.6722
 2475poe    c2312411   5.611   4.776   6.178 -0.1807 -0.1499 -0.7973
 2475poe    c2312412   5.482   4.698   6.207  0.1078 -0.4953 -0.4316
 2475poe     o212413   5.526   4.565   6.221  0.7304 -0.2297  0.1550
 2475poe    c2312414   5.407   4.489   6.217  0.6249 -0.0375 -0.4561
 2475poe    c2312415   5.420   4.345   6.164 -0.3465 -0.2675 -0.0923
 2475poe     o212416   5.461   4.340   6.029 -0.0494 -0.2911 -0.0036
 2475poe    c2312417   5.449   4.209   5.979  0.5476 -0.3611  0.0392
 2475poe    c2312418   5.407   4.194   5.831  0.3132  0.0376  0.0658
 2475poe     o212419   5.525   4.210   5.755  0.2519 -0.3810 -0.1180
 2475poe    c3112420   5.499   4.199   5.617 -0.2814 -0.0145 -0.0493
 2476poe    c3112421   5.376   0.294   4.515 -0.1592 -0.5037 -0.4132
 2476poe     o212422   5.446   0.415   4.508 -0.3533 -0.3876 -0.3677
 2476poe    c2312423   5.509   0.439   4.384 -0.0362 -0.1940 -0.1722
 2476poe    c2312424   5.584   0.574   4.388 -0.1954 -0.1060 -0.1600
 2476poe     o212425   5.709   0.584   4.453 -0.1236 -0.4169 -0.2466
 2476poe    c2312426   5.800   0.497   4.389  0.1427  0.0770 -0.5388
 2476poe    c2312427   5.940   0.528   4.446 -0.0624  0.0983 -0.0392
 2476poe     o212428   5.949   0.668   4.435  0.0978  0.1535  0.7477
 2476poe    c2312429   6.066   0.710   4.503  0.6121 -0.6122  0.3565
 2476poe    c2312430   6.066   0.864   4.515 -0.4278 -0.5123 -0.7107
 2476poe     o212431   5.934   0.913   4.525 -0.2171 -0.0428 -0.1803
 2476poe    c3112432   5.940   1.053   4.535  0.2587 -0.0472 -0.3861
 2477poe    c3112433   2.085   5.517   4.933  0.7988  0.2142 -0.1147
 2477poe     o212434   2.001   5.451   4.841  0.3562  0.0837  0.3750
 2477poe    c2312435   2.081   5.394   4.740 -0.0074  0.1367  0.0527
 2477poe    c2312436   1.992   5.343   4.625  0.5065 -0.6785  0.0092
 2477poe     o212437   1.890   5.261   4.676  0.4550 -0.4871  0.2160
 2477poe    c2312438   1.808   5.233   4.565 -0.0315  0.4346  0.3338
 2477poe    c2312439   1.668   5.295   4.549 -0.4120 -0.3847  0.4276
 2477poe     o212440   1.572   5.251   4.643 -0.4442 -0.5432  0.3204
 2477poe    c2312441   1.454   5.325   4.622  0.1493  0.5067  0.6134
 2477poe    c2312442   1.336   5.277   4.709 -0.0088  0.3957  0.3397
 2477poe     o212443   1.289   5.146   4.685  0.1892  0.4042 -0.0967
 2477poe    c3112444   1.212   5.105   4.796  0.0002  0.8549 -0.0581
 2478poe    c3112445   2.719   4.540   1.202  0.1057 -0.2652  0.9928
 2478poe     o212446   2.756   4.668   1.158 -0.2690 -0.5390 -0.1421
 2478poe    c2312447   2.897   4.672   1.151 -0.2873 -0.1588 -0.3569
 2478poe    c2312448   2.959   4.804   1.104  0.4336 -0.3711 -0.0170
 2478poe     o212449   2.927   4.845   0.973  0.0262 -0.0217  0.1879
 2478poe    c2312450   2.986   4.969   0.941  0.0218 -0.1240 -0.2226
 2478poe    c2312451   2.933   5.022   0.807  0.5279  0.0374 -0.3629
 2478poe     o212452   2.941   4.907   0.726  0.8696 -0.4949  0.4247
 2478poe    c2312453   2.934   4.946   0.591 -0.0706  0.2148  0.6677
 2478poe    c2312454   2.908   4.818   0.509 -0.6129  0.3971  0.5500
 2478poe     o212455   2.835   4.727   0.587 -0.8230  0.0848 -0.0043
 2478poe    c3112456   2.827   4.607   0.514  0.4349  0.4447 -0.7437
 2479poe    c3112457   3.729   1.560   3.761  0.2348 -0.5183 -0.1704
 2479poe     o212458   3.605   1.560   3.827  0.0765  0.6245 -0.4398
 2479poe    c2312459   3.612   1.476   3.941  0.0001  0.2169 -0.7336
 2479poe    c2312460   3.477   1.402   3.948  0.3422 -0.3557 -0.0611
 2479poe     o212461   3.451   1.304   3.851  0.0749 -0.2954 -0.0520
 2479poe    c2312462   3.311   1.304   3.840  0.0811  0.0300 -0.1231
 2479poe    c2312463   3.276   1.223   3.714 -0.2324 -0.2402  0.1373
 2479poe     o212464   3.351   1.105   3.698 -0.3648 -0.2426 -0.5309
 2479poe    c2312465   3.322   1.040   3.577 -0.5516 -0.5308 -0.3328
 2479poe    c2312466   3.424   0.935   3.530  0.1493  0.1945 -0.4468
 2479poe     o212467   3.555   0.983   3.550  0.1015  0.2082 -0.1672
 2479poe    c3112468   3.643   0.884   3.598  0.1021  0.2058 -0.1734
 2480poe    c3112469   5.353   2.024   0.090 -0.0604 -0.2302 -0.5869
 2480poe     o212470   5.249   1.952   0.152  0.0707  0.1378  0.0664
 2480poe    c2312471   5.172   1.887   0.053 -0.0603  0.0736  0.2090
 2480poe    c2312472   5.109   1.754   0.098 -0.0167  0.0944  0.3332
 2480poe     o212473   5.020   1.777   0.205 -0.0774 -0.1852  0.3427
 2480poe    c2312474   4.988   1.645   0.242 -0.7212 -0.2970 -0.5778
 2480poe    c2312475   4.850   1.656   0.310 -0.3261  0.4410  0.1126
 2480poe     o212476   4.853   1.743   0.421  0.2502  0.6972 -0.0978
 2480poe    c2312477   4.741   1.828   0.430  0.0600  0.4544 -0.1596
 2480poe    c2312478   4.705   1.885   0.569 -0.0238  0.1031 -0.0363
 2480poe     o212479   4.634   1.806   0.661  0.4324  0.1174  0.3291
 2480poe    c3112480   4.502   1.770   0.625  0.6184  0.5304 -0.7742
 2481poe    c3112481   5.018   7.116   6.172 -0.8333  0.3490  0.4368
 2481poe     o212482   5.094   7.222   6.226  0.2087 -0.2210  0.1140
 2481poe    c2312483   4.997   7.300   6.293  0.0540  0.2373 -0.6287
 2481poe    c2312484   5.061   7.426   6.353  0.3521 -0.1927 -0.0296
 2481poe     o212485   5.163   7.456   6.260  0.5055 -1.0144 -0.1290
 2481poe    c2312486   5.277   7.498   6.332 -0.0037  0.2975 -0.0623
 2481poe    c2312487   5.388   7.392   6.324 -0.2834 -0.0187  0.2031
 2481poe     o212488   5.409   7.373   6.186  0.0961 -1.0633  0.3916
 2481poe    c2312489   5.545   7.367   6.151  0.0061 -0.8287 -0.0025
 2481poe    c2312490   5.554   7.368   5.997 -0.4826 -0.0223 -0.0343
 2481poe     o212491   5.493   7.260   5.930 -0.4179 -0.4098  0.5262
 2481poe    c3112492   5.575   7.202   5.831  0.0796  0.5922  0.3399
 2482poe    c3112493   2.760   5.229   3.879 -0.0623 -0.2685  0.0922
 2482poe     o212494   2.619   5.214   3.880 -0.1105  0.1601  0.1514
 2482poe    c2312495   2.589   5.087   3.827 -0.3493  0.3896 -0.2674
 2482poe    c2312496   2.442   5.079   3.782 -0.3893 -0.1696 -0.0523
 2482poe     o212497   2.361   5.102   3.895 -0.0011  0.0896  0.1746
 2482poe    c2312498   2.225   5.136   3.883  0.1279  0.3632 -0.5798
 2482poe    c2312499   2.174   5.190   4.018 -0.1987  0.3561 -0.6997
 2482poe     o212500   2.241   5.304   4.067  0.0019 -0.2790  0.5295
 2482poe    c2312501   2.190   5.370   4.180  0.1314  0.3210  0.2426
 2482poe    c2312502   2.242   5.515   4.185  0.2513  0.2998 -0.3583
 2482poe     o212503   2.239   5.573   4.056 -0.0939 -0.3603 -0.6545
 2482poe    c3112504   2.280   5.708   4.063  0.2576 -0.5052  0.3896
 2483poe    c3112505   3.669   0.679   6.670 -0.0026  0.5735 -0.2742
 2483poe     o212506   3.591   0.573   6.720  0.5013  0.3320  0.0098
 2483poe    c2312507   3.611   0.537   6.855  0.2349 -0.3460 -0.1236
 2483poe    c2312508   3.574   0.388   6.866  0.2282 -0.3268  0.1083
 2483poe     o212509   3.468   0.377   6.774  0.3147 -0.1210 -0.0171
 2483poe    c2312510   3.420   0.247   6.750  0.5697 -0.2411  0.1262
 2483poe    c2312511   3.285   0.261   6.678  0.7202  0.2001 -0.0712
 2483poe     o212512   3.277   0.354   6.572 -0.2146  0.6047  0.3409
 2483poe    c2312513   3.152   0.343   6.508  0.0971  0.1843 -0.2086
 2483poe    c2312514   3.152   0.426   6.378  0.2625 -0.4397 -0.6124
 2483poe     o212515   3.181   0.564   6.388  0.2593 -0.4801  0.0331
 2483poe    c3112516   3.173   0.631   6.264 -0.2249  0.2215  0.4419
 2484poe    c3112517   4.547   3.287   5.165  0.2990  0.6721  0.5796
 2484poe     o212518   4.556   3.227   5.038  0.1281  0.0710  0.8473
 2484poe    c2312519   4.690   3.206   5.001  0.0865 -0.5793  1.0533
 2484poe    c2312520   4.708   3.077   4.919  0.3210  0.2377 -0.2086
 2484poe     o212521   4.592   3.079   4.838 -0.2158 -0.9038  0.5148
 2484poe    c2312522   4.596   2.971   4.747  1.2919  0.0555 -0.5920
 2484poe    c2312523   4.515   3.010   4.622 -0.0780 -0.5080  0.0922
 2484poe     o212524   4.402   3.081   4.666  0.0986 -0.2130  0.0747
 2484poe    c2312525   4.317   3.109   4.558  0.3812  0.3612 -0.0021
 2484poe    c2312526   4.183   3.167   4.608  0.3408  0.0362  0.2662
 2484poe     o212527   4.183   3.288   4.679  0.5089  0.7490 -0.9241
 2484poe    c3112528   4.055   3.346   4.670  0.3545  0.5036 -0.3743
 2485poe    c3112529   2.012   1.207   7.059 -0.3636 -0.5422 -0.6784
 2485poe     o212530   1.927   1.306   7.112  0.4947 -0.2099  0.1088
 2485poe    c2312531   1.850   1.368   7.011 -0.2808 -0.4397  0.5471
 2485poe    c2312532   1.813   1.517   7.023  0.6286 -0.1987  0.4364
 2485poe     o212533   1.934   1.586   7.044  0.3978  0.2203  0.4086
 2485poe    c2312534   1.920   1.713   7.103 -0.0517 -0.0159  0.8154
 2485poe    c2312535   2.053   1.764   7.162  0.2355 -0.2730  0.3919
 2485poe     o212536   2.087   1.704   7.285  0.0390 -0.2680  0.4494
 2485poe    c2312537   2.192   1.782   7.339  0.7704 -0.1001 -1.1408
 2485poe    c2312538   2.285   1.684   7.415  0.2100  0.0683 -0.2162
 2485poe     o212539   2.182   1.608   7.474  0.0466  0.7756  0.4246
 2485poe    c3112540   2.234   1.504   7.555  0.0145  0.0212 -0.5147
 2486poe    c3112541   3.252   4.870   3.245 -0.2060  0.7304  0.9540
 2486poe     o212542   3.118   4.872   3.199  0.0654 -0.2174  0.0866
 2486poe    c2312543   3.052   4.984   3.252  0.5551  0.0328  0.1770
 2486poe    c2312544   3.061   5.102   3.154 -0.9659  0.2880  0.3198
 2486poe     o212545   2.995   5.089   3.030  0.1695 -0.2773 -0.2345
 2486poe    c2312546   2.957   5.219   2.989 -0.1559 -0.1257  0.5351
 2486poe    c2312547   3.023   5.272   2.860 -1.0189  0.4344  0.3179
 2486poe     o212548   2.986   5.195   2.748  0.2369  0.0203  0.1765
 2486poe    c2312549   3.027   5.250   2.625  0.6142  0.1916  0.3783
 2486poe    c2312550   3.068   5.145   2.520  0.2558  0.3049  0.1255
 2486poe     o212551   3.175   5.081   2.585  0.0287 -0.2621 -0.0554
 2486poe    c3112552   3.255   5.012   2.491  0.6764 -0.3285  0.5351
 2487poe    c3112553   7.001   2.499   4.928 -0.0080  0.0469  0.4825
 2487poe     o212554   6.991   2.524   4.790  0.7230 -0.2803  0.3663
 2487poe    c2312555   6.864   2.579   4.766  0.3660 -1.2446 -0.0050
 2487poe    c2312556   6.864   2.646   4.628  0.3429 -0.9666  0.1284
 2487poe     o212557   6.897   2.545   4.535  0.2283 -0.6963 -0.2064
 2487poe    c2312558   6.930   2.604   4.411  0.3747  0.1856  0.2409
 2487poe    c2312559   6.917   2.509   4.290 -0.9736  0.3286  0.2613
 2487poe     o212560   6.796   2.437   4.280 -0.5258 -0.4473  0.2943
 2487poe    c2312561   6.818   2.299   4.262  0.1898 -0.2666 -0.2462
 2487poe    c2312562   6.679   2.235   4.244  0.3478 -0.8107  0.4697
 2487poe     o212563   6.590   2.254   4.352 -0.1169 -0.4706  0.0329
 2487poe    c3112564   6.463   2.196   4.338 -0.0184 -0.9591  1.0584
 2488poe    c3112565   5.792   4.380   2.989 -0.1863 -0.5148  0.3331
 2488poe     o212566   5.658   4.419   3.010 -0.1174 -0.1730  0.1539
 2488poe    c2312567   5.623   4.548   2.964 -0.1402 -0.0741  0.4473
 2488poe    c2312568   5.473   4.570   2.991 -0.3792 -0.3664 -0.5994
 2488poe     o212569   5.403   4.449   2.968 -0.2194 -0.4840 -0.4680
 2488poe    c2312570   5.266   4.481   2.979 -0.1579 -0.2926 -0.2363
 2488poe    c2312571   5.172   4.359   2.983 -0.4313 -0.0613  0.7766
 2488poe     o212572   5.220   4.257   3.067  0.0793 -0.3795  0.1062
 2488poe    c2312573   5.113   4.186   3.124 -0.2232 -0.3612 -0.4336
 2488poe    c2312574   5.171   4.063   3.197 -0.2194 -0.0628  0.0745
 2488poe     o212575   5.201   3.953   3.113 -0.5326 -0.1492  0.0759
 2488poe    c3112576   5.193   3.828   3.177 -0.1974 -0.1060  0.2036
 2489poe    c3112577   5.379   5.656   3.391 -0.1000  0.1518 -0.9639
 2489poe     o212578   5.260   5.726   3.419  0.0798  0.1114 -0.0583
 2489poe    c2312579   5.149   5.638   3.414  0.0389  0.1016  0.8627
 2489poe    c2312580   5.012   5.707   3.396 -0.0046 -0.3103 -0.4682
 2489poe     o212581   4.981   5.786   3.508 -0.0164 -0.8917 -0.0540
 2489poe    c2312582   4.849   5.835   3.504  0.1799 -0.3382  0.1314
 2489poe    c2312583   4.806   5.877   3.646  0.0965 -0.1424  0.0487
 2489poe     o212584   4.898   5.974   3.690 -0.3667  0.4048 -0.1839
 2489poe    c2312585   4.921   5.970   3.829  0.6710  0.1565 -0.3566
 2489poe    c2312586   4.985   6.096   3.890  0.0541  0.2117  0.1939
 2489poe     o212587   4.901   6.209   3.888 -0.4972 -0.2045 -0.3362
 2489poe    c3112588   4.844   6.230   4.015 -0.0088  0.9181 -0.2926
 2490poe    c3112589   6.922   1.758   6.094 -0.7077  0.5989 -0.2646
 2490poe     o212590   6.989   1.859   6.166 -0.3898  0.2573 -0.0740
 2490poe    c2312591   7.123   1.857   6.125 -0.2641 -0.0022  0.3399
 2490poe    c2312592   7.207   1.985   6.145  0.1204 -0.2369  0.2460
 2490poe     o212593   7.206   2.073   6.034 -0.2969 -0.2768  0.2165
 2490poe    c2312594   7.280   2.030   5.922  0.7368  0.5330  0.5718
 2490poe    c2312595   7.215   2.075   5.790  0.0435 -0.9052  0.4014
 2490poe     o212596   7.081   2.032   5.781 -0.2844  0.1794 -0.0986
 2490poe    c2312597   7.027   2.059   5.654 -0.4429  0.4504  0.0250
 2490poe    c2312598   6.909   1.984   5.588  0.1582 -0.4157 -0.0842
 2490poe     o212599   6.937   1.857   5.535  0.0518 -0.2646 -0.5077
 2490poe    c3112600   6.816   1.797   5.495 -0.4000  0.3274 -0.0366
 2491poe    c3112601   5.779   6.190   4.378  0.3623 -0.3794 -1.3320
 2491poe     o212602   5.787   6.050   4.394 -0.0521 -0.3025 -0.3850
 2491poe    c2312603   5.658   5.993   4.399  0.2529 -0.9148  0.9389
 2491poe    c2312604   5.665   5.848   4.348  0.1739 -0.2332 -1.1060
 2491poe     o212605   5.767   5.779   4.417 -0.0069  0.2166 -0.3680
 2491poe    c2312606   5.804   5.659   4.352  0.1295 -0.1916  0.4496
 2491poe    c2312607   5.953   5.627   4.371  0.2155 -0.3728 -0.4791
 2491poe     o212608   6.028   5.716   4.292  0.0949  0.0107 -0.1634
 2491poe    c2312609   6.164   5.680   4.279  0.1353  0.1346 -0.0874
 2491poe    c2312610   6.255   5.777   4.202 -0.0133  0.0227 -0.4100
 2491poe     o212611   6.287   5.892   4.277  0.2831 -0.1593 -0.2576
 2491poe    c3112612   6.423   5.929   4.269  0.3396 -0.2173  0.3387
 2492poe    c3112613   3.614   1.444   0.464  0.0265  0.0616 -0.1082
 2492poe     o212614   3.732   1.512   0.424  0.6836 -0.8804  0.1981
 2492poe    c2312615   3.710   1.581   0.303  0.6261  0.0067  0.7046
 2492poe    c2312616   3.827   1.649   0.231 -0.1966  0.5325 -0.1596
 2492poe     o212617   3.901   1.561   0.148  0.1239  0.1318  0.5403
 2492poe    c2312618   3.986   1.618   0.051  0.0028  0.4805  0.6347
 2492poe    c2312619   3.944   1.708  -0.067 -0.4822 -0.1351  0.3268
 2492poe     o212620   3.878   1.828  -0.032 -0.2614  0.0468  0.1180
 2492poe    c2312621   3.829   1.898  -0.145  0.6505  0.2685 -0.1498
 2492poe    c2312622   3.755   2.017  -0.081 -0.5251 -0.3947 -0.2621
 2492poe     o212623   3.643   1.982  -0.002 -0.4620 -0.5134 -0.2243
 2492poe    c3112624   3.581   2.093   0.057  0.1244 -0.0146 -0.5266
 2493poe    c3112625   3.049   2.124   4.655  0.0930  0.1861 -0.1034
 2493poe     o212626   3.043   1.993   4.705  0.1896  0.1881 -0.0865
 2493poe    c2312627   3.164   1.972   4.775  0.5500  0.6519 -0.5685
 2493poe    c2312628   3.217   2.063   4.888  0.2559  0.4168 -0.2418
 2493poe     o212629   3.130   2.055   4.999 -0.0953  0.1560 -0.5312
 2493poe    c2312630   3.168   2.105   5.125 -0.3947 -0.2654 -0.2705
 2493poe    c2312631   3.063   2.100   5.238  0.0197  0.6424  0.1703
 2493poe     o212632   2.949   2.182   5.237 -0.2948  0.2069  0.3264
 2493poe    c2312633   2.864   2.179   5.350 -1.0558 -0.0060 -0.2423
 2493poe    c2312634   2.719   2.158   5.302 -0.9103  0.8166 -1.0509
 2493poe     o212635   2.687   2.058   5.209  0.2453 -0.5274 -0.0367
 2493poe    c3112636   2.551   2.074   5.176  0.1283  0.9944  1.0934
 2494poe    c3112637   1.176   6.322   6.250  0.1915  0.8410 -0.2034
 2494poe     o212638   1.245   6.227   6.328 -0.4341 -0.0028 -0.6692
 2494poe    c2312639   1.306   6.126   6.251 -0.4755 -0.0431 -0.6494
 2494poe    c2312640   1.350   6.000   6.329  0.2233  0.3625 -0.3832
 2494poe     o212641   1.468   6.019   6.403  0.2178  0.0727 -0.3006
 2494poe    c2312642   1.567   5.927   6.362  0.0908  0.0216 -0.4915
 2494poe    c2312643   1.681   5.958   6.461 -0.2832 -0.4937  0.1093
 2494poe     o212644   1.628   5.978   6.591  0.0640 -0.7172  0.2861
 2494poe    c2312645   1.717   5.975   6.700  0.2025  0.3939  0.2104
 2494poe    c2312646   1.700   5.847   6.783 -0.0959  0.1557 -0.2167
 2494poe     o212647   1.575   5.834   6.846 -0.0180  0.1563 -0.0633
 2494poe    c3112648   1.480   5.751   6.783  0.8828 -0.7042 -0.3103
 2495poe    c3112649   6.109   4.121   3.976 -0.4659 -0.0262 -0.7369
 2495poe     o212650   6.122   4.075   3.844  0.0890 -0.0402 -0.6759
 2495poe    c2312651   6.183   3.948   3.844 -0.2685 -0.2135 -0.3605
 2495poe    c2312652   6.166   3.870   3.712  0.0612 -0.8022 -0.0616
 2495poe     o212653   6.027   3.883   3.691  0.1531  0.6257  0.0856
 2495poe    c2312654   5.980   3.831   3.568  0.8214  0.2334 -0.0120
 2495poe    c2312655   5.987   3.680   3.540  0.0460  0.2034 -0.0831
 2495poe     o212656   5.897   3.614   3.626  0.5953  0.2530  0.5402
 2495poe    c2312657   5.891   3.473   3.619 -0.5268  0.3374 -0.5332
 2495poe    c2312658   6.020   3.397   3.654 -0.5369  0.6654  0.2456
 2495poe     o212659   6.069   3.404   3.786 -0.3686  0.4678  0.1960
 2495poe    c3112660   6.199   3.350   3.794 -0.3876  0.4144  0.1370
 2496poe    c3112661   1.545   2.488   6.751  0.2420 -1.0883 -0.8154
 2496poe     o212662   1.499   2.373   6.818 -0.1260 -0.3506  0.2284
 2496poe    c2312663   1.597   2.305   6.894  0.1250 -0.1886  0.0501
 2496poe    c2312664   1.587   2.152   6.884  0.3846 -0.1647 -0.6786
 2496poe     o212665   1.459   2.106   6.922  0.6682 -0.2706  0.1835
 2496poe    c2312666   1.450   1.966   6.932 -0.7413 -0.2882 -0.9317
 2496poe    c2312667   1.331   1.930   7.022 -0.2406  0.6595  0.1380
 2496poe     o212668   1.325   2.019   7.131  0.6407  0.5088  0.3122
 2496poe    c2312669   1.220   1.984   7.218  0.5148 -0.6788 -0.2884
 2496poe    c2312670   1.171   2.107   7.298 -0.2264 -0.8132 -0.5320
 2496poe     o212671   1.157   2.205   7.199  0.4380 -0.1970 -0.0245
 2496poe    c3112672   1.101   2.324   7.251  0.2477  0.2562 -1.2416
 2497poe    c3112673   5.322   0.942   2.687  0.2319 -0.4460  0.7015
 2497poe     o212674   5.277   0.927   2.555  0.2178  0.6414  0.5712
 2497poe    c2312675   5.139   0.954   2.541  0.1217 -0.0576  0.1049
 2497poe    c2312676   5.096   0.984   2.396 -0.0975 -0.2658  0.1270
 2497poe     o212677   5.187   1.075   2.339  0.0368 -0.3191  0.2567
 2497poe    c2312678   5.167   1.212   2.368  0.3587 -0.1583 -0.2650
 2497poe    c2312679   5.242   1.282   2.253  0.7182  0.1567  0.1634
 2497poe     o212680   5.365   1.213   2.241  0.4752 -0.1631 -0.5210
 2497poe    c2312681   5.440   1.276   2.140  0.6733 -0.1121 -0.3410
 2497poe    c2312682   5.566   1.187   2.144  0.5209 -0.2957  0.6683
 2497poe     o212683   5.538   1.054   2.109 -0.6921  0.3059 -0.7440
 2497poe    c3112684   5.661   0.985   2.105 -0.5283  0.6011 -0.8122
 2498poe    c3112685   3.151   3.006   0.731 -0.7855  0.0289  0.0920
 2498poe     o212686   3.193   3.133   0.688 -0.0707 -0.3103 -0.2341
 2498poe    c2312687   3.087   3.215   0.731  0.1519  0.0804 -0.4190
 2498poe    c2312688   3.105   3.367   0.721 -0.9198  0.2461  0.0123
 2498poe     o212689   3.122   3.399   0.585  0.5529  0.0116  0.1230
 2498poe    c2312690   3.213   3.504   0.565 -0.1946  0.6013 -0.2478
 2498poe    c2312691   3.221   3.542   0.416 -0.6703  0.7260 -0.2432
 2498poe     o212692   3.276   3.438   0.338 -0.1169  0.7092  0.1647
 2498poe    c2312693   3.396   3.464   0.269 -0.1410 -0.0011 -0.1548
 2498poe    c2312694   3.426   3.359   0.161  0.1195  0.1163 -0.1984
 2498poe     o212695   3.389   3.228   0.200  0.4265  0.2294  0.4700
 2498poe    c3112696   3.408   3.157   0.080  0.1969 -0.3946  0.8020
 2499poe    c3112697   0.172   6.659   5.335  0.1111  0.0155  0.1898
 2499poe     o212698   0.035   6.633   5.317  0.2925 -0.4763 -0.5388
 2499poe    c2312699  -0.016   6.523   5.390 -0.2001  0.3002  0.3163
 2499poe    c2312700  -0.167   6.525   5.418 -0.2378  0.0384  0.1380
 2499poe     o212701  -0.240   6.535   5.297  0.1163 -0.2396 -0.0993
 2499poe    c2312702  -0.376   6.544   5.330  0.2329  0.4033  0.2261
 2499poe    c2312703  -0.439   6.596   5.199  0.2754 -0.2988 -0.0800
 2499poe     o212704  -0.419   6.735   5.187  0.5038 -0.3804 -0.6630
 2499poe    c2312705  -0.517   6.789   5.102  0.0265  0.0788  0.1657
 2499poe    c2312706  -0.477   6.921   5.032  0.3109 -0.3363 -0.4647
 2499poe     o212707  -0.406   6.996   5.128 -0.7632  0.4277 -0.2498
 2499poe    c3112708  -0.398   7.127   5.078  0.2677  0.0112 -1.2208
 2500poe    c3112709   0.290   1.790   5.641  0.2778  0.9011 -0.0752
 2500poe     o212710   0.236   1.660   5.632  0.6736  0.7308 -0.0149
 2500poe    c2312711   0.272   1.585   5.747 -0.3280  0.3362  0.0533
 2500poe    c2312712   0.267   1.439   5.699 -0.3953  0.2117  0.4423
 2500poe     o212713   0.161   1.429   5.607  0.0201  0.4542 -0.0644
 2500poe    c2312714   0.178   1.316   5.525 -0.0609  0.7745 -0.5280
 2500poe    c2312715   0.054   1.304   5.434 -0.6733  0.1037  0.3692
 2500poe     o212716   0.043   1.433   5.377  0.6078  0.1452  0.1880
 2500poe    c2312717  -0.069   1.435   5.292  0.5111  0.0699  0.3137
 2500poe    c2312718  -0.087   1.564   5.210  0.6444 -0.0468  0.0990
 2500poe     o212719  -0.127   1.673   5.290 -1.1343 -0.1492 -0.5964
 2500poe    c3112720  -0.113   1.797   5.223 -0.4636  0.1511  0.0809
 2501poe    c3112721   4.736   4.153   3.309  0.4186  0.2088 -0.0231
 2501poe     o212722   4.632   4.079   3.369  0.1159  0.7756  0.1617
 2501poe    c2312723   4.509   4.142   3.341 -0.3630 -0.1072  0.2284
 2501poe    c2312724   4.389   4.067   3.401 -0.4564  0.4224  0.7129
 2501poe     o212725   4.438   3.991   3.509  0.0028 -0.3394 -0.0181
 2501poe    c2312726   4.330   3.919   3.564  0.1182 -0.6364 -0.1829
 2501poe    c2312727   4.389   3.781   3.599  0.4369 -0.3987  0.2179
 2501poe     o212728   4.517   3.797   3.655  0.2515 -0.0828  0.5603
 2501poe    c2312729   4.536   3.687   3.742 -0.2483 -0.0371  0.7300
 2501poe    c2312730   4.685   3.688   3.781 -0.1934 -1.0934  0.5669
 2501poe     o212731   4.760   3.688   3.661 -0.6634 -0.3724  0.2649
 2501poe    c3112732   4.898   3.704   3.687 -0.5579 -0.3965 -0.2793
 2502poe    c3112733   5.847   1.040   6.149 -1.4337 -0.1113 -0.2965
 2502poe     o212734   5.883   1.091   6.022  0.0530 -0.0352  0.1295
 2502poe    c2312735   6.022   1.111   6.025 -0.0043  0.3692  0.1385
 2502poe    c2312736   6.095   1.131   5.890 -0.0879 -0.1886  0.0090
 2502poe     o212737   6.031   1.234   5.818 -0.2239 -0.2793 -0.0008
 2502poe    c2312738   6.030   1.215   5.678 -0.1228  0.0439 -0.0469
 2502poe    c2312739   5.957   1.329   5.605 -0.6161 -0.6500 -0.6637
 2502poe     o212740   5.832   1.372   5.655 -0.0484  0.2219  0.0552
 2502poe    c2312741   5.770   1.441   5.549 -0.5577 -0.2110  0.0685
 2502poe    c2312742   5.643   1.526   5.563 -0.4737 -0.0989  0.1485
 2502poe     o212743   5.660   1.615   5.671  0.5105 -0.3725  0.2257
 2502poe    c3112744   5.548   1.700   5.684  0.7705  0.0356 -0.1845
 2503poe    c3112745   4.128   5.380   2.222  0.3650  0.2451 -0.3787
 2503poe     o212746   4.228   5.394   2.124  0.3168 -0.0542 -0.4693
 2503poe    c2312747   4.312   5.500   2.162 -0.1557 -0.0010  0.4461
 2503poe    c2312748   4.423   5.492   2.056 -0.0274 -0.2509  0.5989
 2503poe     o212749   4.383   5.424   1.939  0.0839  0.2756  0.2489
 2503poe    c2312750   4.496   5.409   1.857 -0.0878 -0.7893  0.1853
 2503poe    c2312751   4.461   5.339   1.724 -0.2317 -0.3457 -0.0138
 2503poe     o212752   4.359   5.408   1.656  0.0086  0.1620  0.1347
 2503poe    c2312753   4.256   5.312   1.653  0.2050 -0.0210 -0.9692
 2503poe    c2312754   4.128   5.381   1.702  1.1459  0.7119  0.5446
 2503poe     o212755   4.142   5.404   1.840  0.0932  0.2489  0.7397
 2503poe    c3112756   4.031   5.486   1.869 -0.1329 -0.1253  0.9394
 2504poe    c3112757   2.581   6.016   3.091  0.5481 -0.4336  0.0197
 2504poe     o212758   2.476   5.998   2.999  0.5947  0.4297 -0.2092
 2504poe    c2312759   2.346   6.032   3.044  0.6504  0.2435  0.0935
 2504poe    c2312760   2.251   6.002   2.927  0.3609 -0.3388  0.4738
 2504poe     o212761   2.297   5.884   2.865  0.7090  0.0919 -0.0974
 2504poe    c2312762   2.193   5.849   2.776  0.5474 -0.2249  0.2118
 2504poe    c2312763   2.235   5.737   2.679  0.2270 -0.1544 -0.0106
 2504poe     o212764   2.345   5.765   2.596  0.4839 -0.3633  0.2550
 2504poe    c2312765   2.415   5.648   2.557 -0.0701 -0.4992 -0.3608
 2504poe    c2312766   2.528   5.669   2.455 -0.5416  0.4324 -0.7033
 2504poe     o212767   2.633   5.749   2.502 -0.3513 -0.2133 -0.0149
 2504poe    c3112768   2.758   5.725   2.441 -0.0217  0.0449  0.5508
 2505poe    c3112769   0.087   6.974   3.308 -0.4582  0.4868  0.6557
 2505poe     o212770   0.157   6.956   3.430  0.3831 -0.6287  0.0296
 2505poe    c2312771   0.288   7.006   3.416  0.1164  0.0069 -0.2523
 2505poe    c2312772   0.349   7.010   3.557 -0.5301 -0.3573  0.0408
 2505poe     o212773   0.348   6.880   3.612  0.1628 -0.1765  0.4882
 2505poe    c2312774   0.481   6.842   3.641  0.2717 -0.1321  0.0630
 2505poe    c2312775   0.475   6.690   3.662  0.1020 -0.1846 -0.3521
 2505poe     o212776   0.409   6.644   3.778  0.2328 -0.2293 -0.2950
 2505poe    c2312777   0.422   6.505   3.800  0.2678 -0.1931 -0.0939
 2505poe    c2312778   0.375   6.451   3.937 -0.1250  0.2609 -0.0464
 2505poe     o212779   0.470   6.460   4.040 -0.0442 -0.4388 -0.0521
 2505poe    c3112780   0.427   6.392   4.155 -0.8640 -0.1805 -0.1981
 2506poe    c3112781   1.406   0.175   3.183  0.2313 -0.4512  0.4282
 2506poe     o212782   1.530   0.176   3.250  0.5775  0.4998 -0.2024
 2506poe    c2312783   1.617   0.068   3.224  0.2238  0.2550 -0.3731
 2506poe    c2312784   1.579  -0.059   3.303  0.0690  0.3755 -0.2536
 2506poe     o212785   1.456  -0.116   3.266  0.3267 -0.3653  0.0036
 2506poe    c2312786   1.377  -0.152   3.377  0.3191  0.1836  0.1814
 2506poe    c2312787   1.227  -0.158   3.340  0.3425 -0.3346  0.1688
 2506poe     o212788   1.166  -0.032   3.331 -0.7147 -0.8796 -0.4740
 2506poe    c2312789   1.136   0.029   3.454 -0.1472 -1.0067 -0.2682
 2506poe    c2312790   1.108   0.175   3.414  0.4556 -0.8177  0.0021
 2506poe     o212791   0.996   0.177   3.329  0.0867  0.0642  0.4954
 2506poe    c3112792   0.979   0.307   3.275  0.4562  0.3547  1.0683
 2507poe    c3112793   0.280   4.926   5.481  0.3341  0.0877  0.3002
 2507poe     o212794   0.203   4.959   5.595 -0.3750  0.0959 -0.1726
 2507poe    c2312795   0.292   4.965   5.704 -0.4446  0.0950 -0.1160
 2507poe    c2312796   0.205   4.998   5.827 -0.2120  0.3530 -0.0202
 2507poe     o212797   0.122   4.893   5.873 -0.3040  0.4483  0.0319
 2507poe    c2312798   0.020   4.934   5.961 -0.3171  0.3670  0.0538
 2507poe    c2312799  -0.069   4.820   6.016  0.3658 -0.0364  0.3435
 2507poe     o212800  -0.134   4.763   5.905 -0.0768  0.2874  0.4314
 2507poe    c2312801  -0.226   4.659   5.926 -0.2395  0.3000 -0.1799
 2507poe    c2312802  -0.178   4.528   5.991 -0.5398  0.3712  0.1920
 2507poe     o212803  -0.061   4.493   5.921 -0.6700  0.1861  0.0641
 2507poe    c3112804  -0.033   4.360   5.958  0.6141  0.2649 -0.5621
 2508poe    c3112805   4.101   2.525   1.536 -0.2346  0.2864 -0.2143
 2508poe     o212806   4.134   2.490   1.404  0.9036 -0.3421  0.2261
 2508poe    c2312807   4.215   2.592   1.350 -0.6066  0.8018  0.0570
 2508poe    c2312808   4.248   2.579   1.200 -0.2905  0.2139  0.1723
 2508poe     o212809   4.350   2.492   1.156 -0.3134  0.3193 -0.0903
 2508poe    c2312810   4.349   2.461   1.018  0.0771  0.2295 -0.0736
 2508poe    c2312811   4.472   2.373   0.992 -0.3942 -0.2348 -0.7523
 2508poe     o212812   4.454   2.247   1.053 -0.2096  0.0569 -0.0952
 2508poe    c2312813   4.547   2.158   0.996 -0.4847 -0.0676 -0.3529
 2508poe    c2312814   4.553   2.019   1.062 -0.0659  0.2011  0.1891
 2508poe     o212815   4.456   1.933   1.007  0.1439 -0.0361  0.1932
 2508poe    c3112816   4.451   1.814   1.083 -0.0420  0.2690  0.6675
 2509poe    c3112817   3.511   6.525   2.039  0.3127 -0.0540  0.4213
 2509poe     o212818   3.436   6.471   2.146 -0.5246 -0.0682 -0.1584
 2509poe    c2312819   3.315   6.543   2.153 -0.3141  0.3252 -0.5170
 2509poe    c2312820   3.225   6.464   2.250  0.7269 -0.5155 -0.2186
 2509poe     o212821   3.318   6.422   2.348  0.3248 -0.3676  0.2293
 2509poe    c2312822   3.252   6.379   2.465  0.2193  0.1873  0.3762
 2509poe    c2312823   3.350   6.311   2.562  0.2540  0.2549  0.3888
 2509poe     o212824   3.456   6.396   2.601  0.2808  0.4146 -0.0332
 2509poe    c2312825   3.531   6.324   2.696 -0.0105 -0.0351 -0.1427
 2509poe    c2312826   3.661   6.399   2.732  0.0541 -0.1100 -0.2165
 2509poe     o212827   3.753   6.407   2.625  0.1716  0.1559 -0.0968
 2509poe    c3112828   3.847   6.501   2.672  0.4508 -0.2464  0.1599
 2510poe    c3112829   0.689   0.774   4.927 -0.1739 -0.2442  0.1076
 2510poe     o212830   0.704   0.878   5.022 -0.1777  0.0072 -0.1647
 2510poe    c2312831   0.736   1.005   4.971 -0.2969 -0.0012 -0.2595
 2510poe    c2312832   0.751   1.129   5.061 -0.1132 -0.2683  0.0741
 2510poe     o212833   0.859   1.129   5.153 -0.4640  0.0632  0.4925
 2510poe    c2312834   0.856   1.252   5.221 -0.3805  0.4018 -0.1028
 2510poe    c2312835   0.963   1.226   5.329 -0.4778  0.0202 -0.0974
 2510poe     o212836   1.093   1.203   5.281 -0.3538 -0.4595  0.4421
 2510poe    c2312837   1.191   1.171   5.377 -0.2087 -0.5250  0.2724
 2510poe    c2312838   1.327   1.127   5.319  0.1038 -0.3438  0.8687
 2510poe     o212839   1.320   1.004   5.250  0.3211  0.2245 -0.1827
 2510poe    c3112840   1.446   0.949   5.216  0.5656  0.5383  0.2020
 2511poe    c3112841   1.858   0.384   4.967 -0.0766  0.1910 -0.2636
 2511poe     o212842   1.911   0.273   4.898  0.0684 -0.0342  0.2022
 2511poe    c2312843   2.044   0.282   4.852 -0.1378 -0.1304 -0.4274
 2511poe    c2312844   2.115   0.154   4.804  0.2367 -0.1394  0.1339
 2511poe     o212845   2.164   0.068   4.904 -0.0956 -0.1249  0.3118
 2511poe    c2312846   2.219  -0.050   4.848  0.1034  0.4506 -0.7360
 2511poe    c2312847   2.257  -0.110   4.984 -0.7856  0.1421 -0.6137
 2511poe     o212848   2.166  -0.090   5.090  0.3568  0.8737  0.2627
 2511poe    c2312849   2.197  -0.184   5.190  0.1150  0.3630 -0.1405
 2511poe    c2312850   2.089  -0.168   5.298 -0.0502 -0.2381 -0.2138
 2511poe     o212851   2.078  -0.033   5.337  0.3165 -0.4494  0.6456
 2511poe    c3112852   2.148   0.010   5.451  0.5357  0.6012  0.1196
 2512poe    c3112853   4.147   0.542   6.826  0.0037 -0.7454 -0.1154
 2512poe     o212854   4.136   0.585   6.960  0.4248 -0.0351 -0.3045
 2512poe    c2312855   4.217   0.505   7.043 -0.0009 -0.0196  0.1296
 2512poe    c2312856   4.209   0.543   7.192  0.1786 -0.1493  0.1735
 2512poe     o212857   4.260   0.673   7.214  0.0803 -0.1028  0.1252
 2512poe    c2312858   4.389   0.683   7.271  0.2504 -0.5463 -0.1768
 2512poe    c2312859   4.448   0.817   7.320  0.0185 -0.6684  0.4497
 2512poe     o212860   4.375   0.869   7.429  0.4404 -0.4751  0.6398
 2512poe    c2312861   4.385   1.010   7.435  1.0517 -0.5134  0.6349
 2512poe    c2312862   4.284   1.055   7.542  0.2493 -0.1192 -0.2661
 2512poe     o212863   4.155   1.009   7.507  0.1285 -0.1294  0.1839
 2512poe    c3112864   4.089   1.005   7.632 -0.0244 -0.7822  0.0864
 2513poe    c3112865   2.950   4.489   4.615 -1.1179  0.0710 -0.5306
 2513poe     o212866   2.978   4.366   4.678  0.5273  0.5296 -0.3167
 2513poe    c2312867   3.108   4.360   4.732  0.2625 -0.7572  0.2009
 2513poe    c2312868   3.103   4.251   4.841 -0.3590 -0.3682  0.5644
 2513poe     o212869   3.041   4.140   4.780  0.0790 -0.0437 -0.4922
 2513poe    c2312870   3.065   4.018   4.846  0.6445  0.3991  0.1440
 2513poe    c2312871   2.998   4.006   4.984  0.0232  0.2019 -0.1662
 2513poe     o212872   2.860   3.982   4.972  0.0800 -0.3090  0.2099
 2513poe    c2312873   2.783   4.055   5.065  0.3964  0.1297  0.1275
 2513poe    c2312874   2.635   4.043   5.024  0.5923 -0.1536 -0.5083
 2513poe     o212875   2.586   4.103   4.906  0.0240 -0.0290 -0.2083
 2513poe    c3112876   2.448   4.129   4.921  0.0577 -0.0604  0.1665
 2514poe    c3112877   4.768   2.352   3.044  0.1717 -0.2314 -0.0822
 2514poe     o212878   4.865   2.405   2.956  0.0516  0.2413  0.0701
 2514poe    c2312879   4.886   2.315   2.849 -0.2776 -0.1912  0.3694
 2514poe    c2312880   5.006   2.367   2.770 -0.2057 -0.1793  0.4861
 2514poe     o212881   5.094   2.442   2.852  0.0426 -0.2607  0.2961
 2514poe    c2312882   5.187   2.502   2.764  0.1733 -0.3680  0.3613
 2514poe    c2312883   5.293   2.584   2.840  0.1879 -0.1231  0.0756
 2514poe     o212884   5.234   2.691   2.911 -0.4151 -0.2700 -0.1985
 2514poe    c2312885   5.336   2.750   2.988 -0.8376  0.0603  0.1121
 2514poe    c2312886   5.297   2.891   3.037  0.6841  0.5611 -0.0449
 2514poe     o212887   5.203   2.891   3.142 -0.2448  0.1940 -0.8611
 2514poe    c3112888   5.143   3.014   3.174 -0.5538 -0.2157  0.1909
 2515poe    c3112889   6.689   0.558   3.451  0.4342 -0.1655  0.0997
 2515poe     o212890   6.752   0.648   3.539 -0.1478  0.0026  0.3441
 2515poe    c2312891   6.652   0.679   3.633  0.3004  0.1277  0.7857
 2515poe    c2312892   6.694   0.789   3.733 -0.4523  0.6004  0.5999
 2515poe     o212893   6.757   0.887   3.654 -0.2099 -0.2151 -0.2378
 2515poe    c2312894   6.723   1.017   3.697  0.9662 -0.1197  0.4547
 2515poe    c2312895   6.784   1.122   3.603  0.4718 -0.0570  0.1979
 2515poe     o212896   6.922   1.093   3.594  0.3262 -0.5036 -0.7541
 2515poe    c2312897   6.973   1.200   3.518 -0.4556  0.0200 -0.5521
 2515poe    c2312898   7.126   1.205   3.504 -0.3863  0.3869  0.2939
 2515poe     o212899   7.183   1.097   3.434  0.0609  0.4865  0.4982
 2515poe    c3112900   7.321   1.076   3.454  0.1023 -0.2128 -0.4470
 2516poe    c3112901   5.068   6.736   2.890 -0.0204  0.2394 -0.4872
 2516poe     o212902   5.177   6.826   2.886  0.3875 -0.2306 -0.1121
 2516poe    c2312903   5.176   6.885   2.758 -0.1352 -0.0384 -0.0218
 2516poe    c2312904   5.316   6.921   2.705 -0.4357  0.6834 -0.3396
 2516poe     o212905   5.404   6.976   2.800 -0.2918 -0.1061 -0.0018
 2516poe    c2312906   5.374   7.110   2.836 -0.0847 -0.0266 -0.1261
 2516poe    c2312907   5.392   7.133   2.987  0.3168 -0.4563 -0.1036
 2516poe     o212908   5.291   7.058   3.052  0.3720 -0.2531  0.2181
 2516poe    c2312909   5.298   7.065   3.192 -0.2469  0.5210  0.2156
 2516poe    c2312910   5.185   6.967   3.230  0.1480 -0.0061  0.0509
 2516poe     o212911   5.201   6.838   3.177 -0.4980  0.1109 -0.4406
 2516poe    c3112912   5.119   6.739   3.236 -0.2709  0.3217  0.2435
 2517poe    c3112913   5.574   2.072   6.950 -0.9676 -0.6549 -0.2603
 2517poe     o212914   5.687   2.061   6.867 -0.1179  1.0315  0.6099
 2517poe    c2312915   5.793   2.143   6.912  0.3482  0.2978  0.8712
 2517poe    c2312916   5.914   2.140   6.817 -0.5436  0.2778 -0.2782
 2517poe     o212917   5.876   2.135   6.681 -0.0280  0.3583 -0.4269
 2517poe    c2312918   5.991   2.147   6.601  0.3640  0.3121  0.1213
 2517poe    c2312919   5.967   2.076   6.466 -0.5697  0.2029  0.3363
 2517poe     o212920   5.907   1.948   6.469  0.2901 -0.2406 -0.6104
 2517poe    c2312921   5.830   1.936   6.351 -0.3304 -0.4183 -0.1920
 2517poe    c2312922   5.803   1.785   6.338 -0.2666 -0.4661  0.2009
 2517poe     o212923   5.752   1.734   6.459 -0.5237  0.5359  0.5255
 2517poe    c3112924   5.740   1.594   6.450  0.6239  0.4279  0.5797
 2518poe    c3112925   2.645   0.165   4.416  0.3374 -0.0637 -0.1980
 2518poe     o212926   2.703   0.227   4.304 -0.2708 -0.2414 -0.6216
 2518poe    c2312927   2.609   0.236   4.200 -0.7249 -0.4860 -0.2322
 2518poe    c2312928   2.632   0.347   4.096  0.3648 -0.2480  0.2529
 2518poe     o212929   2.725   0.309   3.997  0.1744  0.0250 -0.0337
 2518poe    c2312930   2.758   0.412   3.906 -0.3589  0.3479  0.1343
 2518poe    c2312931   2.652   0.444   3.799 -0.0799  0.1509 -0.2030
 2518poe     o212932   2.639   0.357   3.689  0.3675  0.0566 -0.1819
 2518poe    c2312933   2.560   0.245   3.721  0.5840 -0.1381 -0.3215
 2518poe    c2312934   2.573   0.140   3.609  0.2505  0.3358 -0.8157
 2518poe     o212935   2.707   0.109   3.578  0.4709  0.1007  0.3071
 2518poe    c3112936   2.722   0.010   3.478 -0.0409  0.9541 -0.6416
 2519poe    c3112937   7.113   7.073   5.252 -0.1380  0.4029  0.6481
 2519poe     o212938   7.005   6.998   5.303 -0.1989  0.3270  0.4097
 2519poe    c2312939   6.989   7.014   5.442  0.3698 -0.1333  0.5313
 2519poe    c2312940   6.894   6.900   5.484  0.0890  0.0781  0.4719
 2519poe     o212941   6.784   6.905   5.396  0.3914 -0.0330  0.0873
 2519poe    c2312942   6.671   6.981   5.432  0.0007 -0.6792  0.2303
 2519poe    c2312943   6.580   6.928   5.545 -0.6040  0.1769  0.1523
 2519poe     o212944   6.639   6.931   5.673 -0.9855  0.3832  0.3247
 2519poe    c2312945   6.536   6.924   5.768 -1.1195  0.7072  0.2077
 2519poe    c2312946   6.606   6.908   5.904 -0.7260 -0.3890 -0.1113
 2519poe     o212947   6.651   7.016   5.983  0.1115 -0.6987 -0.1550
 2519poe    c3112948   6.564   7.127   5.995  0.6131 -0.3540  0.3651
 2520poe    c3112949   2.953   0.080   0.910 -0.5687  0.0251  0.0547
 2520poe     o212950   2.856  -0.019   0.937 -0.0897 -0.2638  0.7465
 2520poe    c2312951   2.762  -0.038   0.834  0.0600 -0.0552  0.5715
 2520poe    c2312952   2.709  -0.182   0.843 -0.0361 -0.0675 -0.0896
 2520poe     o212953   2.670  -0.204   0.977  0.4448  0.2222  0.0986
 2520poe    c2312954   2.614  -0.333   0.990 -0.0261  0.4967  0.8188
 2520poe    c2312955   2.717  -0.444   1.013 -0.2015  0.2093  0.2410
 2520poe     o212956   2.774  -0.430   1.142  0.1676 -0.1996  0.1260
 2520poe    c2312957   2.869  -0.532   1.161  0.3742 -0.0613 -0.1448
 2520poe    c2312958   2.874  -0.581   1.307  0.0547 -0.2940 -0.2093
 2520poe     o212959   2.944  -0.487   1.385 -0.0880 -0.7328  0.4629
 2520poe    c3112960   2.944  -0.517   1.522 -0.2343 -0.6889  0.4732
 2521poe    c3112961   2.550   0.779   3.715  0.3271  0.0715 -0.5793
 2521poe     o212962   2.537   0.831   3.585 -0.7586 -0.0023 -0.5086
 2521poe    c2312963   2.597   0.748   3.489  0.4151  0.0504  0.1656
 2521poe    c2312964   2.684   0.830   3.392  0.3227 -0.0263  0.0185
 2521poe     o212965   2.594   0.927   3.344  0.4734  0.4286  0.6415
 2521poe    c2312966   2.656   1.034   3.275 -0.0659 -0.0054 -0.5559
 2521poe    c2312967   2.538   1.118   3.222 -0.3690 -0.2208 -0.2299
 2521poe     o212968   2.444   1.121   3.327 -0.1985  0.3303 -0.0893
 2521poe    c2312969   2.366   1.238   3.320 -0.3140  0.2670  0.1467
 2521poe    c2312970   2.252   1.242   3.424 -0.2414  0.7672  0.2114
 2521poe     o212971   2.291   1.224   3.558 -0.0075 -0.4366 -0.0041
 2521poe    c3112972   2.230   1.322   3.639  0.5186  0.1106 -0.2574
 2522poe    c3112973   4.040   5.982   1.823 -0.0406 -0.1543 -0.0158
 2522poe     o212974   3.930   5.982   1.735  0.3926  0.4971 -0.5659
 2522poe    c2312975   3.868   5.856   1.723  0.6529  0.3261 -0.1363
 2522poe    c2312976   3.780   5.844   1.598  0.1796  0.4087  0.1894
 2522poe     o212977   3.689   5.952   1.584  0.4501  0.6410  0.2210
 2522poe    c2312978   3.597   5.923   1.481  0.1448  0.1659  0.6222
 2522poe    c2312979   3.477   6.020   1.486 -0.1021 -0.0888 -0.1829
 2522poe     o212980   3.533   6.150   1.496  0.0731 -0.1210 -0.7381
 2522poe    c2312981   3.468   6.252   1.424  0.0196  0.1738 -0.2741
 2522poe    c2312982   3.502   6.393   1.477  0.1958  0.1059 -0.2030
 2522poe     o212983   3.641   6.407   1.462  0.1757  0.4491 -0.0844
 2522poe    c3112984   3.678   6.539   1.430 -0.6137  0.6613 -0.1462
 2523poe    c3112985   6.890   3.529   1.936 -0.8923  0.4328  0.1913
 2523poe     o212986   6.847   3.459   1.821  0.3771 -0.2767  0.1283
 2523poe    c2312987   6.835   3.319   1.819 -0.0744 -0.2411  0.3020
 2523poe    c2312988   6.790   3.273   1.680 -0.2864  0.0440  0.2761
 2523poe     o212989   6.706   3.377   1.636  0.1000  0.3820  0.3309
 2523poe    c2312990   6.643   3.334   1.517 -0.1436  0.0903  0.5656
 2523poe    c2312991   6.519   3.419   1.486 -0.2603 -0.2218  0.1673
 2523poe     o212992   6.552   3.554   1.460 -0.1910 -0.1888  0.4300
 2523poe    c2312993   6.443   3.642   1.444  0.0777  0.0730  0.0183
 2523poe    c2312994   6.488   3.783   1.404 -0.0232  0.1536  0.1906
 2523poe     o212995   6.552   3.835   1.519  0.6259  0.1039 -0.1436
 2523poe    c3112996   6.533   3.975   1.522  1.1702  0.1778 -0.0801
 2524poe    c3112997   7.127   6.844   0.297 -0.5253 -0.3834 -0.5535
 2524poe     o212998   7.225   6.942   0.272 -0.5650 -0.1741  0.0754
 2524poe    c2312999   7.332   6.866   0.220 -0.1196  0.1481  0.5122
 2524poe    c2313000   7.433   6.935   0.126 -0.0792  0.1502  0.5573
 2524poe     o213001   7.521   7.024   0.192  0.4647 -0.4232  0.6071
 2524poe    c2313002   7.634   7.061   0.117 -0.2329 -0.1541 -0.3334
 2524poe    c2313003   7.653   7.209   0.081  0.3401 -0.1623 -0.0850
 2524poe     o213004   7.700   7.290   0.186 -0.6406  0.1076  0.1589
 2524poe    c2313005   7.667   7.420   0.142 -0.5041  0.1367  0.1428
 2524poe    c2313006   7.749   7.521   0.224  0.4137 -0.3528 -0.1596
 2524poe     o213007   7.719   7.520   0.361  0.5611  0.3078 -0.1162
 2524poe    c3113008   7.625   7.612   0.413  0.0019 -0.6428  0.6040
 2525poe    c3113009   0.668   3.969   6.809 -0.1445  0.8817 -0.1428
 2525poe     o213010   0.630   3.994   6.676 -0.3709 -0.1795 -0.2824
 2525poe    c2313011   0.719   3.919   6.596  0.0563  0.0676 -0.0428
 2525poe    c2313012   0.687   3.970   6.454  0.2446 -0.1793 -0.1763
 2525poe     o213013   0.555   3.928   6.430  0.1741 -0.3044  0.4038
 2525poe    c2313014   0.507   3.948   6.298  0.1839 -1.0956  0.2726
 2525poe    c2313015   0.371   3.880   6.277 -0.1508 -0.2379 -0.3885
 2525poe     o213016   0.288   3.908   6.387  0.6470 -0.1228  0.1964
 2525poe    c2313017   0.163   3.844   6.367  0.4261  0.3723 -0.0336
 2525poe    c2313018   0.073   3.842   6.492 -0.1101 -0.0312 -0.4250
 2525poe     o213019   0.065   3.973   6.542 -0.2052 -0.1582 -0.1018
 2525poe    c3113020  -0.020   3.976   6.655  0.6341  1.2163  0.5122
 2526poe    c3113021   4.723   7.098   4.315  0.0043 -0.0453  0.0791
 2526poe     o213022   4.789   7.081   4.192 -0.3904 -0.6512 -0.0516
 2526poe    c2313023   4.748   6.962   4.128  0.4296 -1.0440  0.1417
 2526poe    c2313024   4.847   6.939   4.011  0.1209 -0.0203 -0.3320
 2526poe     o213025   4.851   7.045   3.918 -0.1639  0.0213 -0.2980
 2526poe    c2313026   4.920   6.987   3.810  0.1274 -0.2915  0.0526
 2526poe    c2313027   4.895   7.076   3.687  0.2292  0.2829  0.4430
 2526poe     o213028   4.756   7.077   3.659  0.4275 -0.3487 -0.6396
 2526poe    c2313029   4.720   7.162   3.552 -0.1429  0.0431 -0.1457
 2526poe    c2313030   4.757   7.119   3.409  0.2744 -0.4561  0.1072
 2526poe     o213031   4.656   7.044   3.346  0.0860 -0.1005 -0.0158
 2526poe    c3113032   4.662   7.023   3.206 -0.2850 -0.2481 -0.0116
 2527poe    c3113033   4.726   2.354   2.129 -0.1350  0.5668 -0.3583
 2527poe     o213034   4.769   2.472   2.193  0.0146  0.0490  0.5193
 2527poe    c2313035   4.908   2.466   2.218  0.0676  0.5128  0.3532
 2527poe    c2313036   4.987   2.597   2.208  0.5141  0.2410  0.2851
 2527poe     o213037   4.944   2.694   2.301 -0.2227  0.1209  0.0780
 2527poe    c2313038   4.971   2.669   2.437 -0.1504  0.2295  0.0839
 2527poe    c2313039   4.914   2.780   2.528  0.1482  0.4521  0.0018
 2527poe     o213040   4.774   2.796   2.535  0.1113  0.1871 -0.1205
 2527poe    c2313041   4.746   2.890   2.637 -0.1747  0.0236 -0.0479
 2527poe    c2313042   4.594   2.876   2.655 -0.0540 -0.7969  0.3974
 2527poe     o213043   4.542   2.871   2.524 -0.2315  0.1469  0.4255
 2527poe    c3113044   4.404   2.844   2.514 -0.1260 -0.0569 -0.5874
 2528poe    c3113045   1.943   2.936   1.305 -0.0525 -0.1628 -0.6609
 2528poe     o213046   1.852   2.875   1.393 -0.1809  0.4875 -0.3369
 2528poe    c2313047   1.786   2.761   1.343 -0.3168  0.3008  0.2583
 2528poe    c2313048   1.676   2.739   1.449 -0.3814 -0.4888  0.0372
 2528poe     o213049   1.714   2.776   1.580 -0.7017 -0.0468  0.0055
 2528poe    c2313050   1.619   2.739   1.677 -0.5662 -0.1224  0.1090
 2528poe    c2313051   1.679   2.767   1.816 -0.6049  0.1073  0.0803
 2528poe     o213052   1.715   2.902   1.833 -0.0915 -0.0504  0.2863
 2528poe    c2313053   1.781   2.922   1.956  0.5823  0.0656 -0.0903
 2528poe    c2313054   1.811   3.072   1.980 -0.2794  0.0947  0.9038
 2528poe     o213055   1.917   3.116   1.898 -0.6797  0.0706  0.3631
 2528poe    c3113056   1.953   3.249   1.928 -0.1111  0.0914 -0.3929
 2529poe    c3113057   1.154   5.019   7.165 -0.5016  0.1736  0.2516
 2529poe     o213058   1.230   5.115   7.234 -0.3750  0.1889  0.0926
 2529poe    c2313059   1.213   5.081   7.370 -0.0709  0.1870  0.1304
 2529poe    c2313060   1.319   5.158   7.452  0.2207  0.5400 -0.5693
 2529poe     o213061   1.418   5.190   7.357  0.4780  0.1048 -0.4508
 2529poe    c2313062   1.533   5.247   7.416 -0.3312  0.7287  0.5532
 2529poe    c2313063   1.641   5.269   7.309 -0.3288 -0.0676  0.3832
 2529poe     o213064   1.600   5.364   7.212 -0.0964 -0.4659 -0.1119
 2529poe    c2313065   1.655   5.486   7.255  0.0643 -0.4863 -0.2613
 2529poe    c2313066   1.695   5.580   7.139  0.5718 -0.4377 -0.0505
 2529poe     o213067   1.763   5.530   7.026  0.8586 -0.1807  0.0073
 2529poe    c3113068   1.893   5.583   7.016  0.5415  0.5945 -0.0470
 2530poe    c3113069   0.464   4.220   1.334  0.1238 -0.0113  0.1917
 2530poe     o213070   0.445   4.268   1.202  0.6886  0.3173  0.2313
 2530poe    c2313071   0.430   4.408   1.187  0.2862  0.2620  0.1192
 2530poe    c2313072   0.286   4.461   1.188  0.1487 -0.1050  0.0158
 2530poe     o213073   0.210   4.461   1.070 -0.0770 -0.5299  0.1570
 2530poe    c2313074   0.077   4.437   1.109 -0.1451  0.1381  0.3401
 2530poe    c2313075  -0.002   4.411   0.979 -0.0588  0.2559  0.2638
 2530poe     o213076   0.040   4.292   0.915 -0.2563  0.1292  0.3692
 2530poe    c2313077  -0.050   4.252   0.814 -0.0007  0.7612 -0.1168
 2530poe    c2313078  -0.001   4.112   0.772  0.0046  0.5730  0.5143
 2530poe     o213079   0.130   4.132   0.724 -0.0462 -0.3697 -0.0234
 2530poe    c3113080   0.173   4.033   0.633  0.2396  0.0420 -0.3377
 2531poe    c3113081   1.870   0.518   6.440  0.3444 -0.4484  0.6909
 2531poe     o213082   1.998   0.504   6.498  0.4878  0.4258  0.6065
 2531poe    c2313083   1.993   0.413   6.605  0.2251  0.3425  0.5271
 2531poe    c2313084   2.142   0.371   6.609  0.1447  0.0035 -0.0244
 2531poe     o213085   2.228   0.483   6.606 -0.0843  0.1811  0.0006
 2531poe    c2313086   2.365   0.450   6.600 -0.2142 -0.4026  0.2142
 2531poe    c2313087   2.439   0.583   6.578 -0.2722 -0.4431 -0.2211
 2531poe     o213088   2.351   0.672   6.512  0.4917  0.0830 -0.5426
 2531poe    c2313089   2.432   0.784   6.484  0.3597  0.3826  0.2451
 2531poe    c2313090   2.374   0.888   6.386  0.6419  0.5167  0.2195
 2531poe     o213091   2.333   0.846   6.257  0.6524 -0.2146  0.4487
 2531poe    c3113092   2.416   0.885   6.150 -0.2793 -0.2172 -0.2842
 2532poe    c3113093   7.120   5.128   3.040  0.4435 -0.2829 -0.2797
 2532poe     o213094   7.156   5.019   3.122 -0.4709 -0.2615  0.1644
 2532poe    c2313095   7.163   4.898   3.049  0.3621  0.3108 -0.7268
 2532poe    c2313096   7.276   4.819   3.118  0.0565  0.9123  0.5127
 2532poe     o213097   7.271   4.811   3.258 -0.1700  0.0044  0.4606
 2532poe    c2313098   7.366   4.720   3.310  0.8322  0.9060  0.2352
 2532poe    c2313099   7.364   4.736   3.464 -0.0524  0.8001  0.2418
 2532poe     o213100   7.232   4.745   3.510 -0.1181 -0.3628  0.3107
 2532poe    c2313101   7.202   4.688   3.636 -0.4070 -0.3310  0.2569
 2532poe    c2313102   7.050   4.662   3.630 -0.4116 -0.1359 -0.6119
 2532poe     o213103   7.009   4.556   3.547 -0.0273 -0.5847 -0.2327
 2532poe    c3113104   6.912   4.599   3.453  0.1670  0.5411  0.0640
 2533poe    c3113105   3.927   2.480   4.243 -0.0510 -0.2622  0.3291
 2533poe     o213106   3.944   2.423   4.371  0.1096  0.0299  0.4395
 2533poe    c2313107   3.822   2.357   4.392 -0.0851  0.1175 -0.3627
 2533poe    c2313108   3.825   2.320   4.542 -0.4503 -0.2677 -0.4466
 2533poe     o213109   3.950   2.255   4.554 -0.3257  0.0410 -0.0596
 2533poe    c2313110   3.955   2.171   4.667  0.2215 -0.1419 -0.2156
 2533poe    c2313111   4.083   2.086   4.661  0.4396  0.1311  0.5653
 2533poe     o213112   4.187   2.166   4.610 -0.2114  0.2410 -0.6069
 2533poe    c2313113   4.317   2.110   4.614 -0.2448  0.2058 -0.0133
 2533poe    c2313114   4.433   2.194   4.557  0.2521 -0.6182 -0.2263
 2533poe     o213115   4.426   2.224   4.419 -0.3581  0.5052  0.0322
 2533poe    c3113116   4.541   2.301   4.392  0.3864 -0.4105  0.4842
 2534poe    c3113117   2.583   2.430   5.558  0.0162  0.0031  0.1597
 2534poe     o213118   2.446   2.400   5.575  0.1839 -0.6599  0.3539
 2534poe    c2313119   2.399   2.362   5.448  0.6719  0.3751 -0.1474
 2534poe    c2313120   2.245   2.367   5.455  0.6803  0.0628  0.3059
 2534poe     o213121   2.199   2.485   5.519 -0.0800 -0.0650  0.0098
 2534poe    c2313122   2.061   2.481   5.546 -0.0645 -0.4758  0.0326
 2534poe    c2313123   2.024   2.619   5.603 -0.2633 -0.5072 -0.0189
 2534poe     o213124   2.123   2.664   5.693 -0.4792  0.2021 -0.1337
 2534poe    c2313125   2.083   2.787   5.749 -0.6447 -0.2269  0.6891
 2534poe    c2313126   2.192   2.852   5.836 -0.1210 -0.3984  0.1648
 2534poe     o213127   2.303   2.897   5.762 -0.3726 -0.1809 -0.0837
 2534poe    c3113128   2.360   3.006   5.831 -0.1637  0.2462 -0.9186
 2535poe    c3113129   3.495   7.169   6.980  0.0729 -0.2367  0.0546
 2535poe     o213130   3.514   7.097   6.860 -0.1464 -0.1804 -0.0142
 2535poe    c2313131   3.645   7.045   6.869  0.0116  0.1854 -0.1337
 2535poe    c2313132   3.681   6.968   6.741 -0.6574  0.4055 -0.4597
 2535poe     o213133   3.605   6.854   6.707 -0.5418  0.0397  0.4732
 2535poe    c2313134   3.630   6.809   6.575 -0.1113  0.3278  0.4538
 2535poe    c2313135   3.552   6.688   6.520  0.2856  0.4170 -0.3071
 2535poe     o213136   3.544   6.574   6.602 -0.0919  0.6692  0.0074
 2535poe    c2313137   3.671   6.521   6.635 -0.2702  0.0547 -0.2914
 2535poe    c2313138   3.669   6.378   6.692 -0.1947  0.1791  0.0225
 2535poe     o213139   3.663   6.283   6.588  0.1136  0.0939  0.0839
 2535poe    c3113140   3.549   6.202   6.575  0.3947 -0.3367  0.2849
 2536poe    c3113141   0.763   6.343   6.460  0.3950 -0.9029 -0.1517
 2536poe     o213142   0.640   6.352   6.528  0.5477 -0.2159  0.0436
 2536poe    c2313143   0.599   6.486   6.538 -0.3965 -0.4946  0.0889
 2536poe    c2313144   0.452   6.496   6.495 -0.0357  0.0566 -1.0534
 2536poe     o213145   0.396   6.404   6.586  0.1559  0.7121 -0.2679
 2536poe    c2313146   0.255   6.404   6.576  0.1242  0.2160  0.1833
 2536poe    c2313147   0.223   6.298   6.683 -0.1899 -0.1217 -0.2408
 2536poe     o213148   0.322   6.197   6.675 -0.1622 -0.0564 -0.7217
 2536poe    c2313149   0.348   6.121   6.791 -0.7123 -0.3808 -0.8071
 2536poe    c2313150   0.487   6.055   6.775 -0.4017  0.2476 -0.7323
 2536poe     o213151   0.580   6.147   6.723  0.5177 -0.1971  0.0880
 2536poe    c3113152   0.689   6.066   6.687  0.0806 -0.5743 -0.4025
 2537poe    c3113153   5.715   3.766   6.289  0.0059  0.6244 -0.2783
 2537poe     o213154   5.707   3.665   6.191 -0.4211  0.0664  0.3165
 2537poe    c2313155   5.574   3.654   6.147 -0.2829  0.6795 -0.2642
 2537poe    c2313156   5.505   3.523   6.190 -0.0450  0.5742 -0.2055
 2537poe     o213157   5.482   3.499   6.327  0.6265 -0.2010 -0.2231
 2537poe    c2313158   5.457   3.362   6.346  0.5091 -0.0154  1.0637
 2537poe    c2313159   5.402   3.352   6.489 -0.3494 -0.0333  0.7399
 2537poe     o213160   5.509   3.334   6.580  0.1224  0.1903  0.2302
 2537poe    c2313161   5.459   3.361   6.709 -0.5031 -0.4854  0.1338
 2537poe    c2313162   5.555   3.319   6.821 -0.4424 -0.1952  0.1924
 2537poe     o213163   5.596   3.184   6.826 -0.3941 -0.2000 -0.2964
 2537poe    c3113164   5.722   3.157   6.883 -0.3984  0.1333 -0.1252
 2538poe    c3113165   2.193   2.715   2.198  0.2923 -0.5758 -0.0592
 2538poe     o213166   2.209   2.791   2.080  0.3517 -0.2063  0.1852
 2538poe    c2313167   2.204   2.932   2.095 -0.3427 -0.1252 -0.7716
 2538poe    c2313168   2.321   3.001   2.022  0.1086  0.4393  0.4725
 2538poe     o213169   2.332   2.975   1.884 -0.4431  0.0190  0.5016
 2538poe    c2313170   2.276   3.068   1.795  0.4654 -0.1982 -0.3147
 2538poe    c2313171   2.372   3.058   1.674  0.6340 -0.3298 -0.1703
 2538poe     o213172   2.363   2.927   1.624 -0.0796 -0.3399 -0.0377
 2538poe    c2313173   2.381   2.900   1.486  0.1249 -0.0945 -0.0600
 2538poe    c2313174   2.353   2.752   1.455 -0.2126 -0.1189  0.3492
 2538poe     o213175   2.411   2.674   1.557  0.2645  0.0182  0.1827
 2538poe    c3113176   2.428   2.541   1.513 -0.3262 -0.2933  0.8756
 2539poe    c3113177   1.735   4.264   2.601  0.5661 -0.4846  0.6494
 2539poe     o213178   1.710   4.193   2.482 -0.1541  0.6204  0.1256
 2539poe    c2313179   1.829   4.172   2.410 -0.3824 -0.8845  0.1592
 2539poe    c2313180   1.810   4.080   2.288 -0.2517 -0.0931 -0.4663
 2539poe     o213181   1.795   3.946   2.329  0.2322 -0.1299 -0.3963
 2539poe    c2313182   1.858   3.869   2.229 -0.0535 -0.5083 -0.2881
 2539poe    c2313183   1.876   3.717   2.247 -0.3198 -0.6083 -0.8228
 2539poe     o213184   1.767   3.633   2.278 -0.5858  0.1329  0.3282
 2539poe    c2313185   1.794   3.506   2.223 -0.2958  0.2578  0.1805
 2539poe    c2313186   1.665   3.430   2.186 -0.1084 -0.0238  0.0969
 2539poe     o213187   1.626   3.430   2.051 -0.6165 -0.0893  0.2438
 2539poe    c3113188   1.530   3.327   2.040 -0.4377 -0.1599 -0.7479
 2540poe    c3113189   1.086   4.509   3.476  0.5626  0.0540 -0.0598
 2540poe     o213190   1.086   4.590   3.361 -0.0129 -0.5092 -0.4582
 2540poe    c2313191   1.198   4.559   3.281  0.4629 -0.1256  0.0535
 2540poe    c2313192   1.202   4.646   3.154  0.1877  0.2034  0.2690
 2540poe     o213193   1.118   4.612   3.046  0.5436 -0.5215  0.2166
 2540poe    c2313194   1.147   4.493   2.975 -0.4022 -0.7014  0.1221
 2540poe    c2313195   1.026   4.449   2.890 -0.4742 -0.2040 -0.0382
 2540poe     o213196   0.912   4.490   2.963 -0.6059 -0.0566 -0.3277
 2540poe    c2313197   0.805   4.424   2.899 -0.6536 -0.5669  0.2639
 2540poe    c2313198   0.672   4.481   2.953 -0.5873 -0.3792  0.2316
 2540poe     o213199   0.643   4.614   2.917 -0.2947 -0.4821 -0.4073
 2540poe    c3113200   0.528   4.646   2.993 -0.0860 -0.2912 -0.1727
 2541poe    c3113201   6.173   4.768   3.414 -0.0494 -0.1349  0.3874
 2541poe     o213202   6.183   4.629   3.434 -0.7198 -0.1285  0.8223
 2541poe    c2313203   6.068   4.559   3.395 -0.4122 -0.1866 -0.0080
 2541poe    c2313204   6.100   4.413   3.434  0.3691  0.0858  0.3826
 2541poe     o213205   6.236   4.386   3.409  0.2074  0.2277 -0.6851
 2541poe    c2313206   6.278   4.256   3.441  0.3083  0.2311 -0.8054
 2541poe    c2313207   6.427   4.255   3.480  0.2113  0.2809 -0.4323
 2541poe     o213208   6.455   4.346   3.584 -0.3659 -0.3782  0.3186
 2541poe    c2313209   6.581   4.312   3.638  0.0148  0.3655 -0.0860
 2541poe    c2313210   6.608   4.408   3.755 -0.4761 -0.4681  0.7273
 2541poe     o213211   6.605   4.544   3.717 -0.2468 -0.7039 -0.1714
 2541poe    c3113212   6.664   4.619   3.821 -0.6379 -0.7166  0.0629
 2542poe    c3113213   4.195   1.140   4.675 -0.4727  0.3415  0.6458
 2542poe     o213214   4.282   1.228   4.608 -0.0554 -0.4375  0.1490
 2542poe    c2313215   4.409   1.212   4.667  0.2731  0.4052 -0.3056
 2542poe    c2313216   4.519   1.303   4.609  0.4066  0.5823  0.2169
 2542poe     o213217   4.504   1.306   4.469 -0.3636  0.1746  0.2868
 2542poe    c2313218   4.620   1.264   4.401 -0.6219  0.1075 -0.1185
 2542poe    c2313219   4.603   1.260   4.248  0.0883 -0.0160 -0.1971
 2542poe     o213220   4.553   1.390   4.225 -0.4774 -0.2681 -0.4100
 2542poe    c2313221   4.568   1.428   4.090 -0.5282 -0.2293 -0.4041
 2542poe    c2313222   4.478   1.552   4.068  0.3186  0.3766 -0.5022
 2542poe     o213223   4.360   1.536   4.143  0.7311 -0.1573  0.0351
 2542poe    c3113224   4.235   1.562   4.084  0.8610  0.1252 -0.1149
 2543poe    c3113225   4.286   4.013   5.280 -0.3129  0.4188  0.5794
 2543poe     o213226   4.405   4.088   5.292  0.0696 -0.1492  0.4215
 2543poe    c2313227   4.393   4.206   5.214  0.0138 -0.1325  0.4548
 2543poe    c2313228   4.538   4.258   5.202 -0.2315  0.4102 -0.1541
 2543poe     o213229   4.582   4.294   5.073 -0.1932  0.0032 -0.2534
 2543poe    c2313230   4.722   4.315   5.071 -0.0825 -0.6682  0.1637
 2543poe    c2313231   4.777   4.332   4.929 -0.6499 -0.3948 -0.0238
 2543poe     o213232   4.738   4.458   4.877 -0.1621 -0.4012 -0.4177
 2543poe    c2313233   4.822   4.485   4.768 -0.3083  0.0971 -0.4111
 2543poe    c2313234   4.849   4.632   4.732 -0.2727  0.2423  0.2042
 2543poe     o213235   4.919   4.649   4.611 -0.1032 -0.0634  0.2578
 2543poe    c3113236   5.009   4.757   4.622 -0.9260  0.6485  0.0787
 2544poe    c3113237   1.241   0.183   2.250 -0.3483 -0.1770 -0.0344
 2544poe     o213238   1.245   0.061   2.179 -0.5463 -0.3795  0.2968
 2544poe    c2313239   1.359   0.059   2.095 -0.3508  0.2190  0.5390
 2544poe    c2313240   1.369  -0.081   2.032 -1.0872  0.3914  0.0291
 2544poe     o213241   1.400  -0.171   2.136 -0.4181 -0.2489 -0.7048
 2544poe    c2313242   1.442  -0.294   2.083 -0.6171 -0.1874 -1.0092
 2544poe    c2313243   1.413  -0.417   2.171  0.2971  0.0665 -0.3312
 2544poe     o213244   1.274  -0.440   2.184  0.3809 -0.4210 -0.2967
 2544poe    c2313245   1.265  -0.580   2.197 -0.1799 -0.3506  0.0688
 2544poe    c2313246   1.117  -0.622   2.194 -0.2548 -0.0768 -0.1287
 2544poe     o213247   1.049  -0.523   2.267  0.1795 -0.0095  0.1892
 2544poe    c3113248   0.920  -0.564   2.310  0.0612  0.1700  0.0070
 2545poe    c3113249   4.270   4.657   3.895 -0.0124 -0.4144 -0.1536
 2545poe     o213250   4.407   4.661   3.928  0.0897  0.4843 -0.6424
 2545poe    c2313251   4.444   4.538   3.985 -0.2524  0.4115 -0.5749
 2545poe    c2313252   4.593   4.512   3.955 -0.1770 -0.2800  0.3148
 2545poe     o213253   4.599   4.474   3.819 -0.1630 -0.2906  0.3183
 2545poe    c2313254   4.736   4.470   3.786 -0.1499 -0.3101  0.3762
 2545poe    c2313255   4.787   4.452   3.642  0.3792  0.2421  0.4901
 2545poe     o213256   4.719   4.528   3.545  0.1484 -0.3408  0.1923
 2545poe    c2313257   4.783   4.537   3.420  0.1272  0.1855  0.2193
 2545poe    c2313258   4.701   4.608   3.311  0.1303  0.5630  0.4601
 2545poe     o213259   4.618   4.689   3.390 -0.2082  0.0100  0.6776
 2545poe    c3113260   4.561   4.781   3.300 -0.2104 -0.3410  0.3212
 2546poe    c3113261   5.516   4.582   0.923 -0.8048  0.0479 -0.1343
 2546poe     o213262   5.451   4.604   1.046 -0.0017 -0.1344  0.3337
 2546poe    c2313263   5.435   4.482   1.113  0.4140 -0.3743 -0.0005
 2546poe    c2313264   5.298   4.517   1.175  0.7263  0.2691  0.3389
 2546poe     o213265   5.291   4.646   1.232 -0.0276 -0.0730  1.0371
 2546poe    c2313266   5.174   4.647   1.310 -0.6308 -0.3533  0.1497
 2546poe    c2313267   5.169   4.786   1.375 -0.0841 -0.2416 -0.0406
 2546poe     o213268   5.198   4.885   1.279 -0.0351 -0.2636 -0.0486
 2546poe    c2313269   5.163   5.007   1.340  0.8352  0.2534 -0.5563
 2546poe    c2313270   5.126   5.124   1.247  0.1116  0.2111 -0.3280
 2546poe     o213271   5.230   5.196   1.185  1.0346 -0.9539 -0.1706
 2546poe    c3113272   5.171   5.278   1.086  0.0446 -1.2524  0.1523
 2547poe    c3113273   4.306   6.436   4.154  0.0625  0.1365 -0.4056
 2547poe     o213274   4.206   6.428   4.253  0.0662  0.6270 -0.3603
 2547poe    c2313275   4.096   6.363   4.194 -0.2553  0.5593  0.3063
 2547poe    c2313276   3.983   6.352   4.298 -0.1719  0.3363  0.3747
 2547poe     o213277   3.967   6.486   4.341  0.1398  0.4910  0.0136
 2547poe    c2313278   3.852   6.500   4.421 -0.2033 -0.1263 -0.3679
 2547poe    c2313279   3.861   6.644   4.473  0.6373 -0.2311 -0.2027
 2547poe     o213280   3.982   6.686   4.531  0.5043 -0.3895  0.1870
 2547poe    c2313281   3.978   6.823   4.567  0.4228 -0.2854 -0.2124
 2547poe    c2313282   4.099   6.847   4.659 -0.0865  0.7990  0.1858
 2547poe     o213283   4.220   6.838   4.587 -0.2087  0.3274  0.0386
 2547poe    c3113284   4.332   6.832   4.673 -0.1053  0.0310 -0.1145
 2548poe    c3113285   3.128   4.829   1.435  0.1211 -0.0983 -0.6805
 2548poe     o213286   2.991   4.852   1.410  0.1440 -0.0621 -0.7736
 2548poe    c2313287   2.958   4.985   1.442 -0.3009 -0.3420 -0.0505
 2548poe    c2313288   2.822   5.044   1.399 -0.4920 -0.3424  0.5521
 2548poe     o213289   2.721   4.946   1.404 -0.1951 -0.6603  0.3229
 2548poe    c2313290   2.606   5.005   1.348  0.1481 -0.5602 -0.2875
 2548poe    c2313291   2.492   4.902   1.342  0.0159 -0.4032 -0.4790
 2548poe     o213292   2.486   4.846   1.472 -0.4025 -0.1076 -0.3666
 2548poe    c2313293   2.379   4.756   1.484 -0.4895  0.1196  0.6362
 2548poe    c2313294   2.364   4.754   1.637  0.0791 -0.5444  0.6889
 2548poe     o213295   2.489   4.718   1.690  0.3524  0.1036  0.4923
 2548poe    c3113296   2.477   4.643   1.808 -0.2947 -0.4368  0.0872
 2549poe    c3113297   1.427   0.582   3.239  0.0506  0.2230 -0.1442
 2549poe     o213298   1.476   0.577   3.371  0.1409 -0.2324 -0.1966
 2549poe    c2313299   1.373   0.630   3.451  0.4809 -0.3098  0.2970
 2549poe    c2313300   1.457   0.662   3.576 -0.1489  0.2869  0.5695
 2549poe     o213301   1.542   0.554   3.608  0.1569  0.3164 -0.1382
 2549poe    c2313302   1.564   0.537   3.746 -0.0863  0.2159 -0.1106
 2549poe    c2313303   1.680   0.435   3.753 -0.1116  0.1157 -1.0595
 2549poe     o213304   1.659   0.324   3.668 -0.4208 -0.5883 -0.0737
 2549poe    c2313305   1.769   0.238   3.687 -0.1694 -0.1918  0.2894
 2549poe    c2313306   1.806   0.169   3.554  0.2044 -0.2263  0.4088
 2549poe     o213307   1.856   0.260   3.459 -0.1926 -0.4045  0.0235
 2549poe    c3113308   1.974   0.200   3.410 -0.2859 -0.0933 -0.5883
 2550poe    c3113309   2.141   0.996   0.149 -0.1362 -0.4373  0.1164
 2550poe     o213310   2.254   0.925   0.102 -0.1085 -0.1350 -0.2858
 2550poe    c2313311   2.356   0.954   0.195 -0.1814 -0.0581 -0.2294
 2550poe    c2313312   2.488   0.910   0.128  0.1497  0.5852 -0.0044
 2550poe     o213313   2.501   0.770   0.118  0.0773  0.5493  0.3826
 2550poe    c2313314   2.570   0.722   0.004 -0.1726 -0.0822  0.4935
 2550poe    c2313315   2.599   0.571  -0.000  0.2619  0.0171 -0.1620
 2550poe     o213316   2.472   0.513  -0.017  0.0685  0.4140 -0.0892
 2550poe    c2313317   2.491   0.377  -0.051 -0.8823  0.2399  0.0194
 2550poe    c2313318   2.349   0.321  -0.067 -0.2913 -1.3785  0.2393
 2550poe     o213319   2.276   0.342   0.052  0.4556  0.1851  0.4545
 2550poe    c3113320   2.213   0.221   0.087 -0.0166  0.3054  0.0368
 2551poe    c3113321   1.335   2.826   3.774  0.3583 -0.8149 -0.4090
 2551poe     o213322   1.220   2.891   3.724  0.2367 -0.3182  0.4886
 2551poe    c2313323   1.170   2.801   3.627  0.1731 -0.0286  0.2504
 2551poe    c2313324   1.061   2.866   3.539  0.0689  0.0175  0.4132
 2551poe     o213325   0.926   2.868   3.580  0.0004 -0.6182  0.2360
 2551poe    c2313326   0.851   2.916   3.471  0.2087 -0.0443  0.3413
 2551poe    c2313327   0.704   2.932   3.514 -0.1445  0.4304 -0.9880
 2551poe     o213328   0.638   2.808   3.522  0.3438  0.2161 -0.1294
 2551poe    c2313329   0.511   2.820   3.581  0.3379  0.5345 -0.2056
 2551poe    c2313330   0.456   2.676   3.593  0.6176  0.4672  0.2637
 2551poe     o213331   0.529   2.587   3.675 -0.2966 -0.4158  0.1386
 2551poe    c3113332   0.449   2.471   3.679 -0.7016 -0.1353  0.2842
 2552poe    c3113333   5.101   3.130   2.771  0.7115  0.1413  0.1239
 2552poe     o213334   5.151   3.112   2.641  0.8128  0.8726  0.0628
 2552poe    c2313335   5.126   3.217   2.549 -0.2679  0.2450 -0.3695
 2552poe    c2313336   5.218   3.211   2.426  0.4408 -0.8065  0.1963
 2552poe     o213337   5.212   3.102   2.337 -0.8226 -0.5489 -0.0563
 2552poe    c2313338   5.092   3.084   2.266 -0.8554  0.7663 -0.3636
 2552poe    c2313339   5.100   3.022   2.126  0.0528  0.4955 -0.1943
 2552poe     o213340   5.159   3.106   2.029  0.1972  0.1903 -0.3751
 2552poe    c2313341   5.122   3.066   1.899 -0.4399  0.4937 -0.2899
 2552poe    c2313342   5.191   3.151   1.791 -0.0934 -0.0570 -0.5043
 2552poe     o213343   5.146   3.284   1.781 -0.6243 -0.1643  0.4041
 2552poe    c3113344   5.163   3.322   1.647  0.0686 -0.8026  0.3048
 2553poe    c3113345   5.738   5.866   5.837 -0.5032  0.1778  0.6807
 2553poe     o213346   5.818   5.971   5.788  0.0086 -0.6676 -0.3436
 2553poe    c2313347   5.818   5.960   5.647  0.0483 -0.2778 -0.3750
 2553poe    c2313348   5.901   6.072   5.583 -0.0211 -0.3929 -0.6669
 2553poe     o213349   6.040   6.057   5.604 -0.0539  0.0287 -0.1292
 2553poe    c2313350   6.113   6.160   5.541 -0.1150  0.4632  0.4997
 2553poe    c2313351   6.263   6.126   5.540 -0.1890  0.1286 -0.5841
 2553poe     o213352   6.304   5.999   5.494  0.1431  0.0177 -0.0008
 2553poe    c2313353   6.291   5.990   5.354 -0.6035  0.4145  0.0372
 2553poe    c2313354   6.275   5.852   5.288 -0.3051  0.7045 -0.6641
 2553poe     o213355   6.379   5.770   5.338 -0.7240  0.1320 -0.7222
 2553poe    c3113356   6.387   5.646   5.272  0.0710 -0.3583  0.2808
 2554poe    c3113357   6.512   6.057   2.956 -0.6911 -0.3071 -0.2880
 2554poe     o213358   6.424   5.993   3.046  0.2243  0.1718  0.9604
 2554poe    c2313359   6.362   6.087   3.131 -0.7393  0.2388  0.1853
 2554poe    c2313360   6.299   6.004   3.244  0.0024  0.3296  0.6641
 2554poe     o213361   6.388   5.926   3.321 -0.1783 -0.8479 -0.2891
 2554poe    c2313362   6.327   5.846   3.420  0.0384 -0.8049 -0.1196
 2554poe    c2313363   6.428   5.762   3.500  0.5706  0.0201  0.0837
 2554poe     o213364   6.477   5.645   3.439 -0.6233 -0.3570 -0.1840
 2554poe    c2313365   6.397   5.529   3.444 -0.5482 -0.3965  0.1660
 2554poe    c2313366   6.498   5.424   3.396  0.4681  0.7816 -0.3396
 2554poe     o213367   6.568   5.469   3.283  0.3570  0.6777 -0.4496
 2554poe    c3113368   6.597   5.369   3.187 -0.2657  0.9531 -0.9322
 2555poe    c3113369   1.369   7.197   5.850 -0.4415  0.6785  0.3840
 2555poe     o213370   1.236   7.241   5.868 -0.7105 -0.1782  0.5206
 2555poe    c2313371   1.154   7.140   5.922 -0.4151 -0.2631  0.8180
 2555poe    c2313372   1.005   7.175   5.904 -0.2549 -0.0696 -0.2469
 2555poe     o213373   0.946   7.210   5.781 -0.6227  0.5749  0.1020
 2555poe    c2313374   0.895   7.100   5.708 -0.0589  0.5672 -0.2896
 2555poe    c2313375   0.801   7.151   5.597  0.0632 -0.9462 -1.1036
 2555poe     o213376   0.862   7.267   5.546  0.0174 -0.1324  0.6191
 2555poe    c2313377   0.845   7.272   5.406 -0.2872 -0.2218  0.6522
 2555poe    c2313378   0.969   7.246   5.319 -0.5928  0.2786  0.0626
 2555poe     o213379   1.071   7.343   5.335  0.2613 -0.5718 -0.0816
 2555poe    c3113380   1.181   7.302   5.258  0.0660  0.0416 -0.7136
 2556poe    c3113381   7.199   6.746   1.313  0.2022  0.2897  0.1953
 2556poe     o213382   7.173   6.882   1.341  0.2132  0.3616 -0.1340
 2556poe    c2313383   7.037   6.911   1.365  0.2120  0.1783  0.0939
 2556poe    c2313384   7.022   7.063   1.390  0.7438  0.2960 -0.2897
 2556poe     o213385   7.082   7.136   1.286 -0.1877  0.1747 -0.9290
 2556poe    c2313386   7.035   7.269   1.281 -0.3599  0.1443 -0.2095
 2556poe    c2313387   7.100   7.349   1.166  0.0114  0.3252  0.1259
 2556poe     o213388   7.236   7.327   1.193  0.0267 -0.4305 -0.5458
 2556poe    c2313389   7.305   7.435   1.132  0.1847 -0.1070  0.1930
 2556poe    c2313390   7.457   7.412   1.122  0.1916 -0.2343  0.5782
 2556poe     o213391   7.490   7.343   1.240 -0.3680 -0.6039  0.5251
 2556poe    c3113392   7.614   7.386   1.291 -0.2035 -0.2889 -0.1304
 2557poe    c3113393   6.731   5.538   3.659  0.0441 -0.9319 -0.2579
 2557poe     o213394   6.780   5.657   3.601 -0.2265 -0.4620  0.4609
 2557poe    c2313395   6.766   5.767   3.688 -0.6757  0.2052 -0.4377
 2557poe    c2313396   6.808   5.902   3.627 -0.6642  0.3886 -0.0226
 2557poe     o213397   6.697   5.947   3.553 -0.6294 -0.0762 -0.3622
 2557poe    c2313398   6.707   6.066   3.479  0.1534 -0.0481 -0.2171
 2557poe    c2313399   6.827   6.084   3.384  0.1715  0.5200 -0.0936
 2557poe     o213400   6.847   5.973   3.299 -0.1644  0.4731 -0.1116
 2557poe    c2313401   6.930   6.005   3.190 -0.0545 -0.2052 -0.2290
 2557poe    c2313402   6.982   5.883   3.111 -0.1604 -0.4344  0.0550
 2557poe     o213403   7.087   5.801   3.157 -0.1777 -0.7577 -0.4683
 2557poe    c3113404   7.098   5.691   3.070  0.6261 -0.9435 -0.1407
 2558poe    c3113405   1.501   0.084   7.084 -0.3989  0.1906  0.3080
 2558poe     o213406   1.411   0.030   6.990  0.2008 -0.4786  0.1090
 2558poe    c2313407   1.434   0.084   6.862 -0.1711 -0.1366  0.1831
 2558poe    c2313408   1.336   0.015   6.765 -0.0720 -0.3132  0.2080
 2558poe     o213409   1.211  -0.015   6.823 -0.2567  0.3351  0.1505
 2558poe    c2313410   1.113  -0.059   6.732 -0.1925  0.3505  0.0735
 2558poe    c2313411   0.978  -0.090   6.800 -0.3335 -0.1444 -0.4275
 2558poe     o213412   1.004  -0.175   6.909  0.0406  0.4053 -0.0787
 2558poe    c2313413   0.881  -0.216   6.966  0.5900 -0.4946  0.4914
 2558poe    c2313414   0.899  -0.269   7.109 -0.3531 -0.3020  0.6855
 2558poe     o213415   0.932  -0.160   7.194 -0.5287  0.2379  0.0689
 2558poe    c3113416   0.819  -0.133   7.274 -0.5166 -0.0074  0.1706
 2559poe    c3113417   1.192   0.798   4.670  0.1968  0.1428  0.5100
 2559poe     o213418   1.184   0.916   4.747 -0.4926  0.1644  0.4146
 2559poe    c2313419   1.065   0.988   4.725 -0.5919 -0.1587 -0.1281
 2559poe    c2313420   1.062   1.116   4.811 -0.2883 -0.0078 -0.3417
 2559poe     o213421   1.147   1.228   4.805 -0.2154 -0.0304  0.2251
 2559poe    c2313422   1.108   1.322   4.903 -0.3149  0.2096 -0.0438
 2559poe    c2313423   1.197   1.442   4.864  0.2168 -0.2312 -0.1945
 2559poe     o213424   1.331   1.400   4.866  0.1326 -0.4881  0.5450
 2559poe    c2313425   1.443   1.484   4.846 -0.3175  0.0106  0.0963
 2559poe    c2313426   1.573   1.403   4.830 -0.1102  0.4576 -0.5154
 2559poe     o213427   1.543   1.312   4.727  0.5236 -0.7349  0.3415
 2559poe    c3113428   1.659   1.244   4.685  0.6676 -0.3880  0.1741
 2560poe    c3113429   6.514   2.356   2.802  0.3340 -0.6221  0.4091
 2560poe     o213430   6.645   2.362   2.748  0.0854  0.3482 -0.1045
 2560poe    c2313431   6.744   2.346   2.847 -0.2496 -0.7859  0.0603
 2560poe    c2313432   6.867   2.411   2.782 -0.8699  0.1431 -0.1968
 2560poe     o213433   6.926   2.338   2.677 -0.0352  0.4132  0.0734
 2560poe    c2313434   7.047   2.277   2.715 -0.0067  0.2736 -0.2418
 2560poe    c2313435   7.100   2.181   2.607 -0.0009  0.2159 -0.1878
 2560poe     o213436   7.013   2.073   2.588  0.4363 -0.1318 -0.2367
 2560poe    c2313437   7.044   2.014   2.464  0.1910  0.1194 -0.4177
 2560poe    c2313438   6.924   1.930   2.415  0.0248 -0.0690  0.3032
 2560poe     o213439   6.805   1.998   2.385  0.0078 -0.1929  0.0906
 2560poe    c3113440   6.699   1.929   2.322 -0.1706  0.0749  0.0938
 2561poe    c3113441   0.346   2.433   6.355  0.2828  0.1390 -0.4422
 2561poe     o213442   0.300   2.539   6.436  0.1683 -0.3028  0.0781
 2561poe    c2313443   0.175   2.507   6.493  0.0432  0.1237  0.0426
 2561poe    c2313444   0.097   2.639   6.479  0.2814  0.2271 -0.3144
 2561poe     o213445   0.174   2.737   6.545  0.7220 -0.2093 -0.1800
 2561poe    c2313446   0.122   2.868   6.545 -0.0500 -0.5080  0.7162
 2561poe    c2313447   0.208   2.963   6.631  0.8538  0.0041 -0.7215
 2561poe     o213448   0.341   2.938   6.592  0.9779  0.2720 -0.4673
 2561poe    c2313449   0.422   3.034   6.655  0.1816  0.4986  0.2273
 2561poe    c2313450   0.520   3.085   6.548  0.3398  0.1321  0.1973
 2561poe     o213451   0.598   2.977   6.503  0.1249  0.0983 -0.0976
 2561poe    c3113452   0.705   3.018   6.420  0.3087 -0.1858 -0.0053
 2562poe    c3113453   4.948   2.915   0.265 -0.1785  0.3012 -0.8640
 2562poe     o213454   4.814   2.943   0.302  0.1210  0.2943  0.2572
 2562poe    c2313455   4.780   3.070   0.251  0.1205  0.2855  0.2353
 2562poe    c2313456   4.666   3.127   0.337  0.0072 -0.6783  0.7350
 2562poe     o213457   4.545   3.054   0.337 -0.3427 -0.1160  0.0121
 2562poe    c2313458   4.458   3.110   0.432  0.0524 -0.6082  0.6738
 2562poe    c2313459   4.320   3.049   0.403  0.0793 -0.4866  0.2860
 2562poe     o213460   4.330   2.914   0.364  0.8796 -0.2986 -0.1675
 2562poe    c2313461   4.202   2.856   0.368  0.6076  0.2428 -0.8327
 2562poe    c2313462   4.214   2.706   0.336  0.4118 -0.0572  0.4271
 2562poe     o213463   4.267   2.698   0.205 -0.1202  0.6788  0.1599
 2562poe    c3113464   4.249   2.566   0.157  0.1623  0.7054 -0.0192
 2563poe    c3113465   2.285   4.839   5.562  0.0119  0.3566  0.5962
 2563poe     o213466   2.157   4.782   5.549  0.3485 -0.2781 -0.0450
 2563poe    c2313467   2.086   4.850   5.448 -0.3987  0.1257  0.7359
 2563poe    c2313468   1.953   4.777   5.424 -0.1224  0.0489 -0.6166
 2563poe     o213469   1.909   4.756   5.556  0.2696  0.4916 -0.4112
 2563poe    c2313470   1.788   4.820   5.589 -0.0455 -0.1183 -0.3710
 2563poe    c2313471   1.770   4.794   5.740  0.4349  0.2263 -0.2522
 2563poe     o213472   1.882   4.830   5.817  0.2700 -0.4820  0.3321
 2563poe    c2313473   1.837   4.811   5.949 -0.9005  0.4853  0.0978
 2563poe    c2313474   1.917   4.888   6.056 -0.3813  0.3990 -0.2241
 2563poe     o213475   2.050   4.844   6.039 -0.4684 -0.0737  0.2846
 2563poe    c3113476   2.128   4.893   6.145 -0.0887  0.3560 -0.1928
 2564poe    c3113477   0.896   3.704   0.640  0.0447  0.4486  0.1213
 2564poe     o213478   1.015   3.731   0.711  0.0973 -0.1890  0.2764
 2564poe    c2313479   1.075   3.826   0.626  0.4074 -0.6247  0.0035
 2564poe    c2313480   1.201   3.901   0.675 -0.2558  0.3356  0.2552
 2564poe     o213481   1.314   3.817   0.686 -0.2747  0.3279  0.3929
 2564poe    c2313482   1.429   3.898   0.684  0.0087 -0.0843 -0.3365
 2564poe    c2313483   1.555   3.809   0.686  0.0171 -0.0662 -0.0667
 2564poe     o213484   1.569   3.737   0.806 -0.2642  0.0494  0.0372
 2564poe    c2313485   1.535   3.602   0.786  0.2136 -0.1284  0.3866
 2564poe    c2313486   1.520   3.512   0.910 -0.2781 -0.2654  0.2314
 2564poe     o213487   1.406   3.545   0.987 -0.4195 -0.0017 -0.0867
 2564poe    c3113488   1.408   3.460   1.100  0.6936 -0.2772 -0.2991
 2565poe    c3113489   5.188   6.048   6.184 -0.3978 -0.4342  0.7291
 2565poe     o213490   5.197   6.160   6.269  0.1400  0.3496 -0.3398
 2565poe    c2313491   5.073   6.220   6.303  0.0717  0.0467 -0.0552
 2565poe    c2313492   5.080   6.351   6.383 -0.2451  0.0641 -0.0562
 2565poe     o213493   5.089   6.313   6.518 -0.5413 -0.0228 -0.0606
 2565poe    c2313494   5.140   6.415   6.601  0.3511 -0.6661  0.1949
 2565poe    c2313495   5.061   6.429   6.733 -0.6270 -0.3768 -0.4134
 2565poe     o213496   5.087   6.316   6.813  0.1806  0.2912  0.2850
 2565poe    c2313497   4.991   6.298   6.915 -0.2301  0.5876 -0.0471
 2565poe    c2313498   5.045   6.182   7.000 -0.9026  0.2753 -0.0476
 2565poe     o213499   5.034   6.058   6.934 -0.2499  0.0396  0.2782
 2565poe    c3113500   5.067   5.946   7.013  0.6397 -0.1955 -0.4202
 2566poe    c3113501   6.465   6.991   4.286 -0.2187 -0.4953 -0.6433
 2566poe     o213502   6.575   6.929   4.224  0.2139 -0.3637 -0.0142
 2566poe    c2313503   6.585   6.999   4.102 -0.1303 -0.0521  0.1373
 2566poe    c2313504   6.676   6.938   3.995 -0.0618  0.4740 -0.1078
 2566poe     o213505   6.812   6.962   4.024  0.1103  0.1709 -0.6515
 2566poe    c2313506   6.856   7.080   3.961  0.3363 -0.0099 -0.8412
 2566poe    c2313507   7.009   7.068   3.972  0.2941  0.0832 -0.1314
 2566poe     o213508   7.044   7.024   4.102 -0.0902  0.1695  0.0045
 2566poe    c2313509   7.171   7.077   4.132  0.0140 -0.0447 -0.0523
 2566poe    c2313510   7.149   7.145   4.268 -0.3475  0.2450 -0.2529
 2566poe     o213511   7.089   7.049   4.352 -0.1294  0.1742 -0.1773
 2566poe    c3113512   7.072   7.104   4.481 -0.9738 -0.3982 -0.0305
 2567poe    c3113513   3.195   1.663   5.152  0.2267  0.4271  0.1235
 2567poe     o213514   3.081   1.674   5.070  0.3620 -0.2236 -0.1572
 2567poe    c2313515   3.042   1.548   5.019  0.5763 -0.2680 -0.2130
 2567poe    c2313516   2.895   1.546   4.975  0.6131  0.4086 -0.3797
 2567poe     o213517   2.835   1.657   4.912 -0.1323  0.4809  0.4300
 2567poe    c2313518   2.880   1.686   4.781  0.0541  0.5278  0.5024
 2567poe    c2313519   2.786   1.762   4.685 -0.1338  0.2253  0.4459
 2567poe     o213520   2.779   1.893   4.737  0.7755  0.4569  0.0021
 2567poe    c2313521   2.716   1.970   4.638 -0.4835 -0.4516  0.0746
 2567poe    c2313522   2.684   2.113   4.686  0.7643 -0.0299 -0.3089
 2567poe     o213523   2.601   2.127   4.799  0.4296 -0.8740 -0.4437
 2567poe    c3113524   2.472   2.069   4.802 -0.0133  0.1083 -0.2721
 2568poe    c3113525   6.446   5.113   1.784  0.1542  0.7015  0.5642
 2568poe     o213526   6.326   5.185   1.763 -0.3979 -0.3773 -0.0816
 2568poe    c2313527   6.311   5.221   1.627  0.0298 -0.0751 -0.0534
 2568poe    c2313528   6.174   5.290   1.608 -0.0164  0.0164  0.5600
 2568poe     o213529   6.174   5.424   1.650  0.2386  0.0401  0.4898
 2568poe    c2313530   6.064   5.493   1.595  0.1767  0.0057  0.5701
 2568poe    c2313531   6.036   5.625   1.669 -0.0553  0.1443  0.2367
 2568poe     o213532   5.970   5.611   1.792 -0.1895  0.3097  0.1842
 2568poe    c2313533   5.830   5.594   1.798 -0.1288  0.0242  1.0604
 2568poe    c2313534   5.759   5.724   1.755  0.2455 -0.2569 -0.5042
 2568poe     o213535   5.761   5.812   1.865 -0.6035  0.1335 -0.7878
 2568poe    c3113536   5.715   5.941   1.832 -0.4346  0.4984  0.3355
 2569poe    c3113537   0.064   4.149   5.379 -0.6834 -0.4879 -0.1841
 2569poe     o213538   0.111   4.152   5.246  0.6914 -0.3116  0.2857
 2569poe    c2313539   0.087   4.280   5.191  0.7296 -0.2945  0.3092
 2569poe    c2313540   0.110   4.321   5.045  0.0031  0.0053  0.2778
 2569poe     o213541   0.041   4.246   4.947  0.5704 -0.1556 -0.0058
 2569poe    c2313542   0.044   4.315   4.824 -0.4557  0.8288  0.4955
 2569poe    c2313543  -0.071   4.298   4.724  0.0649  0.3922 -0.0388
 2569poe     o213544  -0.079   4.172   4.661  0.3475  0.4710 -0.2329
 2569poe    c2313545  -0.204   4.162   4.596  0.2246  0.5181 -0.0036
 2569poe    c2313546  -0.243   4.023   4.541  0.0679  0.6613 -0.2566
 2569poe     o213547  -0.157   4.011   4.430 -0.1342 -0.0183 -0.3435
 2569poe    c3113548  -0.188   3.892   4.361  0.4496 -0.3013 -0.1271
 2570poe    c3113549   5.546   1.752   0.234 -0.0579 -0.2940 -0.2866
 2570poe     o213550   5.507   1.634   0.300  0.0722 -0.1337  0.0782
 2570poe    c2313551   5.626   1.565   0.329  0.1020  0.0243  0.3302
 2570poe    c2313552   5.596   1.421   0.377  0.1963 -0.0730  0.0976
 2570poe     o213553   5.473   1.383   0.318  0.1062  0.0266  0.2217
 2570poe    c2313554   5.425   1.258   0.362 -0.4829  0.2461  0.2164
 2570poe    c2313555   5.293   1.219   0.294 -0.1663  0.4157 -0.5041
 2570poe     o213556   5.200   1.324   0.290 -0.1720  0.3940 -1.0140
 2570poe    c2313557   5.082   1.271   0.234 -0.4260 -0.0228 -0.1018
 2570poe    c2313558   5.069   1.263   0.080 -0.2749  0.2685 -0.1306
 2570poe     o213559   5.117   1.385   0.028 -0.2745  0.4758  0.3468
 2570poe    c3113560   5.134   1.370  -0.111  0.3461 -0.0545  0.4744
 2571poe    c3113561   2.649   3.552   0.315 -0.5120 -0.6950 -0.4020
 2571poe     o213562   2.640   3.413   0.337 -0.1175 -0.7047 -0.3072
 2571poe    c2313563   2.765   3.391   0.400 -0.1393  0.1894  0.0549
 2571poe    c2313564   2.788   3.244   0.440  0.1129  0.0953 -0.4322
 2571poe     o213565   2.849   3.175   0.333  0.0249 -0.1484 -0.3239
 2571poe    c2313566   2.837   3.034   0.330 -0.5948 -0.0934 -0.5468
 2571poe    c2313567   2.874   2.976   0.192 -0.6427 -0.3170 -0.4663
 2571poe     o213568   2.777   3.027   0.103 -0.3510 -0.0633 -0.6439
 2571poe    c2313569   2.810   2.990  -0.029  0.0419  0.3152 -0.6525
 2571poe    c2313570   2.712   3.081  -0.106 -0.0984  0.7835  0.0710
 2571poe     o213571   2.579   3.081  -0.060 -0.0934 -0.1975  0.1016
 2571poe    c3113572   2.494   3.140  -0.155  0.3681  0.3190  0.0069
 2572poe    c3113573   6.096   6.646   0.763  0.3612 -0.1340  0.3516
 2572poe     o213574   6.058   6.523   0.822 -0.7852 -0.0036 -0.0796
 2572poe    c2313575   6.106   6.510   0.954  0.8000 -0.0879 -0.6308
 2572poe    c2313576   6.129   6.362   0.990 -0.3036 -0.0759  0.1893
 2572poe     o213577   6.004   6.297   0.985 -0.2724 -0.1447  0.2882
 2572poe    c2313578   6.003   6.156   0.986 -0.3045 -0.1416  0.5875
 2572poe    c2313579   5.863   6.115   0.939 -0.5495 -0.1695  1.3293
 2572poe     o213580   5.781   6.214   0.998 -0.4518  0.7025  0.0284
 2572poe    c2313581   5.649   6.173   1.026 -0.3063  0.0536 -0.2193
 2572poe    c2313582   5.548   6.288   1.023 -0.2917  0.0819  0.2434
 2572poe     o213583   5.589   6.381   1.121 -0.4956  0.2187  0.2003
 2572poe    c3113584   5.496   6.487   1.124 -0.4043  0.3077 -0.0447
 2573poe    c3113585   4.014   6.040   2.819  0.3622  0.4475 -0.4032
 2573poe     o213586   4.123   5.951   2.807 -0.0039 -0.0307 -0.2391
 2573poe    c2313587   4.065   5.823   2.811  0.5388 -0.2606  0.4211
 2573poe    c2313588   4.172   5.714   2.832  0.8384 -0.0206  0.1425
 2573poe     o213589   4.200   5.663   2.960 -0.1185  0.4057  0.5315
 2573poe    c2313590   4.288   5.556   2.936 -0.9145 -0.1752  0.1760
 2573poe    c2313591   4.385   5.538   3.054 -0.4434  0.2414 -0.1394
 2573poe     o213592   4.307   5.515   3.170  0.0455  0.6922  0.2840
 2573poe    c2313593   4.389   5.485   3.281  0.0436  0.0083  0.1039
 2573poe    c2313594   4.323   5.535   3.411  0.5037  0.6709  0.0902
 2573poe     o213595   4.263   5.660   3.383 -0.2617  0.3387  0.2172
 2573poe    c3113596   4.209   5.723   3.497 -0.2162  0.1053  0.3693
 2574poe    c3113597   3.705   0.586   4.680  0.4758  0.0678  0.1872
 2574poe     o213598   3.812   0.625   4.764  0.4044  0.3975  0.1289
 2574poe    c2313599   3.896   0.530   4.826 -0.0481  0.1879  0.4323
 2574poe    c2313600   3.956   0.588   4.955  0.4278  0.6683  0.0032
 2574poe     o213601   4.050   0.686   4.916  1.1988 -0.0617  0.0095
 2574poe    c2313602   4.106   0.746   5.031  0.0389 -0.0418  0.5811
 2574poe    c2313603   4.223   0.845   5.014  0.0384 -0.0797  0.3554
 2574poe     o213604   4.359   0.810   5.006 -0.1280 -0.6545 -0.0397
 2574poe    c2313605   4.407   0.732   5.113 -0.6188 -0.6787  0.1635
 2574poe    c2313606   4.526   0.648   5.061 -0.2978 -0.0632 -0.1162
 2574poe     o213607   4.506   0.536   4.978 -0.2386 -0.2066  0.0626
 2574poe    c3113608   4.622   0.466   4.941 -0.1297  0.4029 -0.7668
 2575poe    c3113609   1.803   1.350   4.103  0.2718  0.3376  0.0256
 2575poe     o213610   1.939   1.319   4.086  0.1137 -0.4555  0.1774
 2575poe    c2313611   1.997   1.268   4.204  0.5062 -0.0050  0.1810
 2575poe    c2313612   2.130   1.207   4.153  0.1280 -0.5369 -0.1815
 2575poe     o213613   2.227   1.288   4.091  0.2517 -0.5134  0.0402
 2575poe    c2313614   2.310   1.208   4.010  0.2072 -0.0470 -0.4718
 2575poe    c2313615   2.438   1.286   3.976  0.0965  0.0494 -0.6728
 2575poe     o213616   2.396   1.414   3.934  0.0860  0.0801 -0.5670
 2575poe    c2313617   2.502   1.499   3.896  0.1151  0.2797 -0.0565
 2575poe    c2313618   2.429   1.629   3.857  0.4434  0.8621  1.2316
 2575poe     o213619   2.326   1.641   3.953 -0.1398  0.3032  0.6946
 2575poe    c3113620   2.240   1.749   3.923 -0.3266 -0.0142  0.0940
 2576poe    c3113621   6.861   5.062   5.054 -0.0118 -0.2993  0.3004
 2576poe     o213622   6.952   5.093   4.951 -0.5321 -0.0519 -0.0951
 2576poe    c2313623   6.874   5.120   4.837 -0.6186  0.2871  0.0423
 2576poe    c2313624   6.950   5.200   4.730  0.0774  0.0377  0.3437
 2576poe     o213625   6.950   5.341   4.735 -0.1173  0.0550 -0.0897
 2576poe    c2313626   7.072   5.399   4.694 -0.1087 -0.0042 -0.1484
 2576poe    c2313627   7.108   5.426   4.547 -0.2865  0.0152 -0.1892
 2576poe     o213628   7.044   5.536   4.486 -0.0705  0.2338 -0.0218
 2576poe    c2313629   7.123   5.600   4.389 -0.0347  0.1169 -0.0709
 2576poe    c2313630   7.058   5.713   4.306 -0.7259 -0.1173  0.1423
 2576poe     o213631   7.017   5.822   4.384  0.3639  0.4132 -0.0129
 2576poe    c3113632   7.036   5.934   4.300  0.3667 -0.1795 -0.8045
 2577poe    c3113633   1.443   2.574   0.808 -0.5567  0.1178 -0.6813
 2577poe     o213634   1.413   2.602   0.673 -0.1083 -0.4941 -0.9110
 2577poe    c2313635   1.491   2.515   0.594  0.5625 -0.6802 -0.0693
 2577poe    c2313636   1.418   2.426   0.492 -0.2130  0.0867 -0.1981
 2577poe     o213637   1.342   2.483   0.388 -0.2596  0.2076 -0.0968
 2577poe    c2313638   1.394   2.585   0.306 -0.0323  0.0238 -0.1816
 2577poe    c2313639   1.275   2.652   0.234 -0.0913  0.1624  0.0423
 2577poe     o213640   1.197   2.732   0.319 -0.2716  0.3293 -0.2756
 2577poe    c2313641   1.108   2.821   0.256 -0.0580  0.6834 -0.0829
 2577poe    c2313642   1.049   2.923   0.355 -0.1600  0.1339  0.4311
 2577poe     o213643   1.005   2.841   0.460  0.3943 -0.6164  0.0795
 2577poe    c3113644   0.903   2.904   0.534  0.7528  0.0721 -0.0138
 2578poe    c3113645   2.999   1.404   6.428  0.0692  0.3560  1.1031
 2578poe     o213646   2.966   1.537   6.394 -0.7466 -0.0978  0.0346
 2578poe    c2313647   3.017   1.588   6.273  0.3142  1.2169  0.9959
 2578poe    c2313648   2.961   1.728   6.246 -0.2334  0.7288 -0.5091
 2578poe     o213649   2.823   1.740   6.219 -0.3684  0.5142  0.0755
 2578poe    c2313650   2.785   1.872   6.190 -0.1526  0.6467  0.3883
 2578poe    c2313651   2.637   1.889   6.151 -0.1140  0.6356  0.2339
 2578poe     o213652   2.569   1.877   6.274 -0.4257  0.0456  0.0063
 2578poe    c2313653   2.431   1.876   6.244 -0.4060  0.1277 -0.0885
 2578poe    c2313654   2.367   1.897   6.383 -0.6053 -0.1449 -0.1379
 2578poe     o213655   2.393   1.779   6.456  0.1971  0.1278  0.0248
 2578poe    c3113656   2.341   1.786   6.587 -0.5868 -0.1238 -0.2681
 2579poe    c3113657   4.141   6.000   1.379  0.4419  0.9857 -0.4513
 2579poe     o213658   4.198   6.071   1.487  0.1623  0.5978 -0.0479
 2579poe    c2313659   4.320   6.018   1.534 -0.4135 -0.3815  0.3863
 2579poe    c2313660   4.393   6.087   1.650  0.3288 -0.2960 -0.1264
 2579poe     o213661   4.392   6.225   1.622  0.5633 -0.1674  0.4937
 2579poe    c2313662   4.430   6.300   1.736  0.5616  0.2166  0.2415
 2579poe    c2313663   4.394   6.445   1.698 -0.3476  0.0642  0.5020
 2579poe     o213664   4.263   6.470   1.652 -0.3388 -0.1471  0.3621
 2579poe    c2313665   4.240   6.606   1.623 -0.4662 -0.3325 -0.4357
 2579poe    c2313666   4.111   6.638   1.701 -0.2164 -0.0254 -0.1481
 2579poe     o213667   4.019   6.531   1.699  0.3217 -0.4962  0.0891
 2579poe    c3113668   3.893   6.594   1.712  0.5214 -0.0599 -0.0444
 2580poe    c3113669   2.650   5.130   5.028  0.1872 -0.6686  0.0813
 2580poe     o213670   2.585   5.135   5.153  0.0903  0.1715 -0.0038
 2580poe    c2313671   2.681   5.161   5.253  0.2758 -0.7190  0.0513
 2580poe    c2313672   2.599   5.148   5.383 -0.0168  0.0484 -0.0553
 2580poe     o213673   2.475   5.212   5.357 -0.1973 -0.3213 -0.1084
 2580poe    c2313674   2.410   5.271   5.467 -0.2924 -0.5755 -0.0266
 2580poe    c2313675   2.271   5.210   5.490 -0.2686 -0.6488 -0.0771
 2580poe     o213676   2.195   5.230   5.373  0.1955 -0.5318 -0.3607
 2580poe    c2313677   2.055   5.235   5.379  0.2344 -0.2233  0.3525
 2580poe    c2313678   1.983   5.207   5.246  0.7067 -0.1132  0.0738
 2580poe     o213679   1.990   5.071   5.208  0.4196 -0.1528  0.1632
 2580poe    c3113680   1.889   5.043   5.114  0.3266  0.2216  0.1510
 2581poe    c3113681   0.364   3.560   5.948  0.5508 -0.1455  0.9613
 2581poe     o213682   0.279   3.511   6.049 -0.0270  0.7338  0.9144
 2581poe    c2313683   0.290   3.373   6.077 -0.3284  0.4072 -0.4957
 2581poe    c2313684   0.244   3.347   6.222  0.1441 -0.4998 -0.4961
 2581poe     o213685   0.106   3.370   6.241  0.3031 -0.4669  0.6680
 2581poe    c2313686   0.074   3.345   6.376 -0.1161 -0.2072  0.6185
 2581poe    c2313687  -0.049   3.426   6.421 -0.5168 -0.4741  0.0243
 2581poe     o213688  -0.146   3.435   6.319 -0.0336  0.2296 -0.3812
 2581poe    c2313689  -0.258   3.510   6.359  0.2392  0.6027 -0.3065
 2581poe    c2313690  -0.347   3.543   6.238 -0.8538 -0.3746  0.2105
 2581poe     o213691  -0.258   3.535   6.129 -0.6970  0.7898  0.2399
 2581poe    c3113692  -0.296   3.628   6.030  0.1791  0.0839 -0.7866
 2582poe    c3113693   0.277   6.794   1.597  0.8149 -0.4939  0.4770
 2582poe     o213694   0.179   6.714   1.659  0.1508  0.0892  0.2002
 2582poe    c2313695   0.182   6.587   1.599 -0.7341  0.5193 -0.7664
 2582poe    c2313696   0.108   6.494   1.697  0.5042  0.0312 -0.2783
 2582poe     o213697   0.070   6.368   1.648 -0.0032  0.2355 -0.4199
 2582poe    c2313698  -0.051   6.339   1.714  0.0533  0.4127 -0.2384
 2582poe    c2313699  -0.109   6.217   1.640  0.1131  0.3234 -0.1379
 2582poe     o213700  -0.030   6.101   1.658 -0.3491 -0.0217 -0.3043
 2582poe    c2313701  -0.097   5.984   1.617  0.1969 -0.2897 -0.4415
 2582poe    c2313702  -0.125   5.878   1.725  0.3178 -0.2651 -0.3861
 2582poe     o213703  -0.013   5.825   1.793  0.3137 -0.4551 -0.5301
 2582poe    c3113704  -0.055   5.706   1.857 -0.8814  0.3133  0.1485
 2583poe    c3113705   4.011   5.426   3.223 -0.9617  0.7544  0.7138
 2583poe     o213706   4.023   5.567   3.226  0.4792  0.6713 -0.0173
 2583poe    c2313707   3.920   5.631   3.155  0.0357 -0.1909 -0.1657
 2583poe    c2313708   3.941   5.783   3.162  0.8264 -0.2986 -0.0709
 2583poe     o213709   4.081   5.797   3.157  0.8155 -0.0122  0.3602
 2583poe    c2313710   4.101   5.934   3.179 -0.3655  0.1618  0.4304
 2583poe    c2313711   4.241   5.974   3.125 -0.2461 -0.4181  0.3091
 2583poe     o213712   4.340   5.897   3.189  0.3526  0.0163 -0.0948
 2583poe    c2313713   4.464   5.951   3.146  0.1531  0.6761  0.1403
 2583poe    c2313714   4.574   5.876   3.224 -0.8492 -0.4508  0.5123
 2583poe     o213715   4.590   5.740   3.189  0.4800 -0.1509 -0.1074
 2583poe    c3113716   4.711   5.723   3.119 -0.2773 -0.8432 -1.2845
 2584poe    c3113717   5.088   5.528   2.548  0.0647  0.3029 -0.0631
 2584poe     o213718   5.208   5.455   2.543  0.0144  0.2593 -0.8423
 2584poe    c2313719   5.319   5.539   2.517  0.4168 -0.0021 -0.0193
 2584poe    c2313720   5.347   5.576   2.370 -0.4763  0.4577 -0.0818
 2584poe     o213721   5.377   5.472   2.280 -0.5104  0.3121  0.0751
 2584poe    c2313722   5.399   5.511   2.146  0.1500 -0.1192  0.0521
 2584poe    c2313723   5.415   5.384   2.061  0.0462  0.0233 -0.1816
 2584poe     o213724   5.530   5.316   2.109 -0.0332  0.1379  0.1766
 2584poe    c2313725   5.648   5.337   2.035  0.2646 -0.0242  0.6061
 2584poe    c2313726   5.754   5.244   2.097  0.8047 -0.1456 -0.4689
 2584poe     o213727   5.785   5.268   2.233  0.1617 -0.0778 -0.3305
 2584poe    c3113728   5.871   5.377   2.258  0.1031 -0.0256 -0.3596
 2585poe    c3113729   4.601   0.256   3.128  0.0732 -0.0786 -0.6832
 2585poe     o213730   4.504   0.310   3.215  0.7689  0.2121 -0.0702
 2585poe    c2313731   4.511   0.225   3.327  0.2650  0.5059  0.1890
 2585poe    c2313732   4.423   0.283   3.440  0.1699 -0.0296  0.3927
 2585poe     o213733   4.445   0.419   3.472 -0.9088  0.3379 -0.3661
 2585poe    c2313734   4.335   0.462   3.549 -0.8459  0.6522 -0.4539
 2585poe    c2313735   4.371   0.607   3.586  0.2220  0.1498  0.5421
 2585poe     o213736   4.370   0.692   3.473 -0.0814 -0.2064  0.2721
 2585poe    c2313737   4.363   0.822   3.528 -0.4015  0.1822 -0.6743
 2585poe    c2313738   4.398   0.939   3.434  0.3509  0.1886 -0.3960
 2585poe     o213739   4.304   0.934   3.328 -0.0778 -0.0102 -0.0094
 2585poe    c3113740   4.277   1.066   3.285  0.7138  0.4525  0.8481
 2586poe    c3113741   5.029   7.042   5.093  0.3604  0.1836 -0.1504
 2586poe     o213742   4.981   7.102   4.974 -0.0153  0.3020  0.0565
 2586poe    c2313743   5.087   7.153   4.896  0.0671 -0.2053 -0.1697
 2586poe    c2313744   5.049   7.181   4.750  0.4259  0.4658 -0.1374
 2586poe     o213745   4.941   7.265   4.714 -0.0298 -0.1070 -0.1063
 2586poe    c2313746   4.975   7.350   4.607  0.0547 -0.4880 -0.3836
 2586poe    c2313747   4.852   7.412   4.539  0.1213  0.2386  0.1459
 2586poe     o213748   4.755   7.478   4.617  0.1827  0.2927  0.1766
 2586poe    c2313749   4.657   7.551   4.548 -0.2197 -0.2499  0.1628
 2586poe    c2313750   4.541   7.469   4.488 -0.1729 -0.2208  0.0319
 2586poe     o213751   4.458   7.411   4.586 -0.1224  0.0298  0.2230
 2586poe    c3113752   4.486   7.278   4.623  0.4271  0.0690 -0.0522
 2587poe    c3113753   0.941   6.045   1.263  0.0044  0.1017  0.3636
 2587poe     o213754   1.055   5.963   1.251 -0.0379  0.0145  0.5508
 2587poe    c2313755   1.163   6.036   1.196 -0.1126 -0.3836 -0.1470
 2587poe    c2313756   1.294   5.955   1.198 -0.2859 -0.6595  0.1443
 2587poe     o213757   1.286   5.827   1.138 -0.0538 -0.7050  0.2113
 2587poe    c2313758   1.419   5.799   1.103  0.0907 -0.1080  0.2656
 2587poe    c2313759   1.419   5.675   1.012  0.0312  0.4412 -0.4831
 2587poe     o213760   1.335   5.580   1.074  0.5037  0.1632 -0.2651
 2587poe    c2313761   1.323   5.464   0.995 -0.4886 -0.1120  0.2775
 2587poe    c2313762   1.221   5.373   1.066 -0.2115 -0.4120  0.2949
 2587poe     o213763   1.118   5.449   1.125  0.0537 -0.1266  0.3977
 2587poe    c3113764   1.023   5.374   1.199 -0.2935 -0.8771 -0.7653
 2588poe    c3113765   3.819   4.827   4.377  0.5071  0.9707 -0.0880
 2588poe     o213766   3.894   4.832   4.257 -0.2076  0.4735 -0.5576
 2588poe    c2313767   3.830   4.770   4.148  0.0827 -0.1423 -0.3817
 2588poe    c2313768   3.724   4.849   4.069  0.3877  0.0233 -0.6336
 2588poe     o213769   3.775   4.947   3.982  0.8738  0.6786  0.3702
 2588poe    c2313770   3.660   5.020   3.944  0.2291 -0.6735 -0.3562
 2588poe    c2313771   3.678   5.083   3.805 -0.3629 -0.0397 -0.1505
 2588poe     o213772   3.695   4.981   3.709  0.1244  0.2455 -0.3750
 2588poe    c2313773   3.641   5.013   3.583 -0.3679  0.1966 -0.1788
 2588poe    c2313774   3.674   4.903   3.481  0.1734 -0.0183  0.2242
 2588poe     o213775   3.609   4.780   3.503  0.1073 -0.0213  0.0186
 2588poe    c3113776   3.650   4.687   3.405 -0.7647  0.3839 -0.7428
 2589poe    c3113777   6.023   3.335   6.112 -0.3288  0.0419  0.6917
 2589poe     o213778   6.027   3.423   6.223  0.3018  0.0303  0.6828
 2589poe    c2313779   6.087   3.356   6.331  0.2589 -0.5191  0.3765
 2589poe    c2313780   6.097   3.447   6.456 -0.0925  0.7555 -0.5029
 2589poe     o213781   5.967   3.492   6.486 -0.3149 -0.5420  0.5711
 2589poe    c2313782   5.976   3.560   6.610  0.1247 -0.0999  0.2986
 2589poe    c2313783   5.940   3.709   6.615 -0.2404 -0.1697 -0.1405
 2589poe     o213784   5.955   3.768   6.743 -0.1114  0.8457 -0.6107
 2589poe    c2313785   5.903   3.898   6.755 -0.9623  0.4492  0.1577
 2589poe    c2313786   5.918   3.958   6.896  0.8549  0.1760  0.1099
 2589poe     o213787   5.841   3.891   6.993  0.3866 -0.1064 -0.4459
 2589poe    c3113788   5.872   3.966   7.109  0.8240 -0.3843 -0.3810
 2590poe    c3113789   4.020   7.080   0.246  0.1742 -0.1777 -0.4997
 2590poe     o213790   4.109   6.994   0.177  0.0598 -0.5273 -0.2128
 2590poe    c2313791   4.216   7.058   0.110 -0.2447  0.0674 -0.1434
 2590poe    c2313792   4.267   6.950   0.013 -0.4910 -0.0011 -0.1998
 2590poe     o213793   4.157   6.888  -0.050 -0.2856  0.2759 -0.8372
 2590poe    c2313794   4.196   6.805  -0.156  0.0238 -0.6396 -0.0253
 2590poe    c2313795   4.068   6.775  -0.237  0.1739 -0.6935 -0.2434
 2590poe     o213796   3.959   6.721  -0.165  0.5600 -0.4209  0.5551
 2590poe    c2313797   3.856   6.685  -0.255  0.8078 -0.1267  0.1486
 2590poe    c2313798   3.729   6.673  -0.168 -0.0994  0.3537 -1.0941
 2590poe     o213799   3.690   6.798  -0.116  0.4838 -0.1145  0.5329
 2590poe    c3113800   3.557   6.792  -0.071  0.4135  0.0668  0.3547
 2591poe    c3113801   1.660   5.809   4.165 -0.6625 -0.0999 -0.1513
 2591poe     o213802   1.528   5.795   4.211 -0.6382 -0.0978 -0.0817
 2591poe    c2313803   1.481   5.663   4.194  0.2993 -0.4184 -0.2041
 2591poe    c2313804   1.333   5.622   4.185  0.1361  0.0488  0.3295
 2591poe     o213805   1.261   5.642   4.305 -0.1699 -0.5809  0.2542
 2591poe    c2313806   1.128   5.596   4.293 -0.3756  0.0698 -0.0298
 2591poe    c2313807   1.065   5.599   4.433  0.0734  0.5672  0.1659
 2591poe     o213808   1.017   5.724   4.476 -0.1029  0.5011  0.1594
 2591poe    c2313809   0.928   5.694   4.581  0.7392  0.2565  0.8129
 2591poe    c2313810   0.845   5.812   4.636  0.0746  0.1379  0.0902
 2591poe     o213811   0.768   5.883   4.542  0.2689  0.4202  0.1411
 2591poe    c3113812   0.705   6.006   4.570 -0.3534 -0.0136  0.6658
 2592poe    c3113813   4.721   2.807   6.311  0.2888  0.5258  0.0034
 2592poe     o213814   4.640   2.793   6.196 -0.3645 -0.4370  0.5676
 2592poe    c2313815   4.511   2.835   6.236 -0.2477  0.2421  0.2570
 2592poe    c2313816   4.412   2.825   6.119 -0.6481 -0.5309  0.6507
 2592poe     o213817   4.400   2.699   6.057 -0.5672 -0.2987  0.1547
 2592poe    c2313818   4.315   2.715   5.946  0.1757  0.3207 -0.3365
 2592poe    c2313819   4.333   2.620   5.826  0.5048 -0.4431  0.3107
 2592poe     o213820   4.470   2.625   5.791  0.5745 -0.7388  0.5392
 2592poe    c2313821   4.498   2.566   5.666  0.2123  0.4859 -0.1359
 2592poe    c2313822   4.644   2.536   5.626 -0.0549 -0.7225 -0.2225
 2592poe     o213823   4.678   2.410   5.680  0.1554 -0.4548  0.2742
 2592poe    c3113824   4.774   2.348   5.598 -0.0957  0.3142 -0.6125
 2593poe    c3113825   3.692   4.958   2.669  0.6960 -0.1473  0.1459
 2593poe     o213826   3.814   4.976   2.600  0.5230 -0.3781 -0.2255
 2593poe    c2313827   3.866   5.104   2.631  0.2212 -0.4000  0.3891
 2593poe    c2313828   3.969   5.137   2.521  0.0370 -0.4148  0.2110
 2593poe     o213829   4.072   5.041   2.517 -0.4308 -0.9155 -0.0271
 2593poe    c2313830   4.150   5.061   2.402  0.1734 -0.3786  0.4687
 2593poe    c2313831   4.246   4.942   2.381  0.2047 -0.2371 -0.2173
 2593poe     o213832   4.180   4.824   2.342 -0.6746  0.2285 -0.1532
 2593poe    c2313833   4.277   4.731   2.298 -0.4637  0.3153  0.1235
 2593poe    c2313834   4.213   4.628   2.203  0.4479 -0.6535  0.5450
 2593poe     o213835   4.300   4.598   2.096 -0.1382  0.3735 -0.2375
 2593poe    c3113836   4.230   4.508   2.013  0.2152 -0.1361  0.0109
 2594poe    c3113837   3.164   4.209   2.367 -0.1510 -0.5616  0.3017
 2594poe     o213838   3.184   4.206   2.228  0.3999 -0.3239  0.3700
 2594poe    c2313839   3.135   4.088   2.167 -0.4340  0.1847  0.0356
 2594poe    c2313840   3.146   4.101   2.014 -0.5212 -0.2305 -0.0064
 2594poe     o213841   3.275   4.143   1.977 -0.5588 -0.2562 -0.1689
 2594poe    c2313842   3.303   4.131   1.839  0.0320 -0.0561 -0.0705
 2594poe    c2313843   3.381   4.245   1.771  0.1552 -0.0984 -0.0024
 2594poe     o213844   3.296   4.358   1.778  0.0071 -0.1593 -0.7301
 2594poe    c2313845   3.353   4.480   1.737  0.7241 -0.1076  0.3933
 2594poe    c2313846   3.280   4.594   1.812 -0.3141 -0.2925 -0.3169
 2594poe     o213847   3.330   4.608   1.943 -0.7459 -0.6411 -0.1112
 2594poe    c3113848   3.278   4.728   1.994  0.5927  0.1128 -0.4829
 2595poe    c3113849   0.392   5.329   1.119 -0.2339 -0.2192  0.2905
 2595poe     o213850   0.446   5.432   1.199 -0.3880  0.4635 -0.4665
 2595poe    c2313851   0.578   5.465   1.162 -0.0685 -0.2449  0.0261
 2595poe    c2313852   0.627   5.569   1.264 -0.9162 -0.0704  0.2625
 2595poe     o213853   0.557   5.688   1.236 -0.0941  0.4730  0.4702
 2595poe    c2313854   0.627   5.770   1.145 -0.3226 -0.4986 -0.5986
 2595poe    c2313855   0.554   5.905   1.132 -0.2910 -0.3661  0.5662
 2595poe     o213856   0.418   5.875   1.155 -0.6465  0.3850 -0.5068
 2595poe    c2313857   0.335   5.987   1.133 -0.3377  0.5588 -0.7910
 2595poe    c2313858   0.189   5.947   1.159 -0.1663  0.1129 -0.5051
 2595poe     o213859   0.203   5.843   1.253  0.0210 -0.0953 -0.7641
 2595poe    c3113860   0.084   5.797   1.314  0.2935  0.2534  0.0356
 2596poe    c3113861   1.833   2.638   3.360  0.1358 -0.1172  0.3547
 2596poe     o213862   1.741   2.532   3.368 -0.2514  0.1585 -0.3814
 2596poe    c2313863   1.758   2.486   3.500  0.3229  0.3677 -0.3813
 2596poe    c2313864   1.668   2.366   3.532  0.4617  0.1999 -0.6234
 2596poe     o213865   1.715   2.250   3.466  0.6389 -0.3437  0.4370
 2596poe    c2313866   1.638   2.142   3.513 -0.3816 -0.1936 -0.8525
 2596poe    c2313867   1.662   2.006   3.444 -0.8135 -0.7137  0.0066
 2596poe     o213868   1.795   1.969   3.470 -0.5521  0.2061 -0.0101
 2596poe    c2313869   1.812   1.834   3.433  0.4684  0.2991  0.0872
 2596poe    c2313870   1.951   1.788   3.480  0.2449 -0.4171  0.0603
 2596poe     o213871   2.041   1.879   3.420  0.1823 -0.1133  0.4184
 2596poe    c3113872   2.175   1.847   3.452  0.3566  0.2425  0.0535
 2597poe    c3113873   2.184   6.568   6.267  0.2574 -0.2640 -0.1061
 2597poe     o213874   2.249   6.656   6.356  0.4371 -0.1264 -0.3729
 2597poe    c2313875   2.252   6.597   6.484  0.0887 -0.1883 -0.3907
 2597poe    c2313876   2.375   6.657   6.554 -0.1192 -0.1367 -0.0693
 2597poe     o213877   2.483   6.594   6.489 -0.0964 -0.2986  0.1261
 2597poe    c2313878   2.594   6.593   6.577 -0.2074 -0.5102  0.2641
 2597poe    c2313879   2.720   6.530   6.516 -0.1417  0.0465 -0.1823
 2597poe     o213880   2.783   6.585   6.402 -0.3308  0.5285 -0.0559
 2597poe    c2313881   2.858   6.498   6.321 -0.7795 -0.0486  0.1409
 2597poe    c2313882   2.902   6.583   6.200  0.1142 -0.2294  0.3325
 2597poe     o213883   2.802   6.631   6.113  0.5638 -0.3232 -0.2418
 2597poe    c3113884   2.788   6.538   6.008 -0.1749 -0.1597 -0.2943
 2598poe    c3113885   0.107   6.010   3.308 -0.1483  0.1229  0.2759
 2598poe     o213886   0.147   6.145   3.322 -0.5893  0.3027 -0.1727
 2598poe    c2313887   0.119   6.185   3.455  0.3246  0.2820  0.0323
 2598poe    c2313888   0.188   6.316   3.496 -0.0310  0.2407  0.7749
 2598poe     o213889   0.154   6.436   3.431  0.5388  0.0623  0.1388
 2598poe    c2313890   0.173   6.454   3.292  0.1058  0.6681  0.1556
 2598poe    c2313891   0.045   6.437   3.208  0.4706  0.4634 -0.3653
 2598poe     o213892   0.051   6.488   3.077 -0.6981  0.3156 -0.4850
 2598poe    c2313893  -0.075   6.475   3.014 -0.8005 -0.2322 -0.1720
 2598poe    c2313894  -0.080   6.556   2.883 -0.5657 -0.2837 -0.2138
 2598poe     o213895  -0.002   6.521   2.771 -0.3920 -0.3316 -0.0771
 2598poe    c3113896  -0.030   6.592   2.653  0.2215  0.2730  0.1334
 2599poe    c3113897   0.305   2.652   1.204 -0.0432 -1.2467 -0.7173
 2599poe     o213898   0.266   2.623   1.336 -0.6309  0.2704 -0.5454
 2599poe    c2313899   0.130   2.653   1.358 -0.8274 -0.6613 -0.4323
 2599poe    c2313900   0.096   2.635   1.507  0.3201  0.4367 -0.0184
 2599poe     o213901   0.134   2.508   1.555 -0.5969  0.2891  0.3427
 2599poe    c2313902   0.119   2.493   1.695  0.6784  0.2082  0.4837
 2599poe    c2313903   0.143   2.344   1.726  0.4192 -0.0540 -0.5434
 2599poe     o213904   0.240   2.298   1.634  0.6726  0.0920 -0.3505
 2599poe    c2313905   0.252   2.158   1.648  0.1872  0.0812 -0.0142
 2599poe    c2313906   0.321   2.095   1.526 -0.3714 -0.5710  0.0007
 2599poe     o213907   0.241   2.087   1.411  0.0434  0.9267 -0.4172
 2599poe    c3113908   0.315   2.016   1.314 -0.1107  0.7048 -0.3741
 2600poe    c3113909   0.499   1.748   3.222 -0.5132  0.1426  0.4153
 2600poe     o213910   0.593   1.809   3.135 -0.2562 -0.1705  0.4710
 2600poe    c2313911   0.705   1.863   3.200 -0.0244  0.5419 -0.5084
 2600poe    c2313912   0.807   1.892   3.089  0.4938 -0.2376 -0.2397
 2600poe     o213913   0.761   1.999   3.010  0.0869 -0.5840 -0.4744
 2600poe    c2313914   0.838   2.057   2.907  0.1489  0.5023  0.1714
 2600poe    c2313915   0.758   2.164   2.830  0.0850  0.1828 -0.2123
 2600poe     o213916   0.623   2.128   2.819  0.1898 -0.2185 -0.2060
 2600poe    c2313917   0.560   2.217   2.729 -0.4294 -0.3259  0.1163
 2600poe    c2313918   0.414   2.195   2.683 -0.4868  0.3250 -0.0281
 2600poe     o213919   0.425   2.073   2.613 -0.4812  0.6150 -0.5343
 2600poe    c3113920   0.299   2.024   2.572 -0.0841 -0.3296 -0.6603
 2601poe    c3113921   6.874   3.178   6.184 -0.3915  1.2819  0.1981
 2601poe     o213922   6.785   3.193   6.075 -0.4192 -0.5966 -0.0595
 2601poe    c2313923   6.839   3.113   5.971  0.4130  0.5550 -0.5367
 2601poe    c2313924   6.721   3.067   5.883  0.1804 -0.4166  0.2696
 2601poe     o213925   6.638   2.979   5.956  0.1837 -0.2805  0.4390
 2601poe    c2313926   6.538   2.930   5.869 -0.0351  0.2647  0.3823
 2601poe    c2313927   6.459   2.809   5.921 -0.0490  0.1061 -0.0020
 2601poe     o213928   6.548   2.721   5.987  0.2456  0.4360  0.0469
 2601poe    c2313929   6.482   2.614   6.052 -0.1152  0.4885 -0.2299
 2601poe    c2313930   6.580   2.563   6.160 -0.4099  0.0133 -0.1830
 2601poe     o213931   6.634   2.681   6.216  0.6620 -0.3875 -0.3619
 2601poe    c3113932   6.725   2.654   6.320 -0.2702 -0.0918  0.5403
 2602poe    c3113933   1.814   4.841   0.504  0.2772 -0.1596 -0.8129
 2602poe     o213934   1.815   4.700   0.501 -0.8546 -0.2275  0.6074
 2602poe    c2313935   1.900   4.667   0.608 -0.3976  0.2041  0.3809
 2602poe    c2313936   1.905   4.514   0.620  0.1994  0.1547 -0.4133
 2602poe     o213937   1.773   4.465   0.609  0.2710 -0.1234 -0.0671
 2602poe    c2313938   1.748   4.340   0.670  0.6086 -0.4462 -0.5781
 2602poe    c2313939   1.596   4.317   0.662  0.4611  0.2540  0.1509
 2602poe     o213940   1.528   4.438   0.638  0.1421  0.0521  0.0394
 2602poe    c2313941   1.390   4.439   0.669  0.0885  0.0979 -0.1951
 2602poe    c2313942   1.301   4.469   0.547  0.4034 -0.1852 -0.4967
 2602poe     o213943   1.320   4.606   0.517  0.3222  0.0984  0.7069
 2602poe    c3113944   1.208   4.633   0.435  0.7409 -0.0542  0.0811
 2603poe    c3113945   2.382   4.685   2.345  0.0498 -0.1150  0.4440
 2603poe     o213946   2.357   4.637   2.475 -0.0756  0.2982  0.5769
 2603poe    c2313947   2.486   4.584   2.498  0.0493  0.2890 -0.1344
 2603poe    c2313948   2.520   4.570   2.647 -0.7455  0.2839  0.0467
 2603poe     o213949   2.533   4.698   2.705 -0.8541  0.2067  0.2431
 2603poe    c2313950   2.589   4.694   2.834 -0.1019 -0.0996 -0.0878
 2603poe    c2313951   2.614   4.837   2.887 -0.4854 -0.1632  0.2655
 2603poe     o213952   2.499   4.917   2.903 -0.2328  0.1840  0.3548
 2603poe    c2313953   2.549   5.043   2.941 -0.0863  0.4113 -0.5713
 2603poe    c2313954   2.435   5.142   2.972 -0.0323  0.1609  0.4787
 2603poe     o213955   2.380   5.186   2.849  0.4571 -0.2210  0.1182
 2603poe    c3113956   2.365   5.326   2.847 -0.0210 -0.2759 -0.0952
 2604poe    c3113957   5.886   6.167   6.390 -0.2483  0.1306 -0.3332
 2604poe     o213958   5.878   6.295   6.447  0.0480 -0.2725  0.6254
 2604poe    c2313959   5.945   6.393   6.371 -0.4328 -0.3316  0.1228
 2604poe    c2313960   5.967   6.520   6.456  0.4160 -0.6894  0.4390
 2604poe     o213961   5.845   6.576   6.500  0.7087  0.3008  0.0167
 2604poe    c2313962   5.878   6.689   6.577  0.0692  0.7293 -0.3323
 2604poe    c2313963   5.748   6.753   6.627  0.1118  0.3941  0.2134
 2604poe     o213964   5.674   6.648   6.687  0.1045  0.4556  0.3132
 2604poe    c2313965   5.560   6.708   6.744  0.1500  0.0004  0.8967
 2604poe    c2313966   5.502   6.600   6.837 -0.7060  0.1651  0.5640
 2604poe     o213967   5.512   6.483   6.758  0.2807  0.2865  0.4899
 2604poe    c3113968   5.471   6.364   6.823  0.0113  0.2607  0.2762
 2605poe    c3113969   3.635   1.344   4.423 -0.3026  0.1542 -0.2336
 2605poe     o213970   3.530   1.270   4.366 -0.5744 -0.1346  0.6274
 2605poe    c2313971   3.542   1.129   4.371  0.2491 -0.0933 -0.0500
 2605poe    c2313972   3.450   1.087   4.255  0.2974 -0.1040 -0.0851
 2605poe     o213973   3.332   1.162   4.274  0.0187 -0.4121 -0.5804
 2605poe    c2313974   3.233   1.111   4.187  0.3133 -0.5699 -0.8275
 2605poe    c2313975   3.109   1.202   4.179  0.8037  0.2175  0.2497
 2605poe     o213976   3.144   1.330   4.132  0.3856  0.1144 -0.3613
 2605poe    c2313977   3.023   1.402   4.129  0.1433 -0.2392  0.4393
 2605poe    c2313978   3.044   1.555   4.129  0.0923 -0.2305  0.1941
 2605poe     o213979   3.124   1.594   4.238  0.1076 -0.0088  0.1040
 2605poe    c3113980   3.112   1.732   4.265 -0.0058  0.1110 -0.5499
 2606poe    c3113981   4.875   5.837   6.348  0.6844  0.6672 -0.1268
 2606poe     o213982   4.835   5.858   6.481  0.4126  0.3113 -0.1528
 2606poe    c2313983   4.910   5.774   6.567 -0.2178 -0.1471 -0.0384
 2606poe    c2313984   4.816   5.774   6.689 -0.0456  0.1494  0.0971
 2606poe     o213985   4.781   5.909   6.713  0.7055  0.4081 -0.2159
 2606poe    c2313986   4.709   5.945   6.828  0.0871  0.3743 -0.5846
 2606poe    c2313987   4.603   6.055   6.814 -0.0231  0.3285 -0.1453
 2606poe     o213988   4.669   6.176   6.783 -0.1389  0.5398  0.4233
 2606poe    c2313989   4.569   6.275   6.764 -0.5142  0.0880  0.0147
 2606poe    c2313990   4.632   6.399   6.699 -0.6550  0.3912  0.4564
 2606poe     o213991   4.681   6.390   6.567  0.0242 -0.2653  0.7519
 2606poe    c3113992   4.718   6.522   6.537 -0.2099 -0.3726 -0.0105
 2607poe    c3113993   6.796   1.007   5.220 -0.0754 -0.0261  0.6028
 2607poe     o213994   6.835   0.924   5.113  0.6103  0.5428  0.4046
 2607poe    c2313995   6.929   0.826   5.151  0.2091 -0.0629 -0.1381
 2607poe    c2313996   6.993   0.765   5.024 -0.0355 -0.6848  0.0333
 2607poe     o213997   6.880   0.733   4.948  0.1289 -0.0153 -0.5018
 2607poe    c2313998   6.892   0.657   4.830 -0.2510  0.1448 -0.6484
 2607poe    c2313999   6.981   0.733   4.730  0.6793  0.2258  0.2225
 2607poe     o214000   6.906   0.841   4.679  0.1679 -0.3011 -0.1532
 2607poe    c2314001   6.980   0.960   4.699 -0.4238 -0.0237  0.4058
 2607poe    c2314002   6.898   1.070   4.629  0.2144  0.2371  0.0688
 2607poe     o214003   6.763   1.082   4.668  0.1526  0.3369 -0.1715
 2607poe    c3114004   6.679   1.168   4.595 -0.1768  0.3200  0.1851
 2608poe    c3114005   6.115   4.846   5.880 -0.1913 -0.4706  0.2827
 2608poe     o214006   6.176   4.907   5.992  0.1997  0.3183 -0.3492
 2608poe    c2314007   6.293   4.851   6.047  0.3343  0.4168 -0.5344
 2608poe    c2314008   6.316   4.896   6.193 -0.3276 -0.0051 -0.2960
 2608poe     o214009   6.300   5.037   6.193  0.0440  0.0421  0.6529
 2608poe    c2314010   6.340   5.080   6.321  0.3774  0.5608  0.3776
 2608poe    c2314011   6.268   5.213   6.345 -0.1470  0.2800  0.3781
 2608poe     o214012   6.130   5.198   6.322 -0.1375  0.3859  0.2495
 2608poe    c2314013   6.053   5.289   6.398 -0.0599  0.4869  0.2080
 2608poe    c2314014   5.903   5.253   6.401  0.2159 -0.7066  0.5611
 2608poe     o214015   5.854   5.247   6.269 -0.1592  0.3001  0.6461
 2608poe    c3114016   5.714   5.248   6.249 -0.1105  0.1450  0.2850
 2609poe    c3114017   4.870   2.757   4.793 -0.5968 -0.3750 -0.9296
 2609poe     o214018   4.860   2.617   4.804 -0.3172 -0.3340 -0.0069
 2609poe    c2314019   4.964   2.556   4.730 -0.2945  0.2318 -0.4565
 2609poe    c2314020   4.941   2.405   4.707 -0.5936  0.1688  0.2204
 2609poe     o214021   4.934   2.334   4.829 -0.0206  0.0202  0.1718
 2609poe    c2314022   4.980   2.205   4.793 -0.9657 -0.2898  0.0249
 2609poe    c2314023   5.040   2.147   4.923 -0.1754  0.8490  0.1860
 2609poe     o214024   4.932   2.112   5.006 -0.1052 -0.6637 -0.3413
 2609poe    c2314025   4.992   2.033   5.106 -0.0318 -0.5080 -0.2632
 2609poe    c2314026   4.895   1.956   5.198  0.0686 -0.2622  0.0539
 2609poe     o214027   4.816   2.045   5.274  0.4131 -0.2154  0.3569
 2609poe    c3114028   4.756   1.987   5.387 -0.3104  0.1405  0.1599
 2610poe    c3114029   5.894   0.355   5.897 -0.4318  0.0974  0.3473
 2610poe     o214030   5.812   0.419   5.801  0.2659  0.3600 -0.0783
 2610poe    c2314031   5.747   0.323   5.721  0.3204 -0.3197  0.6800
 2610poe    c2314032   5.664   0.373   5.602  0.6876  0.1866  0.6346
 2610poe     o214033   5.574   0.476   5.637 -0.2580 -0.4761  0.2213
 2610poe    c2314034   5.498   0.544   5.541 -0.0734 -0.7041 -0.0872
 2610poe    c2314035   5.557   0.676   5.489 -0.6766 -0.2853  0.2733
 2610poe     o214036   5.563   0.779   5.586 -0.4157 -0.0452  0.0063
 2610poe    c2314037   5.638   0.891   5.546 -0.7358  0.1452 -0.0651
 2610poe    c2314038   5.642   1.008   5.645 -0.2329  0.1185 -0.0489
 2610poe     o214039   5.512   1.063   5.634 -0.1345  0.4369  0.3427
 2610poe    c3114040   5.485   1.172   5.719 -0.2919  0.6868 -0.0237
 2611poe    c3114041   0.026   3.494   0.380  0.8761 -0.4650  0.2166
 2611poe     o214042   0.066   3.557   0.500  0.3295  0.0190  0.1498
 2611poe    c2314043  -0.032   3.646   0.546  0.4453  0.0832  0.2715
 2611poe    c2314044  -0.164   3.597   0.609 -0.0433  0.3382 -0.5475
 2611poe     o214045  -0.143   3.490   0.698 -0.1025 -0.0037 -0.9410
 2611poe    c2314046  -0.262   3.428   0.739  0.1556 -0.5633 -1.0303
 2611poe    c2314047  -0.325   3.507   0.855  0.7226 -0.2046 -0.9640
 2611poe     o214048  -0.248   3.486   0.971 -0.1003  0.6508 -0.2430
 2611poe    c2314049  -0.280   3.580   1.071 -0.4333  0.3994 -0.1094
 2611poe    c2314050  -0.234   3.536   1.211 -0.3143  0.0899 -0.2458
 2611poe     o214051  -0.317   3.444   1.278 -0.1000 -0.5598 -0.8586
 2611poe    c3114052  -0.279   3.311   1.251  0.1690 -0.5376 -0.5974
 2612poe    c3114053   4.177   5.357   6.711 -0.0027  0.3963 -0.1207
 2612poe     o214054   4.126   5.482   6.752  0.7130  0.6549  0.0080
 2612poe    c2314055   4.232   5.547   6.818  0.9087  0.1425  0.2000
 2612poe    c2314056   4.187   5.694   6.822  0.4653  0.0069  0.3072
 2612poe     o214057   4.130   5.742   6.702  0.3659 -0.6237  0.0988
 2612poe    c2314058   4.220   5.823   6.631 -0.2343  0.1831  0.2393
 2612poe    c2314059   4.145   5.865   6.503  0.2494  0.1376 -0.0623
 2612poe     o214060   4.022   5.898   6.564  0.1937 -0.9037  0.3986
 2612poe    c2314061   3.916   5.892   6.472  0.4188  0.0426  0.0687
 2612poe    c2314062   3.772   5.924   6.514  0.2444 -0.4829 -0.1112
 2612poe     o214063   3.755   5.839   6.626 -0.1776  0.1226  0.2921
 2612poe    c3114064   3.636   5.872   6.694 -0.4211  0.1673 -0.1507
 2613poe    c3114065   0.785   6.689   5.703  0.2197  0.7613  0.2647
 2613poe     o214066   0.769   6.644   5.570  0.5330  0.5866  0.2857
 2613poe    c2314067   0.745   6.753   5.484  0.4545 -0.0403 -0.4960
 2613poe    c2314068   0.665   6.709   5.360  0.1363  0.1193 -0.3475
 2613poe     o214069   0.704   6.604   5.275  0.7086 -0.1615  0.2557
 2613poe    c2314070   0.719   6.477   5.336 -0.0957 -0.2398  0.3017
 2613poe    c2314071   0.703   6.367   5.229 -0.0456  0.0932 -0.0511
 2613poe     o214072   0.816   6.357   5.146 -0.0659 -0.0655 -0.0589
 2613poe    c2314073   0.808   6.239   5.070  0.1959  0.0546 -0.2758
 2613poe    c2314074   0.949   6.183   5.041  0.3440  0.2933 -0.0126
 2613poe     o214075   1.012   6.245   4.931 -0.3415  0.2888 -0.4094
 2613poe    c3114076   1.134   6.181   4.902 -0.4354 -0.0450 -0.0809
 2614poe    c3114077   4.373   6.695   3.925 -0.7949 -0.2419  0.8502
 2614poe     o214078   4.242   6.746   3.928 -0.6133  0.2984 -0.0578
 2614poe    c2314079   4.205   6.765   3.793  0.4978 -0.1002 -0.4304
 2614poe    c2314080   4.109   6.884   3.773  0.1648 -0.3343 -0.2346
 2614poe     o214081   4.159   7.008   3.815  0.5731 -0.4018 -0.5172
 2614poe    c2314082   4.070   7.117   3.812  0.9615 -0.0679 -0.0828
 2614poe    c2314083   4.115   7.238   3.897  0.7983  0.2433 -0.4371
 2614poe     o214084   4.146   7.194   4.027 -0.6634  0.1175 -0.1155
 2614poe    c2314085   4.191   7.297   4.113  0.2442 -0.1654 -0.2431
 2614poe    c2314086   4.215   7.239   4.254  0.5377  0.8396  0.1215
 2614poe     o214087   4.280   7.119   4.220  0.0238  0.5325  0.2179
 2614poe    c3114088   4.310   7.051   4.340 -0.3179 -0.1968 -0.1074
 2615poe    c3114089   6.654   2.052   1.984 -0.5114 -1.0269 -0.1193
 2615poe     o214090   6.650   2.078   1.845 -0.1179  0.4116  0.1198
 2615poe    c2314091   6.529   2.139   1.806 -0.6417 -0.4301  0.3973
 2615poe    c2314092   6.454   2.086   1.683 -0.0662 -0.3091 -0.0089
 2615poe     o214093   6.524   2.123   1.566 -0.0623 -0.2487  0.0123
 2615poe    c2314094   6.420   2.182   1.491 -0.0575 -0.1755  0.0637
 2615poe    c2314095   6.500   2.289   1.415 -0.2619 -0.2827 -0.3012
 2615poe     o214096   6.571   2.238   1.304 -0.0024  0.4183 -0.4646
 2615poe    c2314097   6.660   2.332   1.251  0.5505 -0.3079 -0.8426
 2615poe    c2314098   6.809   2.309   1.282  0.2654 -0.4058  0.4821
 2615poe     o214099   6.852   2.324   1.416  0.3998  0.2689  0.3658
 2615poe    c3114100   6.962   2.409   1.438  0.4437  0.3227 -0.0491
 2616poe    c3114101   0.675   1.218   0.695  0.1943 -0.0499 -0.4632
 2616poe     o214102   0.705   1.324   0.607  0.5938  0.3012  0.0857
 2616poe    c2314103   0.609   1.426   0.626  0.1225 -0.1645  0.2212
 2616poe    c2314104   0.580   1.494   0.491 -0.2789  0.1252  0.4540
 2616poe     o214105   0.576   1.404   0.383 -0.7167  0.1141  0.4773
 2616poe    c2314106   0.543   1.461   0.258 -0.6607 -0.4190  0.2174
 2616poe    c2314107   0.556   1.362   0.140  0.1191 -0.1125  0.0393
 2616poe     o214108   0.669   1.286   0.174  0.3308  0.0777 -0.2326
 2616poe    c2314109   0.683   1.203   0.061 -0.1465 -0.1026 -0.1615
 2616poe    c2314110   0.828   1.152   0.059  0.0488  0.4224  0.3089
 2616poe     o214111   0.856   1.061   0.164 -0.8564 -0.1833  0.0398
 2616poe    c3114112   0.952   0.972   0.113 -0.3521  0.5995 -0.4024
 2617poe    c3114113   2.055   3.959   0.828  0.1116 -0.0876 -0.1027
 2617poe     o214114   2.107   3.940   0.957  0.0226  0.1321 -0.0345
 2617poe    c2314115   2.052   3.832   1.030 -0.1165 -0.3730 -0.8702
 2617poe    c2314116   2.066   3.689   0.975 -0.5490 -0.6884 -0.1832
 2617poe     o214117   2.189   3.626   0.947  0.1239  0.2129  0.6584
 2617poe    c2314118   2.182   3.489   0.914 -0.4759  0.3919  0.0152
 2617poe    c2314119   2.326   3.436   0.909 -0.7551 -0.3764 -0.0174
 2617poe     o214120   2.398   3.445   1.030 -0.2063 -0.1266 -0.3553
 2617poe    c2314121   2.517   3.371   1.043 -0.0849  0.1257  0.0051
 2617poe    c2314122   2.525   3.217   1.030 -0.0247  0.0790  0.5976
 2617poe     o214123   2.478   3.159   1.150  0.6768 -0.1113  0.7829
 2617poe    c3114124   2.439   3.029   1.114 -1.0518  0.6256 -0.1142
 2618poe    c3114125   4.405   4.379   6.686 -0.0756 -0.0448  0.1204
 2618poe     o214126   4.418   4.239   6.694  0.0377 -0.0136  0.5000
 2618poe    c2314127   4.463   4.178   6.575 -0.8605 -0.5861  0.4441
 2618poe    c2314128   4.520   4.040   6.610 -0.3768 -0.7087 -0.7654
 2618poe     o214129   4.428   3.982   6.701 -0.0202 -0.0648  0.0165
 2618poe    c2314130   4.486   3.861   6.744 -0.2431  0.0379  0.6037
 2618poe    c2314131   4.372   3.769   6.792 -0.3356 -0.2551 -0.1624
 2618poe     o214132   4.335   3.828   6.915  0.4839  0.0191 -0.0448
 2618poe    c2314133   4.267   3.743   7.005  0.7835 -0.3361 -0.1503
 2618poe    c2314134   4.177   3.832   7.092  0.9658 -0.3220  0.0269
 2618poe     o214135   4.257   3.936   7.144  0.3140  0.0789  0.2466
 2618poe    c3114136   4.241   3.951   7.283  0.2391 -0.0265  0.2502
 2619poe    c3114137   6.712   6.787   6.737 -0.4810 -0.0972  0.0386
 2619poe     o214138   6.797   6.707   6.657 -0.0692  0.2535  0.1189
 2619poe    c2314139   6.907   6.770   6.596  0.0751 -0.3415 -0.2490
 2619poe    c2314140   6.889   6.791   6.444 -0.3866  0.0894 -0.1395
 2619poe     o214141   6.883   6.677   6.361 -0.5563  0.1364 -0.1905
 2619poe    c2314142   7.004   6.606   6.356 -0.3882  0.3790  0.3875
 2619poe    c2314143   7.001   6.482   6.265  0.2387  0.5050  0.1931
 2619poe     o214144   7.020   6.528   6.133  0.5724  0.2558  0.1532
 2619poe    c2314145   7.049   6.422   6.044 -0.1142  0.6427 -0.5426
 2619poe    c2314146   7.168   6.448   5.951  0.1437 -0.4086 -0.5146
 2619poe     o214147   7.136   6.534   5.844 -0.0931 -0.8234 -0.7793
 2619poe    c3114148   7.250   6.544   5.760  0.0852 -0.8744 -0.5444
 2620poe    c3114149   2.054   4.422   6.108  0.6416  0.0935  0.5054
 2620poe     o214150   2.178   4.396   6.046  0.3248 -0.6325  0.1598
 2620poe    c2314151   2.273   4.495   6.077  0.2160 -0.6578  0.5835
 2620poe    c2314152   2.409   4.465   6.011 -0.0393 -0.0326 -0.2476
 2620poe     o214153   2.393   4.466   5.871 -0.2988 -0.7159 -0.2279
 2620poe    c2314154   2.518   4.456   5.806  0.1997  0.7295  0.4742
 2620poe    c2314155   2.503   4.481   5.654  0.1717 -0.3279  0.2971
 2620poe     o214156   2.403   4.402   5.594  0.2239  0.2409 -0.5505
 2620poe    c2314157   2.386   4.404   5.454  0.3132 -0.0326 -0.5652
 2620poe    c2314158   2.254   4.326   5.440  0.2008  0.0446  0.0443
 2620poe     o214159   2.231   4.238   5.548  0.1443 -0.1822 -0.1503
 2620poe    c3114160   2.105   4.178   5.526 -0.0653  0.2764 -0.2304
 2621poe    c3114161   4.160   7.127   0.803  0.0454 -0.9366 -0.4333
 2621poe     o214162   4.053   7.138   0.894  0.3531 -0.0456 -0.1709
 2621poe    c2314163   4.112   7.123   1.022  0.2970  0.1990 -0.1158
 2621poe    c2314164   4.007   7.121   1.134  0.4277  0.1586  0.0059
 2621poe     o214165   3.933   7.241   1.139  0.1041 -0.0447  0.1475
 2621poe    c2314166   3.859   7.236   1.259  0.0292 -0.2896  0.0915
 2621poe    c2314167   3.807   7.375   1.298 -0.1364 -0.3747  0.1741
 2621poe     o214168   3.736   7.413   1.182 -0.3437 -0.9966  0.0932
 2621poe    c2314169   3.688   7.545   1.179  0.6757 -0.6098  0.3039
 2621poe    c2314170   3.612   7.548   1.046  0.5641  0.7072  0.3819
 2621poe     o214171   3.701   7.502   0.947 -0.0921  0.1471  0.0440
 2621poe    c3114172   3.642   7.498   0.818 -0.5191  0.6899  0.2170
 2622poe    c3114173   0.832   3.933   2.522 -0.6504  0.1824  0.5686
 2622poe     o214174   0.899   3.810   2.540 -0.5461  0.1456 -0.0669
 2622poe    c2314175   0.809   3.721   2.603 -0.0940 -0.3924 -0.1749
 2622poe    c2314176   0.865   3.604   2.686 -0.1169 -0.2425  0.0527
 2622poe     o214177   0.986   3.628   2.755 -0.4470  0.4152  0.4157
 2622poe    c2314178   1.038   3.524   2.834 -0.3007  0.1263 -0.0593
 2622poe    c2314179   1.118   3.597   2.943 -0.3912 -0.2622  0.2724
 2622poe     o214180   1.197   3.696   2.880 -0.5917  0.1955  0.7370
 2622poe    c2314181   1.286   3.762   2.967  0.3591 -0.2258  0.1013
 2622poe    c2314182   1.344   3.875   2.880 -0.1485 -0.1920 -0.1946
 2622poe     o214183   1.236   3.938   2.815  0.0721  0.5148  0.1091
 2622poe    c3114184   1.284   4.056   2.755 -0.0550  0.6502  0.2729
 2623poe    c3114185   4.529   3.662   5.184  0.1002  0.1847  0.3440
 2623poe     o214186   4.592   3.652   5.309  0.0852 -0.7009  0.2882
 2623poe    c2314187   4.515   3.578   5.401 -0.9614 -0.0698 -0.0681
 2623poe    c2314188   4.580   3.580   5.541  0.0978  0.2833 -0.5565
 2623poe     o214189   4.577   3.704   5.607 -0.1257 -0.0221  0.0075
 2623poe    c2314190   4.654   3.682   5.723  0.1647  0.2970 -0.1256
 2623poe    c2314191   4.671   3.823   5.785 -0.7901  0.3083  0.1221
 2623poe     o214192   4.739   3.911   5.698 -0.3879  0.2520  0.3791
 2623poe    c2314193   4.815   4.014   5.757  0.4118  0.0183 -0.2226
 2623poe    c2314194   4.901   4.091   5.655  0.5151  0.0674 -0.0977
 2623poe     o214195   4.912   4.014   5.538  0.1710  0.0837 -0.1407
 2623poe    c3114196   5.024   4.050   5.460  0.2701 -0.6033 -0.3196
 2624poe    c3114197   7.184   7.155   0.826  0.0175  0.2073 -0.6490
 2624poe     o214198   7.209   7.029   0.885 -0.2180  0.0945 -0.7895
 2624poe    c2314199   7.184   6.923   0.796 -0.2802 -0.3181 -0.2833
 2624poe    c2314200   7.232   6.790   0.856  0.3512  0.0902  0.1218
 2624poe     o214201   7.372   6.805   0.860  0.2803  0.6875  0.5605
 2624poe    c2314202   7.437   6.713   0.945  0.0552  0.4847  0.5141
 2624poe    c2314203   7.422   6.563   0.915 -0.3313  0.6251 -0.0052
 2624poe     o214204   7.482   6.508   0.800 -0.2154  0.0989  0.3042
 2624poe    c2314205   7.407   6.397   0.755  0.4027 -0.0565 -0.3552
 2624poe    c2314206   7.435   6.396   0.603  0.9163  0.7370 -0.2702
 2624poe     o214207   7.361   6.496   0.537  0.5419  0.5691 -0.1025
 2624poe    c3114208   7.377   6.475   0.399 -0.0130 -0.3026 -0.0436
 2625poe    c3114209   3.528   6.838   5.487  0.2613  0.1681  0.0522
 2625poe     o214210   3.651   6.906   5.499  0.3996 -0.1376  0.4019
 2625poe    c2314211   3.731   6.873   5.387 -0.2936 -0.5682  0.0233
 2625poe    c2314212   3.860   6.956   5.372 -0.5449 -0.2160 -0.2133
 2625poe     o214213   3.832   7.082   5.429 -0.1432 -0.3179  0.2178
 2625poe    c2314214   3.930   7.165   5.372 -0.7983  0.2851 -0.0468
 2625poe    c2314215   3.880   7.304   5.417  0.2939  0.8592 -0.5464
 2625poe     o214216   3.881   7.307   5.558 -0.0844  0.2980 -0.5286
 2625poe    c2314217   3.836   7.428   5.614  0.7694  0.2015  0.4007
 2625poe    c2314218   3.801   7.417   5.763 -0.2707  0.2510  0.1676
 2625poe     o214219   3.696   7.324   5.777 -0.2350  0.2140  0.1923
 2625poe    c3114220   3.645   7.344   5.907  0.4419 -0.3388  0.5481
 2626poe    c3114221   4.860   5.833   0.243 -0.3193  0.1644 -0.0779
 2626poe     o214222   4.960   5.788   0.332 -0.1030 -0.3120 -0.5518
 2626poe    c2314223   5.076   5.754   0.261 -0.0120 -0.2408 -0.4374
 2626poe    c2314224   5.183   5.674   0.338 -0.2766  0.1119  0.3045
 2626poe     o214225   5.143   5.539   0.336 -0.4783  0.1767 -0.2228
 2626poe    c2314226   5.250   5.453   0.371 -0.4940  0.2024 -0.1140
 2626poe    c2314227   5.214   5.305   0.351  0.0673  0.0636 -0.0880
 2626poe     o214228   5.131   5.257   0.455  0.2299 -0.4407 -0.1860
 2626poe    c2314229   5.126   5.116   0.448 -0.1320 -0.4506  0.2819
 2626poe    c2314230   5.020   5.081   0.555 -0.0218 -0.3165  0.4372
 2626poe     o214231   4.901   5.153   0.535  0.8780  1.0142 -0.3092
 2626poe    c3114232   4.802   5.067   0.484  0.7881  0.8461  0.1368
 2627poe    c3114233   3.091   0.232   4.000  0.0952  0.2697  0.3099
 2627poe     o214234   3.204   0.180   4.067 -0.1535 -0.2378  0.3418
 2627poe    c2314235   3.256   0.288   4.142 -0.5130  0.3132 -0.1989
 2627poe    c2314236   3.367   0.231   4.232 -0.4750  0.1172 -0.3691
 2627poe     o214237   3.475   0.184   4.154  0.2004  0.2111  0.4950
 2627poe    c2314238   3.604   0.183   4.210  0.2926 -0.5065  0.2754
 2627poe    c2314239   3.700   0.217   4.094  0.2913 -0.2546  0.3474
 2627poe     o214240   3.688   0.149   3.971 -0.4276 -0.0850  0.3146
 2627poe    c2314241   3.762   0.217   3.871 -0.1164  0.0105  0.6061
 2627poe    c2314242   3.790   0.113   3.761 -0.0381 -0.0724  0.7047
 2627poe     o214243   3.667   0.045   3.756  0.1061 -0.2690 -0.3339
 2627poe    c3114244   3.661  -0.030   3.637  0.6941  0.4184 -0.8065
 2628poe    c3114245   5.304   6.715   1.386 -0.9114  0.5021 -0.6189
 2628poe     o214246   5.228   6.760   1.495 -0.0998 -0.6884  0.4752
 2628poe    c2314247   5.088   6.748   1.479 -0.0834 -0.2210 -0.0386
 2628poe    c2314248   5.010   6.781   1.608  0.1223 -0.0090  0.0325
 2628poe     o214249   5.044   6.689   1.709 -0.5592 -0.1470  0.1400
 2628poe    c2314250   4.966   6.710   1.825 -0.1725  0.2083  0.3376
 2628poe    c2314251   4.817   6.675   1.825 -0.0996 -0.1119  0.0488
 2628poe     o214252   4.788   6.540   1.856 -0.4094 -0.0871 -0.1277
 2628poe    c2314253   4.740   6.542   1.988  0.2539 -0.0332  0.1178
 2628poe    c2314254   4.656   6.420   2.032  0.1241 -0.2681 -0.7728
 2628poe     o214255   4.733   6.313   2.084 -0.0374  0.3645  0.8085
 2628poe    c3114256   4.659   6.232   2.172  0.0315 -0.2681  0.2846
 2629poe    c3114257   0.997   4.949   0.931 -0.1023 -0.3093 -0.2593
 2629poe     o214258   0.952   4.962   1.064  0.0828  0.5891 -0.2739
 2629poe    c2314259   1.055   4.923   1.152 -0.5303 -0.3565  0.0486
 2629poe    c2314260   1.007   4.925   1.298 -0.1243 -0.3572  0.1841
 2629poe     o214261   0.877   4.872   1.287 -0.1647 -0.0721 -0.7565
 2629poe    c2314262   0.809   4.870   1.411  0.6969 -0.4648 -0.2835
 2629poe    c2314263   0.655   4.873   1.398  0.7042 -0.5284 -0.3862
 2629poe     o214264   0.612   4.985   1.324  0.0252 -0.4449  0.1242
 2629poe    c2314265   0.478   5.019   1.348 -0.0174 -0.4844 -0.0526
 2629poe    c2314266   0.384   4.979   1.233 -0.1464 -0.0696 -0.0930
 2629poe     o214267   0.429   5.033   1.111  0.7159 -0.3913  0.0742
 2629poe    c3114268   0.372   4.987   0.990 -0.0703  0.4417  0.1171
 2630poe    c3114269   6.745   1.165   0.212 -0.4312  0.3765  0.3758
 2630poe     o214270   6.650   1.077   0.268  0.1138 -0.2025  0.4032
 2630poe    c2314271   6.616   1.126   0.395 -0.0802 -0.0167  0.2793
 2630poe    c2314272   6.490   1.060   0.455 -0.1584 -0.2773 -0.1707
 2630poe     o214273   6.509   0.933   0.511 -0.0963 -0.0682  0.2824
 2630poe    c2314274   6.381   0.895   0.557  0.1891  0.0442  1.2038
 2630poe    c2314275   6.395   0.780   0.658 -0.1892 -0.6116  0.5212
 2630poe     o214276   6.488   0.697   0.593 -0.5166 -0.4161 -0.2041
 2630poe    c2314277   6.494   0.569   0.652 -0.0810 -0.2921  0.0194
 2630poe    c2314278   6.568   0.553   0.787  0.3403  0.2246 -0.1436
 2630poe     o214279   6.495   0.590   0.902  0.2697  0.1139 -0.1519
 2630poe    c3114280   6.429   0.476   0.952  0.3195  0.2745  0.2824
 2631poe    c3114281   5.357   5.859   5.760  0.3234  0.0995  0.5072
 2631poe     o214282   5.322   5.993   5.735  0.1912  0.0437  0.3938
 2631poe    c2314283   5.185   6.013   5.762 -0.0526 -0.7982 -0.1771
 2631poe    c2314284   5.169   6.166   5.774  0.5816 -0.7256 -0.2092
 2631poe     o214285   5.250   6.211   5.880  0.4523  0.0510 -0.4384
 2631poe    c2314286   5.235   6.351   5.890 -0.1429 -0.0736  0.4690
 2631poe    c2314287   5.350   6.442   5.843 -0.5263  0.4202  0.4815
 2631poe     o214288   5.467   6.398   5.909 -0.2657  0.2890 -0.0668
 2631poe    c2314289   5.571   6.479   5.860 -0.0453  0.5409  0.7959
 2631poe    c2314290   5.689   6.455   5.955  1.0186 -0.2304 -0.6836
 2631poe     o214291   5.690   6.314   5.955 -0.2897 -0.2511 -0.0140
 2631poe    c3114292   5.788   6.260   6.039 -0.1746 -0.1376 -0.0742
 2632poe    c3114293   6.612   5.622   7.146  0.1573 -0.3712  0.0809
 2632poe     o214294   6.671   5.658   7.269 -0.8055 -0.4164  0.5658
 2632poe    c2314295   6.715   5.792   7.266  0.1571 -0.7313 -0.0783
 2632poe    c2314296   6.765   5.822   7.409 -0.3047  0.0301 -0.0689
 2632poe     o214297   6.680   5.754   7.498  0.2758 -0.1253  0.3734
 2632poe    c2314298   6.687   5.783   7.636  0.4009 -0.4136  0.4295
 2632poe    c2314299   6.565   5.713   7.697 -0.1191 -0.2893 -0.4450
 2632poe     o214300   6.562   5.584   7.639 -0.3499 -0.2513 -0.5160
 2632poe    c2314301   6.516   5.481   7.723 -0.1478 -0.2781 -0.4403
 2632poe    c2314302   6.362   5.486   7.725 -0.1434 -0.4214  0.3357
 2632poe     o214303   6.304   5.473   7.598  0.1857 -0.0101  0.1408
 2632poe    c3114304   6.167   5.505   7.599  0.0305 -0.6668  0.3404
 2633poe    c3114305   3.120   5.125   7.138 -0.0626  0.0036  0.3013
 2633poe     o214306   3.079   5.219   7.235  0.2507  0.2935  0.1537
 2633poe    c2314307   3.125   5.173   7.360  0.1191 -0.2944 -0.0088
 2633poe    c2314308   3.124   5.287   7.464 -0.6592 -0.2912 -0.0149
 2633poe     o214309   3.006   5.362   7.480 -0.3464  0.1779  0.0939
 2633poe    c2314310   3.018   5.440   7.597  0.1907 -0.1018  0.2296
 2633poe    c2314311   2.895   5.533   7.605  0.1104 -0.2039  0.1905
 2633poe     o214312   2.787   5.450   7.568 -0.3287  0.3930  0.1201
 2633poe    c2314313   2.690   5.536   7.512 -0.2820  0.3071 -0.0930
 2633poe    c2314314   2.567   5.445   7.497  0.0950 -0.1519 -0.4341
 2633poe     o214315   2.616   5.334   7.425  0.3278 -0.0611 -0.4185
 2633poe    c3114316   2.509   5.258   7.372 -0.6183  0.5143  0.6355
 2634poe    c3114317   6.314   6.444   0.544  0.6508 -0.4986 -0.1641
 2634poe     o214318   6.417   6.465   0.638 -0.1503  0.1868  0.5906
 2634poe    c2314319   6.417   6.387   0.755 -0.1252 -0.0809  0.4120
 2634poe    c2314320   6.549   6.405   0.832  0.2513 -0.1543 -0.2097
 2634poe     o214321   6.649   6.402   0.732  0.2089 -0.1667 -0.2516
 2634poe    c2314322   6.775   6.365   0.782 -0.1499 -0.3186  0.5625
 2634poe    c2314323   6.892   6.424   0.701 -0.2801 -0.1153  0.5204
 2634poe     o214324   6.904   6.353   0.579 -0.4680  0.5051  0.1400
 2634poe    c2314325   7.033   6.366   0.525 -0.4561  0.1412  0.0835
 2634poe    c2314326   7.052   6.250   0.425 -0.1320  0.1986  0.0777
 2634poe     o214327   6.937   6.271   0.347  0.2243 -0.0135 -0.5109
 2634poe    c3114328   6.929   6.177   0.241  0.2470 -0.4316 -0.1466
 2635poe    c3114329   0.266   6.177   2.992 -0.0737 -0.5531 -0.2436
 2635poe     o214330   0.371   6.128   2.911  0.0092 -0.8624  0.0480
 2635poe    c2314331   0.486   6.103   2.988  0.3396  0.3893 -0.0175
 2635poe    c2314332   0.607   6.020   2.940  0.2813 -0.1994  0.8381
 2635poe     o214333   0.576   5.882   2.942 -0.4546 -0.0616 -0.3040
 2635poe    c2314334   0.657   5.817   2.846 -0.2868 -0.4556  0.1023
 2635poe    c2314335   0.645   5.664   2.858 -0.2606 -0.3946  1.0282
 2635poe     o214336   0.510   5.626   2.866 -0.3962 -0.1989 -0.1692
 2635poe    c2314337   0.486   5.487   2.857  1.1579 -0.4785 -0.3182
 2635poe    c2314338   0.338   5.444   2.844  0.7664  0.5474  0.5574
 2635poe     o214339   0.259   5.493   2.950 -0.5737 -0.1948 -0.0819
 2635poe    c3114340   0.122   5.479   2.918 -0.7650  0.1133  0.6042
 2636poe    c3114341   4.993   1.448   2.583  0.0740 -0.0578  0.0616
 2636poe     o214342   4.896   1.508   2.500 -0.4424 -0.6781  0.2160
 2636poe    c2314343   4.940   1.593   2.397 -0.4768 -0.3546  0.4697
 2636poe    c2314344   4.850   1.606   2.274 -0.2907 -0.2092  0.3475
 2636poe     o214345   4.839   1.474   2.226  0.1219  0.0557 -0.4988
 2636poe    c2314346   4.802   1.464   2.090  0.1085  0.1939 -0.5054
 2636poe    c2314347   4.833   1.320   2.045 -0.0210 -0.0205  0.0811
 2636poe     o214348   4.737   1.231   2.098  0.6874 -0.6001  0.4202
 2636poe    c2314349   4.770   1.096   2.080 -0.2715 -0.7644 -0.2212
 2636poe    c2314350   4.667   1.007   2.152 -0.7826 -0.0960 -0.1287
 2636poe     o214351   4.647   1.080   2.271 -0.3673  0.1333 -0.1976
 2636poe    c3114352   4.534   1.027   2.337 -0.3380  0.4788  0.1354
 2637poe    c3114353   3.840   3.769   2.802  0.5237  0.0882  0.1035
 2637poe     o214354   3.855   3.894   2.865 -0.3819 -0.0523  0.6282
 2637poe    c2314355   3.956   3.905   2.962 -0.1040  0.1911  0.3150
 2637poe    c2314356   3.979   4.054   2.995 -0.3281  0.4075 -0.4823
 2637poe     o214357   3.851   4.114   2.999 -0.5689 -0.0727 -0.9039
 2637poe    c2314358   3.859   4.254   3.005  0.4162 -0.1347 -0.4917
 2637poe    c2314359   3.720   4.294   2.952  0.0997 -0.4759  0.0712
 2637poe     o214360   3.683   4.204   2.850 -0.1559 -0.0163 -0.2484
 2637poe    c2314361   3.566   4.248   2.785 -0.0084  0.2284 -0.3464
 2637poe    c2314362   3.546   4.127   2.692  0.2598 -0.0623 -0.0297
 2637poe     o214363   3.566   4.011   2.770 -0.3516 -0.2946 -0.2075
 2637poe    c3114364   3.480   3.911   2.721 -0.4870 -0.3091  0.0586
 2638poe    c3114365   5.893   5.357   4.661  0.2974  0.0163  0.5022
 2638poe     o214366   5.877   5.230   4.601  0.6993  0.1242  0.1545
 2638poe    c2314367   5.960   5.133   4.660  0.2750  0.0498  0.6408
 2638poe    c2314368   5.918   4.998   4.598 -0.2981  0.4385  0.1733
 2638poe     o214369   5.885   5.017   4.462  0.1238  0.3946  0.0621
 2638poe    c2314370   5.936   4.913   4.382 -0.5958 -0.3343  0.5278
 2638poe    c2314371   5.852   4.927   4.253 -0.0520 -0.4780  0.1528
 2638poe     o214372   5.853   5.064   4.217  0.0752 -0.5985 -0.3070
 2638poe    c2314373   5.789   5.088   4.094  0.0063  0.2802 -0.1028
 2638poe    c2314374   5.803   5.227   4.028  0.0821  0.1823 -0.2948
 2638poe     o214375   5.741   5.328   4.104  0.8361  0.2586  0.2356
 2638poe    c3114376   5.755   5.458   4.052 -0.3803  0.1707 -0.3496
 2639poe    c3114377   2.896   6.364   4.667  1.0622  0.1734  0.3130
 2639poe     o214378   2.965   6.289   4.569  0.0538 -0.4392  0.0642
 2639poe    c2314379   2.867   6.212   4.503  0.2891 -0.8573  0.1999
 2639poe    c2314380   2.921   6.156   4.371  0.1958  0.2276 -0.3148
 2639poe     o214381   2.947   6.255   4.274  0.0242  0.3356 -0.2501
 2639poe    c2314382   3.012   6.187   4.170 -0.3882  0.3259 -0.5026
 2639poe    c2314383   3.046   6.285   4.056 -0.6603  0.5228 -0.4151
 2639poe     o214384   3.076   6.401   4.130 -0.1062  0.0778  0.0703
 2639poe    c2314385   3.130   6.490   4.034  0.4148 -0.2698  0.0413
 2639poe    c2314386   3.140   6.636   4.081 -0.1762 -0.1299 -0.2574
 2639poe     o214387   3.022   6.701   4.122 -0.1228 -0.3004  0.1830
 2639poe    c3114388   3.033   6.834   4.075 -0.5956 -0.2935  0.0842
 2640poe    c3114389   3.207   3.853   2.502  0.3140 -0.0796  0.2793
 2640poe     o214390   3.170   3.717   2.499  0.4542 -0.1171  0.2432
 2640poe    c2314391   3.279   3.640   2.455  0.3298 -0.2570  0.1781
 2640poe    c2314392   3.242   3.491   2.436 -0.3470 -0.0327 -0.2968
 2640poe     o214393   3.191   3.427   2.551  0.4436 -0.0455  0.0528
 2640poe    c2314394   3.154   3.293   2.527  0.2595 -0.1084  0.6546
 2640poe    c2314395   3.074   3.213   2.630 -0.2720 -0.1523  0.2111
 2640poe     o214396   3.101   3.079   2.595  0.1536  0.0469 -0.2268
 2640poe    c2314397   3.078   2.975   2.687  0.2188  0.3656  0.1524
 2640poe    c2314398   3.153   2.845   2.651 -0.2784  0.0969  0.0764
 2640poe     o214399   3.087   2.771   2.551  0.7103  0.0607 -0.5651
 2640poe    c3114400   3.140   2.641   2.567  0.4655 -0.0252 -0.4315
 2641poe    c3114401   1.931   7.082   5.852  0.0950  0.3675  0.1614
 2641poe     o214402   1.858   7.018   5.955  0.2123 -0.2708 -0.1498
 2641poe    c2314403   1.730   6.978   5.912 -0.2183  0.7687  0.1479
 2641poe    c2314404   1.697   6.858   6.002  0.4310  0.2154 -0.3398
 2641poe     o214405   1.745   6.882   6.132  0.4526 -0.3593 -0.2419
 2641poe    c2314406   1.701   6.777   6.216 -0.3074  0.3326  0.2454
 2641poe    c2314407   1.752   6.825   6.353  0.2131 -0.2902  0.2761
 2641poe     o214408   1.887   6.864   6.344  0.2090 -0.3632 -0.1226
 2641poe    c2314409   1.927   6.883   6.478 -0.3720 -0.1590  0.0238
 2641poe    c2314410   2.073   6.928   6.496 -0.5339  0.2635  0.3088
 2641poe     o214411   2.076   7.061   6.450  0.1180  0.1756  0.0870
 2641poe    c3114412   2.204   7.116   6.475  0.1996 -0.1659  0.4256
 2642poe    c3114413   4.937   4.752   5.443 -0.5918 -0.0638 -0.0430
 2642poe     o214414   4.873   4.667   5.351 -0.3793 -0.1211 -0.1382
 2642poe    c2314415   4.910   4.532   5.371 -0.1739 -0.0431  0.0096
 2642poe    c2314416   4.853   4.467   5.498 -0.0433  0.5552  0.3770
 2642poe     o214417   4.713   4.453   5.497  0.0471 -0.3803  0.2989
 2642poe    c2314418   4.649   4.414   5.617 -0.3125  0.5995  0.4335
 2642poe    c2314419   4.498   4.386   5.608 -0.2401  0.2440  0.3184
 2642poe     o214420   4.434   4.326   5.718 -0.5011  0.1640  0.1239
 2642poe    c2314421   4.311   4.269   5.680 -0.3565  0.2969 -0.5601
 2642poe    c2314422   4.288   4.121   5.719  0.1088  0.2689 -0.3874
 2642poe     o214423   4.367   4.030   5.647  0.4945  0.4749 -0.2282
 2642poe    c3114424   4.327   3.897   5.668 -0.9093  0.8615 -0.3678
 2643poe    c3114425   6.415   3.952   0.384 -0.1056  0.2408 -0.4484
 2643poe     o214426   6.461   3.857   0.291  0.0270 -0.2733  0.1297
 2643poe    c2314427   6.359   3.760   0.299 -0.1499 -0.1656 -0.6944
 2643poe    c2314428   6.393   3.620   0.247  0.1897 -0.7208  0.9762
 2643poe     o214429   6.412   3.633   0.108 -0.1618 -0.6500  0.9341
 2643poe    c2314430   6.483   3.520   0.062 -0.3377 -0.3326 -0.1325
 2643poe    c2314431   6.499   3.537  -0.091 -0.1523 -0.8215 -0.1716
 2643poe     o214432   6.602   3.627  -0.129 -0.3243 -0.3814  0.3819
 2643poe    c2314433   6.633   3.636  -0.266 -0.1629  0.4519  0.4692
 2643poe    c2314434   6.773   3.695  -0.294 -0.0310 -0.4199 -0.7695
 2643poe     o214435   6.774   3.827  -0.244  0.8754 -0.4192 -0.7744
 2643poe    c3114436   6.839   3.923  -0.324 -0.2811  1.0039 -0.0419
 2644poe    c3114437   4.885   0.940   5.627 -0.2841 -0.2651 -0.4015
 2644poe     o214438   5.009   0.903   5.572 -0.1444 -0.3772 -0.0163
 2644poe    c2314439   5.100   0.858   5.670  0.1197  0.3310  0.0668
 2644poe    c2314440   5.211   0.776   5.604 -0.2209  0.5846 -0.8365
 2644poe     o214441   5.180   0.658   5.533 -0.0539 -0.0941  0.1946
 2644poe    c2314442   5.122   0.561   5.617  0.3139  0.1237  0.7014
 2644poe    c2314443   5.110   0.421   5.554 -0.7057  0.5754 -0.1181
 2644poe     o214444   5.067   0.327   5.649 -0.7614  0.6472 -0.0723
 2644poe    c2314445   5.030   0.206   5.586 -0.6006  0.4797  0.1518
 2644poe    c2314446   4.985   0.103   5.691  0.1159  0.0440  0.0395
 2644poe     o214447   5.087   0.036   5.761 -0.2655 -0.7187 -0.1322
 2644poe    c3114448   5.155  -0.063   5.686  0.0819 -0.3485 -0.3051
 2645poe    c3114449   3.834   0.845   0.659 -0.6812 -0.0092  0.4040
 2645poe     o214450   3.820   0.898   0.789  0.2480  0.4057  0.3452
 2645poe    c2314451   3.931   0.848   0.861  0.2698 -0.4068 -0.2406
 2645poe    c2314452   3.929   0.926   0.994  0.0716 -1.5192  0.4232
 2645poe     o214453   3.804   0.917   1.059 -0.4035  0.4726 -0.1340
 2645poe    c2314454   3.816   0.987   1.181 -0.1385  0.2269 -0.0178
 2645poe    c2314455   3.703   0.956   1.281 -0.2761 -0.1485 -0.2857
 2645poe     o214456   3.584   1.030   1.262 -0.2979 -0.1971 -0.3376
 2645poe    c2314457   3.465   0.960   1.289  0.0457 -0.5741  0.2230
 2645poe    c2314458   3.341   1.038   1.241  0.5534  0.3304  0.3474
 2645poe     o214459   3.333   1.041   1.101 -0.1077  0.3843  0.3806
 2645poe    c3114460   3.202   1.069   1.058 -0.3271 -0.3328  0.5780
 2646poe    c3114461   2.996   0.860   6.672 -0.3001  0.1840 -0.3019
 2646poe     o214462   3.033   0.835   6.806  0.1435  0.5816 -0.3462
 2646poe    c2314463   3.005   0.700   6.836 -0.3003  0.6897 -0.2600
 2646poe    c2314464   3.048   0.686   6.983 -0.1757  0.6778 -0.2970
 2646poe     o214465   3.003   0.802   7.050 -0.3248  0.3432  0.1879
 2646poe    c2314466   2.989   0.789   7.189  0.5036 -0.7306  0.1817
 2646poe    c2314467   2.990   0.926   7.260  0.2686 -0.4617 -0.3350
 2646poe     o214468   2.940   1.034   7.184  0.0727 -0.1288  0.2606
 2646poe    c2314469   2.997   1.152   7.236  0.1956  0.2110 -0.6275
 2646poe    c2314470   2.901   1.247   7.309  0.2018 -0.0267 -0.3054
 2646poe     o214471   2.866   1.200   7.437 -0.7430 -0.1094 -0.5840
 2646poe    c3114472   2.773   1.291   7.491  0.5021  0.7301  0.1993
 2647poe    c3114473   4.997   5.495   2.073  0.4184  0.4330 -0.3688
 2647poe     o214474   5.087   5.414   2.001 -0.0912 -0.4878  0.0110
 2647poe    c2314475   5.007   5.309   1.954 -0.3239 -0.1711 -0.3034
 2647poe    c2314476   5.081   5.208   1.864  0.0385 -0.0893 -0.0988
 2647poe     o214477   5.155   5.259   1.756  0.4418 -0.1420  0.1511
 2647poe    c2314478   5.230   5.163   1.685  0.0494 -0.2058 -0.1787
 2647poe    c2314479   5.355   5.226   1.623 -0.0218  0.0248 -0.0871
 2647poe     o214480   5.310   5.345   1.562 -0.1707  0.0690  0.1078
 2647poe    c2314481   5.409   5.401   1.480 -0.0474 -0.3790 -0.0534
 2647poe    c2314482   5.347   5.532   1.428  0.9716  0.2055  0.1763
 2647poe     o214483   5.283   5.579   1.545  0.6518  0.6756 -0.1854
 2647poe    c3114484   5.242   5.712   1.517 -0.5295  0.3275 -0.1658
 2648poe    c3114485   7.137   5.163   1.869 -0.1157  0.0724 -0.3115
 2648poe     o214486   7.029   5.124   1.951  0.1536  0.1842  0.1013
 2648poe    c2314487   6.923   5.212   1.923  0.4426  0.6711  0.5284
 2648poe    c2314488   6.806   5.206   2.023 -0.6239 -0.1847 -0.7460
 2648poe     o214489   6.703   5.291   1.977 -0.3905  0.3178 -0.3476
 2648poe    c2314490   6.692   5.418   2.037  0.5110  0.2700 -0.0695
 2648poe    c2314491   6.670   5.444   2.187 -0.1488  0.3922 -0.1853
 2648poe     o214492   6.532   5.430   2.213 -0.2229  0.4438 -0.5498
 2648poe    c2314493   6.506   5.453   2.350  0.1614 -0.1482 -0.3743
 2648poe    c2314494   6.357   5.472   2.385  0.0493 -0.4893 -0.6526
 2648poe     o214495   6.281   5.572   2.320 -0.0390 -0.1048  0.0279
 2648poe    c3114496   6.153   5.583   2.376  0.0894  0.0727  0.2885
 2649poe    c3114497   3.808   6.925   2.663 -0.1125  0.0768  0.0415
 2649poe     o214498   3.926   6.964   2.731 -0.1491 -0.6183  0.5118
 2649poe    c2314499   3.891   7.016   2.857  0.2892  0.4005  0.2225
 2649poe    c2314500   4.024   7.083   2.899  0.6403 -0.1188 -0.0554
 2649poe     o214501   4.141   7.005   2.900  0.2716 -0.7007 -0.7110
 2649poe    c2314502   4.253   7.075   2.950 -0.2520 -0.0699 -0.4067
 2649poe    c2314503   4.362   6.990   3.018 -0.3402  0.1361 -0.0031
 2649poe     o214504   4.360   6.875   2.937 -0.0629  0.5898 -0.6662
 2649poe    c2314505   4.435   6.764   2.982 -0.5991  0.2727 -0.5413
 2649poe    c2314506   4.451   6.687   2.850 -0.3319  0.1352 -0.4287
 2649poe     o214507   4.319   6.670   2.803 -0.6494  0.4516  0.3399
 2649poe    c3114508   4.303   6.563   2.713 -0.2820  0.3342  0.4124
 2650poe    c3114509   5.224   4.333   6.545  0.0538 -0.4274 -0.2934
 2650poe     o214510   5.263   4.214   6.610 -0.1671 -0.2808  0.1101
 2650poe    c2314511   5.361   4.214   6.711  0.1963  0.1662 -0.2380
 2650poe    c2314512   5.339   4.101   6.813  0.0796  0.2519 -0.1668
 2650poe     o214513   5.321   3.991   6.727  0.8641  0.0288 -0.0598
 2650poe    c2314514   5.293   3.868   6.789  0.6817 -0.0461 -0.2900
 2650poe    c2314515   5.314   3.756   6.684  0.5892 -0.0766 -0.2765
 2650poe     o214516   5.248   3.793   6.565  0.7927 -0.2133 -0.4309
 2650poe    c2314517   5.266   3.695   6.465 -0.3150 -0.3633 -0.4904
 2650poe    c2314518   5.215   3.718   6.321  0.0599  0.2948 -0.5195
 2650poe     o214519   5.260   3.840   6.266  0.1932  0.4377 -0.1036
 2650poe    c3114520   5.211   3.876   6.139  0.3073  0.0025 -0.2737
 2651poe    c3114521   6.092   0.926   1.945  0.1446  0.2280 -0.0978
 2651poe     o214522   6.213   0.999   1.940  0.2745  0.0041 -0.2733
 2651poe    c2314523   6.188   1.128   1.889  0.0814 -0.1991 -0.6926
 2651poe    c2314524   6.325   1.194   1.909 -0.0097 -0.1842 -0.1103
 2651poe     o214525   6.421   1.100   1.867  0.1121 -0.4324  0.7018
 2651poe    c2314526   6.554   1.146   1.880 -0.1056  0.7286 -0.8123
 2651poe    c2314527   6.641   1.057   1.790  0.4244  0.0621  0.3360
 2651poe     o214528   6.596   0.923   1.787  0.2561  0.1285 -0.0640
 2651poe    c2314529   6.692   0.840   1.725 -0.3714 -0.3673 -0.3768
 2651poe    c2314530   6.643   0.694   1.715 -0.3603 -0.4083  0.1485
 2651poe     o214531   6.517   0.679   1.654 -0.2174 -0.4565 -0.1370
 2651poe    c3114532   6.485   0.546   1.621 -0.1119 -0.4524 -0.2535
 2652poe    c3114533   1.098   5.331   2.240 -0.1542  0.1454 -0.2376
 2652poe     o214534   0.971   5.270   2.250 -0.1916  0.2961  0.2265
 2652poe    c2314535   0.916   5.302   2.375 -0.4477  0.2965  0.1150
 2652poe    c2314536   0.773   5.359   2.371 -0.5099  0.1505  0.2533
 2652poe     o214537   0.683   5.251   2.359  0.0008 -0.2527  0.0229
 2652poe    c2314538   0.553   5.292   2.325  0.1153  0.1637  0.0876
 2652poe    c2314539   0.475   5.190   2.240 -0.7990  0.5863  0.3979
 2652poe     o214540   0.537   5.182   2.113 -0.7450  0.2261  0.4458
 2652poe    c2314541   0.449   5.121   2.022 -0.2211  0.3373 -0.1373
 2652poe    c2314542   0.524   5.050   1.908  0.2217  0.0106  0.3531
 2652poe     o214543   0.628   5.138   1.871  0.2609 -0.1948 -0.0380
 2652poe    c3114544   0.713   5.091   1.769  0.7843  0.4900  0.0803
 2653poe    c3114545   4.932   0.819   2.827  0.2802 -0.2060  0.3180
 2653poe     o214546   5.026   0.714   2.822 -0.0200 -0.4569 -0.0897
 2653poe    c2314547   5.109   0.701   2.935 -0.6570 -0.9696  0.3250
 2653poe    c2314548   5.190   0.572   2.913  0.6333 -0.1312  0.0246
 2653poe     o214549   5.284   0.596   2.811  0.0581 -0.1479 -0.5111
 2653poe    c2314550   5.340   0.472   2.775 -0.1674 -0.3492 -0.1753
 2653poe    c2314551   5.388   0.464   2.629  0.1650 -0.5990 -0.0531
 2653poe     o214552   5.283   0.414   2.550 -0.1629  0.1083 -0.0709
 2653poe    c2314553   5.342   0.373   2.428  0.0009 -0.1235  0.0846
 2653poe    c2314554   5.238   0.293   2.348 -0.2916  0.5234 -0.1909
 2653poe     o214555   5.115   0.362   2.349 -0.3998  0.3307  0.3790
 2653poe    c3114556   5.022   0.298   2.265  0.2574 -0.2489  0.0871
 2654poe    c3114557   6.279   0.858   4.875  0.2796 -0.5233  0.0650
 2654poe     o214558   6.143   0.827   4.852  0.2975 -0.7264  0.2272
 2654poe    c2314559   6.067   0.943   4.879  0.4395 -0.4965 -0.3389
 2654poe    c2314560   5.927   0.884   4.904  0.2458  0.1944  0.2525
 2654poe     o214561   5.937   0.761   4.973  0.0959  0.1546  0.2036
 2654poe    c2314562   5.809   0.715   5.010  0.0583 -0.0292 -0.1514
 2654poe    c2314563   5.829   0.593   5.102 -0.2719 -0.3042 -0.4436
 2654poe     o214564   5.893   0.489   5.031 -0.0898 -0.2834 -0.3065
 2654poe    c2314565   5.891   0.369   5.105 -0.1736 -0.0325  0.1069
 2654poe    c2314566   5.971   0.250   5.048  0.2785  0.1869  0.2774
 2654poe     o214567   5.942   0.208   4.916 -0.1650 -0.2403  0.5078
 2654poe    c3114568   6.035   0.114   4.869 -0.2635  0.1902 -0.5846
 2655poe    c3114569   5.433   2.210   1.620 -0.6090  0.1085  0.7206
 2655poe     o214570   5.307   2.170   1.669 -0.5090  0.0538  0.9365
 2655poe    c2314571   5.213   2.269   1.633  0.0916  0.4100  0.3182
 2655poe    c2314572   5.089   2.258   1.724 -0.0053  0.0202  0.1420
 2655poe     o214573   5.088   2.126   1.772  0.1268 -0.1558 -0.3392
 2655poe    c2314574   4.984   2.117   1.867  0.3490  0.2504 -0.0538
 2655poe    c2314575   4.971   1.972   1.918 -0.4179  0.3052 -0.0845
 2655poe     o214576   5.100   1.937   1.964 -0.3611  0.1976 -0.3254
 2655poe    c2314577   5.117   1.804   2.007  0.1688  0.2712 -0.3024
 2655poe    c2314578   5.248   1.755   2.071 -0.1414 -0.2492 -0.0534
 2655poe     o214579   5.347   1.745   1.970 -0.0955  0.2417 -0.0616
 2655poe    c3114580   5.447   1.654   2.009 -0.1912  0.1987  0.0864
 2656poe    c3114581   2.252   1.695   3.128 -0.2463 -0.3833 -0.3232
 2656poe     o214582   2.274   1.768   3.009 -0.3271  0.0127 -0.0974
 2656poe    c2314583   2.370   1.870   3.029 -0.3836  0.0813 -0.1781
 2656poe    c2314584   2.393   1.969   2.913 -0.3443  0.4490  0.1450
 2656poe     o214585   2.279   2.052   2.916 -0.4184  0.3527  0.0177
 2656poe    c2314586   2.267   2.104   2.786  0.0669 -0.2708 -0.2784
 2656poe    c2314587   2.151   2.201   2.757 -0.4172 -0.4726  0.9611
 2656poe     o214588   2.165   2.333   2.805  0.3328 -0.0402 -0.4063
 2656poe    c2314589   2.060   2.409   2.751  0.2090 -0.3463 -0.6011
 2656poe    c2314590   2.081   2.556   2.710  0.7658 -0.4584 -0.7160
 2656poe     o214591   2.134   2.650   2.801 -0.1890 -0.0983 -0.5213
 2656poe    c3114592   2.127   2.771   2.728 -0.4400  0.2189  0.0261
 2657poe    c3114593   2.470   2.814   4.375  0.2266  0.2418 -0.2844
 2657poe     o214594   2.351   2.841   4.305 -0.3409 -0.3321  0.4267
 2657poe    c2314595   2.251   2.905   4.382 -0.4947 -0.2801  0.1874
 2657poe    c2314596   2.111   2.912   4.319 -0.4535  0.2428  0.1465
 2657poe     o214597   2.108   2.979   4.195 -0.3211  0.1771  0.1072
 2657poe    c2314598   1.979   2.992   4.139 -0.2151  0.0756 -0.1606
 2657poe    c2314599   2.006   3.029   3.992  0.1514  0.4307 -0.0059
 2657poe     o214600   2.105   3.129   4.005  0.2744  0.3541 -0.3573
 2657poe    c2314601   2.125   3.199   3.884  0.8427  0.4040 -0.2331
 2657poe    c2314602   2.202   3.327   3.925  0.2395  0.5463  0.4770
 2657poe     o214603   2.313   3.263   3.982 -0.3244  0.0488  1.0309
 2657poe    c3114604   2.418   3.348   4.022  0.3137 -0.1794 -0.0992
 2658poe    c3114605   2.750   3.281   3.538 -0.4459 -0.1564  0.3800
 2658poe     o214606   2.815   3.157   3.553  0.3385  0.2314  0.2121
 2658poe    c2314607   2.723   3.051   3.564 -0.2167  0.7174  0.2920
 2658poe    c2314608   2.606   3.044   3.664 -0.2720  0.8266  0.2354
 2658poe     o214609   2.661   3.050   3.794 -0.0422 -0.0752  0.1899
 2658poe    c2314610   2.582   2.982   3.889  0.1912  0.1539  0.5507
 2658poe    c2314611   2.668   2.878   3.963  0.2034 -0.1406  0.1266
 2658poe     o214612   2.691   2.749   3.912  0.1653 -0.2619  0.4155
 2658poe    c2314613   2.787   2.750   3.808 -0.2600 -0.6077  0.0131
 2658poe    c2314614   2.860   2.624   3.759  0.2474 -0.5792  0.6766
 2658poe     o214615   2.784   2.520   3.700 -0.2482  0.0525  0.1800
 2658poe    c3114616   2.806   2.498   3.562  0.6656  0.1314  0.3073
 2659poe    c3114617   5.441   2.751   0.338  0.2218  0.2180  0.2213
 2659poe     o214618   5.521   2.737   0.453 -0.3017  0.4027  0.6153
 2659poe    c2314619   5.628   2.830   0.453  0.2783 -0.2490 -0.0090
 2659poe    c2314620   5.757   2.807   0.372  0.5565 -0.0348  0.3731
 2659poe     o214621   5.834   2.712   0.442  0.3127  0.1639  0.9120
 2659poe    c2314622   5.958   2.702   0.377 -0.5698  0.0185 -0.8000
 2659poe    c2314623   6.034   2.577   0.426 -0.8833  0.1307 -0.0171
 2659poe     o214624   5.954   2.464   0.399 -0.2139 -0.3565  0.0251
 2659poe    c2314625   6.020   2.354   0.458  0.0858  0.1402  0.6382
 2659poe    c2314626   5.951   2.224   0.411 -0.4138  0.7435 -0.3409
 2659poe     o214627   5.855   2.174   0.502  0.1380  0.1647 -0.0635
 2659poe    c3114628   5.812   2.045   0.467 -0.0263  0.2376 -0.1325
 2660poe    c3114629   0.805   4.584   5.323  0.0960  0.3344 -0.1981
 2660poe     o214630   0.946   4.585   5.316  0.0873  0.8398 -0.3517
 2660poe    c2314631   1.003   4.470   5.255  0.3126  0.5059  0.4768
 2660poe    c2314632   1.153   4.452   5.284  0.2891 -0.0307  0.2651
 2660poe     o214633   1.173   4.420   5.419  0.1803 -0.3873  0.1981
 2660poe    c2314634   1.311   4.401   5.442  0.4121  0.6062 -0.3192
 2660poe    c2314635   1.331   4.345   5.584 -0.0919  0.1278 -0.4336
 2660poe     o214636   1.268   4.221   5.607  0.0048  0.1095 -0.2650
 2660poe    c2314637   1.285   4.167   5.736 -0.4943 -0.1298 -0.2976
 2660poe    c2314638   1.235   4.027   5.776 -0.1262 -0.2399 -0.2229
 2660poe     o214639   1.102   4.002   5.735 -0.1791  0.2382 -0.3530
 2660poe    c3114640   1.062   3.872   5.772  0.0290  0.3487  0.2838
 2661poe    c3114641   1.109   0.038   6.312 -0.0929 -0.1338  0.0695
 2661poe     o214642   0.976   0.084   6.317  0.0334  0.2632 -0.1496
 2661poe    c2314643   0.966   0.224   6.304  0.4640  0.2318 -0.8045
 2661poe    c2314644   0.832   0.279   6.355  0.4437 -0.8005  0.2962
 2661poe     o214645   0.725   0.193   6.324  0.3277 -0.6472  0.2702
 2661poe    c2314646   0.607   0.264   6.356  0.5447 -0.4878  0.7243
 2661poe    c2314647   0.494   0.161   6.376 -0.2889  0.2064 -0.2808
 2661poe     o214648   0.523   0.079   6.487 -0.0536  0.3464 -0.2375
 2661poe    c2314649   0.418  -0.015   6.498  0.0879  0.2652  0.4570
 2661poe    c2314650   0.450  -0.125   6.600  0.4603  0.0677  0.1282
 2661poe     o214651   0.565  -0.191   6.550  0.7234  0.6682 -0.0609
 2661poe    c3114652   0.551  -0.331   6.554  0.2267  0.7173  0.0949
 2662poe    c3114653   5.274   4.559   1.981 -0.2465 -0.0627  0.1414
 2662poe     o214654   5.158   4.605   1.916  0.2482  0.4721 -0.3695
 2662poe    c2314655   5.109   4.534   1.804 -0.0641  0.6337 -0.3370
 2662poe    c2314656   4.987   4.454   1.855  0.2493  0.2458 -0.1918
 2662poe     o214657   4.874   4.533   1.880  0.1457 -0.0548  0.2955
 2662poe    c2314658   4.792   4.541   1.765  0.0130 -0.0349  0.3912
 2662poe    c2314659   4.701   4.428   1.714 -0.0495  0.1010  0.2012
 2662poe     o214660   4.596   4.403   1.806 -0.5338  0.0465 -0.3614
 2662poe    c2314661   4.615   4.269   1.846  0.4453  0.1024 -0.5956
 2662poe    c2314662   4.499   4.211   1.930  0.1667  0.7062 -0.5575
 2662poe     o214663   4.482   4.282   2.051  0.3812 -0.9487  0.4620
 2662poe    c3114664   4.382   4.214   2.124  0.5904 -1.1506  0.5621
 2663poe    c3114665   6.596   4.390   4.597 -0.4731  0.0264  0.4714
 2663poe     o214666   6.507   4.280   4.596 -0.1365 -0.2466  0.1608
 2663poe    c2314667   6.384   4.309   4.658 -0.1888 -0.7652  0.2991
 2663poe    c2314668   6.283   4.196   4.629 -0.4184 -0.5927  0.4209
 2663poe     o214669   6.355   4.081   4.668  0.2753 -0.4034 -0.2632
 2663poe    c2314670   6.263   3.975   4.679 -0.3556  0.1240 -0.3586
 2663poe    c2314671   6.344   3.852   4.724  0.4691  0.6941 -0.2597
 2663poe     o214672   6.456   3.839   4.639  0.2062 -0.4220 -0.4528
 2663poe    c2314673   6.506   3.708   4.626 -0.1257 -0.6525  0.4964
 2663poe    c2314674   6.655   3.715   4.587 -0.1881 -0.4878  0.2868
 2663poe     o214675   6.734   3.767   4.691 -0.0464 -0.1140 -0.0035
 2663poe    c3114676   6.790   3.666   4.772  0.6017 -0.1027 -0.4366
 2664poe    c3114677   4.155   4.371   7.025 -0.0110 -0.0775  0.5109
 2664poe     o214678   4.146   4.366   6.885  0.3499  0.5738  0.4606
 2664poe    c2314679   4.048   4.457   6.840  0.6238  0.5418 -0.2137
 2664poe    c2314680   3.998   4.411   6.701 -0.1328  0.3467  0.1168
 2664poe     o214681   3.953   4.278   6.713  0.3210  0.1864  0.0364
 2664poe    c2314682   3.844   4.241   6.632  0.1793  0.2954  0.1768
 2664poe    c2314683   3.777   4.109   6.674 -0.1236  0.5093  0.3673
 2664poe     o214684   3.677   4.095   6.772  0.0580 -1.0843  0.3528
 2664poe    c2314685   3.730   4.107   6.902  0.0608 -0.3752  0.2924
 2664poe    c2314686   3.620   4.102   7.010 -0.4685 -0.5713 -0.2520
 2664poe     o214687   3.518   4.197   6.989 -0.3282 -0.3606  0.0104
 2664poe    c3114688   3.441   4.219   7.105 -0.4612  0.5671 -0.2505
 2665poe    c3114689   3.557   2.132   3.385 -0.5002  0.1669  0.0663
 2665poe     o214690   3.469   2.145   3.276  0.3848 -0.4811 -0.7424
 2665poe    c2314691   3.410   2.272   3.291 -0.0137 -0.7656  0.1505
 2665poe    c2314692   3.272   2.272   3.222 -0.0535  0.0229  0.2145
 2665poe     o214693   3.295   2.248   3.085  0.1338  0.1684  0.2196
 2665poe    c2314694   3.173   2.248   3.014  0.2990  0.1306 -0.0638
 2665poe    c2314695   3.076   2.131   3.038  0.4222  0.1400  0.5003
 2665poe     o214696   3.132   2.010   2.991  0.2263  0.2099  0.0813
 2665poe    c2314697   3.040   1.905   3.003  0.6701 -0.0934  0.8726
 2665poe    c2314698   3.092   1.778   2.932 -0.5382 -0.0876 -0.0569
 2665poe     o214699   3.191   1.720   3.014  0.2163  0.3056 -0.6773
 2665poe    c3114700   3.233   1.598   2.958 -0.5770 -0.2477 -0.0996
 2666poe    c3114701   5.879   2.886   0.800 -0.1487  0.2424  0.0936
 2666poe     o214702   5.877   2.961   0.919 -0.2929 -0.2291  0.3906
 2666poe    c2314703   5.893   3.100   0.897 -0.1176 -0.3333 -0.1561
 2666poe    c2314704   5.789   3.182   0.819  0.0612  0.4172  0.3838
 2666poe     o214705   5.667   3.202   0.887 -0.0063  0.1510  0.3418
 2666poe    c2314706   5.569   3.234   0.791  0.3613  0.1265 -0.0436
 2666poe    c2314707   5.427   3.230   0.850  0.1135 -0.2104 -0.6539
 2666poe     o214708   5.405   3.348   0.925 -0.2635 -0.2905 -0.6350
 2666poe    c2314709   5.291   3.353   1.007  0.2616 -0.8844  0.1480
 2666poe    c2314710   5.327   3.425   1.139 -0.6245 -0.3692  0.1163
 2666poe     o214711   5.426   3.346   1.200 -0.1424 -0.2396 -0.4900
 2666poe    c3114712   5.396   3.349   1.338  0.4622  0.6264 -0.3705
 2667poe    c3114713   3.302   0.131   1.080  0.2256  0.1011  0.1300
 2667poe     o214714   3.246   0.025   1.005  0.2897 -0.2200  0.5319
 2667poe    c2314715   3.314   0.030   0.882  0.1903 -0.0524  0.4838
 2667poe    c2314716   3.292  -0.096   0.798 -0.4261 -0.1135  0.7337
 2667poe     o214717   3.374  -0.204   0.836 -0.2092 -0.1409  0.1970
 2667poe    c2314718   3.330  -0.312   0.757 -0.4766  0.0841  0.0399
 2667poe    c2314719   3.385  -0.440   0.822 -0.2570  0.0800 -0.1541
 2667poe     o214720   3.347  -0.458   0.956  0.7344  0.1015  0.1397
 2667poe    c2314721   3.401  -0.573   1.018  0.3806  0.1576  0.5597
 2667poe    c2314722   3.354  -0.590   1.164 -0.0215  0.2479  0.4426
 2667poe     o214723   3.366  -0.464   1.226 -0.2793  0.6061 -0.2191
 2667poe    c3114724   3.286  -0.444   1.341  0.3147 -0.7143  0.4480
 2668poe    c3114725   1.993   3.613   4.061 -0.1343  0.2981 -0.3531
 2668poe     o214726   1.939   3.655   3.937 -0.4819 -0.2858 -0.4014
 2668poe    c2314727   1.830   3.744   3.950 -0.0732  0.1372  0.1501
 2668poe    c2314728   1.772   3.782   3.813  0.2885  0.3248  0.0480
 2668poe     o214729   1.689   3.683   3.755  0.8095  0.2652 -0.6085
 2668poe    c2314730   1.574   3.737   3.695  0.3927 -0.7530 -0.7466
 2668poe    c2314731   1.485   3.632   3.625 -0.4859 -0.6406  0.1781
 2668poe     o214732   1.535   3.567   3.511 -0.0945 -0.1455  0.0634
 2668poe    c2314733   1.421   3.502   3.460 -0.2198 -0.2615  0.4891
 2668poe    c2314734   1.447   3.387   3.359 -0.9414  0.1397 -0.1626
 2668poe     o214735   1.534   3.417   3.253 -0.2535 -0.0435  0.3465
 2668poe    c3114736   1.563   3.307   3.170 -0.1657  0.0674  0.2301
 2669poe    c3114737   5.986   4.856   6.869 -0.3662 -0.1415 -0.3131
 2669poe     o214738   5.879   4.784   6.926 -0.2173 -0.3563 -0.3035
 2669poe    c2314739   5.887   4.643   6.915  0.6004 -0.3551  0.1306
 2669poe    c2314740   5.748   4.591   6.955  0.3000  0.1838 -0.1887
 2669poe     o214741   5.721   4.645   7.083  0.0313 -0.4727  0.0378
 2669poe    c2314742   5.608   4.589   7.148 -0.1633 -0.2270 -0.0881
 2669poe    c2314743   5.580   4.677   7.271 -0.3211 -0.3998 -0.0018
 2669poe     o214744   5.574   4.807   7.217 -0.2816 -0.4337 -0.0878
 2669poe    c2314745   5.543   4.889   7.327  0.6020 -0.0426 -0.1247
 2669poe    c2314746   5.488   5.026   7.282 -0.1276 -0.2004  0.2587
 2669poe     o214747   5.380   5.005   7.194 -0.0604 -0.0331  0.1359
 2669poe    c3114748   5.323   5.127   7.151  0.6822  0.4990  0.6197
 2670poe    c3114749   1.631   2.248   3.986  0.1494 -0.3503 -0.1799
 2670poe     o214750   1.695   2.210   4.106  0.2439 -0.3841 -0.2399
 2670poe    c2314751   1.808   2.289   4.134 -0.0679 -0.0702  0.1435
 2670poe    c2314752   1.886   2.206   4.238  0.5021  0.5433  0.2087
 2670poe     o214753   1.823   2.204   4.364 -0.0282 -0.1559 -0.0667
 2670poe    c2314754   1.890   2.116   4.452  0.0150  0.4501  0.5136
 2670poe    c2314755   1.785   2.047   4.541 -0.2595  0.1906 -0.0049
 2670poe     o214756   1.707   1.953   4.471  0.0398  0.1846 -0.3363
 2670poe    c2314757   1.602   1.882   4.534  0.4300 -0.2597 -0.1812
 2670poe    c2314758   1.526   1.785   4.442 -0.2541  0.1639 -0.0635
 2670poe     o214759   1.631   1.744   4.358  0.1899  0.1638  0.4863
 2670poe    c3114760   1.588   1.620   4.306 -0.1805  0.5620 -0.1688
 2671poe    c3114761   2.001   6.441   4.756  0.6436 -0.1985 -0.2254
 2671poe     o214762   1.952   6.312   4.783 -0.2906  0.2024  0.0049
 2671poe    c2314763   2.064   6.242   4.831 -0.2537 -0.0864 -0.4982
 2671poe    c2314764   2.020   6.101   4.875 -0.2045 -0.0662 -0.3820
 2671poe     o214765   1.921   6.107   4.974  0.3408  0.2738  0.1493
 2671poe    c2314766   1.901   5.986   5.044  0.3728  0.0445 -0.2355
 2671poe    c2314767   1.753   5.946   5.024  0.1906  0.2323  0.6971
 2671poe     o214768   1.666   6.054   5.049 -0.5504 -0.3244  0.5349
 2671poe    c2314769   1.528   6.025   5.059 -0.6610 -0.0581 -0.1668
 2671poe    c2314770   1.461   6.144   5.130 -0.1738  0.0413  0.1348
 2671poe     o214771   1.492   6.269   5.072 -0.3560 -0.0652 -0.1923
 2671poe    c3114772   1.413   6.369   5.133 -0.7819 -0.3357 -0.2933
 2672poe    c3114773   3.445   0.274   4.735  0.6807 -0.0294 -0.4613
 2672poe     o214774   3.319   0.330   4.763  0.4572 -0.5768 -0.3603
 2672poe    c2314775   3.261   0.355   4.637 -0.2650  0.0847  0.0972
 2672poe    c2314776   3.119   0.297   4.628 -0.1187 -0.2432 -0.0982
 2672poe     o214777   3.110   0.170   4.689 -0.1227 -0.2728 -0.1600
 2672poe    c2314778   2.973   0.141   4.709 -0.0988 -0.2219  0.0818
 2672poe    c2314779   2.940   0.005   4.772 -0.4358 -0.4048 -0.4839
 2672poe     o214780   2.997   0.014   4.901 -0.4482  0.2034 -0.5185
 2672poe    c2314781   2.978  -0.108   4.968 -0.8626  0.6613  0.2088
 2672poe    c2314782   3.021  -0.095   5.115  0.0532 -0.1299  0.0259
 2672poe     o214783   3.129  -0.004   5.111 -0.3381  0.3476  0.0953
 2672poe    c3114784   3.174   0.028   5.241 -0.3111  0.3405  0.0878
 2673poe    c3114785   4.324   4.951   5.217 -0.0983 -0.0760  0.1068
 2673poe     o214786   4.412   4.992   5.320  0.2471  0.1082 -0.2575
 2673poe    c2314787   4.335   5.072   5.406  0.6040  0.1201  0.0515
 2673poe    c2314788   4.397   5.213   5.397  0.1609  0.3270  0.1744
 2673poe     o214789   4.505   5.226   5.487 -0.0267  0.0650  0.4400
 2673poe    c2314790   4.581   5.343   5.469  0.2417 -0.2078 -0.2728
 2673poe    c2314791   4.683   5.341   5.354  0.5383  0.1976 -0.0195
 2673poe     o214792   4.798   5.260   5.369  0.6274  0.3538  0.1535
 2673poe    c2314793   4.849   5.205   5.250  0.2598  0.0702  0.1238
 2673poe    c2314794   4.992   5.147   5.252  0.3154  0.2140  0.4454
 2673poe     o214795   5.026   5.031   5.324 -0.4540 -0.2246  0.1153
 2673poe    c3114796   5.157   4.991   5.291 -0.3652 -0.2647  0.5141
 2674poe    c3114797   5.681   2.972   2.800 -0.1908 -0.4104 -0.3641
 2674poe     o214798   5.624   3.095   2.838  0.0417 -0.4545  0.1414
 2674poe    c2314799   5.553   3.149   2.729  0.0868 -0.4930  0.0927
 2674poe    c2314800   5.501   3.293   2.748  0.1010 -0.4605 -0.1090
 2674poe     o214801   5.406   3.297   2.852 -0.2162 -0.6194 -0.3911
 2674poe    c2314802   5.367   3.429   2.884  0.2515 -0.5597 -0.0560
 2674poe    c2314803   5.250   3.437   2.984  0.6828  0.0226  0.4114
 2674poe     o214804   5.279   3.404   3.118  0.5156  0.7116  0.6187
 2674poe    c2314805   5.161   3.434   3.188 -0.3477 -0.9449 -0.0721
 2674poe    c2314806   5.190   3.423   3.339 -0.1548  0.0395 -0.0303
 2674poe     o214807   5.251   3.543   3.382  0.1172  0.0815 -0.5304
 2674poe    c3114808   5.297   3.541   3.515  0.6390  0.4428 -0.7048
 2675poe    c3114809   0.209   4.425   1.882  0.4302 -0.0184 -0.3094
 2675poe     o214810   0.117   4.520   1.835 -0.1540 -0.2431  0.3588
 2675poe    c2314811   0.175   4.639   1.884 -0.0278 -0.0931 -0.1424
 2675poe    c2314812   0.065   4.747   1.881 -0.0027 -0.0578  0.1648
 2675poe     o214813   0.003   4.742   1.755 -0.1068  0.2729  0.2031
 2675poe    c2314814  -0.098   4.841   1.752 -0.2197  0.1461 -0.3001
 2675poe    c2314815  -0.159   4.861   1.612 -0.0050 -0.3177 -0.4620
 2675poe     o214816  -0.222   4.745   1.562  0.0498 -0.4831 -0.1481
 2675poe    c2314817  -0.262   4.770   1.430  0.0722  0.2513 -0.0192
 2675poe    c2314818  -0.300   4.645   1.349  0.0014  0.0417  0.3387
 2675poe     o214819  -0.201   4.545   1.344  0.1297  0.1472  0.7501
 2675poe    c3114820  -0.256   4.431   1.281 -0.3733  0.4387  0.6544
 2676poe    c3114821   3.909   2.288   1.071  0.0093  0.0737 -0.4478
 2676poe     o214822   3.880   2.426   1.058 -0.5348  0.0024 -0.0114
 2676poe    c2314823   3.836   2.464   0.930 -0.4431 -0.1848 -0.0988
 2676poe    c2314824   3.843   2.617   0.911 -0.1462 -0.2039 -0.1538
 2676poe     o214825   3.755   2.682   1.000 -0.6601  0.3789 -1.0755
 2676poe    c2314826   3.753   2.823   0.996  0.1104  0.4815  0.8543
 2676poe    c2314827   3.883   2.881   1.056  0.8093 -0.0005 -0.1692
 2676poe     o214828   3.888   2.816   1.181  0.0102  0.3086  0.0302
 2676poe    c2314829   3.989   2.872   1.261  0.3982 -0.4703  0.0983
 2676poe    c2314830   3.940   2.996   1.339  0.0609 -0.4110 -0.2054
 2676poe     o214831   3.831   2.969   1.424 -0.0318 -0.3700 -0.3101
 2676poe    c3114832   3.758   3.087   1.450  0.0760 -0.4527  0.3976
 2677poe    c3114833   7.071   5.285   6.726 -0.1187 -0.1847  0.2230
 2677poe     o214834   7.120   5.263   6.856 -0.1330  0.4651  0.3362
 2677poe    c2314835   7.112   5.383   6.930 -0.3772  0.6705 -0.0221
 2677poe    c2314836   7.239   5.390   7.017 -0.4577 -0.0808  0.1636
 2677poe     o214837   7.349   5.429   6.937 -0.2162 -0.5433  0.2705
 2677poe    c2314838   7.470   5.402   7.004  0.5744  0.1904 -0.8408
 2677poe    c2314839   7.595   5.466   6.940  0.6156  0.8311 -0.1304
 2677poe     o214840   7.604   5.439   6.802  0.4928  0.1288 -0.0052
 2677poe    c2314841   7.719   5.500   6.747  0.1842  0.3865 -0.3638
 2677poe    c2314842   7.721   5.454   6.600  0.7297  0.1230 -0.2753
 2677poe     o214843   7.600   5.461   6.528  0.4609 -0.0075  0.1628
 2677poe    c3114844   7.636   5.459   6.392  0.6598 -0.0185  0.2165
 2678poe    c3114845   0.153   4.016   3.421 -0.0403 -0.3931 -0.5525
 2678poe     o214846   0.032   4.074   3.377  0.0436  0.0239 -0.2368
 2678poe    c2314847  -0.066   3.994   3.439 -0.2751  0.5099 -0.1016
 2678poe    c2314848  -0.191   4.081   3.454 -0.7918 -0.3140  0.4521
 2678poe     o214849  -0.211   4.130   3.323  0.0777 -0.3897  0.2850
 2678poe    c2314850  -0.311   4.229   3.310  0.2136 -0.2866  0.0364
 2678poe    c2314851  -0.295   4.281   3.165 -0.3240  0.0664  0.1027
 2678poe     o214852  -0.156   4.304   3.163 -0.3376  0.1141 -0.2915
 2678poe    c2314853  -0.100   4.345   3.040  0.1378  0.0885 -0.0827
 2678poe    c2314854   0.052   4.343   3.067 -0.0482 -0.3730  1.0032
 2678poe     o214855   0.090   4.224   3.131  0.4850 -0.7342  0.0365
 2678poe    c3114856   0.231   4.214   3.130  0.5277 -0.2229  0.5852
 2679poe    c3114857   2.748   4.369   3.693  0.0518 -0.4341  0.0127
 2679poe     o214858   2.661   4.360   3.804 -0.2427 -0.0576 -0.1881
 2679poe    c2314859   2.521   4.363   3.783 -0.2315 -0.0863 -0.2672
 2679poe    c2314860   2.455   4.501   3.800 -0.5546 -0.2874  0.1000
 2679poe     o214861   2.460   4.541   3.935 -0.2585 -0.3850  0.1185
 2679poe    c2314862   2.342   4.615   3.960 -0.1703 -0.4554  0.7627
 2679poe    c2314863   2.351   4.730   4.062  0.0218  0.2459 -0.0389
 2679poe     o214864   2.241   4.814   4.091 -0.3411 -0.2653  0.0760
 2679poe    c2314865   2.197   4.783   4.221  0.5490 -0.3259  0.3703
 2679poe    c2314866   2.083   4.873   4.273  0.6337 -0.1104  0.1822
 2679poe     o214867   2.115   5.010   4.289  0.2511  0.0844 -0.6556
 2679poe    c3114868   2.188   5.040   4.405 -0.1638  0.1798 -0.4183
 2680poe    c3114869   0.672   0.282   5.068 -0.3606 -0.3129  0.2622
 2680poe     o214870   0.607   0.321   5.187 -0.1816  0.1946  0.1976
 2680poe    c2314871   0.471   0.285   5.198 -0.1222  0.0641  0.5232
 2680poe    c2314872   0.388   0.394   5.267 -0.6638 -0.1790  0.2614
 2680poe     o214873   0.378   0.513   5.192  0.5399 -0.1448  0.1369
 2680poe    c2314874   0.276   0.597   5.242  0.7176  0.3844 -0.3777
 2680poe    c2314875   0.300   0.738   5.185 -0.1687  0.5710 -0.2980
 2680poe     o214876   0.372   0.823   5.272 -0.2225  0.0655  0.2442
 2680poe    c2314877   0.384   0.953   5.219  0.3298 -0.0714  0.0222
 2680poe    c2314878   0.444   1.035   5.334  0.6469 -0.5011  0.1655
 2680poe     o214879   0.495   0.952   5.435  0.1020 -0.1122  0.7657
 2680poe    c3114880   0.584   1.034   5.508  0.3002 -0.3314  0.7731
 2681poe    c3114881   1.629   1.052   5.564  0.3923  0.3135 -0.0395
 2681poe     o214882   1.706   0.934   5.572  0.4019  0.3168 -0.0847
 2681poe    c2314883   1.629   0.822   5.532  0.8921  0.0105 -0.1781
 2681poe    c2314884   1.705   0.692   5.563  0.4941 -0.2532 -0.3012
 2681poe     o214885   1.841   0.722   5.537  0.4979 -0.3946 -0.4439
 2681poe    c2314886   1.925   0.609   5.532  0.1216 -0.6954 -0.0985
 2681poe    c2314887   1.985   0.588   5.673  0.0731  0.1426  0.0547
 2681poe     o214888   2.050   0.709   5.704 -0.0035  0.2670 -0.2711
 2681poe    c2314889   2.164   0.693   5.785  0.2333 -0.0838 -0.6692
 2681poe    c2314890   2.201   0.838   5.822  0.1357 -0.2715  0.1846
 2681poe     o214891   2.098   0.893   5.902  0.4560 -0.3550  0.6585
 2681poe    c3114892   2.120   1.012   5.975  0.5112  0.1536 -0.1705
 2682poe    c3114893   5.250   0.658   4.084  0.4743  0.5296  0.1985
 2682poe     o214894   5.240   0.693   3.948 -0.5205  0.1799  0.1731
 2682poe    c2314895   5.310   0.594   3.875 -0.5338 -0.2083  0.6833
 2682poe    c2314896   5.282   0.601   3.724  0.4940 -0.1586  0.4900
 2682poe     o214897   5.148   0.591   3.681  0.3523 -0.0202  0.8995
 2682poe    c2314898   5.059   0.688   3.733 -0.1440  0.1628 -0.2778
 2682poe    c2314899   4.912   0.648   3.712 -0.0110 -0.7595  0.5168
 2682poe     o214900   4.874   0.653   3.577 -0.1802  0.3082  0.5978
 2682poe    c2314901   4.742   0.603   3.567  0.2162 -0.5580 -0.6114
 2682poe    c2314902   4.702   0.605   3.418  0.1866 -0.1632 -0.6011
 2682poe     o214903   4.764   0.714   3.354  0.3681  0.0356 -0.0895
 2682poe    c3114904   4.751   0.712   3.214  0.2971 -0.3436 -0.0775
 2683poe    c3114905   0.284   5.100   2.956 -0.1341 -0.1739  0.0682
 2683poe     o214906   0.272   5.061   3.090 -0.0937  0.1062  0.1543
 2683poe    c2314907   0.378   5.093   3.177 -0.4290 -0.3064  0.7263
 2683poe    c2314908   0.400   5.243   3.205  0.7051 -0.5370  1.1417
 2683poe     o214909   0.286   5.318   3.242  0.6166  0.1275 -0.4138
 2683poe    c2314910   0.313   5.457   3.246  0.0504  0.2430 -0.5429
 2683poe    c2314911   0.183   5.535   3.274 -0.2342 -0.4819  0.1935
 2683poe     o214912   0.130   5.531   3.405 -0.3273  0.0126  0.1718
 2683poe    c2314913   0.004   5.592   3.418 -0.2422  0.1555  0.3197
 2683poe    c2314914  -0.042   5.614   3.564  0.2273  0.7577  0.3804
 2683poe     o214915  -0.065   5.486   3.618 -0.7370  0.7244 -0.0945
 2683poe    c3114916  -0.090   5.509   3.755  0.5001  0.4385  0.1858
 2684poe    c3114917   3.384   2.563   4.037 -0.0915 -0.0496 -0.0174
 2684poe     o214918   3.341   2.477   3.934  0.0017 -0.1370  0.0165
 2684poe    c2314919   3.315   2.538   3.810  0.0844 -0.4851 -0.1750
 2684poe    c2314920   3.298   2.426   3.706  0.2868  0.1024 -0.8523
 2684poe     o214921   3.212   2.335   3.772  0.5884  0.2970 -0.1924
 2684poe    c2314922   3.141   2.252   3.684  0.0042  0.4944  0.0902
 2684poe    c2314923   3.027   2.187   3.764  0.0432  0.4454  0.1060
 2684poe     o214924   3.078   2.158   3.893  0.5899 -0.2512 -0.2616
 2684poe    c2314925   2.968   2.113   3.969  0.3224  0.6704 -0.0824
 2684poe    c2314926   2.984   2.085   4.120  0.2097  0.4536 -0.1101
 2684poe     o214927   3.033   2.204   4.177  0.3522  0.3303  0.0226
 2684poe    c3114928   3.096   2.169   4.298  0.3228  0.1646 -0.0102
 2685poe    c3114929   1.828   6.759   3.908  0.6048 -0.7480 -0.3911
 2685poe     o214930   1.867   6.685   4.022  0.2376  0.0483  0.2595
 2685poe    c2314931   1.871   6.759   4.142  0.2033  0.3472  0.0781
 2685poe    c2314932   1.972   6.875   4.145  0.0164  0.5161 -0.1027
 2685poe     o214933   2.108   6.841   4.157 -0.1530 -0.0729  0.1699
 2685poe    c2314934   2.191   6.924   4.079 -0.4334  0.1942  0.1561
 2685poe    c2314935   2.341   6.924   4.115 -0.3856 -0.2539 -0.0316
 2685poe     o214936   2.413   6.811   4.072 -0.0984 -0.2800  0.5050
 2685poe    c2314937   2.547   6.815   4.116  0.0645 -0.8006  0.0628
 2685poe    c2314938   2.614   6.685   4.067  0.9771 -0.3375  0.0733
 2685poe     o214939   2.592   6.572   4.148  0.3781 -0.6222 -0.4816
 2685poe    c3114940   2.682   6.469   4.112  1.1719  0.0393 -0.4194
 2686poe    c3114941   5.665   3.613   2.097  0.4826  0.1462  0.5125
 2686poe     o214942   5.727   3.701   2.189  0.6340  0.2451  0.3162
 2686poe    c2314943   5.774   3.812   2.117  0.6364  0.1560  0.1796
 2686poe    c2314944   5.830   3.913   2.219  0.2893  0.2731  0.2531
 2686poe     o214945   5.902   3.835   2.312 -0.3252 -0.4450  0.1416
 2686poe    c2314946   5.977   3.909   2.406 -0.6219 -0.6725  0.5554
 2686poe    c2314947   6.059   3.830   2.510  0.1250  0.0797  0.5462
 2686poe     o214948   5.971   3.748   2.584  0.0777  0.2257  0.6520
 2686poe    c2314949   6.036   3.674   2.686  0.1233 -0.6335  0.0130
 2686poe    c2314950   5.923   3.586   2.744  0.0599 -0.2597  0.4611
 2686poe     o214951   5.841   3.521   2.650  0.1231 -0.1313  0.3138
 2686poe    c3114952   5.899   3.403   2.598  0.2192  0.1241 -0.1567
 2687poe    c3114953   0.611   6.212   5.937  0.2650 -0.4938  0.3440
 2687poe     o214954   0.733   6.281   5.916  0.0575  0.0478  0.9017
 2687poe    c2314955   0.770   6.369   6.020 -0.6296  0.5956  0.6919
 2687poe    c2314956   0.867   6.486   5.995 -0.1719  0.0344 -0.2022
 2687poe     o214957   0.983   6.438   5.930 -0.0278 -0.3197  0.3144
 2687poe    c2314958   1.074   6.542   5.901 -1.1845  0.7394  0.4129
 2687poe    c2314959   1.208   6.475   5.870 -1.3134  0.5566  0.2474
 2687poe     o214960   1.189   6.375   5.772 -0.2212 -0.1828  0.7620
 2687poe    c2314961   1.314   6.335   5.722 -0.3039 -0.7152  0.9735
 2687poe    c2314962   1.293   6.219   5.623  0.2134 -0.2851  0.3455
 2687poe     o214963   1.171   6.241   5.555  0.6165 -0.0372 -0.2985
 2687poe    c3114964   1.140   6.141   5.461  0.3990 -0.0349 -0.2272
 2688poe    c3114965   1.216   4.270   4.468  0.1434  0.1169 -0.0433
 2688poe     o214966   1.279   4.167   4.540 -0.2400  0.1415  0.3295
 2688poe    c2314967   1.293   4.043   4.474  0.7790  0.3106  0.2095
 2688poe    c2314968   1.413   3.960   4.523  0.6802 -0.0184 -0.1054
 2688poe     o214969   1.396   3.913   4.655  0.1208 -0.1175 -0.2065
 2688poe    c2314970   1.315   3.798   4.658 -0.3143  0.2033  0.5486
 2688poe    c2314971   1.313   3.746   4.803  0.6181 -0.2225  0.4158
 2688poe     o214972   1.279   3.852   4.889  0.3092 -0.1217  0.1685
 2688poe    c2314973   1.266   3.821   5.026  0.4296  0.0436  0.2175
 2688poe    c2314974   1.281   3.954   5.102 -0.0889  0.3050 -0.1382
 2688poe     o214975   1.380   4.029   5.036 -0.2593  0.1529 -0.5709
 2688poe    c3114976   1.418   4.138   5.117 -0.2422  0.2551 -0.7175
 2689poe    c3114977   1.312   5.601   5.764  0.5418 -0.6946  0.0326
 2689poe     o214978   1.407   5.611   5.661  0.3524  0.4221 -0.0458
 2689poe    c2314979   1.354   5.668   5.543  0.3382  0.4778 -0.0130
 2689poe    c2314980   1.445   5.628   5.425  0.0067 -0.3518  0.0048
 2689poe     o214981   1.580   5.671   5.417 -0.2480  0.4410 -0.1701
 2689poe    c2314982   1.585   5.808   5.386  0.0780  0.2626 -0.9251
 2689poe    c2314983   1.718   5.885   5.376  0.2791  0.0029 -0.3056
 2689poe     o214984   1.704   6.023   5.400  0.2090 -0.1578  0.6414
 2689poe    c2314985   1.823   6.097   5.381 -0.0307  0.2476  0.7120
 2689poe    c2314986   1.801   6.237   5.441 -0.3189  0.4881  0.0528
 2689poe     o214987   1.721   6.313   5.352  0.3553  0.9683 -0.1569
 2689poe    c3114988   1.630   6.378   5.438 -0.1859 -0.0008  0.0192
 2690poe    c3114989   1.513   4.500   6.595 -0.1163 -0.0131  0.0221
 2690poe     o214990   1.571   4.626   6.571 -0.4938  0.1011 -0.3044
 2690poe    c2314991   1.589   4.711   6.682 -0.2346  0.2337 -0.4437
 2690poe    c2314992   1.670   4.836   6.646  0.3770  0.0622  0.3024
 2690poe     o214993   1.618   4.862   6.517  0.2809 -0.0241  0.3235
 2690poe    c2314994   1.664   4.988   6.476 -0.8019  0.3076  0.1137
 2690poe    c2314995   1.637   5.010   6.326 -0.1632 -0.2663 -0.0918
 2690poe     o214996   1.502   4.979   6.299 -0.0500 -0.6665 -0.2011
 2690poe    c2314997   1.486   4.978   6.159 -0.0409 -0.4496 -0.2043
 2690poe    c2314998   1.339   4.945   6.126 -0.0910 -0.1515 -0.2758
 2690poe     o214999   1.297   4.814   6.157 -0.4521  0.1649  0.6206
 2690poe    c3115000   1.177   4.781   6.091  0.1271 -0.5621 -0.0840
 2691poe    c3115001   0.801   1.477   3.776  0.4873  0.6330  0.2304
 2691poe     o215002   0.937   1.460   3.741  0.2041 -0.0078 -0.5977
 2691poe    c2315003   1.011   1.550   3.821 -0.6696  0.4401 -0.2822
 2691poe    c2315004   1.151   1.536   3.759 -0.4374 -0.3634  0.4140
 2691poe     o215005   1.140   1.541   3.618  0.5873  0.2148  0.3464
 2691poe    c2315006   1.259   1.575   3.551  0.3763  0.3867  0.0550
 2691poe    c2315007   1.232   1.594   3.401 -0.2039 -0.3398  0.0625
 2691poe     o215008   1.130   1.500   3.376 -0.4739 -0.0616  0.1108
 2691poe    c2315009   1.095   1.473   3.241 -0.3712 -0.1980  0.1110
 2691poe    c2315010   1.131   1.329   3.201  0.0699 -0.0327 -0.0950
 2691poe     o215011   1.265   1.295   3.229  0.2126  0.3035 -0.3720
 2691poe    c3115012   1.284   1.164   3.181 -0.4407  0.1344 -0.1809
 2692poe    c3115013   7.153   3.835   1.873  0.0708 -0.2586  0.2976
 2692poe     o215014   7.117   3.905   1.990 -0.0676 -0.1584  0.1949
 2692poe    c2315015   7.179   4.031   1.987 -0.4903  0.0460 -0.0522
 2692poe    c2315016   7.097   4.121   2.082 -0.2895  0.3333 -0.1509
 2692poe     o215017   7.092   4.070   2.213  0.0916  0.1205 -0.2164
 2692poe    c2315018   6.991   4.129   2.293  0.0333 -0.4409  0.1262
 2692poe    c2315019   7.068   4.185   2.414 -0.2625  0.2266  0.0077
 2692poe     o215020   7.079   4.080   2.506  0.3936 -0.0564 -0.3781
 2692poe    c2315021   7.146   4.118   2.624  0.5053 -0.2279 -0.3867
 2692poe    c2315022   7.156   4.005   2.729  0.2394  0.5864  0.5248
 2692poe     o215023   7.032   3.986   2.793 -0.0547 -0.4181 -0.3248
 2692poe    c3115024   7.049   3.964   2.931 -0.5379  0.2746 -0.1524
 2693poe    c3115025   4.477   1.813   6.049  0.1361  0.4932  0.5432
 2693poe     o215026   4.383   1.848   5.949  0.3944 -0.3362 -0.0022
 2693poe    c2315027   4.277   1.755   5.963 -0.4004  0.5762  0.1254
 2693poe    c2315028   4.142   1.806   5.909 -0.4354  0.1768 -0.1654
 2693poe     o215029   4.152   1.802   5.768 -0.1669 -0.5441 -0.1309
 2693poe    c2315030   4.032   1.846   5.710 -0.0216 -0.2936 -0.2441
 2693poe    c2315031   4.012   1.775   5.574 -0.7882  0.4882 -0.5490
 2693poe     o215032   4.116   1.809   5.486  0.2222  0.0834  0.4596
 2693poe    c2315033   4.099   1.762   5.354  0.1695  0.2090  0.4213
 2693poe    c2315034   4.224   1.779   5.265 -0.0428  0.1519  0.1089
 2693poe     o215035   4.329   1.699   5.315  0.2432  0.5799  0.1992
 2693poe    c3115036   4.450   1.756   5.272  0.5789 -0.3129 -0.0662
 2694poe    c3115037   1.484   2.150   2.127 -0.0528  0.0289 -0.1319
 2694poe     o215038   1.517   2.051   2.031  0.3365  0.2653 -0.2448
 2694poe    c2315039   1.658   2.044   2.029  0.3353  0.1831 -0.0607
 2694poe    c2315040   1.700   1.906   1.974  0.5193 -0.3574  1.3891
 2694poe     o215041   1.599   1.816   2.013 -0.0733 -0.2026  0.2561
 2694poe    c2315042   1.622   1.685   1.964 -0.1442 -0.2092  0.2400
 2694poe    c2315043   1.505   1.591   1.997 -0.0142 -0.4520  0.0057
 2694poe     o215044   1.396   1.669   1.954  0.4309  0.2769  0.1872
 2694poe    c2315045   1.273   1.601   1.959  0.5410  0.0266 -0.4174
 2694poe    c2315046   1.214   1.544   1.828  0.3730 -0.3616 -0.1758
 2694poe     o215047   1.164   1.645   1.744 -0.1477  0.2456  0.8484
 2694poe    c3115048   1.141   1.574   1.625  0.4212  0.2707  0.7227
 2695poe    c3115049   6.381   2.158   3.914 -0.4981  0.7647 -0.8386
 2695poe     o215050   6.278   2.068   3.946  0.0573  0.2033 -0.6140
 2695poe    c2315051   6.286   1.962   3.854  0.2856 -0.1356 -0.2101
 2695poe    c2315052   6.183   1.854   3.895  0.2512  0.2193  0.6454
 2695poe     o215053   6.051   1.895   3.919  0.2248  0.3761  0.2403
 2695poe    c2315054   5.971   1.781   3.939 -0.0261  0.4923 -0.0933
 2695poe    c2315055   5.827   1.832   3.962 -0.2277 -0.3534  0.5748
 2695poe     o215056   5.828   1.949   4.041 -0.5241 -0.0887  0.1901
 2695poe    c2315057   5.695   1.986   4.064 -0.4459  0.9382 -0.9174
 2695poe    c2315058   5.710   2.091   4.175 -0.0357 -0.1076  0.0276
 2695poe     o215059   5.821   2.167   4.132 -0.2235  0.2750  0.2152
 2695poe    c3115060   5.871   2.261   4.225 -0.2892  0.5388 -0.0149
 2696poe    c3115061   0.059   4.385   0.424 -0.1517  0.1007  0.3036
 2696poe     o215062   0.169   4.465   0.388 -0.1484  0.1767  0.4833
 2696poe    c2315063   0.243   4.509   0.499  0.3658 -0.4690  0.4077
 2696poe    c2315064   0.396   4.500   0.487  0.4069  0.2398  0.3368
 2696poe     o215065   0.458   4.587   0.395 -0.2292 -0.1952 -0.5145
 2696poe    c2315066   0.597   4.581   0.412 -0.2623  0.5395  0.0776
 2696poe    c2315067   0.703   4.669   0.342  0.6687 -0.6799 -0.0766
 2696poe     o215068   0.725   4.672   0.203  0.5870  0.3888 -0.0704
 2696poe    c2315069   0.860   4.642   0.174  0.4285 -0.1400 -0.2824
 2696poe    c2315070   0.885   4.645   0.022 -0.0752 -0.1936 -0.3692
 2696poe     o215071   0.822   4.754  -0.041 -0.3737 -0.0267  0.2116
 2696poe    c3115072   0.872   4.767  -0.172  0.6411 -0.1164  0.5811
 2697poe    c3115073   3.957   5.863   0.191  0.4944  0.1095  0.4145
 2697poe     o215074   3.978   5.748   0.112 -0.5865  0.2588 -0.1067
 2697poe    c2315075   3.862   5.707   0.043 -0.4776 -0.5573  0.1810
 2697poe    c2315076   3.908   5.617  -0.072  0.1918  0.6882 -0.5486
 2697poe     o215077   3.981   5.506  -0.025 -1.0905  0.2435  0.4511
 2697poe    c2315078   4.015   5.410  -0.123  0.4081  0.5823  0.6102
 2697poe    c2315079   4.069   5.281  -0.060  0.5417  0.2169 -0.2343
 2697poe     o215080   4.195   5.315  -0.005  0.2661  0.1040  0.4812
 2697poe    c2315081   4.253   5.203   0.058  0.4212 -0.2806 -0.3268
 2697poe    c2315082   4.313   5.229   0.198 -0.3506  0.1669 -0.0724
 2697poe     o215083   4.228   5.273   0.301  0.1564  0.1387  0.3598
 2697poe    c3115084   4.287   5.255   0.428 -0.1467  0.4906  0.5542
 2698poe    c3115085   7.007   0.562   2.263  0.2206  0.1011 -0.4818
 2698poe     o215086   6.988   0.531   2.127 -0.2977  0.1264 -0.4164
 2698poe    c2315087   6.986   0.390   2.116  0.0792  0.0964 -0.1253
 2698poe    c2315088   6.909   0.371   1.984 -0.2331  0.6308 -0.0237
 2698poe     o215089   6.966   0.452   1.883  0.0002  0.3563 -0.1140
 2698poe    c2315090   6.911   0.426   1.756  0.0976 -0.1755 -0.0475
 2698poe    c2315091   6.990   0.522   1.665  0.2562 -0.0981  0.1723
 2698poe     o215092   6.995   0.656   1.709  0.2609 -0.0408 -0.0045
 2698poe    c2315093   7.056   0.750   1.624 -0.7224  0.2028 -0.4564
 2698poe    c2315094   7.097   0.879   1.697  0.8040 -0.1284 -0.6872
 2698poe     o215095   7.209   0.859   1.780  0.0732 -0.2022  0.3138
 2698poe    c3115096   7.291   0.974   1.789  0.5035 -0.5048  0.3339
 2699poe    c3115097   1.959   4.016   4.356  0.2082  0.6396  0.2497
 2699poe     o215098   2.091   4.063   4.344  0.6454 -0.6831 -0.3402
 2699poe    c2315099   2.133   4.071   4.209  0.3221  0.4192 -0.3899
 2699poe    c2315100   2.273   4.134   4.201  0.1662  0.8619  0.2315
 2699poe     o215101   2.370   4.072   4.283 -0.4334  0.0213  0.3236
 2699poe    c2315102   2.501   4.116   4.253 -0.6253  0.3940  0.0161
 2699poe    c2315103   2.585   4.093   4.380 -0.2393 -0.2411 -0.3517
 2699poe     o215104   2.553   3.969   4.438  0.3046 -0.1158  0.2205
 2699poe    c2315105   2.650   3.896   4.510  0.6970  0.5853  0.4169
 2699poe    c2315106   2.590   3.795   4.611 -0.3484  0.0089 -0.7535
 2699poe     o215107   2.533   3.693   4.532 -0.1076 -0.2899 -0.5443
 2699poe    c3115108   2.484   3.585   4.608 -0.2004  0.1781  0.0669
 2700poe    c3115109   6.600   3.232   4.021  0.0678  0.1157  0.3322
 2700poe     o215110   6.594   3.108   3.953  0.3664  0.2201  0.1162
 2700poe    c2315111   6.504   3.040   4.037  0.5010 -0.3200 -0.1758
 2700poe    c2315112   6.454   2.919   3.955 -0.7956  0.0690  0.0235
 2700poe     o215113   6.568   2.837   3.943 -0.5848  0.1700  1.2197
 2700poe    c2315114   6.521   2.709   3.909 -0.2145  0.1516  0.7559
 2700poe    c2315115   6.638   2.612   3.883 -0.7051 -0.1621 -0.3395
 2700poe     o215116   6.717   2.649   3.772 -0.0318  0.2168  0.2581
 2700poe    c2315117   6.849   2.602   3.792 -0.0563  0.1435  0.2505
 2700poe    c2315118   6.957   2.649   3.693  0.2193 -0.3103  0.3333
 2700poe     o215119   6.934   2.595   3.565  0.7331 -0.2067  0.1952
 2700poe    c3115120   7.015   2.661   3.470  0.1717  0.5979  0.2695
 2701lim     li15121   2.366   1.519   2.510 -0.6437  0.2873 -0.5315
 2702lim     li15122   0.023   6.773   3.696 -0.5986 -0.0499  0.5378
 2703lim     li15123   0.684   2.871   3.033 -0.3589  1.1918 -0.0655
 2704lim     li15124   6.887   6.867   5.238  0.2510 -0.1921  0.6093
 2705lim     li15125   4.756   3.945   5.519  1.1357 -1.4850  0.7300
 2706lim     li15126   6.918   0.736   3.531 -0.3092 -0.6196  0.7862
 2707lim     li15127   1.780   5.550   5.873  0.3437  0.6387 -0.4988
 2708lim     li15128   3.979   0.895   7.120  0.0466 -0.3664  0.2158
 2709lim     li15129   2.668   3.055   2.034 -0.9514  0.5410 -1.7312
 2710lim     li15130   3.015   3.228   3.090 -1.9966  1.4051 -0.4742
 2711lim     li15131   3.461   1.006   5.508  0.1648  0.0875 -0.0533
 2712lim     li15132   4.104   6.380   1.655  0.1516 -0.1386  0.3813
 2713lim     li15133   0.727   1.904   5.608  0.1325 -1.0490 -0.2675
 2714lim     li15134   5.634   4.399   5.978  1.0119 -1.0031  0.1063
 2715lim     li15135   3.580   0.957   2.777  0.0011 -0.8952  0.0552
 2716lim     li15136   4.248   4.785   1.329 -0.4210 -0.2837 -0.2192
 2717lim     li15137   2.061   1.708   5.399 -0.1838 -1.1912  0.5523
 2718lim     li15138   7.033   0.235   3.313 -1.3305  0.0253  0.6679
 2719lim     li15139   3.369   0.829   2.070 -0.0657  0.4206 -0.4396
 2720lim     li15140   2.668   4.217   1.867  0.7828 -0.1465  0.8371
 2721lim     li15141   0.451   6.233   0.118 -1.5564  0.9222  0.7681
 2722lim     li15142   0.561   5.746   5.418  0.1704 -0.6162  0.9021
 2723lim     li15143   5.174   3.228   7.037 -0.2456 -0.1164 -0.4578
 2724lim     li15144   1.064   1.062   2.745 -0.4722  0.0341 -0.9288
 2725lim     li15145   5.949   6.820   2.393  0.6798  0.4018  0.0817
 2726lim     li15146   0.055   2.900   4.991  0.5782 -0.7830 -0.1654
 2727lim     li15147   3.517   1.161   3.766 -0.5745  0.5712 -0.1757
 2728lim     li15148   1.617   4.071   3.250 -0.1284  0.0424  1.2435
 2729lim     li15149   6.517   4.038   4.610  0.2023 -0.2986 -0.2029
 2730lim     li15150   2.632   2.585   4.961  0.3961 -0.4617  0.2114
 2731lim     li15151   1.350   1.259   4.760  0.5608 -0.6231  0.3835
 2732lim     li15152   1.665   4.664   1.533 -0.0987 -0.1529 -0.7129
 2733lim     li15153   4.780   1.775   2.877  0.0763 -1.6794  0.7718
 2734lim     li15154   2.054   0.052   5.048  0.1043  0.2712  0.2969
 2735lim     li15155   4.943   3.438   5.333  0.3516  1.1849  0.6306
 2736lim     li15156   1.507   2.399   5.080 -0.8623 -0.7834  0.1689
 2737lim     li15157   6.495   2.866   7.086  0.4966 -0.3267 -0.0635
 2738lim     li15158   4.262   0.557   4.617  0.4683 -0.6605 -0.1696
 2739lim     li15159   6.688   5.626   4.560  0.1055 -0.2432 -0.2214
 2740lim     li15160   5.811   0.760   4.486 -1.5252 -0.3379  0.9035
 2741lim     li15161   2.972   7.181   1.484  0.7066  1.0411  1.6446
 2742lim     li15162   0.623   4.704   4.189  0.0419  0.0119  0.9920
 2743lim     li15163   6.201   7.030   3.053 -0.4191  0.7293 -0.2355
 2744lim     li15164   5.993   0.760   2.833 -0.0205 -0.1731  0.0679
 2745lim     li15165   3.986   3.033   6.740 -0.4259 -0.7370 -0.4540
 2746lim     li15166   4.293   1.550   3.232 -0.0221 -1.3209  0.0189
 2747lim     li15167   4.638   0.002   5.021 -0.6059 -0.0597  0.7984
 2748lim     li15168   3.210   5.622   2.344 -1.2119  0.2501  0.2506
 2749lim     li15169   2.343   1.395   6.317  0.4077  0.2836  2.0001
 2750lim     li15170   4.972   6.076   4.716 -0.5718  0.6908  0.2565
 2751lim     li15171   1.318   6.660   6.808 -0.4339 -0.1409 -0.2729
 2752lim     li15172   1.916   5.899   3.674  0.5274 -0.0580  0.4947
 2753lim     li15173   3.101   2.706   6.647  0.6063 -0.4586  0.6151
 2754lim     li15174   6.399   1.574   3.535  0.2662 -0.0251  0.9296
 2755lim     li15175   2.279   6.477   3.915  0.2109  0.5288  0.6945
 2756lim     li15176   3.965   1.786   0.664  0.9622  0.3300 -1.3103
 2757lim     li15177   4.092   2.326   4.478  0.8954 -0.1987  0.6424
 2758lim     li15178   4.205   0.344   6.230 -0.1368 -0.1551  0.6426
 2759lim     li15179   2.035   1.584   0.189 -0.2206  1.1573 -0.5099
 2760lim     li15180   3.084   0.131   4.997  0.3790 -0.5928 -1.1855
 2761lim     li15181   0.492   6.249   6.586 -0.3252 -0.0518 -0.7546
 2762lim     li15182   1.101   2.688   0.467  0.3405  0.2833 -0.8675
 2763lim     li15183   0.413   6.875   0.565 -0.9279 -0.2185  1.1404
 2764lim     li15184   2.892   2.292   0.701  0.2793  0.8654  0.2207
 2765lim     li15185   6.999   7.027   5.857  0.0334 -0.2999 -0.5652
 2766lim     li15186   0.993   5.517   6.278  0.3555 -0.1579 -0.4981
 2767lim     li15187   6.665   4.815   2.467  0.5435  0.4938 -0.0743
 2768lim     li15188   2.532   2.662   3.010  0.8324 -0.4349 -1.5634
 2769lim     li15189   1.305   0.050   0.763  0.1361 -0.0483 -0.5891
 2770lim     li15190   1.871   4.865   4.787  0.2683 -0.4234  0.7199
 2771lim     li15191   3.299   3.075   4.740  1.1080 -1.4237 -0.0549
 2772lim     li15192   0.685   1.268   0.355  0.4384  0.3720  0.0662
 2773lim     li15193   0.072   3.037   2.126  1.2435 -0.2402 -0.2416
 2774lim     li15194   3.113   6.946   5.687 -0.4530 -0.0133  0.4182
 2775lim     li15195   1.494   6.088   6.563  0.0072  0.5472 -0.3991
 2776lim     li15196   0.170   3.982   4.187  0.2454 -0.7633  0.4957
 2777lim     li15197   6.618   2.324   4.511  0.1804  1.1501  0.4480
 2778lim     li15198   6.873   7.097   2.657  0.5775  0.0196 -0.5573
 2779lim     li15199   1.860   6.720   0.381  0.2532 -0.2893 -0.7139
 2780lim     li15200   6.426   4.254   1.898 -0.7003 -1.2709 -0.3942
 2781lim     li15201   4.309   3.365   3.843 -0.0039 -0.9667 -0.2539
 2782lim     li15202   2.773   4.771   4.107  1.0832 -0.9615 -0.6939
 2783lim     li15203   5.363   4.741   1.114 -0.1632 -1.5444  0.5541
 2784lim     li15204   2.479   3.932   0.987  0.2966 -0.7273  0.1668
 2785lim     li15205   3.246   6.916   6.743 -0.7964  0.4408  0.7600
 2786lim     li15206   0.573   4.670   2.453 -0.0651 -0.4312  0.1016
 2787lim     li15207   1.357   5.224   7.184 -0.8599  1.0115  0.2744
 2788lim     li15208   4.902   6.405   3.586  0.3296 -0.7651  0.1986
 2789lim     li15209   6.833   1.694   0.373  0.0254 -0.1366  0.3009
 2790lim     li15210   6.486   0.948   6.987  0.0858 -0.9364  0.8857
 2791lim     li15211   1.910   6.951   6.116  0.6313 -0.6550 -0.4104
 2792lim     li15212   4.669   1.260   2.247  0.7898 -1.0372 -0.9505
 2793lim     li15213   4.857   2.773   5.890  0.7091  0.3342 -0.4486
 2794lim     li15214   6.087   0.109   6.939  1.4979  0.5393 -0.3053
 2795lim     li15215   6.321   5.313   0.976 -0.4885 -0.2700 -0.4735
 2796lim     li15216   2.467   5.247   3.989 -0.2780  1.6922 -0.6394
 2797lim     li15217   6.811   2.138   1.746  0.6424  1.1790  0.4240
 2798lim     li15218   2.826   3.692   2.690  0.4387  0.3098  0.5203
 2799lim     li15219   6.764   0.617   5.930  0.7968  1.3854 -0.3669
 2800lim     li15220   3.802   5.917   0.759 -1.1827  0.6081 -0.1644
 2801lim     li15221   1.523   4.150   1.563 -0.5310 -0.6737 -0.2152
 2802lim     li15222   2.564   6.218   0.904  0.2263 -0.3778  0.9329
 2803lim     li15223   6.340   4.541   3.400  0.3621  0.5114  0.3334
 2804lim     li15224   2.288   2.595   5.632  0.7622  0.5290 -0.9322
 2805lim     li15225   1.641   5.431   5.076  0.2359  0.4028 -0.0933
 2806lim     li15226   1.741   4.282   4.662 -0.2530  0.2794 -0.7917
 2807lim     li15227   1.123   6.840   2.245  0.1751  0.7156  0.6069
 2808lim     li15228   1.746   0.890   3.109  0.1935  0.0540 -1.2554
 2809lim     li15229   5.563   3.062   3.243  0.1380 -0.8287 -0.8948
 2810lim     li15230   5.425   5.251   2.308  0.4762  0.8497 -0.0621
 2811lim     li15231   1.936   6.081   2.034 -0.6324 -0.2535  0.0799
 2812lim     li15232   2.532   6.912   1.974  0.8453 -0.3720 -0.2999
 2813lim     li15233   0.862   3.183   1.777 -0.7390  0.1824  0.2085
 2814lim     li15234   4.090   5.576   0.088  0.7835 -1.4320 -0.3510
 2815lim     li15235   6.347   3.185   0.776 -1.0782  0.4865 -0.1033
 2816lim     li15236   1.100   3.812   2.753 -0.1781  0.0298 -0.8540
 2817lim     li15237   6.352   6.341   2.329  0.6055  0.1416  0.1064
 2818lim     li15238   5.859   3.602   7.120 -0.3906 -0.4222 -0.5382
 2819lim     li15239   5.023   5.942   0.600  0.3138 -0.1402 -0.6422
 2820lim     li15240   6.781   3.540   1.659 -0.7154 -0.3818  0.2127
 2821lim     li15241   5.974   2.495   5.893 -0.2374 -0.1236 -1.9691
 2822lim     li15242   4.677   2.616   1.274 -0.4407 -0.1850  0.0889
 2823lim     li15243   2.751   4.216   6.458  0.2705  0.7997 -0.4721
 2824lim     li15244   1.654   7.161   2.642  0.5874 -0.3830  1.3360
 2825lim     li15245   6.587   5.639   3.299  0.7649  0.0416 -0.3957
 2826lim     li15246   5.186   5.461   1.620 -0.1015  0.2290 -0.0032
 2827lim     li15247   2.302   4.267   5.699  0.7628  0.4655  1.4078
 2828lim     li15248   4.196   3.778   2.217  0.5843 -0.3490  0.4251
 2829lim     li15249   1.160   5.634   1.128  0.2472  0.6963 -0.7521
 2830lim     li15250   0.189   3.901   4.981 -1.4397 -0.0166  0.2071
 2831lim     li15251   6.268   3.044   1.968  1.2711 -1.0467 -0.5924
 2832lim     li15252   0.048   0.307   5.892  0.4674 -1.0181  0.3294
 2833lim     li15253   2.694   0.567   5.616  0.4806  0.1364  0.0064
 2834lim     li15254   4.603   4.665   3.563  0.0213 -0.5191 -0.7658
 2835lim     li15255   4.201   2.602   3.971  0.3630  0.0059 -0.7671
 2836lim     li15256   1.391   2.415   3.158  0.1466 -0.7249 -0.5093
 2837lim     li15257   4.574   6.666   1.325  0.0837 -0.5135 -0.4506
 2838lim     li15258   0.452   3.498   5.518 -1.1942 -0.3804 -0.0137
 2839lim     li15259   2.818   5.307   0.250  0.0666 -0.3788  0.1039
 2840lim     li15260   5.415   2.034   6.421  0.5240  0.5615  0.0205
 2841lim     li15261   1.493   6.190   2.952  0.8051  0.3563  0.4022
 2842lim     li15262   4.809   2.358   6.913 -0.5676  0.8652 -1.3688
 2843lim     li15263   6.956   3.466   3.258 -0.0042  0.4126  0.6768
 2844lim     li15264   5.643   6.493   6.616 -0.2234 -0.7777 -0.9958
 2845lim     li15265   3.951   5.788   6.689 -0.8912  0.1699  0.7648
 2846lim     li15266   0.385   5.766   1.282  1.0331  0.0468 -0.2537
 2847lim     li15267   3.014   0.814   0.626 -0.6871 -0.8146 -0.0493
 2848lim     li15268   5.508   4.315   3.024 -0.0452  0.0444  0.6168
 2849lim     li15269   3.836   0.190   1.029 -0.3754 -0.1732 -0.1185
 2850lim     li15270   2.970   0.949   6.947  1.0854  0.1964 -0.1242
 2851lim     li15271   2.209   0.505   0.100 -1.4588  1.2939  0.6011
 2852lim     li15272   1.090   2.413   6.495  0.5141 -0.0463 -0.6797
 2853lim     li15273   2.212   0.404   2.502  0.4677  0.2534 -0.1651
 2854lim     li15274   1.048   2.560   1.460  0.6237 -1.4564 -0.4688
 2855lim     li15275   3.031   4.962   2.911 -0.6065 -1.1460 -1.0131
 2856lim     li15276   4.432   6.042   5.496 -0.0158 -0.5632 -0.9624
 2857lim     li15277   7.092   2.365   5.945 -0.9401  0.3041 -0.2419
 2858lim     li15278   0.299   6.084   1.768 -0.5262  0.6378 -0.1938
 2859lim     li15279   5.838   0.601   5.797 -0.6306 -0.2281  0.4375
 2860lim     li15280   3.065   0.124   3.561  0.6140  0.0937 -1.0103
 2861lim     li15281   5.273   6.877   3.023  0.2479  0.8984  0.1113
 2862lim     li15282   2.569   2.385   3.995 -0.4803 -0.3702 -1.9771
 2863lim     li15283   7.106   3.467   6.144  0.3316 -0.5277  0.1561
 2864lim     li15284   5.529   6.237   5.935 -0.0176 -0.7622  0.5619
 2865lim     li15285   7.091   6.154   2.208  0.2915 -0.3245  0.6720
 2866lim     li15286   0.150   3.377   0.830  0.1095 -0.0122  0.3172
 2867lim     li15287   5.584   5.530   6.875 -0.3985 -0.7413 -0.8319
 2868lim     li15288   2.711   3.542   6.065  0.1319  0.0375  0.8592
 2869lim     li15289   3.552   0.106   0.234  0.1885  1.0520 -0.2858
 2870lim     li15290   0.447   1.403   1.757 -0.2281  0.6726  0.5331
 2871lim     li15291   4.239   5.333   1.962  0.2953  0.6702  0.3571
 2872lim     li15292   5.712   4.848   2.306  0.2737 -0.7018 -0.0195
 2873lim     li15293   6.157   3.731   6.004 -0.2181  0.3142  0.3643
 2874lim     li15294   3.640   2.696   2.196 -0.9670  0.3455 -0.7382
 2875lim     li15295   4.983   1.062   6.307 -0.3438  0.5049 -0.9638
 2876lim     li15296   1.711   1.890   4.311 -0.6192  0.3098 -0.6576
 2877lim     li15297   4.191   5.935   4.386 -0.5779 -0.0989 -0.3146
 2878lim     li15298   0.903   7.119   2.944 -0.1715  1.3398  0.2377
 2879lim     li15299   5.358   1.022   2.230  0.4950 -0.3494 -0.1085
 2880lim     li15300   2.159   2.421   0.559  0.0292  0.0020  0.3968
 2881lim     li15301   3.166   1.590   1.265  0.0356 -0.1393 -0.6594
 2882lim     li15302   3.089   2.774   6.030 -0.6756 -0.1643 -1.3936
 2883lim     li15303   5.362   6.009   3.634 -0.0733  0.1195 -0.1394
 2884lim     li15304   1.606   3.966   6.324  0.6757 -0.3377  0.5125
 2885lim     li15305   2.930   5.570   5.724  0.0968  1.2788  0.1140
 2886lim     li15306   5.821   3.673   2.327  1.0789 -0.2683  0.3886
 2887lim     li15307   0.296   4.069   7.158 -0.5798 -1.1854  0.4297
 2888lim     li15308   2.600   3.086   0.114 -1.5299 -0.0353 -0.5761
 2889lim     li15309   5.475   0.648   7.115 -0.0800 -2.0319 -0.4228
 2890lim     li15310   4.648   2.796   2.399 -0.5881 -0.2974  0.8935
 2891lim     li15311   0.024   4.992   3.287 -0.2141  0.3695  0.7531
 2892lim     li15312   3.281   5.828   3.964 -0.9243  0.0500 -0.0948
 2893lim     li15313   4.290   0.945   5.583  1.2854 -0.5088 -0.8846
 2894lim     li15314   1.433   1.873   2.009 -0.7118  0.3881  0.7012
 2895lim     li15315   0.150   3.001   7.098 -0.8892 -0.1138  0.2188
 2896lim     li15316   6.142   5.342   5.464 -0.0620 -1.2786  0.6103
 2897lim     li15317   3.305   3.840   0.930  0.1793  0.1411  0.5202
 2898lim     li15318   4.219   6.824   2.849  0.3678  0.5622 -0.0046
 2899lim     li15319   1.387   3.996   4.851 -0.5031  0.7793  0.1591
 2900lim     li15320   4.306   4.259   4.709 -1.2610 -1.1124 -0.4973
 2901lim     li15321   2.428   2.778   1.715 -0.2947  0.2099 -0.2222
 2902lim     li15322   2.624   3.373   1.461 -0.4046 -0.1802 -0.4012
 2903lim     li15323   0.440   1.609   6.982  0.1246  0.2021 -1.6346
 2904lim     li15324   5.094   1.165   4.939  1.0619  0.0906 -0.4666
 2905lim     li15325   4.780   6.951   5.795  0.3778 -0.3943 -0.9821
 2906lim     li15326   4.240   6.767   5.274  0.7982 -0.7042 -0.4365
 2907lim     li15327   0.435   0.601   3.852 -0.0573 -1.1675  0.8669
 2908lim     li15328   0.650   2.543   3.811  0.7397 -0.8093  1.6060
 2909lim     li15329   0.585   2.015   2.948  0.5270  0.2055  0.2044
 2910lim     li15330   6.125   2.303   0.082  0.2740  0.0321  0.0397
 2911lim     li15331   4.925   0.752   3.435  0.2528  0.6623  0.0042
 2912lim     li15332   1.529   4.741   6.436  0.2916 -0.7970 -0.3884
 2913lim     li15333   0.204   4.238   0.875 -0.9551 -0.3724  0.1729
 2914lim     li15334   1.755   4.293   6.991 -1.0033 -0.0165 -1.0032
 2915lim     li15335   6.735   3.841   7.143  0.2188  0.4710  0.3836
 2916lim     li15336   0.281   2.401   1.469 -0.5258  0.8982  0.6313
 2917lim     li15337   4.185   1.916   1.484 -0.3061  0.5915 -0.0772
 2918lim     li15338   5.336   3.780   0.702  0.1446 -0.9426 -0.0202
 2919lim     li15339   0.625   0.570   1.801 -0.5012  0.4837  0.6963
 2920lim     li15340   5.709   3.779   3.930 -0.4625 -0.3798  0.9184
 2921lim     li15341   3.255   6.190   5.098  1.2947 -0.6658  0.8355
 2922lim     li15342   0.452   3.943   6.578 -0.2883 -0.1350 -1.2777
 2923lim     li15343   7.013   0.107   7.125  0.3848 -0.4384 -0.3543
 2924lim     li15344   5.966   2.047   4.006 -0.8996 -0.1858 -0.8004
 2925lim     li15345   1.840   3.006   7.018  0.5545  0.0445  0.0037
 2926lim     li15346   4.444   3.173   4.888  0.3672 -0.1569  0.8070
 2927lim     li15347   4.290   4.889   2.853  0.3857  0.2573 -0.8108
 2928lim     li15348   5.575   2.360   0.475 -0.0215 -0.6204 -0.6917
 2929lim     li15349   4.179   5.656   3.214 -0.7881 -1.2509 -0.0374
 2930lim     li15350   3.149   5.425   1.725 -0.1596  0.0420 -0.0450
 2931lim     li15351   3.003   6.430   4.283  0.0609  0.2469  0.1029
 2932lim     li15352   0.813   6.762   1.839  0.3904  0.9502  0.4920
 2933lim     li15353   2.706   4.290   0.295  1.1690  0.1594  0.7872
 2934lim     li15354   0.901   4.262   5.580 -0.4566 -0.6204  0.1882
 2935lim     li15355   0.201   5.893   2.547  0.6353  0.1802  0.0759
 2936lim     li15356   1.157   3.097   6.365  0.4810 -0.1435  0.5406
 2937lim     li15357   2.264   6.657   4.401 -0.6986 -0.4809  0.3341
 2938lim     li15358   1.385   0.712   0.840 -0.1663  0.6428  1.3408
 2939lim     li15359   1.716   1.972   1.269 -0.5955  0.1289 -0.1469
 2940lim     li15360   4.343   0.640   0.589 -0.1803 -0.6782 -0.3065
 2941lim     li15361   0.030   0.848   1.014  1.1513  0.7849  0.3633
 2942lim     li15362   4.868   3.706   4.195  0.7400  0.3471  0.9470
 2943lim     li15363   4.339   4.112   6.796 -1.1094  0.5927 -0.3427
 2944lim     li15364   0.198   5.477   6.770  0.1915 -0.5212 -0.0382
 2945lim     li15365   1.400   1.770   0.725 -0.5954 -0.2971 -0.0505
 2946lim     li15366   3.271   5.519   3.333  0.5699 -0.2809  0.0520
 2947lim     li15367   6.135   5.795   2.001  0.3182 -0.4667  0.1963
 2948lim     li15368   4.413   1.476   4.300  0.0329  0.4576 -0.0563
 2949lim     li15369   0.160   5.050   0.257 -0.3771 -0.9591 -0.8233
 2950lim     li15370   5.338   6.062   2.668  0.6171 -0.1472 -0.5199
 2951lim     li15371   3.363   1.314   4.359 -0.1558  0.7208  0.3680
 2952lim     li15372   3.331   0.807   4.957  0.9523 -0.6618 -0.9978
 2953lim     li15373   4.919   1.603   3.893  0.4135  0.7007 -0.5063
 2954lim     li15374   2.467   0.976   3.458  0.5059 -1.0755 -0.2489
 2955lim     li15375   1.709   6.084   1.530  0.4135 -0.2668 -0.0314
 2956lim     li15376   6.235   1.808   5.692 -0.3563  0.5098  0.0891
 2957lim     li15377   4.696   4.721   5.256  0.4826 -0.1224 -0.3813
 2958lim     li15378   3.731   7.062   5.588  0.0076  0.6518 -0.1779
 2959lim     li15379   5.812   6.375   1.038 -0.8110 -0.2145 -0.2481
 2960lim     li15380   3.450   0.464   6.608  0.3314  0.9788  0.1653
 2961lim     li15381   6.412   3.374   2.882  1.1396  0.3993 -0.4260
 2962lim     li15382   5.102   0.427   2.526 -1.0459  0.3637  0.5670
 2963lim     li15383   3.716   4.854   6.730  0.1648 -0.7511  0.6851
 2964lim     li15384   4.622   6.755   0.594 -0.3651  0.4423 -1.0438
 2965lim     li15385   2.448   0.583   4.653  0.4985  0.3363 -0.1817
 2966lim     li15386   5.975   3.045   4.843  0.5045 -1.1905 -0.0052
 2967lim     li15387   6.707   5.939   5.319  0.1959 -1.1947  0.1413
 2968lim     li15388   3.223   2.311   3.943 -0.1927  0.3362 -0.0114
 2969lim     li15389   5.569   1.935   5.009 -0.5607  0.2562 -0.1880
 2970lim     li15390   4.842   6.024   6.592 -0.9334  0.1956 -0.2489
 2971lim     li15391   4.823   2.229   3.674  0.0087  0.2834 -1.0990
 2972lim     li15392   2.837   3.516   4.974 -0.1425 -0.3448  0.5541
 2973lim     li15393   6.637   2.827   6.105  0.7002 -0.3968  0.0171
 2974lim     li15394   2.364   4.773   6.844  0.1595  0.0072  0.1376
 2975lim     li15395   3.240   6.413   0.291 -1.4958  0.0264 -0.1758
 2976lim     li15396   3.329   4.250   2.130  0.5397  0.5102  0.5720
 2977lim     li15397   1.657   4.576   0.529 -0.1870  0.5229  1.1579
 2978lim     li15398   5.741   2.010   2.818 -0.0863  0.4268  0.4766
 2979lim     li15399   2.538   1.950   1.523  0.9702 -0.1514  0.5337
 2980lim     li15400   0.067   2.741   0.661  0.3011 -0.1648  0.3541
 2981lim     li15401   3.667   2.573   1.307  1.3860  0.7794  0.3980
 2982lim     li15402   5.041   5.309   2.960  0.2481  0.3162 -0.6389
 2983lim     li15403   3.663   2.926   5.302 -0.1441 -0.2436  0.1808
 2984lim     li15404   0.619   3.642   3.422 -0.2903 -0.1971 -1.5222
 2985lim     li15405   4.001   5.056   4.863 -0.3879 -0.0944 -0.4373
 2986lim     li15406   4.366   6.196   2.612  0.6007 -0.2311  1.6535
 2987lim     li15407   0.726   6.389   2.815  0.9202 -0.4843 -1.0712
 2988lim     li15408   5.042   5.126   5.624  0.3078 -0.0858  0.7249
 2989lim     li15409   4.198   3.808   0.885  2.2196 -0.1430 -0.4524
 2990lim     li15410   5.845   4.276   3.750 -0.6169 -0.2433  0.5400
 2991lim     li15411   3.537   2.002   3.175  0.2970  0.2286 -1.0591
 2992lim     li15412   6.767   2.341   2.565  0.2980 -0.9754  0.4986
 2993lim     li15413   5.183   3.901   2.707 -0.4949  0.3903 -0.9211
 2994lim     li15414   6.516   4.437   0.530 -0.1066  0.9252 -0.8750
 2995lim     li15415   3.324   4.071   6.713 -0.5810 -0.2512 -0.7660
 2996lim     li15416   3.433   0.297   1.841  0.5900  0.7759 -0.6945
 2997lim     li15417   4.776   2.295   5.011  0.7888  0.2635  0.3861
 2998lim     li15418   2.052   1.672   2.248 -2.1462  1.3284 -0.6967
 2999lim     li15419   0.171   1.170   4.297  0.0201  0.3545 -0.0632
 3000lim     li15420   0.664   5.249   2.000 -0.2663  0.7030 -0.5558
 3001lim     li15421   6.323   1.170   1.244 -0.2591  0.1138 -0.7601
 3002lim     li15422   5.651   4.103   4.759 -0.9893  0.7977 -0.8638
 3003lim     li15423   1.868   3.099   4.675 -0.5652  0.4592 -0.9325
 3004lim     li15424   1.385   2.973   5.605  1.0002 -1.1943  0.5498
 3005lim     li15425   3.660   1.790   6.244  0.2318 -0.9867  1.0352
 3006lim     li15426   2.482   5.844   2.904 -0.4096 -0.9738  0.2996
 3007lim     li15427   4.947   1.881   0.828 -0.3853 -0.6605  0.3068
 3008lim     li15428   5.471   5.100   3.784  0.3934 -0.5681 -0.1460
 3009lim     li15429   4.045   2.648   5.381  0.6870 -1.0462 -1.3341
 3010lim     li15430   4.685   4.459   0.194 -0.4124 -0.9712 -0.3643
 3011lim     li15431   2.153   4.897   2.690 -0.5388  0.7366  0.1291
 3012lim     li15432   5.826   6.964   5.389  0.4335 -0.3548 -1.0535
 3013lim     li15433   0.198   0.809   6.775  0.2526 -0.0671  0.1019
 3014lim     li15434   1.985   1.005   2.146  0.5510  0.7715 -1.1126
 3015lim     li15435   6.555   6.205   1.312  0.3782 -0.2231 -1.1617
 3016lim     li15436   1.402   1.120   6.781  0.4464 -0.1851  0.6085
 3017lim     li15437   5.853   4.143   1.226 -1.2087  0.2320  1.3750
 3018lim     li15438   2.016   2.548   6.422 -0.3134  0.4984 -0.9084
 3019lim     li15439   5.426   2.428   3.994  0.1394 -0.5932 -0.5019
 3020lim     li15440   3.524   3.629   1.556 -0.6951 -0.1858 -0.1861
 3021lim     li15441   5.937   6.165   5.061 -0.7881 -0.4838 -0.2113
 3022lim     li15442   4.049   4.907   4.266  0.5011 -0.1156  0.3695
 3023lim     li15443   1.585   0.462   3.469  0.4214 -0.7765 -0.1463
 3024lim     li15444   6.172   5.083   6.074  0.6751 -0.3190 -1.3324
 3025lim     li15445   0.340   7.164   4.547 -0.2064 -0.3199  0.8444
 3026lim     li15446   1.742   6.190   4.989 -0.3289  0.0938  0.4312
 3027lim     li15447   0.652   7.138   6.466 -0.2762  0.7477 -0.3018
 3028lim     li15448   4.292   0.201   1.650  0.8038 -0.6909 -0.0290
 3029lim     li15449   3.062   6.528   2.978 -0.6590  0.3984 -0.9659
 3030lim     li15450   0.998   1.465   3.546  0.3649  0.5751  1.1924
 3031lim     li15451   1.248   0.640   1.772  0.2523  0.5608  1.1630
 3032lim     li15452   2.529   5.761   1.394  0.1764 -0.7827 -0.6533
 3033lim     li15453   5.870   1.833   6.588 -0.4192  1.3970  0.0028
 3034lim     li15454   0.346   3.422   2.575  0.0840  0.1858 -0.4272
 3035lim     li15455   4.997   0.235   3.993 -0.5896 -0.0846  0.1894
 3036lim     li15456   1.725   3.155   0.718 -0.6096  0.2964  0.8240
 3037lim     li15457   5.602   6.363   0.349 -0.4355 -0.4567 -0.2926
 3038lim     li15458   0.581   4.743   0.119 -0.3285  0.3227  0.1061
 3039lim     li15459   3.788   3.051   7.175  1.1688  0.1470  0.2238
 3040lim     li15460   6.541   1.851   1.186 -0.8348 -1.3431 -0.3806
 3041lim     li15461   2.515   6.975   6.153 -1.1610  0.1207 -0.9447
 3042lim     li15462   5.734   1.746   1.138  0.4103  0.4352  0.1560
 3043lim     li15463   7.043   3.730   2.320 -0.2189 -0.0185  0.9068
 3044lim     li15464   2.614   7.016   0.088  0.3350 -0.5195 -0.0453
 3045lim     li15465   5.698   1.457   5.999  0.1372  0.1176 -1.0777
 3046lim     li15466   3.337   6.866   1.082 -0.5910 -1.0689  0.9806
 3047lim     li15467   4.618   3.967   3.502  0.7973 -0.4817  0.3691
 3048lim     li15468   1.379   5.567   3.360  0.2797  0.7964 -0.3642
 3049lim     li15469   4.899   5.337   0.556  1.8083  0.9132  0.3082
 3050lim     li15470   3.042   0.105   2.717 -1.2568 -0.4084  0.0712
 3051lim     li15471   2.048   5.407   0.613 -0.4077  0.1196  0.4892
 3052lim     li15472   6.993   6.947   4.249 -0.3291  1.5104 -0.1624
 3053lim     li15473   3.685   4.596   3.826 -0.4587 -0.5054  1.1190
 3054lim     li15474   0.125   7.171   1.217 -0.3336  0.8713  0.9490
 3055lim     li15475   6.389   6.034   6.867 -0.7904  0.1686  0.1882
 3056lim     li15476   1.177   4.509   3.962  0.7374  0.2752  0.5370
 3057lim     li15477   0.061   5.229   5.110  0.7783 -0.0156  0.9889
 3058lim     li15478   4.625   2.358   6.115 -0.0650 -0.2434 -0.4999
 3059lim     li15479   5.896   0.206   2.015 -0.3591 -0.0533  0.0423
 3060lim     li15480   4.844   3.330   2.007  1.0407  0.0096  0.2718
 3061lim     li15481   5.981   4.346   0.733 -0.9345 -0.9809 -0.4539
 3062lim     li15482   3.691   0.877   0.940 -0.3985 -1.4221 -1.1130
 3063lim     li15483   4.146   0.047   2.346 -0.2067 -0.6334 -1.0337
 3064lim     li15484   6.274   0.537   3.982  1.1449  0.4384 -1.1075
 3065lim     li15485   3.924   1.679   4.775  1.8211 -0.6273 -0.2425
 3066lim     li15486   0.919   3.195   4.222  0.4848  0.7545 -0.5960
 3067lim     li15487   6.664   1.633   4.770  0.7077 -0.8100 -0.3685
 3068lim     li15488   4.253   7.051   4.069 -0.0776 -0.3602  0.8294
 3069lim     li15489   4.145   6.546   4.386 -0.7554 -0.1642 -0.2541
 3070lim     li15490   5.861   5.188   4.404 -0.5864 -0.5660 -0.3360
 3071lim     li15491   0.851   3.422   0.164  0.3823  0.4316 -0.5558
 3072lim     li15492   0.434   5.485   3.627  0.0855  1.0529 -1.2653
 3073lim     li15493   1.034   6.325   5.655  1.8388 -0.7134 -0.0507
 3074lim     li15494   0.373   0.622   2.683  0.0384  0.6562  0.0348
 3075lim     li15495   6.730   6.493   0.090  0.0075 -0.3324 -0.2090
 3076lim     li15496   1.882   0.882   5.590  0.2208 -0.1343 -0.5916
 3077lim     li15497   0.782   4.908   1.125  0.3434 -1.2992  0.2818
 3078lim     li15498   0.935   1.411   1.059  0.2622 -0.5564 -0.3829
 3079lim     li15499   5.399   6.836   4.607 -0.4367 -0.2508 -0.5866
 3080lim     li15500   2.102   3.795   3.247 -0.2974  0.2115  0.1013
 3081lim     li15501   5.242   0.082   6.138 -0.0183 -1.0515  0.8728
 3082lim     li15502   5.652   2.834   5.390 -0.1897 -0.2094  1.4869
 3083lim     li15503   3.690   3.654   6.186 -1.4501  0.0973 -0.5911
 3084lim     li15504   1.974   4.949   1.855  0.2839 -0.0022  0.0027
 3085lim     li15505   1.213   7.130   6.981 -0.9886  0.3011 -1.6277
 3086lim     li15506   4.164   4.466   0.875 -0.3823  0.7523 -1.3251
 3087lim     li15507   5.990   6.789   3.671 -0.2557 -0.2594  0.7634
 3088lim     li15508   0.898   4.924   5.538  0.0408 -0.2061 -0.0868
 3089lim     li15509   3.765   4.739   2.317  0.5021 -0.2837 -0.6287
 3090lim     li15510   6.896   6.986   1.860 -0.0436 -0.7313  0.3865
 3091lim     li15511   5.840   7.176   0.882  0.4234  0.2447  0.0301
 3092lim     li15512   3.299   4.365   3.494 -0.4911 -0.4983 -0.1030
 3093lim     li15513   6.918   4.897   6.936 -1.1600 -0.5632 -0.0640
 3094lim     li15514   0.434   4.553   6.258 -0.5323  1.4584  0.4660
 3095lim     li15515   6.588   6.504   0.578  1.2190  1.0925  0.0149
 3096lim     li15516   3.183   1.759   0.177  1.0857  0.3173 -0.7924
 3097lim     li15517   2.063   6.347   7.103  0.0174 -0.3103  1.1228
 3098lim     li15518   3.488   6.406   2.309 -0.1418 -0.3774  0.1313
 3099lim     li15519   1.948   2.031   3.411 -0.2243  1.6289 -0.5822
 3100lim     li15520   5.177   0.615   4.987 -0.5480  1.4079  0.6094
 3101lim     li15521   5.354   5.414   5.136  0.1400  0.4707 -0.1115
 3102lim     li15522   3.640   3.855   4.149  0.4100  0.3352 -0.4880
 3103lim     li15523   4.370   1.614   5.495 -0.3426  1.9782 -0.2852
 3104lim     li15524   2.878   5.336   6.433  0.7573  0.3474 -0.1942
 3105lim     li15525   0.020   6.194   4.647 -1.7197 -0.0519 -0.5535
 3106lim     li15526   5.082   0.312   1.830  0.4294 -0.5067  0.6203
 3107lim     li15527   5.238   2.036   1.751  0.5214 -0.5627 -0.6060
 3108lim     li15528   5.367   1.531   0.286 -0.2211  0.1767 -0.1090
 3109lim     li15529   0.649   0.767   0.075  0.0960 -0.1839  0.2597
 3110lim     li15530   0.934   0.191   5.645 -0.8883 -0.1038 -0.8701
 3111lim     li15531   2.045   4.685   5.659 -0.0083  0.1344  1.3786
 3112lim     li15532   1.023   5.664   0.377  0.9815  0.7331  0.0148
 3113lim     li15533   5.926   1.617   4.728 -0.5205 -0.2552 -0.0428
 3114lim     li15534   5.919   5.912   4.412 -0.0499  0.6519 -1.0671
 3115lim     li15535   5.903   6.615   4.334 -0.4292 -0.6031 -0.1260
 3116lim     li15536   1.965   7.100   1.636 -0.3132  0.6625 -0.3655
 3117lim     li15537   2.950   1.116   2.978 -0.7370 -0.4614  0.8185
 3118lim     li15538   6.470   7.091   1.404  0.4257 -1.1028 -0.1013
 3119lim     li15539   6.186   1.364   2.938  0.0783  0.1083 -0.9536
 3120lim     li15540   3.848   6.166   6.106  0.7134  0.7162  0.5144
 3121lim     li15541   7.182   4.551   1.702 -0.1586 -0.5353 -0.1723
 3122lim     li15542   0.777   1.193   6.268  0.4165 -0.5160 -0.2595
 3123lim     li15543   4.573   5.202   4.071  0.5747 -0.1543  0.0241
 3124lim     li15544   4.997   2.525   2.997 -0.4952  0.3734  1.6705
 3125lim     li15545   0.166   2.446   4.545 -0.0940 -0.1747 -0.5808
 3126lim     li15546   1.055   0.793   5.202  0.4688 -0.1576  0.0192
 3127lim     li15547   2.149   6.329   5.900  0.3762 -1.3517  0.5898
 3128lim     li15548   4.072   3.043   3.150  0.2125 -0.0720 -1.1453
 3129lim     li15549   3.602   6.656   3.524 -0.0034 -1.2240 -0.4446
 3130lim     li15550   3.704   5.158   0.769  0.1722  0.6057 -1.1821
 3131lim     li15551   3.992   1.522   1.630 -0.5212 -0.5621 -0.4741
 3132lim     li15552   1.489   6.709   0.973 -0.5279  0.6363 -0.3386
 3133lim     li15553   7.144   2.315   6.903 -0.5320  0.4631 -0.0876
 3134lim     li15554   4.226   2.126   7.189  0.2113  0.3748  0.1626
 3135lim     li15555   7.168   5.548   1.051  0.5238 -0.6827  0.2626
 3136lim     li15556   1.148   0.856   4.038 -0.2283  0.8704 -0.6618
 3137lim     li15557   0.876   6.112   4.264 -0.0115  0.0327  1.6644
 3138lim     li15558   3.193   6.810   4.685  0.5570 -0.4759  0.4085
 3139lim     li15559   4.504   1.212   6.898 -1.1667 -0.1135  0.3912
 3140lim     li15560   1.869   3.525   5.369  0.4620 -1.4278 -0.2891
 3141lim     li15561   4.481   2.880   0.278  0.0485  0.5397 -0.8354
 3142lim     li15562   1.038   3.694   0.881 -0.4625 -0.8723  0.1538
 3143lim     li15563   2.227   3.086   4.122 -0.8837  0.8665 -0.1379
 3144lim     li15564   1.031   6.831   3.910 -0.9348  0.0403 -0.3810
 3145lim     li15565   3.548   0.065   3.899 -0.5325  0.5069  0.2091
 3146lim     li15566   2.186   1.120   4.658 -0.2737  0.9520 -0.8076
 3147lim     li15567   0.921   1.899   2.249  0.2657 -0.0382  0.4372
 3148lim     li15568   0.684   5.605   4.194  0.3486  0.0674  0.6759
 3149lim     li15569   5.054   6.316   1.632  1.3218 -0.4892 -0.3955
 3150lim     li15570   5.749   0.493   0.609  0.3059 -1.0428 -0.5187
 3151lim     li15571   4.399   4.305   6.097 -0.3950 -0.0892  0.7611
 3152lim     li15572   0.472   0.772   5.415 -0.4656  0.1852  0.3371
 3153lim     li15573   1.721   5.437   6.880 -1.9030 -0.2386  1.1326
 3154lim     li15574   5.083   0.834   1.196  0.3342  0.3705 -0.5382
 3155lim     li15575   1.596   0.198   4.665  1.7400 -0.1460  0.3110
 3156lim     li15576   1.099   5.702   1.944 -0.7858 -0.0031  0.0934
 3157lim     li15577   2.879   4.757   0.770  1.2217 -0.4306  0.3244
 3158lim     li15578   1.107   4.130   1.657  0.1279  0.5301  0.5209
 3159lim     li15579   1.248   2.194   4.432 -0.2184 -0.7723  1.0163
 3160lim     li15580   2.374   3.914   4.386 -1.7573  0.6752  0.1915
 3161lim     li15581   2.681   5.933   0.050 -0.0318  0.5912 -0.5314
 3162lim     li15582   3.989   5.090   6.032  0.1454  0.8089  0.8607
 3163lim     li15583   6.303   5.288   1.923  0.5120 -0.8979  0.3474
 3164lim     li15584   4.667   4.609   2.203 -0.5342  1.1922 -0.1156
 3165lim     li15585   0.728   2.156   4.212 -1.2134  0.2727  1.2692
 3166lim     li15586   4.953   0.247   0.278 -0.6263  0.3026 -0.4220
 3167lim     li15587   0.972   6.623   4.932 -1.0754  0.3630 -0.2632
 3168lim     li15588   1.471   2.877   2.297 -0.2986  0.9655 -0.2539
 3169lim     li15589   2.715   1.780   6.689 -1.3157 -0.2838  0.8136
 3170lim     li15590   3.775   2.267   2.492 -0.7931 -0.0893 -0.1350
 3171lim     li15591   5.875   2.106   1.677  0.0976  1.1828  0.1172
 3172lim     li15592   2.147   0.625   6.510 -1.1600 -0.2349  0.6274
 3173lim     li15593   1.805   2.927   1.614  0.9594 -0.4344 -0.4730
 3174lim     li15594   3.260   1.626   2.194  0.3090  0.3393 -0.2347
 3175lim     li15595   5.529   3.434   4.394 -0.1531 -0.3071  1.0381
 3176lim     li15596   6.704   3.064   3.837  0.2380 -0.7627 -0.3691
 3177lim     li15597   5.239   4.045   6.568 -0.0199  0.3453 -1.1874
 3178lim     li15598   3.554   4.087   4.959 -0.1895  0.5815  0.6661
 3179lim     li15599   1.337   2.119   5.856  0.4238 -0.1082 -0.8688
 3180lim     li15600   3.790   5.849   5.074 -0.1883  0.9298  0.7594
 3181lim     li15601   3.610   1.079   6.104  1.0013 -0.0159  0.0063
 3182lim     li15602   6.362   4.316   6.690  0.0318 -0.3813 -0.2052
 3183lim     li15603   6.482   4.985   4.176  0.2521  0.5046  0.7110
 3184lim     li15604   5.775   4.811   7.066 -0.8634  0.3544 -1.3018
 3185lim     li15605   7.164   4.217   3.281  0.9081 -1.6459  0.3696
 3186lim     li15606   0.005   1.160   2.991  0.3601  0.2122  0.2677
 3187lim     li15607   0.090   1.935   3.433 -0.2584  0.2712  0.6573
 3188lim     li15608   2.763   1.923   5.122 -0.4869 -0.5890  1.3725
 3189lim     li15609   4.377   3.237   1.378  0.4899 -0.6654 -0.0582
 3190lim     li15610   5.428   1.670   3.500  0.1719  0.5413  0.4072
 3191lim     li15611   5.592   2.790   1.129  0.7931  0.8100 -0.2553
 3192lim     li15612   4.664   5.743   1.126  0.2824  0.0732 -0.3765
 3193lim     li15613   2.926   4.195   4.657  0.8683  0.4368  0.0213
 3194lim     li15614   7.027   0.611   1.973 -0.7420 -0.4669 -0.2179
 3195lim     li15615   0.120   1.585   5.524  0.9437 -0.6294 -0.2943
 3196lim     li15616   0.344   2.697   6.537 -0.1330  0.3173  1.1143
 3197lim     li15617   1.927   5.009   3.530 -0.5552 -0.6195 -0.6543
 3198lim     li15618   4.670   5.320   6.341  1.2891  0.4040  0.5104
 3199lim     li15619   4.335   0.644   3.069 -0.7903  0.7026 -0.2243
 3200lim     li15620   4.514   7.005   6.764  0.1451  1.1737 -0.8141
 3201lim     li15621   4.884   4.047   1.540  0.0978  0.1326  0.7506
 3202lim     li15622   2.415   5.198   5.181  0.5267  0.5684 -0.4371
 3203lim     li15623   1.317   2.196   7.112 -0.8931 -2.1754 -0.1331
 3204lim     li15624   4.031   2.402   6.101  1.0127  0.3395  0.0153
 3205lim     li15625   6.690   3.837   5.543 -0.2488 -0.1773  0.3393
 3206lim     li15626   0.072   5.299   6.230 -0.6599 -0.0229 -0.5675
 3207lim     li15627   5.611   2.897   6.531  1.3557 -1.2981  0.6692
 3208lim     li15628   6.728   0.800   5.005  0.6982 -0.7798  0.1783
 3209lim     li15629   3.267   3.259   0.332  0.0396 -1.2096  0.5230
 3210lim     li15630   5.971   4.553   5.498  0.6545  0.6795 -0.2397
 3211lim     li15631   0.414   2.051   4.862  0.2267 -0.8570  0.1779
 3212lim     li15632   6.635   5.582   0.227  0.0891  0.4030 -0.4216
 3213lim     li15633   2.615   4.782   1.583  0.6211  0.0655 -0.4388
 3214lim     li15634   2.327   0.564   0.910 -0.9044  1.1456 -1.0000
 3215lim     li15635   6.078   0.674   4.917  1.2097  0.1486  0.2245
 3216lim     li15636   6.618   0.802   0.538  0.0777 -0.3983  0.7241
 3217lim     li15637   3.544   5.123   5.442  0.4009 -0.0494  0.0523
 3218lim     li15638   6.991   1.540   2.315 -0.0661  0.1661 -0.1428
 3219lim     li15639   2.246   1.485   4.013  1.0478 -0.1500  1.0411
 3220lim     li15640   3.156   3.334   3.736  0.0977  1.0032  0.2466
 3221lim     li15641   1.647   3.290   3.706 -1.0942  0.3395 -0.0792
 3222lim     li15642   4.034   6.859   0.078  1.7348 -0.1084  0.7878
 3223lim     li15643   0.569   2.116   0.322 -0.3753  0.0675  0.7925
 3224lim     li15644   6.331   6.771   6.339  0.2398 -0.8618  0.2137
 3225lim     li15645   1.669   3.726   7.123 -0.4307  0.3584  0.5135
 3226lim     li15646   3.718   4.033   2.896  0.0552 -0.8822  1.1734
 3227lim     li15647   0.939   4.655   3.050  0.3238  0.2389 -0.4627
 3228lim     li15648   6.414   0.921   1.889 -0.1133 -0.6705 -0.5683
 3229lim     li15649   1.491   3.798   2.434  0.8005  0.2759  0.7870
 3230lim     li15650   2.617   6.646   3.309  0.1230 -0.3169  0.2998
 3231lim     li15651   3.662   6.134   1.608  0.9771 -1.3707 -0.1768
 3232lim     li15652   2.386   1.063   1.416  0.7442  0.7663  0.4839
 3233lim     li15653   6.226   5.935   5.870 -1.2586 -0.7530  0.7496
 3234lim     li15654   7.186   4.634   5.598 -0.5111  0.5163 -0.2233
 3235lim     li15655   6.346   2.479   3.305 -0.0890  0.4150  0.4059
 3236lim     li15656   7.027   1.821   6.590 -0.5825 -0.3957  0.4189
 3237lim     li15657   6.192   5.316   3.024 -0.4247  0.3760  0.1831
 3238lim     li15658   3.071   5.035   4.874  0.1821  0.7988  0.3255
 3239lim     li15659   3.019   4.832   5.813  0.2095 -0.8997 -0.2481
 3240lim     li15660   4.871   4.863   6.576 -1.1232  0.1443 -0.8257
 3241ntf    cn115661   3.488   1.146   6.638 -0.0372  0.5186 -0.0251
 3241ntf    sn215662   3.391   1.021   6.726  0.0760  0.0571 -0.5481
 3241ntf    nn315663   3.480   0.991   6.852 -1.1687  0.2152  0.3895
 3241ntf    sn215664   3.459   0.902   6.979  0.0698 -0.5161  0.0923
 3241ntf    cn115665   3.418   1.026   7.105 -0.0392 -0.4563 -0.0030
 3241ntf    fn415666   3.436   1.193   6.525 -0.5705 -0.4528 -0.1909
 3241ntf    fn415667   3.521   1.247   6.717  0.0240  0.2738  0.2640
 3241ntf    fn415668   3.606   1.100   6.598 -0.0367  0.9013 -0.4788
 3241ntf    on515669   3.270   1.094   6.754 -0.2623 -0.5331 -0.4567
 3241ntf    on515670   3.383   0.913   6.631  0.1866 -0.4185 -0.0268
 3241ntf    on515671   3.585   0.844   7.021  0.0079 -0.2755  0.6146
 3241ntf    on515672   3.343   0.817   6.970 -0.4144  0.1376  0.1080
 3241ntf    fn415673   3.320   0.979   7.181 -0.3266 -0.4163 -0.3486
 3241ntf    fn415674   3.520   1.059   7.183 -0.1602  0.2758 -0.1522
 3241ntf    fn415675   3.373   1.144   7.066  0.1997 -0.0870  0.8143
 3242ntf    cn115676   4.367   0.024   5.646 -0.0130 -0.2288 -0.0406
 3242ntf    sn215677   4.450   0.042   5.486  0.1710  0.1650  0.0962
 3242ntf    nn315678   4.347   0.134   5.412  0.1678  0.4529  0.4622
 3242ntf    sn215679   4.368   0.268   5.334 -0.3474  0.1161 -0.2581
 3242ntf    cn115680   4.211   0.261   5.242 -0.3440 -0.0918 -0.2471
 3242ntf    fn415681   4.355   0.142   5.705 -0.1198 -0.0897 -0.3410
 3242ntf    fn415682   4.245  -0.027   5.638 -0.1872  0.1793 -0.0066
 3242ntf    fn415683   4.430  -0.059   5.727 -0.1321  0.1666  0.4708
 3242ntf    on515684   4.579   0.102   5.513  0.7535 -0.8314 -0.3902
 3242ntf    on515685   4.446  -0.096   5.442 -0.4235  0.2293 -0.0492
 3242ntf    on515686   4.463   0.258   5.226 -0.2383  0.5156 -0.2024
 3242ntf    on515687   4.360   0.394   5.405  0.1982  0.0934 -0.1551
 3242ntf    fn415688   4.102   0.252   5.317 -0.4175  0.3386 -0.3042
 3242ntf    fn415689   4.188   0.372   5.174 -0.6467  0.1606  0.2598
 3242ntf    fn415690   4.205   0.153   5.166  0.1109 -0.0491 -0.3426
 3243ntf    cn115691   3.303   6.793   5.098  0.5677  0.2089 -0.4244
 3243ntf    sn215692   3.208   6.661   5.180  0.1055  0.6060 -0.3147
 3243ntf    nn315693   3.110   6.629   5.062 -0.3226  0.0383  0.1920
 3243ntf    sn215694   2.967   6.566   5.077 -0.3187 -0.0599 -0.1563
 3243ntf    cn115695   2.860   6.707   5.117 -0.0993  0.0514  0.0470
 3243ntf    fn415696   3.227   6.894   5.059  0.0874  0.0441  0.0852
 3243ntf    fn415697   3.389   6.847   5.184  0.3292 -0.1676  0.0563
 3243ntf    fn415698   3.365   6.745   4.991  0.4909 -0.3605 -0.2167
 3243ntf    on515699   3.298   6.550   5.204 -0.0498  0.3469 -0.9064
 3243ntf    on515700   3.149   6.720   5.298  0.2230 -0.2862  0.1976
 3243ntf    on515701   2.957   6.464   5.180  0.1069  0.5396  0.4917
 3243ntf    on515702   2.913   6.526   4.950 -0.3471  0.1813 -0.2190
 3243ntf    fn415703   2.872   6.804   5.028 -0.5069  0.0662  0.0058
 3243ntf    fn415704   2.734   6.667   5.122  0.0146 -0.3587 -0.2959
 3243ntf    fn415705   2.881   6.762   5.235 -0.3057  0.1685  0.0298
 3244ntf    cn115706   7.016   1.867   4.468  0.4806  0.1755 -0.2828
 3244ntf    sn215707   7.089   1.838   4.632 -0.2606  0.3105  0.0791
 3244ntf    nn315708   6.995   1.926   4.721 -0.7678 -0.0757 -0.0713
 3244ntf    sn215709   6.998   2.075   4.770  0.1213 -0.2089  0.2897
 3244ntf    cn115710   7.085   2.069   4.930  0.2634 -0.0005  0.2210
 3244ntf    fn415711   6.905   1.797   4.449  0.0975  0.4622  0.8176
 3244ntf    fn415712   6.977   1.992   4.448  0.0818 -0.0002 -0.6198
 3244ntf    fn415713   7.100   1.831   4.372 -0.4885 -0.1041 -1.0425
 3244ntf    on515714   7.062   1.696   4.639 -0.2991  0.3403  0.5753
 3244ntf    on515715   7.229   1.874   4.629 -0.2190  0.1395 -0.1097
 3244ntf    on515716   6.862   2.116   4.796  0.2971  0.3106  0.3964
 3244ntf    on515717   7.068   2.172   4.690  0.4157 -0.1054  0.6715
 3244ntf    fn415718   7.142   2.185   4.957  0.5433 -0.0724 -0.0544
 3244ntf    fn415719   7.005   2.035   5.030 -0.6011 -0.1313 -0.5032
 3244ntf    fn415720   7.191   1.990   4.921  0.7005  0.6614 -0.5814
 3245ntf    cn115721   0.066   5.103   2.457  0.2141 -0.0201 -0.5990
 3245ntf    sn215722   0.133   5.263   2.512  0.1010 -0.2417  0.1971
 3245ntf    nn315723   0.128   5.348   2.380  0.1243  0.0468  0.3809
 3245ntf    sn215724   0.025   5.454   2.327 -0.0049  0.0676  0.6702
 3245ntf    cn115725   0.024   5.406   2.151 -0.5121  0.4997  0.5521
 3245ntf    fn415726   0.068   5.007   2.548  0.4459  0.5106 -0.0308
 3245ntf    fn415727  -0.061   5.108   2.420 -0.3217  0.1952  1.1507
 3245ntf    fn415728   0.140   5.054   2.359  0.4766 -0.6484 -0.0986
 3245ntf    on515729   0.053   5.318   2.618 -0.0616  0.8432 -0.4789
 3245ntf    on515730   0.272   5.237   2.541  0.2298  0.8145  0.5862
 3245ntf    on515731   0.082   5.586   2.325  0.3970 -0.1066  0.2427
 3245ntf    on515732  -0.112   5.442   2.369  0.0828  0.4008  1.0538
 3245ntf    fn415733  -0.062   5.477   2.081 -0.4997 -0.1544 -0.1360
 3245ntf    fn415734   0.136   5.421   2.082 -0.9274  0.2859 -0.1703
 3245ntf    fn415735  -0.006   5.280   2.125 -0.0657  0.5960 -0.4707
 3246ntf    cn115736   4.981   1.484   5.974 -0.0695 -0.1454  0.4582
 3246ntf    sn215737   4.835   1.442   6.075 -0.0981  0.1208  0.5269
 3246ntf    nn315738   4.783   1.585   6.115 -0.3182  0.1242  0.2318
 3246ntf    sn215739   4.842   1.674   6.230  0.2416  0.0625 -0.0072
 3246ntf    cn115740   4.729   1.648   6.369  0.2527  0.2813  0.0415
 3246ntf    fn415741   5.026   1.376   5.911  0.2388  0.2607 -0.0215
 3246ntf    fn415742   4.950   1.576   5.884 -0.0668  0.2062  0.8186
 3246ntf    fn415743   5.071   1.534   6.057 -0.0872  0.5994  0.0341
 3246ntf    on515744   4.749   1.374   5.981  0.1708 -0.2527  0.5505
 3246ntf    on515745   4.884   1.363   6.185  0.5123 -0.1916  0.0352
 3246ntf    on515746   4.827   1.815   6.204 -0.1334  0.0334  0.0544
 3246ntf    on515747   4.973   1.642   6.283  0.3626  0.0223 -0.3253
 3246ntf    fn415748   4.730   1.526   6.421 -0.1540  0.0668 -0.4468
 3246ntf    fn415749   4.759   1.731   6.468  0.0001 -0.0251  0.3759
 3246ntf    fn415750   4.602   1.669   6.339  0.3280  0.0543 -0.4398
 3247ntf    cn115751   6.648   5.763   1.012 -0.1488 -0.0578  0.1850
 3247ntf    sn215752   6.756   5.904   1.048 -0.3029  0.1550 -0.1802
 3247ntf    nn315753   6.884   5.859   0.969 -0.7113 -0.2850 -0.5958
 3247ntf    sn215754   6.986   5.955   0.897 -0.3703 -0.0537  0.1828
 3247ntf    cn115755   6.918   5.943   0.729 -0.1198 -0.0798  0.0830
 3247ntf    fn415756   6.647   5.725   0.885  0.3730  0.0187  0.1579
 3247ntf    fn415757   6.691   5.650   1.067  0.0546 -0.0115  0.1204
 3247ntf    fn415758   6.525   5.772   1.062 -0.1905 -0.1961  0.1084
 3247ntf    on515759   6.677   6.008   0.988 -0.6778 -0.3178 -0.5134
 3247ntf    on515760   6.776   5.909   1.191 -0.2813  0.3990 -0.1915
 3247ntf    on515761   7.118   5.899   0.884 -0.3141  0.2812 -0.8240
 3247ntf    on515762   6.976   6.094   0.933 -0.0400 -0.0073  0.1047
 3247ntf    fn415763   6.793   5.984   0.713  0.0604  0.5049  0.1916
 3247ntf    fn415764   6.990   6.006   0.637  0.4200 -0.2665  0.3753
 3247ntf    fn415765   6.911   5.819   0.682 -0.6798 -0.0908  0.1903
 3248ntf    cn115766   1.002   0.158   2.623 -0.0770  0.0227  0.2266
 3248ntf    sn215767   0.997  -0.023   2.610 -0.3028  0.0553 -0.1539
 3248ntf    nn315768   0.866  -0.036   2.524 -0.4191 -0.1129  0.0476
 3248ntf    sn215769   0.839  -0.098   2.382 -0.2374  0.1954 -0.1230
 3248ntf    cn115770   0.663  -0.144   2.386 -0.1665 -0.0644 -0.0146
 3248ntf    fn415771   0.897   0.204   2.689  0.0772  0.3364  0.2577
 3248ntf    fn415772   1.108   0.203   2.688  0.1239 -0.1054 -0.0109
 3248ntf    fn415773   0.998   0.214   2.503 -0.0069  0.3697  0.3866
 3248ntf    on515774   1.123  -0.045   2.543 -0.0062  0.5810  0.2299
 3248ntf    on515775   0.981  -0.069   2.746  0.8691  0.3463  0.0901
 3248ntf    on515776   0.912  -0.220   2.360 -0.4437  0.1419 -0.5118
 3248ntf    on515777   0.830   0.003   2.279 -1.0081  0.0203 -0.2313
 3248ntf    fn415778   0.648  -0.243   2.473  0.5294  0.0370  0.2260
 3248ntf    fn415779   0.581  -0.045   2.418 -0.7723 -0.3529 -0.6487
 3248ntf    fn415780   0.625  -0.194   2.270  0.1338  0.1973 -0.2263
 3249ntf    cn115781   6.316   2.679   2.889  0.2178 -0.0002  0.3563
 3249ntf    sn215782   6.382   2.803   2.775 -0.1161 -0.0823  0.0718
 3249ntf    nn315783   6.263   2.831   2.677 -0.1983  0.2206  0.2585
 3249ntf    sn215784   6.270   2.873   2.526  0.3420  0.0719  0.2419
 3249ntf    cn115785   6.233   2.715   2.444 -0.0685  0.1225  0.3269
 3249ntf    fn415786   6.240   2.743   2.976 -0.0665  0.4819 -0.2401
 3249ntf    fn415787   6.244   2.584   2.831  0.1293  0.3346 -0.0824
 3249ntf    fn415788   6.418   2.618   2.948  0.2554  0.1148  0.4087
 3249ntf    on515789   6.411   2.912   2.864 -0.1885  0.1402 -0.1770
 3249ntf    on515790   6.498   2.733   2.725 -0.4981 -0.5592 -0.1568
 3249ntf    on515791   6.400   2.904   2.472  0.2976  0.2795  0.2571
 3249ntf    on515792   6.166   2.967   2.494  0.2963 -0.1102 -0.1504
 3249ntf    fn415793   6.236   2.738   2.314 -0.2010 -0.0529  0.2923
 3249ntf    fn415794   6.322   2.621   2.472 -0.2437 -0.2062 -0.2019
 3249ntf    fn415795   6.112   2.666   2.467 -0.1986  0.0363 -0.4868
 3250ntf    cn115796   6.153   1.703   4.227 -0.2952  0.2781  0.3739
 3250ntf    sn215797   6.284   1.679   4.350  0.2295  0.0033 -0.2308
 3250ntf    nn315798   6.287   1.523   4.358 -0.3746 -0.0119 -0.2456
 3250ntf    sn215799   6.279   1.428   4.483  0.0335  0.1169 -0.1196
 3250ntf    cn115800   6.303   1.266   4.405 -0.0654  0.0326  0.0239
 3250ntf    fn415801   6.179   1.631   4.118 -0.5168  0.2797  0.3195
 3250ntf    fn415802   6.039   1.658   4.277  0.0131 -0.6357  0.2779
 3250ntf    fn415803   6.126   1.830   4.204  0.2573  0.3835  0.3062
 3250ntf    on515804   6.403   1.745   4.302  0.1161  0.2033 -0.2402
 3250ntf    on515805   6.217   1.735   4.465  0.3637  0.0837 -0.1910
 3250ntf    on515806   6.148   1.420   4.543 -0.1751  0.9142 -0.4608
 3250ntf    on515807   6.395   1.442   4.568  0.1013  0.2193 -0.2299
 3250ntf    fn415808   6.278   1.163   4.485 -0.3345  0.0184 -0.0762
 3250ntf    fn415809   6.218   1.254   4.304  0.0646 -0.1692 -0.0636
 3250ntf    fn415810   6.424   1.241   4.358 -0.1972 -0.1975 -0.1999
 3251ntf    cn115811   2.332   6.588   0.796  0.2014 -0.2031 -0.0203
 3251ntf    sn215812   2.321   6.551   0.619  0.1476  0.1025 -0.0802
 3251ntf    nn315813   2.332   6.693   0.552 -0.0675  0.2041  0.0966
 3251ntf    sn215814   2.463   6.777   0.526 -0.1144  0.3214  0.2412
 3251ntf    cn115815   2.395   6.942   0.491 -0.0556  0.2987  0.0186
 3251ntf    fn415816   2.311   6.481   0.872  0.6503 -0.0630  0.3051
 3251ntf    fn415817   2.451   6.636   0.828 -0.0473  0.2208  0.2844
 3251ntf    fn415818   2.245   6.677   0.841  0.3814 -0.1473  0.2191
 3251ntf    on515819   2.441   6.473   0.605  0.4260  0.5012  0.0793
 3251ntf    on515820   2.189   6.495   0.604  0.3562 -0.4756  0.2569
 3251ntf    on515821   2.530   6.749   0.402 -1.0561 -0.5912 -0.0809
 3251ntf    on515822   2.549   6.810   0.637  0.6454 -0.5444 -0.0827
 3251ntf    fn415823   2.481   7.031   0.446  0.1618  0.0232 -0.1167
 3251ntf    fn415824   2.299   6.940   0.400 -0.2810 -0.6040  0.2590
 3251ntf    fn415825   2.333   6.991   0.597  0.0938 -0.3029  0.3909
 3252ntf    cn115826   1.670   0.292   2.194 -0.3165  0.0775  0.1708
 3252ntf    sn215827   1.637   0.423   2.072  0.0236 -0.2478 -0.2718
 3252ntf    nn315828   1.734   0.372   1.960  0.1151  0.0980 -0.3523
 3252ntf    sn215829   1.712   0.250   1.863 -0.1601 -0.2307  0.1224
 3252ntf    cn115830   1.637   0.336   1.722  0.1147 -0.4851 -0.1798
 3252ntf    fn415831   1.607   0.316   2.308 -0.8165  0.7878 -0.2416
 3252ntf    fn415832   1.625   0.173   2.158 -0.8502  0.4011 -0.2497
 3252ntf    fn415833   1.799   0.282   2.220 -0.2100  0.8574 -0.0311
 3252ntf    on515834   1.497   0.410   2.042 -0.1849  0.2391  0.4580
 3252ntf    on515835   1.694   0.544   2.125  0.0048 -0.3185 -0.0894
 3252ntf    on515836   1.613   0.153   1.904 -0.4178 -0.0584 -0.0875
 3252ntf    on515837   1.829   0.201   1.795 -0.2053 -0.0730 -0.0683
 3252ntf    fn415838   1.711   0.432   1.669  0.4427 -0.3997  0.4294
 3252ntf    fn415839   1.620   0.250   1.623 -0.7478  0.4380 -0.8597
 3252ntf    fn415840   1.519   0.395   1.737  0.1301 -0.3149 -0.7124
 3253ntf    cn115841   7.104   5.741   7.160 -0.3402  0.0083  0.0499
 3253ntf    sn215842   7.018   5.775   7.004 -0.4669  0.0359  0.1249
 3253ntf    nn315843   6.958   5.915   7.040  0.2700  0.4057 -0.0805
 3253ntf    sn215844   6.922   6.036   6.945 -0.0366  0.1667 -0.2705
 3253ntf    cn115845   7.082   6.120   6.923  0.1175 -0.1520 -0.3920
 3253ntf    fn415846   7.171   5.628   7.153  0.0864  0.2704 -0.1137
 3253ntf    fn415847   7.196   5.835   7.174 -0.0088 -0.3448  0.2247
 3253ntf    fn415848   7.027   5.739   7.268 -0.6541  0.1194 -0.1696
 3253ntf    on515849   7.113   5.770   6.896 -0.6632  0.3239 -0.0636
 3253ntf    on515850   6.923   5.666   6.995 -0.6989  0.2395  0.1030
 3253ntf    on515851   6.844   6.133   7.017  0.2724  0.0236  0.2647
 3253ntf    on515852   6.887   5.993   6.812 -0.4294  0.1123 -0.1511
 3253ntf    fn415853   7.133   6.139   7.043 -0.5645 -0.5298 -0.0322
 3253ntf    fn415854   7.159   6.034   6.860 -0.3574 -0.9041  0.0315
 3253ntf    fn415855   7.090   6.238   6.864  0.3122  0.0380  0.0063
 3254ntf    cn115856   1.924   3.177   5.930 -0.4790  0.1724 -0.2979
 3254ntf    sn215857   1.876   3.058   6.058  0.4684  0.1488  0.0450
 3254ntf    nn315858   1.997   3.072   6.156  0.7497 -0.0715 -0.2697
 3254ntf    sn215859   2.019   3.048   6.310  0.0158  0.1738 -0.1246
 3254ntf    cn115860   2.028   3.226   6.345  0.1772  0.2094 -0.3434
 3254ntf    fn415861   1.977   3.279   5.995 -0.1899 -0.1464 -0.0333
 3254ntf    fn415862   2.027   3.130   5.862 -0.1812 -0.0590  0.3112
 3254ntf    fn415863   1.828   3.218   5.848 -0.3995 -0.0161 -0.4839
 3254ntf    on515864   1.746   3.099   6.105  0.1931 -0.2925 -0.3173
 3254ntf    on515865   1.883   2.936   5.981  0.1151  0.4136 -0.4135
 3254ntf    on515866   2.145   2.988   6.344 -0.0539  0.2385  0.2471
 3254ntf    on515867   1.902   3.000   6.378 -0.2272 -0.2364 -0.8177
 3254ntf    fn415868   2.158   3.254   6.346  0.2496 -0.1155 -0.5164
 3254ntf    fn415869   1.969   3.299   6.252 -0.2145  0.4173  0.0615
 3254ntf    fn415870   1.973   3.262   6.460  0.4832 -0.0417 -0.1186
 3255ntf    cn115871   6.642   3.850   2.625  0.2778  0.2103  0.0748
 3255ntf    sn215872   6.720   3.694   2.676 -0.1325  0.0090  0.0901
 3255ntf    nn315873   6.688   3.606   2.549 -0.4715 -0.6196  0.6047
 3255ntf    sn215874   6.794   3.530   2.462 -0.3962  0.0186  0.1367
 3255ntf    cn115875   6.704   3.489   2.309  0.0068 -0.4041  0.0110
 3255ntf    fn415876   6.517   3.829   2.588  0.3821 -0.5037  0.1196
 3255ntf    fn415877   6.646   3.938   2.724 -0.5250  0.5481 -0.1800
 3255ntf    fn415878   6.703   3.909   2.524  0.0129 -0.1683 -0.3096
 3255ntf    on515879   6.858   3.730   2.695 -0.0809  0.0928 -0.4255
 3255ntf    on515880   6.640   3.658   2.790 -0.0735  0.0964  0.1582
 3255ntf    on515881   6.827   3.405   2.524  0.1690  0.1797  0.1705
 3255ntf    on515882   6.907   3.600   2.405  0.3208 -0.6710  0.6950
 3255ntf    fn415883   6.782   3.432   2.219 -0.0941 -0.3232 -0.1270
 3255ntf    fn415884   6.598   3.412   2.323 -0.2030 -0.1612 -0.2445
 3255ntf    fn415885   6.661   3.599   2.251  0.3783 -0.3344 -0.1372
 3256ntf    cn115886   6.909   2.910   6.585  0.5728 -0.0534 -0.0329
 3256ntf    sn215887   6.828   3.070   6.556  0.1648 -0.2366  0.0834
 3256ntf    nn315888   6.767   3.097   6.698 -0.4149  0.1197 -0.2316
 3256ntf    sn215889   6.842   3.167   6.817 -0.0647 -0.1408 -0.2986
 3256ntf    cn115890   6.855   3.345   6.782  0.5480 -0.1051  0.0895
 3256ntf    fn415891   6.958   2.855   6.475  0.2649 -0.1325 -0.1300
 3256ntf    fn415892   7.008   2.917   6.673  0.1425  0.0145  0.4552
 3256ntf    fn415893   6.827   2.824   6.644  0.2336  0.2391 -0.0787
 3256ntf    on515894   6.933   3.160   6.514  0.1028 -0.1698  0.0704
 3256ntf    on515895   6.726   3.040   6.459 -0.2307 -0.1566  0.4743
 3256ntf    on515896   6.972   3.112   6.847 -0.3497 -0.3439  0.5733
 3256ntf    on515897   6.752   3.179   6.929 -0.1279  0.3870 -0.4059
 3256ntf    fn415898   6.922   3.406   6.878  0.1101 -0.1580  0.4309
 3256ntf    fn415899   6.920   3.374   6.670  0.4786 -0.6177 -0.0853
 3256ntf    fn415900   6.739   3.407   6.768  0.3051 -0.4722  0.4581
 3257ntf    cn115901   1.172   0.499   2.934 -0.2627  0.0982  0.2787
 3257ntf    sn215902   1.002   0.557   2.964 -0.2736  0.1085  0.1991
 3257ntf    nn315903   1.030   0.647   3.090  0.5175 -0.1146  0.1884
 3257ntf    sn215904   1.052   0.802   3.106  0.1191 -0.0471  0.0968
 3257ntf    cn115905   1.065   0.824   3.286 -0.2166  0.0322  0.1103
 3257ntf    fn415906   1.178   0.401   2.845  0.2061  0.1957  0.2047
 3257ntf    fn415907   1.246   0.598   2.887 -0.4326  0.2022  0.2291
 3257ntf    fn415908   1.231   0.454   3.043 -0.7697 -0.2360  0.4222
 3257ntf    on515909   0.962   0.624   2.843  0.1657 -0.9179 -0.5257
 3257ntf    on515910   0.933   0.434   2.991  0.3317 -0.1930  0.3729
 3257ntf    on515911   0.941   0.886   3.068  0.1549 -0.0437  0.0001
 3257ntf    on515912   1.181   0.838   3.052  0.1811 -0.0017  0.2740
 3257ntf    fn415913   1.135   0.727   3.340  0.1016 -0.0168 -0.3845
 3257ntf    fn415914   1.119   0.941   3.316 -0.0332 -0.0641  0.1552
 3257ntf    fn415915   0.941   0.816   3.332 -0.2569 -0.0217 -0.0063
 3258ntf    cn115916   3.760   3.061   3.835  0.0479 -0.1151  0.0377
 3258ntf    sn215917   3.670   3.186   3.932  0.2395  0.0425  0.0127
 3258ntf    nn315918   3.625   3.101   4.056  0.0108  0.0358 -0.0735
 3258ntf    sn215919   3.478   3.065   4.097 -0.0309  0.3310  0.0359
 3258ntf    cn115920   3.471   2.897   4.029  0.0144  0.1712  0.4251
 3258ntf    fn415921   3.858   3.012   3.909  0.0031  0.2978  0.3749
 3258ntf    fn415922   3.682   2.956   3.812 -0.1782  0.0595  0.0105
 3258ntf    fn415923   3.821   3.099   3.725  0.6016 -0.5825  0.1795
 3258ntf    on515924   3.775   3.282   3.952  0.6703 -0.3007 -0.5489
 3258ntf    on515925   3.572   3.227   3.834 -0.4177 -0.6277  0.3781
 3258ntf    on515926   3.369   3.133   4.031  0.0654  0.6285  0.1789
 3258ntf    on515927   3.465   3.039   4.238  0.0736  0.2434  0.0293
 3258ntf    fn415928   3.564   2.818   4.079  0.2296  0.3693  0.3396
 3258ntf    fn415929   3.360   2.837   4.070  0.1972 -0.5140 -0.0738
 3258ntf    fn415930   3.478   2.884   3.898 -0.8770 -0.4705  0.4303
 3259ntf    cn115931   2.235   3.520   6.863 -0.2422  0.5559 -0.2059
 3259ntf    sn215932   2.159   3.515   7.029  0.0047  0.0051 -0.1070
 3259ntf    nn315933   2.250   3.611   7.114  0.4135 -0.3317 -0.1580
 3259ntf    sn215934   2.375   3.594   7.207  0.3570 -0.1351 -0.0456
 3259ntf    cn115935   2.298   3.604   7.371 -0.3139  0.0192 -0.3659
 3259ntf    fn415936   2.175   3.444   6.772  0.3731 -0.1106 -0.0650
 3259ntf    fn415937   2.247   3.643   6.817  0.1687  0.4306 -0.4318
 3259ntf    fn415938   2.358   3.474   6.877 -0.2121  0.6685 -0.1039
 3259ntf    on515939   2.024   3.565   7.022 -0.0013 -0.1084 -0.8818
 3259ntf    on515940   2.166   3.376   7.066 -0.5163  0.1046  0.3645
 3259ntf    on515941   2.470   3.702   7.196  0.2316  0.0165  0.3877
 3259ntf    on515942   2.421   3.458   7.216  0.2284 -0.1818 -0.0857
 3259ntf    fn415943   2.382   3.607   7.474  0.2124  0.6165 -0.8052
 3259ntf    fn415944   2.234   3.719   7.383  0.0991  0.2875 -0.6711
 3259ntf    fn415945   2.212   3.506   7.394 -0.4802  0.1471 -0.4457
 3260ntf    cn115946   0.800   5.993   6.188 -0.3970  0.0590 -0.1081
 3260ntf    sn215947   0.733   5.869   6.303 -0.3667  0.2019  0.0645
 3260ntf    nn315948   0.833   5.881   6.424  0.0373  0.1374 -0.2588
 3260ntf    sn215949   0.952   5.791   6.470 -0.1575 -0.1660 -0.3485
 3260ntf    cn115950   0.871   5.699   6.604  0.2219 -0.1298 -0.0928
 3260ntf    fn415951   0.816   6.117   6.230 -0.5747  0.1266 -0.2356
 3260ntf    fn415952   0.920   5.961   6.143 -0.4410 -0.0869 -0.1241
 3260ntf    fn415953   0.720   6.005   6.083 -0.4897  0.0781 -0.0358
 3260ntf    on515954   0.606   5.920   6.346 -0.6890 -0.4014 -0.1670
 3260ntf    on515955   0.733   5.742   6.234 -1.3072  0.4656 -0.4282
 3260ntf    on515956   1.052   5.869   6.539 -0.3921  0.1161 -0.3279
 3260ntf    on515957   1.004   5.694   6.376 -0.4108 -0.4375 -0.2102
 3260ntf    fn415958   0.951   5.616   6.669  0.1097  0.0029  0.2163
 3260ntf    fn415959   0.812   5.774   6.696 -0.1049  0.0946 -0.4832
 3260ntf    fn415960   0.776   5.621   6.556  0.1712 -0.1549  0.0493
 3261ntf    cn115961   1.871   2.422   2.165  0.1464 -0.2570 -0.0497
 3261ntf    sn215962   1.806   2.447   2.332 -0.2621 -0.0076 -0.2426
 3261ntf    nn315963   1.721   2.316   2.350 -0.0653 -0.1715 -0.5060
 3261ntf    sn215964   1.759   2.189   2.433  0.0758  0.0621 -0.2142
 3261ntf    cn115965   1.716   2.233   2.605 -0.5404 -0.1028 -0.3246
 3261ntf    fn415966   1.931   2.531   2.119  0.1366 -0.1572  0.1774
 3261ntf    fn415967   1.958   2.323   2.153  0.0536 -0.2854 -0.5321
 3261ntf    fn415968   1.780   2.381   2.078  0.3306 -0.6552 -0.0571
 3261ntf    on515969   1.931   2.463   2.403  0.0494  0.1818 -0.8339
 3261ntf    on515970   1.726   2.566   2.321 -0.8494 -0.3525  0.2248
 3261ntf    on515971   1.902   2.173   2.434  0.1272  0.4463  0.8850
 3261ntf    on515972   1.676   2.077   2.395  0.6668 -0.3363 -0.3465
 3261ntf    fn415973   1.769   2.149   2.692  0.0967  0.3463 -0.2741
 3261ntf    fn415974   1.766   2.353   2.628  0.1714 -0.4458 -0.0324
 3261ntf    fn415975   1.588   2.229   2.638 -0.4514  0.3793  0.0829
 3262ntf    cn115976   5.931   5.556   3.649 -0.0230  0.0439 -0.4532
 3262ntf    sn215977   5.843   5.715   3.653  0.1305  0.1143  0.4038
 3262ntf    nn315978   5.921   5.801   3.547 -0.3621  0.0757  0.0065
 3262ntf    sn215979   5.873   5.926   3.465 -0.0134  0.1218 -0.1284
 3262ntf    cn115980   5.920   6.066   3.572  0.0428  0.0672 -0.0817
 3262ntf    fn415981   5.878   5.470   3.734 -0.1067  0.1574 -0.3906
 3262ntf    fn415982   5.915   5.501   3.530 -0.2724 -0.0615 -0.3707
 3262ntf    fn415983   6.059   5.562   3.683 -0.1982  0.2057  0.1939
 3262ntf    on515984   5.707   5.681   3.621  0.2233  0.4392 -0.3567
 3262ntf    on515985   5.874   5.763   3.785 -0.1046  0.3019  0.3906
 3262ntf    on515986   5.730   5.941   3.453 -0.0495 -0.0103  0.1222
 3262ntf    on515987   5.958   5.958   3.353 -0.0576  0.3402 -0.0999
 3262ntf    fn415988   5.859   6.068   3.690 -0.3707  0.8588 -0.3009
 3262ntf    fn415989   6.047   6.052   3.607  0.0940  0.3312 -0.1618
 3262ntf    fn415990   5.906   6.188   3.523  0.0374 -0.1197 -0.5451
 3263ntf    cn115991   6.207   3.665   1.094  0.2885  0.5869 -0.0822
 3263ntf    sn215992   6.241   3.489   1.128 -0.2292  0.3925 -0.5506
 3263ntf    nn315993   6.219   3.483   1.283 -0.4195 -0.3720 -0.6037
 3263ntf    sn215994   6.099   3.437   1.374 -0.1724  0.2168  0.0225
 3263ntf    cn115995   6.126   3.260   1.344 -0.1664  0.2288 -0.0429
 3263ntf    fn415996   6.320   3.715   1.049  0.3424  0.1494 -0.4431
 3263ntf    fn415997   6.110   3.694   1.008  0.3159  0.1560 -0.2635
 3263ntf    fn415998   6.174   3.723   1.209 -0.5441 -0.3201  0.1576
 3263ntf    on515999   6.136   3.422   1.055  0.3616 -0.4887 -0.6011
 3263ntf    on516000   6.379   3.467   1.093 -0.0541  0.8383 -0.1562
 3263ntf    on516001   5.967   3.477   1.332 -0.1242 -0.3251 -0.6411
 3263ntf    on516002   6.130   3.455   1.514 -0.1322 -0.1532  0.0605
 3263ntf    fn416003   6.252   3.221   1.353 -0.4014 -0.6800 -0.5896
 3263ntf    fn416004   6.059   3.187   1.432  0.2522 -0.2554 -0.1259
 3263ntf    fn416005   6.082   3.227   1.224  0.0071  0.8369 -0.2760
 3264ntf    cn116006   1.809   6.344   4.108 -0.0146 -0.1272 -0.5630
 3264ntf    sn216007   1.833   6.183   4.188 -0.1373  0.1628  0.0615
 3264ntf    nn316008   1.929   6.230   4.304 -0.0876  0.0719  0.0573
 3264ntf    sn216009   2.085   6.214   4.295 -0.0712  0.1352  0.2440
 3264ntf    cn116010   2.108   6.036   4.324 -0.1855  0.0680 -0.0790
 3264ntf    fn416011   1.749   6.427   4.192  0.0016 -0.4502 -0.2277
 3264ntf    fn416012   1.926   6.394   4.072  0.1844 -0.0547  0.1616
 3264ntf    fn416013   1.735   6.331   3.999 -0.5163 -0.1949 -0.2205
 3264ntf    on516014   1.704   6.142   4.236 -0.3779 -0.1202 -0.8096
 3264ntf    on516015   1.888   6.097   4.087 -0.5946 -0.1619  0.0842
 3264ntf    on516016   2.145   6.273   4.412 -0.2301  0.9192 -0.0636
 3264ntf    on516017   2.142   6.246   4.167 -0.5362 -0.6096 -0.1551
 3264ntf    fn416018   2.234   5.997   4.313 -0.1631  0.0700  0.1686
 3264ntf    fn416019   2.076   6.004   4.448  0.3167 -0.2033 -0.0203
 3264ntf    fn416020   2.033   5.965   4.241 -0.1499  0.0411 -0.0880
 3265ntf    cn116021   5.132   3.007   6.404  0.2457 -0.3363  0.0553
 3265ntf    sn216022   5.140   2.944   6.574 -0.2500  0.4894  0.3925
 3265ntf    nn316023   5.244   2.827   6.567 -0.3140  0.4836 -0.5196
 3265ntf    sn216024   5.222   2.672   6.555 -0.1187  0.4250 -0.1131
 3265ntf    cn116025   5.242   2.617   6.727  0.2290  0.0687 -0.2675
 3265ntf    fn416026   5.066   2.941   6.310 -0.0656 -0.0828  0.0919
 3265ntf    fn416027   5.080   3.129   6.401 -0.0547 -0.4626  0.1112
 3265ntf    fn416028   5.255   3.018   6.358 -0.1158 -0.2969 -0.9235
 3265ntf    on516029   5.194   3.059   6.642  0.2946  0.2110  0.4387
 3265ntf    on516030   5.010   2.897   6.614  0.1014 -0.4050  0.5097
 3265ntf    on516031   5.334   2.609   6.489  0.6759  0.6717  0.9610
 3265ntf    on516032   5.090   2.625   6.523  0.0109 -0.1245  0.1396
 3265ntf    fn416033   5.368   2.638   6.765  0.0599 -0.1363  0.4265
 3265ntf    fn416034   5.163   2.675   6.815  0.1152 -0.2961 -0.1274
 3265ntf    fn416035   5.222   2.487   6.742 -0.0112  0.1593  0.2222
 3266ntf    cn116036   2.346   1.008   2.691  0.0113 -0.2712 -0.4016
 3266ntf    sn216037   2.454   1.107   2.798 -0.0811 -0.2993 -0.2820
 3266ntf    nn316038   2.350   1.184   2.887  0.2192 -0.2365  0.0180
 3266ntf    sn216039   2.316   1.337   2.893  0.2340 -0.2312 -0.0364
 3266ntf    cn116040   2.147   1.308   2.953  0.1402  0.1964 -0.0877
 3266ntf    fn416041   2.418   0.918   2.627  0.3680 -0.1883 -0.1175
 3266ntf    fn416042   2.255   0.933   2.752  0.1847 -0.4293 -0.3366
 3266ntf    fn416043   2.282   1.073   2.594  0.1349 -0.1981 -0.4340
 3266ntf    on516044   2.531   1.022   2.885 -0.4605 -0.5657 -0.2045
 3266ntf    on516045   2.533   1.185   2.706  0.0648 -0.6413 -0.4454
 3266ntf    on516046   2.308   1.392   2.760 -0.3788 -0.2540 -0.0093
 3266ntf    on516047   2.386   1.403   3.000 -0.1994 -0.3667  0.3340
 3266ntf    fn416048   2.134   1.267   3.078 -0.0321 -0.0744 -0.1922
 3266ntf    fn416049   2.073   1.417   2.944  0.3979  0.3850  0.0566
 3266ntf    fn416050   2.086   1.218   2.877 -0.1406 -0.2608  0.6638
 3267ntf    cn116051   5.410   3.449   5.741  0.1089  0.1633 -0.0375
 3267ntf    sn216052   5.287   3.315   5.752  0.0449  0.2176 -0.0924
 3267ntf    nn316053   5.171   3.379   5.835 -0.2009  0.2857 -0.4878
 3267ntf    sn216054   5.063   3.488   5.799  0.1906  0.7326 -0.3170
 3267ntf    cn116055   5.110   3.604   5.931 -0.0209 -0.0358  0.4409
 3267ntf    fn416056   5.512   3.426   5.660 -0.0962  0.0316 -0.2586
 3267ntf    fn416057   5.349   3.557   5.696  0.1677 -0.0266 -0.5798
 3267ntf    fn416058   5.469   3.482   5.855  0.2498 -0.0008 -0.0603
 3267ntf    on516059   5.251   3.289   5.615  0.7623 -0.5243 -0.1497
 3267ntf    on516060   5.364   3.205   5.804  0.0520  0.4218  0.3335
 3267ntf    on516061   4.923   3.458   5.814  0.2626  0.4943 -0.1124
 3267ntf    on516062   5.084   3.571   5.683 -0.0920  0.1541 -0.7833
 3267ntf    fn416063   5.236   3.642   5.918  0.1831 -0.8188  0.0512
 3267ntf    fn416064   5.028   3.708   5.937 -0.1330 -0.0937 -0.0633
 3267ntf    fn416065   5.104   3.544   6.049  0.1846  0.3312  0.6410
 3268ntf    cn116066   4.727   5.116   1.133 -0.4180 -0.3291 -0.4038
 3268ntf    sn216067   4.732   5.163   0.958  0.3073 -0.1421 -0.3331
 3268ntf    nn316068   4.617   5.071   0.903 -0.2381 -0.1621  0.8136
 3268ntf    sn216069   4.466   5.106   0.881 -0.0993 -0.1078 -0.1275
 3268ntf    cn116070   4.431   5.006   0.733 -0.1368 -0.2602 -0.0162
 3268ntf    fn416071   4.604   5.119   1.184 -0.1341 -0.6248  0.3124
 3268ntf    fn416072   4.763   4.992   1.160  0.2361 -0.1340 -0.3572
 3268ntf    fn416073   4.809   5.193   1.202 -0.5547 -0.5018 -0.0463
 3268ntf    on516074   4.716   5.306   0.959  0.4318 -0.1314  0.2217
 3268ntf    on516075   4.860   5.105   0.925  0.3219 -0.5698  0.4487
 3268ntf    on516076   4.438   5.235   0.824 -0.3810  0.1606  0.6092
 3268ntf    on516077   4.386   5.051   0.989  0.6182 -0.2897  0.3161
 3268ntf    fn416078   4.546   4.969   0.679  0.0706 -0.5958  0.6439
 3268ntf    fn416079   4.374   4.896   0.780  0.1318 -0.6026 -0.4903
 3268ntf    fn416080   4.348   5.056   0.643 -0.0854 -0.5158 -0.2065
 3269ntf    cn116081   0.956   2.988   6.753  0.0768 -0.4667  0.0570
 3269ntf    sn216082   1.118   2.971   6.834 -0.0939  0.1445  0.5337
 3269ntf    nn316083   1.121   2.814   6.841 -0.0058  0.1307  0.2225
 3269ntf    sn216084   1.163   2.724   6.963 -0.1066 -0.2519 -0.0251
 3269ntf    cn116085   1.002   2.715   7.046  0.1127 -0.1567  0.4164
 3269ntf    fn416086   0.944   2.922   6.639  0.1527 -0.0708 -0.1818
 3269ntf    fn416087   0.861   2.941   6.832 -0.3159  0.6907  0.2949
 3269ntf    fn416088   0.926   3.115   6.733  0.3610 -0.3179  0.5642
 3269ntf    on516089   1.210   3.032   6.741 -0.5854  0.3254  0.1596
 3269ntf    on516090   1.091   3.039   6.958 -0.0130  0.3512  0.4394
 3269ntf    on516091   1.246   2.780   7.067  0.1880  0.2053 -0.4951
 3269ntf    on516092   1.192   2.588   6.924  0.2015 -0.0140 -0.6417
 3269ntf    fn416093   0.966   2.821   7.117 -0.2470  0.1820 -0.2568
 3269ntf    fn416094   0.913   2.704   6.949 -0.1286 -0.9605  0.7188
 3269ntf    fn416095   0.975   2.604   7.113 -0.1464 -0.7923 -0.7002
 3270ntf    cn116096   3.510   5.332   2.715  0.1335  0.1526 -0.0493
 3270ntf    sn216097   3.523   5.390   2.887  0.2258 -0.1182  0.0346
 3270ntf    nn316098   3.620   5.288   2.956  0.2605 -0.0681  0.0598
 3270ntf    sn216099   3.599   5.198   3.083  0.4532 -0.2093 -0.0078
 3270ntf    cn116100   3.525   5.045   3.017  0.3990 -0.3414  0.3556
 3270ntf    fn416101   3.628   5.297   2.665  0.1896  0.5094 -0.1718
 3270ntf    fn416102   3.421   5.237   2.693 -0.3935  0.5459  0.3688
 3270ntf    fn416103   3.455   5.427   2.641 -0.3292 -0.2197 -0.1832
 3270ntf    on516104   3.581   5.521   2.882 -0.5632  0.2234 -0.3956
 3270ntf    on516105   3.385   5.386   2.930  0.1744 -0.4292 -0.1546
 3270ntf    on516106   3.494   5.244   3.171  0.3280  0.1765 -0.3593
 3270ntf    on516107   3.723   5.159   3.146  0.0171 -0.5141  0.6787
 3270ntf    fn416108   3.422   4.996   3.084  0.0066  0.1011  0.0817
 3270ntf    fn416109   3.493   5.064   2.890 -0.5190 -0.0634  0.6248
 3270ntf    fn416110   3.622   4.955   3.022  0.5457 -0.1908  0.2376
 3271ntf    cn116111   1.409   1.506   2.388 -0.2039  0.1655 -0.4829
 3271ntf    sn216112   1.583   1.557   2.408 -0.2187  0.0123  0.0631
 3271ntf    nn316113   1.610   1.530   2.560 -0.0456  0.0933  0.0464
 3271ntf    sn216114   1.667   1.405   2.637  0.5303  0.2502 -0.1192
 3271ntf    cn116115   1.753   1.485   2.776  0.2289  0.0151  0.2054
 3271ntf    fn416116   1.376   1.400   2.459  0.1000  0.1460 -0.3656
 3271ntf    fn416117   1.324   1.604   2.414 -0.4941 -0.1521 -0.2311
 3271ntf    fn416118   1.383   1.477   2.262 -0.0629 -0.3710 -0.3894
 3271ntf    on516119   1.657   1.474   2.316 -0.0409  0.8287 -0.5400
 3271ntf    on516120   1.584   1.696   2.372 -0.4789 -0.0014  0.0016
 3271ntf    on516121   1.780   1.349   2.568 -0.0712 -0.2102 -0.7409
 3271ntf    on516122   1.563   1.320   2.689  0.7604 -0.3286 -0.6061
 3271ntf    fn416123   1.839   1.408   2.841  0.5436  0.4736  0.3374
 3271ntf    fn416124   1.816   1.594   2.734  0.1776 -0.0498 -0.0442
 3271ntf    fn416125   1.667   1.530   2.866  0.1307 -0.1096  0.1739
 3272ntf    cn116126   0.371   0.423   3.371 -0.2675 -0.3554  0.0508
 3272ntf    sn216127   0.287   0.428   3.210 -0.1247 -0.2108 -0.0197
 3272ntf    nn316128   0.333   0.295   3.140 -0.3341 -0.0490 -0.4634
 3272ntf    sn216129   0.285   0.147   3.163  0.1219 -0.1044  0.1476
 3272ntf    cn116130   0.446   0.063   3.174  0.0888 -0.2243 -0.2675
 3272ntf    fn416131   0.351   0.537   3.434  0.0820  0.0601 -0.5751
 3272ntf    fn416132   0.329   0.329   3.455 -0.0663  0.0432  0.6021
 3272ntf    fn416133   0.502   0.406   3.357 -0.2166  0.0742  0.0073
 3272ntf    on516134   0.149   0.432   3.252 -0.2784 -0.3376 -0.5111
 3272ntf    on516135   0.344   0.543   3.145 -0.1447 -0.1444  0.0800
 3272ntf    on516136   0.224   0.084   3.048 -0.4467  0.1791  0.2895
 3272ntf    on516137   0.235   0.117   3.295 -0.5975 -0.4402 -0.1987
 3272ntf    fn416138   0.521   0.120   3.267 -0.1775 -0.2803 -0.0174
 3272ntf    fn416139   0.441  -0.064   3.207  0.1633 -0.1303  0.1058
 3272ntf    fn416140   0.505   0.071   3.056  0.3465  0.0934 -0.1188
 3273ntf    cn116141   2.548   5.151   0.828 -0.1844 -0.1786  0.3037
 3273ntf    sn216142   2.504   5.155   0.651  0.3349  0.0372  0.1751
 3273ntf    nn316143   2.457   5.006   0.632 -0.1043  0.1404  0.4258
 3273ntf    sn216144   2.470   4.912   0.507  0.2463  0.4714  0.2128
 3273ntf    cn116145   2.333   4.966   0.401  0.1266  0.0948  0.1756
 3273ntf    fn416146   2.628   5.049   0.854 -0.3228 -0.1761  0.7412
 3273ntf    fn416147   2.619   5.257   0.863 -0.3687  0.1050 -0.1714
 3273ntf    fn416148   2.451   5.143   0.917 -0.0844 -0.3980  0.3920
 3273ntf    on516149   2.404   5.258   0.654  0.4415  0.1652 -0.5678
 3273ntf    on516150   2.627   5.187   0.583  0.5742 -0.0391  0.5689
 3273ntf    on516151   2.449   4.776   0.550  0.0717  0.4718  0.1276
 3273ntf    on516152   2.589   4.925   0.425  0.2880  0.0388  0.2037
 3273ntf    fn416153   2.344   5.094   0.368 -0.2735 -0.0417 -0.5189
 3273ntf    fn416154   2.326   4.900   0.286  0.2821  0.1062  0.1592
 3273ntf    fn416155   2.212   4.961   0.455  0.3101 -0.4359  0.5434
 3274ntf    cn116156   5.204   1.223   1.690  0.5448  0.1459  0.1555
 3274ntf    sn216157   5.157   1.378   1.772 -0.0658 -0.1445  0.3550
 3274ntf    nn316158   5.032   1.393   1.678 -0.2604  0.0715  0.6431
 3274ntf    sn216159   4.974   1.514   1.597  0.0792 -0.0943  0.1501
 3274ntf    cn116160   4.853   1.577   1.717  0.3058 -0.2306  0.4478
 3274ntf    fn416161   5.101   1.140   1.692  0.3923  0.3392  0.5484
 3274ntf    fn416162   5.240   1.238   1.564  0.0984 -0.7361 -0.0791
 3274ntf    fn416163   5.306   1.164   1.750  0.3317  0.3921  0.7739
 3274ntf    on516164   5.123   1.338   1.907  0.3167  0.2360  0.5676
 3274ntf    on516165   5.269   1.468   1.764 -0.4853  0.4504  0.9651
 3274ntf    on516166   4.900   1.453   1.489 -0.2760 -0.0738  0.3806
 3274ntf    on516167   5.057   1.629   1.570  0.2955 -0.1455  0.5959
 3274ntf    fn416168   4.764   1.489   1.760  0.5715 -0.5161  0.4247
 3274ntf    fn416169   4.918   1.623   1.823  0.1279 -0.0564  0.4806
 3274ntf    fn416170   4.795   1.688   1.675 -0.0120 -0.4521  0.3029
 3275ntf    cn116171   3.177   3.613   6.802 -0.2030 -0.1851  0.1161
 3275ntf    sn216172   3.277   3.520   6.681  0.0211 -0.0260  0.1764
 3275ntf    nn316173   3.212   3.377   6.691 -0.4200  0.1425 -0.2093
 3275ntf    sn216174   3.175   3.277   6.577 -0.2483 -0.1410 -0.0182
 3275ntf    cn116175   2.995   3.306   6.565 -0.2738 -0.2390  0.1196
 3275ntf    fn416176   3.232   3.732   6.823 -0.0594 -0.2029 -0.1567
 3275ntf    fn416177   3.050   3.625   6.767 -0.3038 -0.5721  0.3466
 3275ntf    fn416178   3.194   3.539   6.910  0.4146  0.0893  0.2138
 3275ntf    on516179   3.259   3.592   6.557  0.0716 -0.7684 -0.2667
 3275ntf    on516180   3.414   3.523   6.725  0.0029 -0.4763  0.2703
 3275ntf    on516181   3.186   3.138   6.616 -0.2777 -0.1346  0.0132
 3275ntf    on516182   3.226   3.307   6.446  0.1758  0.1160  0.2059
 3275ntf    fn416183   2.976   3.431   6.527 -0.1181 -0.2688 -0.0619
 3275ntf    fn416184   2.950   3.229   6.467 -0.3240 -0.5297  0.3702
 3275ntf    fn416185   2.919   3.286   6.671 -0.4253  0.2130  0.0995
 3276ntf    cn116186   0.539   6.636   2.433 -0.1679  0.2499  0.1687
 3276ntf    sn216187   0.453   6.498   2.352  0.3454  0.1931 -0.2808
 3276ntf    nn316188   0.396   6.568   2.223 -0.1769  0.0406 -0.1352
 3276ntf    sn216189   0.256   6.560   2.153 -0.0439 -0.0961 -0.3859
 3276ntf    cn116190   0.267   6.682   2.018 -0.2248  0.0817 -0.2398
 3276ntf    fn416191   0.614   6.605   2.538  0.0841 -0.4908 -0.2299
 3276ntf    fn416192   0.616   6.695   2.344  0.5127 -0.4378  0.2947
 3276ntf    fn416193   0.448   6.722   2.477 -0.2808  0.4568 -0.4697
 3276ntf    on516194   0.561   6.407   2.322 -0.0910 -0.5394  0.3222
 3276ntf    on516195   0.363   6.445   2.451  0.4044  0.1466 -0.2514
 3276ntf    on516196   0.139   6.589   2.232  0.2866  0.5141 -0.1091
 3276ntf    on516197   0.246   6.440   2.074 -0.8885 -0.3799  0.1412
 3276ntf    fn416198   0.382   6.668   1.954 -0.0688  0.1369  0.0284
 3276ntf    fn416199   0.171   6.674   1.926  0.1835  0.2743 -0.6857
 3276ntf    fn416200   0.261   6.808   2.058  0.6082 -0.0139  0.2040
 3277ntf    cn116201   4.500   2.018   2.297 -0.1515 -0.4898  0.0904
 3277ntf    sn216202   4.339   1.935   2.281 -0.3495 -0.0918  0.0176
 3277ntf    nn316203   4.282   1.990   2.145 -0.7443 -0.4461  0.0399
 3277ntf    sn216204   4.183   2.111   2.130 -0.3006 -0.0785  0.0792
 3277ntf    cn116205   4.285   2.232   2.040  0.2336 -0.3679  0.2897
 3277ntf    fn416206   4.599   1.979   2.218 -0.2060  0.0308 -0.2384
 3277ntf    fn416207   4.486   2.149   2.287  0.2395 -0.3996  0.6854
 3277ntf    fn416208   4.546   2.013   2.421 -0.2576  0.0315  0.1525
 3277ntf    on516209   4.366   1.794   2.268  0.3031  0.0558 -0.2740
 3277ntf    on516210   4.269   1.973   2.402  0.0909  0.1547  0.1982
 3277ntf    on516211   4.138   2.194   2.239  0.4251  0.3928  0.0286
 3277ntf    on516212   4.076   2.090   2.036 -0.0417 -0.8195 -0.0601
 3277ntf    fn416213   4.319   2.191   1.919 -0.4272  0.2435 -0.1090
 3277ntf    fn416214   4.220   2.345   2.017 -0.1520 -0.6313  0.0783
 3277ntf    fn416215   4.399   2.261   2.101  0.0167  0.0350  0.5042
 3278ntf    cn116216   2.867   4.479   2.269  0.1043 -0.3376 -0.0888
 3278ntf    sn216217   2.977   4.559   2.147 -0.0454 -0.0497 -0.0337
 3278ntf    nn316218   2.935   4.710   2.164  0.3100  0.0418  0.0316
 3278ntf    sn216219   2.901   4.817   2.054  0.0750  0.0910  0.1535
 3278ntf    cn116220   2.720   4.808   2.068  0.0992 -0.1921  0.2991
 3278ntf    fn416221   2.885   4.349   2.283 -0.2845 -0.4539 -0.6211
 3278ntf    fn416222   2.877   4.535   2.388  0.1933  0.0113 -0.2575
 3278ntf    fn416223   2.738   4.497   2.248  0.1520 -0.1152 -0.2008
 3278ntf    on516224   3.105   4.528   2.205  0.0081  0.0396 -0.1050
 3278ntf    on516225   2.952   4.494   2.021  0.8271 -0.2274 -0.1183
 3278ntf    on516226   2.927   4.789   1.915  0.0173  0.4551  0.0682
 3278ntf    on516227   2.932   4.949   2.103  0.4186  0.0649  0.0012
 3278ntf    fn416228   2.670   4.690   2.035 -0.5395  0.2226 -0.2564
 3278ntf    fn416229   2.680   4.832   2.192 -0.5681 -0.3050  0.1106
 3278ntf    fn416230   2.653   4.898   1.996  0.6975  0.3846  0.4542
 3279ntf    cn116231   3.262   6.012   0.967  0.0315 -0.1402 -0.0160
 3279ntf    sn216232   3.305   6.127   1.101  0.2033 -0.0683 -0.1322
 3279ntf    nn316233   3.171   6.138   1.182  0.0185  0.0249 -0.4494
 3279ntf    sn216234   3.070   6.257   1.200 -0.2069 -0.3040  0.5517
 3279ntf    cn116235   3.046   6.234   1.378 -0.0433 -0.1447  0.5943
 3279ntf    fn416236   3.162   6.066   0.899 -0.1732 -0.6969 -0.1659
 3279ntf    fn416237   3.362   5.996   0.881 -0.0707 -0.1958 -0.1249
 3279ntf    fn416238   3.222   5.890   1.000 -0.0879 -0.1032 -0.0225
 3279ntf    on516239   3.412   6.050   1.161  0.3593  0.3779  0.1612
 3279ntf    on516240   3.344   6.237   1.017  0.4544  0.3163  0.4835
 3279ntf    on516241   2.940   6.237   1.141 -0.0842 -0.0433  0.1860
 3279ntf    on516242   3.124   6.391   1.200 -0.9455  0.0033  0.1863
 3279ntf    fn416243   2.945   6.308   1.421 -0.0632 -0.0080  0.3151
 3279ntf    fn416244   3.021   6.106   1.398 -0.1885 -0.1730  0.2382
 3279ntf    fn416245   3.156   6.268   1.444  0.3123  0.2327 -0.1773
 3280ntf    cn116246   1.526   4.558   2.855 -0.3372 -0.0328  0.2671
 3280ntf    sn216247   1.577   4.455   2.995  0.1966 -0.0487  0.0640
 3280ntf    nn316248   1.682   4.560   3.045  0.4600 -0.3597  0.1726
 3280ntf    sn216249   1.668   4.678   3.148  0.0818  0.1311 -0.4371
 3280ntf    cn116250   1.694   4.574   3.294 -0.6433  0.1342 -0.3032
 3280ntf    fn416251   1.452   4.486   2.773  0.0722 -0.1770  0.0218
 3280ntf    fn416252   1.461   4.670   2.882 -0.6161 -0.0205 -0.4279
 3280ntf    fn416253   1.629   4.608   2.787 -0.3516 -0.1658  0.1470
 3280ntf    on516254   1.453   4.446   3.068  0.0134  0.1180 -0.2250
 3280ntf    on516255   1.633   4.334   2.940  0.3124  0.1582 -0.2783
 3280ntf    on516256   1.538   4.737   3.173 -0.1062 -0.1234 -0.8040
 3280ntf    on516257   1.784   4.764   3.154  0.2592 -0.1145 -0.3313
 3280ntf    fn416258   1.795   4.489   3.294 -0.4775  0.3278  0.1561
 3280ntf    fn416259   1.718   4.643   3.404 -0.4773  0.0758 -0.3028
 3280ntf    fn416260   1.580   4.515   3.328  0.0647 -1.0821  0.0322
 3281ntf    cn116261   5.034   5.967   3.074  0.0601 -0.1112 -0.4375
 3281ntf    sn216262   4.949   6.020   2.922 -0.1587  0.4867 -0.1095
 3281ntf    nn316263   4.851   6.130   2.976 -0.4069 -0.0205  0.4942
 3281ntf    sn216264   4.732   6.204   2.904 -0.0664 -0.1666 -0.2281
 3281ntf    cn116265   4.816   6.365   2.898  0.3473 -0.3651  0.1349
 3281ntf    fn416266   5.150   5.909   3.047 -0.0553 -0.1491 -0.8626
 3281ntf    fn416267   5.064   6.070   3.151  0.2410 -0.3760 -0.1538
 3281ntf    fn416268   4.963   5.884   3.148  0.0820  0.7687  0.5849
 3281ntf    on516269   5.049   6.093   2.849 -0.5099  1.0682 -0.0142
 3281ntf    on516270   4.902   5.893   2.871  0.6337  0.0037  0.3347
 3281ntf    on516271   4.623   6.229   2.995  0.0750  0.7626 -0.3008
 3281ntf    on516272   4.697   6.163   2.770  0.0903 -0.4471 -0.1839
 3281ntf    fn416273   4.728   6.454   2.854  0.4375 -0.3319  0.0185
 3281ntf    fn416274   4.851   6.419   3.013 -0.1179 -0.2697  0.2357
 3281ntf    fn416275   4.918   6.374   2.814  0.1282  0.1552 -0.0790
 3282ntf    cn116276   5.205   3.936   3.617 -0.0654 -0.2320 -0.0120
 3282ntf    sn216277   5.161   4.110   3.647  0.5474 -0.0459 -0.1680
 3282ntf    nn316278   5.138   4.112   3.802  0.3822 -0.3539 -0.1868
 3282ntf    sn216279   5.010   4.149   3.886  0.4118 -0.3045 -0.1634
 3282ntf    cn116280   5.051   4.316   3.944 -0.4501 -0.1599  0.0436
 3282ntf    fn416281   5.118   3.855   3.676 -0.5760  0.3221  0.0030
 3282ntf    fn416282   5.206   3.914   3.487 -0.0793  0.0516 -0.0608
 3282ntf    fn416283   5.328   3.906   3.657  0.0388  0.0714 -0.1063
 3282ntf    on516284   5.277   4.184   3.604 -0.1481  0.5632 -1.0414
 3282ntf    on516285   5.048   4.140   3.562  0.6871 -0.1499 -0.3925
 3282ntf    on516286   5.013   4.067   4.004  0.2153 -0.2093 -0.0926
 3282ntf    on516287   4.888   4.162   3.811  0.1324  0.1653  0.3665
 3282ntf    fn416288   5.142   4.320   4.040 -0.1963  0.4419 -0.2121
 3282ntf    fn416289   5.100   4.392   3.846 -0.2647 -0.0056  0.2544
 3282ntf    fn416290   4.947   4.376   3.999 -0.3923  0.4492 -0.4929
 3283ntf    cn116291   6.746   2.242   5.185 -0.0332  0.2039 -0.5093
 3283ntf    sn216292   6.608   2.347   5.239  0.2020  0.2158  0.0801
 3283ntf    nn316293   6.493   2.247   5.279  0.3250  0.1226  0.2014
 3283ntf    sn216294   6.455   2.203   5.425 -0.2481  0.1299  0.0554
 3283ntf    cn116295   6.277   2.175   5.402 -0.2548  0.3568 -0.1779
 3283ntf    fn416296   6.726   2.153   5.089  0.1234 -0.1394 -0.2264
 3283ntf    fn416297   6.844   2.317   5.138  0.3155  0.0033 -0.1201
 3283ntf    fn416298   6.795   2.174   5.288  0.2820  0.5662 -0.4154
 3283ntf    on516299   6.662   2.425   5.347 -0.0309 -0.0248  0.3750
 3283ntf    on516300   6.578   2.402   5.110  0.2648 -0.2480 -0.1360
 3283ntf    on516301   6.452   2.300   5.531 -0.2510  0.0997  0.0832
 3283ntf    on516302   6.508   2.075   5.464  0.1632  0.0338 -0.7920
 3283ntf    fn416303   6.210   2.287   5.376 -0.1180  0.2505 -1.0296
 3283ntf    fn416304   6.246   2.106   5.293 -0.7785 -0.1460  0.2785
 3283ntf    fn416305   6.212   2.114   5.500  0.3383 -0.2409 -0.1537
 3284ntf    cn116306   3.721   6.570   5.729 -0.1395  0.2969  0.2420
 3284ntf    sn216307   3.886   6.525   5.667 -0.2817 -0.2518  0.2582
 3284ntf    nn316308   3.854   6.383   5.608 -1.1832 -0.0020  0.1223
 3284ntf    sn216309   3.820   6.345   5.460  0.2114 -0.2105 -0.1572
 3284ntf    cn116310   3.645   6.386   5.436  0.2904  0.1678 -0.0986
 3284ntf    fn416311   3.716   6.698   5.763 -0.5070  0.4769 -0.4678
 3284ntf    fn416312   3.625   6.544   5.642 -0.2722  0.1972  0.4196
 3284ntf    fn416313   3.683   6.504   5.837  0.2431 -0.0730  0.1521
 3284ntf    on516314   3.913   6.633   5.574  0.1146 -0.5409  0.0345
 3284ntf    on516315   3.964   6.523   5.788 -0.8224  0.7396  0.6403
 3284ntf    on516316   3.812   6.203   5.440 -1.0197 -0.0861 -0.6156
 3284ntf    on516317   3.901   6.415   5.363  0.2289  0.1883  0.1439
 3284ntf    fn416318   3.585   6.302   5.353  0.0845 -0.2728  0.4953
 3284ntf    fn416319   3.573   6.371   5.546  0.2512 -0.0357 -0.1500
 3284ntf    fn416320   3.628   6.512   5.401 -0.3059 -0.0231 -0.5196
 3285ntf    cn116321   5.714   5.333   0.750  0.2284 -0.0162  0.1307
 3285ntf    sn216322   5.535   5.355   0.733  0.2730  0.3459  0.1215
 3285ntf    nn316323   5.532   5.510   0.710 -0.0392  0.3388  0.1067
 3285ntf    sn216324   5.401   5.592   0.739 -0.2367  0.0491  0.0374
 3285ntf    cn116325   5.437   5.648   0.908 -0.2513 -0.1961  0.1220
 3285ntf    fn416326   5.766   5.396   0.854  0.2057 -0.2631  0.2943
 3285ntf    fn416327   5.738   5.204   0.771 -0.1310 -0.1091 -0.0223
 3285ntf    fn416328   5.779   5.375   0.643 -0.4579  0.0721 -0.2569
 3285ntf    on516329   5.502   5.284   0.612  0.5798 -0.0377  0.2602
 3285ntf    on516330   5.484   5.303   0.858  0.5788  0.1820  0.1793
 3285ntf    on516331   5.277   5.519   0.751 -0.0690 -0.2478 -0.0081
 3285ntf    on516332   5.402   5.716   0.665  0.6913  0.4065  0.6329
 3285ntf    fn416333   5.543   5.727   0.910 -0.2164 -0.2385 -0.0377
 3285ntf    fn416334   5.342   5.725   0.958  0.0065  0.0193  0.2805
 3285ntf    fn416335   5.454   5.555   1.001 -0.3346 -0.0259  0.3090
 3286ntf    cn116336   1.244   0.184   4.172 -0.3180  0.0724  0.1105
 3286ntf    sn216337   1.186   0.135   4.007 -0.1475  0.0123  0.0678
 3286ntf    nn316338   1.320   0.138   3.925 -0.3327  0.0778 -0.2370
 3286ntf    sn216339   1.345   0.064   3.789  0.2245  0.2036 -0.2066
 3286ntf    cn116340   1.488  -0.034   3.843  0.0627 -0.0459 -0.2268
 3286ntf    fn416341   1.256   0.077   4.248 -0.0078 -0.0007 -0.0397
 3286ntf    fn416342   1.360   0.248   4.165 -0.3467  0.1358  0.2229
 3286ntf    fn416343   1.164   0.268   4.236  0.0270  0.2063  0.3696
 3286ntf    on516344   1.139  -0.000   4.021  0.0152 -0.0708 -0.1658
 3286ntf    on516345   1.094   0.237   3.963  0.0835  0.0976 -0.2221
 3286ntf    on516346   1.388   0.146   3.678 -0.1557  0.2737 -0.3050
 3286ntf    on516347   1.254  -0.043   3.754 -0.3861  0.6307  0.0534
 3286ntf    fn416348   1.526  -0.122   3.752 -0.3800  0.2916 -0.7447
 3286ntf    fn416349   1.596   0.040   3.864 -0.1537  0.1084  0.3659
 3286ntf    fn416350   1.471  -0.108   3.952  0.1956  0.3043  0.0362
 3287ntf    cn116351   6.047   0.137   5.592 -0.1868 -0.1314  0.1020
 3287ntf    sn216352   6.115   0.276   5.496 -0.0072 -0.1752  0.1644
 3287ntf    nn316353   6.262   0.278   5.549  0.0759 -0.2679 -0.0606
 3287ntf    sn216354   6.394   0.209   5.499  0.1632 -0.0112 -0.1900
 3287ntf    cn116355   6.468   0.351   5.414 -0.1323  0.3101  0.0884
 3287ntf    fn416356   6.045   0.155   5.723  0.6487 -0.2084  0.1309
 3287ntf    fn416357   5.923   0.107   5.558 -0.3889  0.2796  0.4674
 3287ntf    fn416358   6.113   0.024   5.569  0.3397  0.2421 -0.2456
 3287ntf    on516359   6.100   0.242   5.356 -0.0036 -0.1539  0.1591
 3287ntf    on516360   6.037   0.387   5.545 -0.0774 -0.1434 -0.0197
 3287ntf    on516361   6.372   0.113   5.393 -0.4053 -0.2700  0.1560
 3287ntf    on516362   6.492   0.188   5.602  0.3534  0.4148 -0.2805
 3287ntf    fn416363   6.382   0.436   5.360 -0.1229  0.2624 -0.0034
 3287ntf    fn416364   6.548   0.424   5.491 -0.5565  0.2086  0.6269
 3287ntf    fn416365   6.549   0.304   5.321 -0.0265  0.1811  0.2473
 3288ntf    cn116366   3.179   6.414   1.749  0.1757 -0.0192 -0.2325
 3288ntf    sn216367   3.203   6.254   1.831  0.3531  0.0299 -0.1842
 3288ntf    nn316368   3.162   6.152   1.718  0.8085  0.0407 -0.3582
 3288ntf    sn216369   3.164   5.996   1.726 -0.0104  0.0406 -0.0897
 3288ntf    cn116370   3.006   5.963   1.809  0.1425 -0.1026  0.1450
 3288ntf    fn416371   3.265   6.439   1.652  0.5318 -0.4959 -0.0461
 3288ntf    fn416372   3.056   6.425   1.702 -0.0050  0.4163  0.3258
 3288ntf    fn416373   3.190   6.510   1.840 -0.2722 -0.2531  0.0665
 3288ntf    on516374   3.344   6.248   1.860  0.2716  0.1960  0.2627
 3288ntf    on516375   3.119   6.258   1.948  0.2441  0.2233 -0.2693
 3288ntf    on516376   3.261   5.935   1.813  0.3262  0.2617 -0.3096
 3288ntf    on516377   3.136   5.922   1.605  0.5976  0.2095 -0.3360
 3288ntf    fn416378   2.982   5.832   1.811 -0.0486 -0.0734 -0.0882
 3288ntf    fn416379   2.988   6.011   1.931  0.5254 -0.0277  0.1705
 3288ntf    fn416380   2.906   6.012   1.738  0.3245  0.1085  0.0338
 3289ntf    cn116381   0.532   1.037   3.307  0.2288  0.2249 -0.0856
 3289ntf    sn216382   0.610   1.193   3.357  0.0340  0.2909  0.0141
 3289ntf    nn316383   0.484   1.266   3.417  0.1193  0.2174  0.2819
 3289ntf    sn216384   0.458   1.421   3.420 -0.1333  0.1918 -0.4702
 3289ntf    cn116385   0.400   1.414   3.592  0.2270  0.1701 -0.3485
 3289ntf    fn416386   0.413   1.061   3.253  0.1429  0.4082  0.1814
 3289ntf    fn416387   0.600   0.968   3.217 -0.0904  0.2783 -0.3712
 3289ntf    fn416388   0.518   0.960   3.414  0.0559  0.0900 -0.2048
 3289ntf    on516389   0.698   1.156   3.465  0.3893  0.1607 -0.3182
 3289ntf    on516390   0.672   1.229   3.232 -0.6000  0.4720 -0.2555
 3289ntf    on516391   0.353   1.453   3.326 -0.4240 -0.4576 -0.3715
 3289ntf    on516392   0.574   1.505   3.432  0.0350 -0.1831  0.5948
 3289ntf    fn416393   0.313   1.315   3.602  0.3999  0.0405 -0.1400
 3289ntf    fn416394   0.503   1.372   3.663 -0.2865 -0.4043  0.0608
 3289ntf    fn416395   0.357   1.526   3.647 -0.0407  0.0337 -0.2782
 3290ntf    cn116396   4.781   1.560   7.118 -0.0955  0.1485  0.0565
 3290ntf    sn216397   4.615   1.497   7.077  0.0384 -0.2929  0.1931
 3290ntf    nn316398   4.581   1.431   7.215 -0.4157 -0.5234 -0.0284
 3290ntf    sn216399   4.495   1.483   7.336 -0.1757  0.2577 -0.1862
 3290ntf    cn116400   4.560   1.386   7.475 -0.2194  0.3461 -0.1041
 3290ntf    fn416401   4.848   1.572   7.004 -0.1315  0.4578  0.0669
 3290ntf    fn416402   4.767   1.678   7.176  0.2598  0.4198 -0.4033
 3290ntf    fn416403   4.851   1.479   7.195 -0.0294 -0.7111 -0.8857
 3290ntf    on516404   4.539   1.614   7.041  0.3626 -0.1388  0.0047
 3290ntf    on516405   4.629   1.399   6.972  0.5654 -0.1767  0.1520
 3290ntf    on516406   4.356   1.444   7.339 -0.3894  1.0492  0.7374
 3290ntf    on516407   4.517   1.618   7.381  0.1201  0.1452  0.0094
 3290ntf    fn416408   4.500   1.399   7.593 -0.3996  0.3936 -0.2013
 3290ntf    fn416409   4.561   1.258   7.444  0.2225  0.2886  0.1351
 3290ntf    fn416410   4.687   1.415   7.501 -0.0298 -0.5884  0.0606
 3291ntf    cn116411   4.990   2.542   0.389 -0.2586 -0.0241 -0.2022
 3291ntf    sn216412   5.103   2.416   0.458 -0.3145 -0.0705 -0.1966
 3291ntf    nn316413   5.016   2.354   0.573 -0.7208  0.5189 -0.1796
 3291ntf    sn216414   5.019   2.379   0.728 -0.1093 -0.3111 -0.0518
 3291ntf    cn116415   4.847   2.427   0.760 -0.0008 -0.2873  0.5095
 3291ntf    fn416416   4.879   2.483   0.348 -0.3455 -0.1209  0.1678
 3291ntf    fn416417   4.954   2.635   0.475 -0.0731 -0.5753  0.4736
 3291ntf    fn416418   5.050   2.604   0.288  0.6713 -0.1134  0.2833
 3291ntf    on516419   5.112   2.322   0.349  0.7217 -0.1346 -0.0642
 3291ntf    on516420   5.217   2.496   0.494 -0.1474 -0.4222  0.0556
 3291ntf    on516421   5.099   2.493   0.767 -0.3904  0.0378 -0.4781
 3291ntf    on516422   5.025   2.254   0.799  0.7618 -0.1311  0.2041
 3291ntf    fn416423   4.831   2.487   0.876  0.1690  0.1015  0.3320
 3291ntf    fn416424   4.809   2.521   0.675  0.5310 -0.3772  0.1661
 3291ntf    fn416425   4.755   2.334   0.738 -0.2129  0.1740 -0.6396
 3292ntf    cn116426   0.009   2.156   5.264  0.0524 -0.2137  0.0188
 3292ntf    sn216427   0.137   2.280   5.225 -0.0303 -0.0840  0.1604
 3292ntf    nn316428   0.264   2.206   5.279  0.3586  0.2149 -0.3396
 3292ntf    sn216429   0.329   2.224   5.421  0.0494  0.0375 -0.1741
 3292ntf    cn116430   0.395   2.393   5.428 -0.1645  0.0930  0.5031
 3292ntf    fn416431  -0.117   2.195   5.253  0.0958  0.1939  0.8810
 3292ntf    fn416432   0.024   2.048   5.189  0.5084 -0.3047  0.2410
 3292ntf    fn416433   0.015   2.104   5.385  0.7706 -0.0463  0.0598
 3292ntf    on516434   0.139   2.276   5.081  0.0652  0.0170  0.1597
 3292ntf    on516435   0.103   2.404   5.290 -0.2881 -0.0734  0.0093
 3292ntf    on516436   0.447   2.140   5.421 -0.0282 -0.0725  0.0662
 3292ntf    on516437   0.240   2.201   5.532  0.0669 -0.0197 -0.1717
 3292ntf    fn416438   0.299   2.482   5.446 -0.3260  0.0770 -0.2625
 3292ntf    fn416439   0.493   2.417   5.514  0.0366  0.3868  0.1910
 3292ntf    fn416440   0.422   2.417   5.301 -0.2960 -0.2132  0.4177
 3293ntf    cn116441   1.340   6.002   3.862 -0.5764 -0.2592 -0.1695
 3293ntf    sn216442   1.322   5.830   3.804 -0.2961 -0.3205 -0.0736
 3293ntf    nn316443   1.177   5.790   3.848 -0.4205  0.1782 -0.0210
 3293ntf    sn216444   1.081   5.686   3.780 -0.2079  0.0314 -0.0982
 3293ntf    cn116445   1.168   5.529   3.806 -0.3587 -0.0518 -0.0914
 3293ntf    fn416446   1.466   6.027   3.893 -0.6274 -0.4087  0.1572
 3293ntf    fn416447   1.301   6.096   3.777  0.0321  0.5749  0.4614
 3293ntf    fn416448   1.265   6.019   3.969  0.2348  0.1396  0.3393
 3293ntf    on516449   1.342   5.839   3.661  0.3345 -0.5662 -0.0028
 3293ntf    on516450   1.423   5.762   3.881 -0.4945 -0.3650  0.1468
 3293ntf    on516451   1.060   5.706   3.638  0.4548  0.2405 -0.1676
 3293ntf    on516452   0.963   5.672   3.861  0.0894 -0.2543  0.2846
 3293ntf    fn416453   1.106   5.426   3.751 -0.4533  0.1972 -0.4579
 3293ntf    fn416454   1.285   5.533   3.744 -0.4445 -0.7843 -0.3061
 3293ntf    fn416455   1.193   5.500   3.933  0.2898  0.8510 -0.0003
 3294ntf    cn116456   0.101   4.435   2.295 -0.4453  0.1443  0.3785
 3294ntf    sn216457   0.109   4.586   2.396  0.1255  0.2713  0.1498
 3294ntf    nn316458   0.041   4.527   2.525  0.3312  0.0821  0.1736
 3294ntf    sn216459   0.101   4.478   2.661  0.0608  0.1287  0.3109
 3294ntf    cn116460   0.076   4.626   2.763  0.2059  0.3618  0.0059
 3294ntf    fn416461  -0.008   4.415   2.223 -0.3866  0.4682  0.1952
 3294ntf    fn416462   0.192   4.440   2.199 -0.3876  0.3512  0.4427
 3294ntf    fn416463   0.113   4.322   2.362 -0.4764 -0.3970 -0.5167
 3294ntf    on516464   0.247   4.622   2.417  0.0400  0.6677  0.0378
 3294ntf    on516465   0.018   4.678   2.333  0.0285  0.3585  0.4161
 3294ntf    on516466   0.241   4.442   2.658 -0.0366 -0.2540  0.3037
 3294ntf    on516467   0.011   4.386   2.727  0.2742 -0.4763 -0.2215
 3294ntf    fn416468  -0.046   4.670   2.734  0.1391 -0.2893 -0.7256
 3294ntf    fn416469   0.072   4.602   2.893  0.4295  0.1295 -0.0293
 3294ntf    fn416470   0.165   4.723   2.747  0.3168  0.2209 -0.2350
 3295ntf    cn116471   5.957   0.033   6.147 -0.4363 -0.1200  0.3118
 3295ntf    sn216472   5.932  -0.145   6.122  0.1259 -0.1371 -0.1570
 3295ntf    nn316473   5.775  -0.154   6.120  0.1145 -0.0985  0.4204
 3295ntf    sn216474   5.692  -0.287   6.131 -0.0244 -0.0581 -0.1085
 3295ntf    cn116475   5.644  -0.275   6.306  0.1097 -0.0783 -0.0706
 3295ntf    fn416476   5.906   0.079   6.260  0.1682  0.3985  0.3798
 3295ntf    fn416477   6.082   0.076   6.140 -0.1346 -0.9038  0.8030
 3295ntf    fn416478   5.894   0.098   6.050 -0.2494 -0.2773  0.0839
 3295ntf    on516479   5.999  -0.178   5.998  0.4353  0.3728 -0.1296
 3295ntf    on516480   5.989  -0.199   6.243 -0.6729  0.6370  0.5800
 3295ntf    on516481   5.756  -0.416   6.135 -0.2314 -0.1588 -0.0325
 3295ntf    on516482   5.565  -0.277   6.063  0.0861 -0.3806 -0.3666
 3295ntf    fn416483   5.591  -0.160   6.343 -0.1559 -0.2241  0.0028
 3295ntf    fn416484   5.561  -0.375   6.328  0.2462 -0.2399 -0.2849
 3295ntf    fn416485   5.746  -0.288   6.390  0.2612 -0.2408 -0.2786
 3296ntf    cn116486   1.766   3.017   5.234  0.2629  0.2784  0.2912
 3296ntf    sn216487   1.702   2.898   5.112  0.0961  0.2564  0.4014
 3296ntf    nn316488   1.577   2.983   5.067  0.0094 -0.1752 -0.1965
 3296ntf    sn216489   1.439   2.922   5.026 -0.1375 -0.1400  0.2357
 3296ntf    cn116490   1.326   3.055   5.075 -0.2979 -0.1842 -0.0089
 3296ntf    fn416491   1.797   3.125   5.164 -0.0017 -0.2007 -0.5822
 3296ntf    fn416492   1.674   3.043   5.325  0.0412 -0.5757  0.3250
 3296ntf    fn416493   1.872   2.967   5.296  0.3032 -0.1496 -0.1076
 3296ntf    on516494   1.814   2.889   5.021  0.0806  0.2999  0.3781
 3296ntf    on516495   1.680   2.776   5.185 -0.6910  0.1758  0.0417
 3296ntf    on516496   1.383   2.814   5.104  0.6496 -0.4730  0.3470
 3296ntf    on516497   1.421   2.913   4.883 -0.1713 -0.1302  0.2394
 3296ntf    fn416498   1.338   3.079   5.205 -0.4668  0.0210 -0.0302
 3296ntf    fn416499   1.359   3.169   5.016  0.2047 -0.1665  0.2997
 3296ntf    fn416500   1.198   3.027   5.057 -0.2080 -0.2171 -0.6080
 3297ntf    cn116501   6.890   2.787   1.400  0.1225  0.1256 -0.1373
 3297ntf    sn216502   6.879   2.811   1.580  0.2017  0.1332 -0.1334
 3297ntf    nn316503   6.722   2.806   1.584  0.1875  0.5554 -0.0827
 3297ntf    sn216504   6.631   2.728   1.686  0.1189 -0.0414 -0.5961
 3297ntf    cn116505   6.577   2.589   1.582  0.1698 -0.6635  0.2016
 3297ntf    fn416506   6.832   2.676   1.355  0.3909 -0.1440  0.1743
 3297ntf    fn416507   6.826   2.883   1.337 -0.1978 -0.0534 -0.0909
 3297ntf    fn416508   7.010   2.795   1.345  0.0376  0.1175 -0.3235
 3297ntf    on516509   6.946   2.695   1.633 -0.2682 -0.1627 -0.1845
 3297ntf    on516510   6.932   2.943   1.602 -0.1944  0.1819  0.5515
 3297ntf    on516511   6.508   2.797   1.714  0.2780 -0.1910  0.5028
 3297ntf    on516512   6.700   2.664   1.795  0.2346  0.1591 -0.5518
 3297ntf    fn416513   6.536   2.479   1.643  0.2613 -0.4364  0.6791
 3297ntf    fn416514   6.476   2.619   1.502  0.1993 -0.1495  0.3549
 3297ntf    fn416515   6.679   2.562   1.502 -0.0414 -0.3485 -0.1744
 3298ntf    cn116516   0.567   6.814   4.571 -0.1078 -0.2250 -0.4620
 3298ntf    sn216517   0.655   6.671   4.640 -0.1250 -0.0298 -0.0305
 3298ntf    nn316518   0.546   6.560   4.617 -0.3344  0.1486  0.0933
 3298ntf    sn216519   0.529   6.430   4.703 -0.3497 -0.0655 -0.2278
 3298ntf    cn116520   0.397   6.490   4.814 -0.3200  0.1711 -0.3203
 3298ntf    fn416521   0.545   6.802   4.441 -0.4715 -0.4496 -0.3811
 3298ntf    fn416522   0.449   6.843   4.624 -0.1579 -0.2042 -0.5837
 3298ntf    fn416523   0.635   6.927   4.586  0.2357 -0.5115  0.1833
 3298ntf    on516524   0.766   6.655   4.551  0.1155 -0.1970  0.2957
 3298ntf    on516525   0.672   6.709   4.778 -0.0754 -0.1260 -0.0094
 3298ntf    on516526   0.644   6.403   4.786 -0.3467  0.4205 -0.0660
 3298ntf    on516527   0.470   6.319   4.633  0.2214 -0.3724 -0.2247
 3298ntf    fn416528   0.277   6.485   4.757 -0.4773  0.2018  0.0089
 3298ntf    fn416529   0.385   6.412   4.919  0.2572 -0.3367 -0.6269
 3298ntf    fn416530   0.427   6.608   4.865  0.6855 -0.0058 -0.4813
 3299ntf    cn116531   6.645   0.700   1.168  0.0935  0.2010  0.0420
 3299ntf    sn216532   6.732   0.840   1.090  0.3577 -0.0618 -0.1394
 3299ntf    nn316533   6.669   0.959   1.172  0.1494 -0.1813 -0.1248
 3299ntf    sn216534   6.756   1.079   1.222 -0.0870 -0.2001  0.3382
 3299ntf    cn116535   6.704   1.068   1.395 -0.3251  0.1827  0.2910
 3299ntf    fn416536   6.694   0.679   1.289  0.0016  0.1311  0.0670
 3299ntf    fn416537   6.517   0.728   1.184 -0.0255 -0.2523 -0.1175
 3299ntf    fn416538   6.669   0.593   1.094 -0.2621 -0.1843  0.4843
 3299ntf    on516539   6.870   0.806   1.113  0.5427  0.6053 -0.2442
 3299ntf    on516540   6.689   0.828   0.953 -0.3435  0.8735 -0.0114
 3299ntf    on516541   6.704   1.207   1.180  0.2861 -0.6020 -1.4641
 3299ntf    on516542   6.899   1.069   1.242 -0.0907  0.5639  0.7932
 3299ntf    fn416543   6.573   1.048   1.397 -0.3241  0.1711  0.2775
 3299ntf    fn416544   6.758   0.969   1.463  0.1009 -0.1402 -0.5086
 3299ntf    fn416545   6.726   1.178   1.465  0.1764  0.1239  0.2249
 3300ntf    cn116546   4.454   4.336   2.922  0.1520  0.1741 -0.0600
 3300ntf    sn216547   4.289   4.371   2.853 -0.0448 -0.1316  0.2513
 3300ntf    nn316548   4.324   4.467   2.734  0.3479 -0.1805  0.3237
 3300ntf    sn216549   4.375   4.423   2.593  0.1989  0.0209  0.2054
 3300ntf    cn116550   4.223   4.418   2.494  0.1750 -0.0934  0.2476
 3300ntf    fn416551   4.478   4.419   3.022 -0.1355  0.0454  0.1181
 3300ntf    fn416552   4.455   4.212   2.969  0.8569  0.1627 -0.1018
 3300ntf    fn416553   4.559   4.358   2.845  0.3192  0.1162  0.1521
 3300ntf    on516554   4.231   4.248   2.805  0.3739 -0.1025 -0.3364
 3300ntf    on516555   4.225   4.425   2.970 -0.5945  0.0347 -0.1223
 3300ntf    on516556   4.429   4.292   2.565 -0.7096 -0.3185  0.0024
 3300ntf    on516557   4.445   4.533   2.532 -0.1877 -0.0635 -0.4061
 3300ntf    fn416558   4.126   4.347   2.550 -0.0867  0.5246  0.5841
 3300ntf    fn416559   4.175   4.541   2.500 -0.0071 -0.1856  0.7059
 3300ntf    fn416560   4.235   4.384   2.367  0.3908 -0.0054  0.2452
 3301ntf    cn116561   4.552   3.008   6.821 -0.2559  0.0109 -0.0305
 3301ntf    sn216562   4.469   3.046   6.979 -0.2921 -0.1469 -0.0116
 3301ntf    nn316563   4.465   2.904   7.047 -0.2078  0.3483  1.0492
 3301ntf    sn216564   4.558   2.829   7.149  0.4314  0.0162  0.2385
 3301ntf    cn116565   4.539   2.661   7.083  0.1288  0.1063  0.0961
 3301ntf    fn416566   4.478   2.930   6.745  0.2485 -0.0466 -0.4641
 3301ntf    fn416567   4.584   3.124   6.765 -0.1494 -0.3303 -0.6789
 3301ntf    fn416568   4.666   2.943   6.834  0.0236  0.5775  0.4354
 3301ntf    on516569   4.562   3.132   7.047 -0.1050  0.0010 -0.4496
 3301ntf    on516570   4.336   3.088   6.945 -0.4023 -0.3691  0.1397
 3301ntf    on516571   4.497   2.818   7.279 -0.0720 -0.6023 -0.0495
 3301ntf    on516572   4.699   2.857   7.131  0.3740  0.1738  0.0208
 3301ntf    fn416573   4.420   2.607   7.102  0.2268 -0.2877 -0.3873
 3301ntf    fn416574   4.567   2.649   6.954 -0.4858 -0.3434  0.0005
 3301ntf    fn416575   4.625   2.579   7.141 -0.0091 -0.1216 -0.0174
 3302ntf    cn116576   2.608   7.161   5.287  0.1585 -0.1643 -0.0578
 3302ntf    sn216577   2.621   7.337   5.243  0.0686 -0.2003 -0.2300
 3302ntf    nn316578   2.541   7.327   5.108  0.0688 -0.1534 -0.2340
 3302ntf    sn216579   2.494   7.454   5.029  0.4716 -0.0361 -0.2859
 3302ntf    cn116580   2.338   7.490   5.116  0.5090 -0.2664 -0.1241
 3302ntf    fn416581   2.660   7.079   5.198  0.1880 -0.4866  0.2549
 3302ntf    fn416582   2.659   7.130   5.405  0.0160 -0.4075 -0.0609
 3302ntf    fn416583   2.479   7.136   5.299  0.1289  0.0298  0.0408
 3302ntf    on516584   2.546   7.402   5.347 -0.1468 -0.3526 -0.2890
 3302ntf    on516585   2.764   7.357   5.239  0.1817 -0.9496 -0.0482
 3302ntf    on516586   2.444   7.418   4.899  0.0620  0.2958 -0.2217
 3302ntf    on516587   2.580   7.569   5.044  0.2904  0.0943 -0.2423
 3302ntf    fn416588   2.372   7.546   5.231 -0.1889 -0.2449  0.0742
 3302ntf    fn416589   2.260   7.576   5.053 -0.1345 -0.5927  0.2195
 3302ntf    fn416590   2.258   7.386   5.136 -0.3717  0.4376  0.0580
 3303ntf    cn116591   4.206   3.256   5.853 -0.0123  0.6973  0.7318
 3303ntf    sn216592   4.367   3.172   5.852 -0.2681  0.2053  0.2204
 3303ntf    nn316593   4.335   3.039   5.775  0.9959  0.1867 -0.3068
 3303ntf    sn216594   4.338   3.016   5.620 -0.2450 -0.5050 -0.2379
 3303ntf    cn116595   4.513   3.028   5.574 -0.1682 -0.0659  0.1620
 3303ntf    fn416596   4.144   3.255   5.736  0.0555 -0.1351  0.6943
 3303ntf    fn416597   4.116   3.205   5.936 -0.2204 -0.4675 -0.1907
 3303ntf    fn416598   4.212   3.383   5.889  0.5115  0.8649  0.0634
 3303ntf    on516599   4.455   3.264   5.783  0.6988 -0.9077 -0.0559
 3303ntf    on516600   4.383   3.136   5.990  0.4364 -0.5660 -0.0532
 3303ntf    on516601   4.286   3.124   5.540  0.5978  0.1438  0.0854
 3303ntf    on516602   4.297   2.884   5.578 -0.4663 -0.4865 -0.0804
 3303ntf    fn416603   4.583   2.943   5.646  0.2198 -0.5248 -0.7320
 3303ntf    fn416604   4.528   2.999   5.445 -0.0015  0.1476  0.1332
 3303ntf    fn416605   4.557   3.152   5.586  0.2773 -0.1521 -0.5006
 3304ntf    cn116606   4.981   1.726   6.722  0.1027  0.0550  0.2509
 3304ntf    sn216607   5.049   1.881   6.655  0.0283 -0.0637 -0.1024
 3304ntf    nn316608   4.999   1.993   6.753  0.0392  0.5201 -0.7556
 3304ntf    sn216609   5.069   2.121   6.812 -0.0724  0.3070 -0.1469
 3304ntf    cn116610   5.143   2.054   6.964  0.3453  0.1132 -0.4327
 3304ntf    fn416611   4.855   1.735   6.762 -0.2225 -0.2228 -0.6810
 3304ntf    fn416612   4.982   1.625   6.636  0.4827  0.0421  0.2713
 3304ntf    fn416613   5.050   1.684   6.826 -0.0235  0.0597  0.3379
 3304ntf    on516614   5.190   1.850   6.645  0.1465  0.4802 -0.1433
 3304ntf    on516615   4.968   1.895   6.537 -0.5839  0.3767  0.3612
 3304ntf    on516616   4.967   2.214   6.853  0.0961  0.3652  0.1395
 3304ntf    on516617   5.177   2.178   6.735 -0.1027 -0.0717 -0.4734
 3304ntf    fn416618   5.197   1.937   6.937  0.0381 -0.1234 -0.0362
 3304ntf    fn416619   5.231   2.136   7.019  0.2258  0.1712 -0.3266
 3304ntf    fn416620   5.047   2.033   7.053  0.0259  1.1679 -0.5163
 3305ntf    cn116621   2.451   5.617   3.671  0.0660 -0.3704  0.4113
 3305ntf    sn216622   2.366   5.472   3.600 -0.2063  0.0766 -0.1887
 3305ntf    nn316623   2.500   5.393   3.576 -0.1536 -0.0207  0.4040
 3305ntf    sn216624   2.588   5.377   3.447 -0.2050  0.2986  0.3298
 3305ntf    cn116625   2.543   5.210   3.391  0.4800  0.1302  0.2769
 3305ntf    fn416626   2.519   5.581   3.778 -0.5116 -0.7361  0.6649
 3305ntf    fn416627   2.533   5.673   3.584 -0.2593 -0.2011  0.2123
 3305ntf    fn416628   2.367   5.710   3.714 -0.2961 -0.3437 -0.3357
 3305ntf    on516629   2.292   5.410   3.706  0.3210  0.0115  0.1483
 3305ntf    on516630   2.292   5.524   3.488 -0.3595  0.4800  0.0992
 3305ntf    on516631   2.725   5.362   3.491 -0.0542  0.0646 -0.2113
 3305ntf    on516632   2.554   5.467   3.339 -0.1919  0.0284  0.0978
 3305ntf    fn416633   2.627   5.112   3.421  0.0759 -0.1975  0.3355
 3305ntf    fn416634   2.427   5.174   3.443  0.4892  0.4458  0.5217
 3305ntf    fn416635   2.528   5.215   3.259 -0.6177 -0.2190  0.3879
 3306ntf    cn116636   6.557   7.020   0.210 -0.1681  0.0147 -0.0289
 3306ntf    sn216637   6.509   6.851   0.164 -0.2852  0.0336  0.0256
 3306ntf    nn316638   6.353   6.858   0.184 -0.3305  0.2131 -0.3737
 3306ntf    sn216639   6.265   6.745   0.248  0.0092  0.2265  0.1218
 3306ntf    cn116640   6.304   6.782   0.422  0.1342 -0.1815  0.1827
 3306ntf    fn416641   6.683   7.043   0.175 -0.1015 -0.3002  0.0031
 3306ntf    fn416642   6.491   7.108   0.136  0.4299  0.3081 -0.2258
 3306ntf    fn416643   6.541   7.043   0.339 -0.0997  0.4400 -0.0954
 3306ntf    on516644   6.551   6.842   0.026 -0.5523  0.0776 -0.0596
 3306ntf    on516645   6.589   6.769   0.251  0.3836  0.2928 -0.3383
 3306ntf    on516646   6.314   6.609   0.243  0.3575  0.3374  0.4355
 3306ntf    on516647   6.123   6.763   0.229 -0.0241 -0.1149  0.0445
 3306ntf    fn416648   6.294   6.911   0.451  0.1682 -0.1694  0.1396
 3306ntf    fn416649   6.227   6.710   0.502  0.1293 -0.1440  0.2113
 3306ntf    fn416650   6.430   6.757   0.453  0.2753  0.1832 -0.0855
 3307ntf    cn116651   0.126   1.322   4.916  0.5257  0.4068 -0.1660
 3307ntf    sn216652   0.090   1.160   4.990 -0.0150  0.4044 -0.4266
 3307ntf    nn316653   0.203   1.073   4.923  0.4283  0.6749 -0.0300
 3307ntf    sn216654   0.177   0.957   4.821  0.2721  0.4224  0.2957
 3307ntf    cn116655   0.353   0.915   4.803  0.1145  0.0316 -0.3762
 3307ntf    fn416656   0.030   1.412   4.931  0.5586  0.4385 -0.1437
 3307ntf    fn416657   0.242   1.372   4.954  0.6995 -0.2566  0.1902
 3307ntf    fn416658   0.135   1.301   4.786  0.0746  0.6164 -0.2341
 3307ntf    on516659   0.113   1.185   5.130 -0.6511  0.4929 -0.3337
 3307ntf    on516660  -0.049   1.138   4.958  0.0882 -0.4526 -0.3111
 3307ntf    on516661   0.146   0.998   4.687  0.4547 -0.8181 -0.1378
 3307ntf    on516662   0.129   0.830   4.868  0.5954  0.0392 -0.3951
 3307ntf    fn416663   0.434   1.020   4.806 -0.4634  0.4711  0.1295
 3307ntf    fn416664   0.400   0.828   4.891  0.1960 -0.0059 -0.4575
 3307ntf    fn416665   0.382   0.856   4.689  0.2503 -0.3061 -0.1671
 3308ntf    cn116666   4.469   2.113   4.087 -0.3164 -0.0752 -0.1396
 3308ntf    sn216667   4.391   1.952   4.052  0.2363 -0.3525 -0.0963
 3308ntf    nn316668   4.266   1.982   3.963  0.0041 -0.7783  0.0838
 3308ntf    sn216669   4.242   1.945   3.812 -0.0214  0.2462 -0.1704
 3308ntf    cn116670   4.109   1.821   3.827  0.2007  0.0270  0.0004
 3308ntf    fn416671   4.563   2.082   4.174  0.1093  0.2961 -0.4665
 3308ntf    fn416672   4.530   2.157   3.979 -0.3619 -0.0509 -0.1550
 3308ntf    fn416673   4.391   2.208   4.135 -0.3445 -0.2334  0.1331
 3308ntf    on516674   4.490   1.874   3.982  0.7161 -0.0266  0.2133
 3308ntf    on516675   4.350   1.903   4.182  0.2740 -0.3453 -0.0815
 3308ntf    on516676   4.353   1.887   3.740  0.4530  0.7658  0.1393
 3308ntf    on516677   4.186   2.059   3.743 -0.8926 -0.0964 -0.0455
 3308ntf    fn416678   4.003   1.857   3.898 -0.0368 -0.2134 -0.2362
 3308ntf    fn416679   4.072   1.774   3.709 -0.2097  0.2356  0.0443
 3308ntf    fn416680   4.150   1.715   3.895  0.0983 -0.0287 -0.0255
 3309ntf    cn116681   6.343   4.888   0.085  0.1445 -0.3190  0.2212
 3309ntf    sn216682   6.253   4.864  -0.072 -0.0604  0.3389  0.2349
 3309ntf    nn316683   6.145   4.976  -0.053 -0.3660  0.2074 -0.7009
 3309ntf    sn216684   6.142   5.127  -0.095  0.0706  0.3107 -0.3736
 3309ntf    cn116685   6.140   5.210   0.066  0.1399 -0.3003 -0.0577
 3309ntf    fn416686   6.449   4.810   0.094  0.2155 -0.2928 -0.3347
 3309ntf    fn416687   6.386   5.013   0.095 -1.2239  0.1768  0.2186
 3309ntf    fn416688   6.265   4.863   0.189 -0.5088 -0.6460 -0.3382
 3309ntf    on516689   6.351   4.879  -0.176  0.2414 -0.2701  0.4236
 3309ntf    on516690   6.205   4.730  -0.052 -0.2077  0.3703  0.0830
 3309ntf    on516691   6.020   5.154  -0.169 -0.4306 -0.0564  0.3121
 3309ntf    on516692   6.262   5.180  -0.154 -0.0868  0.6410 -0.4003
 3309ntf    fn416693   6.119   5.340   0.061 -0.1882 -0.3518 -0.0501
 3309ntf    fn416694   6.042   5.163   0.142 -0.0777 -0.2631 -0.3147
 3309ntf    fn416695   6.245   5.180   0.141  0.4081  0.4117 -0.1425
 3310ntf    cn116696   7.043   6.258   3.877  0.0023  0.1659 -0.0686
 3310ntf    sn216697   7.215   6.305   3.913  0.0723 -0.1902  0.0682
 3310ntf    nn316698   7.254   6.164   3.969 -0.1867 -0.1110  0.4485
 3310ntf    sn216699   7.317   6.040   3.896  0.1493  0.1586  0.2769
 3310ntf    cn116700   7.179   5.922   3.894 -0.0539  0.3940  0.2818
 3310ntf    fn416701   6.969   6.368   3.883 -0.2715 -0.0061 -0.2910
 3310ntf    fn416702   7.030   6.204   3.757 -0.2457 -0.7174  0.3467
 3310ntf    fn416703   6.991   6.167   3.956 -0.9034  0.6957 -0.0386
 3310ntf    on516704   7.262   6.342   3.781  0.2119  0.1257  0.2062
 3310ntf    on516705   7.206   6.407   4.015  0.1269 -0.2082  0.0912
 3310ntf    on516706   7.416   5.970   3.974 -0.0017 -0.3487  0.0161
 3310ntf    on516707   7.342   6.056   3.755  0.5163  0.5979  0.3891
 3310ntf    fn416708   7.069   5.978   3.849  0.0823  0.2923 -0.1801
 3310ntf    fn416709   7.209   5.826   3.809 -0.1641 -0.0712  0.7608
 3310ntf    fn416710   7.156   5.859   4.008  0.3770 -0.4252 -0.0718
 3311ntf    cn116711   5.716   4.188   2.575 -0.0455 -0.0895  0.2043
 3311ntf    sn216712   5.733   4.353   2.502 -0.2311 -0.0785  0.1832
 3311ntf    nn316713   5.726   4.312   2.351 -0.9344  0.1526  0.1499
 3311ntf    sn216714   5.675   4.408   2.237  0.0605  0.2092 -0.2621
 3311ntf    cn116715   5.529   4.306   2.196  0.1342 -0.1103  0.2553
 3311ntf    fn416716   5.626   4.111   2.514  0.1458  0.0669 -0.2832
 3311ntf    fn416717   5.832   4.124   2.571 -0.1426 -0.2906  0.6203
 3311ntf    fn416718   5.681   4.194   2.702 -0.4042  0.1181  0.0993
 3311ntf    on516719   5.618   4.421   2.556 -0.3236 -0.1214  0.0429
 3311ntf    on516720   5.866   4.395   2.542 -0.1915 -0.0343  0.0061
 3311ntf    on516721   5.746   4.397   2.112  0.2853  0.2594 -0.1393
 3311ntf    on516722   5.617   4.534   2.276 -0.0733  0.0898 -0.0713
 3311ntf    fn416723   5.471   4.355   2.088  0.3082 -0.4425  0.0088
 3311ntf    fn416724   5.563   4.179   2.184 -0.0154 -0.1179 -0.0831
 3311ntf    fn416725   5.444   4.314   2.297  0.1289 -0.4135  0.2753
 3312ntf    cn116726   6.286   2.458   6.565 -0.1803 -0.0176  0.1974
 3312ntf    sn216727   6.158   2.548   6.472  0.1240  0.0510 -0.1537
 3312ntf    nn316728   6.227   2.685   6.438 -0.0495  0.3159  0.5493
 3312ntf    sn216729   6.201   2.801   6.335 -0.0132 -0.1210  0.0378
 3312ntf    cn116730   6.116   2.934   6.426  0.3603  0.1490 -0.0069
 3312ntf    fn416731   6.395   2.427   6.497 -0.3311  0.0203 -0.0630
 3312ntf    fn416732   6.325   2.526   6.671  0.0658  0.0830  0.0432
 3312ntf    fn416733   6.247   2.345   6.622 -0.5074 -0.2187 -0.4233
 3312ntf    on516734   6.137   2.471   6.351  0.0906 -0.2121  0.0179
 3312ntf    on516735   6.047   2.558   6.563  0.0623  0.0714 -0.2310
 3312ntf    on516736   6.104   2.767   6.235  0.5400 -0.5369 -0.3636
 3312ntf    on516737   6.320   2.858   6.276 -0.0692  0.3353  0.3550
 3312ntf    fn416738   6.040   3.008   6.347 -0.2636 -0.5948 -0.1100
 3312ntf    fn416739   6.034   2.884   6.516 -0.2336  0.9274 -0.1060
 3312ntf    fn416740   6.196   3.007   6.503  0.4254 -0.1073  0.1658
 3313ntf    cn116741   0.697   3.955   3.941  0.1342  0.3449  0.3837
 3313ntf    sn216742   0.709   3.882   4.106  0.2466 -0.0896  0.1845
 3313ntf    nn316743   0.862   3.903   4.134  0.1672  0.0152  0.5487
 3313ntf    sn216744   0.919   3.980   4.259  0.3214  0.1631  0.3887
 3313ntf    cn116745   0.893   3.860   4.393 -0.0005 -0.1382  0.0575
 3313ntf    fn416746   0.755   3.878   3.850 -0.3481 -0.0259  0.3829
 3313ntf    fn416747   0.569   3.953   3.908  0.2184  0.1888  0.0567
 3313ntf    fn416748   0.722   4.083   3.917 -0.0430  0.2637 -0.2523
 3313ntf    on516749   0.612   3.954   4.185  0.2970  0.6943 -0.4613
 3313ntf    on516750   0.689   3.740   4.092  0.3137 -0.0758 -0.0552
 3313ntf    on516751   0.851   4.103   4.292  0.2952  0.4085 -0.5250
 3313ntf    on516752   1.063   3.993   4.256  0.3397 -0.1238 -0.5153
 3313ntf    fn416753   0.763   3.836   4.405  0.0999 -0.4933  0.4473
 3313ntf    fn416754   0.955   3.746   4.368 -0.2375 -0.3444  0.4151
 3313ntf    fn416755   0.929   3.905   4.512 -0.0368  0.0540 -0.0041
 3314ntf    cn116756   0.528   4.094   2.776  0.1678  0.0501  0.0565
 3314ntf    sn216757   0.548   3.917   2.816 -0.2000 -0.0373 -0.1398
 3314ntf    nn316758   0.448   3.919   2.937  0.0074 -0.0324  0.0307
 3314ntf    sn216759   0.354   3.806   2.993 -0.2308  0.2030  0.1041
 3314ntf    cn116760   0.188   3.861   2.941 -0.1839  0.1864 -0.0653
 3314ntf    fn416761   0.410   4.123   2.723  0.1933 -0.2490 -0.1735
 3314ntf    fn416762   0.538   4.161   2.889  0.7917 -0.1708  0.1352
 3314ntf    fn416763   0.614   4.140   2.687  0.3771  0.5712  0.5236
 3314ntf    on516764   0.502   3.843   2.701 -0.6375  0.6437 -0.4157
 3314ntf    on516765   0.683   3.897   2.863 -0.2963  0.2530  0.2598
 3314ntf    on516766   0.339   3.818   3.136  0.5838  0.1459  0.2015
 3314ntf    on516767   0.362   3.676   2.932  0.5573  0.3648 -0.1511
 3314ntf    fn416768   0.091   3.778   2.976  0.2675 -0.0467  0.6803
 3314ntf    fn416769   0.155   3.979   2.990  0.1300  0.2737 -0.0579
 3314ntf    fn416770   0.179   3.867   2.810  0.0017 -0.1830 -0.0976
 3315ntf    cn116771   2.166   2.542   1.157  0.2169  0.2131 -0.1773
 3315ntf    sn216772   2.034   2.596   1.043  0.0119 -0.1911 -0.1330
 3315ntf    nn316773   1.907   2.528   1.104 -0.3108  0.4382 -0.0932
 3315ntf    sn216774   1.804   2.434   1.033 -0.2326  0.2151  0.0847
 3315ntf    cn116775   1.654   2.493   1.118  0.1535  0.0087  0.9127
 3315ntf    fn416776   2.163   2.414   1.189  0.3984  0.2573  0.0229
 3315ntf    fn416777   2.288   2.558   1.110  0.1613  0.7123 -0.1617
 3315ntf    fn416778   2.172   2.613   1.269 -0.4364 -1.0237  0.6602
 3315ntf    on516779   2.026   2.740   1.054 -0.3239 -0.2318  0.1915
 3315ntf    on516780   2.072   2.545   0.914 -0.3611 -0.0953 -0.2812
 3315ntf    on516781   1.817   2.295   1.069 -0.2294  0.2464  0.2027
 3315ntf    on516782   1.779   2.468   0.895 -0.2965  0.2116  0.0951
 3315ntf    fn416783   1.660   2.475   1.249 -0.2132  0.2830  0.9660
 3315ntf    fn416784   1.644   2.622   1.095  0.0543 -0.1553 -0.0190
 3315ntf    fn416785   1.544   2.431   1.077  0.8008 -0.7177  0.2255
 3316ntf    cn116786   1.338   1.129   0.568  0.0282 -0.0664  0.8237
 3316ntf    sn216787   1.362   1.220   0.723  0.3264  0.6867  0.3379
 3316ntf    nn316788   1.437   1.110   0.807  0.0811  0.0026 -0.3286
 3316ntf    sn216789   1.591   1.079   0.803  0.0351 -0.3042  0.2104
 3316ntf    cn116790   1.656   1.193   0.929  0.4022 -0.7830  0.4566
 3316ntf    fn416791   1.234   1.047   0.568  0.5148 -0.7205 -0.5353
 3316ntf    fn416792   1.333   1.202   0.458  0.5818 -0.6020  0.4381
 3316ntf    fn416793   1.430   1.038   0.539 -0.4411 -0.4467  0.5153
 3316ntf    on516794   1.436   1.337   0.681  0.5136  0.3124 -0.3839
 3316ntf    on516795   1.228   1.238   0.772  0.2403  0.5075  0.1705
 3316ntf    on516796   1.666   1.107   0.683  0.0700 -0.3976  0.2106
 3316ntf    on516797   1.617   0.948   0.857 -0.1567 -0.2786  0.3692
 3316ntf    fn416798   1.602   1.161   1.045 -0.1605 -0.2883  0.3386
 3316ntf    fn416799   1.788   1.185   0.933  0.4309 -0.4253  0.2920
 3316ntf    fn416800   1.626   1.321   0.910  0.5697 -0.7712  0.2739
 3317ntf    cn116801   3.705   2.443   4.865 -0.3632 -0.2219  0.1229
 3317ntf    sn216802   3.798   2.461   5.020 -0.0064 -0.0404 -0.1103
 3317ntf    nn316803   3.717   2.363   5.113 -0.4095  0.0201 -0.3957
 3317ntf    sn216804   3.653   2.380   5.255  0.2026 -0.0641 -0.1072
 3317ntf    cn116805   3.481   2.406   5.203  0.2049 -0.1717 -0.1693
 3317ntf    fn416806   3.579   2.479   4.881 -0.2677  0.0686  0.2233
 3317ntf    fn416807   3.751   2.522   4.769 -0.6132 -0.2356 -0.0083
 3317ntf    fn416808   3.716   2.321   4.814 -0.0251 -0.0448 -0.2347
 3317ntf    on516809   3.926   2.415   4.974 -0.1053 -0.0316 -0.3995
 3317ntf    on516810   3.773   2.599   5.055  0.0807 -0.0988  0.1863
 3317ntf    on516811   3.680   2.503   5.325 -0.5179  0.2460 -0.3627
 3317ntf    on516812   3.660   2.255   5.327 -0.8295  0.0678  0.2486
 3317ntf    fn416813   3.422   2.294   5.165  0.3241 -0.2309 -0.1780
 3317ntf    fn416814   3.406   2.449   5.304  0.6578 -0.7758  0.4336
 3317ntf    fn416815   3.469   2.490   5.101  0.6101  0.2186  0.1016
 3318ntf    cn116816   6.037   5.764   0.712  0.3254 -0.2166 -0.0503
 3318ntf    sn216817   6.212   5.807   0.735  0.1498  0.3265  0.2861
 3318ntf    nn316818   6.233   5.871   0.593 -0.8934  0.0386 -0.0052
 3318ntf    sn216819   6.240   6.022   0.550 -0.2423 -0.1185 -0.4580
 3318ntf    cn116820   6.195   6.003   0.375 -0.0354 -0.4666 -0.4762
 3318ntf    fn416821   5.957   5.866   0.688  0.0838 -0.3859  0.0220
 3318ntf    fn416822   6.016   5.688   0.606  0.0005  0.8298 -0.7511
 3318ntf    fn416823   5.975   5.699   0.810 -0.1721  0.3834  0.0416
 3318ntf    on516824   6.196   5.898   0.846 -0.5704  0.1841  0.3083
 3318ntf    on516825   6.280   5.682   0.758 -0.1878  0.0092 -0.4036
 3318ntf    on516826   6.377   6.066   0.552 -0.1489 -0.3943 -0.6350
 3318ntf    on516827   6.132   6.104   0.597 -0.5573 -0.7222 -0.1135
 3318ntf    fn416828   6.185   6.113   0.301 -0.0699 -0.3701 -0.3281
 3318ntf    fn416829   6.286   5.926   0.317  0.0009 -0.3011 -0.6417
 3318ntf    fn416830   6.077   5.943   0.370  0.0427 -0.6267 -0.3805
 3319ntf    cn116831   0.823   2.198   3.329  0.5968  0.0829 -0.3790
 3319ntf    sn216832   0.725   2.164   3.478  0.2072 -0.0088 -0.6545
 3319ntf    nn316833   0.827   2.098   3.577 -0.0864 -0.0661 -0.3857
 3319ntf    sn216834   0.819   1.966   3.661  0.1329  0.1161 -0.0763
 3319ntf    cn116835   0.972   1.988   3.758  0.2534  0.0953 -0.2623
 3319ntf    fn416836   0.922   2.280   3.360  0.3911  0.1244  0.1697
 3319ntf    fn416837   0.877   2.085   3.286 -0.1024 -0.2382 -0.4256
 3319ntf    fn416838   0.756   2.233   3.220 -0.6456 -0.3305  0.2344
 3319ntf    on516839   0.684   2.294   3.523  0.8042  0.0577 -0.2963
 3319ntf    on516840   0.619   2.074   3.437  0.8008 -0.7995 -0.4739
 3319ntf    on516841   0.847   1.851   3.579 -0.5526  0.3778 -0.6870
 3319ntf    on516842   0.711   1.958   3.756  0.1785 -0.4393 -0.0678
 3319ntf    fn416843   1.005   1.878   3.823  0.1236  0.3118  0.1743
 3319ntf    fn416844   1.073   2.019   3.679  0.0269  0.1533 -0.5316
 3319ntf    fn416845   0.978   2.089   3.843  0.7676 -0.3486  0.2282
 3320ntf    cn116846   0.090   3.482   6.852 -0.1154 -0.1622  0.3282
 3320ntf    sn216847   0.260   3.475   6.788 -0.1221  0.3302  0.2583
 3320ntf    nn316848   0.316   3.607   6.853 -0.5065  0.3245  0.6039
 3320ntf    sn216849   0.395   3.610   6.989  0.0247 -0.1324  0.3135
 3320ntf    cn116850   0.561   3.558   6.938  0.0958 -0.0008  0.4104
 3320ntf    fn416851   0.084   3.482   6.984  0.0200  0.1344  0.3344
 3320ntf    fn416852   0.028   3.591   6.812 -0.3857 -0.5762 -0.3892
 3320ntf    fn416853   0.007   3.387   6.811 -0.6593  0.3454  0.2428
 3320ntf    on516854   0.316   3.353   6.839  0.1343  0.2265 -0.2644
 3320ntf    on516855   0.259   3.489   6.644  0.5149 -0.0415  0.2151
 3320ntf    on516856   0.358   3.516   7.092  0.0228 -0.0503  0.3873
 3320ntf    on516857   0.410   3.748   7.029 -0.4369  0.0463 -0.1145
 3320ntf    fn416858   0.600   3.611   6.823  0.0807 -0.4143  0.2119
 3320ntf    fn416859   0.659   3.576   7.026  0.1325 -0.4969  0.4728
 3320ntf    fn416860   0.561   3.426   6.933 -0.1340 -0.0305  1.1052
 3321ntf    cn116861   1.291   2.942   1.039  0.5557  0.4229  0.0154
 3321ntf    sn216862   1.162   2.958   0.912  0.1305  0.1786  0.4142
 3321ntf    nn316863   1.110   3.103   0.941 -0.0419  0.1927  0.0402
 3321ntf    sn216864   1.164   3.240   0.885 -0.3097  0.0975 -0.4626
 3321ntf    cn116865   1.050   3.277   0.749 -0.5993  0.2595 -0.1750
 3321ntf    fn416866   1.352   2.825   1.047  0.8236  0.5438 -0.2165
 3321ntf    fn416867   1.385   3.034   1.027  0.1232  0.8497 -0.1411
 3321ntf    fn416868   1.238   2.963   1.158 -0.0623  0.0633 -0.1871
 3321ntf    on516869   1.225   2.923   0.787 -0.4100 -0.1200  0.2199
 3321ntf    on516870   1.054   2.871   0.952 -0.0375 -0.0103 -0.4367
 3321ntf    on516871   1.295   3.240   0.824 -0.1513 -0.0258 -0.1289
 3321ntf    on516872   1.140   3.356   0.967  0.4685 -0.3958  0.4907
 3321ntf    fn416873   1.042   3.176   0.664  0.1367 -0.7057  0.8730
 3321ntf    fn416874   0.928   3.308   0.791 -0.3715  0.2132  0.5385
 3321ntf    fn416875   1.092   3.379   0.677 -0.3194  0.0574 -0.2947
 3322ntf    cn116876   0.573   0.325   5.881  0.3061  0.0208 -0.2206
 3322ntf    sn216877   0.688   0.391   5.757  0.0150  0.0618 -0.4684
 3322ntf    nn316878   0.730   0.522   5.832 -0.2510 -0.2320  0.2035
 3322ntf    sn216879   0.686   0.666   5.787  0.0388 -0.1252  0.2604
 3322ntf    cn116880   0.740   0.757   5.935  0.3817  0.0842  0.0092
 3322ntf    fn416881   0.518   0.219   5.824  0.1261 -0.0657  0.1124
 3322ntf    fn416882   0.632   0.294   5.996 -0.0377  0.2655  0.0198
 3322ntf    fn416883   0.473   0.409   5.899  0.3563  0.1177 -0.3917
 3322ntf    on516884   0.792   0.291   5.748 -0.0102 -0.0707  0.6247
 3322ntf    on516885   0.610   0.417   5.638  0.3819  0.4666 -0.6228
 3322ntf    on516886   0.545   0.694   5.788  0.1373  0.3673  0.8479
 3322ntf    on516887   0.770   0.709   5.678 -0.1456 -0.7651 -0.1395
 3322ntf    fn416888   0.865   0.796   5.949  0.2820  0.3561  0.1546
 3322ntf    fn416889   0.669   0.869   5.940  0.1631 -0.0530  0.0228
 3322ntf    fn416890   0.707   0.702   6.050 -0.1888  0.3391 -0.0235
 3323ntf    cn116891   3.131   2.347   6.415 -0.0567 -0.2632 -0.0269
 3323ntf    sn216892   3.305   2.324   6.464  0.0531  0.0535 -0.2640
 3323ntf    nn316893   3.373   2.414   6.355  0.0511  0.2393 -0.1115
 3323ntf    sn216894   3.427   2.562   6.362  0.0280  0.2459 -0.0733
 3323ntf    cn116895   3.601   2.536   6.410 -0.0616  0.3358  0.2993
 3323ntf    fn416896   3.105   2.474   6.386  0.8740 -0.1192 -0.2634
 3323ntf    fn416897   3.110   2.272   6.309  0.1902 -0.2704 -0.0729
 3323ntf    fn416898   3.044   2.317   6.509 -0.3241 -0.0588 -0.2080
 3323ntf    on516899   3.308   2.375   6.598  0.3433 -0.1816 -0.1795
 3323ntf    on516900   3.328   2.183   6.442 -0.3075 -0.1143  0.4207
 3323ntf    on516901   3.360   2.650   6.454 -0.3834  0.1418 -0.2738
 3323ntf    on516902   3.447   2.621   6.232 -0.2126  0.1831 -0.1388
 3323ntf    fn416903   3.612   2.517   6.540  0.0263  0.3892  0.2995
 3323ntf    fn416904   3.663   2.433   6.355 -0.3783  0.3118 -0.0169
 3323ntf    fn416905   3.683   2.636   6.380  0.5415 -0.1014  0.4733
 3324ntf    cn116906   3.319   6.090   6.896  0.2844  0.5465  0.1167
 3324ntf    sn216907   3.226   6.226   6.973 -0.2509  0.1474  0.1901
 3324ntf    nn316908   3.089   6.215   6.898 -0.1277 -0.2196  0.0193
 3324ntf    sn216909   2.954   6.289   6.925 -0.0243  0.0582 -0.2135
 3324ntf    cn116910   2.953   6.388   6.773 -0.2336  0.0656 -0.2082
 3324ntf    fn416911   3.272   5.968   6.918 -0.0356  0.5883 -0.3335
 3324ntf    fn416912   3.317   6.092   6.764  0.2737 -0.1248  0.0999
 3324ntf    fn416913   3.444   6.090   6.938  0.2436  0.6566  0.2400
 3324ntf    on516914   3.225   6.192   7.113  0.3197 -0.4116  0.0635
 3324ntf    on516915   3.304   6.342   6.935  0.0642  0.0200  0.4390
 3324ntf    on516916   2.961   6.388   7.030 -0.5209 -0.8066  0.6491
 3324ntf    on516917   2.831   6.214   6.910 -0.1629  0.2696 -0.1383
 3324ntf    fn416918   2.857   6.478   6.757  0.0244  0.3359 -0.2396
 3324ntf    fn416919   3.065   6.455   6.753 -0.4008  0.4694  0.2008
 3324ntf    fn416920   2.942   6.305   6.670  0.5850  0.0806 -0.3131
 3325ntf    cn116921   0.351   5.514   4.683  0.5003  0.3761 -0.4360
 3325ntf    sn216922   0.461   5.657   4.659  0.6147  0.3319 -0.1808
 3325ntf    nn316923   0.537   5.674   4.795 -0.1190  0.1663  0.2549
 3325ntf    sn216924   0.496   5.739   4.932 -0.3498  0.2663  0.1380
 3325ntf    cn116925   0.581   5.899   4.916  0.1621 -0.0081  0.0841
 3325ntf    fn416926   0.300   5.478   4.567 -0.2856  0.2680 -0.0608
 3325ntf    fn416927   0.415   5.412   4.737  0.2025  0.1682 -0.4813
 3325ntf    fn416928   0.258   5.550   4.770  0.8678  0.6621 -0.1531
 3325ntf    on516929   0.553   5.610   4.558 -0.5101  0.4295 -1.2694
 3325ntf    on516930   0.376   5.767   4.623  0.0310  0.0069  0.1952
 3325ntf    on516931   0.562   5.668   5.039 -0.4190 -0.0972 -0.0574
 3325ntf    on516932   0.360   5.779   4.956 -0.5744 -0.6622  0.4682
 3325ntf    fn416933   0.713   5.902   4.916  0.1573  0.2069 -0.3205
 3325ntf    fn416934   0.557   5.961   4.802  0.6375 -0.1967 -0.1180
 3325ntf    fn416935   0.539   5.974   5.017 -0.0063 -0.1785  0.1427
 3326ntf    cn116936   6.578   0.088   6.590  0.1057 -0.2341 -0.2436
 3326ntf    sn216937   6.512  -0.066   6.521  0.2124 -0.3890 -0.0001
 3326ntf    nn316938   6.515  -0.134   6.662  0.1298  0.3897  0.3820
 3326ntf    sn216939   6.395  -0.183   6.750 -0.0448 -0.1430 -0.1472
 3326ntf    cn116940   6.467  -0.179   6.917  0.0034  0.1753 -0.1760
 3326ntf    fn416941   6.691   0.065   6.655  0.0090 -0.6546 -0.2261
 3326ntf    fn416942   6.587   0.188   6.503 -0.7153  0.1586  0.1128
 3326ntf    fn416943   6.493   0.135   6.679 -0.0051 -0.2364 -0.3463
 3326ntf    on516944   6.380  -0.034   6.473  0.3828  0.2910 -0.0258
 3326ntf    on516945   6.609  -0.121   6.428  0.1657  0.4611 -0.5606
 3326ntf    on516946   6.373  -0.323   6.722  0.8742 -0.3015 -0.1130
 3326ntf    on516947   6.287  -0.087   6.750 -0.1731 -0.2823 -0.6122
 3326ntf    fn416948   6.395  -0.246   7.006  0.5298  0.0119  0.1316
 3326ntf    fn416949   6.587  -0.232   6.925  0.1089  0.3898 -0.3317
 3326ntf    fn416950   6.467  -0.055   6.963  0.2385  0.1891 -0.2168
 3327ntf    cn116951   0.653   5.061   5.795  0.0633  0.2800 -0.2106
 3327ntf    sn216952   0.666   4.900   5.878  0.0096  0.3621 -0.0440
 3327ntf    nn316953   0.583   4.813   5.778  0.2042  0.0834  0.0346
 3327ntf    sn216954   0.640   4.743   5.650  0.1206  0.0222  0.0308
 3327ntf    cn116955   0.672   4.573   5.705  0.2158  0.0483  0.0554
 3327ntf    fn416956   0.706   5.057   5.674 -0.3311  0.3457 -0.3848
 3327ntf    fn416957   0.527   5.093   5.776 -0.1193 -0.0849  0.3577
 3327ntf    fn416958   0.707   5.158   5.867  0.2371  0.0722 -0.0617
 3327ntf    on516959   0.809   4.879   5.873  0.0615  0.6773  0.0456
 3327ntf    on516960   0.603   4.917   6.007  0.2700  1.1754 -0.0135
 3327ntf    on516961   0.769   4.788   5.606 -0.2357  0.4565 -0.5888
 3327ntf    on516962   0.544   4.716   5.546  0.3241 -0.2406 -0.0918
 3327ntf    fn416963   0.561   4.502   5.717  0.2251 -0.0186 -0.2694
 3327ntf    fn416964   0.747   4.501   5.623  0.2161  0.5995 -0.4254
 3327ntf    fn416965   0.731   4.579   5.824  0.3627 -0.4103  0.0097
 3328ntf    cn116966   4.146   6.823   3.344  0.1320  0.0544 -0.3341
 3328ntf    sn216967   4.005   6.936   3.330 -0.2607 -0.3906  0.0069
 3328ntf    nn316968   4.062   7.075   3.285 -0.4984 -0.2851  0.0273
 3328ntf    sn216969   4.057   7.206   3.372 -0.4522 -0.1655 -0.1492
 3328ntf    cn116970   3.972   7.306   3.247 -0.6538 -0.5792 -0.3463
 3328ntf    fn416971   4.102   6.699   3.360 -0.0155  0.1173 -0.2496
 3328ntf    fn416972   4.220   6.824   3.234  0.1510 -0.3105 -0.3259
 3328ntf    fn416973   4.237   6.852   3.436 -0.1205 -0.2672  0.0206
 3328ntf    on516974   3.929   6.887   3.217 -0.6405  0.6277 -0.1855
 3328ntf    on516975   3.943   6.922   3.459  0.4057  0.3077  0.4090
 3328ntf    on516976   4.185   7.272   3.383 -0.2961 -0.4715 -0.0833
 3328ntf    on516977   3.974   7.213   3.490 -0.4978 -0.4147 -0.1664
 3328ntf    fn416978   3.866   7.242   3.201 -0.8849 -0.7062  0.3523
 3328ntf    fn416979   3.932   7.417   3.308  0.7030  0.0400 -0.5285
 3328ntf    fn416980   4.054   7.339   3.148 -0.1902  0.6268  0.4137
 3329ntf    cn116981   6.684   6.017   1.945 -0.2001 -0.0287 -0.0063
 3329ntf    sn216982   6.638   5.842   1.924  0.0972 -0.0390 -0.6069
 3329ntf    nn316983   6.605   5.839   1.771 -0.1564  0.4663 -0.5646
 3329ntf    sn216984   6.533   5.729   1.686  0.0488 -0.0058 -0.1295
 3329ntf    cn116985   6.618   5.753   1.527  0.0765  0.0607 -0.1046
 3329ntf    fn416986   6.755   6.037   2.054 -0.1695  0.2773 -0.0816
 3329ntf    fn416987   6.762   6.063   1.848 -0.6175  0.1296 -0.2710
 3329ntf    fn416988   6.582   6.101   1.945 -0.1772 -0.0013  0.4571
 3329ntf    on516989   6.759   5.767   1.945 -0.2098 -0.5433 -0.6288
 3329ntf    on516990   6.526   5.817   2.012  0.7735 -0.4298  0.1593
 3329ntf    on516991   6.393   5.763   1.670  0.0355 -0.0167 -0.0335
 3329ntf    on516992   6.564   5.591   1.716 -0.0409  0.0666  0.2969
 3329ntf    fn416993   6.739   5.700   1.520 -0.2053 -0.5996 -0.0161
 3329ntf    fn416994   6.544   5.693   1.436  0.2285  0.2898 -0.3786
 3329ntf    fn416995   6.629   5.882   1.500 -0.4599  0.0523 -0.3661
 3330ntf    cn116996   4.797   0.514   7.160  0.4806  0.2147 -0.1907
 3330ntf    sn216997   4.879   0.529   7.322  0.0470 -0.2868  0.0796
 3330ntf    nn316998   4.989   0.634   7.285 -0.4864  0.1650 -0.2516
 3330ntf    sn216999   4.991   0.791   7.274 -0.3486  0.1891  0.0975
 3330ntf    cn117000   5.097   0.834   7.415  0.0318 -0.1956 -0.0696
 3330ntf    fn417001   4.866   0.445   7.071 -0.1412 -0.6703 -0.0076
 3330ntf    fn417002   4.684   0.446   7.175  0.1936  0.7579  0.1240
 3330ntf    fn417003   4.762   0.624   7.097  0.1395  0.4876  0.4701
 3330ntf    on517004   4.781   0.578   7.416  0.1696  0.2444 -0.0663
 3330ntf    on517005   4.936   0.401   7.354 -0.2765 -0.2982  0.6226
 3330ntf    on517006   4.868   0.866   7.283 -0.6312 -0.2806  0.2282
 3330ntf    on517007   5.080   0.816   7.163  0.1638  0.2921  0.5308
 3330ntf    fn417008   5.037   0.801   7.528  0.2284  0.2660  0.1740
 3330ntf    fn417009   5.207   0.761   7.427 -0.1051 -0.4850 -0.5365
 3330ntf    fn417010   5.131   0.962   7.425 -0.3070 -0.1635  0.7130
 3331ntf    cn117011   0.571   4.716   3.640 -0.0671  0.2171  0.1438
 3331ntf    sn217012   0.552   4.650   3.472 -0.1611 -0.1001  0.2757
 3331ntf    nn317013   0.474   4.519   3.505  0.0474 -0.3291 -0.1272
 3331ntf    sn217014   0.432   4.399   3.412 -0.1156 -0.1223 -0.3205
 3331ntf    cn117015   0.562   4.273   3.428 -0.1095 -0.0793 -0.0276
 3331ntf    fn417016   0.622   4.837   3.652 -0.3924  0.3722 -0.0309
 3331ntf    fn417017   0.458   4.725   3.708 -0.2565 -0.6154 -0.0496
 3331ntf    fn417018   0.646   4.634   3.713  0.2930  0.2936 -0.1379
 3331ntf    on517019   0.470   4.749   3.407  0.2553  0.1459  0.1158
 3331ntf    on517020   0.688   4.635   3.426 -0.2989  0.2295 -0.2517
 3331ntf    on517021   0.436   4.430   3.271 -0.3213 -0.4081 -0.3890
 3331ntf    on517022   0.320   4.332   3.472 -0.3236  0.2498 -0.2917
 3331ntf    fn417023   0.557   4.209   3.544  0.1141 -0.3627 -0.1724
 3331ntf    fn417024   0.542   4.182   3.335 -0.6056  0.2177 -0.2132
 3331ntf    fn417025   0.684   4.321   3.410 -0.2481  0.3975  0.2858
 3332ntf    cn117026   3.861   0.091   4.451  0.2481  0.0114 -0.5523
 3332ntf    sn217027   3.952   0.199   4.564 -0.0669 -0.0629 -0.2279
 3332ntf    nn317028   3.907   0.141   4.703  0.2465 -0.2273 -0.1933
 3332ntf    sn217029   3.995   0.057   4.802 -0.0089 -0.2673  0.0014
 3332ntf    cn117030   3.953   0.138   4.959 -0.2385 -0.5339  0.0785
 3332ntf    fn417031   3.729   0.100   4.461  0.2816 -0.0600 -0.0463
 3332ntf    fn417032   3.899   0.095   4.324 -0.4576 -0.1373 -0.7770
 3332ntf    fn417033   3.878  -0.035   4.486 -0.2662 -0.1445 -0.8513
 3332ntf    on517034   4.091   0.185   4.529 -0.1988 -0.2106 -0.6907
 3332ntf    on517035   3.901   0.330   4.533 -0.3997 -0.1743 -0.1562
 3332ntf    on517036   4.138   0.077   4.794 -0.0399 -0.2166 -0.4502
 3332ntf    on517037   3.949  -0.079   4.817  0.0075 -0.1728  1.0053
 3332ntf    fn417038   3.850   0.087   5.023 -0.5174  0.0600  0.1115
 3332ntf    fn417039   4.056   0.131   5.043  0.2716 -0.1531 -0.5024
 3332ntf    fn417040   3.929   0.267   4.946  0.4722 -0.4456 -0.4689
 3333ntf    cn117041   0.725   3.742   2.049  0.2934  0.2903 -0.1119
 3333ntf    sn217042   0.791   3.707   2.215  0.0613 -0.0081 -0.0823
 3333ntf    nn317043   0.839   3.560   2.189  0.2842 -0.0353  0.4735
 3333ntf    sn217044   0.768   3.430   2.240 -0.1052 -0.0107  0.0106
 3333ntf    cn117045   0.908   3.360   2.334  0.3157  0.1214 -0.5142
 3333ntf    fn417046   0.815   3.710   1.958  0.0677  0.0149 -0.2393
 3333ntf    fn417047   0.616   3.669   2.031  0.3402  0.1789  0.0567
 3333ntf    fn417048   0.688   3.868   2.028  0.1652  0.2282 -0.2572
 3333ntf    on517049   0.903   3.797   2.224  0.1374 -0.1347  0.2381
 3333ntf    on517050   0.672   3.738   2.290  0.4421  1.0249  0.1078
 3333ntf    on517051   0.736   3.336   2.135  0.8543  0.2855 -0.5565
 3333ntf    on517052   0.667   3.456   2.339  0.2741  0.2590  0.3320
 3333ntf    fn417053   0.905   3.229   2.348 -0.0584  0.2175  0.3774
 3333ntf    fn417054   1.023   3.386   2.274  0.5443  0.5624  0.0964
 3333ntf    fn417055   0.903   3.409   2.457 -0.4057 -0.3490 -0.3527
 3334ntf    cn117056   3.981   3.672   5.395 -0.4091 -0.3086 -0.2625
 3334ntf    sn217057   4.112   3.645   5.273 -0.1608  0.0465 -0.0773
 3334ntf    nn317058   4.064   3.738   5.156 -0.1200 -0.1328 -0.2389
 3334ntf    sn217059   4.128   3.761   5.015 -0.1027  0.3346 -0.1599
 3334ntf    cn117060   4.034   3.647   4.908  0.2487  0.0258 -0.1436
 3334ntf    fn417061   4.001   3.773   5.478 -0.3610 -0.1673 -0.4468
 3334ntf    fn417062   3.860   3.698   5.349 -0.2865  0.2899 -0.2529
 3334ntf    fn417063   3.969   3.573   5.481  0.3058 -0.2501 -0.0942
 3334ntf    on517064   4.228   3.679   5.351  0.0199  0.3217 -0.4635
 3334ntf    on517065   4.098   3.503   5.252  0.0544 -0.1471  1.0337
 3334ntf    on517066   4.265   3.716   5.001 -0.1258  0.1153  0.2947
 3334ntf    on517067   4.093   3.883   4.947 -0.2282  0.3405 -0.0840
 3334ntf    fn417068   4.039   3.526   4.961 -0.2649  0.0108 -0.1254
 3334ntf    fn417069   3.905   3.675   4.898  0.1240 -0.3600  0.3335
 3334ntf    fn417070   4.082   3.635   4.786 -0.1940  0.5498 -0.3707
 3335ntf    cn117071   2.693   3.612   0.714 -0.0634  0.1025  0.2263
 3335ntf    sn217072   2.779   3.710   0.841 -0.0873  0.1234  0.2263
 3335ntf    nn317073   2.791   3.615   0.966 -0.0527  0.1580  0.2494
 3335ntf    sn217074   2.915   3.534   1.018  0.3245  0.3011 -0.4190
 3335ntf    cn117075   2.863   3.550   1.191  0.4399 -0.1630 -0.3407
 3335ntf    fn417076   2.568   3.581   0.743 -0.3154  0.5043 -0.4221
 3335ntf    fn417077   2.690   3.673   0.597 -0.4974 -0.2417  0.0566
 3335ntf    fn417078   2.748   3.493   0.695  0.1254  0.2801 -0.3405
 3335ntf    on517079   2.902   3.758   0.783 -0.3116 -0.6422 -0.9163
 3335ntf    on517080   2.679   3.811   0.864 -0.4080 -0.2284  0.4113
 3335ntf    on517081   3.039   3.607   1.024  0.1866  0.5367 -0.3941
 3335ntf    on517082   2.920   3.390   1.008 -0.0911  0.2520  0.0422
 3335ntf    fn417083   2.734   3.523   1.203  0.4669 -0.2677 -0.2801
 3335ntf    fn417084   2.928   3.468   1.273 -0.3417 -0.5579 -0.1095
 3335ntf    fn417085   2.892   3.669   1.242  0.7684  0.0136 -0.9360
 3336ntf    cn117086   5.586   6.075   2.174 -0.0567  0.1136 -0.1382
 3336ntf    sn217087   5.479   5.930   2.156  0.2296 -0.1032 -0.0976
 3336ntf    nn317088   5.423   5.958   2.012 -0.2451  0.3073  0.1626
 3336ntf    sn217089   5.314   5.878   1.933 -0.0643  0.1363  0.0830
 3336ntf    cn117090   5.180   5.853   2.055 -0.0484 -0.0562  0.0612
 3336ntf    fn417091   5.512   6.185   2.173 -0.1639  0.0434  0.0512
 3336ntf    fn417092   5.664   6.077   2.282  0.1242  0.4254 -0.2723
 3336ntf    fn417093   5.668   6.083   2.070 -0.1725  0.6726 -0.1929
 3336ntf    on517094   5.576   5.824   2.163 -0.1045 -0.4041  0.0185
 3336ntf    on517095   5.385   5.951   2.264  0.0343 -0.4498 -0.1967
 3336ntf    on517096   5.348   5.743   1.896 -0.1215  0.0636  0.2924
 3336ntf    on517097   5.263   5.960   1.826 -0.0755 -0.3561 -0.2945
 3336ntf    fn417098   5.133   5.965   2.106 -0.8117 -0.0129 -0.7221
 3336ntf    fn417099   5.068   5.806   2.004 -0.2099  0.0204  0.3493
 3336ntf    fn417100   5.209   5.773   2.156 -0.0320  0.0250  0.1211
 3337ntf    cn117101   3.727   3.565   0.468 -0.1550 -0.2855 -0.2658
 3337ntf    sn217102   3.770   3.678   0.604 -0.1582 -0.2023 -0.3339
 3337ntf    nn317103   3.753   3.820   0.540  0.0426  0.0114  0.0843
 3337ntf    sn217104   3.866   3.904   0.470 -0.1585  0.2092 -0.0015
 3337ntf    cn117105   3.779   4.064   0.464  0.2576  0.4476  0.3122
 3337ntf    fn417106   3.617   3.608   0.407  0.1390  0.0220 -0.5825
 3337ntf    fn417107   3.825   3.570   0.379  0.2933 -0.2795  0.2247
 3337ntf    fn417108   3.701   3.442   0.512 -0.5045 -0.1493 -0.0897
 3337ntf    on517109   3.673   3.648   0.707 -0.1549  0.0111 -0.2687
 3337ntf    on517110   3.904   3.637   0.636 -0.2717  0.2622  0.7542
 3337ntf    on517111   3.884   3.866   0.332 -0.0489 -0.2704  0.1460
 3337ntf    on517112   3.984   3.938   0.545  0.0853  0.0294 -0.2998
 3337ntf    fn417113   3.676   4.053   0.381  0.3095 -0.1851  0.3261
 3337ntf    fn417114   3.729   4.092   0.583 -0.2349  0.0388  0.2060
 3337ntf    fn417115   3.865   4.156   0.424  0.3303  0.1877 -0.1350
 3338ntf    cn117116   6.356   0.240   1.785 -0.2660 -0.2792 -0.3362
 3338ntf    sn217117   6.536   0.232   1.808 -0.3005  0.0334  0.0453
 3338ntf    nn317118   6.592   0.256   1.664 -0.5699 -0.2185 -0.1032
 3338ntf    sn217119   6.646   0.163   1.549  0.0285 -0.1368  0.1059
 3338ntf    cn117120   6.699   0.282   1.422 -0.2616  0.0707  0.1778
 3338ntf    fn417121   6.312   0.353   1.733 -0.2985 -0.2477 -0.2391
 3338ntf    fn417122   6.318   0.147   1.698 -0.2382 -0.4106 -0.2075
 3338ntf    fn417123   6.290   0.218   1.898 -0.2435  0.6753 -0.1273
 3338ntf    on517124   6.557   0.339   1.902 -0.0335 -0.1328  0.1761
 3338ntf    on517125   6.557   0.098   1.858  0.1484  0.1370  0.1373
 3338ntf    on517126   6.547   0.077   1.488  0.2883  0.0447 -0.5695
 3338ntf    on517127   6.764   0.093   1.593  0.3628  0.4122  0.0951
 3338ntf    fn417128   6.741   0.219   1.313  0.7794  0.3647  0.3987
 3338ntf    fn417129   6.602   0.368   1.395 -0.0244  0.1558 -0.4113
 3338ntf    fn417130   6.795   0.358   1.471 -0.6369  0.6235  0.0618
 3339ntf    cn117131   1.004   1.961   1.445 -0.1717  0.0584 -0.0286
 3339ntf    sn217132   1.115   2.101   1.475  0.0773 -0.1664  0.1069
 3339ntf    nn317133   1.114   2.150   1.326 -0.3920 -0.2917  0.0673
 3339ntf    sn217134   1.210   2.131   1.203 -0.0916  0.2967  0.2085
 3339ntf    cn117135   1.089   2.046   1.098  0.1503  0.0076  0.1615
 3339ntf    fn417136   0.901   1.989   1.367 -0.0142  0.4856 -0.0825
 3339ntf    fn417137   1.065   1.854   1.397 -0.1352  0.1816 -0.2529
 3339ntf    fn417138   0.934   1.919   1.550 -0.3740  0.3224 -0.0572
 3339ntf    on517139   1.040   2.185   1.566  0.6454  0.8643 -0.3537
 3339ntf    on517140   1.239   2.044   1.520  0.0170 -0.4859 -0.1312
 3339ntf    on517141   1.315   2.032   1.208  0.1430  0.5001 -0.5846
 3339ntf    on517142   1.236   2.246   1.121  0.2272  0.1057  0.0360
 3339ntf    fn417143   1.144   1.988   0.992  0.1168  0.0164  0.1392
 3339ntf    fn417144   1.024   1.954   1.168 -0.2244  0.4365  0.3810
 3339ntf    fn417145   0.995   2.126   1.052 -0.5835 -0.6705  0.4448
 3340ntf    cn117146   6.705   2.136   6.280  0.1789 -0.0782  0.1045
 3340ntf    sn217147   6.845   2.229   6.349 -0.1347  0.2268  0.3350
 3340ntf    nn317148   6.758   2.336   6.424 -0.4599  0.1357  0.0883
 3340ntf    sn217149   6.756   2.391   6.571  0.2202 -0.1121  0.1943
 3340ntf    cn117150   6.670   2.252   6.650 -0.1256 -0.3019 -0.5051
 3340ntf    fn417151   6.621   2.217   6.217  0.3471  0.3261  0.3912
 3340ntf    fn417152   6.738   2.038   6.199 -0.0214 -0.1831  0.1492
 3340ntf    fn417153   6.634   2.077   6.376 -0.6089 -0.0621 -0.4576
 3340ntf    on517154   6.915   2.126   6.422 -0.4365 -0.2614 -0.0578
 3340ntf    on517155   6.917   2.288   6.239 -0.2502  0.4216  0.3619
 3340ntf    on517156   6.668   2.501   6.604  0.2213 -0.1391  0.2852
 3340ntf    on517157   6.885   2.389   6.634  0.0147 -0.0234  0.6202
 3340ntf    fn417158   6.538   2.253   6.634 -0.1279 -0.4026 -0.4952
 3340ntf    fn417159   6.710   2.131   6.614  0.3272 -0.3365  0.0967
 3340ntf    fn417160   6.705   2.252   6.778 -1.0817 -0.6828 -0.2326
 3341ntf    cn117161   4.444   2.189   0.534 -0.1350  0.1907 -0.0211
 3341ntf    sn217162   4.306   2.170   0.417 -0.1055 -0.1488 -0.0041
 3341ntf    nn317163   4.221   2.290   0.473  0.3839  0.0395  0.3392
 3341ntf    sn217164   4.096   2.286   0.567  0.0393  0.2382 -0.1030
 3341ntf    cn117165   4.093   2.458   0.624 -0.0997  0.1225  0.2468
 3341ntf    fn417166   4.486   2.314   0.544  0.0681  0.0936  0.3463
 3341ntf    fn417167   4.413   2.157   0.658  0.4020 -0.1294  0.0354
 3341ntf    fn417168   4.558   2.127   0.506 -0.1329  0.0450  0.3166
 3341ntf    on517169   4.359   2.184   0.284 -0.0206 -0.1443  0.0303
 3341ntf    on517170   4.252   2.039   0.445  0.1267 -0.3211 -0.3655
 3341ntf    on517171   4.121   2.213   0.690  0.6435  0.0777 -0.3183
 3341ntf    on517172   3.972   2.271   0.495 -0.0590  0.0530  0.1017
 3341ntf    fn417173   4.180   2.486   0.720  0.0852  0.6704 -0.0741
 3341ntf    fn417174   4.109   2.540   0.521 -0.3259 -0.2793 -0.1097
 3341ntf    fn417175   3.975   2.475   0.681  0.0143  0.4095  0.4003
 3342ntf    cn117176   3.942   3.425   1.331  0.1630  0.1840 -0.5508
 3342ntf    sn217177   4.002   3.508   1.481  0.1219 -0.1841 -0.3284
 3342ntf    nn317178   3.954   3.403   1.587  0.4624 -0.6058 -0.5919
 3342ntf    sn217179   4.048   3.365   1.708 -0.3371 -0.1712  0.1728
 3342ntf    cn117180   3.931   3.331   1.843 -0.6523 -0.2877 -0.1276
 3342ntf    fn417181   3.991   3.477   1.220  0.1009  0.8455 -0.2705
 3342ntf    fn417182   3.980   3.298   1.334  0.5319  0.2941 -0.4601
 3342ntf    fn417183   3.811   3.410   1.325  0.1267  0.0843  0.3362
 3342ntf    on517184   4.143   3.528   1.458  0.3237 -0.5440  0.5773
 3342ntf    on517185   3.921   3.628   1.483 -0.0091 -0.2754 -0.1504
 3342ntf    on517186   4.125   3.473   1.765 -0.0130 -0.2337 -0.1494
 3342ntf    on517187   4.115   3.239   1.690  0.2481  0.1674 -0.0345
 3342ntf    fn417188   3.895   3.437   1.914 -0.5319 -0.5331  0.3027
 3342ntf    fn417189   3.821   3.272   1.798 -0.5422 -0.4510 -0.1829
 3342ntf    fn417190   3.984   3.246   1.929 -0.3109 -0.2198 -0.2697
 3343ntf    cn117191   2.481   3.366   5.373  0.2430 -0.2236 -0.2625
 3343ntf    sn217192   2.362   3.246   5.441 -0.2016  0.2865 -0.1335
 3343ntf    nn317193   2.384   3.122   5.348 -0.2787  0.1963 -0.0311
 3343ntf    sn217194   2.341   3.095   5.200 -0.2246  0.1273 -0.0343
 3343ntf    cn117195   2.208   2.977   5.237 -0.1697  0.0329 -0.1352
 3343ntf    fn417196   2.600   3.359   5.430 -0.1320 -0.3976  0.5065
 3343ntf    fn417197   2.505   3.347   5.244  0.4211 -0.3053 -0.2166
 3343ntf    fn417198   2.434   3.486   5.401  0.1659 -0.2987 -0.0716
 3343ntf    on517199   2.418   3.233   5.573  0.1341 -0.3815 -0.3398
 3343ntf    on517200   2.234   3.312   5.434 -0.4000 -0.1239 -0.4007
 3343ntf    on517201   2.436   3.011   5.131  0.4977  0.3009  0.7266
 3343ntf    on517202   2.278   3.201   5.126 -0.0311  0.0520 -0.3091
 3343ntf    fn417203   2.152   2.938   5.123  0.1041  0.0213 -0.2658
 3343ntf    fn417204   2.246   2.870   5.304 -0.1407  0.3009  0.2806
 3343ntf    fn417205   2.113   3.036   5.308 -0.2575 -0.1336 -0.1147
 3344ntf    cn117206   2.866   3.980   1.400  0.1498  0.1529 -0.1326
 3344ntf    sn217207   2.981   4.118   1.426  0.0266  0.2035  0.1494
 3344ntf    nn317208   3.061   4.129   1.292  0.2894 -0.0940  0.2814
 3344ntf    sn217209   3.008   4.194   1.159 -0.0479 -0.3562  0.2870
 3344ntf    cn117210   3.122   4.333   1.135  0.3361 -0.6762  0.2633
 3344ntf    fn417211   2.928   3.864   1.393  0.0038  0.0897 -0.3694
 3344ntf    fn417212   2.776   3.954   1.494  0.0625  0.7437 -0.0475
 3344ntf    fn417213   2.805   4.004   1.285 -0.2353 -0.4100 -0.0507
 3344ntf    on517214   2.901   4.232   1.465  0.6991  0.8057 -0.1918
 3344ntf    on517215   3.070   4.082   1.534  0.1190  0.4305  0.1501
 3344ntf    on517216   2.872   4.242   1.165  0.2320  0.4427  0.3549
 3344ntf    on517217   3.045   4.110   1.048  0.1925  0.1389 -0.0101
 3344ntf    fn417218   3.098   4.398   1.023  0.8172 -0.4004  0.3175
 3344ntf    fn417219   3.119   4.423   1.232  0.4272 -0.0071 -0.3506
 3344ntf    fn417220   3.245   4.286   1.121  0.4730 -0.0175 -0.8919
 3345ntf    cn117221   0.411   7.105   1.775 -0.4023 -0.0812  0.6836
 3345ntf    sn217222   0.425   7.284   1.805  0.1297  0.0348 -0.2097
 3345ntf    nn317223   0.281   7.296   1.867  0.1400  0.2945 -0.2336
 3345ntf    sn217224   0.143   7.335   1.803 -0.1011 -0.0645  0.0598
 3345ntf    cn117225   0.164   7.512   1.842 -0.3161  0.0501 -0.3383
 3345ntf    fn417226   0.518   7.071   1.705 -0.1790  1.1875  0.3802
 3345ntf    fn417227   0.387   7.019   1.872 -0.9130 -0.3046  0.3609
 3345ntf    fn417228   0.305   7.083   1.699 -0.1775  0.1650  0.2897
 3345ntf    on517229   0.521   7.311   1.909  0.3148 -1.5940  0.0669
 3345ntf    on517230   0.449   7.342   1.675  0.2304 -0.0886 -0.2464
 3345ntf    on517231   0.026   7.296   1.877 -0.0014 -0.4698  0.0036
 3345ntf    on517232   0.139   7.330   1.659 -1.1204  0.4139  0.0658
 3345ntf    fn417233   0.067   7.582   1.786 -0.9527 -0.3904  0.1838
 3345ntf    fn417234   0.171   7.543   1.971  0.0802 -0.3001 -0.2732
 3345ntf    fn417235   0.278   7.552   1.789  0.1267  0.0517  0.6009
 3346ntf    cn117236   3.863   7.014   6.232  0.2348 -0.0157  0.0216
 3346ntf    sn217237   3.701   7.021   6.150  0.0758 -0.3469  0.3070
 3346ntf    nn317238   3.654   7.166   6.187 -0.4305 -0.3936 -0.1462
 3346ntf    sn217239   3.575   7.219   6.312 -0.1915 -0.0200 -0.1523
 3346ntf    cn117240   3.408   7.204   6.242 -0.1875 -0.1231 -0.1396
 3346ntf    fn417241   3.943   6.947   6.150  0.0486 -0.1429 -0.0571
 3346ntf    fn417242   3.934   7.122   6.258  0.4223 -0.2025  0.2946
 3346ntf    fn417243   3.860   6.935   6.338 -0.0123  0.0942  0.0968
 3346ntf    on517244   3.739   6.997   6.013 -0.3462 -0.5864  0.2274
 3346ntf    on517245   3.627   6.910   6.206  0.1904 -0.2389  0.6759
 3346ntf    on517246   3.587   7.361   6.337  0.1954 -0.0467 -0.1833
 3346ntf    on517247   3.575   7.121   6.418  0.1244  0.4366  0.2740
 3346ntf    fn417248   3.307   7.243   6.318  0.1325 -0.3159  0.3883
 3346ntf    fn417249   3.397   7.286   6.139  0.8927  0.1846 -0.0222
 3346ntf    fn417250   3.378   7.082   6.200 -0.3122 -0.0996 -0.1208
 3347ntf    cn117251   3.315   3.049   1.090  0.3360 -0.1997 -0.3562
 3347ntf    sn217252   3.325   3.003   1.266 -0.0951  0.3563 -0.1802
 3347ntf    nn317253   3.189   2.928   1.284 -0.0591  0.3917  0.2434
 3347ntf    sn217254   3.052   2.986   1.335 -0.3355  0.0686 -0.1214
 3347ntf    cn117255   2.941   2.909   1.214 -0.0862 -0.1885 -0.1890
 3347ntf    fn417256   3.194   3.017   1.047  0.1834  0.3327 -0.3372
 3347ntf    fn417257   3.320   3.180   1.068  0.5406 -0.1751 -0.1673
 3347ntf    fn417258   3.405   2.993   1.011  0.7546 -0.3309  0.2061
 3347ntf    on517259   3.430   2.904   1.256 -0.3321  0.0676  0.1923
 3347ntf    on517260   3.346   3.125   1.338  0.6048  0.0463  0.1574
 3347ntf    on517261   3.031   3.127   1.315 -0.0831  0.1862  0.4271
 3347ntf    on517262   3.006   2.926   1.459  0.1090  0.1150  0.0682
 3347ntf    fn417263   2.814   2.945   1.228  0.1294  0.6062 -0.1946
 3347ntf    fn417264   2.990   2.953   1.099  0.1354  0.0095 -0.0180
 3347ntf    fn417265   2.948   2.778   1.223  0.3565 -0.1802 -0.3914
 3348ntf    cn117266   0.908   5.038   4.568 -0.4464 -0.1123  0.2329
 3348ntf    sn217267   0.806   5.067   4.420 -0.0400  0.1916  0.0097
 3348ntf    nn317268   0.904   5.015   4.309 -0.2228 -0.0640 -0.0332
 3348ntf    sn217269   0.924   5.089   4.172 -0.3624  0.0795  0.0240
 3348ntf    cn117270   1.072   5.185   4.215  0.0124 -0.5133  0.0625
 3348ntf    fn417271   1.002   5.128   4.590 -0.5955  0.1388 -0.1423
 3348ntf    fn417272   0.849   5.019   4.685  0.0422 -0.3355  0.4435
 3348ntf    fn417273   0.976   4.926   4.553  0.0430  0.1491  0.4736
 3348ntf    on517274   0.688   4.986   4.441 -0.1863  0.4164  0.0560
 3348ntf    on517275   0.793   5.209   4.439 -0.2982  0.2159 -0.3362
 3348ntf    on517276   0.815   5.173   4.129 -0.4383 -0.2914 -0.5052
 3348ntf    on517277   0.969   4.997   4.071  0.1718  0.3356  0.0246
 3348ntf    fn417278   1.112   5.268   4.120 -0.0017 -0.7065 -0.1135
 3348ntf    fn417279   1.060   5.253   4.328 -0.6547 -0.2248 -0.1811
 3348ntf    fn417280   1.169   5.101   4.248  0.6475  0.2778  0.2312
 3349ntf    cn117281   6.468   1.715   1.781  0.4557  0.1287 -0.3334
 3349ntf    sn217282   6.385   1.604   1.664 -0.1785  0.0484  0.1839
 3349ntf    nn317283   6.240   1.662   1.649 -0.2503 -0.2993 -0.5240
 3349ntf    sn217284   6.151   1.656   1.520 -0.0457 -0.1628 -0.6726
 3349ntf    cn117285   5.992   1.622   1.603  0.2407 -0.1380 -0.1076
 3349ntf    fn417286   6.547   1.797   1.713  0.7878  0.1235  0.0437
 3349ntf    fn417287   6.374   1.779   1.850  0.7733  0.4715 -0.2151
 3349ntf    fn417288   6.538   1.649   1.871 -0.1474  0.2601  0.2443
 3349ntf    on517289   6.463   1.625   1.544 -0.2272 -0.0083  0.1423
 3349ntf    on517290   6.391   1.481   1.739 -0.5674 -0.2622 -0.2839
 3349ntf    on517291   6.158   1.540   1.435  0.3561 -0.0328 -0.8195
 3349ntf    on517292   6.125   1.784   1.458 -0.6465 -0.0247 -0.1547
 3349ntf    fn417293   5.983   1.501   1.655  0.0155  0.0853  0.3746
 3349ntf    fn417294   5.975   1.701   1.708 -0.3314 -0.3600 -0.0303
 3349ntf    fn417295   5.892   1.639   1.518 -0.0474  0.4046  0.3289
 3350ntf    cn117296   6.084   4.624   4.749  0.4233 -0.5451  0.0745
 3350ntf    sn217297   6.209   4.711   4.849  0.0008  0.2158 -0.0581
 3350ntf    nn317298   6.242   4.836   4.759 -0.4864  0.3555 -0.0484
 3350ntf    sn217299   6.379   4.884   4.699 -0.2980 -0.2551 -0.1141
 3350ntf    cn117300   6.454   4.958   4.846 -0.3836  0.0726 -0.2362
 3350ntf    fn417301   5.965   4.679   4.762  0.4819 -0.3477 -0.2232
 3350ntf    fn417302   6.111   4.629   4.620 -0.0635 -0.3688 -0.0224
 3350ntf    fn417303   6.070   4.498   4.790  0.3281 -0.5013  0.1780
 3350ntf    on517304   6.135   4.759   4.963  0.2391 -0.3167  0.3204
 3350ntf    on517305   6.314   4.614   4.869 -0.6988 -0.4465  0.4514
 3350ntf    on517306   6.379   5.000   4.613  0.2213 -0.5111 -0.4708
 3350ntf    on517307   6.470   4.779   4.658 -0.4237 -0.2429 -0.4296
 3350ntf    fn417308   6.497   4.868   4.933  0.0196 -0.8934 -1.4155
 3350ntf    fn417309   6.559   5.034   4.819 -0.0775 -0.1802  0.2286
 3350ntf    fn417310   6.369   5.031   4.917 -0.0960  0.0180  0.1715
 3351ntf    cn117311   6.464   1.988   2.748  0.3633 -0.3197  0.0859
 3351ntf    sn217312   6.485   1.861   2.876  0.1062 -0.0190  0.4282
 3351ntf    nn317313   6.553   1.947   2.989  0.0503 -0.1601  0.5698
 3351ntf    sn217314   6.496   2.031   3.108 -0.1805  0.1897  0.2137
 3351ntf    cn117315   6.524   1.933   3.258  0.0636 -0.0454  0.0160
 3351ntf    fn417316   6.577   2.048   2.715  0.0759  0.2627  0.1400
 3351ntf    fn417317   6.408   1.937   2.640  0.7392 -0.4218 -0.0632
 3351ntf    fn417318   6.379   2.084   2.783  0.3896 -0.1284 -0.3643
 3351ntf    on517319   6.351   1.814   2.900 -0.1109  0.3930  0.0419
 3351ntf    on517320   6.578   1.768   2.818 -0.3040 -0.4931  0.5275
 3351ntf    on517321   6.352   2.042   3.106 -0.2229 -0.3436  0.2295
 3351ntf    on517322   6.570   2.153   3.131 -0.1853  0.2371 -0.0232
 3351ntf    fn417323   6.486   1.806   3.255  0.1459 -0.0779  0.3086
 3351ntf    fn417324   6.655   1.921   3.270  0.1087  0.5735  0.1370
 3351ntf    fn417325   6.468   1.976   3.370  0.1119  0.2238 -0.0633
 3352ntf    cn117326   4.011   4.717   3.299  0.0663 -0.2748  0.0595
 3352ntf    sn217327   4.181   4.757   3.347  0.1321 -0.4676 -0.0097
 3352ntf    nn317328   4.164   4.902   3.405  0.4790 -0.5643  0.3402
 3352ntf    sn217329   4.206   4.972   3.539  0.0111 -0.1049  0.2512
 3352ntf    cn117330   4.193   5.147   3.492 -0.1786 -0.2487 -0.2360
 3352ntf    fn417331   3.927   4.719   3.401  0.0112 -0.0307  0.0091
 3352ntf    fn417332   3.957   4.792   3.204  0.0583  0.0013  0.2840
 3352ntf    fn417333   3.990   4.596   3.247 -0.0210 -0.1558 -0.1853
 3352ntf    on517334   4.216   4.657   3.444 -0.2131 -0.3076  0.2828
 3352ntf    on517335   4.255   4.753   3.223  0.0843 -0.0167 -0.0563
 3352ntf    on517336   4.348   4.967   3.562 -0.0025  0.7267  0.5424
 3352ntf    on517337   4.118   4.968   3.653  0.1553  0.2190  0.3767
 3352ntf    fn417338   4.066   5.167   3.459 -0.2479 -0.7193 -0.2603
 3352ntf    fn417339   4.227   5.228   3.591 -0.4799 -0.4221  0.0077
 3352ntf    fn417340   4.269   5.187   3.391  0.3558  0.5743  0.4735
 3353ntf    cn117341   6.808   2.435   2.146 -0.0451  0.2468 -0.1363
 3353ntf    sn217342   6.949   2.385   2.250 -0.2703  0.1002  0.1013
 3353ntf    nn317343   7.032   2.519   2.258  0.1413 -0.1640  0.3002
 3353ntf    sn217344   7.064   2.614   2.379  0.4034  0.1197  0.0087
 3353ntf    cn117345   7.211   2.532   2.448 -0.1345 -0.5876  0.3205
 3353ntf    fn417346   6.863   2.476   2.033 -0.2623  0.5470 -0.1325
 3353ntf    fn417347   6.733   2.332   2.111  0.5421 -0.1192 -0.3471
 3353ntf    fn417348   6.736   2.537   2.190 -0.4297 -0.1647  0.2090
 3353ntf    on517349   6.882   2.344   2.371  0.2898 -0.1085  0.3471
 3353ntf    on517350   7.024   2.284   2.180  0.3830  0.4331  0.3076
 3353ntf    on517351   6.961   2.614   2.480  0.3530 -0.5163 -0.0373
 3353ntf    on517352   7.114   2.744   2.340 -0.2606  0.2637 -0.3821
 3353ntf    fn417353   7.310   2.532   2.360  0.1059 -0.3393  0.5916
 3353ntf    fn417354   7.255   2.589   2.558 -0.1206  0.2125 -0.0929
 3353ntf    fn417355   7.180   2.406   2.477 -0.8521 -0.5194 -0.1147
 3354ntf    cn117356   3.471   4.601   2.959  0.2892  0.2902  0.1952
 3354ntf    sn217357   3.413   4.604   2.787 -0.0596  0.5345  0.3161
 3354ntf    nn317358   3.329   4.472   2.803  0.2984  0.2851  0.1779
 3354ntf    sn217359   3.175   4.469   2.834  0.1760 -0.5729 -0.4952
 3354ntf    cn117360   3.093   4.473   2.672 -0.5295  0.3462 -0.1263
 3354ntf    fn417361   3.469   4.479   3.011  0.2741  0.1617 -0.1078
 3354ntf    fn417362   3.593   4.648   2.980  0.3326  0.7330 -0.9592
 3354ntf    fn417363   3.384   4.667   3.034  0.0500 -0.3299  0.4713
 3354ntf    on517364   3.346   4.730   2.771 -0.5019  0.2062 -0.4488
 3354ntf    on517365   3.541   4.593   2.722  0.1224 -0.1150  0.7647
 3354ntf    on517366   3.114   4.569   2.917  0.7109 -0.4440 -0.2559
 3354ntf    on517367   3.145   4.331   2.867 -0.1368 -0.5691 -0.7526
 3354ntf    fn417368   3.082   4.357   2.609 -0.1633  0.0513  0.3439
 3354ntf    fn417369   2.969   4.516   2.689 -0.4192  0.2845  0.8942
 3354ntf    fn417370   3.155   4.564   2.598  0.0072 -0.4023 -0.6149
 3355ntf    cn117371   0.087   3.303   5.358  0.0952  0.1401  0.3609
 3355ntf    sn217372  -0.025   3.446   5.368 -0.2639 -0.1402  0.3728
 3355ntf    nn317373  -0.092   3.425   5.508 -0.5033 -0.0459  0.2729
 3355ntf    sn217374  -0.039   3.486   5.642  0.1570  0.0628 -0.0340
 3355ntf    cn117375  -0.135   3.641   5.639 -0.2798 -0.2138 -0.4439
 3355ntf    fn417376   0.025   3.188   5.333  0.1752  0.1959 -0.1081
 3355ntf    fn417377   0.165   3.312   5.252 -0.1578 -0.1261  0.1498
 3355ntf    fn417378   0.175   3.293   5.456  0.6627  0.1766 -0.1366
 3355ntf    on517379   0.056   3.563   5.345  0.0797 -0.4489 -0.0122
 3355ntf    on517380  -0.113   3.426   5.256 -0.2280  0.1789  0.2867
 3355ntf    on517381   0.097   3.526   5.666  0.2475 -0.2166 -0.0807
 3355ntf    on517382  -0.097   3.415   5.754  0.0798 -0.2855 -0.2959
 3355ntf    fn417383  -0.105   3.735   5.727 -0.0214 -0.0983 -0.6561
 3355ntf    fn417384  -0.124   3.697   5.520  0.2419 -0.0073 -0.2991
 3355ntf    fn417385  -0.266   3.620   5.642 -0.1828 -0.8041 -0.2501
 3356ntf    cn117386   4.749   3.960   0.537  0.9153 -0.0437 -0.1412
 3356ntf    sn217387   4.625   3.873   0.638  0.4452  0.3799 -0.3543
 3356ntf    nn317388   4.618   3.744   0.548 -0.2750  0.0541  0.1645
 3356ntf    sn217389   4.499   3.646   0.517 -0.3273  0.2750 -0.3298
 3356ntf    cn117390   4.464   3.713   0.351 -0.4511 -0.1432 -0.4731
 3356ntf    fn417391   4.843   3.888   0.477  0.3833 -0.2090 -0.7788
 3356ntf    fn417392   4.691   4.028   0.440 -0.4159 -0.4102  0.3849
 3356ntf    fn417393   4.806   4.054   0.611  0.5613 -0.6094  0.8760
 3356ntf    on517394   4.695   3.852   0.762 -0.3227  0.5542  0.1145
 3356ntf    on517395   4.503   3.950   0.631  0.1169 -0.0798  0.2375
 3356ntf    on517396   4.380   3.673   0.594  0.0191  0.4991  0.1275
 3356ntf    on517397   4.540   3.512   0.486 -0.1233  0.3152 -0.2365
 3356ntf    fn417398   4.404   3.629   0.268 -0.0025 -1.2601  0.3180
 3356ntf    fn417399   4.398   3.828   0.348  0.3833  0.3743  0.4684
 3356ntf    fn417400   4.576   3.730   0.284  0.0499 -0.5448  0.2484
 3357ntf    cn117401   1.865   1.999   6.746  0.0453 -0.4719 -0.2887
 3357ntf    sn217402   1.911   2.090   6.596  0.3115 -0.0860  0.0275
 3357ntf    nn317403   1.899   1.968   6.498 -0.4970 -0.0693  0.1010
 3357ntf    sn217404   1.814   1.957   6.367  0.0118  0.0666 -0.2462
 3357ntf    cn117405   1.931   1.873   6.256  0.2096  0.0114  0.0051
 3357ntf    fn417406   1.952   1.900   6.757  0.3178 -0.1703  0.2582
 3357ntf    fn417407   1.879   2.070   6.856  0.3826 -0.4346 -0.3567
 3357ntf    fn417408   1.739   1.956   6.746 -0.1890  0.2015  0.1779
 3357ntf    on517409   1.813   2.194   6.575  0.6251  0.2747  0.3351
 3357ntf    on517410   2.047   2.127   6.626  0.5446 -1.0503  0.1967
 3357ntf    on517411   1.792   2.079   6.294 -0.3194  0.3609  0.3403
 3357ntf    on517412   1.699   1.869   6.361 -0.3868  0.5751 -0.1880
 3357ntf    fn417413   1.869   1.838   6.145  0.3297 -0.5363  0.1110
 3357ntf    fn417414   2.027   1.954   6.214 -0.2373  0.3631 -0.3433
 3357ntf    fn417415   1.986   1.761   6.301 -0.5340 -0.5202 -0.3942
 3358ntf    cn117416   6.497   0.897   3.331 -0.0066  0.7098  0.1739
 3358ntf    sn217417   6.403   1.048   3.367 -0.5359  0.4362 -0.0597
 3358ntf    nn317418   6.266   0.981   3.404 -0.5485  0.6186  0.2312
 3358ntf    sn217419   6.138   0.984   3.313 -0.4705 -0.0553  0.0869
 3358ntf    cn117420   6.032   0.887   3.424 -0.3284  0.3037  0.5425
 3358ntf    fn417421   6.432   0.803   3.265  0.2479  0.5471  0.1517
 3358ntf    fn417422   6.599   0.919   3.249  0.4953  0.1761  0.6529
 3358ntf    fn417423   6.551   0.843   3.439  0.4486  1.1099  0.1548
 3358ntf    on517424   6.473   1.104   3.480  0.0014 -0.3967  0.0241
 3358ntf    on517425   6.405   1.115   3.239 -0.3069  0.0997 -0.2322
 3358ntf    on517426   6.143   0.915   3.187  0.6617  0.3515 -0.1045
 3358ntf    on517427   6.084   1.118   3.306  0.0118  0.1464  0.1692
 3358ntf    fn417428   6.080   0.764   3.436  0.1431  0.4245 -0.0907
 3358ntf    fn417429   6.041   0.929   3.549 -0.9567  0.4234  0.5486
 3358ntf    fn417430   5.908   0.887   3.378  0.0802 -0.2206 -0.6196
 3359ntf    cn117431   3.272   5.324   3.891  0.3071 -0.4358 -0.0127
 3359ntf    sn217432   3.240   5.234   3.737  0.1875  0.1210 -0.3179
 3359ntf    nn317433   3.310   5.093   3.746 -0.2327 -0.0616  0.1266
 3359ntf    sn217434   3.258   4.950   3.785 -0.1066 -0.1795 -0.1324
 3359ntf    cn117435   3.196   4.913   3.618  0.0222  0.0180 -0.2242
 3359ntf    fn417436   3.402   5.342   3.908  0.1531  0.3470  0.4288
 3359ntf    fn417437   3.222   5.446   3.885  0.0963 -0.5277 -0.1144
 3359ntf    fn417438   3.207   5.273   3.994 -0.2872  0.5122  0.0987
 3359ntf    on517439   3.097   5.222   3.729  0.1515  0.4759 -0.2204
 3359ntf    on517440   3.309   5.315   3.640  0.6394 -0.1012 -0.1834
 3359ntf    on517441   3.150   4.950   3.881  0.6790  0.0373  0.7628
 3359ntf    on517442   3.360   4.849   3.800 -0.1362 -0.2541 -0.4309
 3359ntf    fn417443   3.154   5.021   3.553  0.0923  0.4552  0.4469
 3359ntf    fn417444   3.288   4.856   3.543  0.2007  0.5625 -0.4279
 3359ntf    fn417445   3.094   4.829   3.628  0.0138  0.0862  0.3401
 3360ntf    cn117446   4.497   1.503   4.917 -0.7135 -0.0934  0.4094
 3360ntf    sn217447   4.456   1.660   4.834  0.3384 -0.0618 -0.0760
 3360ntf    nn317448   4.574   1.746   4.891  0.1011  0.3532 -0.2111
 3360ntf    sn217449   4.702   1.793   4.814  0.2967 -0.2860 -0.2764
 3360ntf    cn117450   4.639   1.897   4.679 -0.0730 -0.3239 -0.1337
 3360ntf    fn417451   4.625   1.472   4.903 -0.5603  0.3063  0.9056
 3360ntf    fn417452   4.481   1.505   5.048 -0.3563  0.7538  0.4504
 3360ntf    fn417453   4.429   1.403   4.863 -0.2679 -0.0151 -0.3189
 3360ntf    on517454   4.455   1.624   4.694 -0.1547 -0.4356  0.0195
 3360ntf    on517455   4.329   1.700   4.890  0.3651 -0.0590 -0.0176
 3360ntf    on517456   4.789   1.695   4.752  0.6589  0.1465 -0.4586
 3360ntf    on517457   4.777   1.889   4.891  0.0200 -0.5310  0.3031
 3360ntf    fn417458   4.738   1.941   4.603  0.0530 -0.0958  0.1613
 3360ntf    fn417459   4.561   1.828   4.597  0.1808 -0.0342 -0.6235
 3360ntf    fn417460   4.567   1.999   4.723  0.6576  0.2905 -0.3523
 3361ntf    cn117461   0.462   4.576   1.557  0.1852  0.1158 -0.1367
 3361ntf    sn217462   0.562   4.577   1.709  0.4020 -0.0860 -0.2760
 3361ntf    nn317463   0.534   4.437   1.773 -0.3238 -0.0808 -0.5729
 3361ntf    sn217464   0.629   4.317   1.809 -0.6605 -0.0915  0.2862
 3361ntf    cn117465   0.536   4.171   1.753 -0.0208 -0.2411 -0.3996
 3361ntf    fn417466   0.487   4.475   1.475 -0.3577 -0.0125 -0.1473
 3361ntf    fn417467   0.332   4.584   1.581  0.3074  0.6415  0.3472
 3361ntf    fn417468   0.489   4.686   1.489  0.9040  0.0455  0.0215
 3361ntf    on517469   0.694   4.607   1.658  0.1609  0.1338 -0.7789
 3361ntf    on517470   0.502   4.681   1.788 -0.7730 -0.5288 -0.5675
 3361ntf    on517471   0.639   4.287   1.950 -0.2356 -0.2318  0.2274
 3361ntf    on517472   0.749   4.301   1.732 -0.4199  0.0214  0.6344
 3361ntf    fn417473   0.592   4.056   1.788 -0.4884 -0.4752 -0.4093
 3361ntf    fn417474   0.410   4.163   1.793  0.0883  0.3540  0.0748
 3361ntf    fn417475   0.530   4.168   1.621  0.5839  0.4800 -0.4484
 3362ntf    cn117476   2.065   0.257   4.008  0.1202  0.4390 -0.1379
 3362ntf    sn217477   2.240   0.246   4.054  0.0905 -0.2483 -0.1750
 3362ntf    nn317478   2.213   0.252   4.209 -0.1922 -0.1031 -0.2284
 3362ntf    sn217479   2.265   0.159   4.324 -0.2855  0.0512 -0.0615
 3362ntf    cn117480   2.108   0.082   4.373 -0.2298  0.3254  0.5600
 3362ntf    fn417481   2.009   0.144   4.049  0.2404  0.2057 -0.6207
 3362ntf    fn417482   2.004   0.365   4.054  0.2391  0.5558 -0.2566
 3362ntf    fn417483   2.050   0.260   3.877  0.2266  0.6411 -0.1463
 3362ntf    on517484   2.295   0.127   3.996  0.1375 -0.4368  0.2496
 3362ntf    on517485   2.299   0.374   4.024 -0.3966  0.1210  0.4005
 3362ntf    on517486   2.301   0.246   4.434 -0.7506  0.3674 -0.1603
 3362ntf    on517487   2.347   0.047   4.287  0.9283  0.9513 -0.1719
 3362ntf    fn417488   2.120  -0.012   4.465 -0.0990  0.3753  0.5945
 3362ntf    fn417489   2.016   0.165   4.420 -0.2627  0.4122  0.3430
 3362ntf    fn417490   2.049   0.017   4.274  0.5334  0.0156  0.3055
 3363ntf    cn117491   1.754   0.993   1.212 -0.2214 -0.1925  0.0960
 3363ntf    sn217492   1.790   0.859   1.329  0.0982  0.0806  0.3110
 3363ntf    nn317493   1.772   0.735   1.235  0.2369 -0.3283  0.8165
 3363ntf    sn217494   1.797   0.584   1.266  0.0019 -0.4875  0.2534
 3363ntf    cn117495   1.927   0.585   1.394  0.0687 -0.0549  0.1802
 3363ntf    fn417496   1.778   1.118   1.249  0.2974 -0.1836 -0.2606
 3363ntf    fn417497   1.818   0.979   1.097  0.3429  0.4757  0.3244
 3363ntf    fn417498   1.627   0.998   1.173 -0.2128 -0.5586  0.0213
 3363ntf    on517499   1.924   0.887   1.374  0.3066 -0.5926  0.1210
 3363ntf    on517500   1.682   0.869   1.425 -0.5407 -0.2562 -0.3609
 3363ntf    on517501   1.870   0.513   1.164 -0.7479 -0.6716 -0.1652
 3363ntf    on517502   1.683   0.514   1.321 -0.3294  0.4695  0.8061
 3363ntf    fn417503   1.898   0.657   1.501 -0.1781  0.7066 -0.3791
 3363ntf    fn417504   1.941   0.469   1.454  0.1289 -0.0659  0.1446
 3363ntf    fn417505   2.041   0.639   1.353 -0.3551  0.4885 -0.3107
 3364ntf    cn117506   3.720   3.671   3.714  0.3442 -0.4180 -0.0407
 3364ntf    sn217507   3.867   3.753   3.646 -0.0464  0.1317 -0.2230
 3364ntf    nn317508   3.804   3.785   3.505 -0.8226  0.1084  0.1153
 3364ntf    sn217509   3.878   3.801   3.368 -0.3816 -0.2623  0.3053
 3364ntf    cn117510   3.913   3.629   3.322 -0.2137 -0.1780  0.1168
 3364ntf    fn417511   3.693   3.555   3.656 -0.1082 -0.1547 -0.3615
 3364ntf    fn417512   3.731   3.643   3.843  0.2824  0.2149  0.1041
 3364ntf    fn417513   3.610   3.743   3.700  0.3764 -0.3315  0.1475
 3364ntf    on517514   3.879   3.863   3.738  0.0012 -0.0800  0.0241
 3364ntf    on517515   3.968   3.650   3.644 -0.0841  0.0762  0.5217
 3364ntf    on517516   4.007   3.864   3.370 -0.5902  0.1641  0.4406
 3364ntf    on517517   3.778   3.838   3.270 -0.1579  0.3241  0.2964
 3364ntf    fn417518   4.008   3.569   3.392 -0.2907  0.3451  0.6686
 3364ntf    fn417519   3.808   3.549   3.330 -0.2176 -0.2099 -0.2147
 3364ntf    fn417520   3.951   3.621   3.195 -0.2397 -0.4383  0.1249
 3365ntf    cn117521   7.068   6.034   6.430  0.4714 -0.3217 -0.0223
 3365ntf    sn217522   7.092   6.005   6.252  0.1609 -0.0487 -0.1096
 3365ntf    nn317523   7.239   5.950   6.259  0.2512  0.1203 -0.6200
 3365ntf    sn217524   7.375   6.010   6.210  0.3108  0.2373 -0.3122
 3365ntf    cn117525   7.367   5.960   6.036 -0.1354 -0.4928 -0.0853
 3365ntf    fn417526   6.975   6.127   6.446  0.3548 -0.4736  0.1744
 3365ntf    fn417527   7.025   5.932   6.502  0.0982 -0.0810  0.0974
 3365ntf    fn417528   7.176   6.083   6.489  0.1004  0.2105  0.2183
 3365ntf    on517529   7.002   5.897   6.220  0.0244  0.1401 -0.3683
 3365ntf    on517530   7.069   6.130   6.184  0.6063 -0.1335 -0.4155
 3365ntf    on517531   7.488   5.951   6.277 -0.1365 -0.0883  0.1594
 3365ntf    on517532   7.371   6.155   6.209 -0.1588  0.2262 -0.3687
 3365ntf    fn417533   7.272   6.015   5.963  0.1584 -0.1809 -0.2360
 3365ntf    fn417534   7.487   5.969   5.980 -0.0920  0.1527  0.1129
 3365ntf    fn417535   7.332   5.832   6.033 -0.0450 -0.5234  0.1085
 3366ntf    cn117536   1.905   2.339   1.736 -0.3769  0.0227 -0.0082
 3366ntf    sn217537   1.885   2.411   1.570  0.0829  0.2921  0.0513
 3366ntf    nn317538   1.730   2.434   1.576 -0.0810 -0.5975 -0.5669
 3366ntf    sn217539   1.607   2.350   1.526 -0.4439 -0.2056 -0.3411
 3366ntf    cn117540   1.547   2.297   1.690  0.0366 -0.1311 -0.1394
 3366ntf    fn417541   2.019   2.376   1.793 -0.3709  0.1429 -0.0990
 3366ntf    fn417542   1.812   2.390   1.815 -0.2772 -0.2117  0.2636
 3366ntf    fn417543   1.896   2.207   1.747 -0.2300  0.0393  0.3411
 3366ntf    on517544   1.953   2.537   1.584 -0.0159  0.3789 -0.2456
 3366ntf    on517545   1.934   2.315   1.474  0.6735 -0.0107  0.6473
 3366ntf    on517546   1.635   2.228   1.454  0.4893 -0.0719 -0.2112
 3366ntf    on517547   1.501   2.436   1.480  0.2683  0.7293 -0.2608
 3366ntf    fn417548   1.628   2.209   1.745 -0.3589 -0.4710 -0.0949
 3366ntf    fn417549   1.544   2.395   1.779  0.2228  0.2355 -0.5292
 3366ntf    fn417550   1.422   2.254   1.681  0.1102 -0.2557 -0.6080
 3367ntf    cn117551   2.506   2.533   6.506  0.2500  0.0378  0.1635
 3367ntf    sn217552   2.487   2.688   6.601 -0.3420 -0.0689  0.2229
 3367ntf    nn317553   2.613   2.765   6.547 -0.2500  0.2303  0.8596
 3367ntf    sn217554   2.638   2.868   6.431 -0.5215 -0.3535  0.2745
 3367ntf    cn117555   2.661   3.026   6.518  0.1015 -0.2491 -0.0750
 3367ntf    fn417556   2.417   2.443   6.544  0.3133 -0.0998 -0.0156
 3367ntf    fn417557   2.491   2.563   6.378 -0.0825 -0.5419  0.0637
 3367ntf    fn417558   2.625   2.476   6.515  0.1122 -0.2622  0.0936
 3367ntf    on517559   2.353   2.733   6.573 -0.1030  0.4567 -0.0821
 3367ntf    on517560   2.505   2.643   6.737  0.5398  0.2593  0.2245
 3367ntf    on517561   2.529   2.907   6.345 -0.5225 -0.2674  0.3138
 3367ntf    on517562   2.769   2.851   6.373 -0.4871  0.0602  0.2287
 3367ntf    fn417563   2.723   3.113   6.440  0.1374 -0.2911 -0.0929
 3367ntf    fn417564   2.553   3.081   6.571  0.2518  0.0734 -0.1017
 3367ntf    fn417565   2.745   3.001   6.616 -0.0675 -0.6593 -0.0338
 3368ntf    cn117566   3.538   1.106   0.495  0.4779  0.1867  0.0224
 3368ntf    sn217567   3.433   1.155   0.635 -0.2077 -0.3638 -0.2974
 3368ntf    nn317568   3.359   1.278   0.571 -0.2134 -0.1629  0.0944
 3368ntf    sn217569   3.226   1.272   0.489 -0.2932  0.0196  0.2114
 3368ntf    cn117570   3.118   1.334   0.621 -0.6826  0.1250 -0.1533
 3368ntf    fn417571   3.519   1.174   0.383 -0.4915 -0.1139 -0.0005
 3368ntf    fn417572   3.667   1.120   0.524  0.5247 -0.2376  0.0184
 3368ntf    fn417573   3.521   0.979   0.461  0.3716  0.1885  0.0700
 3368ntf    on517574   3.352   1.040   0.668 -0.5481 -0.1820 -0.5011
 3368ntf    on517575   3.531   1.191   0.734 -0.5756  0.0407 -0.0792
 3368ntf    on517576   3.175   1.141   0.457  0.1718 -0.1417  0.1244
 3368ntf    on517577   3.217   1.376   0.388 -0.0316 -0.4367 -0.2886
 3368ntf    fn417578   2.997   1.351   0.569 -0.7137 -0.1282 -0.1652
 3368ntf    fn417579   3.104   1.245   0.718  0.0270 -0.1208 -0.2711
 3368ntf    fn417580   3.147   1.455   0.666 -0.4171 -0.0225  0.0754
 3369ntf    cn117581   4.232   6.343   0.851  0.3440 -0.4798 -0.0922
 3369ntf    sn217582   4.302   6.469   0.961 -0.2114 -0.6411  0.4512
 3369ntf    nn317583   4.176   6.512   1.044 -0.3306  0.4686 -0.2779
 3369ntf    sn217584   4.134   6.461   1.187  0.1345 -0.0047 -0.3080
 3369ntf    cn117585   4.060   6.615   1.250  0.1444 -0.0253 -0.2443
 3369ntf    fn417586   4.168   6.245   0.913 -0.0404  0.0296  0.3205
 3369ntf    fn417587   4.147   6.384   0.758  0.2506 -0.3861  0.0343
 3369ntf    fn417588   4.327   6.273   0.790  0.2011 -0.4138 -0.3959
 3369ntf    on517589   4.410   6.409   1.035  0.5306  0.3831  0.2223
 3369ntf    on517590   4.342   6.574   0.870  0.0195 -1.0220  0.1104
 3369ntf    on517591   4.238   6.434   1.283  0.3544  0.2312 -0.4755
 3369ntf    on517592   4.023   6.370   1.185  0.2486 -0.1442 -0.2776
 3369ntf    fn417593   3.967   6.658   1.166 -0.1593 -0.0651  0.0687
 3369ntf    fn417594   3.997   6.595   1.364 -0.2629 -0.1230 -0.4836
 3369ntf    fn417595   4.149   6.710   1.272  0.4715 -0.4360  0.2233
 3370ntf    cn117596   1.088   5.577   4.894  0.4918 -0.0606  0.4619
 3370ntf    sn217597   1.187   5.574   5.047  0.2452  0.2366  0.6302
 3370ntf    nn317598   1.079   5.621   5.150  0.0707  0.8404  0.1815
 3370ntf    sn217599   1.084   5.751   5.238  0.1970  0.6781  0.4156
 3370ntf    cn117600   0.969   5.852   5.142  0.4167  0.4906 -0.0487
 3370ntf    fn417601   1.013   5.686   4.888  0.6608  0.0192 -0.3327
 3370ntf    fn417602   1.142   5.561   4.775 -0.2862 -1.3634  0.2721
 3370ntf    fn417603   0.995   5.485   4.908  0.0590  0.1971 -0.6247
 3370ntf    on517604   1.223   5.435   5.060 -0.2063 -0.0601 -1.0542
 3370ntf    on517605   1.304   5.652   5.015 -0.1921  0.3603 -0.7417
 3370ntf    on517606   1.206   5.828   5.238  0.6780 -0.0688 -0.0814
 3370ntf    on517607   1.014   5.739   5.364 -0.1352 -0.3019  0.1470
 3370ntf    fn417608   0.862   5.783   5.106  0.2479  0.7086  0.0297
 3370ntf    fn417609   0.912   5.949   5.213 -0.0726 -0.1335  0.4219
 3370ntf    fn417610   1.016   5.896   5.026  0.3360 -0.4320 -0.4375
 3371ntf    cn117611   0.414   6.382   1.239 -0.4271  0.0126  0.0267
 3371ntf    sn217612   0.563   6.445   1.321 -0.3464 -0.3651  0.1694
 3371ntf    nn317613   0.548   6.400   1.471 -0.3303 -0.0741  0.2583
 3371ntf    sn217614   0.571   6.269   1.555 -0.1715 -0.2453 -0.0518
 3371ntf    cn117615   0.750   6.289   1.579 -0.2914  0.2677  0.4228
 3371ntf    fn417616   0.410   6.254   1.206 -0.2403  0.0324 -0.0707
 3371ntf    fn417617   0.306   6.398   1.314  0.0962  0.8355  0.6103
 3371ntf    fn417618   0.400   6.443   1.122  0.3469 -0.5354 -0.3634
 3371ntf    on517619   0.671   6.383   1.249 -0.4515 -0.2192 -0.1149
 3371ntf    on517620   0.549   6.588   1.314  0.0623 -0.3477 -0.2928
 3371ntf    on517621   0.556   6.147   1.480 -0.1234 -0.6852  0.6517
 3371ntf    on517622   0.510   6.282   1.685  0.0307 -0.4320  0.0626
 3371ntf    fn417623   0.812   6.282   1.463  0.0510  0.0269  0.6170
 3371ntf    fn417624   0.776   6.408   1.632  0.6459  0.3641 -0.2289
 3371ntf    fn417625   0.806   6.204   1.664  0.1656  0.4317  0.2898
 3372ntf    cn117626   2.663   1.310   2.289 -0.0027  0.1144  0.1013
 3372ntf    sn217627   2.710   1.435   2.166 -0.3543  0.0575 -0.0929
 3372ntf    nn317628   2.653   1.378   2.031 -0.3837  0.3092 -0.1871
 3372ntf    sn217629   2.723   1.277   1.934  0.1175  0.3864  0.0885
 3372ntf    cn117630   2.811   1.390   1.823 -0.0750  0.1524 -0.3055
 3372ntf    fn417631   2.736   1.318   2.399 -0.2029 -0.0969  0.2508
 3372ntf    fn417632   2.535   1.317   2.321  0.0231 -0.2006  0.2740
 3372ntf    fn417633   2.686   1.191   2.236 -0.0832  0.0368  0.2421
 3372ntf    on517634   2.645   1.552   2.218 -0.3682 -0.1194  0.2929
 3372ntf    on517635   2.854   1.431   2.169 -0.3653 -0.0835  0.3019
 3372ntf    on517636   2.625   1.215   1.848  0.3219  0.3243 -0.0997
 3372ntf    on517637   2.826   1.191   1.987 -0.2711 -0.2969 -0.2452
 3372ntf    fn417638   2.928   1.428   1.874 -0.2850 -0.0859  0.3583
 3372ntf    fn417639   2.839   1.343   1.702 -0.4142  0.6203 -0.5715
 3372ntf    fn417640   2.734   1.496   1.800  0.1512  0.2020 -0.8571
 3373ntf    cn117641   6.119   1.387   6.522  0.3124  0.2122 -0.0483
 3373ntf    sn217642   6.144   1.394   6.342  0.1222 -0.1984 -0.0931
 3373ntf    nn317643   6.255   1.505   6.328  0.0368 -0.0992  0.0249
 3373ntf    sn217644   6.239   1.647   6.261 -0.2731 -0.1700 -0.0539
 3373ntf    cn117645   6.140   1.740   6.382  0.0388  0.0435  0.0389
 3373ntf    fn417646   6.115   1.502   6.588 -0.0970  0.2664 -0.1581
 3373ntf    fn417647   6.005   1.329   6.555  0.0800  0.4907 -0.3445
 3373ntf    fn417648   6.214   1.317   6.580  0.2192  0.1669  0.0494
 3373ntf    on517649   6.206   1.269   6.306 -0.3270 -0.3154 -0.4643
 3373ntf    on517650   6.017   1.431   6.286  0.2827  0.6120  0.0524
 3373ntf    on517651   6.167   1.643   6.136  0.1979 -0.2976 -0.3230
 3373ntf    on517652   6.364   1.718   6.266 -0.3033 -0.1259  0.0962
 3373ntf    fn417653   6.092   1.844   6.316 -0.0405  0.1373  0.2437
 3373ntf    fn417654   6.043   1.662   6.427 -0.0022  0.2500  0.3115
 3373ntf    fn417655   6.205   1.786   6.487 -0.3048 -0.5411  0.5201
 3374ntf    cn117656   2.493   2.467   7.154 -0.0377 -0.0747  0.1243
 3374ntf    sn217657   2.612   2.564   7.251  0.0541 -0.5577  0.5017
 3374ntf    nn317658   2.608   2.480   7.383  0.0369 -0.0419  0.8321
 3374ntf    sn217659   2.543   2.508   7.523 -0.0962  0.2106  0.7211
 3374ntf    cn117660   2.687   2.575   7.612  0.1857  0.5198  0.0336
 3374ntf    fn417661   2.530   2.341   7.134 -0.0021 -0.0925  0.3030
 3374ntf    fn417662   2.373   2.466   7.209 -0.2154  0.2029 -0.2511
 3374ntf    fn417663   2.476   2.505   7.029  0.3591 -0.1185  0.0551
 3374ntf    on517664   2.736   2.545   7.179 -0.4117 -0.1305 -0.4351
 3374ntf    on517665   2.551   2.695   7.251  0.1522 -0.5031 -0.5486
 3374ntf    on517666   2.506   2.388   7.595  0.1498  0.2755  0.9559
 3374ntf    on517667   2.454   2.621   7.532 -0.0835  0.2205  0.7257
 3374ntf    fn417668   2.675   2.556   7.742  0.1652 -0.0448 -0.0480
 3374ntf    fn417669   2.795   2.516   7.564  0.0926  0.4392 -0.0772
 3374ntf    fn417670   2.703   2.705   7.591  0.8047  0.4689  0.1946
 3375ntf    cn117671   0.334   0.166   6.819 -0.1381  0.1670 -0.0583
 3375ntf    sn217672   0.500   0.124   6.881 -0.2304  0.0463  0.1061
 3375ntf    nn317673   0.521   0.231   6.994  1.3118 -0.6025  0.4632
 3375ntf    sn217674   0.597   0.368   6.980  0.0579  0.0506 -0.1759
 3375ntf    cn117675   0.755   0.316   7.053  0.0577  0.2597 -0.0261
 3375ntf    fn417676   0.325   0.262   6.728 -0.9345 -0.4001 -0.5991
 3375ntf    fn417677   0.271   0.063   6.764 -0.3262  0.2691 -0.0328
 3375ntf    fn417678   0.255   0.214   6.913  0.2556  0.7617 -0.0278
 3375ntf    on517679   0.480  -0.005   6.942  0.1462  0.2839  0.7411
 3375ntf    on517680   0.582   0.126   6.763  0.3218 -0.5377  0.4711
 3375ntf    on517681   0.560   0.467   7.079 -0.2840  0.0185 -0.2694
 3375ntf    on517682   0.629   0.417   6.849 -0.4166  0.2628 -0.2151
 3375ntf    fn417683   0.732   0.285   7.179  0.3248  0.4649  0.0754
 3375ntf    fn417684   0.819   0.218   6.990  0.1679  0.0227  0.4505
 3375ntf    fn417685   0.839   0.418   7.053  0.0942  0.2305  0.3313
 3376ntf    cn117686   1.650   0.436   2.856 -0.0937  0.3620  0.6780
 3376ntf    sn217687   1.804   0.512   2.797 -0.0763 -0.1885  0.0111
 3376ntf    nn317688   1.896   0.503   2.924 -0.1278 -0.4075  0.0331
 3376ntf    sn217689   2.004   0.389   2.930  0.1803 -0.1138  0.1150
 3376ntf    cn117690   2.001   0.358   3.109  0.2181 -0.2711  0.0880
 3376ntf    fn417691   1.645   0.306   2.880 -0.4852  0.2583  0.0459
 3376ntf    fn417692   1.605   0.491   2.968 -1.4038 -0.0575  0.3764
 3376ntf    fn417693   1.547   0.463   2.779  0.4355 -0.6792 -0.4292
 3376ntf    on517694   1.842   0.431   2.683 -0.0693  0.0566 -0.1633
 3376ntf    on517695   1.769   0.648   2.763  0.0574 -0.1785 -0.0923
 3376ntf    on517696   2.142   0.428   2.917  0.1249  0.0195 -0.0775
 3376ntf    on517697   1.982   0.258   2.874 -0.4217  0.3498 -0.7540
 3376ntf    fn417698   2.039   0.466   3.175 -0.5916  0.1740 -0.1703
 3376ntf    fn417699   1.886   0.313   3.155 -0.0281 -0.1547 -0.4056
 3376ntf    fn417700   2.085   0.259   3.137  0.1879 -0.3124  0.0344
 3377ntf    cn117701   5.898   1.005   0.757 -0.0860  0.2772  0.1971
 3377ntf    sn217702   5.966   0.945   0.599 -0.0062  0.0602  0.3128
 3377ntf    nn317703   6.015   1.083   0.543 -0.3211  0.0436 -0.0081
 3377ntf    sn217704   5.939   1.175   0.441  0.1514  0.1504 -0.2669
 3377ntf    cn117705   6.013   1.327   0.508  0.4358  0.0517 -0.3559
 3377ntf    fn417706   5.966   1.093   0.828  0.1080  0.1390  0.1831
 3377ntf    fn417707   5.786   1.072   0.736 -0.2953 -0.1717 -0.1437
 3377ntf    fn417708   5.854   0.910   0.838  0.6985 -0.0985  0.1905
 3377ntf    on517709   6.069   0.849   0.627  0.2963  0.2091 -0.2820
 3377ntf    on517710   5.848   0.890   0.537  0.6358 -0.8177 -0.1415
 3377ntf    on517711   5.801   1.195   0.478  0.1961 -0.2908  0.1494
 3377ntf    on517712   5.985   1.163   0.305  0.9965  0.6149 -0.0339
 3377ntf    fn417713   6.145   1.318   0.495  0.5046  0.1419  0.2630
 3377ntf    fn417714   5.965   1.432   0.444 -0.5932 -0.3736 -0.3048
 3377ntf    fn417715   6.002   1.342   0.639 -0.7845 -0.3658 -0.4040
 3378ntf    cn117716   2.296   1.700   1.854  0.2467  0.3345 -0.3965
 3378ntf    sn217717   2.233   1.868   1.824  0.0277  0.2425 -0.4504
 3378ntf    nn317718   2.178   1.858   1.677  0.1346 -0.9366 -0.4208
 3378ntf    sn217719   2.038   1.797   1.642 -0.4044  0.0286  0.0358
 3378ntf    cn117720   1.938   1.948   1.665 -0.1379  0.2097  0.0068
 3378ntf    fn417721   2.366   1.661   1.749 -0.3595 -0.3402 -0.5619
 3378ntf    fn417722   2.371   1.701   1.963  0.2029 -0.4591 -0.3538
 3378ntf    fn417723   2.197   1.616   1.879  0.0018  0.6804 -0.2050
 3378ntf    on517724   2.143   1.890   1.934  0.3942 -0.1013 -0.0801
 3378ntf    on517725   2.355   1.943   1.837  0.2607 -0.2666  0.3186
 3378ntf    on517726   1.994   1.697   1.735 -0.2988 -0.3573 -0.3268
 3378ntf    on517727   2.019   1.769   1.502 -0.7658 -0.2531  0.1398
 3378ntf    fn417728   1.809   1.927   1.644 -0.1589  0.1927  0.1541
 3378ntf    fn417729   1.957   1.993   1.788 -0.1420 -0.3407  0.2136
 3378ntf    fn417730   1.988   2.041   1.585  0.6281  0.2286  0.4890
 3379ntf    cn117731   0.311   1.163   2.536  0.0637 -0.3075  0.3139
 3379ntf    sn217732   0.155   1.101   2.465 -0.1025  0.1711  0.2562
 3379ntf    nn317733   0.211   1.010   2.350 -0.0171  0.0859  0.3657
 3379ntf    sn217734   0.206   1.029   2.194  0.0530 -0.3928  0.3023
 3379ntf    cn117735   0.382   1.071   2.177 -0.0673  0.1484  0.3639
 3379ntf    fn417736   0.372   1.245   2.452  0.2758 -0.3440  0.4320
 3379ntf    fn417737   0.295   1.242   2.640 -0.0660  0.5926 -0.3784
 3379ntf    fn417738   0.394   1.066   2.570  0.4594 -0.1267 -0.1283
 3379ntf    on517739   0.095   1.022   2.569  0.1395 -0.2480  0.0803
 3379ntf    on517740   0.079   1.211   2.411  0.1871  0.0296 -0.4664
 3379ntf    on517741   0.145   1.145   2.135  0.2968 -0.0905  0.6441
 3379ntf    on517742   0.200   0.907   2.117  0.4671  0.1622 -0.6123
 3379ntf    fn417743   0.422   1.055   2.052 -0.0968  0.1188  0.3580
 3379ntf    fn417744   0.407   1.195   2.215  0.6543  0.2360 -0.3727
 3379ntf    fn417745   0.463   0.992   2.246  0.7154  0.5002 -0.1450
 3380ntf    cn117746   4.272   6.136   3.661  0.1267 -0.2984  0.3879
 3380ntf    sn217747   4.384   6.183   3.796  0.1184  0.5296  0.1111
 3380ntf    nn317748   4.438   6.042   3.838  0.1497  0.5548  0.1548
 3380ntf    sn217749   4.422   5.944   3.960 -0.0451  0.1278 -0.2088
 3380ntf    cn117750   4.352   5.798   3.878 -0.4732 -0.0287  0.4290
 3380ntf    fn417751   4.210   6.237   3.603  0.8883  0.0167  0.1104
 3380ntf    fn417752   4.333   6.066   3.566 -0.2716 -0.2783  0.1145
 3380ntf    fn417753   4.174   6.061   3.708  0.5085 -0.7979  0.3990
 3380ntf    on517754   4.476   6.259   3.716  0.3611  0.5178  0.3741
 3380ntf    on517755   4.300   6.243   3.897  0.7397  0.1242  0.8853
 3380ntf    on517756   4.325   5.989   4.057 -0.0750 -0.5133  0.0609
 3380ntf    on517757   4.538   5.889   4.024 -0.3090 -0.0729  0.0987
 3380ntf    fn417758   4.256   5.820   3.790  0.5533  0.1972 -0.6523
 3380ntf    fn417759   4.450   5.733   3.817 -0.1837  0.4753  0.3475
 3380ntf    fn417760   4.301   5.706   3.959  0.0337 -0.6851  0.0139
 3381ntf    cn117761   1.768   0.825   6.978  0.2526 -0.1865  0.4545
 3381ntf    sn217762   1.904   0.727   6.908 -0.0314 -0.1561 -0.1461
 3381ntf    nn317763   1.925   0.613   7.014  0.1811 -0.3801 -0.4284
 3381ntf    sn217764   1.827   0.498   7.059 -0.0113  0.0727  0.3205
 3381ntf    cn117765   1.900   0.350   6.984 -0.2106 -0.0314  0.3341
 3381ntf    fn417766   1.784   0.864   7.104 -0.2840  0.8291  0.2194
 3381ntf    fn417767   1.756   0.935   6.905 -0.1092  0.0243  0.8252
 3381ntf    fn417768   1.652   0.761   6.976  0.0174  0.2308  0.5344
 3381ntf    on517769   1.846   0.684   6.783  0.1741 -0.0138 -0.2906
 3381ntf    on517770   2.014   0.820   6.910 -0.5022  0.4110 -0.2174
 3381ntf    on517771   1.695   0.499   7.003  0.1796  0.2268 -0.1338
 3381ntf    on517772   1.850   0.475   7.200 -0.2923  0.4838  0.4354
 3381ntf    fn417773   2.027   0.329   7.015 -0.1069 -0.3930 -0.3109
 3381ntf    fn417774   1.843   0.242   7.035 -0.2560 -0.2417 -0.1522
 3381ntf    fn417775   1.880   0.346   6.853 -0.1640  0.1052  0.3230
 3382ntf    cn117776   3.457   4.453   6.300 -0.0719  0.0963 -0.0711
 3382ntf    sn217777   3.607   4.425   6.399 -0.1381 -0.2816 -0.0750
 3382ntf    nn317778   3.681   4.560   6.369  0.3425 -0.6164 -0.4118
 3382ntf    sn217779   3.810   4.599   6.287  0.1096  0.1276 -0.4270
 3382ntf    cn117780   3.774   4.777   6.293  0.0556  0.1076 -0.1397
 3382ntf    fn417781   3.405   4.574   6.307 -0.3791  0.0089 -0.7546
 3382ntf    fn417782   3.471   4.425   6.171 -0.0686  0.0559 -0.0618
 3382ntf    fn417783   3.358   4.371   6.330 -0.2202  0.4019  0.2867
 3382ntf    on517784   3.553   4.415   6.532 -0.5822  0.8144 -0.1642
 3382ntf    on517785   3.675   4.311   6.342  0.2235 -0.0207 -0.1711
 3382ntf    on517786   3.810   4.572   6.145  0.1564 -1.3250 -0.1610
 3382ntf    on517787   3.930   4.593   6.366 -0.4770 -0.4104  0.4403
 3382ntf    fn417788   3.858   4.843   6.215  0.4332 -0.1109  0.0848
 3382ntf    fn417789   3.652   4.810   6.253  0.2504  0.7569 -0.2229
 3382ntf    fn417790   3.790   4.831   6.413  0.3556  0.5380 -0.3718
 3383ntf    cn117791   1.130   1.365   5.814 -0.1662  0.0124  0.1579
 3383ntf    sn217792   1.052   1.206   5.776  0.1152 -0.1021  0.0583
 3383ntf    nn317793   1.173   1.115   5.819 -0.3278 -0.4014  0.6903
 3383ntf    sn217794   1.197   0.966   5.776  0.2731 -0.0884 -0.0910
 3383ntf    cn117795   1.280   0.895   5.921  0.0135 -0.0346  0.0865
 3383ntf    fn417796   1.214   1.393   5.716 -0.5090 -0.2589 -0.2179
 3383ntf    fn417797   1.044   1.466   5.813 -0.5152 -0.2851 -0.1075
 3383ntf    fn417798   1.195   1.378   5.929  0.2998 -0.3644 -0.0587
 3383ntf    on517799   0.947   1.196   5.874 -0.5850 -0.1440 -0.6899
 3383ntf    on517800   1.025   1.206   5.634  0.5423 -0.0898 -0.0254
 3383ntf    on517801   1.291   0.957   5.668  0.7412  0.0772  0.3011
 3383ntf    on517802   1.077   0.886   5.770  0.2163 -0.0081 -0.0323
 3383ntf    fn417803   1.398   0.953   5.941  0.1572 -0.1750 -0.3316
 3383ntf    fn417804   1.209   0.912   6.031 -0.4141 -0.7176 -0.0859
 3383ntf    fn417805   1.296   0.764   5.909 -0.0549 -0.0745  0.4330
 3384ntf    cn117806   4.850   6.266   1.230 -0.3532 -0.1891 -0.1203
 3384ntf    sn217807   4.965   6.210   1.359  0.1528  0.4908 -0.2683
 3384ntf    nn317808   5.083   6.179   1.261  0.2217 -0.0414 -0.0214
 3384ntf    sn217809   5.118   6.056   1.169 -0.5180 -0.0697 -0.2673
 3384ntf    cn117810   5.296   6.050   1.205 -0.4945 -0.1329 -0.3902
 3384ntf    fn417811   4.905   6.365   1.162  0.0091  0.1014  0.5856
 3384ntf    fn417812   4.828   6.172   1.140 -0.0426 -0.3067 -0.0738
 3384ntf    fn417813   4.736   6.309   1.283  0.0249  0.7364 -0.0449
 3384ntf    on517814   4.988   6.324   1.445  0.4180  0.7979 -0.7414
 3384ntf    on517815   4.910   6.090   1.418 -0.1988  0.6969 -0.1717
 3384ntf    on517816   5.101   6.080   1.028 -0.2730  0.4230 -0.2135
 3384ntf    on517817   5.067   5.930   1.217 -0.1359 -0.0489  0.1955
 3384ntf    fn417818   5.364   5.969   1.126 -0.2929 -0.0894 -0.2608
 3384ntf    fn417819   5.346   6.169   1.176 -0.9883 -0.0506 -0.9318
 3384ntf    fn417820   5.323   6.018   1.330  0.2104  0.0138 -0.5037
 3385ntf    cn117821   4.846   4.629   6.047  0.4491 -0.0105  0.2599
 3385ntf    sn217822   4.817   4.807   6.065  0.1639 -0.0443  0.1303
 3385ntf    nn317823   4.949   4.847   6.138  0.0489  0.3802  0.1087
 3385ntf    sn217824   5.043   4.966   6.096  0.2759  0.1448 -0.0519
 3385ntf    cn117825   5.185   4.919   6.200 -0.0383  0.3429  0.4702
 3385ntf    fn417826   4.825   4.557   6.157 -0.4545 -0.3551 -0.1327
 3385ntf    fn417827   4.774   4.574   5.951  0.0372  0.4166  0.3222
 3385ntf    fn417828   4.970   4.600   6.012  0.1878 -0.1577 -0.5467
 3385ntf    on517829   4.801   4.863   5.933 -0.4063 -0.2302  0.1157
 3385ntf    on517830   4.699   4.811   6.148  0.0834 -0.1745  0.0240
 3385ntf    on517831   5.001   5.091   6.154  0.0272  0.1008 -0.1368
 3385ntf    on517832   5.103   4.963   5.965 -0.3671  0.4429 -0.3572
 3385ntf    fn417833   5.301   4.960   6.153 -0.1161  0.2552  0.1959
 3385ntf    fn417834   5.173   4.960   6.325 -0.2268  0.5762  0.3761
 3385ntf    fn417835   5.186   4.787   6.213  0.0415  0.2989  0.0071
 3386ntf    cn117836   1.808   5.551   3.279 -0.1540  0.1035 -0.2876
 3386ntf    sn217837   1.910   5.679   3.201  0.0378  0.0115 -0.1882
 3386ntf    nn317838   1.898   5.790   3.312 -0.5106 -0.2754  0.0456
 3386ntf    sn217839   1.796   5.906   3.337 -0.3460 -0.1490  0.1365
 3386ntf    cn117840   1.844   6.031   3.214  0.1426 -0.4266  0.0469
 3386ntf    fn417841   1.873   5.505   3.384 -0.0875  0.1080 -0.3264
 3386ntf    fn417842   1.689   5.596   3.315 -0.0139  0.1752  0.0866
 3386ntf    fn417843   1.793   5.444   3.203  0.9449 -0.1830 -0.1108
 3386ntf    on517844   2.040   5.617   3.201  0.0188 -0.0319  0.6214
 3386ntf    on517845   1.843   5.709   3.077  0.4075  0.1197 -0.3632
 3386ntf    on517846   1.817   5.965   3.467  0.1826 -0.8664  0.3832
 3386ntf    on517847   1.659   5.878   3.302 -0.2473 -0.2101 -0.2047
 3386ntf    fn417848   1.800   6.152   3.243 -0.0536 -0.5280  0.1709
 3386ntf    fn417849   1.976   6.034   3.206  0.1044  0.2423 -0.4147
 3386ntf    fn417850   1.798   6.010   3.091 -0.0618  0.1627  0.0229
 3387ntf    cn117851   4.018   5.478   6.346  0.5292  0.2547  0.0325
 3387ntf    sn217852   4.071   5.560   6.194  0.0816  0.3253 -0.0870
 3387ntf    nn317853   4.189   5.652   6.242  0.0227  0.0339  0.6253
 3387ntf    sn217854   4.345   5.643   6.223 -0.0167  0.0741  0.2738
 3387ntf    cn117855   4.369   5.778   6.104 -0.0132 -0.2702 -0.1196
 3387ntf    fn417856   4.100   5.382   6.387 -0.0327 -0.0776  0.4063
 3387ntf    fn417857   4.000   5.565   6.444 -0.4322 -0.3136  0.3811
 3387ntf    fn417858   3.901   5.419   6.328  0.4940  0.1931  0.4498
 3387ntf    on517859   4.097   5.448   6.108 -0.5027  0.3581 -0.3146
 3387ntf    on517860   3.952   5.637   6.167 -0.0460  0.0972 -0.1792
 3387ntf    on517861   4.393   5.522   6.162 -0.0568  0.3341 -0.2791
 3387ntf    on517862   4.425   5.687   6.334  0.6695  0.1715 -0.2529
 3387ntf    fn417863   4.355   5.891   6.172  0.2323 -0.3426  0.0510
 3387ntf    fn417864   4.485   5.778   6.041 -0.1383 -0.2346 -0.3532
 3387ntf    fn417865   4.274   5.768   6.013 -0.1021  0.5135 -0.1228
 3388ntf    cn117866   1.508   3.477   4.313 -0.0503  0.0740  0.1904
 3388ntf    sn217867   1.648   3.374   4.260 -0.0820 -0.0349  0.3183
 3388ntf    nn317868   1.575   3.235   4.260 -0.5981  0.2381 -0.2202
 3388ntf    sn217869   1.485   3.164   4.152 -0.1406 -0.2570 -0.2726
 3388ntf    cn117870   1.576   3.008   4.125  0.1730 -0.2056  0.4438
 3388ntf    fn417871   1.396   3.445   4.249  0.3502  0.2622 -0.6231
 3388ntf    fn417872   1.496   3.475   4.445  0.5537  0.0294  0.2463
 3388ntf    fn417873   1.521   3.603   4.275 -0.2667 -0.0218 -0.2099
 3388ntf    on517874   1.693   3.429   4.135 -0.8723 -0.3344 -0.1028
 3388ntf    on517875   1.739   3.380   4.372 -0.3393 -0.5270  0.5592
 3388ntf    on517876   1.475   3.224   4.022  0.3967 -0.2447 -0.3103
 3388ntf    on517877   1.365   3.117   4.216 -0.2144 -0.2763 -0.4256
 3388ntf    fn417878   1.696   3.032   4.075 -0.1044  0.5158  0.1113
 3388ntf    fn417879   1.586   2.936   4.235 -0.1947 -0.2394  0.4572
 3388ntf    fn417880   1.518   2.929   4.036  0.9851  0.4114 -0.6502
 3389ntf    cn117881   1.659   4.520   2.253  0.1488 -0.3679 -0.4535
 3389ntf    sn217882   1.560   4.490   2.103 -0.3585  0.1379 -0.2228
 3389ntf    nn317883   1.424   4.558   2.143 -0.4275  0.1294 -0.4439
 3389ntf    sn217884   1.308   4.502   2.232 -0.1392  0.0715 -0.1047
 3389ntf    cn117885   1.230   4.655   2.290 -0.4026  0.0308 -0.3536
 3389ntf    fn417886   1.601   4.459   2.355  0.2601  0.0765 -0.1196
 3389ntf    fn417887   1.785   4.480   2.254  0.2989  0.0926 -0.4982
 3389ntf    fn417888   1.661   4.645   2.296  0.0298 -0.5628  0.1160
 3389ntf    on517889   1.626   4.560   1.997  0.4797  0.0657  0.2391
 3389ntf    on517890   1.566   4.346   2.099  0.4089  0.1404  0.5642
 3389ntf    on517891   1.352   4.437   2.354 -0.3360  0.6559  0.2816
 3389ntf    on517892   1.207   4.435   2.155 -0.1437  0.3903 -0.3783
 3389ntf    fn417893   1.161   4.625   2.399 -0.1322  0.1543 -0.1478
 3389ntf    fn417894   1.315   4.746   2.335 -0.5181  0.0530 -0.1770
 3389ntf    fn417895   1.155   4.710   2.196 -0.1473  0.3129 -0.3939
 3390ntf    cn117896   5.289   1.054   3.019 -0.2473  0.3012 -0.2448
 3390ntf    sn217897   5.256   1.121   3.185 -0.2121 -0.3974  0.0479
 3390ntf    nn317898   5.376   1.056   3.262  0.1325 -0.7714 -0.7890
 3390ntf    sn217899   5.371   0.938   3.366  0.0910  0.0405  0.1436
 3390ntf    cn117900   5.542   0.881   3.345  0.0858 -0.2540  0.8454
 3390ntf    fn417901   5.287   0.922   3.023  0.4281  0.2956  0.1134
 3390ntf    fn417902   5.194   1.091   2.935 -0.1379  0.0726 -0.4690
 3390ntf    fn417903   5.406   1.093   2.970 -0.0511 -0.0404 -0.0498
 3390ntf    on517904   5.282   1.263   3.180  0.4131 -0.5303 -0.5823
 3390ntf    on517905   5.123   1.071   3.208 -0.1614 -0.1442  0.9436
 3390ntf    on517906   5.298   0.827   3.311  0.3643 -0.5155  0.8879
 3390ntf    on517907   5.351   0.966   3.506 -0.2240 -0.2847  0.1667
 3390ntf    fn417908   5.601   0.898   3.228 -0.2061  0.1305  0.7528
 3390ntf    fn417909   5.621   0.940   3.433  0.2468  0.2490  0.3752
 3390ntf    fn417910   5.561   0.755   3.378  0.4883 -0.1847  0.8859
 3391ntf    cn117911   2.059   5.453   6.343  0.1806  0.1745  0.1455
 3391ntf    sn217912   1.928   5.573   6.305  0.2665  0.1639 -0.1858
 3391ntf    nn317913   1.819   5.533   6.410  0.4010 -0.2114 -0.1878
 3391ntf    sn217914   1.664   5.536   6.388  0.3199  0.2012  0.4175
 3391ntf    cn117915   1.634   5.359   6.356  0.5205  0.2439 -0.0056
 3391ntf    fn417916   2.008   5.333   6.366 -0.2148  0.3722  0.3004
 3391ntf    fn417917   2.152   5.437   6.250 -0.3463  0.1739 -0.3836
 3391ntf    fn417918   2.112   5.491   6.458  0.4450 -0.0939  0.1140
 3391ntf    on517919   1.974   5.708   6.325 -0.0676  0.2451  0.0402
 3391ntf    on517920   1.898   5.520   6.174  0.0827 -0.5006  0.1225
 3391ntf    on517921   1.618   5.591   6.263 -0.0955 -0.2985  0.3437
 3391ntf    on517922   1.587   5.560   6.508 -0.3327  0.0065  0.0416
 3391ntf    fn417923   1.677   5.281   6.454  0.0151  0.2212  0.2028
 3391ntf    fn417924   1.507   5.327   6.340  0.4002  0.3753  0.6375
 3391ntf    fn417925   1.691   5.319   6.243  0.1487 -0.5924  0.0972
 3392ntf    cn117926   3.863   4.170   1.946  0.0107 -0.1600 -0.0471
 3392ntf    sn217927   3.756   4.289   2.032  0.1654 -0.0434 -0.0169
 3392ntf    nn317928   3.737   4.206   2.164 -0.0130  0.2951  0.1714
 3392ntf    sn217929   3.775   4.243   2.312  0.1677 -0.0992  0.2261
 3392ntf    cn117930   3.949   4.194   2.330  0.1962 -0.0065  0.2023
 3392ntf    fn417931   3.975   4.143   2.010  0.0022  0.2106  0.1286
 3392ntf    fn417932   3.797   4.055   1.940  0.3855 -0.3894  0.1571
 3392ntf    fn417933   3.893   4.205   1.822 -0.1318 -0.4739 -0.1717
 3392ntf    on517934   3.849   4.398   2.038 -0.4910  0.5035  0.4805
 3392ntf    on517935   3.633   4.293   1.956  0.3858  0.5373 -0.3456
 3392ntf    on517936   3.699   4.153   2.395 -0.3307  0.3561  0.2757
 3392ntf    on517937   3.772   4.384   2.342  0.1612 -0.1697  0.5639
 3392ntf    fn417938   4.041   4.257   2.258  0.4617 -0.1043  0.4547
 3392ntf    fn417939   3.979   4.210   2.458 -0.0341  0.0809  0.2473
 3392ntf    fn417940   3.955   4.065   2.304 -0.2889 -0.0050  0.0693
 3393ntf    cn117941   4.685   5.065   1.950  0.4793  0.0523 -0.0845
 3393ntf    sn217942   4.600   4.957   1.831 -0.1156  0.4292 -0.0026
 3393ntf    nn317943   4.653   5.015   1.695 -0.2601  0.1047 -0.1986
 3393ntf    sn217944   4.800   5.002   1.642 -0.2724  0.1676 -0.2483
 3393ntf    cn117945   4.783   4.878   1.509 -0.2463  0.1721 -0.2552
 3393ntf    fn417946   4.747   5.163   1.887  0.2317 -0.1337 -0.6163
 3393ntf    fn417947   4.599   5.121   2.033  0.1001 -0.0940 -0.3787
 3393ntf    fn417948   4.777   5.004   2.024  0.2574  0.2559  0.3609
 3393ntf    on517949   4.633   4.822   1.868  0.2599  0.5358  0.0565
 3393ntf    on517950   4.459   4.981   1.847 -0.0997  0.4096  0.1698
 3393ntf    on517951   4.890   4.946   1.739 -0.1140  0.0059 -0.4890
 3393ntf    on517952   4.841   5.124   1.577  0.3965  0.0635 -0.0220
 3393ntf    fn417953   4.713   4.770   1.537 -0.5362  0.3378 -0.3367
 3393ntf    fn417954   4.727   4.918   1.396 -0.2686  0.9843  0.0308
 3393ntf    fn417955   4.901   4.837   1.467 -0.3068  0.0879 -0.3396
 3394ntf    cn117956   1.402   6.756   5.254  0.7232 -0.2601  0.0149
 3394ntf    sn217957   1.291   6.658   5.358  0.5695 -0.2857 -0.1719
 3394ntf    nn317958   1.198   6.762   5.430  0.3763 -0.7266  0.2252
 3394ntf    sn217959   1.212   6.849   5.560  0.2372  0.0206 -0.2491
 3394ntf    cn117960   1.165   7.012   5.495  0.1072  0.0010 -0.2030
 3394ntf    fn417961   1.468   6.836   5.336 -0.3189  0.2289  0.3878
 3394ntf    fn417962   1.493   6.678   5.197  0.0636 -0.9804 -0.0763
 3394ntf    fn417963   1.340   6.821   5.156  0.4477  0.4168  0.6318
 3394ntf    on517964   1.207   6.577   5.273  0.2429 -0.4282  0.2804
 3394ntf    on517965   1.375   6.581   5.447 -0.1445 -0.8316  0.0506
 3394ntf    on517966   1.338   6.867   5.628 -0.0427  0.2983  0.2073
 3394ntf    on517967   1.107   6.832   5.658 -0.0396 -0.0668 -0.5604
 3394ntf    fn417968   1.163   7.109   5.585 -0.3020 -0.1582 -0.0361
 3394ntf    fn417969   1.237   7.042   5.389 -0.2245 -0.5680 -0.5933
 3394ntf    fn417970   1.041   7.006   5.449  0.1103  0.1326 -0.2266
 3395ntf    cn117971   6.958   2.993   0.393 -0.2732  0.1251  0.3608
 3395ntf    sn217972   6.915   3.137   0.494 -0.0291  0.1308  0.4570
 3395ntf    nn317973   6.810   3.211   0.404  0.3412  0.3308  0.1813
 3395ntf    sn217974   6.825   3.303   0.278  0.2027 -0.0122 -0.0853
 3395ntf    cn117975   6.732   3.447   0.338 -0.0337 -0.3139  0.2788
 3395ntf    fn417976   7.023   3.005   0.278 -0.1588 -0.5870  0.3418
 3395ntf    fn417977   7.025   2.908   0.468  0.5903  0.4203 -0.0566
 3395ntf    fn417978   6.849   2.924   0.363 -0.2765  0.2234  0.1417
 3395ntf    on517979   6.867   3.100   0.625 -0.7514  0.0916  0.1851
 3395ntf    on517980   7.042   3.206   0.504  0.3148 -0.4820  0.3398
 3395ntf    on517981   6.747   3.254   0.167  0.0725 -0.5066  0.2183
 3395ntf    on517982   6.955   3.360   0.251 -0.1679  0.9149  0.0490
 3395ntf    fn417983   6.603   3.431   0.318  0.0517  0.0776 -0.6127
 3395ntf    fn417984   6.754   3.486   0.463  0.0968 -0.2156  0.2256
 3395ntf    fn417985   6.772   3.551   0.266  0.3364 -0.4817  0.2393
 3396ntf    cn117986   2.061   5.777   6.694  0.2298  0.1947  0.0788
 3396ntf    sn217987   2.094   5.943   6.763  0.2203  0.2073  0.0524
 3396ntf    nn317988   2.249   5.924   6.784  0.1953  0.4263  0.4366
 3396ntf    sn217989   2.346   6.043   6.817  0.2007  0.4155  0.4596
 3396ntf    cn117990   2.420   6.080   6.655  0.3853 -0.0563  0.4361
 3396ntf    fn417991   2.055   5.675   6.778  0.4215  0.0185 -0.1217
 3396ntf    fn417992   1.945   5.773   6.632  0.4787  0.0985 -0.3821
 3396ntf    fn417993   2.149   5.736   6.605  0.4099  0.2148  0.2457
 3396ntf    on517994   2.063   6.032   6.654 -0.1162  0.0042 -0.0187
 3396ntf    on517995   2.010   5.956   6.879 -0.2386 -0.1296 -0.2390
 3396ntf    on517996   2.459   5.996   6.893  0.4037 -0.5108 -0.4018
 3396ntf    on517997   2.293   6.174   6.846 -0.3719  0.3139 -0.1030
 3396ntf    fn417998   2.334   6.067   6.555  0.0255  0.3697  0.6866
 3396ntf    fn417999   2.448   6.209   6.655 -0.2389  0.0831  0.5781
 3396ntf    fn418000   2.531   6.017   6.622  0.1145 -0.5236  0.3994
 3397ntf    cn118001   0.247   4.718   4.864  0.1037  0.0875  0.1174
 3397ntf    sn218002   0.107   4.753   4.754  0.2169  0.3127  0.0454
 3397ntf    nn318003  -0.005   4.653   4.800  0.2422  0.4068  0.3138
 3397ntf    sn218004  -0.117   4.675   4.907  0.0230  0.0852  0.1515
 3397ntf    cn118005  -0.252   4.751   4.811  0.2065 -0.0086 -0.1803
 3397ntf    fn418006   0.301   4.830   4.907 -0.3072  0.5194 -0.4675
 3397ntf    fn418007   0.223   4.653   4.976 -0.5559 -0.0888 -0.1211
 3397ntf    fn418008   0.335   4.654   4.788  0.1603 -0.1254  0.3640
 3397ntf    on518009   0.074   4.890   4.787 -0.5411  0.0320  0.4909
 3397ntf    on518010   0.150   4.725   4.619 -0.2793 -0.2957  0.0060
 3397ntf    on518011  -0.096   4.767   5.016 -0.0843 -0.4925  0.6621
 3397ntf    on518012  -0.172   4.548   4.949 -0.1204  0.0392 -0.1713
 3397ntf    fn418013  -0.221   4.860   4.742 -0.0733 -0.2420 -0.6752
 3397ntf    fn418014  -0.296   4.664   4.722  0.5571 -0.2867 -0.0859
 3397ntf    fn418015  -0.359   4.782   4.882 -0.0045  0.0062 -0.5053
 3398ntf    cn118016   1.664   1.497   1.365  0.4133 -0.1172  0.1832
 3398ntf    sn218017   1.515   1.516   1.468  0.0290 -0.4210 -0.3136
 3398ntf    nn318018   1.493   1.372   1.526 -0.5041 -0.2288 -0.0387
 3398ntf    sn218019   1.564   1.299   1.645 -0.0059  0.2495 -0.0403
 3398ntf    cn118020   1.617   1.146   1.562  0.2084  0.3645 -0.1171
 3398ntf    fn418021   1.697   1.618   1.321  0.0206  0.2865  0.9677
 3398ntf    fn418022   1.772   1.450   1.426  0.8219 -0.0562 -0.4786
 3398ntf    fn418023   1.640   1.420   1.261 -0.0267 -0.5238  0.5849
 3398ntf    on518024   1.556   1.614   1.565  0.8233 -0.7086 -0.3522
 3398ntf    on518025   1.417   1.558   1.371 -0.0461  0.0841 -0.0204
 3398ntf    on518026   1.468   1.249   1.740  0.1921 -0.3719 -0.1613
 3398ntf    on518027   1.687   1.357   1.694 -0.0825 -0.0747  0.5441
 3398ntf    fn418028   1.627   1.041   1.642 -0.3431  0.2479 -0.1997
 3398ntf    fn418029   1.532   1.105   1.469 -0.0866  0.0315  0.2969
 3398ntf    fn418030   1.731   1.156   1.495  0.1731  0.3810 -0.1754
 3399ntf    cn118031   3.805   6.807   2.140  0.3891 -0.7201  0.0130
 3399ntf    sn218032   3.971   6.770   2.204  0.7874  0.3314 -0.3979
 3399ntf    nn318033   4.026   6.675   2.092 -0.1084 -0.3035 -0.3121
 3399ntf    sn218034   4.150   6.580   2.111 -0.1001 -0.2351 -0.0021
 3399ntf    cn118035   4.285   6.677   2.038 -0.1537  0.1305  0.3825
 3399ntf    fn418036   3.818   6.879   2.030 -0.3238 -0.0514  0.3594
 3399ntf    fn418037   3.744   6.696   2.101 -0.3986 -0.3692  0.2116
 3399ntf    fn418038   3.725   6.866   2.228  0.2285 -0.2494 -0.4446
 3399ntf    on518039   4.032   6.900   2.218  0.2305  0.5230  0.3544
 3399ntf    on518040   3.946   6.702   2.329 -0.5356 -0.0961 -0.8842
 3399ntf    on518041   4.146   6.460   2.030  1.0409 -0.2411 -0.0621
 3399ntf    on518042   4.191   6.560   2.247 -0.3068  0.5134  0.1740
 3399ntf    fn418043   4.402   6.621   2.065 -0.1296  0.0481  0.1112
 3399ntf    fn418044   4.274   6.693   1.907  0.3907  0.3991  0.3655
 3399ntf    fn418045   4.295   6.799   2.088 -0.6731  0.4136 -0.2033
 3400ntf    cn118046   0.360   7.006   5.248  0.5271 -0.2260 -0.1971
 3400ntf    sn218047   0.375   7.072   5.417  0.1372  0.1321 -0.3009
 3400ntf    nn318048   0.273   6.986   5.500  0.0224  0.5412 -0.0143
 3400ntf    sn218049   0.217   6.986   5.647 -0.2578 -0.4370 -0.1166
 3400ntf    cn118050   0.303   6.844   5.721  0.5031  0.1886  0.1942
 3400ntf    fn418051   0.438   7.068   5.160  0.4184 -0.0008 -0.1364
 3400ntf    fn418052   0.406   6.882   5.245 -0.1965 -0.5103  0.1413
 3400ntf    fn418053   0.236   7.016   5.205  0.5832 -0.0670 -0.3229
 3400ntf    on518054   0.513   7.043   5.448  0.0789  0.0315 -0.1276
 3400ntf    on518055   0.340   7.211   5.406  0.1195  0.1765  0.2660
 3400ntf    on518056   0.079   6.944   5.650 -0.3811 -0.0844 -0.7157
 3400ntf    on518057   0.262   7.094   5.731 -0.9830 -0.2486  0.0391
 3400ntf    fn418058   0.436   6.850   5.720  0.5133 -0.1076 -0.6634
 3400ntf    fn418059   0.283   6.823   5.850  0.1008  0.3789  0.1653
 3400ntf    fn418060   0.271   6.730   5.664 -0.2482  0.0683  0.8406
 3401ntf    cn118061   1.898   0.756   3.971  0.2611  0.1319  0.0482
 3401ntf    sn218062   1.759   0.720   4.082  0.2162  0.4105  0.0807
 3401ntf    nn318063   1.823   0.761   4.219 -0.0375 -0.1054  0.3553
 3401ntf    sn218064   1.792   0.881   4.316  0.0130  0.0508  0.1806
 3401ntf    cn118065   1.770   0.779   4.465  0.2884  0.0380  0.2123
 3401ntf    fn418066   1.989   0.660   3.974  0.3513  0.2156 -0.0007
 3401ntf    fn418067   1.858   0.786   3.849  0.1713  0.3179  0.1246
 3401ntf    fn418068   1.954   0.867   4.015  0.5322 -0.1036  0.3082
 3401ntf    on518069   1.652   0.807   4.037  0.2622  0.6933  0.5158
 3401ntf    on518070   1.738   0.578   4.072  0.0262  0.4049  0.5433
 3401ntf    on518071   1.665   0.950   4.320 -0.2418 -0.4395  0.8105
 3401ntf    on518072   1.911   0.953   4.355  0.3546  0.2016 -1.1076
 3401ntf    fn418073   1.851   0.674   4.473 -0.3464 -0.4587  0.1758
 3401ntf    fn418074   1.785   0.857   4.571  0.3546 -0.2160  0.3922
 3401ntf    fn418075   1.649   0.726   4.463  0.2411  0.1615 -0.2271
 3402ntf    cn118076   0.473   2.743   4.301 -0.2543  0.2898 -0.2608
 3402ntf    sn218077   0.583   2.787   4.439 -0.1902  0.2381 -0.2952
 3402ntf    nn318078   0.562   2.659   4.527 -0.2086  0.0120 -0.6266
 3402ntf    sn218079   0.642   2.524   4.517 -0.1974 -0.0227 -0.0764
 3402ntf    cn118080   0.797   2.559   4.605  0.0679 -0.5244 -0.3409
 3402ntf    fn418081   0.358   2.697   4.348 -0.0578 -0.0841 -0.1391
 3402ntf    fn418082   0.445   2.843   4.220  0.1613  0.9594  0.4164
 3402ntf    fn418083   0.518   2.647   4.222  0.4031  0.2898  0.1147
 3402ntf    on518084   0.715   2.809   4.385 -0.0189 -0.5753 -0.2100
 3402ntf    on518085   0.521   2.906   4.493  0.0395  0.5970 -0.8060
 3402ntf    on518086   0.682   2.481   4.386  0.1491  0.2612 -0.0639
 3402ntf    on518087   0.571   2.431   4.602 -0.1272  0.0470  0.0590
 3402ntf    fn418088   0.871   2.653   4.548  0.0345 -0.0297  0.4126
 3402ntf    fn418089   0.784   2.600   4.730  0.0715  0.3253 -0.6143
 3402ntf    fn418090   0.883   2.459   4.607  0.3453 -0.2873 -0.3879
 3403ntf    cn118091   4.894   5.783   5.756 -0.2787  0.1226  0.0317
 3403ntf    sn218092   4.873   5.688   5.603  0.2819 -0.1744  0.1337
 3403ntf    nn318093   4.943   5.782   5.498 -0.0172  0.5690  0.5919
 3403ntf    sn218094   4.887   5.889   5.398 -0.0530  0.1129  0.1210
 3403ntf    cn118095   5.033   5.987   5.351  0.0614 -0.2412 -0.2727
 3403ntf    fn418096   5.020   5.773   5.796 -0.3595 -0.5912  0.1348
 3403ntf    fn418097   4.869   5.912   5.748 -0.5340  0.0944  0.3502
 3403ntf    fn418098   4.823   5.747   5.862  0.1682  0.0631  0.3180
 3403ntf    on518099   4.947   5.567   5.630 -0.0135 -0.3410  0.2058
 3403ntf    on518100   4.730   5.678   5.584  0.3415 -0.1221 -0.3632
 3403ntf    on518101   4.804   5.986   5.463  0.0754 -0.0410  0.5182
 3403ntf    on518102   4.858   5.832   5.269  0.4633  0.1512 -0.0162
 3403ntf    fn418103   5.002   6.097   5.283 -0.0533 -0.2768 -0.2799
 3403ntf    fn418104   5.096   6.041   5.453  0.0135  0.1300 -0.4362
 3403ntf    fn418105   5.118   5.918   5.278  0.7003  0.0838  0.1570
 3404ntf    cn118106   5.603   4.999   5.776 -0.1160  0.4031  0.1079
 3404ntf    sn218107   5.683   5.161   5.794  0.5438  0.0355  0.5129
 3404ntf    nn318108   5.580   5.246   5.877 -0.0387 -0.3171  0.1600
 3404ntf    sn218109   5.475   5.352   5.828  0.0534 -0.3390 -0.0884
 3404ntf    cn118110   5.402   5.388   5.991  0.2887 -0.0911 -0.0359
 3404ntf    fn418111   5.573   4.941   5.891 -0.1822 -0.5049 -0.3632
 3404ntf    fn418112   5.488   5.003   5.710 -0.1436  0.8594  0.1812
 3404ntf    fn418113   5.674   4.920   5.698 -0.0476  0.1636  0.4117
 3404ntf    on518114   5.801   5.128   5.869  0.8990  0.5631  0.1930
 3404ntf    on518115   5.691   5.202   5.656 -0.1515  1.1065  0.7752
 3404ntf    on518116   5.355   5.305   5.763 -0.1119  0.4668 -0.3797
 3404ntf    on518117   5.536   5.472   5.776 -0.7380 -0.0270 -0.2982
 3404ntf    fn418118   5.498   5.377   6.081 -0.1497  0.0005  0.4466
 3404ntf    fn418119   5.348   5.507   6.009  0.1495 -0.2162  0.3879
 3404ntf    fn418120   5.305   5.307   6.031 -0.1311  0.2504 -0.3473
 3405ntf    cn118121   0.045   3.129   1.423 -0.3290 -0.1057  0.1850
 3405ntf    sn218122   0.209   3.206   1.441 -0.1751 -0.2788 -0.4480
 3405ntf    nn318123   0.159   3.355   1.448 -0.1797 -0.3051  0.1244
 3405ntf    sn218124   0.100   3.445   1.562 -0.1122 -0.1892  0.0675
 3405ntf    cn118125   0.228   3.573   1.580 -0.0276 -0.1766 -0.5893
 3405ntf    fn418126  -0.029   3.164   1.527 -0.7668  0.0650 -0.1835
 3405ntf    fn418127  -0.020   3.166   1.314 -0.7743  0.1551  0.5346
 3405ntf    fn418128   0.053   2.997   1.417  0.0552 -0.0637 -0.2793
 3405ntf    on518129   0.277   3.153   1.557 -0.0287 -0.1431 -0.4729
 3405ntf    on518130   0.269   3.177   1.313 -0.1127 -0.4216 -0.3873
 3405ntf    on518131   0.094   3.382   1.692 -0.6354 -0.3569 -0.0361
 3405ntf    on518132  -0.020   3.511   1.518  0.3572  0.1142 -0.7925
 3405ntf    fn418133   0.298   3.592   1.470 -0.1387 -0.0491 -0.6378
 3405ntf    fn418134   0.179   3.693   1.609  0.0551 -0.2892  0.0333
 3405ntf    fn418135   0.310   3.552   1.682  0.3830  0.3066 -0.8184
 3406ntf    cn118136   4.391   2.102   5.388  0.2944  0.2999 -0.3613
 3406ntf    sn218137   4.361   2.278   5.354  0.0640  0.3904  0.3070
 3406ntf    nn318138   4.246   2.253   5.251  0.0570  1.0534  0.1486
 3406ntf    sn218139   4.262   2.257   5.095 -0.3792 -0.0934  0.0608
 3406ntf    cn118140   4.101   2.182   5.055 -0.2252 -0.1182 -0.5333
 3406ntf    fn418141   4.438   2.037   5.283  0.2599  0.2068 -0.3185
 3406ntf    fn418142   4.485   2.084   5.480  0.1235  0.2165 -0.2016
 3406ntf    fn418143   4.278   2.047   5.428  0.5044  0.0733 -0.0722
 3406ntf    on518144   4.305   2.341   5.472 -0.1317  0.2476  0.2908
 3406ntf    on518145   4.492   2.316   5.308 -0.1875 -0.2879 -1.0196
 3406ntf    on518146   4.354   2.158   5.045 -0.0635  0.2214  0.0109
 3406ntf    on518147   4.270   2.390   5.040 -0.1055 -0.2443 -0.2636
 3406ntf    fn418148   4.100   2.052   5.080 -0.0495 -0.0129  0.0494
 3406ntf    fn418149   4.004   2.222   5.136  0.3268 -0.4244  0.3012
 3406ntf    fn418150   4.068   2.201   4.929  0.2012 -0.1567 -0.6515
 3407ntf    cn118151   2.564   2.136   2.319 -0.0882  0.1425 -0.0761
 3407ntf    sn218152   2.509   1.996   2.420  0.0913  0.0100 -0.1630
 3407ntf    nn318153   2.649   1.943   2.468  0.0486 -0.0702 -0.1242
 3407ntf    sn218154   2.675   1.860   2.598  0.2496  0.2948  0.0721
 3407ntf    cn118155   2.698   1.998   2.714 -0.1172  0.3233  0.1128
 3407ntf    fn418156   2.648   2.093   2.226 -0.1212  0.5128 -0.2827
 3407ntf    fn418157   2.463   2.200   2.263  0.5646  0.6819 -0.6655
 3407ntf    fn418158   2.624   2.236   2.383  0.3278 -0.3475  0.3064
 3407ntf    on518159   2.422   2.050   2.521  0.1833 -0.1178 -0.0153
 3407ntf    on518160   2.445   1.912   2.321  0.2718 -0.2654 -0.0495
 3407ntf    on518161   2.800   1.789   2.595 -0.3238 -0.7356  0.0190
 3407ntf    on518162   2.561   1.789   2.650  0.3940  0.1797  0.2314
 3407ntf    fn418163   2.814   2.062   2.709 -0.0188  0.1462  0.1071
 3407ntf    fn418164   2.607   2.093   2.701  0.2435  0.6224 -0.2553
 3407ntf    fn418165   2.680   1.944   2.834  0.2932 -0.1603 -0.0407
 3408ntf    cn118166   0.014   0.227   3.862  0.0095 -0.0857 -0.5149
 3408ntf    sn218167  -0.085   0.360   3.789 -0.1611  0.2274  0.2889
 3408ntf    nn318168  -0.149   0.423   3.919 -0.2845  0.2166  0.2339
 3408ntf    sn218169  -0.106   0.543   4.011 -0.0842 -0.0110  0.4398
 3408ntf    cn118170  -0.139   0.455   4.166  0.2120  0.1477  0.5935
 3408ntf    fn418171   0.049   0.141   3.767  0.5095 -0.1757 -0.2543
 3408ntf    fn418172   0.123   0.285   3.909 -0.2104  0.0639 -0.1947
 3408ntf    fn418173  -0.042   0.167   3.966  0.0364  0.0728 -0.4103
 3408ntf    on518174   0.013   0.438   3.717 -0.2022  0.4398  0.4597
 3408ntf    on518175  -0.183   0.302   3.701  0.4215 -0.0513 -0.1788
 3408ntf    on518176  -0.197   0.655   4.003 -0.1264 -0.0405  0.5089
 3408ntf    on518177   0.036   0.566   4.022  0.1092 -0.2585 -1.1951
 3408ntf    fn418178  -0.101   0.530   4.269 -0.1368  0.7259  0.3040
 3408ntf    fn418179  -0.270   0.443   4.181  0.1939  0.3638  0.6080
 3408ntf    fn418180  -0.087   0.333   4.164  0.0524  0.0830  0.3816
 3409ntf    cn118181   1.097   4.938   6.703 -0.0204 -0.2181  0.3422
 3409ntf    sn218182   1.262   5.008   6.672 -0.0774 -0.1686  0.1472
 3409ntf    nn318183   1.225   5.140   6.595  0.3375  0.0279  0.2811
 3409ntf    sn218184   1.204   5.281   6.659 -0.1439  0.1743 -0.1930
 3409ntf    cn118185   1.289   5.383   6.535 -0.0858  0.1892 -0.1419
 3409ntf    fn418186   1.031   4.918   6.590  0.2427  0.3299  0.0881
 3409ntf    fn418187   1.113   4.812   6.738 -0.4420 -0.3180  0.1900
 3409ntf    fn418188   1.036   4.989   6.809 -0.0370  0.3593  0.0606
 3409ntf    on518189   1.318   5.014   6.805 -0.2939 -0.2472  0.2437
 3409ntf    on518190   1.323   4.913   6.583 -0.6629 -0.5082  0.1010
 3409ntf    on518191   1.275   5.324   6.777 -0.1807 -0.4047  0.0411
 3409ntf    on518192   1.062   5.305   6.646 -0.1445  0.4493  0.2723
 3409ntf    fn418193   1.419   5.386   6.560 -0.1699  0.3661  0.2803
 3409ntf    fn418194   1.272   5.340   6.411  0.3084  0.1860 -0.1962
 3409ntf    fn418195   1.243   5.507   6.537  0.0346  0.2396 -0.4099
 3410ntf    cn118196   3.699   3.229   0.785 -0.1685 -0.0703  0.1962
 3410ntf    sn218197   3.717   3.119   0.641  0.4166 -0.1795  0.3498
 3410ntf    nn318198   3.803   3.214   0.550 -0.4377  0.0130 -0.2721
 3410ntf    sn218199   3.845   3.190   0.401 -0.1869 -0.1138 -0.1808
 3410ntf    cn118200   4.026   3.199   0.419 -0.1934 -0.2109 -0.0564
 3410ntf    fn418201   3.655   3.163   0.891 -0.5214  0.4966  0.4071
 3410ntf    fn418202   3.813   3.285   0.819  0.0831 -0.3968 -0.0981
 3410ntf    fn418203   3.611   3.326   0.769  0.2517  0.2361 -0.2773
 3410ntf    on518204   3.789   3.013   0.706  0.1669 -0.5237  0.0662
 3410ntf    on518205   3.585   3.085   0.594  0.4516  0.1564 -0.0052
 3410ntf    on518206   3.813   3.296   0.309 -0.2110 -0.1580 -0.2229
 3410ntf    on518207   3.825   3.059   0.344 -0.3429 -0.4822  0.7110
 3410ntf    fn418208   4.076   3.315   0.459 -0.2209 -0.4000  0.5283
 3410ntf    fn418209   4.072   3.113   0.508 -0.1965 -0.2036 -0.0477
 3410ntf    fn418210   4.090   3.193   0.303 -0.3903  0.4101 -0.2043
 3411ntf    cn118211   5.038   2.820   0.872 -0.5323  0.1056  0.4116
 3411ntf    sn218212   5.103   2.959   0.969  0.3964 -0.0199 -0.0259
 3411ntf    nn318213   5.050   2.914   1.109 -0.2373 -0.1536 -0.3072
 3411ntf    sn218214   5.027   2.998   1.240 -0.0670  0.0798 -0.4254
 3411ntf    cn118215   5.192   2.986   1.314 -0.1742 -0.2157 -0.2286
 3411ntf    fn418216   5.052   2.843   0.742  0.8197 -0.1887  0.4954
 3411ntf    fn418217   5.107   2.710   0.895 -0.2076  0.2873  0.3107
 3411ntf    fn418218   4.911   2.796   0.902 -0.5054 -0.0742  0.3774
 3411ntf    on518219   5.244   2.934   0.946  0.5522  0.6527  0.1773
 3411ntf    on518220   5.041   3.069   0.900  0.5141  0.1085  0.0717
 3411ntf    on518221   4.948   2.929   1.340 -0.0760  0.3499 -0.2467
 3411ntf    on518222   5.007   3.138   1.214  0.1353  0.3053  0.5940
 3411ntf    fn418223   5.204   3.025   1.440  0.0408 -0.6305 -0.1216
 3411ntf    fn418224   5.250   2.868   1.305  0.5200  0.0481  0.5971
 3411ntf    fn418225   5.283   3.056   1.248 -0.3047  0.2578  0.0868
 3412ntf    cn118226   2.577   4.765   5.128 -0.0343 -0.0475 -0.2914
 3412ntf    sn218227   2.713   4.750   5.248  0.1181 -0.5822 -0.5275
 3412ntf    nn318228   2.746   4.598   5.226  0.4804 -0.5740 -0.0598
 3412ntf    sn218229   2.829   4.496   5.311  0.3527 -0.2424  0.4656
 3412ntf    cn118230   2.949   4.437   5.188 -0.2530 -0.1216 -0.1909
 3412ntf    fn418231   2.614   4.778   5.002  0.3242  0.1363 -0.1693
 3412ntf    fn418232   2.491   4.665   5.131  0.2614 -0.2902  0.2556
 3412ntf    fn418233   2.495   4.865   5.156 -0.0184 -0.1085 -0.0247
 3412ntf    on518234   2.813   4.835   5.188  0.3548 -0.8109 -0.4582
 3412ntf    on518235   2.642   4.782   5.370  0.2814  0.3770 -0.6725
 3412ntf    on518236   2.745   4.383   5.342  0.0434 -0.1806 -0.1427
 3412ntf    on518237   2.913   4.557   5.412  0.3989 -0.1398  0.3651
 3412ntf    fn418238   2.902   4.356   5.095  0.0511 -0.2067 -0.2733
 3412ntf    fn418239   2.985   4.542   5.115 -0.2792 -0.2061 -0.3258
 3412ntf    fn418240   3.060   4.385   5.238  0.0593  0.4113 -0.3244
 3413ntf    cn118241   4.616   0.840   1.736 -0.2787 -0.0972  0.4048
 3413ntf    sn218242   4.793   0.802   1.721 -0.2819 -0.0039  0.1050
 3413ntf    nn318243   4.853   0.866   1.852 -0.7675 -0.5655  0.6113
 3413ntf    sn218244   4.988   0.832   1.923 -0.2420 -0.0499 -0.1278
 3413ntf    cn118245   4.936   0.720   2.057  0.2282 -0.0296  0.0747
 3413ntf    fn418246   4.581   0.796   1.856 -0.0063 -0.3328  0.3985
 3413ntf    fn418247   4.591   0.970   1.730  0.2765  0.0253  0.7070
 3413ntf    fn418248   4.546   0.780   1.641  0.2353 -0.1887  0.0761
 3413ntf    on518249   4.796   0.657   1.720 -0.8077 -0.0140 -0.0109
 3413ntf    on518250   4.832   0.861   1.596 -0.6445  0.6217  0.2834
 3413ntf    on518251   5.050   0.940   1.996  0.3818 -0.2837 -0.2961
 3413ntf    on518252   5.074   0.752   1.839  0.4406  0.5189  0.0188
 3413ntf    fn418253   4.876   0.799   2.144  0.4910 -0.1162  0.3338
 3413ntf    fn418254   4.860   0.622   2.011  0.4811 -0.2598  0.1460
 3413ntf    fn418255   5.041   0.669   2.118 -0.1005 -0.3143  0.4059
 3414ntf    cn118256   2.432   4.782   3.281  0.3112  0.0443  0.3242
 3414ntf    sn218257   2.404   4.747   3.457 -0.0443 -0.3011  0.2009
 3414ntf    nn318258   2.326   4.611   3.464 -0.2160 -0.2129  0.0043
 3414ntf    sn218259   2.178   4.581   3.422 -0.2801  0.1210 -0.0127
 3414ntf    cn118260   2.100   4.531   3.579  0.1816  0.1367  0.2218
 3414ntf    fn418261   2.436   4.665   3.219  0.4140  0.1489  0.1328
 3414ntf    fn418262   2.334   4.854   3.229  0.0705 -0.1147  0.5537
 3414ntf    fn418263   2.549   4.838   3.256  0.2229  0.1755  0.2064
 3414ntf    on518264   2.536   4.739   3.515  0.1483  0.0381 -0.1918
 3414ntf    on518265   2.327   4.861   3.500  0.1902  0.0707 -0.3646
 3414ntf    on518266   2.176   4.461   3.342 -0.0242  0.0275  0.1209
 3414ntf    on518267   2.094   4.693   3.390  0.4906  0.6076 -0.3515
 3414ntf    fn418268   2.158   4.423   3.628  0.2825 -0.3012 -0.8325
 3414ntf    fn418269   2.116   4.623   3.672 -0.1975  0.2786  0.1476
 3414ntf    fn418270   1.972   4.505   3.557  0.1641 -0.2209  0.7495
 3415ntf    cn118271   4.168   2.074   2.889 -0.0137 -0.0532  0.1715
 3415ntf    sn218272   4.147   2.253   2.872  0.2145 -0.0184  0.2504
 3415ntf    nn318273   4.291   2.306   2.906 -0.2509  1.0383  0.6439
 3415ntf    sn218274   4.393   2.386   2.818 -0.1736  0.0066 -0.2333
 3415ntf    cn118275   4.290   2.509   2.732 -0.5050 -0.1835 -0.1092
 3415ntf    fn418276   4.263   2.018   2.815  0.5691  0.1371  0.7728
 3415ntf    fn418277   4.196   2.051   3.016  0.0078 -0.3351  0.1187
 3415ntf    fn418278   4.055   2.012   2.861  0.2741 -0.4435 -0.1512
 3415ntf    on518279   4.101   2.271   2.737 -0.1656 -0.7270  0.2853
 3415ntf    on518280   4.054   2.288   2.976 -0.4114  0.0623 -0.3317
 3415ntf    on518281   4.464   2.316   2.714 -0.2819  0.4163 -0.5884
 3415ntf    on518282   4.471   2.466   2.909  0.1783 -0.5864 -0.0083
 3415ntf    fn418283   4.359   2.615   2.693 -0.8763  0.0764 -0.0664
 3415ntf    fn418284   4.245   2.457   2.619  0.1945 -0.0473 -0.4510
 3415ntf    fn418285   4.188   2.555   2.804 -0.4196  0.5798 -0.4632
 3416ntf    cn118286   1.175   7.108   1.290 -0.0581 -0.5770 -0.4277
 3416ntf    sn218287   1.009   7.132   1.221 -0.3036 -0.2675  0.2578
 3416ntf    nn318288   0.999   7.284   1.259 -0.5318 -0.1941 -0.0892
 3416ntf    sn218289   1.022   7.407   1.164  0.0505 -0.2546 -0.0330
 3416ntf    cn118290   0.868   7.421   1.067  0.0352 -0.5007 -0.0458
 3416ntf    fn418291   1.267   7.200   1.267 -0.0299 -0.2874  0.7744
 3416ntf    fn418292   1.160   7.089   1.420 -0.1655  0.4830 -0.2749
 3416ntf    fn418293   1.229   6.994   1.250  0.1411 -0.6086 -0.0706
 3416ntf    on518294   1.019   7.095   1.082  0.2332  0.0693  0.2059
 3416ntf    on518295   0.927   7.045   1.301 -0.3137 -0.0083  0.5306
 3416ntf    on518296   1.117   7.398   1.056  0.0435 -0.0579 -0.0559
 3416ntf    on518297   1.021   7.529   1.240  0.2685 -0.1606 -0.1800
 3416ntf    fn418298   0.871   7.529   0.991  0.5943 -0.4040  0.1094
 3416ntf    fn418299   0.849   7.315   0.991 -0.4516 -0.9985  0.7599
 3416ntf    fn418300   0.763   7.435   1.147  0.0461  0.1868 -0.1413
 3417ntf    cn118301   0.467   5.675   0.629 -0.2642  0.5313  0.0586
 3417ntf    sn218302   0.602   5.796   0.642  0.0419  0.1842  0.1230
 3417ntf    nn318303   0.522   5.930   0.628 -0.3424  0.0365  0.8684
 3417ntf    sn218304   0.581   6.076   0.634 -0.0627 -0.0362 -0.0225
 3417ntf    cn118305   0.538   6.128   0.803 -0.1807 -0.0296 -0.0539
 3417ntf    fn418306   0.398   5.683   0.517 -0.3766  0.4207  0.1196
 3417ntf    fn418307   0.510   5.550   0.639 -0.1293  0.6244  0.6895
 3417ntf    fn418308   0.384   5.698   0.729 -0.2471  0.1480  0.1625
 3417ntf    on518309   0.654   5.778   0.776 -0.3798 -0.0837  0.2522
 3417ntf    on518310   0.684   5.771   0.526  0.2964 -0.1286  0.3668
 3417ntf    on518311   0.509   6.172   0.554  0.9000  0.7032 -0.0163
 3417ntf    on518312   0.724   6.087   0.641 -0.0864  0.3442 -0.1316
 3417ntf    fn418313   0.427   6.091   0.864  0.0963  0.2090  0.6039
 3417ntf    fn418314   0.630   6.078   0.884 -0.5133 -0.1816  0.2293
 3417ntf    fn418315   0.552   6.259   0.815 -0.1745 -0.0912  0.6131
 3418ntf    cn118316   4.949   3.599   2.474 -0.0093 -0.6079  0.1263
 3418ntf    sn218317   4.989   3.566   2.300  0.1210  0.1690  0.0023
 3418ntf    nn318318   5.140   3.610   2.302  0.0885  0.2619  0.4601
 3418ntf    sn218319   5.261   3.596   2.204 -0.1987  0.0710  0.1295
 3418ntf    cn118320   5.295   3.768   2.156 -0.4063  0.0929  0.0630
 3418ntf    fn418321   4.975   3.722   2.515 -0.1670 -0.3706 -0.4738
 3418ntf    fn418322   4.820   3.578   2.490 -0.1360  0.4931  0.6536
 3418ntf    fn418323   5.015   3.517   2.555  0.6345  0.1385  0.3800
 3418ntf    on518324   4.980   3.423   2.283 -0.3578  0.1971  0.0222
 3418ntf    on518325   4.900   3.659   2.236 -0.2791  0.3745  0.8450
 3418ntf    on518326   5.225   3.530   2.080 -0.4947 -0.0841  0.2980
 3418ntf    on518327   5.388   3.559   2.262  0.0349  0.1699 -0.3117
 3418ntf    fn418328   5.322   3.846   2.259  0.0443  0.6631 -0.4802
 3418ntf    fn418329   5.402   3.771   2.079 -0.2343  0.0316  0.2998
 3418ntf    fn418330   5.199   3.838   2.098  0.1394  0.3884 -0.5000
 3419ntf    cn118331   2.330   4.471   4.365 -0.1381  0.0649 -0.2799
 3419ntf    sn218332   2.361   4.387   4.523 -0.1212  0.0651 -0.2831
 3419ntf    nn318333   2.311   4.502   4.617  0.1263  0.2024 -0.3158
 3419ntf    sn218334   2.169   4.513   4.684  0.1728 -0.2411 -0.1406
 3419ntf    cn118335   2.182   4.442   4.850  0.0144  0.3287  0.1187
 3419ntf    fn418336   2.369   4.598   4.363  0.1543 -0.0233 -0.1762
 3419ntf    fn418337   2.402   4.418   4.268 -0.0492 -0.3469  0.0088
 3419ntf    fn418338   2.202   4.456   4.333 -0.0598 -0.1247 -0.5074
 3419ntf    on518339   2.282   4.267   4.527  0.0817 -0.0833 -0.6646
 3419ntf    on518340   2.504   4.365   4.525 -0.1428 -0.0597 -0.1699
 3419ntf    on518341   2.065   4.436   4.619  0.0462 -0.4208  0.2727
 3419ntf    on518342   2.134   4.650   4.714 -0.5177 -0.2820 -0.7280
 3419ntf    fn418343   2.220   4.315   4.847  0.0548  0.3508 -0.2817
 3419ntf    fn418344   2.277   4.507   4.915 -0.1014  0.0094  0.6143
 3419ntf    fn418345   2.068   4.446   4.917 -0.1260  1.3969 -0.1770
 3420ntf    cn118346   5.298   5.583   4.369  0.0160 -0.1857 -0.1398
 3420ntf    sn218347   5.250   5.748   4.309  0.1234 -0.0471  0.1569
 3420ntf    nn318348   5.351   5.780   4.193 -0.0895 -0.1264 -0.0505
 3420ntf    sn218349   5.333   5.760   4.039 -0.2102 -0.0944 -0.0414
 3420ntf    cn118350   5.506   5.780   3.986 -0.0653  0.2023  0.5424
 3420ntf    fn418351   5.425   5.567   4.404  0.1390 -0.4067 -0.6616
 3420ntf    fn418352   5.227   5.533   4.468  0.5262 -0.1746  0.2313
 3420ntf    fn418353   5.284   5.508   4.260 -0.3870 -0.1416 -0.1205
 3420ntf    on518354   5.113   5.742   4.266  0.1411 -0.1530  0.1160
 3420ntf    on518355   5.274   5.828   4.427  0.4776  0.1299 -0.0329
 3420ntf    on518356   5.268   5.869   3.970  0.0509  0.2674  0.2809
 3420ntf    on518357   5.313   5.620   4.008 -0.6803 -0.2482  0.9459
 3420ntf    fn418358   5.591   5.708   4.057  0.5966  0.6436  0.2065
 3420ntf    fn418359   5.522   5.745   3.860  0.0188  0.2735  0.5336
 3420ntf    fn418360   5.545   5.906   3.994  0.4392  0.1131 -0.4851
 3421ntf    cn118361   5.383   5.509   6.346  0.1505 -0.0874  0.1626
 3421ntf    sn218362   5.337   5.684   6.360  0.2383 -0.0268 -0.2940
 3421ntf    nn318363   5.432   5.708   6.482 -0.0274 -0.1463 -0.0618
 3421ntf    sn218364   5.514   5.836   6.523 -0.3241 -0.0011  0.0823
 3421ntf    cn118365   5.655   5.832   6.408 -0.4766 -0.1013 -0.1038
 3421ntf    fn418366   5.502   5.479   6.296  0.0882  0.1818 -0.1494
 3421ntf    fn418367   5.379   5.451   6.465 -0.0857 -0.6084 -0.0941
 3421ntf    fn418368   5.300   5.441   6.268  0.1532 -0.0032  0.0869
 3421ntf    on518369   5.375   5.742   6.234  0.3886 -0.5628 -0.4986
 3421ntf    on518370   5.198   5.671   6.395  0.2388 -0.3283 -0.4074
 3421ntf    on518371   5.572   5.824   6.654 -0.7118  0.5642  0.3096
 3421ntf    on518372   5.440   5.956   6.491  0.0049  0.0436 -0.5401
 3421ntf    fn418373   5.751   5.920   6.431 -0.6832  0.0890  0.0365
 3421ntf    fn418374   5.716   5.715   6.398 -0.1050  0.1118 -0.3589
 3421ntf    fn418375   5.606   5.851   6.287 -0.5967  0.0363 -0.0345
 3422ntf    cn118376   2.953   4.794   6.461  0.2223  0.2650 -0.4864
 3422ntf    sn218377   3.031   4.844   6.617 -0.3008 -0.0640 -0.1148
 3422ntf    nn318378   2.985   4.725   6.708 -0.5834  0.4135  0.3763
 3422ntf    sn218379   3.054   4.590   6.751 -0.3874  0.3732 -0.0551
 3422ntf    cn118380   3.104   4.644   6.917 -0.3040 -0.2390  0.1218
 3422ntf    fn418381   2.987   4.874   6.362  0.4201  0.1368 -0.5229
 3422ntf    fn418382   2.979   4.669   6.425 -0.1381 -0.1199  0.5305
 3422ntf    fn418383   2.822   4.802   6.469  0.2440 -0.1449  0.4703
 3422ntf    on518384   3.174   4.852   6.594 -0.2337 -0.0172  0.3047
 3422ntf    on518385   2.957   4.965   6.644  0.2170  0.3168 -0.3742
 3422ntf    on518386   3.172   4.550   6.679 -0.1854  0.6952  0.0958
 3422ntf    on518387   2.963   4.480   6.775 -0.0822  0.0688 -0.2974
 3422ntf    fn418388   3.211   4.723   6.922 -0.2995 -0.2596  0.4026
 3422ntf    fn418389   3.008   4.712   6.978 -0.0652  0.6144 -0.4263
 3422ntf    fn418390   3.125   4.539   6.994 -0.1972  0.4743  1.0893
 3423ntf    cn118391   3.431   5.476   6.349 -0.6719 -0.3771  0.2683
 3423ntf    sn218392   3.324   5.447   6.205 -0.4086  0.1930 -0.0454
 3423ntf    nn318393   3.426   5.479   6.091  0.1235 -0.5560  0.2150
 3423ntf    sn218394   3.476   5.376   5.983  0.0502 -0.5372  0.1630
 3423ntf    cn118395   3.515   5.488   5.846 -0.2389 -0.4773  0.1293
 3423ntf    fn418396   3.549   5.417   6.346 -0.4448  0.0519  0.7260
 3423ntf    fn418397   3.458   5.604   6.364 -0.3490 -0.3861 -0.2096
 3423ntf    fn418398   3.386   5.439   6.468  0.5950 -0.6310  0.6806
 3423ntf    on518399   3.289   5.308   6.225  0.4012 -0.0441 -0.2472
 3423ntf    on518400   3.216   5.542   6.215  0.0672  0.7248  0.0503
 3423ntf    on518401   3.376   5.289   5.926 -0.5722  0.1566  0.1927
 3423ntf    on518402   3.605   5.319   6.015  0.5188  0.2056 -0.3559
 3423ntf    fn418403   3.593   5.424   5.759 -0.4413  0.2627 -0.6114
 3423ntf    fn418404   3.407   5.527   5.780 -0.0212 -0.0521  0.0141
 3423ntf    fn418405   3.584   5.596   5.879 -0.0421 -0.6212  0.1902
 3424ntf    cn118406   3.018   1.253   5.970 -0.1711  0.1450 -0.1097
 3424ntf    sn218407   3.071   1.117   6.078 -0.0699  0.2845  0.0148
 3424ntf    nn318408   2.948   1.124   6.175  0.1634 -0.3443  0.3632
 3424ntf    sn218409   2.814   1.043   6.183 -0.1522  0.1002 -0.2901
 3424ntf    cn118410   2.832   0.967   6.347  0.0037  0.5948 -0.0779
 3424ntf    fn418411   2.922   1.229   5.881  0.1370 -0.0873 -0.3835
 3424ntf    fn418412   2.967   1.346   6.048  0.6836  0.4927  0.0499
 3424ntf    fn418413   3.122   1.287   5.896  0.0133 -0.2821 -0.0489
 3424ntf    on518414   3.083   0.997   6.000  0.4122 -0.1073  0.6728
 3424ntf    on518415   3.181   1.172   6.154 -0.2652  0.6860  0.0087
 3424ntf    on518416   2.799   0.932   6.091  0.2367 -0.2219  0.0276
 3424ntf    on518417   2.702   1.131   6.204  0.4500  0.8333 -0.1108
 3424ntf    fn418418   2.820   1.047   6.452  0.8804  0.2656  0.2833
 3424ntf    fn418419   2.747   0.867   6.364  0.2113  0.4484  0.1208
 3424ntf    fn418420   2.950   0.909   6.361 -0.3199 -0.2335 -0.7081
 3425ntf    cn118421   4.408   2.731   4.315 -0.1447  0.4639 -0.4111
 3425ntf    sn218422   4.230   2.742   4.283 -0.2192 -0.3204 -0.2899
 3425ntf    nn318423   4.222   2.897   4.259 -0.1708 -0.3120 -0.2502
 3425ntf    sn218424   4.159   2.965   4.132  0.0624  0.0416 -0.1776
 3425ntf    cn118425   4.040   3.065   4.226  0.1708  0.3223 -0.3373
 3425ntf    fn418426   4.442   2.612   4.362  0.3389  0.5480 -0.5351
 3425ntf    fn418427   4.479   2.755   4.206 -0.3939  0.9291 -0.4738
 3425ntf    fn418428   4.458   2.819   4.401  0.6044 -0.2901 -0.0641
 3425ntf    on518429   4.194   2.654   4.174  0.3563 -1.0385  0.0963
 3425ntf    on518430   4.179   2.716   4.415 -0.1291  0.0054 -0.1896
 3425ntf    on518431   4.080   2.881   4.045 -0.0406 -0.0398 -0.0056
 3425ntf    on518432   4.239   3.061   4.059 -0.2706  0.1711 -0.3718
 3425ntf    fn418433   3.957   3.123   4.140 -0.4360  0.3731  0.2713
 3425ntf    fn418434   3.974   2.980   4.303  0.1627  0.4053 -0.2521
 3425ntf    fn418435   4.102   3.163   4.289  0.3727  0.2045 -0.3523
 3426ntf    cn118436   4.639   5.156   4.895  0.5343  0.0845  0.0614
 3426ntf    sn218437   4.635   4.990   4.822  0.7160  0.1348 -0.0644
 3426ntf    nn318438   4.667   5.039   4.676 -0.0256  0.3396 -0.1599
 3426ntf    sn218439   4.587   5.010   4.544 -0.1567 -0.0230 -0.0031
 3426ntf    cn118440   4.718   4.928   4.448 -0.0693 -0.0947  0.1765
 3426ntf    fn418441   4.553   5.244   4.844  0.7791  0.0204 -0.4725
 3426ntf    fn418442   4.608   5.151   5.024 -0.0712  0.5944 -0.0577
 3426ntf    fn418443   4.759   5.212   4.893  0.6100 -0.0789  0.0508
 3426ntf    on518444   4.748   4.928   4.886  0.1755 -0.4034  0.3846
 3426ntf    on518445   4.506   4.935   4.855  0.7496 -0.1495 -0.3990
 3426ntf    on518446   4.552   5.129   4.469 -0.4682  0.2710  0.6043
 3426ntf    on518447   4.490   4.905   4.556 -0.2037  0.0145 -0.0525
 3426ntf    fn418448   4.688   4.901   4.322 -0.7493  0.4749  0.2067
 3426ntf    fn418449   4.836   4.988   4.454 -0.0189 -0.1541 -0.2096
 3426ntf    fn418450   4.737   4.809   4.501 -0.2065 -0.2362 -0.0883
 3427ntf    cn118451   2.194   2.954   3.359 -0.2741 -0.3571 -0.4265
 3427ntf    sn218452   2.103   2.952   3.201 -0.3888  0.1215 -0.3689
 3427ntf    nn318453   2.093   3.105   3.171  0.3899  0.3162  0.2977
 3427ntf    sn218454   1.968   3.201   3.164  0.0808 -0.1054 -0.0109
 3427ntf    cn118455   1.871   3.141   3.022  0.4845 -0.2591 -0.2239
 3427ntf    fn418456   2.152   3.044   3.446  0.3114  0.1460 -0.6571
 3427ntf    fn418457   2.214   2.835   3.414 -0.0634 -0.1017  0.0530
 3427ntf    fn418458   2.312   3.009   3.336 -0.4191  0.1833  0.0847
 3427ntf    on518459   2.192   2.885   3.109  0.1428  0.4753 -0.1221
 3427ntf    on518460   1.977   2.886   3.226 -0.1530 -0.1427  0.1428
 3427ntf    on518461   1.996   3.338   3.128 -0.1464  0.1670  0.8249
 3427ntf    on518462   1.872   3.192   3.271  0.0140 -0.0961 -0.0706
 3427ntf    fn418463   1.934   3.126   2.907 -0.3715 -0.6963 -0.6434
 3427ntf    fn418464   1.815   3.023   3.043  0.6100 -0.3114 -0.1785
 3427ntf    fn418465   1.776   3.232   3.009  0.5775 -0.1813 -0.3625
 3428ntf    cn118466   4.937   5.767   1.759  0.3684 -0.1088 -0.4090
 3428ntf    sn218467   4.765   5.724   1.720  0.2800 -0.1353  0.0031
 3428ntf    nn318468   4.689   5.740   1.856  0.1441 -0.1469 -0.0707
 3428ntf    sn218469   4.603   5.862   1.906 -0.4123 -0.4131 -0.3773
 3428ntf    cn118470   4.632   5.850   2.085 -0.0349  0.3451 -0.3816
 3428ntf    fn418471   4.942   5.880   1.828 -0.2456 -0.2052 -0.2051
 3428ntf    fn418472   4.999   5.676   1.834  0.3237 -0.0166 -0.2608
 3428ntf    fn418473   5.009   5.788   1.650  0.6002 -0.1973 -0.2758
 3428ntf    on518474   4.725   5.801   1.605  0.2131 -0.0973  0.0524
 3428ntf    on518475   4.791   5.584   1.697 -0.2176 -0.2226 -0.0354
 3428ntf    on518476   4.460   5.844   1.895 -0.4607 -0.1408 -0.2071
 3428ntf    on518477   4.665   5.986   1.869  0.4747 -0.8298 -0.3146
 3428ntf    fn418478   4.758   5.874   2.117 -0.0341 -0.1326 -0.0015
 3428ntf    fn418479   4.571   5.944   2.155 -0.2669  0.2486 -0.4504
 3428ntf    fn418480   4.602   5.729   2.131  0.3998  0.6255  0.6625
 3429ntf    cn118481   5.983   0.571   7.200  0.1790 -0.1462  0.3276
 3429ntf    sn218482   6.026   0.477   7.349 -0.0647 -0.3159  0.2913
 3429ntf    nn318483   6.181   0.497   7.357 -0.1372  0.2694  0.2681
 3429ntf    sn218484   6.295   0.438   7.448  0.1379  0.2481 -0.0874
 3429ntf    cn118485   6.392   0.588   7.483  0.0572  0.1679  0.4837
 3429ntf    fn418486   5.855   0.587   7.172  0.3864  0.8771 -0.0756
 3429ntf    fn418487   6.017   0.697   7.222  0.4459 -0.2416  0.4577
 3429ntf    fn418488   6.049   0.530   7.093 -0.0071  0.2693  0.0504
 3429ntf    on518489   5.956   0.547   7.454  0.1156  0.3390 -0.0180
 3429ntf    on518490   5.979   0.347   7.306  0.5440 -0.4944  0.1619
 3429ntf    on518491   6.388   0.357   7.373 -0.0184 -0.1356  0.1346
 3429ntf    on518492   6.248   0.381   7.572  0.3423 -0.6667 -0.4227
 3429ntf    fn418493   6.443   0.643   7.374  0.1116 -0.9012 -0.0494
 3429ntf    fn418494   6.313   0.678   7.540 -0.0982  0.1950  0.2313
 3429ntf    fn418495   6.494   0.570   7.565 -0.0014  0.2312  0.5707
 3430ntf    cn118496   2.756   5.340   1.104 -0.0864 -0.0716 -0.4548
 3430ntf    sn218497   2.865   5.476   1.051 -0.0213  0.1389  0.2076
 3430ntf    nn318498   2.864   5.580   1.169 -0.6774  0.1715  0.1766
 3430ntf    sn218499   2.965   5.600   1.288 -0.1522  0.0719 -0.2494
 3430ntf    cn118500   3.091   5.701   1.204  0.5178 -0.6591 -0.1323
 3430ntf    fn418501   2.774   5.229   1.034 -0.3692 -0.2282 -0.2791
 3430ntf    fn418502   2.774   5.304   1.230  0.4922 -0.3213 -0.6026
 3430ntf    fn418503   2.627   5.366   1.095  0.0105  0.4868 -0.2751
 3430ntf    on518504   2.991   5.415   1.015  0.0147  0.6001 -0.4552
 3430ntf    on518505   2.794   5.536   0.941 -0.4208  0.7517  0.7922
 3430ntf    on518506   3.034   5.486   1.343  0.3128  0.1295 -0.7040
 3430ntf    on518507   2.916   5.697   1.382 -0.2707 -0.1636 -0.0674
 3430ntf    fn418508   3.166   5.629   1.121  0.3785 -0.4108 -0.4737
 3430ntf    fn418509   3.038   5.801   1.136  1.1114  0.0118  0.3761
 3430ntf    fn418510   3.174   5.763   1.286 -0.3212  0.3090 -0.0019
 3431ntf    cn118511   5.288   4.279   1.664  0.0556 -0.1543 -0.1821
 3431ntf    sn218512   5.355   4.195   1.518 -0.0118 -0.3131 -0.1214
 3431ntf    nn318513   5.330   4.043   1.550 -0.4600 -0.1672  0.2249
 3431ntf    sn218514   5.414   3.917   1.509 -0.1469  0.0196  0.2873
 3431ntf    cn118515   5.464   3.867   1.676 -0.4011 -0.1530  0.3129
 3431ntf    fn418516   5.157   4.263   1.656  0.0085 -0.0867  0.3653
 3431ntf    fn418517   5.327   4.228   1.780 -0.3735 -0.2743 -0.0872
 3431ntf    fn418518   5.324   4.406   1.671  0.0903 -0.1944  0.4598
 3431ntf    on518519   5.260   4.243   1.421 -0.1842 -0.6836 -0.1401
 3431ntf    on518520   5.495   4.230   1.517  0.0826 -0.6221  1.0179
 3431ntf    on518521   5.528   3.949   1.427 -0.2241  0.0967  0.2095
 3431ntf    on518522   5.317   3.818   1.469  0.3548 -0.1650 -0.5026
 3431ntf    fn418523   5.532   3.753   1.680 -0.0206  0.0360 -0.5620
 3431ntf    fn418524   5.543   3.959   1.730 -0.2426 -0.3238  0.3743
 3431ntf    fn418525   5.364   3.854   1.761 -0.9003  0.0474 -0.2445
 3432ntf    cn118526   2.353   1.639   0.717  0.6680  0.2214 -0.3530
 3432ntf    sn218527   2.187   1.707   0.749  0.7276  0.1877  0.0294
 3432ntf    nn318528   2.108   1.629   0.638 -0.0364  0.1942  0.5601
 3432ntf    sn218529   1.958   1.586   0.624 -0.0055  0.2016  0.1849
 3432ntf    cn118530   1.911   1.566   0.799 -0.2218  0.1242  0.1193
 3432ntf    fn418531   2.393   1.667   0.594 -0.2356  0.0622 -0.6956
 3432ntf    fn418532   2.439   1.679   0.808  0.5198 -0.4846  0.1004
 3432ntf    fn418533   2.366   1.508   0.718  0.2670  0.1791 -0.2289
 3432ntf    on518534   2.169   1.677   0.889  0.2323 -0.1414 -0.1027
 3432ntf    on518535   2.206   1.846   0.718 -0.3523  0.3323 -0.0293
 3432ntf    on518536   1.943   1.454   0.567  0.2559  0.1078  0.3320
 3432ntf    on518537   1.873   1.686   0.565 -0.5639 -0.3550  0.0238
 3432ntf    fn418538   1.988   1.478   0.862  0.1303 -0.0944 -0.6057
 3432ntf    fn418539   1.912   1.675   0.873 -0.1500  0.1239  0.1189
 3432ntf    fn418540   1.793   1.509   0.814  0.1389 -0.4835  0.6842
 3433ntf    cn118541   5.373   6.215   4.151 -0.2217 -0.5297  0.3832
 3433ntf    sn218542   5.430   6.365   4.066 -0.2745 -0.5388  0.3304
 3433ntf    nn318543   5.308   6.460   4.091  0.4913  0.7859 -0.7860
 3433ntf    sn218544   5.304   6.594   4.172 -0.1433  0.1745  0.2175
 3433ntf    cn118545   5.122   6.604   4.180 -0.1394  0.3464  0.0922
 3433ntf    fn418546   5.458   6.115   4.158  0.2030 -0.2326 -0.4237
 3433ntf    fn418547   5.333   6.236   4.276 -0.0530 -0.0886  0.3668
 3433ntf    fn418548   5.271   6.157   4.090 -0.3264 -0.1383  0.1781
 3433ntf    on518549   5.554   6.406   4.127 -0.5114 -0.1490  0.5568
 3433ntf    on518550   5.433   6.331   3.926  0.0670 -0.0806  0.2209
 3433ntf    on518551   5.338   6.715   4.102 -0.1185 -0.0336 -0.1292
 3433ntf    on518552   5.335   6.597   4.313  0.1793 -0.6809  0.1665
 3433ntf    fn418553   5.083   6.699   4.263 -0.1983  0.1537  0.2841
 3433ntf    fn418554   5.076   6.643   4.062  0.9936 -0.7251 -0.7300
 3433ntf    fn418555   5.054   6.495   4.208 -0.2819  0.4320  0.0822
 3434ntf    cn118556   0.734   5.321   7.155 -0.0398  0.1689 -0.0438
 3434ntf    sn218557   0.861   5.450   7.139 -0.0342  0.1839  0.1130
 3434ntf    nn318558   0.772   5.564   7.077 -0.9001 -0.2119  0.6003
 3434ntf    sn218559   0.700   5.688   7.141 -0.3279  0.3924  0.0904
 3434ntf    cn118560   0.787   5.830   7.067  0.3442 -0.2123 -0.2883
 3434ntf    fn418561   0.776   5.214   7.222 -0.0196  0.1888 -0.0250
 3434ntf    fn418562   0.634   5.376   7.221  0.4013  0.2940  0.5350
 3434ntf    fn418563   0.692   5.281   7.037 -0.1631 -0.4075  0.1906
 3434ntf    on518564   0.914   5.468   7.272  0.0792  0.4754  0.0292
 3434ntf    on518565   0.954   5.397   7.043  0.5077  0.8363  0.2684
 3434ntf    on518566   0.710   5.697   7.284 -0.5348 -0.3568  0.1560
 3434ntf    on518567   0.565   5.697   7.092 -0.3515 -0.2300  0.0359
 3434ntf    fn418568   0.914   5.847   7.099  0.0566  0.6243  0.4434
 3434ntf    fn418569   0.781   5.828   6.935 -0.2621 -0.3743 -0.2595
 3434ntf    fn418570   0.729   5.938   7.115  0.8632  0.0264 -0.1893
 3435ntf    cn118571   3.587   1.790   1.202 -0.1715 -0.3513 -0.1055
 3435ntf    sn218572   3.597   1.769   1.382  0.5043  0.0264 -0.0956
 3435ntf    nn318573   3.523   1.897   1.435 -0.2762 -0.4067 -0.1102
 3435ntf    sn218574   3.458   1.928   1.574  0.2617 -0.0231  0.0606
 3435ntf    cn118575   3.593   2.008   1.666 -0.0249  0.1338  0.3465
 3435ntf    fn418576   3.664   1.709   1.132  0.3045 -0.6052  0.6963
 3435ntf    fn418577   3.463   1.758   1.167 -0.4547  0.1709  0.3935
 3435ntf    fn418578   3.601   1.917   1.166 -0.1971 -0.3988 -0.2836
 3435ntf    on518579   3.537   1.641   1.410  0.5226 -0.0098 -0.2234
 3435ntf    on518580   3.739   1.779   1.402  0.4110 -0.0082  0.6164
 3435ntf    on518581   3.434   1.811   1.654 -0.5318  0.0389 -0.0826
 3435ntf    on518582   3.351   2.025   1.569  0.6314  0.4119  0.4458
 3435ntf    fn418583   3.702   1.933   1.673  0.0646  0.2936  0.7162
 3435ntf    fn418584   3.637   2.117   1.605 -0.3875  0.0309 -0.1040
 3435ntf    fn418585   3.559   2.027   1.793 -0.5894  0.2297  0.1856
 3436ntf    cn118586   3.627   0.656   4.273  0.0805  0.1348 -0.2148
 3436ntf    sn218587   3.626   0.705   4.098  0.0066  0.1888 -0.1988
 3436ntf    nn318588   3.517   0.602   4.051  0.4317 -0.3400 -0.0376
 3436ntf    sn218589   3.464   0.571   3.906 -0.2374  0.5609  0.0027
 3436ntf    cn118590   3.290   0.616   3.931 -0.4735 -0.3635  0.0653
 3436ntf    fn418591   3.716   0.713   4.353  0.4693 -0.4992 -0.1834
 3436ntf    fn418592   3.512   0.671   4.336  0.0478  0.1540 -0.2804
 3436ntf    fn418593   3.657   0.527   4.286 -0.3405  0.0177 -0.4166
 3436ntf    on518594   3.579   0.841   4.105 -0.1944  0.0819  0.6636
 3436ntf    on518595   3.762   0.670   4.066  0.0355 -0.1293  0.2633
 3436ntf    on518596   3.444   0.430   3.881  0.9408  0.4231 -0.2311
 3436ntf    on518597   3.517   0.649   3.798  0.8895 -0.3162 -0.0977
 3436ntf    fn418598   3.257   0.576   4.053  0.0142 -0.6254  0.1156
 3436ntf    fn418599   3.267   0.745   3.915 -0.4922 -0.4246 -0.4230
 3436ntf    fn418600   3.215   0.553   3.842 -0.5207  0.2071 -0.3058
 3437ntf    cn118601   6.697   2.249   0.147  0.1484  0.2048  0.1143
 3437ntf    sn218602   6.664   2.248  -0.032 -0.2729 -0.1426  0.1918
 3437ntf    nn318603   6.644   2.094  -0.058  0.0122 -0.2613  0.6563
 3437ntf    sn218604   6.751   1.980  -0.074  0.1789  0.0069 -0.1990
 3437ntf    cn118605   6.723   1.928  -0.246  0.3516 -0.3519 -0.1202
 3437ntf    fn418606   6.722   2.369   0.197  0.5105  0.0165  0.3855
 3437ntf    fn418607   6.589   2.213   0.214 -0.2287  0.2026 -0.4881
 3437ntf    fn418608   6.796   2.171   0.185  0.1760 -0.1976 -0.7715
 3437ntf    on518609   6.546   2.330  -0.040  0.3721  0.7641 -0.0819
 3437ntf    on518610   6.787   2.308  -0.077 -0.2457 -0.3142  0.0369
 3437ntf    on518611   6.708   1.858  -0.010  0.6569 -0.2055 -0.2815
 3437ntf    on518612   6.887   2.024  -0.063  0.0684  0.1674  0.5626
 3437ntf    fn418613   6.593   1.945  -0.267  0.4916  0.0299 -0.7364
 3437ntf    fn418614   6.806   1.992  -0.327  0.5970 -0.2289  0.2262
 3437ntf    fn418615   6.741   1.798  -0.261 -0.8321 -0.5453 -0.0003
 3438ntf    cn118616   0.957   2.587   2.029 -0.1824 -0.0142 -0.4671
 3438ntf    sn218617   1.064   2.708   1.945 -0.0207  0.2877  0.1652
 3438ntf    nn318618   1.205   2.656   1.990  0.0279 -0.1499 -0.4834
 3438ntf    sn218619   1.307   2.562   1.916 -0.1188 -0.3668 -0.4122
 3438ntf    cn118620   1.245   2.396   1.958 -0.0725 -0.2337  0.1953
 3438ntf    fn418621   0.957   2.466   1.975  0.1534 -0.2586  0.0715
 3438ntf    fn418622   1.004   2.562   2.150 -0.1065  0.2828 -0.4333
 3438ntf    fn418623   0.829   2.619   2.036  0.0274  0.6562  0.5712
 3438ntf    on518624   1.029   2.688   1.806 -0.3055  0.2849  0.2372
 3438ntf    on518625   1.024   2.834   2.001  0.0435  0.5034 -0.2692
 3438ntf    on518626   1.427   2.569   1.996 -0.3411 -0.5109 -0.0630
 3438ntf    on518627   1.313   2.570   1.772 -0.3918  0.0483 -0.4031
 3438ntf    fn418628   1.213   2.392   2.086 -0.0879  0.7140  0.2292
 3438ntf    fn418629   1.140   2.370   1.882  0.0159 -0.4970  0.1612
 3438ntf    fn418630   1.341   2.306   1.939  0.0501 -0.1249  0.2923
 3439ntf    cn118631   0.355   0.955   1.503 -0.1361  0.0550 -0.1024
 3439ntf    sn218632   0.508   0.936   1.407 -0.0604 -0.1804  0.0644
 3439ntf    nn318633   0.442   0.851   1.293  0.3580  0.3078 -0.5501
 3439ntf    sn218634   0.441   0.695   1.272  0.0170  0.2311 -0.0080
 3439ntf    cn118635   0.586   0.674   1.164  0.0805 -0.5311  0.2273
 3439ntf    fn418636   0.312   0.834   1.536  0.3290 -0.0131  0.2831
 3439ntf    fn418637   0.383   1.027   1.611 -0.0431  0.1114 -0.1642
 3439ntf    fn418638   0.256   1.016   1.442 -0.0303  0.3200 -0.0117
 3439ntf    on518639   0.543   1.070   1.367 -0.0174 -0.3244 -0.3892
 3439ntf    on518640   0.605   0.869   1.490 -0.3572 -0.3862  0.2458
 3439ntf    on518641   0.334   0.651   1.186  0.0027 -0.0823  0.1722
 3439ntf    on518642   0.476   0.619   1.389 -0.5457  0.3254  0.2228
 3439ntf    fn418643   0.575   0.742   1.052  0.3167 -0.0743  0.4769
 3439ntf    fn418644   0.698   0.722   1.216 -0.0371  0.5374 -0.4895
 3439ntf    fn418645   0.601   0.545   1.137 -0.5369 -0.4624 -0.4695
 3440ntf    cn118646   1.457   5.395   2.534  0.0309  0.1964  0.1153
 3440ntf    sn218647   1.609   5.492   2.516  0.0108  0.2892  0.4480
 3440ntf    nn318648   1.711   5.393   2.583  0.2040 -0.0722 -0.3769
 3440ntf    sn218649   1.863   5.421   2.609  0.1574  0.2691 -0.4732
 3440ntf    cn118650   1.869   5.454   2.788 -0.1526 -0.3188 -0.3526
 3440ntf    fn418651   1.360   5.445   2.459 -0.2272  0.0443  0.3455
 3440ntf    fn418652   1.470   5.264   2.514  0.4536  0.2391  0.0895
 3440ntf    fn418653   1.408   5.419   2.654 -0.2053  0.5491 -0.0484
 3440ntf    on518654   1.624   5.512   2.374  0.4458 -0.3245  0.4037
 3440ntf    on518655   1.576   5.608   2.596 -0.5982  0.2840  0.2069
 3440ntf    on518656   1.903   5.550   2.558 -0.7228  0.6255 -0.2865
 3440ntf    on518657   1.948   5.307   2.587 -0.2575 -0.2929  0.7480
 3440ntf    fn418658   1.844   5.346   2.860  0.2301 -0.6807 -0.7532
 3440ntf    fn418659   1.994   5.484   2.821 -0.2627 -0.0174 -0.2071
 3440ntf    fn418660   1.789   5.554   2.820  0.3769  0.1116 -0.3498
 3441ntf    cn118661   6.189   2.958   3.449 -0.0748  0.3286  0.1498
 3441ntf    sn218662   6.369   2.932   3.450 -0.1324 -0.0834  0.0344
 3441ntf    nn318663   6.421   3.079   3.468  0.3157 -0.2019 -0.2824
 3441ntf    sn218664   6.435   3.188   3.357  0.0947  0.2502  0.1305
 3441ntf    cn118665   6.295   3.295   3.402  0.0617  0.3259 -0.1509
 3441ntf    fn418666   6.153   3.020   3.337  0.0695 -0.0401 -0.1040
 3441ntf    fn418667   6.118   2.846   3.454  0.1988  0.1528  0.1093
 3441ntf    fn418668   6.150   3.040   3.545  0.1565  0.5670  0.0412
 3441ntf    on518669   6.391   2.856   3.571  0.1836 -0.5554 -0.3180
 3441ntf    on518670   6.409   2.881   3.321  0.7819  0.6449  0.0189
 3441ntf    on518671   6.411   3.140   3.223 -0.3552  0.0410  0.2868
 3441ntf    on518672   6.550   3.275   3.365 -0.1162  0.5478 -0.0448
 3441ntf    fn418673   6.183   3.245   3.354 -0.1416  0.2859  0.3664
 3441ntf    fn418674   6.292   3.320   3.532  0.2415  0.0284 -0.0899
 3441ntf    fn418675   6.306   3.414   3.343  0.3399  0.1651 -0.4318
 3442ntf    cn118676   2.031   4.049   5.164 -0.2134  0.3130  0.3958
 3442ntf    sn218677   1.889   4.127   5.081  0.1079  0.1002 -0.3594
 3442ntf    nn318678   1.831   4.219   5.194  0.5693  0.1050 -0.1193
 3442ntf    sn218679   1.884   4.361   5.237  0.1235  0.2045  0.1120
 3442ntf    cn118680   1.762   4.478   5.171  0.1322  0.3168  0.2960
 3442ntf    fn418681   2.109   3.993   5.073 -0.2780  0.5225  0.2117
 3442ntf    fn418682   2.103   4.142   5.224 -0.1091  0.9494 -0.7038
 3442ntf    fn418683   1.995   3.956   5.252 -0.4548 -0.4522 -0.4910
 3442ntf    on518684   1.942   4.183   4.960 -0.3444 -0.2847 -0.7381
 3442ntf    on518685   1.797   4.017   5.067  0.2499 -0.0332 -0.2607
 3442ntf    on518686   2.004   4.403   5.169  0.2069 -0.4106 -0.1345
 3442ntf    on518687   1.876   4.380   5.379  0.8643  0.4122  0.1288
 3442ntf    fn418688   1.640   4.445   5.210  0.0926 -0.1142 -0.1801
 3442ntf    fn418689   1.783   4.602   5.212 -0.0973  0.4711 -0.0441
 3442ntf    fn418690   1.753   4.475   5.039 -0.0126 -0.5353  0.3193
 3443ntf    cn118691   6.066   1.262   2.408 -0.1555 -0.0223  0.0077
 3443ntf    sn218692   6.187   1.310   2.281 -0.0436  0.1046  0.1616
 3443ntf    nn318693   6.319   1.265   2.352 -0.2463  0.5770  0.8466
 3443ntf    sn218694   6.353   1.116   2.390 -0.3539  0.3850  0.2058
 3443ntf    cn118695   6.530   1.144   2.423 -0.2401  0.0803 -0.1381
 3443ntf    fn418696   5.950   1.324   2.391 -0.0209  0.2001 -0.1076
 3443ntf    fn418697   6.047   1.131   2.411 -0.2166 -0.0059  0.2667
 3443ntf    fn418698   6.115   1.294   2.526  0.0825 -0.2840 -0.0170
 3443ntf    on518699   6.138   1.240   2.165  0.1778  0.1669  0.0288
 3443ntf    on518700   6.178   1.453   2.297 -0.1187  0.0862  0.2813
 3443ntf    on518701   6.341   1.018   2.285  0.1224  0.8165 -0.2596
 3443ntf    on518702   6.301   1.072   2.517 -0.2173  0.8747  0.4382
 3443ntf    fn418703   6.584   1.167   2.305  0.2947 -0.4449 -0.0035
 3443ntf    fn418704   6.545   1.254   2.495 -0.7364 -0.1387  0.3087
 3443ntf    fn418705   6.598   1.040   2.470 -0.3856  0.0282 -0.0397
 3444ntf    cn118706   0.826   2.903   5.606  0.1809  0.2249 -0.1407
 3444ntf    sn218707   0.899   3.051   5.531  0.1241  0.3183 -0.0102
 3444ntf    nn318708   0.783   3.082   5.430  0.2137 -0.1800 -0.2695
 3444ntf    sn218709   0.783   3.197   5.322  0.3364  0.1184  0.0472
 3444ntf    cn118710   0.800   3.086   5.179 -0.0298  0.1716 -0.0380
 3444ntf    fn418711   0.892   2.847   5.706 -0.0409  0.1469 -0.0356
 3444ntf    fn418712   0.702   2.931   5.642  0.1099 -0.6853  0.3502
 3444ntf    fn418713   0.817   2.806   5.516 -0.7867  0.0640  0.1228
 3444ntf    on518714   0.898   3.151   5.635  0.6363  0.4746 -0.1529
 3444ntf    on518715   1.024   3.002   5.480 -0.0901 -0.9684  0.6759
 3444ntf    on518716   0.893   3.290   5.327  0.4702 -0.0588  0.4494
 3444ntf    on518717   0.649   3.246   5.307  0.1427 -0.6492 -0.8023
 3444ntf    fn418718   0.924   3.053   5.148 -0.2112 -0.9824  0.3795
 3444ntf    fn418719   0.739   2.969   5.194  0.6201 -0.2118 -0.3351
 3444ntf    fn418720   0.742   3.139   5.073  0.2375 -0.3034 -0.4231
 3445ntf    cn118721   1.628   1.435   3.348 -0.2625  0.0244  0.0544
 3445ntf    sn218722   1.768   1.336   3.410 -0.4059 -0.2889 -0.1179
 3445ntf    nn318723   1.712   1.294   3.550 -0.0295 -0.0880  0.0936
 3445ntf    sn218724   1.696   1.147   3.603 -0.0115 -0.1602 -0.1005
 3445ntf    cn118725   1.783   1.155   3.762 -0.2245  0.1086  0.0051
 3445ntf    fn418726   1.540   1.338   3.326 -0.2961  0.1399 -0.3240
 3445ntf    fn418727   1.579   1.533   3.422 -0.1024  0.4483 -0.4023
 3445ntf    fn418728   1.646   1.493   3.231  0.0210 -0.1566  0.0074
 3445ntf    on518729   1.793   1.231   3.314 -0.1544 -0.5570  0.2395
 3445ntf    on518730   1.862   1.442   3.438 -0.6550 -0.0778 -0.0776
 3445ntf    on518731   1.763   1.044   3.528 -0.2234 -0.3013 -0.0963
 3445ntf    on518732   1.557   1.135   3.643  0.0658  0.1247  0.2674
 3445ntf    fn418733   1.723   1.245   3.838 -0.1135  0.4095 -0.2598
 3445ntf    fn418734   1.777   1.042   3.831  0.0243 -0.1590 -0.4064
 3445ntf    fn418735   1.909   1.187   3.734 -0.2276  0.2747  0.1764
 3446ntf    cn118736   2.958   0.637   2.347  0.1254 -0.0954  0.1966
 3446ntf    sn218737   2.982   0.483   2.252 -0.3026 -0.0885  0.0775
 3446ntf    nn318738   3.133   0.477   2.213 -0.2192 -0.1673  0.4060
 3446ntf    sn218739   3.231   0.354   2.209 -0.0789 -0.0396 -0.2533
 3446ntf    cn118740   3.257   0.320   2.385  0.1386  0.2096 -0.2376
 3446ntf    fn418741   2.988   0.739   2.268 -0.0328 -0.1329  0.0891
 3446ntf    fn418742   2.841   0.659   2.405 -0.0023  0.2378 -0.1827
 3446ntf    fn418743   3.055   0.650   2.436  0.3034  0.6101 -0.0911
 3446ntf    on518744   2.939   0.386   2.350 -0.0557  0.1331  0.4086
 3446ntf    on518745   2.900   0.505   2.136  0.1639  0.2082 -0.1993
 3446ntf    on518746   3.366   0.384   2.167  0.1160 -0.7184 -0.1248
 3446ntf    on518747   3.180   0.235   2.145  0.2158  0.0893 -0.7298
 3446ntf    fn418748   3.292   0.429   2.451 -0.4071  0.0491  0.3243
 3446ntf    fn418749   3.145   0.279   2.442  0.2050  0.1321 -0.1626
 3446ntf    fn418750   3.359   0.237   2.403  0.0804  0.1917  0.0248
 3447ntf    cn118751   0.511   2.944   0.448 -0.1607  0.0547  0.0323
 3447ntf    sn218752   0.458   3.108   0.388 -0.0992  0.0673  0.0127
 3447ntf    nn318753   0.583   3.192   0.433  0.0929 -0.2811  0.1323
 3447ntf    sn218754   0.597   3.321   0.520  0.0689  0.0391 -0.3350
 3447ntf    cn118755   0.621   3.242   0.682 -0.0594  0.1145 -0.2795
 3447ntf    fn418756   0.431   2.851   0.399  0.3243 -0.1782 -0.3222
 3447ntf    fn418757   0.631   2.904   0.410 -0.0107  0.9280 -0.4594
 3447ntf    fn418758   0.511   2.934   0.580 -0.2561  0.1178  0.0374
 3447ntf    on518759   0.458   3.101   0.244  0.3538 -0.1023  0.0170
 3447ntf    on518760   0.335   3.129   0.460  0.2807  0.0697  0.6681
 3447ntf    on518761   0.487   3.412   0.542  0.5924  0.4732  0.5798
 3447ntf    on518762   0.722   3.384   0.483  0.1068  0.1443 -0.0310
 3447ntf    fn418763   0.633   3.334   0.777 -0.1908 -0.6245  0.4686
 3447ntf    fn418764   0.518   3.165   0.713  0.0947 -0.1516 -0.4326
 3447ntf    fn418765   0.729   3.166   0.681  0.0533  0.2470  0.7569
 3448ntf    cn118766   1.478   5.185   4.207 -0.4936 -0.0761 -0.0177
 3448ntf    sn218767   1.622   5.211   4.099 -0.3471 -0.2943  0.1242
 3448ntf    nn318768   1.552   5.297   3.987  0.1216  0.1501  0.1669
 3448ntf    sn218769   1.592   5.279   3.836 -0.3937  0.2797  0.0118
 3448ntf    cn118770   1.453   5.175   3.784  0.2102 -0.2345 -0.5788
 3448ntf    fn418771   1.505   5.194   4.336 -0.5708 -0.4614  0.0267
 3448ntf    fn418772   1.389   5.282   4.189 -0.2817  0.1603  0.2006
 3448ntf    fn418773   1.423   5.065   4.202 -0.2297 -0.1775 -0.5702
 3448ntf    on518774   1.704   5.297   4.181 -0.1390 -0.1952 -0.1885
 3448ntf    on518775   1.667   5.079   4.066 -0.7803 -0.4207  0.0364
 3448ntf    on518776   1.709   5.201   3.803 -0.2006  0.8218 -0.6086
 3448ntf    on518777   1.566   5.399   3.761  0.4635  0.2534 -0.3331
 3448ntf    fn418778   1.476   5.119   3.666 -0.3016 -0.4831 -0.5636
 3448ntf    fn418779   1.435   5.077   3.870  0.0378  0.0785 -0.2588
 3448ntf    fn418780   1.337   5.239   3.777  0.4809  0.2591 -0.6192
 3449ntf    cn118781   0.701   1.547   4.841  0.2836 -0.1653 -0.2301
 3449ntf    sn218782   0.672   1.669   4.973 -0.3211 -0.3611 -0.1828
 3449ntf    nn318783   0.561   1.595   5.057 -0.3807 -0.2816 -0.1915
 3449ntf    sn218784   0.540   1.577   5.212 -0.2327 -0.1777 -0.1585
 3449ntf    cn118785   0.438   1.427   5.226 -0.2082 -0.1751  0.0536
 3449ntf    fn418786   0.770   1.444   4.887 -0.1500 -0.4078 -0.1140
 3449ntf    fn418787   0.589   1.486   4.807  0.2680 -0.4032  0.2393
 3449ntf    fn418788   0.765   1.587   4.732  0.2220  0.8019  0.0794
 3449ntf    on518789   0.800   1.670   5.038 -0.3289 -0.2070 -0.1699
 3449ntf    on518790   0.640   1.789   4.901  0.4732 -0.4151 -0.6352
 3449ntf    on518791   0.462   1.680   5.275  0.3548  0.0528  0.1903
 3449ntf    on518792   0.657   1.532   5.283  0.0563  0.0620 -0.4803
 3449ntf    fn418793   0.438   1.381   5.350 -0.2754  0.3141  0.2345
 3449ntf    fn418794   0.313   1.452   5.189 -0.1740 -0.2488 -0.1130
 3449ntf    fn418795   0.486   1.325   5.155 -0.3267 -0.0175 -0.2572
 3450ntf    cn118796   4.663   0.998   3.722  0.0587  0.0799 -0.2537
 3450ntf    sn218797   4.720   1.157   3.656 -0.0877  0.2402  0.0053
 3450ntf    nn318798   4.589   1.232   3.613 -0.0453  0.2675 -0.0744
 3450ntf    sn218799   4.526   1.361   3.677  0.0145  0.1941  0.1348
 3450ntf    cn118800   4.409   1.271   3.783 -0.0434 -0.5001 -0.5049
 3450ntf    fn418801   4.746   0.930   3.801  0.6463  0.2715 -0.6965
 3450ntf    fn418802   4.555   1.010   3.797  0.0828  0.3699 -0.2658
 3450ntf    fn418803   4.631   0.917   3.623 -0.1954  0.1664 -0.2415
 3450ntf    on518804   4.786   1.203   3.776 -0.2782  0.4105  0.0453
 3450ntf    on518805   4.808   1.117   3.549 -0.0525  0.2372  0.0354
 3450ntf    on518806   4.454   1.437   3.578  0.2329 -0.1414 -0.2846
 3450ntf    on518807   4.611   1.437   3.765  0.9863 -0.2501 -0.4015
 3450ntf    fn418808   4.356   1.166   3.723  0.2902 -0.5028 -0.7993
 3450ntf    fn418809   4.463   1.224   3.894 -0.0095  0.2059 -0.2181
 3450ntf    fn418810   4.300   1.338   3.818  0.2162 -0.1765 -0.3063
 3451ntf    cn118811   1.755   2.294   5.950  0.4971 -0.2581 -0.1044
 3451ntf    sn218812   1.714   2.398   5.806 -0.0618 -0.1748  0.1128
 3451ntf    nn318813   1.802   2.329   5.696  0.0097  0.6157 -0.3311
 3451ntf    sn218814   1.764   2.206   5.607  0.4109  0.2473  0.0033
 3451ntf    cn118815   1.896   2.085   5.641  0.1661  0.0319  0.1950
 3451ntf    fn418816   1.698   2.339   6.060  0.2059 -0.8625 -0.0046
 3451ntf    fn418817   1.720   2.167   5.938 -0.3434  0.0010 -0.4614
 3451ntf    fn418818   1.885   2.296   5.976  0.4398  0.2901  0.1333
 3451ntf    on518819   1.571   2.387   5.788 -0.0409 -0.3371  0.0408
 3451ntf    on518820   1.767   2.527   5.841  0.0003  0.1418 -1.1225
 3451ntf    on518821   1.770   2.230   5.465 -1.0825 -0.5900 -0.2285
 3451ntf    on518822   1.650   2.124   5.641  0.1423  0.7248  0.2539
 3451ntf    fn418823   2.001   2.103   5.562  0.0412  0.0676  0.0362
 3451ntf    fn418824   1.943   2.098   5.764 -0.5204 -0.0661  0.4762
 3451ntf    fn418825   1.855   1.960   5.633  0.5448 -0.0480 -0.4925
 3452ntf    cn118826   0.016   1.766   2.877  0.2597 -0.1333 -0.2537
 3452ntf    sn218827   0.167   1.677   2.926 -0.0643 -0.6256 -0.1315
 3452ntf    nn318828   0.257   1.706   2.800 -0.4518  0.1910 -0.2297
 3452ntf    sn218829   0.285   1.606   2.682 -0.0091 -0.2472  0.2431
 3452ntf    cn118830   0.375   1.471   2.764  0.4353 -0.1689 -0.1116
 3452ntf    fn418831   0.038   1.886   2.827  0.3908  0.1765  0.5409
 3452ntf    fn418832  -0.044   1.694   2.784 -0.0839  0.0126 -0.1442
 3452ntf    fn418833  -0.071   1.787   2.974  0.2906  0.1400 -0.2842
 3452ntf    on518834   0.209   1.749   3.043  0.0972 -0.4608 -0.2892
 3452ntf    on518835   0.118   1.545   2.954 -0.9676 -0.1725  0.4594
 3452ntf    on518836   0.379   1.663   2.588 -0.6532 -0.1595 -0.3526
 3452ntf    on518837   0.161   1.549   2.636  0.1813 -0.3645 -0.1276
 3452ntf    fn418838   0.464   1.406   2.690 -0.0993 -0.5291 -0.4479
 3452ntf    fn418839   0.432   1.508   2.877  0.5811 -0.2308 -0.1633
 3452ntf    fn418840   0.297   1.372   2.803  0.1284  0.0493 -0.1696
 3453ntf    cn118841   4.700   3.846   6.165 -0.0461 -0.0470 -0.1763
 3453ntf    sn218842   4.786   3.992   6.231  0.0949 -0.3356  0.2822
 3453ntf    nn318843   4.858   4.050   6.104 -0.2229 -0.1703  0.1759
 3453ntf    sn218844   4.906   4.197   6.076 -0.2633 -0.1668  0.1225
 3453ntf    cn118845   4.961   4.258   6.239 -0.0524  0.1908 -0.0831
 3453ntf    fn418846   4.634   3.778   6.257 -0.3495  0.6583  0.1359
 3453ntf    fn418847   4.600   3.881   6.085  0.2067  0.4460 -0.2813
 3453ntf    fn418848   4.769   3.755   6.098 -0.3487  0.1396 -0.7531
 3453ntf    on518849   4.672   4.065   6.279  0.0112 -0.2033 -0.1161
 3453ntf    on518850   4.878   3.934   6.326 -0.0780 -0.1505  0.5624
 3453ntf    on518851   4.803   4.279   6.017  0.1862  0.1985 -0.1570
 3453ntf    on518852   5.027   4.182   5.999 -0.4338 -0.0993 -0.1585
 3453ntf    fn418853   5.060   4.182   6.281 -0.3380 -0.2286 -0.1678
 3453ntf    fn418854   5.017   4.377   6.221  0.0239  0.1903  0.1586
 3453ntf    fn418855   4.867   4.268   6.331 -0.3314 -0.1749 -0.3289
 3454ntf    cn118856   1.443   1.722   3.752  0.2940 -0.1800 -0.1944
 3454ntf    sn218857   1.548   1.838   3.846 -0.0332  0.0280 -0.0866
 3454ntf    nn318858   1.679   1.760   3.810  0.0396  0.2447 -0.2901
 3454ntf    sn218859   1.813   1.745   3.891 -0.1179 -0.0381 -0.0778
 3454ntf    cn118860   1.888   1.905   3.847 -0.4729  0.1486 -0.0127
 3454ntf    fn418861   1.315   1.751   3.740  0.4085  0.1449 -0.6210
 3454ntf    fn418862   1.479   1.717   3.625 -0.2506 -0.7745 -0.3299
 3454ntf    fn418863   1.451   1.602   3.808 -0.6376 -0.0379  0.2652
 3454ntf    on518864   1.523   1.958   3.770 -0.1840  0.1181  0.1042
 3454ntf    on518865   1.496   1.818   3.980  0.2664  0.3534  0.0778
 3454ntf    on518866   1.905   1.645   3.844 -0.0034  0.1613 -0.2808
 3454ntf    on518867   1.796   1.762   4.033 -0.4122  0.8735 -0.2125
 3454ntf    fn418868   2.018   1.912   3.873 -0.3439 -0.8294 -0.3236
 3454ntf    fn418869   1.886   1.923   3.715  0.8146 -0.3671 -0.1209
 3454ntf    fn418870   1.828   2.006   3.906 -0.6217  0.4110 -0.6053
 3455ntf    cn118871   6.973   5.226   5.755  0.1200 -0.5823 -0.3472
 3455ntf    sn218872   6.807   5.243   5.684  0.0634  0.2424 -0.0254
 3455ntf    nn318873   6.848   5.281   5.538  0.2399  0.6291  0.1214
 3455ntf    sn218874   6.783   5.290   5.395  0.0983 -0.0791  0.1350
 3455ntf    cn118875   6.736   5.465   5.379  0.1635 -0.0537  0.2191
 3455ntf    fn418876   6.977   5.195   5.883  0.1619 -0.1528 -0.2438
 3455ntf    fn418877   7.043   5.128   5.700  0.1322 -0.8540  0.1519
 3455ntf    fn418878   7.046   5.334   5.732 -0.1717 -0.3254 -0.0623
 3455ntf    on518879   6.738   5.119   5.708  0.1576  0.1842 -0.0563
 3455ntf    on518880   6.753   5.365   5.739 -0.1971  0.1424 -0.0570
 3455ntf    on518881   6.656   5.227   5.369  0.0136  0.0148  0.3183
 3455ntf    on518882   6.890   5.273   5.300  0.2177 -0.0673  0.2673
 3455ntf    fn418883   6.656   5.481   5.274  0.2625  0.3107  0.1965
 3455ntf    fn418884   6.679   5.504   5.492  0.1606 -0.4468  0.3537
 3455ntf    fn418885   6.839   5.547   5.365 -0.3002  0.5176  0.0845
 3456ntf    cn118886   7.027   4.325   6.866  0.0434  0.1866  0.1075
 3456ntf    sn218887   7.057   4.318   7.045  0.2930  0.1220  0.0638
 3456ntf    nn318888   6.974   4.447   7.078  0.1926 -0.1291  0.8132
 3456ntf    sn218889   6.832   4.472   7.140 -0.1481 -0.1664  0.0608
 3456ntf    cn118890   6.868   4.564   7.293  0.0483 -0.0613 -0.0485
 3456ntf    fn418891   7.036   4.446   6.812 -0.1894  0.2993  0.3168
 3456ntf    fn418892   7.105   4.240   6.801  0.6070  0.4721  0.4064
 3456ntf    fn418893   6.903   4.282   6.843  0.2428 -0.5936  0.4666
 3456ntf    on518894   6.992   4.192   7.073  0.1748  0.2653  0.4356
 3456ntf    on518895   7.200   4.326   7.053  0.3704 -0.5086 -0.5649
 3456ntf    on518896   6.755   4.355   7.178 -0.1943 -0.3130 -0.4769
 3456ntf    on518897   6.765   4.573   7.062  0.6884  0.2666 -0.1022
 3456ntf    fn418898   6.947   4.668   7.271 -0.0958  0.1368  0.3749
 3456ntf    fn418899   6.757   4.594   7.358  0.4383  0.3596  0.4280
 3456ntf    fn418900   6.935   4.484   7.374 -0.0631 -0.1716 -0.0640
 3457ntf    cn118901   1.229   6.644   3.099  0.4350 -0.1651 -0.1717
 3457ntf    sn218902   1.327   6.627   2.947  0.4185  0.1377 -0.2159
 3457ntf    nn318903   1.219   6.681   2.847  0.0650  0.3504  0.2760
 3457ntf    sn218904   1.235   6.761   2.713  0.0148  0.1767  0.1648
 3457ntf    cn118905   1.272   6.628   2.595 -0.0189  0.0893  0.2521
 3457ntf    fn418906   1.128   6.561   3.079 -0.3779  0.9473 -0.7745
 3457ntf    fn418907   1.297   6.606   3.206  0.1265 -0.1122  0.0449
 3457ntf    fn418908   1.173   6.761   3.126  0.5927 -0.1462  0.0794
 3457ntf    on518909   1.439   6.716   2.967  0.3940  0.1536 -0.1501
 3457ntf    on518910   1.340   6.484   2.937  0.1633  0.0263  0.8663
 3457ntf    on518911   1.342   6.856   2.690  0.5894 -0.3717  0.5309
 3457ntf    on518912   1.107   6.804   2.662  0.1346  0.1279 -0.1789
 3457ntf    fn418913   1.388   6.570   2.620 -0.0701 -0.4518 -0.6949
 3457ntf    fn418914   1.184   6.529   2.592 -0.3848  0.4143  0.0822
 3457ntf    fn418915   1.269   6.671   2.470  0.2512 -0.5061  0.0370
 3458ntf    cn118916   6.892   6.542   1.474  0.2779  0.5497  0.1435
 3458ntf    sn218917   6.763   6.635   1.386  0.0255 -0.1149 -0.2026
 3458ntf    nn318918   6.843   6.662   1.253 -0.1490 -0.2387 -0.3334
 3458ntf    sn218919   6.862   6.574   1.125  0.6565 -0.1018 -0.3145
 3458ntf    cn118920   6.771   6.686   1.013 -0.2170 -0.2966  0.1862
 3458ntf    fn418921   7.012   6.598   1.473  0.3864  0.3205  0.3303
 3458ntf    fn418922   6.863   6.518   1.601  0.0689 -0.4585 -0.0808
 3458ntf    fn418923   6.906   6.424   1.415 -0.1900  0.6333 -0.1394
 3458ntf    on518924   6.645   6.553   1.379  0.2117 -0.3580 -0.5173
 3458ntf    on518925   6.753   6.754   1.468 -0.7233  0.4281 -1.0652
 3458ntf    on518926   6.788   6.450   1.120  0.5836 -0.0546 -0.4149
 3458ntf    on518927   6.996   6.570   1.073  0.4951  0.2594 -0.7622
 3458ntf    fn418928   6.648   6.702   1.057 -0.0015 -0.1073  0.7318
 3458ntf    fn418929   6.822   6.808   1.004 -0.2727 -0.2931 -0.0817
 3458ntf    fn418930   6.767   6.635   0.891  0.4285 -0.1418  0.0927
 3459ntf    cn118931   3.864   1.750   2.737  0.1752  0.0700 -0.0640
 3459ntf    sn218932   3.878   1.724   2.917 -0.0743  0.2421 -0.0206
 3459ntf    nn318933   3.821   1.579   2.937 -0.0534  0.1371 -0.6873
 3459ntf    sn218934   3.708   1.531   3.034  0.2004  0.6801 -0.1069
 3459ntf    cn118935   3.793   1.396   3.122 -0.5377  0.4680  0.2984
 3459ntf    fn418936   3.739   1.780   2.707  0.0136  0.0683  0.5775
 3459ntf    fn418937   3.936   1.856   2.706 -0.0958  0.3054  0.1083
 3459ntf    fn418938   3.907   1.649   2.663 -0.1581 -0.1926  0.0953
 3459ntf    on518939   4.019   1.717   2.942 -0.0933 -0.6307 -0.1321
 3459ntf    on518940   3.809   1.838   2.974  0.3455  0.4910 -0.0038
 3459ntf    on518941   3.600   1.463   2.965 -0.0133  0.4202  0.4733
 3459ntf    on518942   3.668   1.619   3.141  0.1049  0.3021  0.1720
 3459ntf    fn418943   3.816   1.302   3.032  0.6036  0.7058  0.3241
 3459ntf    fn418944   3.913   1.429   3.168 -0.1908 -0.7682  0.2950
 3459ntf    fn418945   3.722   1.351   3.223 -0.5292 -0.0132  0.0899
 3460ntf    cn118946   1.032   4.358   6.718 -0.3528 -0.4730  0.1883
 3460ntf    sn218947   0.992   4.219   6.608  0.3859 -0.3231 -0.2710
 3460ntf    nn318948   1.081   4.243   6.480  0.3644  0.6179 -0.1163
 3460ntf    sn218949   1.151   4.140   6.386 -0.0133  0.2651 -0.0141
 3460ntf    cn118950   1.092   4.193   6.223 -0.0760  0.3004  0.0202
 3460ntf    fn418951   0.983   4.342   6.840 -0.1528 -0.1682  0.3115
 3460ntf    fn418952   1.159   4.394   6.710 -0.4869 -0.1844 -0.7338
 3460ntf    fn418953   0.971   4.466   6.671  0.7266  0.0740  0.0114
 3460ntf    on518954   1.037   4.106   6.685  0.4003 -0.1188  0.0231
 3460ntf    on518955   0.849   4.233   6.593  0.3712 -0.5354 -0.3177
 3460ntf    on518956   1.096   4.007   6.386 -0.2126  0.3478 -0.2739
 3460ntf    on518957   1.295   4.154   6.381 -0.0409  0.6732  0.2947
 3460ntf    fn418958   1.093   4.324   6.207  0.0451  0.3791  0.6550
 3460ntf    fn418959   1.178   4.146   6.134 -0.1606  0.2892 -0.0567
 3460ntf    fn418960   0.970   4.152   6.193  0.0710 -0.1778  0.0549
 3461ntf    cn118961   3.329   4.357   0.480  0.1481  0.5358  0.3122
 3461ntf    sn218962   3.170   4.433   0.438 -0.1459 -0.1865  0.1062
 3461ntf    nn318963   3.214   4.509   0.308  0.1787  0.5124  0.6161
 3461ntf    sn218964   3.145   4.625   0.228  0.0722  0.0782  0.0725
 3461ntf    cn118965   3.168   4.570   0.056  0.0656  0.3748 -0.0246
 3461ntf    fn418966   3.357   4.250   0.407  0.2908  0.7862 -0.0034
 3461ntf    fn418967   3.434   4.437   0.466  0.0517  0.6040 -0.0222
 3461ntf    fn418968   3.335   4.306   0.602 -0.6146  0.1596  0.1914
 3461ntf    on518969   3.077   4.325   0.417  0.0124 -0.1943 -0.5668
 3461ntf    on518970   3.139   4.520   0.549  0.1371  0.1139 -0.0462
 3461ntf    on518971   3.216   4.751   0.225 -0.4740  0.3864 -0.2124
 3461ntf    on518972   3.003   4.633   0.247 -0.0956 -0.3159 -0.9238
 3461ntf    fn418973   3.174   4.438   0.054  0.2262  0.3613  0.7826
 3461ntf    fn418974   3.064   4.595  -0.021 -0.2004 -0.5608  0.0105
 3461ntf    fn418975   3.276   4.608  -0.010  0.0848  0.7015  0.1903
 3462ntf    cn118976   0.402   0.066   3.878 -0.2495  0.1209 -0.1715
 3462ntf    sn218977   0.375  -0.072   3.994 -0.0918 -0.1074 -0.4043
 3462ntf    nn318978   0.527  -0.104   4.019 -0.2241 -0.4177  0.0168
 3462ntf    sn218979   0.589  -0.199   4.127  0.0535 -0.0521  0.1807
 3462ntf    cn118980   0.585  -0.350   4.025  0.0957 -0.1212  0.2806
 3462ntf    fn418981   0.296   0.097   3.805 -0.3418 -0.0039 -0.0912
 3462ntf    fn418982   0.452   0.172   3.938 -0.2983  0.0788 -0.0558
 3462ntf    fn418983   0.491   0.019   3.791 -0.1356  0.1612 -0.0767
 3462ntf    on518984   0.307  -0.014   4.107  0.1381 -0.1468 -0.2442
 3462ntf    on518985   0.304  -0.171   3.918 -0.6557  0.4543 -0.6139
 3462ntf    on518986   0.504  -0.225   4.241  0.3553 -0.6775  0.2672
 3462ntf    on518987   0.730  -0.179   4.148  0.0311  1.0460 -0.6145
 3462ntf    fn418988   0.649  -0.343   3.910  0.0784  0.2386  0.2892
 3462ntf    fn418989   0.645  -0.451   4.086  0.3803 -0.0500  0.1171
 3462ntf    fn418990   0.459  -0.385   4.003  0.1276  0.1031 -0.2671
 3463ntf    cn118991   1.241   0.587   7.082  0.0017  0.0242  0.0152
 3463ntf    sn218992   1.161   0.717   6.983  0.0876  0.1240  0.0751
 3463ntf    nn318993   1.186   0.655   6.840 -0.1295  0.1812  0.0121
 3463ntf    sn218994   1.078   0.590   6.747 -0.0631  0.0028  0.0596
 3463ntf    cn118995   1.186   0.545   6.608 -0.6056 -0.5811 -0.1789
 3463ntf    fn418996   1.355   0.545   7.029  0.2017 -0.0837  0.5235
 3463ntf    fn418997   1.259   0.626   7.207 -0.1041  0.2924 -0.0532
 3463ntf    fn418998   1.171   0.475   7.095  0.2416 -0.0774  0.4667
 3463ntf    on518999   1.029   0.718   7.041  0.1129  0.8648  0.1205
 3463ntf    on519000   1.250   0.829   6.998  0.1031  0.0832  0.2842
 3463ntf    on519001   0.986   0.677   6.678 -0.1504 -0.2216 -0.1049
 3463ntf    on519002   1.013   0.471   6.796 -0.4255  0.2509  0.1920
 3463ntf    fn419003   1.237   0.653   6.551  0.1752 -0.6916  0.2877
 3463ntf    fn419004   1.290   0.469   6.638 -0.4092 -0.2249  0.0541
 3463ntf    fn419005   1.120   0.487   6.509 -0.0409 -0.7094 -0.4812
 3464ntf    cn119006   3.907   2.964   5.842  0.6106 -0.5233 -0.0787
 3464ntf    sn219007   3.873   2.788   5.872 -0.2014 -0.4229 -0.3685
 3464ntf    nn319008   3.727   2.804   5.925 -0.1854  0.3073 -0.5361
 3464ntf    sn219009   3.594   2.829   5.844 -0.5203  0.0253 -0.0809
 3464ntf    cn119010   3.520   2.666   5.874 -0.0571 -0.1273  0.2362
 3464ntf    fn419011   4.034   3.000   5.830  0.3959  0.2400 -0.1548
 3464ntf    fn419012   3.856   3.010   5.729 -0.1285 -0.1917  0.3790
 3464ntf    fn419013   3.853   3.034   5.940  0.3373 -0.4693 -0.2664
 3464ntf    on519014   3.879   2.720   5.745 -0.1859 -0.6564 -0.2438
 3464ntf    on519015   3.970   2.756   5.974 -0.2667 -0.2693 -0.2586
 3464ntf    on519016   3.599   2.856   5.702  0.2337  0.6384  0.0561
 3464ntf    on519017   3.503   2.908   5.922  0.1188  0.1766  0.5245
 3464ntf    fn419018   3.402   2.649   5.818 -0.0546  0.6291  0.0029
 3464ntf    fn419019   3.594   2.563   5.833  0.1456  0.1886 -0.1927
 3464ntf    fn419020   3.499   2.651   6.004  0.4093  0.2135  0.3513
 3465ntf    cn119021   0.155   2.255   0.640  0.2446 -0.2123  0.5511
 3465ntf    sn219022   0.233   2.248   0.476 -0.1839 -0.2288  0.3472
 3465ntf    nn319023   0.106   2.293   0.394  0.2438  0.2351 -0.0671
 3465ntf    sn219024   0.074   2.267   0.243 -0.1669 -0.1600  0.0871
 3465ntf    cn119025  -0.041   2.130   0.272  0.1765 -0.3711  0.4700
 3465ntf    fn419026   0.119   2.375   0.683  0.0696 -0.2679  0.5619
 3465ntf    fn419027   0.051   2.173   0.643  0.1763 -0.1605 -0.2564
 3465ntf    fn419028   0.239   2.210   0.731  0.2943 -0.5258  0.3499
 3465ntf    on519029   0.343   2.342   0.478 -0.6949  0.3821  0.2070
 3465ntf    on519030   0.256   2.107   0.455  0.0392 -0.2213  0.5390
 3465ntf    on519031   0.187   2.223   0.165  0.1365  0.3111  0.2578
 3465ntf    on519032  -0.007   2.366   0.177 -0.0654  0.1374  0.4053
 3465ntf    fn419033  -0.106   2.136   0.387 -0.3953  0.2964  0.1155
 3465ntf    fn419034  -0.139   2.119   0.183  0.2154 -0.2030  0.4070
 3465ntf    fn419035   0.015   2.011   0.258 -0.3075 -0.5181 -0.2972
 3466ntf    cn119036   6.110   3.033   5.853  0.0221 -0.2032 -0.0241
 3466ntf    sn219037   5.934   3.015   5.811 -0.0275  0.5575 -0.1472
 3466ntf    nn319038   5.884   3.075   5.948  0.6504 -0.0863  0.3889
 3466ntf    sn219039   5.769   3.015   6.036  0.4507 -0.3795 -0.0717
 3466ntf    cn119040   5.643   3.143   6.010  0.3975 -0.3974  0.0967
 3466ntf    fn419041   6.148   2.935   5.933  0.6588  0.3866  0.4032
 3466ntf    fn419042   6.192   3.025   5.748 -0.3137 -0.0690 -0.2973
 3466ntf    fn419043   6.128   3.154   5.903 -0.4226 -0.4037  0.6239
 3466ntf    on519044   5.919   3.096   5.693 -0.7719  0.7672  0.0868
 3466ntf    on519045   5.917   2.873   5.796  0.0626  0.5032  0.2540
 3466ntf    on519046   5.804   3.040   6.173  0.7339 -0.1612 -0.1855
 3466ntf    on519047   5.709   2.890   5.993  0.1922 -0.0569 -0.6735
 3466ntf    fn419048   5.688   3.264   6.039  0.0925 -0.2158 -0.1811
 3466ntf    fn419049   5.609   3.138   5.882  0.3080 -0.2967  0.1161
 3466ntf    fn419050   5.528   3.123   6.072  0.2456 -0.1714 -0.1083
 3467ntf    cn119051   4.576   0.396   6.904  0.0514 -0.4753  0.2857
 3467ntf    sn219052   4.512   0.434   6.738  0.2066  0.1761  0.3698
 3467ntf    nn319053   4.634   0.375   6.658  0.0799 -0.5172  0.6753
 3467ntf    sn219054   4.667   0.229   6.611  0.2370 -0.1972 -0.2323
 3467ntf    cn119055   4.825   0.205   6.697  0.1016 -0.0716  0.0520
 3467ntf    fn419056   4.703   0.433   6.901  0.0211 -0.4402 -0.9476
 3467ntf    fn419057   4.512   0.458   7.002  0.2862 -0.9818  0.7721
 3467ntf    fn419058   4.572   0.267   6.933 -0.5083 -0.6316 -0.4812
 3467ntf    on519059   4.388   0.361   6.731 -0.4090  1.2916 -0.6713
 3467ntf    on519060   4.510   0.578   6.740 -0.2419  0.1947 -1.0480
 3467ntf    on519061   4.688   0.226   6.468 -0.8299 -1.1870 -0.3879
 3467ntf    on519062   4.595   0.116   6.665 -0.3592  0.1847 -0.2168
 3467ntf    fn419063   4.814   0.236   6.825 -0.0123  0.3690 -0.0601
 3467ntf    fn419064   4.859   0.078   6.700 -0.8307 -0.3334 -0.0882
 3467ntf    fn419065   4.935   0.270   6.662  0.1946 -0.2253  0.0577
 3468ntf    cn119066   2.566   4.955   5.738 -0.2032  0.4422 -0.3093
 3468ntf    sn219067   2.552   4.850   5.886  0.1401  0.0793 -0.5333
 3468ntf    nn319068   2.628   4.941   5.989 -0.3004 -0.1103 -0.0364
 3468ntf    sn219069   2.565   5.065   6.061 -0.0286  0.0682 -0.1052
 3468ntf    cn119070   2.511   5.009   6.225 -0.3794  0.1492 -0.1927
 3468ntf    fn419071   2.677   5.026   5.727  0.0331  0.1309  0.0526
 3468ntf    fn419072   2.574   4.880   5.629 -0.4076 -0.1464  0.0759
 3468ntf    fn419073   2.467   5.042   5.724 -0.1389  0.5527 -0.0831
 3468ntf    on519074   2.412   4.821   5.910  0.1956  0.2133 -0.0399
 3468ntf    on519075   2.637   4.738   5.855  0.0168 -0.2765  0.3987
 3468ntf    on519076   2.451   5.127   5.998 -0.0315  0.0588 -0.1098
 3468ntf    on519077   2.662   5.163   6.103  0.1740 -0.1450 -0.0716
 3468ntf    fn419078   2.480   4.880   6.236 -0.3473  0.1065 -0.5838
 3468ntf    fn419079   2.607   5.030   6.314 -0.2496 -0.1385 -0.2639
 3468ntf    fn419080   2.406   5.072   6.276 -0.4060  0.1351 -0.2291
 3469ntf    cn119081   3.423   6.897   2.600 -0.4139 -0.1677 -0.2121
 3469ntf    sn219082   3.258   6.888   2.676 -0.2505  0.5606  0.2382
 3469ntf    nn319083   3.180   6.837   2.550 -0.1978  0.1027  0.3887
 3469ntf    sn219084   3.047   6.894   2.490  0.0020  0.1307 -0.0360
 3469ntf    cn119085   3.025   6.771   2.358  0.0540 -0.0676  0.1397
 3469ntf    fn419086   3.521   6.913   2.688 -0.4025 -0.0532 -0.2447
 3469ntf    fn419087   3.446   6.793   2.522 -0.7573  0.1078 -0.6900
 3469ntf    fn419088   3.437   7.006   2.526 -0.1968 -0.0713 -0.0352
 3469ntf    on519089   3.270   6.792   2.783 -0.4089  0.1165 -0.1431
 3469ntf    on519090   3.242   7.028   2.710 -1.1415  0.4852  0.1409
 3469ntf    on519091   3.071   7.015   2.416  0.3094 -0.0815 -0.2842
 3469ntf    on519092   2.931   6.882   2.575  0.1079  0.1192  0.1070
 3469ntf    fn419093   2.982   6.656   2.406 -0.1821 -0.0322  0.0130
 3469ntf    fn419094   2.929   6.812   2.277  0.3779  0.2489 -0.0835
 3469ntf    fn419095   3.129   6.745   2.280 -0.0785  0.1762 -0.1213
 3470ntf    cn119096   2.182   3.745   6.022  0.1799  0.1097  0.0940
 3470ntf    sn219097   2.168   3.904   6.110  0.1603  0.2756 -0.2067
 3470ntf    nn319098   2.281   3.898   6.219  0.3887 -0.1895 -0.4647
 3470ntf    sn219099   2.435   3.929   6.223  0.3472 -0.0200 -0.1473
 3470ntf    cn119100   2.478   3.863   6.387  0.2419  0.1470 -0.0519
 3470ntf    fn419101   2.204   3.648   6.109  0.0955  0.1388  0.1478
 3470ntf    fn419102   2.071   3.722   5.953  0.2704 -0.3017  0.0841
 3470ntf    fn419103   2.282   3.750   5.935  0.3289  0.1259  0.2653
 3470ntf    on519104   2.190   4.000   6.005 -0.1346  0.1303 -0.4046
 3470ntf    on519105   2.033   3.896   6.160 -0.1131 -0.3015 -1.0084
 3470ntf    on519106   2.459   4.070   6.242 -0.9569  0.2437 -0.3534
 3470ntf    on519107   2.516   3.851   6.134  0.1633 -0.3679 -0.0109
 3470ntf    fn419108   2.609   3.868   6.404  0.1803 -0.3309  0.5850
 3470ntf    fn419109   2.417   3.927   6.485 -0.0793  0.0834 -0.2088
 3470ntf    fn419110   2.433   3.739   6.388 -0.0079  0.2374  0.0203
 3471ntf    cn119111   4.602   0.655   2.299  0.0984  0.0262 -0.2849
 3471ntf    sn219112   4.682   0.613   2.456 -0.2350  0.3698 -0.0232
 3471ntf    nn319113   4.591   0.499   2.513  0.4005 -0.0601  0.1393
 3471ntf    sn219114   4.637   0.368   2.588 -0.1790 -0.1711  0.3075
 3471ntf    cn119115   4.619   0.247   2.454 -0.1838 -0.1321  0.2730
 3471ntf    fn419116   4.576   0.552   2.221 -0.2644 -0.6297  0.6891
 3471ntf    fn419117   4.487   0.720   2.308 -0.0187 -0.2337  0.1163
 3471ntf    fn419118   4.673   0.740   2.226  0.3474  0.4359  0.4323
 3471ntf    on519119   4.814   0.571   2.416 -0.2674 -0.3005  0.5533
 3471ntf    on519120   4.672   0.733   2.536  0.0311  0.3208  0.0840
 3471ntf    on519121   4.538   0.327   2.685 -0.0847 -0.1587  0.4091
 3471ntf    on519122   4.776   0.355   2.621 -0.0562  0.0727 -0.1000
 3471ntf    fn419123   4.675   0.131   2.484  0.1276  0.0326  0.3339
 3471ntf    fn419124   4.492   0.212   2.440 -0.1769 -0.1616  0.2829
 3471ntf    fn419125   4.664   0.289   2.337 -0.1329  0.0672  0.3634
 3472ntf    cn119126   5.433   1.718   4.088  0.0896  0.4300 -0.2462
 3472ntf    sn219127   5.344   1.786   4.232 -0.0420 -0.2787  0.0102
 3472ntf    nn319128   5.215   1.834   4.156  0.4850 -0.0462 -0.7494
 3472ntf    sn219129   5.189   1.982   4.109  0.2010  0.3756  0.6923
 3472ntf    cn119130   5.113   2.055   4.257 -0.2409  0.0864  0.6120
 3472ntf    fn419131   5.559   1.716   4.128 -0.0816 -0.3633  0.2707
 3472ntf    fn419132   5.402   1.591   4.070  0.6997  0.1793  0.4226
 3472ntf    fn419133   5.425   1.781   3.972 -0.0526  0.5627 -0.1660
 3472ntf    on519134   5.321   1.671   4.316 -0.3284  0.1237  0.4829
 3472ntf    on519135   5.432   1.889   4.280  0.5300 -0.7253 -0.0675
 3472ntf    on519136   5.085   1.994   4.011  0.3597  0.0992  0.4876
 3472ntf    on519137   5.308   2.057   4.080  0.0616  0.2768 -0.1345
 3472ntf    fn419138   5.201   2.070   4.355  0.7638 -0.5260 -0.1838
 3472ntf    fn419139   5.060   2.174   4.232 -0.1767 -0.0415 -0.1326
 3472ntf    fn419140   5.011   1.982   4.299 -0.2382  0.1426  0.7189
 3473ntf    cn119141   6.377   4.036   2.282  0.0297  0.0410  0.1455
 3473ntf    sn219142   6.292   4.035   2.122 -0.0477  0.2605  0.1851
 3473ntf    nn319143   6.350   3.901   2.063 -0.5743  0.1290 -0.0395
 3473ntf    sn219144   6.280   3.762   2.040 -0.0282 -0.0704 -0.5013
 3473ntf    cn119145   6.224   3.784   1.868 -0.0386  0.2329 -0.4605
 3473ntf    fn419146   6.356   3.924   2.349 -0.0714  0.0474  0.1249
 3473ntf    fn419147   6.508   4.034   2.266  0.0481  0.0648  0.2896
 3473ntf    fn419148   6.350   4.130   2.371  0.3880  0.2731  0.0135
 3473ntf    on519149   6.150   4.027   2.147 -0.2377 -0.1106 -0.9380
 3473ntf    on519150   6.348   4.153   2.060  0.3300  0.3564  0.7101
 3473ntf    on519151   6.161   3.737   2.117  0.3557 -0.0040  0.1222
 3473ntf    on519152   6.376   3.656   2.023 -0.2392 -0.3657  0.1394
 3473ntf    fn419153   6.128   3.707   1.820  0.0317 -0.2584  0.1591
 3473ntf    fn419154   6.170   3.904   1.858 -0.8397 -0.0601  0.1748
 3473ntf    fn419155   6.324   3.782   1.782  0.0175  0.4230 -0.4011
 3474ntf    cn119156   1.432   3.030   0.363 -0.1272 -0.0468  0.0394
 3474ntf    sn219157   1.450   3.166   0.244  0.3049 -0.1704 -0.0411
 3474ntf    nn319158   1.381   3.281   0.327  0.4444  0.0642 -0.2487
 3474ntf    sn219159   1.433   3.428   0.347 -0.1654  0.2629 -0.1284
 3474ntf    cn119160   1.273   3.512   0.370 -0.0840  0.3279  0.1991
 3474ntf    fn419161   1.306   2.998   0.384 -0.1669  0.3420  0.4125
 3474ntf    fn419162   1.500   2.920   0.336 -0.0399 -0.1499  0.6480
 3474ntf    fn419163   1.473   3.056   0.487  0.5565  1.3235 -0.4517
 3474ntf    on519164   1.591   3.188   0.224  0.3691 -0.3681  0.1905
 3474ntf    on519165   1.371   3.131   0.128 -0.1121  0.2419  0.1155
 3474ntf    on519166   1.488   3.484   0.226 -0.2734 -0.2367 -0.4128
 3474ntf    on519167   1.494   3.445   0.476  0.7623 -0.2195 -0.4996
 3474ntf    fn419168   1.203   3.508   0.258 -0.0723  0.2263  0.1953
 3474ntf    fn419169   1.199   3.454   0.462  0.0498  0.2165  0.2376
 3474ntf    fn419170   1.289   3.638   0.409  0.1650  0.1325  0.7405
 3475ntf    cn119171   3.362   1.877   0.619 -0.4208  0.1531  0.0552
 3475ntf    sn219172   3.388   2.028   0.520  0.6968  0.0117  0.1252
 3475ntf    nn319173   3.403   2.142   0.626  0.2851  0.0287  0.1648
 3475ntf    sn219174   3.532   2.190   0.702  0.6033 -0.3537 -0.1290
 3475ntf    cn119175   3.586   2.316   0.582 -0.1597 -0.2251 -0.3461
 3475ntf    fn419176   3.335   1.771   0.545  0.1927 -0.1362  0.2423
 3475ntf    fn419177   3.463   1.855   0.702 -0.8962 -0.5175  0.4627
 3475ntf    fn419178   3.256   1.884   0.697 -0.0593  0.5274  0.5208
 3475ntf    on519179   3.507   1.981   0.452  0.4002 -0.2888 -0.1918
 3475ntf    on519180   3.268   2.037   0.441  0.2759 -0.4446  0.6998
 3475ntf    on519181   3.635   2.090   0.716  0.8636 -0.0423  0.1885
 3475ntf    on519182   3.492   2.268   0.816  0.1374 -0.8445  0.0464
 3475ntf    fn419183   3.616   2.260   0.466  0.5382  0.1061 -0.3326
 3475ntf    fn419184   3.494   2.410   0.562  0.1489  0.1203 -0.1590
 3475ntf    fn419185   3.694   2.373   0.633 -0.1339 -0.3029 -0.3128
 3476ntf    cn119186   3.342   1.609   4.742 -0.0424  0.3843  0.0597
 3476ntf    sn219187   3.398   1.451   4.812  0.5197  0.3167 -0.5379
 3476ntf    nn319188   3.264   1.379   4.774  0.1267  0.8116 -0.0970
 3476ntf    sn219189   3.230   1.280   4.657  0.0588  0.2112  0.4255
 3476ntf    cn119190   3.053   1.299   4.623  0.0904 -0.2216  0.0109
 3476ntf    fn419191   3.253   1.679   4.811 -0.3917 -0.0580  0.0565
 3476ntf    fn419192   3.444   1.692   4.728 -0.2647  0.6774  0.1465
 3476ntf    fn419193   3.286   1.593   4.623  0.3626  0.3245 -0.1231
 3476ntf    on519194   3.509   1.395   4.738  0.2095 -0.4350 -0.4344
 3476ntf    on519195   3.399   1.483   4.952  0.1414 -0.9424 -0.2346
 3476ntf    on519196   3.234   1.144   4.704  0.5825  0.0630 -0.0362
 3476ntf    on519197   3.294   1.303   4.529 -0.6137 -0.5063 -0.0488
 3476ntf    fn419198   3.014   1.209   4.534  0.1808  0.1417 -0.3985
 3476ntf    fn419199   2.978   1.278   4.730  0.2762  0.3920  0.2618
 3476ntf    fn419200   3.022   1.419   4.577  0.8680  0.1988  0.5670
 3477ntf    cn119201   4.828   6.500   5.771  0.0529  0.1818  0.1678
 3477ntf    sn219202   4.839   6.512   5.952  0.3309 -0.0461  0.1666
 3477ntf    nn319203   4.975   6.589   5.968  0.3208 -0.1414  0.7290
 3477ntf    sn219204   4.991   6.743   5.991  0.2003  0.0518 -0.4274
 3477ntf    cn119205   5.169   6.763   5.963  0.1835 -0.1964 -0.7124
 3477ntf    fn419206   4.709   6.454   5.735  0.2427 -0.2710  0.1073
 3477ntf    fn419207   4.844   6.618   5.714  0.4708 -0.1331 -0.3752
 3477ntf    fn419208   4.916   6.416   5.718  0.2886 -0.0595  0.9292
 3477ntf    on519209   4.718   6.580   5.991  0.1986 -0.2953  0.1959
 3477ntf    on519210   4.859   6.379   6.005 -0.1152 -0.2137 -0.0744
 3477ntf    on519211   4.968   6.789   6.126  0.3262 -0.1833 -0.3258
 3477ntf    on519212   4.926   6.832   5.898 -0.0674  0.5379  0.2121
 3477ntf    fn419213   5.204   6.889   5.948  0.5047 -0.1557  0.2781
 3477ntf    fn419214   5.234   6.719   6.070 -0.9039  0.1068  0.0891
 3477ntf    fn419215   5.214   6.696   5.858  0.4526 -1.2060  0.0250
 3478ntf    cn119216   4.838   2.915   4.428  0.3389 -0.0037  0.1131
 3478ntf    sn219217   4.938   2.798   4.331 -0.1018 -0.1037 -0.2230
 3478ntf    nn319218   4.831   2.785   4.216 -0.1502 -0.2078 -0.1660
 3478ntf    sn219219   4.829   2.669   4.110  0.1398 -0.3543 -0.0150
 3478ntf    cn119220   4.718   2.541   4.176 -0.0612 -0.2640 -0.1787
 3478ntf    fn419221   4.923   2.979   4.506 -0.1970  0.1640  0.5626
 3478ntf    fn419222   4.764   2.998   4.355 -0.3372 -0.3379  0.4132
 3478ntf    fn419223   4.759   2.848   4.510  0.3685 -0.3973 -0.1766
 3478ntf    on519224   5.046   2.888   4.303  0.0113 -0.1341  0.1050
 3478ntf    on519225   4.952   2.689   4.425 -0.5967  0.0110 -0.0100
 3478ntf    on519226   4.954   2.602   4.082 -0.0548 -0.3833 -0.8477
 3478ntf    on519227   4.765   2.716   3.990  0.6593  0.3310 -0.0331
 3478ntf    fn419228   4.606   2.596   4.220  0.2267 -0.0964  0.3509
 3478ntf    fn419229   4.681   2.448   4.089 -0.0787 -0.2745 -0.1600
 3478ntf    fn419230   4.768   2.477   4.280 -0.3455  0.2666  0.2871
 3479ntf    cn119231   1.362   5.165   0.746  0.3739  0.0883 -0.0147
 3479ntf    sn219232   1.492   5.039   0.727  0.3641  0.0450  0.1998
 3479ntf    nn319233   1.439   4.926   0.822  0.1761 -0.0818 -0.0583
 3479ntf    sn219234   1.513   4.885   0.954  0.0542  0.0576  0.0522
 3479ntf    cn119235   1.646   4.777   0.892 -0.0010  0.1090 -0.1553
 3479ntf    fn419236   1.397   5.276   0.684  0.4016  0.0444 -0.0776
 3479ntf    fn419237   1.246   5.130   0.692 -0.2711  0.3808  1.1366
 3479ntf    fn419238   1.342   5.205   0.871  0.1155 -0.3361  0.0861
 3479ntf    on519239   1.464   4.996   0.593 -0.3302 -0.4839  0.5105
 3479ntf    on519240   1.616   5.108   0.755 -0.1319  0.9545  0.2207
 3479ntf    on519241   1.433   4.791   1.028 -0.0645 -0.2888 -0.5140
 3479ntf    on519242   1.590   4.974   1.038  0.6608  0.3260 -0.7774
 3479ntf    fn419243   1.709   4.742   1.003  0.0514 -0.2245 -0.2893
 3479ntf    fn419244   1.609   4.667   0.829  0.5000 -0.1599  0.0178
 3479ntf    fn419245   1.733   4.843   0.817 -0.0622  0.4065  0.0305
 3480ntf    cn119246   4.840   2.709   1.768  0.0276  0.2629  0.2048
 3480ntf    sn219247   4.763   2.872   1.795 -0.0335  0.2921 -0.1435
 3480ntf    nn319248   4.626   2.841   1.724 -0.1846  0.1131  0.2261
 3480ntf    sn219249   4.494   2.926   1.726 -0.1448  0.1767  0.1605
 3480ntf    cn119250   4.399   2.851   1.862  0.0512 -0.2880  0.0414
 3480ntf    fn419251   4.883   2.685   1.645 -0.6320 -0.3449  0.0817
 3480ntf    fn419252   4.946   2.699   1.846  0.1298  0.1709  0.0548
 3480ntf    fn419253   4.753   2.612   1.786  0.1304  0.1581  0.1351
 3480ntf    on519254   4.769   2.885   1.938 -0.8650  0.1590 -0.0921
 3480ntf    on519255   4.851   2.960   1.721  0.6312 -0.5658 -0.3875
 3480ntf    on519256   4.416   2.896   1.609 -0.1584 -0.3800  0.3099
 3480ntf    on519257   4.511   3.066   1.757  0.1704  0.1897 -0.0616
 3480ntf    fn419258   4.355   2.730   1.831  0.2383 -0.3377 -0.0317
 3480ntf    fn419259   4.462   2.840   1.978 -0.2297 -0.4685  0.1790
 3480ntf    fn419260   4.284   2.910   1.892  0.2265  0.0312  0.0847
 3481ntf    cn119261   6.815   6.536   2.209  0.1412 -0.0565  0.3433
 3481ntf    sn219262   6.814   6.414   2.074 -0.0862  0.0981  0.2046
 3481ntf    nn319263   6.763   6.497   1.951  0.0750 -0.0746  0.0220
 3481ntf    sn219264   6.614   6.522   1.911  0.0152  0.0938  0.3496
 3481ntf    cn119265   6.590   6.407   1.772 -0.1914  0.2847  0.2265
 3481ntf    fn419266   6.874   6.651   2.180 -0.1864  0.0842  0.2301
 3481ntf    fn419267   6.695   6.579   2.245  0.1964 -0.1194  0.6034
 3481ntf    fn419268   6.868   6.492   2.322 -0.4949 -0.3067  0.5471
 3481ntf    on519269   6.956   6.391   2.062 -0.1252  0.0421 -0.1524
 3481ntf    on519270   6.727   6.308   2.120  0.2160 -0.2504 -0.0239
 3481ntf    on519271   6.592   6.645   1.838 -0.4427 -0.3101 -0.2058
 3481ntf    on519272   6.513   6.490   2.009 -0.1385 -0.2583  0.0770
 3481ntf    fn419273   6.701   6.381   1.705 -0.2245 -0.0913  0.3181
 3481ntf    fn419274   6.525   6.296   1.801 -0.2336  0.3437  0.3568
 3481ntf    fn419275   6.503   6.450   1.682 -0.0576 -0.2189 -0.1444
 3482ntf    cn119276   5.744   1.431   7.129 -0.3320  0.0440  0.4123
 3482ntf    sn219277   5.741   1.572   7.015  0.3190 -0.1027  0.2053
 3482ntf    nn319278   5.786   1.683   7.117 -0.0607  0.2274  0.0167
 3482ntf    sn219279   5.889   1.801   7.104 -0.0874  0.2801  0.2884
 3482ntf    cn119280   6.014   1.750   7.226 -0.1343  0.0998  0.2613
 3482ntf    fn419281   5.649   1.435   7.221 -0.3414  0.6923  0.3742
 3482ntf    fn419282   5.724   1.319   7.061  0.2807  0.2512 -0.1266
 3482ntf    fn419283   5.860   1.403   7.186 -0.3105 -0.3389  0.1874
 3482ntf    on519284   5.830   1.553   6.903 -0.1720  1.2926 -0.4479
 3482ntf    on519285   5.602   1.588   6.980  0.3689 -0.5929 -0.2152
 3482ntf    on519286   5.841   1.927   7.156 -0.0119  0.4866 -0.1399
 3482ntf    on519287   5.961   1.813   6.980 -0.3792  0.0519  0.0938
 3482ntf    fn419288   6.079   1.862   7.254  0.3475 -0.1155  0.0069
 3482ntf    fn419289   5.961   1.701   7.337  0.0128  0.0155  0.2947
 3482ntf    fn419290   6.097   1.660   7.177 -0.7069 -0.1498 -0.2633
 3483ntf    cn119291   4.280   4.858   0.421  0.1770 -0.1320 -0.2504
 3483ntf    sn219292   4.277   4.687   0.359  0.0274 -0.1695 -0.1374
 3483ntf    nn319293   4.139   4.693   0.284  0.0663 -0.7675 -0.2628
 3483ntf    sn219294   3.994   4.637   0.306 -0.0863 -0.1476  0.3383
 3483ntf    cn119295   3.993   4.489   0.200 -0.0641  0.2361 -0.2043
 3483ntf    fn419296   4.188   4.888   0.510  0.2833  0.2849 -0.2811
 3483ntf    fn419297   4.401   4.887   0.467  0.0870  0.1881 -0.2185
 3483ntf    fn419298   4.262   4.948   0.326  0.3571 -0.0409 -0.1986
 3483ntf    on519299   4.385   4.691   0.264  0.1701 -0.3556  0.0139
 3483ntf    on519300   4.284   4.599   0.473  0.2433 -0.2688 -0.2271
 3483ntf    on519301   3.892   4.723   0.251  0.2890 -0.0381 -0.1945
 3483ntf    on519302   3.975   4.597   0.443 -0.2074 -0.0155  0.3604
 3483ntf    fn419303   4.083   4.405   0.249 -0.2063  0.0193 -0.3122
 3483ntf    fn419304   3.873   4.432   0.198 -0.1253  0.3799 -0.6104
 3483ntf    fn419305   4.030   4.519   0.077  0.2080  0.5463 -0.0487
 3484ntf    cn119306   1.970   4.222   6.481  0.3406 -0.1568 -0.3590
 3484ntf    sn219307   2.073   4.320   6.594 -0.3037 -0.0977  0.1845
 3484ntf    nn319308   2.080   4.460   6.523  0.3059 -0.0891  0.2579
 3484ntf    sn219309   1.982   4.580   6.549  0.2609 -0.0608 -0.0402
 3484ntf    cn119310   2.103   4.707   6.500 -0.0426  0.2708  0.0579
 3484ntf    fn419311   1.997   4.093   6.495  0.4434 -0.0826  0.1301
 3484ntf    fn419312   1.839   4.236   6.499  0.4556  0.0809  0.3472
 3484ntf    fn419313   1.990   4.251   6.354 -0.1274 -0.5441 -0.5275
 3484ntf    on519314   2.000   4.327   6.718 -0.6884  0.6954 -0.0744
 3484ntf    on519315   2.203   4.259   6.597 -0.0562  0.3962 -0.2117
 3484ntf    on519316   1.946   4.615   6.685  0.3700  0.0325 -0.0346
 3484ntf    on519317   1.873   4.593   6.455  0.0207  0.2062  0.2678
 3484ntf    fn419318   2.156   4.684   6.380 -0.9226 -0.0552 -0.2781
 3484ntf    fn419319   2.071   4.835   6.491 -0.2312  0.2533  0.4813
 3484ntf    fn419320   2.202   4.696   6.587  0.2399 -0.1628 -0.3112
 3485ntf    cn119321   5.856   6.402   2.788 -0.1504 -0.2877 -0.1174
 3485ntf    sn219322   5.845   6.493   2.632  0.1880  0.1664  0.1227
 3485ntf    nn319323   5.702   6.454   2.583  0.1236 -0.3755  0.7359
 3485ntf    sn219324   5.571   6.540   2.595  0.1120 -0.2702 -0.0726
 3485ntf    cn119325   5.459   6.472   2.469  0.0166  0.2235 -0.2546
 3485ntf    fn419326   5.973   6.390   2.850 -0.3345 -0.3461  0.2219
 3485ntf    fn419327   5.772   6.457   2.874 -0.0749 -0.5797  0.1474
 3485ntf    fn419328   5.809   6.281   2.763  0.2533 -0.4158 -0.2702
 3485ntf    on519329   5.865   6.630   2.676  0.2322  0.0363  0.5115
 3485ntf    on519330   5.950   6.432   2.554 -0.2432 -0.0600 -0.2876
 3485ntf    on519331   5.597   6.674   2.550 -0.1832 -0.2390 -0.1528
 3485ntf    on519332   5.498   6.531   2.719  0.5930  0.2298  0.2532
 3485ntf    fn419333   5.413   6.354   2.506 -0.1276  0.3245 -0.1102
 3485ntf    fn419334   5.359   6.555   2.444 -0.3541 -0.0867  0.2028
 3485ntf    fn419335   5.525   6.463   2.354  0.2014 -0.2257 -0.1132
 3486ntf    cn119336   0.888   3.925   5.124 -0.3558 -0.3049 -0.2328
 3486ntf    sn219337   0.916   4.086   5.046 -0.0641 -0.3022 -0.1243
 3486ntf    nn319338   0.772   4.121   4.995  0.1180  0.2932 -0.2410
 3486ntf    sn219339   0.660   4.213   5.055 -0.1647 -0.0920 -0.1772
 3486ntf    cn119340   0.648   4.325   4.912  0.2188  0.3254  0.1156
 3486ntf    fn419341   0.784   3.914   5.205  0.2155 -0.5773  0.4861
 3486ntf    fn419342   0.880   3.830   5.032 -0.0843 -0.0793 -0.4886
 3486ntf    fn419343   0.994   3.885   5.193 -0.1539  0.7147  0.0613
 3486ntf    on519344   0.977   4.158   5.155 -0.5723 -0.0704  0.0083
 3486ntf    on519345   1.010   4.047   4.943 -0.4482  0.1197 -0.6395
 3486ntf    on519346   0.703   4.301   5.161  0.1799  0.2033 -0.5603
 3486ntf    on519347   0.529   4.151   5.058 -0.2359  0.0767  0.2372
 3486ntf    fn419348   0.733   4.426   4.916  0.3724  0.2050 -0.1114
 3486ntf    fn419349   0.688   4.257   4.806 -0.1201  0.4380 -0.0850
 3486ntf    fn419350   0.527   4.375   4.892  0.1033  0.0300  0.0627
 3487ntf    cn119351   2.456   0.151   5.893  0.3186 -0.0259 -0.3968
 3487ntf    sn219352   2.275   0.141   5.871  0.2825  0.1817 -0.1998
 3487ntf    nn319353   2.210   0.261   5.949  0.4980  0.2177 -0.0739
 3487ntf    sn219354   2.181   0.274   6.102  0.0770 -0.1004 -0.1247
 3487ntf    cn119355   2.001   0.248   6.101  0.0768 -0.1470  0.6028
 3487ntf    fn419356   2.516   0.055   5.824  0.0635 -0.2956 -0.2469
 3487ntf    fn419357   2.507   0.257   5.832  0.1580 -0.1476 -0.7481
 3487ntf    fn419358   2.506   0.165   6.014  0.2691  0.2244 -0.4054
 3487ntf    on519359   2.267   0.162   5.728  0.1835 -0.4821 -0.2963
 3487ntf    on519360   2.239   0.005   5.901  0.2382  0.0650 -0.7616
 3487ntf    on519361   2.198   0.407   6.154  0.2379  0.2300 -1.0196
 3487ntf    on519362   2.242   0.168   6.180 -0.1734 -0.3005 -0.2010
 3487ntf    fn419363   1.945   0.278   6.217 -0.1510  0.3177  0.3735
 3487ntf    fn419364   1.940   0.329   6.017  0.7229 -0.3341 -0.0584
 3487ntf    fn419365   1.970   0.126   6.061 -0.1824  0.0826  0.1057
 3488ntf    cn119366   3.587   3.448   2.800 -0.5162  0.1770  0.0332
 3488ntf    sn219367   3.693   3.303   2.776 -0.2229  0.3114  0.5115
 3488ntf    nn319368   3.807   3.377   2.698  0.0266 -0.4443  0.1454
 3488ntf    sn219369   3.953   3.324   2.675  0.2312  0.1763 -0.0099
 3488ntf    cn119370   4.044   3.436   2.786  0.2324 -0.0292  0.1953
 3488ntf    fn419371   3.481   3.422   2.874 -0.7262  0.0880 -0.2956
 3488ntf    fn419372   3.639   3.551   2.865 -0.2022  0.1928 -0.2391
 3488ntf    fn419373   3.545   3.499   2.685  0.1294 -0.2128 -0.3810
 3488ntf    on519374   3.716   3.266   2.914  0.3415 -0.8902  0.1131
 3488ntf    on519375   3.611   3.214   2.698 -0.3070  0.2690  0.6475
 3488ntf    on519376   4.005   3.358   2.545  0.0441  0.3734 -0.0342
 3488ntf    on519377   3.974   3.191   2.727  0.4369  0.2473  0.0874
 3488ntf    fn419378   4.014   3.564   2.773  0.0070 -0.0962  0.0477
 3488ntf    fn419379   4.012   3.400   2.910 -0.5116 -0.2932 -0.0674
 3488ntf    fn419380   4.175   3.432   2.773  0.2513  0.1802  0.3215
 3489ntf    cn119381   0.376   1.837   1.876  0.1162  0.1889 -0.2706
 3489ntf    sn219382   0.509   1.934   1.951 -0.0879  0.2800 -0.0252
 3489ntf    nn319383   0.446   1.965   2.092 -0.1551 -0.1349  0.0363
 3489ntf    sn219384   0.343   2.078   2.126  0.1440  0.2682 -0.3907
 3489ntf    cn119385   0.455   2.216   2.164  0.3163  0.0871 -0.2396
 3489ntf    fn419386   0.359   1.715   1.924 -0.1033  0.1129 -0.5365
 3489ntf    fn419387   0.258   1.897   1.889  0.3110  0.5213 -0.0440
 3489ntf    fn419388   0.397   1.822   1.746  0.1299  0.1234 -0.2610
 3489ntf    on519389   0.616   1.837   1.957 -0.4055 -0.0378  0.6105
 3489ntf    on519390   0.543   2.046   1.867  0.4585  0.3764  0.3159
 3489ntf    on519391   0.279   2.063   2.254  0.5570 -0.3428 -0.2520
 3489ntf    on519392   0.258   2.124   2.019 -0.0766  0.0501 -0.3096
 3489ntf    fn419393   0.537   2.233   2.061  0.1909  0.1552 -0.3276
 3489ntf    fn419394   0.388   2.328   2.188  0.3549  0.0930 -0.1556
 3489ntf    fn419395   0.532   2.205   2.272 -0.1736 -0.4568  0.0585
 3490ntf    cn119396   0.064   3.136   3.342 -0.0453 -0.6180  0.0624
 3490ntf    sn219397   0.228   3.158   3.418  0.0641 -0.0736 -0.3325
 3490ntf    nn319398   0.319   3.163   3.290  0.1003 -0.1468 -0.3096
 3490ntf    sn219399   0.448   3.250   3.268  0.0458  0.0303  0.0616
 3490ntf    cn119400   0.394   3.368   3.141  0.1798  0.0988  0.0677
 3490ntf    fn419401   0.029   3.011   3.315 -0.1272 -0.5871  0.0256
 3490ntf    fn419402  -0.033   3.169   3.425  0.0056  0.1527 -0.1764
 3490ntf    fn419403   0.056   3.207   3.231  0.0763 -0.4828  0.1402
 3490ntf    on519404   0.210   3.281   3.491  0.0326  0.1133 -0.6494
 3490ntf    on519405   0.253   3.038   3.493 -0.4463  0.0702  0.0732
 3490ntf    on519406   0.545   3.173   3.195 -0.0456  0.4303 -0.4886
 3490ntf    on519407   0.496   3.331   3.378  0.1058 -0.2704  0.2581
 3490ntf    fn419408   0.499   3.437   3.098  0.1998 -0.0400 -0.1088
 3490ntf    fn419409   0.343   3.320   3.029  0.3394 -0.5616  0.2714
 3490ntf    fn419410   0.311   3.445   3.209 -0.5403  0.3090 -1.0202
 3491ntf    cn119411   6.845   6.394   4.167 -0.2476 -0.3214 -0.0994
 3491ntf    sn219412   6.846   6.429   4.346  0.0261 -0.1047 -0.1435
 3491ntf    nn319413   6.714   6.507   4.378  0.2141 -0.1761  0.8360
 3491ntf    sn219414   6.576   6.462   4.437 -0.0202  0.0571  0.4726
 3491ntf    cn119415   6.565   6.599   4.557 -0.1191  0.2002  0.3016
 3491ntf    fn419416   6.726   6.340   4.143 -0.6191  0.4175  0.0458
 3491ntf    fn419417   6.850   6.504   4.094 -0.5022 -0.3795 -0.2045
 3491ntf    fn419418   6.936   6.303   4.138  0.4441  0.3279 -0.0001
 3491ntf    on519419   6.862   6.301   4.410 -0.3088 -0.2068 -0.2610
 3491ntf    on519420   6.956   6.522   4.350  0.3435 -0.4997  0.4012
 3491ntf    on519421   6.566   6.337   4.508 -0.5729  0.0763  0.4339
 3491ntf    on519422   6.464   6.484   4.349 -0.4413 -0.9611  0.7448
 3491ntf    fn419423   6.445   6.612   4.611 -0.0875 -0.1595  0.4622
 3491ntf    fn419424   6.645   6.583   4.661 -0.7285  0.1073  0.7620
 3491ntf    fn419425   6.598   6.713   4.498  0.1927 -0.0337  0.0155
 3492ntf    cn119426   6.573   3.027   4.610  0.1017 -0.1512  0.1734
 3492ntf    sn219427   6.719   3.021   4.502  0.1361  0.1768  0.2003
 3492ntf    nn319428   6.704   3.156   4.424  0.3741  0.0074 -0.1429
 3492ntf    sn219429   6.812   3.253   4.363  0.2636  0.3594  0.2143
 3492ntf    cn119430   6.853   3.367   4.499  0.3233  0.0181  0.4846
 3492ntf    fn419431   6.606   3.085   4.725  0.6430  0.7327 -0.4166
 3492ntf    fn419432   6.476   3.100   4.559 -0.1399 -0.0761  0.7281
 3492ntf    fn419433   6.534   2.903   4.631 -0.0103 -0.1694 -0.1395
 3492ntf    on519434   6.832   3.004   4.591  0.4347 -0.1041 -0.2285
 3492ntf    on519435   6.681   2.912   4.416 -0.2317  0.1786  0.3624
 3492ntf    on519436   6.761   3.343   4.262 -0.0213  0.2045  0.2200
 3492ntf    on519437   6.929   3.178   4.327 -0.3378 -0.0690 -0.9123
 3492ntf    fn419438   6.747   3.437   4.537  0.2816 -0.0916  0.5694
 3492ntf    fn419439   6.896   3.305   4.607  0.9949 -0.3566  0.0099
 3492ntf    fn419440   6.941   3.455   4.456 -0.0947  0.1283 -0.1601
 3493ntf    cn119441   2.531   0.942   6.827 -0.5735  0.2135  0.2983
 3493ntf    sn219442   2.657   1.051   6.899 -0.1614 -0.0361 -0.0399
 3493ntf    nn319443   2.563   1.110   7.010  0.5030  0.2708  0.3682
 3493ntf    sn219444   2.524   1.260   7.034 -0.2926  0.1222  0.0434
 3493ntf    cn119445   2.476   1.266   7.209 -0.0605  0.2137  0.1044
 3493ntf    fn419446   2.429   1.008   6.775 -0.4673 -0.0362 -0.2331
 3493ntf    fn419447   2.583   0.880   6.722 -0.2353  0.0627  0.5519
 3493ntf    fn419448   2.486   0.851   6.912  0.0641  0.0498  0.4654
 3493ntf    on519449   2.767   0.963   6.930 -0.1070 -0.0834 -0.3638
 3493ntf    on519450   2.674   1.140   6.787 -0.3301 -0.0210 -0.0532
 3493ntf    on519451   2.407   1.294   6.957 -0.4600 -0.4179  0.0600
 3493ntf    on519452   2.642   1.344   7.026 -0.2201 -0.0571 -0.8595
 3493ntf    fn419453   2.555   1.195   7.288  0.1290 -0.2119 -0.4580
 3493ntf    fn419454   2.490   1.389   7.256  0.1599  0.2765 -0.1224
 3493ntf    fn419455   2.351   1.229   7.228 -0.0389  0.2437  0.3073
 3494ntf    cn119456   6.989   1.157   0.613 -0.1552 -0.3604 -0.3251
 3494ntf    sn219457   6.958   1.289   0.734  0.0246 -0.4991 -0.1259
 3494ntf    nn319458   6.817   1.340   0.686  0.1066 -0.1867 -0.0388
 3494ntf    sn219459   6.672   1.315   0.740 -0.0761  0.0846 -0.3996
 3494ntf    cn119460   6.654   1.448   0.862 -0.0639 -0.0230 -0.2801
 3494ntf    fn419461   7.108   1.103   0.636 -0.3745 -0.7676 -0.1449
 3494ntf    fn419462   6.901   1.059   0.627 -0.1172 -0.3801 -0.2222
 3494ntf    fn419463   6.985   1.204   0.490  0.2239 -0.3247 -0.3260
 3494ntf    on519464   6.977   1.219   0.859 -0.1101 -0.0437  0.1550
 3494ntf    on519465   7.051   1.394   0.703 -0.1868 -0.1924  0.2731
 3494ntf    on519466   6.662   1.189   0.811  0.0237  0.3207  0.0380
 3494ntf    on519467   6.564   1.339   0.648 -0.3469 -0.3250 -0.1939
 3494ntf    fn419468   6.600   1.560   0.817 -0.1295 -0.1922 -0.6267
 3494ntf    fn419469   6.589   1.400   0.967 -0.2853  0.3328 -0.2509
 3494ntf    fn419470   6.772   1.484   0.908  0.1194 -0.0063 -0.7661
 3495ntf    cn119471   0.136   4.580   6.661 -0.1368 -0.0055 -0.2724
 3495ntf    sn219472   0.260   4.712   6.668  0.2532 -0.3576 -0.5122
 3495ntf    nn319473   0.308   4.701   6.817  0.5882  0.2325 -0.5726
 3495ntf    sn219474   0.409   4.599   6.879  0.1257  0.0907 -0.0394
 3495ntf    cn119475   0.558   4.701   6.903  0.1560 -0.0594  0.4272
 3495ntf    fn419476   0.192   4.461   6.674 -0.2280 -0.0665 -0.4188
 3495ntf    fn419477   0.050   4.582   6.761 -0.3763  0.6589 -0.4791
 3495ntf    fn419478   0.065   4.572   6.549  0.0191 -0.0353 -0.3690
 3495ntf    on519479   0.360   4.694   6.565  0.3420 -0.1402 -0.4643
 3495ntf    on519480   0.200   4.842   6.650  0.5532 -0.1375  0.0626
 3495ntf    on519481   0.448   4.492   6.791  0.0711  0.0175  0.0251
 3495ntf    on519482   0.378   4.567   7.016  0.1412 -0.3390 -0.1336
 3495ntf    fn419483   0.659   4.631   6.954  0.1767  0.2383  0.7984
 3495ntf    fn419484   0.599   4.736   6.782  0.3549  0.2139  0.5723
 3495ntf    fn419485   0.532   4.816   6.962  0.2108  0.0438  0.2525
 3496ntf    cn119486   3.982   6.791   0.565 -0.0958  0.1318 -0.4941
 3496ntf    sn219487   3.830   6.847   0.647 -0.0673 -0.4133 -0.0702
 3496ntf    nn319488   3.724   6.789   0.547 -0.3078  0.1123 -0.1216
 3496ntf    sn219489   3.684   6.838   0.403  0.0304  0.1890 -0.1922
 3496ntf    cn119490   3.503   6.829   0.422  0.0913  0.0861  0.3707
 3496ntf    fn419491   3.981   6.807   0.433  0.0932  0.3830 -0.4664
 3496ntf    fn419492   4.087   6.850   0.620  0.1852 -0.1146 -0.7569
 3496ntf    fn419493   4.002   6.660   0.572 -0.5626  0.0891  0.0310
 3496ntf    on519494   3.836   6.769   0.769  0.6074 -0.0888  0.1128
 3496ntf    on519495   3.854   6.989   0.647  0.4719 -0.4996  0.4193
 3496ntf    on519496   3.711   6.744   0.297  0.2236  0.0669 -0.0342
 3496ntf    on519497   3.707   6.978   0.377  0.3552  0.1405 -0.1660
 3496ntf    fn419498   3.434   6.853   0.311  0.2101 -0.1216  0.2501
 3496ntf    fn419499   3.465   6.708   0.460  0.2985  0.0623  0.4999
 3496ntf    fn419500   3.459   6.917   0.510 -0.3356  0.4250 -0.1773
 3497ntf    cn119501   5.960   3.724   5.096 -0.0430 -0.1959  0.0438
 3497ntf    sn219502   6.042   3.883   5.064 -0.0947 -0.1863 -0.0418
 3497ntf    nn319503   6.194   3.846   5.074 -0.0581 -0.0432 -0.0716
 3497ntf    sn219504   6.289   3.908   5.182 -0.1392 -0.0470  0.0025
 3497ntf    cn119505   6.449   3.876   5.102 -0.3251  0.0539 -0.4132
 3497ntf    fn419506   5.994   3.682   5.217  0.4185 -0.2784 -0.1127
 3497ntf    fn419507   5.828   3.723   5.110 -0.0835  0.0608 -0.2953
 3497ntf    fn419508   5.987   3.627   5.009 -0.0631  0.1581 -0.3589
 3497ntf    on519509   5.992   3.908   4.931 -0.4082 -0.3950  0.0345
 3497ntf    on519510   5.992   3.962   5.173 -0.3002  0.1868 -0.4070
 3497ntf    on519511   6.297   3.838   5.308 -0.0825  0.5098  0.3100
 3497ntf    on519512   6.303   4.051   5.181  0.3665 -0.0880  0.5406
 3497ntf    fn419513   6.464   3.917   4.977  0.1801 -0.0858 -0.4003
 3497ntf    fn419514   6.545   3.926   5.178 -0.6949  0.2592 -0.0777
 3497ntf    fn419515   6.471   3.746   5.098  0.0638  0.1188 -0.5147
 3498ntf    cn119516   2.078   4.395   1.036  0.3102  0.4887 -0.0011
 3498ntf    sn219517   2.249   4.395   1.098  0.3533 -0.1559 -0.1180
 3498ntf    nn319518   2.235   4.451   1.244  0.4370 -0.2513 -0.0736
 3498ntf    sn219519   2.203   4.370   1.375 -0.0684 -0.1065 -0.1053
 3498ntf    cn119520   2.373   4.330   1.429 -0.1508 -0.1230  0.1449
 3498ntf    fn419521   2.065   4.329   0.922 -0.0744 -0.3316  0.5118
 3498ntf    fn419522   1.983   4.341   1.111  0.3388  0.3705 -0.0499
 3498ntf    fn419523   2.044   4.521   1.012 -0.1485  0.1946 -0.9316
 3498ntf    on519524   2.301   4.262   1.080  0.2578 -0.1759 -0.2494
 3498ntf    on519525   2.325   4.492   1.024 -0.0210  0.0252 -0.2685
 3498ntf    on519526   2.134   4.245   1.357 -0.1866 -0.0240 -0.2162
 3498ntf    on519527   2.152   4.458   1.477  0.1328 -0.1875  0.0679
 3498ntf    fn419528   2.385   4.220   1.500  0.6217 -0.0232  0.1716
 3498ntf    fn419529   2.455   4.308   1.327  0.1528  0.6025  0.2255
 3498ntf    fn419530   2.418   4.428   1.506  0.1340 -0.1670  0.0350
 3499ntf    cn119531   5.520   2.960   1.623 -0.2267  0.2201  0.2974
 3499ntf    sn219532   5.672   2.862   1.632 -0.1658  0.2994  0.1529
 3499ntf    nn319533   5.647   2.774   1.759  0.1498  0.0509  0.0459
 3499ntf    sn219534   5.629   2.618   1.774 -0.3953  0.0931 -0.1656
 3499ntf    cn119535   5.556   2.609   1.940 -0.0319  0.4392  0.0162
 3499ntf    fn419536   5.497   3.033   1.731 -0.0771  0.3735  0.2260
 3499ntf    fn419537   5.517   3.043   1.520  0.4891  0.1978  0.2554
 3499ntf    fn419538   5.415   2.881   1.607  0.3209 -0.3519 -0.4905
 3499ntf    on519539   5.677   2.781   1.513 -0.0490 -0.2230  0.5109
 3499ntf    on519540   5.773   2.963   1.654  0.3823 -0.1264 -0.3536
 3499ntf    on519541   5.748   2.538   1.780 -0.5170 -0.0260  0.7503
 3499ntf    on519542   5.521   2.563   1.695 -0.5805  0.7988 -0.4204
 3499ntf    fn419543   5.634   2.656   2.035 -0.0869  0.0696  0.2485
 3499ntf    fn419544   5.452   2.691   1.947 -0.0513  0.4040  0.1340
 3499ntf    fn419545   5.525   2.485   1.976 -0.7098  0.4391 -0.5443
 3500ntf    cn119546   1.671   3.409   2.599 -0.1476  0.1739  0.0318
 3500ntf    sn219547   1.519   3.505   2.626 -0.3393 -0.1011 -0.0639
 3500ntf    nn319548   1.416   3.388   2.607 -0.5427  0.0301  0.2201
 3500ntf    sn219549   1.335   3.339   2.482 -0.0651 -0.2907  0.0329
 3500ntf    cn119550   1.185   3.273   2.559 -0.0785  0.2395  0.4704
 3500ntf    fn419551   1.780   3.484   2.593 -0.0600 -0.0191 -0.9881
 3500ntf    fn419552   1.699   3.314   2.688  0.1352  0.4110  0.1967
 3500ntf    fn419553   1.668   3.354   2.479  0.2099 -0.7293  0.4246
 3500ntf    on519554   1.535   3.535   2.767  0.1611 -0.2733 -0.0805
 3500ntf    on519555   1.527   3.613   2.532  0.3635  0.0699  0.1820
 3500ntf    on519556   1.391   3.224   2.415  0.2904 -0.4608  0.6110
 3500ntf    on519557   1.285   3.449   2.402  0.0958  0.0896  0.4493
 3500ntf    fn419558   1.125   3.372   2.623  0.0608  0.6616 -0.0404
 3500ntf    fn419559   1.102   3.220   2.470 -0.1787  0.2664  0.5480
 3500ntf    fn419560   1.214   3.187   2.655 -0.5562 -0.5018 -0.0404
 3501ntf    cn119561   6.976   3.977   1.316 -0.5132 -0.2817  0.4038
 3501ntf    sn219562   6.957   4.021   1.491  0.2011 -0.1910  0.4593
 3501ntf    nn319563   7.111   4.034   1.521  0.1819  0.1393  0.4120
 3501ntf    sn219564   7.200   4.163   1.516  0.2337  0.0784 -0.2464
 3501ntf    cn119565   7.356   4.100   1.584 -0.0496 -0.2846  0.0660
 3501ntf    fn419566   7.045   3.867   1.292  0.3008  0.3083 -0.0274
 3501ntf    fn419567   6.859   3.959   1.256 -0.4507 -0.2569  0.2728
 3501ntf    fn419568   7.042   4.075   1.256 -0.5828 -0.2206  0.4272
 3501ntf    on519569   6.873   4.138   1.486 -0.1530 -0.4701 -0.2778
 3501ntf    on519570   6.898   3.904   1.552  0.1619 -0.3418  0.1349
 3501ntf    on519571   7.178   4.263   1.617 -0.5018 -0.4252  0.0959
 3501ntf    on519572   7.238   4.217   1.387  0.2819  0.0720 -0.2353
 3501ntf    fn419573   7.404   3.994   1.521 -0.0452 -0.4411  0.3291
 3501ntf    fn419574   7.451   4.193   1.583 -0.3259  0.0050  0.4096
 3501ntf    fn419575   7.350   4.053   1.708  0.3284 -0.2656  0.0946
 3502ntf    cn119576   0.968   2.471   5.856 -0.2141 -0.1536  0.0047
 3502ntf    sn219577   1.026   2.496   6.026  0.0804 -0.0622 -0.1096
 3502ntf    nn319578   1.176   2.538   6.005  0.0889 -0.0458 -0.0184
 3502ntf    sn219579   1.241   2.664   6.073 -0.2660  0.1943 -0.1220
 3502ntf    cn119580   1.411   2.648   6.012 -0.0846 -0.0095  0.4365
 3502ntf    fn419581   1.000   2.351   5.811 -0.0964  0.0270 -0.3966
 3502ntf    fn419582   0.836   2.478   5.851 -0.2145 -0.0587  0.1513
 3502ntf    fn419583   1.014   2.557   5.767 -0.1764 -0.0725  0.1036
 3502ntf    on519584   0.944   2.602   6.080 -0.4441 -0.6452  0.2419
 3502ntf    on519585   1.017   2.367   6.089 -0.6361 -0.1773 -0.4444
 3502ntf    on519586   1.259   2.648   6.215 -0.3367  0.1697 -0.1152
 3502ntf    on519587   1.190   2.789   6.023 -0.2518  0.3650  0.2854
 3502ntf    fn419588   1.413   2.620   5.883 -0.0908  0.3538  0.3552
 3502ntf    fn419589   1.485   2.755   6.039  0.4304 -0.1368 -0.4427
 3502ntf    fn419590   1.476   2.547   6.067  0.0326  0.1509  0.5976
 3503ntf    cn119591   6.149   7.149   4.485  0.2196 -0.4093 -0.3798
 3503ntf    sn219592   6.070   7.135   4.322  0.1445  0.0171 -0.3808
 3503ntf    nn319593   5.963   7.249   4.330  0.1640 -0.0062  0.2328
 3503ntf    sn219594   5.832   7.255   4.416 -0.1355  0.3625 -0.2431
 3503ntf    cn119595   5.710   7.305   4.290 -0.1399  0.1399 -0.3263
 3503ntf    fn419596   6.062   7.136   4.583  0.3792  0.4694 -0.1138
 3503ntf    fn419597   6.246   7.061   4.507  0.2778 -0.1642  0.3651
 3503ntf    fn419598   6.202   7.268   4.510  0.0996 -0.3908 -0.2126
 3503ntf    on519599   6.188   7.172   4.247 -0.0522  0.3540 -0.5277
 3503ntf    on519600   6.021   7.001   4.304 -0.2515  0.1839 -0.5541
 3503ntf    on519601   5.846   7.370   4.502  0.4171  0.3485 -0.3118
 3503ntf    on519602   5.784   7.131   4.471 -0.1495  0.4856  0.0231
 3503ntf    fn419603   5.703   7.213   4.196  0.0101  0.2371 -0.4338
 3503ntf    fn419604   5.587   7.316   4.337  0.1109  0.0962  0.3585
 3503ntf    fn419605   5.743   7.417   4.229  0.3419 -0.0187 -0.3684
 3504ntf    cn119606   1.625   6.350   5.993 -0.0026 -0.2648 -0.0186
 3504ntf    sn219607   1.729   6.273   6.121 -0.3891 -0.3780  0.2308
 3504ntf    nn319608   1.750   6.132   6.055  0.1859 -0.0712 -0.2501
 3504ntf    sn219609   1.828   6.096   5.924 -0.0387 -0.6928 -0.2121
 3504ntf    cn119610   1.687   6.066   5.813 -0.1875 -0.0803 -0.1873
 3504ntf    fn419611   1.531   6.260   5.968  0.3191 -0.6422  0.1110
 3504ntf    fn419612   1.567   6.463   6.032 -0.1715 -0.2214 -0.3951
 3504ntf    fn419613   1.696   6.370   5.884  0.0642 -0.0205  0.0694
 3504ntf    on519614   1.843   6.361   6.131 -0.3780 -0.3860  0.1774
 3504ntf    on519615   1.649   6.263   6.241 -1.0490  0.8133 -0.0895
 3504ntf    on519616   1.897   5.970   5.934  0.5852 -0.3312  0.0612
 3504ntf    on519617   1.899   6.203   5.859 -0.3262 -0.5409 -0.2765
 3504ntf    fn419618   1.587   5.998   5.866 -0.5446  0.2875 -0.3771
 3504ntf    fn419619   1.622   6.169   5.760  0.2334  0.1230 -0.3114
 3504ntf    fn419620   1.720   5.997   5.705  0.0744 -0.0384 -0.1350
 3505ntf    cn119621   4.963   1.837   3.447 -0.2636 -0.5143 -0.0685
 3505ntf    sn219622   4.917   1.952   3.314 -0.2095 -0.2992  0.0978
 3505ntf    nn319623   5.017   2.070   3.341  0.1537 -0.7949  0.9580
 3505ntf    sn219624   5.164   2.096   3.292 -0.2468 -0.2271  0.0298
 3505ntf    cn119625   5.128   2.182   3.136  0.0445 -0.0631  0.0526
 3505ntf    fn419626   4.887   1.729   3.451 -0.8039 -0.1257  0.4187
 3505ntf    fn419627   5.083   1.787   3.424  0.0113  0.1134 -0.0156
 3505ntf    fn419628   4.961   1.888   3.569  0.4936 -0.1316 -0.2045
 3505ntf    on519629   4.931   1.891   3.184 -0.3656  0.5314 -0.3146
 3505ntf    on519630   4.783   1.990   3.351  0.0228  0.3777  0.2560
 3505ntf    on519631   5.234   1.978   3.249  0.1996 -0.0448  0.2522
 3505ntf    on519632   5.232   2.190   3.377 -0.1936 -0.5888  0.3930
 3505ntf    fn419633   5.029   2.270   3.142 -0.1028 -0.2013 -0.3183
 3505ntf    fn419634   5.222   2.250   3.072  0.2930 -0.3124  0.1460
 3505ntf    fn419635   5.084   2.096   3.045 -0.1969 -0.0642  0.1694
 3506ntf    cn119636   3.597   1.093   1.727  0.0234 -0.3032 -0.5862
 3506ntf    sn219637   3.447   1.196   1.737  0.2806 -0.0018  0.2366
 3506ntf    nn319638   3.356   1.132   1.626  0.0417  0.4102  0.1956
 3506ntf    sn219639   3.199   1.124   1.625  0.0704 -0.1690  0.1318
 3506ntf    cn119640   3.169   0.961   1.700 -0.2887 -0.1558  0.0192
 3506ntf    fn419641   3.675   1.098   1.833 -0.7032 -0.7284 -0.0218
 3506ntf    fn419642   3.575   0.964   1.710 -0.0846 -0.4323  0.4870
 3506ntf    fn419643   3.679   1.128   1.629  0.5758  0.0628 -0.0013
 3506ntf    on519644   3.392   1.169   1.867  0.1337 -0.2918  0.1160
 3506ntf    on519645   3.485   1.329   1.697 -0.2000 -0.0090 -0.2564
 3506ntf    on519646   3.145   1.101   1.493  0.0979  0.4876  0.0044
 3506ntf    on519647   3.132   1.214   1.715  0.4774  0.2759 -0.0056
 3506ntf    fn419648   3.177   0.856   1.620 -0.0124  0.2146 -0.4432
 3506ntf    fn419649   3.241   0.953   1.811 -0.4776 -0.1497  0.1434
 3506ntf    fn419650   3.043   0.958   1.739 -0.3892  0.2594 -0.2678
 3507ntf    cn119651   2.704   1.778   5.635  0.2762 -0.2174  0.1847
 3507ntf    sn219652   2.621   1.934   5.674  0.2493 -0.2438  0.2324
 3507ntf    nn319653   2.750   2.021   5.696 -0.0456  0.3986 -0.5040
 3507ntf    sn219654   2.794   2.112   5.816  0.2634  0.2292 -0.4877
 3507ntf    cn119655   2.927   2.014   5.891 -0.1618  0.1332  0.1413
 3507ntf    fn419656   2.809   1.800   5.557 -0.0460 -0.1573 -0.2302
 3507ntf    fn419657   2.745   1.711   5.741 -0.3052 -0.8996 -0.0114
 3507ntf    fn419658   2.613   1.702   5.576 -0.3292  0.8984 -0.3341
 3507ntf    on519659   2.547   1.959   5.553 -0.0931 -0.3640  0.4152
 3507ntf    on519660   2.543   1.903   5.791 -0.0960 -0.4551 -0.0518
 3507ntf    on519661   2.701   2.137   5.923  0.2602  0.2938 -0.5054
 3507ntf    on519662   2.868   2.229   5.773  0.0290  0.3702 -0.5092
 3507ntf    fn419663   2.972   2.057   6.008 -1.0638 -0.1814  0.6210
 3507ntf    fn419664   2.895   1.889   5.922  0.0554  0.0737  0.1278
 3507ntf    fn419665   3.030   1.997   5.810  0.0497  0.4575  0.3427
 3508ntf    cn119666   1.333   5.086   1.925 -0.1603 -0.1571 -0.4256
 3508ntf    sn219667   1.284   5.005   1.770  0.5455 -0.3651 -0.5446
 3508ntf    nn319668   1.220   5.128   1.697  0.6120  0.0395  0.0697
 3508ntf    sn219669   1.284   5.243   1.613 -0.0151  0.1809 -0.2202
 3508ntf    cn119670   1.222   5.197   1.448 -0.3153  0.0490 -0.0709
 3508ntf    fn419671   1.432   5.032   1.996 -0.1194  0.3004 -0.1292
 3508ntf    fn419672   1.358   5.213   1.898 -0.2187  0.0578  0.5044
 3508ntf    fn419673   1.229   5.094   2.006  0.2979  0.5754  0.1060
 3508ntf    on519674   1.412   4.952   1.728  0.5261 -0.3792 -0.5859
 3508ntf    on519675   1.184   4.915   1.822 -0.0027  0.2099 -0.5934
 3508ntf    on519676   1.427   5.248   1.600  0.0473 -0.3768  0.2286
 3508ntf    on519677   1.207   5.362   1.642 -0.7511 -0.2804 -0.2497
 3508ntf    fn419678   1.256   5.281   1.352 -0.4225 -0.1595 -0.2914
 3508ntf    fn419679   1.259   5.075   1.414  0.3422  0.1389  0.3129
 3508ntf    fn419680   1.090   5.195   1.458 -0.2639 -0.6650  0.5454
 3509ntf    cn119681   6.618   2.465   0.442 -0.2285 -0.0188 -0.1091
 3509ntf    sn219682   6.441   2.504   0.428 -0.2051  0.2325  0.2612
 3509ntf    nn319683   6.379   2.425   0.548  0.1609 -0.0494  0.2644
 3509ntf    sn219684   6.412   2.435   0.701 -0.2772  0.0454  0.3536
 3509ntf    cn119685   6.250   2.493   0.760 -0.5028  0.1339 -0.3382
 3509ntf    fn419686   6.629   2.339   0.403 -0.1580 -0.0410 -0.0197
 3509ntf    fn419687   6.707   2.535   0.373 -0.4810  0.0254 -0.3886
 3509ntf    fn419688   6.664   2.477   0.566 -0.1368  0.0034 -0.1452
 3509ntf    on519689   6.423   2.646   0.447  0.0621  0.3419 -0.2777
 3509ntf    on519690   6.404   2.452   0.299 -0.3566  0.3190  0.2698
 3509ntf    on519691   6.502   2.539   0.745 -0.2984  0.1579  0.1298
 3509ntf    on519692   6.434   2.310   0.770  0.3532 -0.0118  0.0532
 3509ntf    fn419693   6.266   2.572   0.866  0.2048  0.0703 -0.3905
 3509ntf    fn419694   6.179   2.564   0.674 -0.3121  0.2967 -0.3628
 3509ntf    fn419695   6.171   2.395   0.798  0.1983 -0.1831  0.3514
 3510ntf    cn119696   0.055   6.852   6.234  0.3189 -0.1567  0.1110
 3510ntf    sn219697   0.189   6.933   6.142  0.2014  0.2427  0.2921
 3510ntf    nn319698   0.274   6.811   6.094 -0.0716  0.0660  0.2549
 3510ntf    sn219699   0.411   6.756   6.148  0.1731 -0.0456 -0.4769
 3510ntf    cn119700   0.401   6.586   6.084  0.0262 -0.1556 -0.1648
 3510ntf    fn419701  -0.011   6.767   6.157 -0.1205  0.5918 -0.3375
 3510ntf    fn419702   0.096   6.779   6.337 -0.5430 -0.0660  0.5366
 3510ntf    fn419703  -0.035   6.938   6.280  0.4836  0.2158 -0.2662
 3510ntf    on519704   0.126   7.012   6.039  0.6873  0.4472  0.1519
 3510ntf    on519705   0.250   7.012   6.246  0.0306 -0.6195  1.0571
 3510ntf    on519706   0.412   6.749   6.292  0.4564  0.4751 -0.4514
 3510ntf    on519707   0.522   6.815   6.077 -0.1552  0.9501 -0.1712
 3510ntf    fn419708   0.294   6.519   6.123  0.1708 -0.0789  0.3632
 3510ntf    fn419709   0.404   6.590   5.952 -0.0384  0.6504 -0.1413
 3510ntf    fn419710   0.504   6.517   6.132 -0.3585 -0.4647  0.2280
 3511ntf    cn119711   5.068   4.433   6.872 -0.1173  0.0238 -0.2247
 3511ntf    sn219712   5.017   4.331   7.013  0.2876 -0.0374 -0.1205
 3511ntf    nn319713   4.870   4.282   6.984  0.2670  0.1564 -0.3457
 3511ntf    sn219714   4.826   4.157   6.899  0.1505 -0.2541  0.3159
 3511ntf    cn119715   4.793   4.045   7.038 -0.2859 -0.1553  0.2948
 3511ntf    fn419716   5.020   4.556   6.889 -0.2265 -0.1235  0.5686
 3511ntf    fn419717   5.197   4.459   6.856 -0.1822  0.1551 -0.5510
 3511ntf    fn419718   5.012   4.389   6.760 -0.6439 -0.2168  0.1303
 3511ntf    on519719   5.101   4.214   7.025  0.0756 -0.1911 -0.1131
 3511ntf    on519720   5.022   4.421   7.125  0.8624 -0.2159 -0.0002
 3511ntf    on519721   4.922   4.089   6.816  0.0910 -0.0249  0.0579
 3511ntf    on519722   4.693   4.178   6.847  0.1480 -0.2991  0.3044
 3511ntf    fn419723   4.700   4.079   7.126 -0.5456 -0.4829  0.1458
 3511ntf    fn419724   4.749   3.926   6.999 -0.1947 -0.0041 -0.2717
 3511ntf    fn419725   4.894   4.024   7.122 -0.3526 -0.2621  0.3496
 3512ntf    cn119726   4.439   2.737   5.275 -0.0714 -0.2084  0.2611
 3512ntf    sn219727   4.592   2.747   5.178 -0.2910  0.1540 -0.0519
 3512ntf    nn319728   4.658   2.879   5.231  0.2758 -0.0251 -0.3063
 3512ntf    sn219729   4.796   2.897   5.305  0.2517 -0.2659 -0.2030
 3512ntf    cn119730   4.917   2.882   5.171  0.5831  0.3939  0.0195
 3512ntf    fn419731   4.456   2.771   5.401  0.5424  0.4426  0.0079
 3512ntf    fn419732   4.348   2.818   5.223  0.2085  0.1352  0.3069
 3512ntf    fn419733   4.392   2.613   5.276  0.1433 -0.2906  0.2412
 3512ntf    on519734   4.666   2.625   5.201 -0.0731  0.2551 -0.2108
 3512ntf    on519735   4.547   2.773   5.044  0.6176  0.6474 -0.2730
 3512ntf    on519736   4.823   2.801   5.409  0.1116 -0.4070 -0.2952
 3512ntf    on519737   4.821   3.035   5.340  0.0309 -0.2966  0.0839
 3512ntf    fn419738   4.920   2.990   5.095 -0.5554  0.2153 -0.2896
 3512ntf    fn419739   5.038   2.864   5.223  0.3949  0.4216  0.4703
 3512ntf    fn419740   4.890   2.779   5.093  0.0847  0.6581 -0.1576
 3513ntf    cn119741   3.175   6.932   0.050  0.1360  0.0307  0.1046
 3513ntf    sn219742   3.112   7.070   0.150 -0.1639  0.0579 -0.1208
 3513ntf    nn319743   3.146   7.009   0.291 -0.3006  0.9212  0.2955
 3513ntf    sn219744   3.060   6.916   0.384  0.4201  0.0878  0.1468
 3513ntf    cn119745   3.023   7.033   0.518 -0.0259  0.1471 -0.0266
 3513ntf    fn419746   3.307   6.935   0.054  0.1279 -0.0784  0.5593
 3513ntf    fn419747   3.141   6.813   0.098 -0.4222  0.1732  0.0696
 3513ntf    fn419748   3.141   6.931  -0.078  0.0573 -0.9506  0.1243
 3513ntf    on519749   3.195   7.181   0.113 -0.1064 -0.0736 -0.3849
 3513ntf    on519750   2.971   7.080   0.120 -0.1440  0.4795 -0.0760
 3513ntf    on519751   3.139   6.817   0.453 -0.0451 -0.3805  0.0060
 3513ntf    on519752   2.925   6.880   0.347  0.5002 -0.3589  0.2824
 3513ntf    fn419753   3.128   7.055   0.595 -0.2322  0.0130  0.2941
 3513ntf    fn419754   2.992   7.154   0.472 -0.6639  0.0131  0.0362
 3513ntf    fn419755   2.913   6.995   0.581 -0.1479 -0.1026 -0.3855
 3514ntf    cn119756   3.757   5.741   5.640 -0.7747 -0.7861 -0.0871
 3514ntf    sn219757   3.856   5.627   5.538 -0.2686 -0.2942 -0.1469
 3514ntf    nn319758   4.003   5.682   5.536 -0.0430 -0.8832  0.0249
 3514ntf    sn219759   4.113   5.662   5.647  0.2217  0.0540 -0.0565
 3514ntf    cn119760   4.174   5.499   5.595 -0.3267 -0.1549 -0.0508
 3514ntf    fn419761   3.774   5.743   5.771 -0.0386 -0.5882 -0.1829
 3514ntf    fn419762   3.764   5.868   5.605 -0.3273 -0.9016 -0.4246
 3514ntf    fn419763   3.630   5.703   5.632 -0.7796 -0.8506  0.3133
 3514ntf    on519764   3.840   5.498   5.600 -0.7843 -0.0777  0.1760
 3514ntf    on519765   3.801   5.643   5.405  0.0327  0.1212 -0.2264
 3514ntf    on519766   4.060   5.653   5.780 -0.3352  0.2325 -0.2622
 3514ntf    on519767   4.229   5.746   5.632  0.0161  0.2693 -0.4738
 3514ntf    fn419768   4.083   5.405   5.619 -0.0906 -0.4351 -0.2547
 3514ntf    fn419769   4.188   5.498   5.463  0.5726 -0.2874  0.0398
 3514ntf    fn419770   4.292   5.463   5.643 -0.1492 -0.2281 -0.5336
 3515ntf    cn119771   7.197   5.089   1.161  0.0908 -0.0077  0.0368
 3515ntf    sn219772   7.221   5.174   1.320  0.2384  0.1402 -0.0638
 3515ntf    nn319773   7.106   5.281   1.308  0.1295  0.0555  0.2225
 3515ntf    sn219774   6.953   5.268   1.342  0.0898  0.0721  0.0468
 3515ntf    cn119775   6.960   5.332   1.512 -0.1210 -0.1126  0.1252
 3515ntf    fn419776   7.261   5.144   1.058 -0.4701  0.4322 -0.0814
 3515ntf    fn419777   7.237   4.964   1.173  0.3354  0.1161  0.5439
 3515ntf    fn419778   7.071   5.080   1.122  0.0895  0.2761 -0.0326
 3515ntf    on519779   7.209   5.073   1.422 -0.6771 -0.3054 -0.6034
 3515ntf    on519780   7.343   5.251   1.318 -0.1193  0.7286  0.1931
 3515ntf    on519781   6.902   5.135   1.361  0.2253  0.0358  0.1648
 3515ntf    on519782   6.870   5.365   1.276 -0.2264 -0.4775 -0.3634
 3515ntf    fn419783   6.851   5.398   1.547  0.2010  0.3761  0.2083
 3515ntf    fn419784   6.982   5.230   1.593 -0.1376 -0.2795 -0.0786
 3515ntf    fn419785   7.066   5.410   1.525 -0.3065  0.2649 -0.5885
 3516ntf    cn119786   1.601   4.100   4.187 -0.0688 -0.1037 -0.0229
 3516ntf    sn219787   1.601   4.205   4.039 -0.1453 -0.1837 -0.0800
 3516ntf    nn319788   1.737   4.279   4.068 -0.5574  0.4204  0.3323
 3516ntf    sn219789   1.764   4.419   4.133 -0.6844  0.5742  0.0545
 3516ntf    cn119790   1.918   4.474   4.055 -0.3326 -0.3119  0.1160
 3516ntf    fn419791   1.622   4.168   4.299  0.3568 -0.5698  0.1793
 3516ntf    fn419792   1.481   4.045   4.205  0.0638 -0.2764  0.3431
 3516ntf    fn419793   1.696   4.009   4.183  0.0691  0.0378  0.0247
 3516ntf    on519794   1.623   4.116   3.928  0.2232 -0.2053  0.0084
 3516ntf    on519795   1.480   4.282   4.050  0.1223  0.1930  0.2724
 3516ntf    on519796   1.811   4.398   4.268  0.0188 -0.2117 -0.3040
 3516ntf    on519797   1.667   4.525   4.114 -0.2434  0.9201 -0.2836
 3516ntf    fn419798   2.029   4.402   4.061 -0.1340 -0.0068  0.1464
 3516ntf    fn419799   1.903   4.476   3.923 -0.7956  0.3365  0.1765
 3516ntf    fn419800   1.955   4.598   4.083 -0.2202 -0.2848 -0.1519
 3517ntf    cn119801   1.189   3.214   3.080 -0.0850  0.2482 -0.1072
 3517ntf    sn219802   1.143   3.106   3.219  0.0468  0.0633 -0.2066
 3517ntf    nn319803   1.191   2.967   3.163  0.1530  0.0091  0.0163
 3517ntf    sn219804   1.306   2.874   3.214  0.0505 -0.0802  0.0858
 3517ntf    cn119805   1.402   2.847   3.062  0.0273 -0.1121  0.0769
 3517ntf    fn419806   1.183   3.155   2.962 -0.5621 -0.2712  0.1693
 3517ntf    fn419807   1.124   3.329   3.075  0.4294  0.5273 -0.4578
 3517ntf    fn419808   1.316   3.250   3.084  0.1216 -0.5097  0.3766
 3517ntf    on519809   1.209   3.167   3.331  0.2289 -0.1272 -0.2109
 3517ntf    on519810   0.999   3.120   3.210  0.0704 -0.1271 -0.9486
 3517ntf    on519811   1.251   2.744   3.242  0.4205 -0.2386  0.0844
 3517ntf    on519812   1.401   2.940   3.301  0.2314 -0.2337  0.0060
 3517ntf    fn419813   1.357   2.748   2.986 -0.1861 -0.1060  0.1958
 3517ntf    fn419814   1.422   2.956   2.989 -0.2844  0.0929  0.2953
 3517ntf    fn419815   1.525   2.810   3.094  0.0830  0.0292  0.0276
 3518ntf    cn119816   6.355   7.149   3.790  0.0034 -0.9893  0.1084
 3518ntf    sn219817   6.261   7.234   3.660  0.3109 -0.1379  0.4306
 3518ntf    nn319818   6.376   7.301   3.577 -0.1395  0.0154 -0.0753
 3518ntf    sn219819   6.461   7.431   3.602 -0.2693  0.1280 -0.2104
 3518ntf    cn119820   6.358   7.553   3.516  0.0572  0.4256 -0.1778
 3518ntf    fn419821   6.395   7.235   3.882 -0.5728 -0.7857  0.1738
 3518ntf    fn419822   6.280   7.062   3.856 -0.2007 -0.7754  0.1571
 3518ntf    fn419823   6.470   7.096   3.751  0.8715  0.8431  0.0834
 3518ntf    on519824   6.198   7.124   3.590  0.1892  0.0925  0.1757
 3518ntf    on519825   6.174   7.325   3.730  0.0491 -0.0437 -0.0129
 3518ntf    on519826   6.585   7.432   3.528 -0.2864  0.1844 -0.2372
 3518ntf    on519827   6.457   7.484   3.736 -0.8356 -0.3901 -0.0161
 3518ntf    fn419828   6.402   7.676   3.540  0.4226  0.2735 -0.0690
 3518ntf    fn419829   6.348   7.531   3.386  0.3504 -0.0080 -0.1282
 3518ntf    fn419830   6.232   7.552   3.555  0.1597  0.1935  0.1496
 3519ntf    cn119831   3.156   2.136   2.144 -0.4132 -0.3099 -0.2506
 3519ntf    sn219832   3.208   2.300   2.203 -0.3099 -0.3340 -0.2753
 3519ntf    nn319833   3.169   2.281   2.354  0.2351 -0.1550 -0.1104
 3519ntf    sn219834   3.267   2.261   2.476 -0.1928  0.0391  0.2688
 3519ntf    cn119835   3.149   2.223   2.609 -0.0798  0.1780  0.4083
 3519ntf    fn419836   3.024   2.135   2.148 -0.4155  0.1660 -0.1769
 3519ntf    fn419837   3.194   2.113   2.019  0.1360  0.2427 -0.1869
 3519ntf    fn419838   3.197   2.033   2.215 -0.2334  0.0193  0.1235
 3519ntf    on519839   3.350   2.306   2.178 -0.1836 -0.4482  0.3786
 3519ntf    on519840   3.124   2.394   2.135 -0.3953 -0.5326 -0.4473
 3519ntf    on519841   3.348   2.375   2.511 -0.2931  0.2824 -0.2714
 3519ntf    on519842   3.343   2.139   2.466  0.0605  0.1883  0.3571
 3519ntf    fn419843   3.024   2.250   2.577 -0.1414 -0.4555  0.1095
 3519ntf    fn419844   3.144   2.093   2.631  0.9004  0.0991  0.2393
 3519ntf    fn419845   3.178   2.282   2.724 -0.0879  0.8723  0.0581
 3520ntf    cn119846   6.962   1.321   1.693 -0.1311 -0.0862  0.0843
 3520ntf    sn219847   7.106   1.377   1.788 -0.3536  0.3134  0.1848
 3520ntf    nn319848   7.094   1.532   1.767 -0.2018  0.3208  0.1490
 3520ntf    sn219849   7.186   1.630   1.686  0.3290 -0.2154  0.1036
 3520ntf    cn119850   7.054   1.701   1.583  0.1551 -0.3735  0.2171
 3520ntf    fn419851   6.982   1.207   1.629 -0.1738  0.2402 -0.5207
 3520ntf    fn419852   6.846   1.313   1.755 -0.3119 -0.4907 -0.2955
 3520ntf    fn419853   6.944   1.410   1.597 -0.4000  0.0011  0.2162
 3520ntf    on519854   7.084   1.340   1.926  0.1651  0.0505  0.1997
 3520ntf    on519855   7.217   1.315   1.721 -0.4805  0.3041 -0.0190
 3520ntf    on519856   7.281   1.566   1.598  0.1446 -0.2419 -0.0771
 3520ntf    on519857   7.232   1.743   1.761  0.4943 -0.4240  0.3184
 3520ntf    fn419858   7.112   1.765   1.483  0.2148 -0.6850  0.0488
 3520ntf    fn419859   6.970   1.620   1.520 -0.4833 -0.0230  0.6172
 3520ntf    fn419860   6.979   1.788   1.647  0.0068  0.0948 -0.5857
 3521ntf    cn119861   6.677   5.022   6.390 -0.2764 -0.6668 -0.1909
 3521ntf    sn219862   6.857   5.004   6.399 -0.1618  0.4829  0.0019
 3521ntf    nn319863   6.864   4.851   6.363 -0.3634  0.5071 -0.1391
 3521ntf    sn219864   6.912   4.737   6.458  0.0653  0.5025 -0.3614
 3521ntf    cn119865   6.907   4.585   6.358 -0.0106  0.5815 -0.4774
 3521ntf    fn419866   6.612   4.936   6.466 -0.4920 -0.3053  0.0355
 3521ntf    fn419867   6.646   5.144   6.432  0.0564 -0.6557  0.0203
 3521ntf    fn419868   6.635   5.003   6.266 -0.0182 -0.0070 -0.3862
 3521ntf    on519869   6.904   5.093   6.295 -0.3737  0.4988 -0.0804
 3521ntf    on519870   6.898   5.033   6.534  0.0613 -0.9659  0.2606
 3521ntf    on519871   6.813   4.707   6.558  0.0298 -0.8416 -0.7742
 3521ntf    on519872   7.048   4.752   6.506 -0.2060  0.0748  0.5731
 3521ntf    fn419873   6.984   4.588   6.250  1.0624  0.0651  0.2511
 3521ntf    fn419874   6.945   4.477   6.424 -0.3246  0.4275 -0.5481
 3521ntf    fn419875   6.784   4.560   6.318  0.2045  0.2082 -0.9129
 3522ntf    cn119876   6.836   6.491   3.558  0.3599  0.0103  0.0318
 3522ntf    sn219877   6.737   6.633   3.503  0.3380  0.0161  0.0858
 3522ntf    nn319878   6.825   6.678   3.381  0.0117 -0.1506 -0.2130
 3522ntf    sn219879   6.809   6.636   3.230  0.1003  0.3310 -0.3585
 3522ntf    cn119880   6.646   6.705   3.189 -0.0446 -0.0281 -0.3964
 3522ntf    fn419881   6.963   6.525   3.573  0.3423  0.2374 -0.3177
 3522ntf    fn419882   6.806   6.454   3.681 -0.4853  0.0821 -0.1457
 3522ntf    fn419883   6.831   6.396   3.467 -0.2326 -0.0059  0.0811
 3522ntf    on519884   6.610   6.570   3.477  0.3198  0.3175 -0.5849
 3522ntf    on519885   6.733   6.723   3.615  0.1556 -0.4687  0.4715
 3522ntf    on519886   6.788   6.493   3.222  0.1262  0.3151 -0.1610
 3522ntf    on519887   6.905   6.690   3.137  0.5511  0.3592  0.1161
 3522ntf    fn419888   6.636   6.833   3.222  0.0353 -0.0474 -0.2924
 3522ntf    fn419889   6.620   6.699   3.060 -0.3474 -0.0584 -0.3343
 3522ntf    fn419890   6.547   6.641   3.249  0.0411  0.1721 -0.0354
 3523ntf    cn119891   0.888   6.791   6.312 -0.0276  0.0456  0.0355
 3523ntf    sn219892   1.047   6.797   6.400  0.0882  0.0487 -0.1737
 3523ntf    nn319893   1.143   6.821   6.279  0.4001  0.1190  0.0860
 3523ntf    sn219894   1.299   6.826   6.295  0.4219 -0.2038 -0.0267
 3523ntf    cn119895   1.352   6.681   6.198  0.0320 -0.5395  0.2569
 3523ntf    fn419896   0.889   6.717   6.203 -0.2993 -0.2031  0.1974
 3523ntf    fn419897   0.789   6.748   6.390  0.1822  0.3862  0.4952
 3523ntf    fn419898   0.854   6.913   6.275  0.0169  0.2233  0.5757
 3523ntf    on519899   1.027   6.914   6.482  0.4232 -0.2763  0.3779
 3523ntf    on519900   1.055   6.667   6.463 -0.4395  0.0122 -0.1759
 3523ntf    on519901   1.349   6.792   6.426 -0.2048 -0.3108  0.1870
 3523ntf    on519902   1.354   6.939   6.225  0.0612  0.2422  0.4084
 3523ntf    fn419903   1.323   6.570   6.263 -0.5312 -0.3933  0.2604
 3523ntf    fn419904   1.296   6.679   6.078 -0.2566  0.7621  0.3524
 3523ntf    fn419905   1.483   6.671   6.181 -0.0071 -0.6765  0.0359
 3524ntf    cn119906   5.182   0.647   0.626  0.0127  0.1141  0.0550
 3524ntf    sn219907   5.291   0.502   0.626 -0.1200  0.0153 -0.1493
 3524ntf    nn319908   5.238   0.441   0.761 -0.1889  0.4405  0.0175
 3524ntf    sn219909   5.314   0.427   0.897 -0.2929  0.0665  0.0382
 3524ntf    cn119910   5.207   0.307   0.983 -0.0917 -0.2382 -0.1336
 3524ntf    fn419911   5.053   0.621   0.615  0.0461  0.3504 -0.9133
 3524ntf    fn419912   5.192   0.711   0.742  0.0627  0.4094 -0.1121
 3524ntf    fn419913   5.222   0.735   0.536  0.3754 -0.4601 -0.3449
 3524ntf    on519914   5.253   0.430   0.507  0.3704 -0.9133  0.2460
 3524ntf    on519915   5.425   0.554   0.631  0.0003 -0.2467 -0.5674
 3524ntf    on519916   5.304   0.545   0.979 -0.3438  0.2661 -0.2560
 3524ntf    on519917   5.436   0.350   0.894  0.0068  0.5252  0.3074
 3524ntf    fn419918   5.174   0.215   0.893 -0.7866 -0.0620 -0.0666
 3524ntf    fn419919   5.258   0.252   1.091  0.3217  0.2228 -0.0928
 3524ntf    fn419920   5.087   0.350   1.020  0.1319  0.1899  0.0964
 3525ntf    cn119921   4.251   2.826   0.861  0.2313  0.0921 -0.3401
 3525ntf    sn219922   4.330   2.955   0.962  0.1171 -0.1567  0.0708
 3525ntf    nn319923   4.443   3.001   0.863  0.6013  0.0351  0.7103
 3525ntf    sn219924   4.559   2.913   0.805  0.1430 -0.0736 -0.0472
 3525ntf    cn119925   4.696   3.032   0.800  0.2855 -0.2317  0.0912
 3525ntf    fn419926   4.333   2.732   0.815  0.6910  0.2324  0.1831
 3525ntf    fn419927   4.157   2.760   0.927  0.7458 -0.2174  0.0884
 3525ntf    fn419928   4.199   2.874   0.749  0.1883  0.2107 -0.2691
 3525ntf    on519929   4.229   3.053   0.995 -0.0145  0.0536 -0.9055
 3525ntf    on519930   4.368   2.880   1.079 -0.0911 -0.3695  0.0038
 3525ntf    on519931   4.524   2.878   0.669  0.1319  0.2837 -0.1382
 3525ntf    on519932   4.607   2.811   0.895  0.3078  0.0467  0.0010
 3525ntf    fn419933   4.798   2.989   0.728  0.0699 -0.3920 -0.1223
 3525ntf    fn419934   4.664   3.152   0.754  0.1453 -0.2360  0.1781
 3525ntf    fn419935   4.746   3.051   0.921  0.2797 -0.2454  0.0958
 3526ntf    cn119936   0.615   3.911   5.752  0.2350 -0.0518 -0.0748
 3526ntf    sn219937   0.492   4.018   5.671  0.0686 -0.3187 -0.1767
 3526ntf    nn319938   0.438   4.104   5.791  0.0479 -0.3961 -0.1310
 3526ntf    sn219939   0.300   4.077   5.862  0.0911 -0.1170  0.0594
 3526ntf    cn119940   0.193   4.163   5.743  0.0989  0.1034  0.2104
 3526ntf    fn419941   0.567   3.850   5.859  0.6010  0.3834  0.3432
 3526ntf    fn419942   0.649   3.817   5.665  0.5743  0.4169 -0.4574
 3526ntf    fn419943   0.729   3.969   5.785  0.1629 -0.1257  0.3138
 3526ntf    on519944   0.576   4.091   5.580 -0.1525  0.3261  0.1295
 3526ntf    on519945   0.396   3.928   5.614  0.1665 -0.6201  0.1300
 3526ntf    on519946   0.272   4.147   5.985 -0.7532  0.0552 -0.2232
 3526ntf    on519947   0.249   3.942   5.862 -0.5627  0.1252 -0.2583
 3526ntf    fn419948   0.181   4.098   5.629 -0.3142  0.5038  0.0208
 3526ntf    fn419949   0.070   4.163   5.792 -0.0769  0.5171 -0.2266
 3526ntf    fn419950   0.231   4.287   5.722  0.6350 -0.0086  0.5149
 3527ntf    cn119951   5.301   4.703   2.649 -0.2945  0.1114  0.3526
 3527ntf    sn219952   5.233   4.836   2.547 -0.1168 -0.2315 -0.2192
 3527ntf    nn319953   5.082   4.833   2.589 -0.0276 -0.5220  0.0888
 3527ntf    sn219954   4.964   4.800   2.491 -0.2132  0.2190  0.0532
 3527ntf    cn119955   4.975   4.619   2.477 -0.0532  0.2498 -0.2330
 3527ntf    fn419956   5.257   4.585   2.608 -0.5477  0.4737 -0.4303
 3527ntf    fn419957   5.433   4.692   2.649 -0.3066 -0.0240 -0.2598
 3527ntf    fn419958   5.255   4.710   2.773 -0.1544 -0.4054  0.4373
 3527ntf    on519959   5.300   4.954   2.597 -0.0739  0.0375 -0.8968
 3527ntf    on519960   5.267   4.796   2.413  0.2634  0.0907 -0.2194
 3527ntf    on519961   4.980   4.861   2.361  0.0801 -0.0723 -0.0505
 3527ntf    on519962   4.837   4.832   2.552  0.0868  1.3831  0.0833
 3527ntf    fn419963   5.003   4.558   2.591  0.0091  0.3997 -0.1691
 3527ntf    fn419964   4.869   4.558   2.427  0.1272 -0.2154 -0.0532
 3527ntf    fn419965   5.070   4.576   2.395  0.1684 -0.0915  0.1975
 3528ntf    cn119966   5.789   0.457   1.523  0.1331 -0.4088 -0.0931
 3528ntf    sn219967   5.930   0.343   1.526  0.1597 -0.3726  0.0740
 3528ntf    nn319968   5.998   0.393   1.393 -0.0930  0.3924  0.2276
 3528ntf    sn219969   6.117   0.490   1.361  0.0953  0.1147  0.0869
 3528ntf    cn119970   6.250   0.369   1.331  0.0310  0.1289 -0.2688
 3528ntf    fn419971   5.736   0.462   1.402 -0.3323  0.7364  0.1440
 3528ntf    fn419972   5.698   0.404   1.605  0.0311  0.3416  0.2885
 3528ntf    fn419973   5.809   0.581   1.564 -0.3376 -0.4732  0.3541
 3528ntf    on519974   5.995   0.382   1.649  0.9735 -0.0886 -0.4336
 3528ntf    on519975   5.872   0.211   1.521 -0.4898 -0.1169  0.7490
 3528ntf    on519976   6.165   0.581   1.462  0.1113 -0.5006  0.6407
 3528ntf    on519977   6.097   0.553   1.232  1.2428  1.3538  0.4947
 3528ntf    fn419978   6.209   0.272   1.251 -0.4899 -0.2787  0.4747
 3528ntf    fn419979   6.356   0.428   1.279  0.0693  0.2639 -0.0376
 3528ntf    fn419980   6.283   0.319   1.449  0.2727  0.0296 -0.3797
 3529ntf    cn119981   5.630   6.413   3.234  0.0422 -0.0251 -0.3596
 3529ntf    sn219982   5.467   6.479   3.278  0.2969  0.3204  0.0691
 3529ntf    nn319983   5.509   6.581   3.391 -0.5592  0.4872  0.2430
 3529ntf    sn219984   5.540   6.555   3.542  0.1098  0.2025  0.0589
 3529ntf    cn119985   5.404   6.655   3.610  0.0677  0.3963 -0.3079
 3529ntf    fn419986   5.711   6.490   3.163  0.4826 -0.6165 -0.5070
 3529ntf    fn419987   5.696   6.376   3.343 -0.0718  0.5034 -0.1079
 3529ntf    fn419988   5.619   6.294   3.176 -0.2397 -0.0631 -0.2264
 3529ntf    on519989   5.422   6.557   3.166  0.0516  0.9893  0.6216
 3529ntf    on519990   5.393   6.361   3.315  0.5910  0.0943 -0.0570
 3529ntf    on519991   5.662   6.624   3.579  0.4646 -0.1942 -0.3605
 3529ntf    on519992   5.513   6.425   3.598  0.3018  0.3154  0.4171
 3529ntf    fn419993   5.288   6.631   3.553  0.1476  0.5401 -0.5321
 3529ntf    fn419994   5.390   6.635   3.740  0.0243  0.0778 -0.3620
 3529ntf    fn419995   5.421   6.786   3.599 -0.4430  0.4535 -0.4122
 3530ntf    cn119996   0.603   3.528   6.389 -0.0984 -0.0270 -0.3997
 3530ntf    sn219997   0.771   3.460   6.379 -0.0158  0.1223 -0.0113
 3530ntf    nn319998   0.847   3.540   6.267  0.0506  0.2068  0.0931
 3530ntf    sn219999   0.812   3.505   6.118 -0.3635  0.3663  0.1519
 3530ntf    cn120000   0.759   3.673   6.072 -0.1478  0.3826 -0.0397
 3530ntf    fn420001   0.537   3.474   6.490  0.0580  0.4411 -0.0481
 3530ntf    fn420002   0.606   3.653   6.430  0.1962 -0.0419 -0.3749
 3530ntf    fn420003   0.523   3.516   6.284 -0.3450 -0.0992 -0.2047
 3530ntf    on520004   0.834   3.492   6.505 -0.2693 -0.8596  0.3707
 3530ntf    on520005   0.744   3.321   6.352  0.1908  0.1162 -0.1861
 3530ntf    on520006   0.699   3.425   6.078  0.4224 -0.6092 -0.1370
 3530ntf    on520007   0.939   3.496   6.051 -0.5973  0.1886 -0.2690
 3530ntf    fn420008   0.866   3.750   6.069 -0.0255  0.2190  0.1015
 3530ntf    fn420009   0.706   3.694   5.952  0.2675  0.3551 -0.2285
 3530ntf    fn420010   0.672   3.719   6.160 -0.2595 -0.1524  0.1322
 3531ntf    cn120011   3.265   5.137   1.182  0.1422  0.0700 -0.4046
 3531ntf    sn220012   3.388   5.005   1.159  0.1046  0.0025 -0.2128
 3531ntf    nn320013   3.305   4.902   1.075 -0.1542  0.0571 -0.0269
 3531ntf    sn220014   3.356   4.800   0.967  0.0120 -0.1748  0.2684
 3531ntf    cn120015   3.353   4.643   1.059 -0.2967 -0.3121  0.0262
 3531ntf    fn420016   3.310   5.240   1.251 -0.4895 -0.0446  0.1855
 3531ntf    fn420017   3.232   5.182   1.062 -0.1009 -0.3382 -0.4914
 3531ntf    fn420018   3.151   5.090   1.229  0.4446  0.2594  0.5380
 3531ntf    on520019   3.497   5.069   1.089 -0.1327 -0.0445 -0.6235
 3531ntf    on520020   3.418   4.969   1.296 -0.3502  0.0361 -0.1035
 3531ntf    on520021   3.493   4.810   0.924  0.3023  0.1127  1.2376
 3531ntf    on520022   3.255   4.774   0.867 -0.1213 -0.2714  0.4274
 3531ntf    fn420023   3.331   4.535   0.985  0.2572 -0.2852 -0.1867
 3531ntf    fn420024   3.468   4.616   1.119 -0.2651 -0.4981 -0.1141
 3531ntf    fn420025   3.267   4.644   1.159 -0.0846 -0.5697  0.2111
 3532ntf    cn120026   3.617   0.514   6.041 -0.2231 -0.5029 -0.0444
 3532ntf    sn220027   3.691   0.654   6.131 -0.4647 -0.1386 -0.4105
 3532ntf    nn320028   3.842   0.613   6.140 -0.2920  0.4870 -0.4375
 3532ntf    sn220029   3.960   0.665   6.051  0.2692  0.0406  0.0396
 3532ntf    cn120030   4.003   0.812   6.149 -0.0543  0.0480  0.1692
 3532ntf    fn420031   3.644   0.393   6.089 -0.0219 -0.5656 -0.3131
 3532ntf    fn420032   3.485   0.523   6.044 -0.1539  0.7112 -0.0703
 3532ntf    fn420033   3.650   0.517   5.913  0.0083 -0.0577  0.0242
 3532ntf    on520034   3.653   0.768   6.051 -0.6261 -0.1550 -0.3590
 3532ntf    on520035   3.632   0.638   6.262  0.0667  0.2198 -0.1277
 3532ntf    on520036   3.920   0.710   5.920  0.6562  0.3177  0.0131
 3532ntf    on520037   4.079   0.583   6.052  0.3280  0.1256 -0.0144
 3532ntf    fn420038   4.031   0.788   6.276 -0.1299  0.0705  0.1903
 3532ntf    fn420039   4.112   0.868   6.100  0.2359 -0.2777  0.4419
 3532ntf    fn420040   3.906   0.902   6.153 -0.2612 -0.1800  0.3255
 3533ntf    cn120041   4.840   6.733   7.076 -0.4429  0.0553 -0.1907
 3533ntf    sn220042   4.899   6.648   7.225 -0.2706  0.3322 -0.0994
 3533ntf    nn320043   4.807   6.521   7.223 -0.2457  0.3122  0.0091
 3533ntf    sn220044   4.664   6.510   7.286 -0.1492 -0.3386  0.1255
 3533ntf    cn120045   4.620   6.343   7.229  0.0881 -0.3953  0.1060
 3533ntf    fn420046   4.851   6.663   6.965  0.3314 -0.2184  0.0550
 3533ntf    fn420047   4.713   6.768   7.087 -0.5122 -0.2534 -0.0047
 3533ntf    fn420048   4.910   6.843   7.055  0.5380 -0.5395 -0.1008
 3533ntf    on520049   5.039   6.629   7.193 -0.0715  0.3416  0.7342
 3533ntf    on520050   4.880   6.745   7.330 -0.4228  0.0411  0.1443
 3533ntf    on520051   4.562   6.595   7.229 -0.4976 -0.9124 -0.1139
 3533ntf    on520052   4.660   6.498   7.430  0.1705  0.1213  0.1749
 3533ntf    fn420053   4.695   6.244   7.276 -0.3749 -0.8358 -0.0792
 3533ntf    fn420054   4.498   6.305   7.264 -0.0602 -0.1533 -0.1466
 3533ntf    fn420055   4.627   6.340   7.097  0.1359  0.6527  0.0779
 3534ntf    cn120056   6.627   4.063   6.458 -0.2109  0.4951 -0.4161
 3534ntf    sn220057   6.719   3.934   6.369 -0.1748  0.1472  0.1210
 3534ntf    nn320058   6.836   4.027   6.322 -0.2386  0.0242 -0.2901
 3534ntf    sn220059   6.942   3.991   6.213  0.0751 -0.1807  0.0790
 3534ntf    cn120060   7.041   4.144   6.213 -0.0069 -0.1250 -0.4787
 3534ntf    fn420061   6.715   4.156   6.491  0.0528  0.0223  0.2327
 3534ntf    fn420062   6.538   4.122   6.381 -0.2131  0.8396 -0.1513
 3534ntf    fn420063   6.573   4.023   6.572  0.4494  0.4536 -0.1093
 3534ntf    on520064   6.745   3.829   6.464  0.1963  0.0423 -0.0948
 3534ntf    on520065   6.630   3.898   6.261 -0.0386  0.4892 -0.1061
 3534ntf    on520066   6.896   4.006   6.077 -0.5387  0.4447  0.3458
 3534ntf    on520067   7.038   3.886   6.234  0.2709 -0.1815 -0.7633
 3534ntf    fn420068   7.152   4.135   6.141 -0.0883  0.1066 -0.6340
 3534ntf    fn420069   6.977   4.249   6.164 -0.1165 -0.1960 -0.4876
 3534ntf    fn420070   7.081   4.167   6.337 -0.3204  0.4367 -0.4809
 3535ntf    cn120071   2.769   5.674   4.891  0.0729  0.4233  0.4875
 3535ntf    sn220072   2.766   5.509   4.965 -0.1999  0.1116 -0.2042
 3535ntf    nn320073   2.842   5.544   5.099  0.2203 -0.1046 -0.3821
 3535ntf    sn220074   2.976   5.491   5.161 -0.0808 -0.0667  0.3055
 3535ntf    cn120075   3.097   5.611   5.098 -0.1781 -0.3082 -0.3537
 3535ntf    fn420076   2.717   5.765   4.971 -0.5659  0.3164  0.2008
 3535ntf    fn420077   2.897   5.706   4.879  0.0971  0.3476  0.5457
 3535ntf    fn420078   2.711   5.685   4.772  0.3736  0.0013  0.2971
 3535ntf    on520079   2.624   5.491   4.979 -0.3387  0.5310 -1.0477
 3535ntf    on520080   2.837   5.421   4.875  0.4430  0.0685  0.3289
 3535ntf    on520081   3.021   5.361   5.117 -0.0707 -0.0137  0.1570
 3535ntf    on520082   2.967   5.516   5.303  0.7914 -0.0662  0.3624
 3535ntf    fn420083   3.151   5.570   4.985  0.5131  0.3203 -0.2569
 3535ntf    fn420084   3.041   5.726   5.064 -0.1611 -0.4188 -0.7600
 3535ntf    fn420085   3.199   5.630   5.180 -0.7623 -0.1118  0.3318
 3536ntf    cn120086   5.211   6.782   6.450  0.1428  0.4456 -0.0150
 3536ntf    sn220087   5.116   6.844   6.592 -0.2486 -0.2161  0.0183
 3536ntf    nn320088   5.152   6.997   6.582 -0.5382 -0.1252  0.3494
 3536ntf    sn220089   5.265   7.075   6.659 -0.0677 -0.2104 -0.2488
 3536ntf    cn120090   5.183   7.234   6.691  0.2562 -0.1615  0.3292
 3536ntf    fn420091   5.337   6.760   6.484  0.0335  0.1110  0.1795
 3536ntf    fn420092   5.173   6.665   6.400 -0.1086  0.3702  0.3482
 3536ntf    fn420093   5.216   6.866   6.348  0.1801  0.4834  0.0178
 3536ntf    on520094   4.981   6.815   6.551  0.0366 -0.7701 -0.5524
 3536ntf    on520095   5.175   6.779   6.706 -0.3495  0.3340  0.3889
 3536ntf    on520096   5.365   7.121   6.566 -0.0972  0.2811 -0.0413
 3536ntf    on520097   5.303   7.038   6.792  0.1149  0.0427 -0.2312
 3536ntf    fn420098   5.071   7.226   6.762  0.0209  0.5561  0.0505
 3536ntf    fn420099   5.259   7.320   6.758  0.9083 -0.3074 -0.2099
 3536ntf    fn420100   5.157   7.293   6.576 -0.6842 -0.1607  0.5318
 3537ntf    cn120101   5.335   1.935   2.378  0.0423  0.0914  0.0492
 3537ntf    sn220102   5.255   2.094   2.411  0.2454  0.1385  0.3162
 3537ntf    nn320103   5.375   2.195   2.409  0.5432 -0.2191  0.1530
 3537ntf    sn220104   5.358   2.345   2.366  0.0817 -0.3212 -0.0248
 3537ntf    cn120105   5.497   2.407   2.466  0.0858  0.2208 -0.3653
 3537ntf    fn420106   5.434   1.912   2.463 -0.0277 -0.2991  0.0277
 3537ntf    fn420107   5.246   1.837   2.375  0.2405 -0.1038  0.4322
 3537ntf    fn420108   5.385   1.928   2.256 -0.4982  0.4004 -0.1911
 3537ntf    on520109   5.164   2.097   2.299 -0.0907  0.0151  0.5821
 3537ntf    on520110   5.203   2.086   2.546  0.1552 -1.0273  0.2168
 3537ntf    on520111   5.241   2.412   2.418  0.1172 -0.2210 -0.0741
 3537ntf    on520112   5.397   2.363   2.229 -0.2839  0.4762 -0.0345
 3537ntf    fn420113   5.461   2.404   2.593 -0.1757  0.1140 -0.4402
 3537ntf    fn420114   5.608   2.336   2.457  0.4166  0.7172 -0.2749
 3537ntf    fn420115   5.527   2.532   2.434  0.0943  0.2415 -0.2771
 3538ntf    cn120116   7.125   6.853   6.913  0.3400  0.2255 -0.2577
 3538ntf    sn220117   7.103   6.825   7.091 -0.0262  0.0064 -0.3376
 3538ntf    nn320118   7.218   6.727   7.130 -0.1788  0.0232  0.1647
 3538ntf    sn220119   7.222   6.575   7.171 -0.0238 -0.1323 -0.4203
 3538ntf    cn120120   7.187   6.488   7.015 -0.1617  0.2182 -0.5864
 3538ntf    fn420121   7.050   6.947   6.858 -0.4702 -0.3846 -0.2086
 3538ntf    fn420122   7.248   6.890   6.880  0.3376  0.0849 -0.4222
 3538ntf    fn420123   7.090   6.744   6.847  0.3752 -0.1971  0.4128
 3538ntf    on520124   7.122   6.958   7.145 -0.1968  0.1515 -0.6321
 3538ntf    on520125   6.972   6.765   7.100 -0.2521  0.4723 -0.4406
 3538ntf    on520126   7.113   6.531   7.254  0.5669 -0.6556  0.0879
 3538ntf    on520127   7.356   6.537   7.211  0.1090  0.0144 -0.7211
 3538ntf    fn420128   7.250   6.541   6.912  0.1936  0.2546 -0.3502
 3538ntf    fn420129   7.230   6.363   7.020 -0.0455  0.2756 -0.1242
 3538ntf    fn420130   7.059   6.478   6.981 -0.2125 -0.1085 -0.3079
 3539ntf    cn120131   0.619   5.703   2.433 -0.3985 -0.5397 -0.3004
 3539ntf    sn220132   0.764   5.799   2.381 -0.6598  0.0060 -0.0376
 3539ntf    nn320133   0.699   5.922   2.307 -0.6348  0.0554  0.0227
 3539ntf    sn220134   0.650   5.936   2.159 -0.2194  0.4365 -0.0804
 3539ntf    cn120135   0.749   6.082   2.114 -0.2186  0.4550 -0.0174
 3539ntf    fn420136   0.538   5.672   2.333 -0.5200 -0.3666 -0.2558
 3539ntf    fn420137   0.659   5.591   2.490 -0.1524 -0.6277 -0.6418
 3539ntf    fn420138   0.551   5.771   2.524  0.2879 -0.0788 -0.1184
 3539ntf    on520139   0.817   5.855   2.502  0.4266 -0.3301 -0.3399
 3539ntf    on520140   0.846   5.715   2.297  0.3061  0.5862  0.3096
 3539ntf    on520141   0.514   5.981   2.145 -0.2573  0.2078 -0.4535
 3539ntf    on520142   0.694   5.833   2.068 -0.5488 -0.2507  0.5290
 3539ntf    fn420143   0.880   6.064   2.130 -0.2177  0.4967  0.0237
 3539ntf    fn420144   0.736   6.110   1.986  0.6448  0.1369 -0.1875
 3539ntf    fn420145   0.712   6.186   2.187  0.1415  0.4598  0.1608
 3540ntf    cn120146   2.401   2.959   2.523  0.1002  0.0737 -0.1950
 3540ntf    sn220147   2.352   3.131   2.554 -0.4262 -0.0870 -0.1244
 3540ntf    nn320148   2.488   3.205   2.581 -0.5179 -0.0279  0.1695
 3540ntf    sn220149   2.554   3.330   2.512 -0.1798 -0.2674  0.0600
 3540ntf    cn120150   2.420   3.449   2.486 -0.0424 -0.1085  0.0800
 3540ntf    fn420151   2.508   2.932   2.595 -0.5541 -0.3414  0.6366
 3540ntf    fn420152   2.307   2.871   2.553 -0.1551  0.2928 -0.3468
 3540ntf    fn420153   2.433   2.946   2.395 -0.4374  0.1088 -0.3346
 3540ntf    on520154   2.288   3.171   2.431 -0.1570  0.1680 -0.1833
 3540ntf    on520155   2.276   3.119   2.675  0.2677 -0.3852  0.2887
 3540ntf    on520156   2.607   3.307   2.380 -0.2868  0.3570 -0.0933
 3540ntf    on520157   2.641   3.398   2.604 -0.2254  0.0199 -0.1065
 3540ntf    fn420158   2.470   3.570   2.463 -0.7054  0.0231 -0.7486
 3540ntf    fn420159   2.349   3.427   2.376  0.2093 -0.6228  0.0221
 3540ntf    fn420160   2.338   3.456   2.590 -0.1016 -0.2077  0.0401
 3541ntf    cn120161   6.603   5.598   6.292 -0.1864 -0.0138  0.0990
 3541ntf    sn220162   6.524   5.690   6.157  0.2512 -0.0301 -0.1701
 3541ntf    nn320163   6.377   5.638   6.174  0.0618  0.7933  0.7784
 3541ntf    sn220164   6.242   5.701   6.124 -0.0128 -0.0785 -0.1350
 3541ntf    cn120165   6.190   5.780   6.279 -0.1411  0.1707 -0.3031
 3541ntf    fn420166   6.599   5.468   6.269  0.3651 -0.0123 -0.0252
 3541ntf    fn420167   6.729   5.628   6.319 -0.3932  0.4037  0.6123
 3541ntf    fn420168   6.549   5.624   6.410  0.4954  0.6327  0.2741
 3541ntf    on520169   6.555   5.824   6.201 -0.0181 -0.1717  0.4604
 3541ntf    on520170   6.588   5.641   6.038  0.3644  0.1028 -0.1644
 3541ntf    on520171   6.136   5.606   6.102  0.1296 -0.2949  0.1051
 3541ntf    on520172   6.249   5.811   6.031 -0.0807 -0.2166 -0.3030
 3541ntf    fn420173   6.073   5.841   6.269 -0.6710 -0.7764 -0.0435
 3541ntf    fn420174   6.175   5.690   6.375 -0.4537  0.7096  0.1590
 3541ntf    fn420175   6.277   5.868   6.326  0.0233 -0.0505 -0.1917
 3542ntf    cn120176   3.621   4.561   5.395  0.1367  0.0170  0.3251
 3542ntf    sn220177   3.734   4.475   5.281 -0.1049  0.1792 -0.0403
 3542ntf    nn320178   3.799   4.370   5.378  0.1183 -0.4940 -0.9062
 3542ntf    sn220179   3.932   4.294   5.345  0.3582 -0.3410 -0.3002
 3542ntf    cn120180   3.942   4.192   5.495  0.4004 -0.0001 -0.0710
 3542ntf    fn420181   3.554   4.665   5.349 -0.0583  0.0030  0.5758
 3542ntf    fn420182   3.529   4.479   5.444  0.2247 -0.2961 -0.0257
 3542ntf    fn420183   3.691   4.599   5.500  0.4884 -0.3567  0.2297
 3542ntf    on520184   3.644   4.407   5.191  0.6526 -0.1843 -0.5321
 3542ntf    on520185   3.817   4.579   5.227 -0.0302  0.1412  0.0013
 3542ntf    on520186   4.051   4.375   5.347  0.0407  0.1159  0.3901
 3542ntf    on520187   3.910   4.207   5.233 -0.4265 -0.0710 -0.3597
 3542ntf    fn420188   3.829   4.125   5.511  0.2671  0.1182 -0.5210
 3542ntf    fn420189   4.058   4.129   5.488  0.3534 -0.1682  0.5367
 3542ntf    fn420190   3.951   4.270   5.602 -0.3491 -0.0468  0.0317
 3543ntf    cn120191   4.127   7.002   1.572 -0.8429  0.4388  0.0269
 3543ntf    sn220192   4.282   7.078   1.516 -0.4462 -0.4304 -0.0799
 3543ntf    nn320193   4.390   6.985   1.582 -0.0466 -0.0536 -0.1955
 3543ntf    sn220194   4.499   7.028   1.686 -0.5637  0.5749  0.0958
 3543ntf    cn120195   4.418   6.983   1.843 -0.1230  0.0571  0.1798
 3543ntf    fn420196   4.135   6.870   1.567 -0.0540  0.4836 -0.0444
 3543ntf    fn420197   4.090   7.026   1.696  0.1152  0.3336  0.3371
 3543ntf    fn420198   4.024   7.031   1.494 -0.7679  0.2605 -0.1422
 3543ntf    on520199   4.285   7.060   1.373 -0.3186 -0.2827 -0.0965
 3543ntf    on520200   4.264   7.210   1.571 -0.5724 -0.2202 -0.6227
 3543ntf    on520201   4.531   7.167   1.707  0.0220  0.5128 -0.3639
 3543ntf    on520202   4.606   6.931   1.680 -0.6877  0.4271  0.2434
 3543ntf    fn420203   4.499   6.997   1.947  0.2130  0.0382 -0.0784
 3543ntf    fn420204   4.300   7.036   1.869 -0.0849  0.4486 -0.4212
 3543ntf    fn420205   4.390   6.855   1.857 -0.0844  0.0077 -0.1905
 3544ntf    cn120206   5.254   4.601   5.287 -0.2258 -0.2153 -0.0518
 3544ntf    sn220207   5.302   4.503   5.431 -0.3476 -0.1543  0.0306
 3544ntf    nn320208   5.220   4.565   5.549 -0.3450  0.0448 -0.0720
 3544ntf    sn220209   5.259   4.645   5.678 -0.0246  0.1780 -0.2512
 3544ntf    cn120210   5.116   4.617   5.786  0.3156  0.2269  0.2165
 3544ntf    fn420211   5.200   4.717   5.321 -0.1930 -0.2208  0.0157
 3544ntf    fn420212   5.347   4.635   5.199 -0.6033 -0.4490 -0.5538
 3544ntf    fn420213   5.166   4.538   5.210 -0.0251  0.0483 -0.5031
 3544ntf    on520214   5.262   4.367   5.405 -0.0199 -0.2963  0.2464
 3544ntf    on520215   5.445   4.522   5.434 -0.3833  0.0701  0.4331
 3544ntf    on520216   5.254   4.787   5.652 -0.8272  0.0942 -0.5707
 3544ntf    on520217   5.371   4.590   5.751 -0.1022  0.1363 -0.1629
 3544ntf    fn420218   5.063   4.497   5.769 -0.0354  0.4578 -0.3456
 3544ntf    fn420219   5.152   4.623   5.913  0.0487  0.4851  0.2810
 3544ntf    fn420220   5.013   4.698   5.765  0.1717 -0.0020  0.0381
 3545ntf    cn120221   3.692   6.291   7.117  0.4544  0.3147 -0.1723
 3545ntf    sn220222   3.795   6.187   7.225  0.0746  0.0937 -0.0200
 3545ntf    nn320223   3.884   6.305   7.278 -0.2396  0.1766  0.3291
 3545ntf    sn220224   4.025   6.344   7.220 -0.3481  0.1045  0.0166
 3545ntf    cn120225   4.135   6.218   7.292  0.0006  0.1292 -0.4690
 3545ntf    fn420226   3.753   6.342   7.012 -0.1531  0.4848 -0.4499
 3545ntf    fn420227   3.593   6.222   7.063  0.5863  0.1958 -0.2627
 3545ntf    fn420228   3.634   6.390   7.183  0.1377  0.2931 -0.4173
 3545ntf    on520229   3.701   6.126   7.315  0.0664  0.0100 -0.0850
 3545ntf    on520230   3.859   6.091   7.139 -0.3837 -0.8532  0.6720
 3545ntf    on520231   4.064   6.465   7.289  0.5910 -0.1840  0.0089
 3545ntf    on520232   4.049   6.337   7.078 -0.0040 -0.1155  0.0835
 3545ntf    fn420233   4.090   6.093   7.284  0.0569  0.0894 -0.1516
 3545ntf    fn420234   4.251   6.222   7.229  0.3719  0.1255  0.2174
 3545ntf    fn420235   4.153   6.236   7.421  0.6797  0.0537 -0.5492
 3546ntf    cn120236   4.600   6.575   4.810 -0.3387  0.0142 -0.0948
 3546ntf    sn220237   4.597   6.463   4.667 -0.1443 -0.0613 -0.0409
 3546ntf    nn320238   4.691   6.536   4.565  0.0276 -0.2978 -0.0517
 3546ntf    sn220239   4.661   6.641   4.452 -0.1146 -0.3916 -0.1002
 3546ntf    cn120240   4.776   6.575   4.328  0.0341 -0.2595 -0.0327
 3546ntf    fn420241   4.713   6.554   4.876 -0.2441  0.1268 -0.2213
 3546ntf    fn420242   4.600   6.703   4.777  0.0473  0.0500  0.0338
 3546ntf    fn420243   4.510   6.548   4.903 -0.5550  0.4701 -0.1698
 3546ntf    on520244   4.655   6.341   4.717 -0.4854 -0.0232  0.4481
 3546ntf    on520245   4.454   6.462   4.649 -0.0708  0.1099 -0.6664
 3546ntf    on520246   4.706   6.776   4.474 -0.0781 -0.4447  0.1581
 3546ntf    on520247   4.531   6.629   4.392 -0.4139  0.5932  0.3300
 3546ntf    fn420248   4.748   6.449   4.295  0.5127 -0.4004  0.0917
 3546ntf    fn420249   4.793   6.637   4.213  0.5564 -0.6300 -0.1592
 3546ntf    fn420250   4.896   6.580   4.383 -0.3283 -0.1090  0.7549
 3547ntf    cn120251   0.390   3.804   0.764  0.3530  0.3440  0.1369
 3547ntf    sn220252   0.350   3.765   0.937  0.0250  0.1179  0.0127
 3547ntf    nn320253   0.491   3.800   0.997 -0.0713  0.3414  0.1098
 3547ntf    sn220254   0.579   3.718   1.097 -0.0699  0.1206 -0.0719
 3547ntf    cn120255   0.560   3.808   1.254  0.1369 -0.0886  0.0743
 3547ntf    fn420256   0.292   3.772   0.680  0.3363 -0.1681  0.3444
 3547ntf    fn420257   0.413   3.934   0.757  0.1454  0.3522 -0.4956
 3547ntf    fn420258   0.505   3.751   0.725  0.1520  0.4214 -0.5741
 3547ntf    on520259   0.249   3.859   0.979  0.1358  0.3660 -0.2724
 3547ntf    on520260   0.312   3.626   0.934  0.4024  0.0177 -0.1435
 3547ntf    on520261   0.720   3.746   1.082 -0.1621  0.3973 -0.4236
 3547ntf    on520262   0.543   3.580   1.119  0.8241 -0.2434 -0.8021
 3547ntf    fn420263   0.444   3.777   1.310 -0.1838  0.4912 -0.2533
 3547ntf    fn420264   0.643   3.761   1.346 -0.0364 -0.1160  0.2181
 3547ntf    fn420265   0.568   3.940   1.261 -0.0368 -0.0691 -0.0745
 3548ntf    cn120266   2.543   0.917   2.165 -0.0325 -0.1634 -0.2753
 3548ntf    sn220267   2.405   0.823   2.239 -0.0720  0.1979  0.1143
 3548ntf    nn320268   2.452   0.678   2.200  0.1886  0.3848 -0.2682
 3548ntf    sn220269   2.410   0.591   2.076  0.2966  0.2136 -0.1841
 3548ntf    cn120270   2.569   0.524   2.018  0.2130 -0.0101 -0.1579
 3548ntf    fn420271   2.541   0.899   2.034 -0.5840  0.1055 -0.3066
 3548ntf    fn420272   2.527   1.047   2.184 -0.2476 -0.2494  0.1505
 3548ntf    fn420273   2.653   0.869   2.221  0.3212  0.5641 -0.3451
 3548ntf    on520274   2.415   0.849   2.380  0.4344 -0.0276  0.1237
 3548ntf    on520275   2.295   0.875   2.162 -0.3322 -0.1482  0.2535
 3548ntf    on520276   2.351   0.658   1.963 -0.0667  0.6083  0.2356
 3548ntf    on520277   2.342   0.470   2.118 -0.1018  0.6998  0.6067
 3548ntf    fn420278   2.569   0.491   1.890  0.0476  0.3228 -0.2467
 3548ntf    fn420279   2.669   0.609   2.038  0.4223 -0.3612  0.3032
 3548ntf    fn420280   2.599   0.418   2.091 -0.2070 -0.0665 -0.0611
 3549ntf    cn120281   2.914   0.993   3.714 -0.1230 -0.0619 -0.0285
 3549ntf    sn220282   2.835   1.140   3.787  0.2916 -0.0130  0.3233
 3549ntf    nn320283   2.881   1.248   3.682 -0.6068 -0.1410 -0.2077
 3549ntf    sn220284   2.877   1.405   3.693 -0.0970 -0.1490  0.1415
 3549ntf    cn120285   2.736   1.447   3.585 -0.0087  0.0302  0.0965
 3549ntf    fn420286   2.878   0.994   3.587  0.0529  0.7574 -0.0803
 3549ntf    fn420287   3.046   0.991   3.720 -0.1376 -0.2082  0.2645
 3549ntf    fn420288   2.866   0.886   3.775 -0.3514 -0.1002 -0.2727
 3549ntf    on520289   2.693   1.116   3.783  0.3334 -0.1493 -0.5500
 3549ntf    on520290   2.902   1.164   3.912 -0.3202 -0.0255  0.6561
 3549ntf    on520291   2.989   1.470   3.630 -0.1272  0.1250  0.3717
 3549ntf    on520292   2.833   1.459   3.819  0.4371  0.1013  0.2216
 3549ntf    fn420293   2.713   1.577   3.596 -0.2753 -0.0199  0.1439
 3549ntf    fn420294   2.748   1.409   3.459 -0.4538  0.0266  0.0518
 3549ntf    fn420295   2.627   1.382   3.620 -0.3109  0.2246 -0.4744
 3550ntf    cn120296   5.409   6.965   3.861  0.3682  0.0272  0.0503
 3550ntf    sn220297   5.396   7.090   3.993 -0.0309  0.1398 -0.0921
 3550ntf    nn320298   5.477   7.207   3.926  0.0857  0.1119 -0.0003
 3550ntf    sn220299   5.407   7.328   3.855  0.0025 -0.1599 -0.3829
 3550ntf    cn120300   5.543   7.390   3.751  0.2162  0.7233  0.4082
 3550ntf    fn420301   5.327   6.862   3.875  0.1483  0.1454 -0.3298
 3550ntf    fn420302   5.385   7.013   3.740  0.0910  0.1343  0.1469
 3550ntf    fn420303   5.533   6.921   3.860  0.3192 -0.1053 -0.2369
 3550ntf    on520304   5.255   7.112   4.006 -0.0606 -0.2729  0.3120
 3550ntf    on520305   5.467   7.026   4.101  0.2454 -0.0921 -0.4061
 3550ntf    on520306   5.390   7.436   3.949  0.2268 -0.2371 -0.2530
 3550ntf    on520307   5.303   7.302   3.759 -0.0999 -0.8561 -0.0843
 3550ntf    fn420308   5.570   7.307   3.652 -0.3285  0.4107  0.5174
 3550ntf    fn420309   5.518   7.508   3.697  0.3238  0.3526 -0.4803
 3550ntf    fn420310   5.657   7.403   3.816  0.3969  0.0534  0.2346
 3551ntf    cn120311   2.431   2.145   3.340  0.3600 -0.4790  0.0896
 3551ntf    sn220312   2.599   2.095   3.389  0.4362 -0.2675  0.0492
 3551ntf    nn320313   2.572   2.091   3.544 -0.4327  0.1515 -0.0831
 3551ntf    sn220314   2.543   1.970   3.641 -0.1660  0.1572  0.0050
 3551ntf    cn120315   2.704   1.945   3.722  0.0331  0.0370 -0.4247
 3551ntf    fn420316   2.336   2.067   3.388 -0.3988  0.5844  0.3458
 3551ntf    fn420317   2.399   2.265   3.386  0.2341 -0.1947 -0.7167
 3551ntf    fn420318   2.401   2.164   3.212  0.1770 -0.4816  0.1324
 3551ntf    on520319   2.605   1.969   3.319  0.3094 -0.2194 -0.0475
 3551ntf    on520320   2.686   2.200   3.345 -0.0847  0.2560  0.2496
 3551ntf    on520321   2.507   1.845   3.578 -0.1514  0.0513  0.2088
 3551ntf    on520322   2.465   2.018   3.752  0.1011  0.1688  0.1892
 3551ntf    fn420323   2.733   1.816   3.734 -0.3287  0.0025  0.0749
 3551ntf    fn420324   2.803   1.994   3.650  0.5078 -0.3790 -0.0585
 3551ntf    fn420325   2.721   2.006   3.838 -0.5555 -0.5930  0.0002
 3552ntf    cn120326   6.945   4.197   3.843  0.0285  0.2858 -0.0684
 3552ntf    sn220327   7.010   4.038   3.901 -0.0147  0.3678  0.2117
 3552ntf    nn320328   7.155   4.036   3.841  0.0587  0.3620  0.3901
 3552ntf    sn220329   7.276   3.940   3.868 -0.1454 -0.0797 -0.2535
 3552ntf    cn120330   7.205   3.778   3.824  0.7634 -0.5476 -0.0333
 3552ntf    fn420331   7.005   4.300   3.901  0.3388  0.0756 -0.0155
 3552ntf    fn420332   6.947   4.210   3.712  0.3579  0.6082 -0.0336
 3552ntf    fn420333   6.819   4.211   3.882 -0.0150 -0.1915 -0.0365
 3552ntf    on520334   7.008   4.044   4.045  0.0176  0.5305  0.2054
 3552ntf    on520335   6.925   3.941   3.835  0.2569 -0.1340  0.5902
 3552ntf    on520336   7.318   3.924   4.005  0.2993  0.0310 -0.3747
 3552ntf    on520337   7.381   3.960   3.771 -0.2922  0.9086 -0.2092
 3552ntf    fn420338   7.098   3.749   3.896  0.5623  0.1417 -0.0501
 3552ntf    fn420339   7.162   3.784   3.699 -0.5037  0.6382  0.4359
 3552ntf    fn420340   7.293   3.681   3.837  0.5273 -0.7481  0.0808
 3553ntf    cn120341   5.019   0.569   4.377  0.0875 -0.1786 -0.0902
 3553ntf    sn220342   5.031   0.639   4.545 -0.0084 -0.2182 -0.0675
 3553ntf    nn320343   5.102   0.776   4.515  0.5217 -0.5067 -0.1441
 3553ntf    sn220344   5.223   0.840   4.592  0.0321 -0.0016  0.2115
 3553ntf    cn120345   5.347   0.841   4.459  0.2614  0.2163  0.4251
 3553ntf    fn420346   4.984   0.654   4.282  0.5804  0.4096  0.2432
 3553ntf    fn420347   5.135   0.523   4.332 -0.0741 -0.6602 -0.0107
 3553ntf    fn420348   4.937   0.466   4.380 -0.5878  0.3657  0.4839
 3553ntf    on520349   4.892   0.641   4.582 -0.0911 -0.1637 -0.3805
 3553ntf    on520350   5.103   0.539   4.619  0.0355 -0.2959 -0.2147
 3553ntf    on520351   5.287   0.773   4.702  0.5920 -0.1461 -0.1975
 3553ntf    on520352   5.199   0.981   4.613  0.0953 -0.0201  0.4066
 3553ntf    fn420353   5.467   0.875   4.503  0.5771 -0.0730 -0.2066
 3553ntf    fn420354   5.364   0.728   4.392  0.0562  0.2280  0.3547
 3553ntf    fn420355   5.323   0.928   4.362  0.0812  0.4087  0.6430
 3554ntf    cn120356   2.843   6.390   2.406 -0.0241  0.3999  0.0381
 3554ntf    sn220357   2.857   6.319   2.572  0.2361  0.3570 -0.0013
 3554ntf    nn320358   2.706   6.299   2.612  0.1796  0.4495 -0.1709
 3554ntf    sn220359   2.623   6.344   2.737 -0.1654 -0.2570 -0.1382
 3554ntf    cn120360   2.534   6.483   2.661  0.1035 -0.0606 -0.0970
 3554ntf    fn420361   2.788   6.305   2.320 -0.7292  0.6120  0.2753
 3554ntf    fn420362   2.772   6.501   2.400  0.1483  0.4996 -0.2102
 3554ntf    fn420363   2.956   6.433   2.353 -0.0218  0.4142  0.0555
 3554ntf    on520364   2.930   6.196   2.552  0.3324  0.4185 -0.0306
 3554ntf    on520365   2.938   6.419   2.637  0.3626 -0.0369  0.4588
 3554ntf    on520366   2.708   6.407   2.835 -0.0657  0.0684 -0.4299
 3554ntf    on520367   2.510   6.264   2.776  0.0449 -0.4304  0.1164
 3554ntf    fn420368   2.616   6.582   2.629 -0.3518  0.1445 -0.6495
 3554ntf    fn420369   2.478   6.453   2.544  0.2745 -0.5118 -0.0643
 3554ntf    fn420370   2.441   6.544   2.733  0.6874  0.3561  0.3074
 3555ntf    cn120371   4.521   0.344   0.988 -0.0812 -0.0361 -0.3621
 3555ntf    sn220372   4.377   0.361   1.096  0.1689  0.1612 -0.0594
 3555ntf    nn320373   4.382   0.516   1.126  0.6113  0.1842 -0.2482
 3555ntf    sn220374   4.272   0.616   1.075 -0.1193 -0.5300 -0.1150
 3555ntf    cn120375   4.319   0.756   1.182 -0.3298  0.1165 -0.8574
 3555ntf    fn420376   4.549   0.215   0.972 -0.0208 -0.0482 -0.1584
 3555ntf    fn420377   4.510   0.406   0.871 -0.2011  0.4388 -0.0976
 3555ntf    fn420378   4.634   0.388   1.041 -0.0364  0.1060 -0.5727
 3555ntf    on520379   4.259   0.320   1.024 -0.2993  1.0577  0.1691
 3555ntf    on520380   4.419   0.293   1.216 -0.2010 -0.2138 -0.1403
 3555ntf    on520381   4.140   0.587   1.123 -0.3846  0.6569 -0.0794
 3555ntf    on520382   4.296   0.667   0.942 -0.1386 -0.4167 -0.0758
 3555ntf    fn420383   4.258   0.864   1.138 -0.4140  0.2317 -0.4637
 3555ntf    fn420384   4.279   0.742   1.307 -0.0095  0.5731 -0.6999
 3555ntf    fn420385   4.450   0.778   1.187 -0.3934  0.2397  0.6751
 3556ntf    cn120386   3.107   3.963   5.747 -0.3092 -0.3033 -0.3271
 3556ntf    sn220387   2.989   4.019   5.874  0.0810 -0.0337 -0.0809
 3556ntf    nn320388   2.876   4.084   5.787 -0.0810  0.0974  0.2265
 3556ntf    sn220389   2.747   4.025   5.719  0.0814  0.1350 -0.1183
 3556ntf    cn120390   2.755   4.133   5.573  0.3568 -0.2725 -0.4091
 3556ntf    fn420391   3.069   3.861   5.672 -0.0345 -0.3401 -0.4187
 3556ntf    fn420392   3.145   4.064   5.670  0.1282  0.2896  0.6436
 3556ntf    fn420393   3.212   3.910   5.809 -0.1543  0.4376  0.0567
 3556ntf    on520394   2.952   3.894   5.935 -0.1890 -0.0032 -0.1818
 3556ntf    on520395   3.069   4.114   5.947 -0.1502  0.1463 -0.0629
 3556ntf    on520396   2.626   4.064   5.787  0.0481  0.0296 -0.1162
 3556ntf    on520397   2.761   3.889   5.672  0.5334 -0.1191  0.7179
 3556ntf    fn420398   2.652   4.115   5.492 -0.0441  0.0133  0.0296
 3556ntf    fn420399   2.752   4.260   5.611 -0.6520 -0.5081  0.3272
 3556ntf    fn420400   2.864   4.117   5.500  0.3663 -0.2251 -0.4056
 3557ntf    cn120401   5.877   4.991   0.437  0.1814  0.2499  0.0789
 3557ntf    sn220402   5.881   4.812   0.403 -0.2858  0.2140  0.2103
 3557ntf    nn320403   5.731   4.766   0.415 -0.2544  0.1152  0.2198
 3557ntf    sn220404   5.650   4.735   0.546 -0.4778  0.0570  0.0673
 3557ntf    cn120405   5.479   4.750   0.485 -0.5083 -0.2534  0.0727
 3557ntf    fn420406   5.834   5.006   0.561 -0.0646 -0.1837  0.0491
 3557ntf    fn420407   5.995   5.051   0.431  0.1031  0.4896  0.8800
 3557ntf    fn420408   5.796   5.057   0.356 -0.0567  0.1787  0.2591
 3557ntf    on520409   5.936   4.796   0.271 -0.6930  0.1535  0.0456
 3557ntf    on520410   5.972   4.763   0.504 -0.1142  0.0391 -0.0288
 3557ntf    on520411   5.656   4.839   0.645  0.0227 -0.0495  0.1492
 3557ntf    on520412   5.661   4.598   0.590  0.0966 -0.2940 -1.1217
 3557ntf    fn420413   5.457   4.851   0.402  0.3456 -0.2612 -0.1774
 3557ntf    fn420414   5.437   4.636   0.433 -0.3350 -0.0141 -0.5950
 3557ntf    fn420415   5.402   4.768   0.591 -0.1365  0.2487  0.2630
 3558ntf    cn120416   4.693   1.146   2.894  0.4806  0.1340  0.0111
 3558ntf    sn220417   4.580   1.120   2.754 -0.0307  0.0154  0.4419
 3558ntf    nn320418   4.466   1.223   2.787  0.0326  0.2722 -0.1335
 3558ntf    sn220419   4.462   1.375   2.748  0.1145  0.2988 -0.0403
 3558ntf    cn120420   4.362   1.356   2.597  0.4034 -0.0561 -0.1874
 3558ntf    fn420421   4.803   1.072   2.891 -0.2291 -0.9597  0.4196
 3558ntf    fn420422   4.736   1.271   2.899 -0.0484  0.3172 -0.0108
 3558ntf    fn420423   4.644   1.111   3.012 -0.4978 -0.1691 -0.4814
 3558ntf    on520424   4.669   1.150   2.644  0.1105  0.6866  0.7316
 3558ntf    on520425   4.544   0.983   2.779  0.1354 -0.1873 -0.4092
 3558ntf    on520426   4.581   1.445   2.708  0.0854 -0.3372 -1.2991
 3558ntf    on520427   4.377   1.449   2.839 -0.2935  0.0008 -0.1727
 3558ntf    fn420428   4.245   1.297   2.612  0.3687  0.1087  0.1993
 3558ntf    fn420429   4.333   1.477   2.552  0.2879 -0.0319 -0.0461
 3558ntf    fn420430   4.430   1.293   2.502  0.9877  0.1880  0.0644
 3559ntf    cn120431   1.502   4.076   0.328 -0.0580  0.1971  0.1283
 3559ntf    sn220432   1.678   4.071   0.286 -0.0617 -0.3250  0.1660
 3559ntf    nn320433   1.737   3.973   0.393 -0.1642 -0.4427  0.1152
 3559ntf    sn220434   1.862   3.880   0.373  0.1240  0.0262 -0.2930
 3559ntf    cn120435   1.778   3.721   0.344  0.2671 -0.1274  0.1118
 3559ntf    fn420436   1.468   3.954   0.367  0.0121 -0.0264 -0.5051
 3559ntf    fn420437   1.467   4.147   0.434 -0.6394 -0.2169  0.2188
 3559ntf    fn420438   1.425   4.117   0.228  0.2624  0.7817  0.1166
 3559ntf    on520439   1.677   4.019   0.152 -0.5308  0.4167 -0.1275
 3559ntf    on520440   1.728   4.206   0.302 -0.1745 -0.1622 -0.8217
 3559ntf    on520441   1.924   3.868   0.503 -0.1669 -0.8290 -0.2266
 3559ntf    on520442   1.945   3.902   0.258 -0.4473  0.1240 -0.6887
 3559ntf    fn420443   1.695   3.688   0.441  0.4740  0.0258  0.3408
 3559ntf    fn420444   1.716   3.721   0.226 -0.4675  0.3241  0.4852
 3559ntf    fn420445   1.870   3.627   0.332  0.2895 -0.0993  0.0658
 3560ntf    cn120446   4.626   5.589   6.956 -0.5239  0.1348  0.2487
 3560ntf    sn220447   4.599   5.459   7.080  0.2252 -0.1620  0.1073
 3560ntf    nn320448   4.739   5.475   7.149  0.3593 -0.0053 -0.2005
 3560ntf    sn220449   4.849   5.368   7.182  0.0692 -0.1402  0.3467
 3560ntf    cn120450   4.971   5.432   7.063 -0.0773  0.4277  0.5005
 3560ntf    fn420451   4.634   5.708   7.015 -0.3685  0.4121 -0.3282
 3560ntf    fn420452   4.733   5.565   6.881 -0.5657  1.1264 -0.1466
 3560ntf    fn420453   4.523   5.608   6.875 -0.0979 -0.1606 -0.3657
 3560ntf    on520454   4.482   5.519   7.139  0.2300 -0.6886  0.6595
 3560ntf    on520455   4.578   5.348   6.991 -0.0589  0.3699 -0.5017
 3560ntf    on520456   4.820   5.231   7.145 -0.2875 -0.1466  0.6496
 3560ntf    on520457   4.917   5.389   7.307  0.0543  0.3487  0.2728
 3560ntf    fn420458   5.100   5.405   7.074 -0.2185 -0.6455 -0.2473
 3560ntf    fn420459   4.937   5.391   6.941 -0.0963 -0.0363  0.6571
 3560ntf    fn420460   4.966   5.564   7.062 -0.1237  0.4243  0.0282
 3561ntf    cn120461   3.280   3.814   4.494 -0.1401 -0.3158 -0.1130
 3561ntf    sn220462   3.106   3.773   4.465 -0.3070  0.1816  0.1864
 3561ntf    nn320463   3.103   3.746   4.311  0.2255  0.2097  0.1707
 3561ntf    sn220464   2.998   3.793   4.205  0.3096 -0.0127 -0.0126
 3561ntf    cn120465   2.900   3.640   4.194  0.3593 -0.0210 -0.3589
 3561ntf    fn420466   3.357   3.706   4.504 -0.5725 -0.5819  0.3774
 3561ntf    fn420467   3.332   3.888   4.397 -0.1127 -0.1399  0.0361
 3561ntf    fn420468   3.308   3.872   4.610  0.2792 -0.1524 -0.2932
 3561ntf    on520469   3.080   3.654   4.543 -0.3824 -0.0475 -0.1897
 3561ntf    on520470   3.033   3.892   4.503 -0.6729  0.1665 -0.4580
 3561ntf    on520471   3.048   3.808   4.071  0.5041 -0.1321  0.0464
 3561ntf    on520472   2.904   3.896   4.243  0.1204 -0.1804 -0.0216
 3561ntf    fn420473   2.831   3.615   4.304  0.3808 -0.4829 -0.4480
 3561ntf    fn420474   2.806   3.641   4.100  0.0650 -0.2900 -0.0714
 3561ntf    fn420475   2.974   3.532   4.174  0.8329  0.3025 -0.3571
 3562ntf    cn120476   0.910   5.434   5.587 -0.0536  0.1359  0.0272
 3562ntf    sn220477   0.857   5.535   5.729  0.0070  0.0295  0.1255
 3562ntf    nn320478   0.908   5.677   5.688 -0.5507  0.2522  0.1987
 3562ntf    sn220479   0.866   5.814   5.754  0.1244  0.5055  0.1109
 3562ntf    cn120480   1.017   5.852   5.847  0.3058 -0.0606  0.0491
 3562ntf    fn420481   1.042   5.439   5.575  0.0115 -0.2679  0.5486
 3562ntf    fn420482   0.875   5.307   5.593  0.0107  0.1435  0.6072
 3562ntf    fn420483   0.860   5.488   5.477 -0.5317 -0.9221 -0.2834
 3562ntf    on520484   0.713   5.525   5.722 -0.0051  0.2629  0.0328
 3562ntf    on520485   0.923   5.484   5.847 -0.2210 -0.5222  0.0194
 3562ntf    on520486   0.767   5.812   5.859  0.0948 -0.2522  0.0751
 3562ntf    on520487   0.858   5.922   5.658  0.2017  0.3785 -0.0396
 3562ntf    fn420488   1.117   5.860   5.761 -0.5254  0.2070 -0.9093
 3562ntf    fn420489   1.003   5.972   5.901  0.0218  0.0341 -0.2314
 3562ntf    fn420490   1.054   5.771   5.945  0.7086  0.0768  0.0109
 3563ntf    cn120491   2.704   1.742   4.130  0.2772 -0.1223  0.3459
 3563ntf    sn220492   2.635   1.852   4.257 -0.0755 -0.0740  0.1149
 3563ntf    nn320493   2.481   1.820   4.260  0.0684 -0.7660  0.2561
 3563ntf    sn220494   2.361   1.921   4.259  0.3211 -0.4698 -0.1452
 3563ntf    cn120495   2.352   1.939   4.440  0.0358  0.1309 -0.2155
 3563ntf    fn420496   2.699   1.788   4.006 -0.0508  0.1316  0.4510
 3563ntf    fn420497   2.834   1.727   4.146  0.3361 -0.6433 -0.5640
 3563ntf    fn420498   2.651   1.621   4.127  0.2617 -0.1096 -0.0183
 3563ntf    on520499   2.699   1.805   4.377  0.0910 -0.2241 -0.0318
 3563ntf    on520500   2.678   1.979   4.204 -0.5072 -0.1600 -0.4559
 3563ntf    on520501   2.240   1.855   4.218 -0.0514  0.1013  0.0257
 3563ntf    on520502   2.373   2.060   4.223  0.1375 -0.3187  0.3696
 3563ntf    fn420503   2.238   1.986   4.487 -0.1511 -0.4278 -0.1004
 3563ntf    fn420504   2.373   1.818   4.489  0.1011  0.2177 -0.0325
 3563ntf    fn420505   2.450   2.016   4.482  0.0074  0.1057 -0.1050
 3564ntf    cn120506   5.942   4.082   6.468  0.0447 -0.0356  0.1539
 3564ntf    sn220507   5.986   4.224   6.363 -0.3909  0.0281  0.0563
 3564ntf    nn320508   5.867   4.318   6.404 -0.4020  0.1106 -0.1643
 3564ntf    sn220509   5.858   4.448   6.491 -0.0394  0.1377 -0.1650
 3564ntf    cn120510   5.693   4.430   6.567  0.2060 -0.3725  0.2484
 3564ntf    fn420511   6.050   4.015   6.504  0.1392 -0.2329 -0.4825
 3564ntf    fn420512   5.886   4.116   6.583  0.0438 -0.1063  0.1751
 3564ntf    fn420513   5.861   3.994   6.410  0.0726  0.0143  0.0402
 3564ntf    on520514   6.121   4.260   6.396 -0.3064 -0.0272 -0.2280
 3564ntf    on520515   5.962   4.173   6.230  0.3422 -0.0603 -0.0449
 3564ntf    on520516   5.845   4.561   6.403 -0.5473  0.2227  0.0149
 3564ntf    on520517   5.941   4.442   6.609  0.1761  0.1209 -0.3181
 3564ntf    fn420518   5.655   4.522   6.654  0.2884 -0.4992  0.4199
 3564ntf    fn420519   5.597   4.429   6.477 -0.0632 -0.0809  0.5315
 3564ntf    fn420520   5.681   4.308   6.617  0.8352 -0.4040  0.3315
 3565ntf    cn120521   4.650   3.127   2.933  0.1361  0.3643 -0.1542
 3565ntf    sn220522   4.732   3.044   3.072 -0.2376 -0.0842 -0.1982
 3565ntf    nn320523   4.609   2.973   3.139 -0.1364 -0.2078 -0.1433
 3565ntf    sn220524   4.602   2.845   3.230 -0.0235  0.0318  0.2048
 3565ntf    cn120525   4.582   2.710   3.111 -0.1218  0.2079  0.0204
 3565ntf    fn420526   4.567   3.044   2.872  0.4296  0.0989 -0.1936
 3565ntf    fn420527   4.585   3.239   2.956 -0.4884 -0.0050 -0.1081
 3565ntf    fn420528   4.741   3.156   2.841  0.5007 -0.4100 -0.0491
 3565ntf    on520529   4.829   2.962   3.003  0.1723  0.5261 -0.3620
 3565ntf    on520530   4.785   3.152   3.153 -0.0233 -0.3620  0.0343
 3565ntf    on520531   4.479   2.833   3.305 -0.1428 -0.5820 -0.0888
 3565ntf    on520532   4.725   2.816   3.300  0.3669  0.7676 -0.1667
 3565ntf    fn420533   4.691   2.689   3.039 -0.0928  0.5605 -0.0402
 3565ntf    fn420534   4.555   2.595   3.171  0.5548  0.0881  0.0996
 3565ntf    fn420535   4.485   2.734   3.024  0.0801 -0.3908 -0.3835
 3566ntf    cn120536   6.519   5.667   2.666 -0.1461 -0.1461 -0.0484
 3566ntf    sn220537   6.559   5.523   2.770 -0.3226 -0.0942  0.0927
 3566ntf    nn320538   6.706   5.491   2.725 -0.2730 -0.0804  0.2452
 3566ntf    sn220539   6.843   5.519   2.796 -0.1554 -0.0658  0.0138
 3566ntf    cn120540   6.892   5.354   2.853  0.4541  0.0144 -0.2684
 3566ntf    fn420541   6.590   5.773   2.700 -0.6035  0.1957 -0.1425
 3566ntf    fn420542   6.540   5.645   2.538 -0.4954  0.0536 -0.1412
 3566ntf    fn420543   6.394   5.708   2.681 -0.2151 -0.5464  0.5348
 3566ntf    on520544   6.539   5.573   2.904 -0.2270 -0.4886  0.2548
 3566ntf    on520545   6.466   5.421   2.730 -0.8313  0.3160  0.2075
 3566ntf    on520546   6.838   5.590   2.922  0.4483  0.5192 -0.2850
 3566ntf    on520547   6.958   5.549   2.715 -0.0481  0.5509  0.3854
 3566ntf    fn420548   6.991   5.369   2.940  0.3141 -0.5501 -0.0069
 3566ntf    fn420549   6.796   5.290   2.918 -0.0073  0.6478 -0.3202
 3566ntf    fn420550   6.946   5.276   2.761  0.0444 -0.5745 -0.0193
 3567ntf    cn120551   2.890   3.590   7.129  0.0828  0.3720  0.2998
 3567ntf    sn220552   3.020   3.582   7.256  0.0236  0.2100  0.3510
 3567ntf    nn320553   3.130   3.654   7.170 -0.0069 -0.1746 -0.0192
 3567ntf    sn220554   3.200   3.795   7.180 -0.1161 -0.1019 -0.2789
 3567ntf    cn120555   3.380   3.770   7.189 -0.1518 -0.1944  0.1860
 3567ntf    fn420556   2.864   3.711   7.082  0.3307  0.4139  0.2698
 3567ntf    fn420557   2.922   3.517   7.024 -0.8147  0.3976 -0.0038
 3567ntf    fn420558   2.775   3.545   7.177  0.1955 -0.7208 -0.4195
 3567ntf    on520559   2.954   3.659   7.358 -1.0611 -0.3853  0.1132
 3567ntf    on520560   3.040   3.441   7.277  0.8101  0.2125 -0.3119
 3567ntf    on520561   3.169   3.861   7.304 -0.2011 -0.8416  0.0984
 3567ntf    on520562   3.172   3.869   7.060 -0.7491 -0.1450 -0.1619
 3567ntf    fn420563   3.414   3.696   7.293  0.5892 -0.5766 -0.3186
 3567ntf    fn420564   3.410   3.698   7.083 -0.2912  0.2426 -0.1518
 3567ntf    fn420565   3.449   3.883   7.190 -0.2077 -0.1378 -0.9269
 3568ntf    cn120566   0.766   2.548   0.312 -0.0580  0.0250 -0.0469
 3568ntf    sn220567   0.889   2.490   0.433 -0.0282 -0.1140 -0.1446
 3568ntf    nn320568   0.846   2.578   0.555 -0.5607  0.2570 -0.5930
 3568ntf    sn220569   0.754   2.546   0.679  0.0391  0.1219 -0.1772
 3568ntf    cn120570   0.627   2.676   0.672 -0.0619  0.0528  0.3774
 3568ntf    fn420571   0.646   2.534   0.367  0.2334 -0.4857  0.4721
 3568ntf    fn420572   0.766   2.677   0.283  0.4110 -0.1499 -0.8429
 3568ntf    fn420573   0.773   2.479   0.200  0.1512  0.0534 -0.0522
 3568ntf    on520574   0.863   2.349   0.448 -0.1035 -0.0840  0.0083
 3568ntf    on520575   1.016   2.535   0.381 -0.0882  0.0260 -0.1694
 3568ntf    on520576   0.823   2.561   0.805 -0.2796 -0.2090  0.0388
 3568ntf    on520577   0.682   2.423   0.661  0.2531 -0.1047  0.4802
 3568ntf    fn420578   0.536   2.651   0.765 -0.2593 -0.1159  0.1370
 3568ntf    fn420579   0.667   2.802   0.687 -0.1732  0.1977 -0.4920
 3568ntf    fn420580   0.572   2.663   0.553 -0.1907 -0.2652  0.4703
 3569ntf    cn120581   4.584   4.127   4.127  0.1963 -0.1541 -0.0636
 3569ntf    sn220582   4.507   4.025   3.998 -0.4199  0.1421  0.0656
 3569ntf    nn320583   4.390   3.951   4.073 -0.3187  0.2004  0.2839
 3569ntf    sn220584   4.356   3.798   4.082  0.1328  0.1068  0.4427
 3569ntf    cn120585   4.218   3.789   4.200 -0.1410 -0.1398  0.1062
 3569ntf    fn420586   4.666   4.217   4.076  0.0344  0.1461  0.1988
 3569ntf    fn420587   4.499   4.203   4.195  0.1908  0.0457 -0.2934
 3569ntf    fn420588   4.647   4.052   4.216 -0.4389 -0.1153  0.4321
 3569ntf    on520589   4.453   4.123   3.907  0.2353  0.2684 -0.1865
 3569ntf    on520590   4.616   3.938   3.962 -0.3716 -0.0863  0.7508
 3569ntf    on520591   4.457   3.713   4.141  0.2416  0.4866  0.8033
 3569ntf    on520592   4.296   3.746   3.961  0.5125 -0.1889  0.3811
 3569ntf    fn420593   4.106   3.854   4.174 -0.1833 -0.2678 -0.0348
 3569ntf    fn420594   4.182   3.663   4.223 -0.1015 -0.0392  0.7258
 3569ntf    fn420595   4.253   3.814   4.325 -0.0909 -0.0674  0.0774
 3570ntf    cn120596   2.627   5.729   0.634 -0.6521 -0.3826  0.0233
 3570ntf    sn220597   2.627   5.868   0.516  0.2092  0.1411  0.6210
 3570ntf    nn320598   2.779   5.875   0.479  0.0963  0.6000  0.2343
 3570ntf    sn220599   2.896   5.963   0.536  0.3148  0.3008  0.2536
 3570ntf    cn120600   3.009   5.838   0.603 -0.4079 -0.1880  0.5819
 3570ntf    fn420601   2.719   5.738   0.729 -0.4269 -0.0096 -0.2262
 3570ntf    fn420602   2.515   5.702   0.698 -0.3817 -0.2946  0.5421
 3570ntf    fn420603   2.663   5.620   0.567  0.1566 -0.2765  0.2775
 3570ntf    on520604   2.533   5.815   0.420  0.6774  0.3298  0.0573
 3570ntf    on520605   2.585   5.992   0.576  0.1276  0.3093  0.2168
 3570ntf    on520606   2.869   6.032   0.660  0.1717 -0.8632  0.8764
 3570ntf    on520607   2.979   6.030   0.439 -0.5384  0.6095 -0.2802
 3570ntf    fn420608   3.100   5.898   0.678  0.5346 -0.5931 -0.2122
 3570ntf    fn420609   2.950   5.742   0.670 -0.7960  0.1331  0.7040
 3570ntf    fn420610   3.065   5.772   0.503 -0.6177  0.3138  0.1212
 3571ntf    cn120611   5.520   0.239   4.916 -0.1350 -0.3200 -0.1542
 3571ntf    sn220612   5.401   0.123   4.990 -0.0529 -0.1289  0.2786
 3571ntf    nn320613   5.486   0.088   5.117  0.1362 -0.0467  0.1748
 3571ntf    sn220614   5.485   0.161   5.256  0.1533 -0.0274  0.1647
 3571ntf    cn120615   5.326   0.118   5.333  0.1201  0.1810  0.2149
 3571ntf    fn420616   5.556   0.332   5.002 -0.3217 -0.6264  0.2559
 3571ntf    fn420617   5.631   0.183   4.872  0.1256 -0.1033  0.2217
 3571ntf    fn420618   5.470   0.308   4.815 -0.0121 -0.3454 -0.2332
 3571ntf    on520619   5.280   0.202   4.990 -0.2662 -0.4517  0.4632
 3571ntf    on520620   5.414   0.020   4.890 -0.0607  0.1470 -0.0072
 3571ntf    on520621   5.490   0.305   5.250  0.5118 -0.0544 -0.2011
 3571ntf    on520622   5.582   0.100   5.344 -0.2587  0.1877  0.7688
 3571ntf    fn420623   5.335   0.137   5.463 -0.6159 -0.5925  0.3858
 3571ntf    fn420624   5.236   0.206   5.294 -0.2903 -0.3345 -0.0142
 3571ntf    fn420625   5.284  -0.006   5.311 -0.2557  0.3717 -0.1605
 3572ntf    cn120626   0.057   1.406   0.181  0.3604 -0.0067 -0.1528
 3572ntf    sn220627   0.104   1.540   0.068  0.3208  0.0725 -0.0758
 3572ntf    nn320628   0.006   1.501  -0.048 -0.2802 -0.2945  0.5469
 3572ntf    sn220629  -0.141   1.541  -0.087 -0.0571  0.0298  0.0203
 3572ntf    cn120630  -0.195   1.370  -0.116  0.0902 -0.0536  0.2325
 3572ntf    fn420631   0.051   1.288   0.121  0.1393 -0.0980  0.0457
 3572ntf    fn420632   0.138   1.392   0.285  0.4173  0.1136 -0.1816
 3572ntf    fn420633  -0.065   1.420   0.231  0.0569 -0.3417 -0.7855
 3572ntf    on520634   0.064   1.657   0.142 -0.5324 -0.1124 -0.2344
 3572ntf    on520635   0.243   1.516   0.040  0.3623 -0.6580  0.6865
 3572ntf    on520636  -0.158   1.605  -0.215  0.3077  0.0864 -0.0007
 3572ntf    on520637  -0.217   1.600   0.021  0.1103  0.0980  0.1012
 3572ntf    fn420638  -0.166   1.285  -0.019  0.0138 -0.3370  0.0094
 3572ntf    fn420639  -0.325   1.356  -0.134  0.0974  0.1427  0.0235
 3572ntf    fn420640  -0.136   1.304  -0.214  0.2541  0.1962  0.1629
 3573ntf    cn120641   2.886   2.276   1.656 -0.1798  0.3225 -0.1053
 3573ntf    sn220642   2.735   2.337   1.577 -0.3791 -0.0527 -0.0162
 3573ntf    nn320643   2.745   2.292   1.427  0.3593 -0.1569  0.0635
 3573ntf    sn220644   2.741   2.371   1.291  0.2451 -0.2847 -0.0074
 3573ntf    cn120645   2.914   2.349   1.238  0.1796 -0.1639 -0.2705
 3573ntf    fn420646   2.900   2.148   1.686  0.2424  0.3366 -0.2298
 3573ntf    fn420647   2.990   2.304   1.579  0.0497 -0.0626  0.0632
 3573ntf    fn420648   2.900   2.339   1.772  0.1575  0.0530  0.0016
 3573ntf    on520649   2.623   2.272   1.640  0.0892 -0.4342  0.4297
 3573ntf    on520650   2.756   2.479   1.595 -0.2566 -0.0505 -0.1752
 3573ntf    on520651   2.711   2.511   1.298  0.2212 -0.2590 -0.5823
 3573ntf    on520652   2.675   2.280   1.200 -0.1250  0.1315 -0.1570
 3573ntf    fn420653   2.940   2.411   1.123 -0.0252  0.2645 -0.0895
 3573ntf    fn420654   3.001   2.409   1.316 -0.0591  0.2340 -0.3052
 3573ntf    fn420655   2.951   2.224   1.219 -0.0544 -0.4521  1.1025
 3574ntf    cn120656   2.503   5.965   3.855 -0.2587  0.3405 -0.1671
 3574ntf    sn220657   2.615   6.035   3.980 -0.3022  0.3074 -0.1094
 3574ntf    nn320658   2.608   5.912   4.077  0.1928  0.1805 -0.2352
 3574ntf    sn220659   2.702   5.788   4.056  0.1384  0.0652  0.1984
 3574ntf    cn120660   2.682   5.719   4.223  0.0376 -0.0028  0.1575
 3574ntf    fn420661   2.449   6.058   3.776 -0.4511  0.3247 -0.0549
 3574ntf    fn420662   2.564   5.888   3.766  0.2172  0.4184  0.0942
 3574ntf    fn420663   2.399   5.904   3.910  0.0744  0.3360  0.4603
 3574ntf    on520664   2.736   6.062   3.906 -0.0370  0.2964  0.3227
 3574ntf    on520665   2.539   6.148   4.027 -0.3953  0.2331 -0.0805
 3574ntf    on520666   2.842   5.824   4.055  0.0695  0.3464 -0.5598
 3574ntf    on520667   2.652   5.677   3.979  0.1212  0.6245 -0.6180
 3574ntf    fn420668   2.556   5.689   4.250 -0.1255  0.1569 -0.4140
 3574ntf    fn420669   2.756   5.612   4.246 -0.6596 -0.5871 -0.2438
 3574ntf    fn420670   2.701   5.811   4.316 -0.6522 -0.1683  0.4707
 3575ntf    cn120671   3.044   0.197   6.037  0.0308 -0.0240 -0.1544
 3575ntf    sn220672   2.873   0.135   6.039  0.0044  0.0429 -0.3031
 3575ntf    nn320673   2.806   0.237   6.138 -0.5142 -0.4207 -0.1707
 3575ntf    sn220674   2.756   0.212   6.285  0.3466  0.0891  0.2185
 3575ntf    cn120675   2.632   0.345   6.279  0.0437 -0.1967  0.1500
 3575ntf    fn420676   3.127   0.121   5.968 -0.0179  0.0241 -0.2669
 3575ntf    fn420677   3.042   0.318   5.982 -0.0023 -0.0784 -0.2741
 3575ntf    fn420678   3.090   0.216   6.160 -0.0886 -0.1442 -0.0911
 3575ntf    on520679   2.827   0.150   5.903  0.0383  0.5535 -0.2588
 3575ntf    on520680   2.899  -0.001   6.080 -0.3300  0.1239  0.1824
 3575ntf    on520681   2.855   0.260   6.378  0.2774 -0.3399  0.5110
 3575ntf    on520682   2.690   0.086   6.304  0.1379  0.2317  0.4454
 3575ntf    fn420683   2.694   0.461   6.267 -0.2013 -0.0731  0.0690
 3575ntf    fn420684   2.552   0.329   6.174 -0.2331  0.2557  0.2873
 3575ntf    fn420685   2.550   0.349   6.383  0.0272  0.0800  0.1272
 3576ntf    cn120686   3.935   3.645   6.841 -0.1427  0.3719  0.2609
 3576ntf    sn220687   3.925   3.741   6.687 -0.3059 -0.0468  0.0108
 3576ntf    nn320688   3.946   3.626   6.582  0.0369 -0.1142  0.1531
 3576ntf    sn220689   4.072   3.586   6.496 -0.1046 -0.2812  0.0247
 3576ntf    cn120690   4.120   3.433   6.582  0.4574  0.2212  0.6102
 3576ntf    fn420691   3.911   3.728   6.942  0.7126  0.3117  0.5274
 3576ntf    fn420692   3.841   3.553   6.852 -0.0051  0.2885  0.7618
 3576ntf    fn420693   4.051   3.589   6.871 -0.0599  0.3551 -0.0882
 3576ntf    on520694   3.785   3.776   6.693 -0.1737  0.4826  0.0203
 3576ntf    on520695   4.014   3.853   6.704 -0.0903 -0.2924  0.5230
 3576ntf    on520696   4.184   3.674   6.515 -0.1693 -0.1435 -0.2265
 3576ntf    on520697   4.032   3.557   6.360 -0.6114 -0.7695  0.2688
 3576ntf    fn420698   4.156   3.447   6.709  0.2532  0.4178  0.6460
 3576ntf    fn420699   4.027   3.339   6.579  0.4384  0.2465  0.4098
 3576ntf    fn420700   4.229   3.383   6.525 -0.1502 -0.3326 -0.0789
 3577ntf    cn120701   4.594   2.017   1.594  0.0651 -0.5219  0.2339
 3577ntf    sn220702   4.669   2.151   1.497 -0.4679 -0.2134  0.2416
 3577ntf    nn320703   4.744   2.070   1.385  0.3742 -0.2214  0.8022
 3577ntf    sn220704   4.893   2.028   1.359  0.3437 -0.0636  0.3653
 3577ntf    cn120705   4.965   2.181   1.291 -0.1011 -0.0829 -0.1471
 3577ntf    fn420706   4.520   1.945   1.512  0.1854 -0.0363 -0.3107
 3577ntf    fn420707   4.697   1.950   1.644  0.7343  0.2140 -0.1350
 3577ntf    fn420708   4.523   2.059   1.698 -0.1032  0.5984 -0.3125
 3577ntf    on520709   4.550   2.220   1.453 -0.4802 -0.4201 -0.0555
 3577ntf    on520710   4.760   2.224   1.582 -0.7623  0.2277  0.1803
 3577ntf    on520711   4.905   1.937   1.248  0.1342 -0.5874  0.7659
 3577ntf    on520712   4.974   2.003   1.476 -0.1587  0.4522  0.8321
 3577ntf    fn420713   4.883   2.235   1.202 -0.5699 -0.2577  0.1762
 3577ntf    fn420714   4.987   2.271   1.384  0.3832 -0.1574 -0.1875
 3577ntf    fn420715   5.077   2.153   1.227  0.0073  0.3341 -0.1398
 3578ntf    cn120716   4.296   4.834   6.891 -0.3022 -0.0834  0.4681
 3578ntf    sn220717   4.207   4.930   6.764  0.0930 -0.2995  0.0250
 3578ntf    nn320718   4.181   4.819   6.656 -0.1077  0.0729 -0.3119
 3578ntf    sn220719   4.270   4.773   6.535  0.2157  0.0476 -0.0677
 3578ntf    cn120720   4.194   4.849   6.388 -0.3303  0.0768  0.2248
 3578ntf    fn420721   4.366   4.918   6.966  0.6399 -0.4185 -0.0355
 3578ntf    fn420722   4.216   4.764   6.970 -0.3413 -0.3280  0.2125
 3578ntf    fn420723   4.391   4.752   6.850 -0.2049  0.2241  0.0683
 3578ntf    on520724   4.081   4.955   6.830  0.0531 -0.3760 -0.0230
 3578ntf    on520725   4.293   5.040   6.727 -0.0700 -0.0586  0.3578
 3578ntf    on520726   4.259   4.631   6.511 -0.0721  0.2226 -0.9992
 3578ntf    on520727   4.406   4.820   6.537  0.1220  0.3273 -0.1063
 3578ntf    fn420728   4.247   4.795   6.279 -0.2634 -0.2514  0.4194
 3578ntf    fn420729   4.064   4.827   6.378 -0.2061 -0.4352 -0.3083
 3578ntf    fn420730   4.212   4.980   6.376  0.6794 -0.0991 -0.2789
 3579ntf    cn120731   1.743   1.996   0.317  0.1578  0.2933  0.6336
 3579ntf    sn220732   1.731   2.087   0.160  0.0899 -0.0147  0.4600
 3579ntf    nn320733   1.841   2.194   0.190 -0.0378  0.1590  0.3073
 3579ntf    sn220734   1.926   2.282   0.091 -0.0279 -0.0981  0.0875
 3579ntf    cn120735   2.008   2.145   0.004  0.0515 -0.1325  0.2159
 3579ntf    fn420736   1.640   1.914   0.332 -0.0408  0.3383 -0.3952
 3579ntf    fn420737   1.851   1.921   0.331  0.1092 -0.0065 -0.5121
 3579ntf    fn420738   1.748   2.081   0.418 -0.1020  0.0812  0.8249
 3579ntf    on520739   1.767   1.992   0.057 -0.6364 -0.1810  0.3584
 3579ntf    on520740   1.596   2.136   0.166  0.1265  0.2342 -0.5123
 3579ntf    on520741   2.043   2.341   0.152  0.2529 -0.4275 -0.1217
 3579ntf    on520742   1.848   2.358  -0.003  0.2493 -0.4316 -0.4195
 3579ntf    fn420743   2.021   2.041   0.085  0.8718 -0.0603  0.1799
 3579ntf    fn420744   1.935   2.108  -0.101  0.7394 -0.3963 -0.1767
 3579ntf    fn420745   2.131   2.177  -0.033  0.1252 -0.2837  0.3275
 3580ntf    cn120746   1.500   6.263   2.314 -0.1440 -0.0499  0.6793
 3580ntf    sn220747   1.476   6.100   2.237 -0.0254  0.1062  0.3115
 3580ntf    nn320748   1.361   6.043   2.326 -0.3144  0.7227  0.3414
 3580ntf    sn220749   1.205   6.064   2.320 -0.4083  0.0547  0.2916
 3580ntf    cn120750   1.166   6.046   2.497  0.0627  0.1400  0.4066
 3580ntf    fn420751   1.391   6.330   2.348  0.0564  0.2011  0.8402
 3580ntf    fn420752   1.556   6.251   2.433 -0.3878  0.0802  0.8090
 3580ntf    fn420753   1.572   6.343   2.238 -0.1687 -0.3146  0.3756
 3580ntf    on520754   1.445   6.133   2.100  0.1055  0.4420  0.3623
 3580ntf    on520755   1.602   6.033   2.254  0.1230  0.4411  0.5429
 3580ntf    on520756   1.137   5.954   2.256  0.6535 -0.3866 -0.1034
 3580ntf    on520757   1.160   6.196   2.281 -0.5194  0.0324  0.3427
 3580ntf    fn420758   1.193   5.921   2.533 -0.2005 -0.0063  0.1099
 3580ntf    fn420759   1.231   6.127   2.577  0.5051  0.4025 -0.2120
 3580ntf    fn420760   1.037   6.061   2.519 -0.0384  0.6488 -0.4834
 3581ntf    cn120761   4.209   5.882   2.261  0.0958 -0.0305  0.2238
 3581ntf    sn220762   4.040   5.918   2.316  0.1288  0.5087 -0.0181
 3581ntf    nn320763   3.962   5.800   2.248  0.2922  0.3694  0.0370
 3581ntf    sn220764   3.833   5.785   2.159 -0.0623  0.1699  0.5806
 3581ntf    cn120765   3.727   5.680   2.264 -0.2198 -0.2150  0.0392
 3581ntf    fn420766   4.257   5.767   2.307  0.1110 -0.2332 -0.2893
 3581ntf    fn420767   4.224   5.882   2.130  0.9792  0.1377  0.3181
 3581ntf    fn420768   4.303   5.968   2.300 -0.2997  0.3790  0.2848
 3581ntf    on520769   4.043   5.902   2.459 -0.5359 -0.0695 -0.0626
 3581ntf    on520770   4.013   6.049   2.264 -0.1339  0.3449 -0.2970
 3581ntf    on520771   3.860   5.707   2.042  0.3703  0.0548  0.7560
 3581ntf    on520772   3.754   5.904   2.136  0.1695  0.3237  0.5798
 3581ntf    fn420773   3.607   5.668   2.209 -0.1235 -0.2480 -0.1652
 3581ntf    fn420774   3.782   5.561   2.277 -0.4641 -0.3030  0.2676
 3581ntf    fn420775   3.707   5.725   2.387  0.1361  0.2579 -0.0744
 3582ntf    cn120776   6.875   1.397   6.454  0.2496  0.1836  0.1215
 3582ntf    sn220777   7.051   1.367   6.485  0.3055 -0.0410 -0.3914
 3582ntf    nn320778   7.096   1.328   6.340  0.0524 -0.3591 -0.3835
 3582ntf    sn220779   7.157   1.423   6.231 -0.0058 -0.0989 -0.1924
 3582ntf    cn120780   7.335   1.389   6.241 -0.0040 -0.0468 -0.0496
 3582ntf    fn420781   6.862   1.475   6.348 -0.3185  0.3131  0.2819
 3582ntf    fn420782   6.800   1.290   6.429  0.2047  0.3017 -0.2608
 3582ntf    fn420783   6.825   1.457   6.561 -0.4878 -0.3165  0.0699
 3582ntf    on520784   7.098   1.494   6.537 -0.1435  0.1502 -0.4501
 3582ntf    on520785   7.051   1.258   6.580  0.4524 -0.5820 -1.0098
 3582ntf    on520786   7.137   1.563   6.255  0.0013 -0.1092 -0.1294
 3582ntf    on520787   7.120   1.381   6.098  0.1034 -1.1124  0.0889
 3582ntf    fn420788   7.356   1.266   6.197  0.4342  0.1191 -0.3147
 3582ntf    fn420789   7.403   1.468   6.159  0.6740 -0.6058 -0.0337
 3582ntf    fn420790   7.389   1.389   6.362  0.4433  0.9656 -0.2391
 3583ntf    cn120791   6.260   6.658   5.125 -0.3516 -0.3726 -0.1545
 3583ntf    sn220792   6.337   6.541   5.242  0.3096  0.2077 -0.0040
 3583ntf    nn320793   6.433   6.470   5.140 -0.2976 -0.1421 -0.3384
 3583ntf    sn220794   6.413   6.339   5.055 -0.1804 -0.2382 -0.2180
 3583ntf    cn120795   6.514   6.371   4.907  0.1173 -0.1832 -0.0024
 3583ntf    fn420796   6.162   6.719   5.188  0.7106  0.0091  1.1722
 3583ntf    fn420797   6.336   6.761   5.092 -0.4861 -0.2495 -0.0795
 3583ntf    fn420798   6.214   6.603   5.014 -0.5017  0.3782 -0.4668
 3583ntf    on520799   6.405   6.622   5.340 -0.0893 -0.0107  0.4565
 3583ntf    on520800   6.225   6.463   5.286 -0.1013  0.7090 -0.1448
 3583ntf    on520801   6.282   6.329   4.995 -0.1365  0.2685 -0.4035
 3583ntf    on520802   6.476   6.224   5.114 -0.4468 -0.0610  0.4227
 3583ntf    fn420803   6.493   6.294   4.802  0.2133  0.0475 -0.1895
 3583ntf    fn420804   6.498   6.497   4.868 -0.9324 -0.3576 -0.1646
 3583ntf    fn420805   6.642   6.369   4.942  0.1319  0.1835 -0.0271
 3584ntf    cn120806   2.578   3.992   2.473  0.2645  0.3680  0.4219
 3584ntf    sn220807   2.663   4.014   2.314 -0.1121  0.1172  0.1839
 3584ntf    nn320808   2.617   3.891   2.228  0.5203 -0.2222  0.3238
 3584ntf    sn220809   2.702   3.775   2.166  0.1281 -0.3060 -0.0669
 3584ntf    cn120810   2.571   3.656   2.126 -0.1685  0.0105 -0.0424
 3584ntf    fn420811   2.617   4.065   2.576  0.4507  0.3808  0.3426
 3584ntf    fn420812   2.449   4.014   2.455  0.3282  0.5905  0.2371
 3584ntf    fn420813   2.584   3.872   2.529 -0.3286  0.0627 -0.1528
 3584ntf    on520814   2.621   4.142   2.263  0.7223  0.1228 -0.5144
 3584ntf    on520815   2.798   4.004   2.362 -0.0831  0.0045  0.0781
 3584ntf    on520816   2.783   3.702   2.261  0.2812 -0.7302 -0.5204
 3584ntf    on520817   2.764   3.800   2.038 -0.2060 -0.2527 -0.2197
 3584ntf    fn420818   2.498   3.617   2.230  0.1803  0.1461  0.2581
 3584ntf    fn420819   2.498   3.694   2.023 -0.6864 -0.1775  0.2531
 3584ntf    fn420820   2.629   3.546   2.080 -0.0179 -0.2448  0.7323
 3585ntf    cn120821   0.707   2.402   7.037  0.4204 -0.5045  0.1150
 3585ntf    sn220822   0.540   2.430   6.970  0.6648  0.1266 -0.2335
 3585ntf    nn320823   0.502   2.290   6.909  0.1744  0.0857  0.1594
 3585ntf    sn220824   0.416   2.175   6.972 -0.2349  0.1371 -0.3007
 3585ntf    cn120825   0.477   2.025   6.888  0.5289  0.3475 -0.1330
 3585ntf    fn420826   0.797   2.369   6.946  0.3208 -0.2270 -0.0847
 3585ntf    fn420827   0.753   2.503   7.109 -0.2598  0.0637 -0.2416
 3585ntf    fn420828   0.710   2.296   7.117 -0.4294 -0.5065  0.1529
 3585ntf    on520829   0.457   2.475   7.079  0.5428 -0.0153 -0.2680
 3585ntf    on520830   0.569   2.527   6.867  0.2628  0.3091 -0.1736
 3585ntf    on520831   0.277   2.174   6.935 -0.3690 -0.4715  0.2054
 3585ntf    on520832   0.455   2.152   7.109  0.2451 -0.0836 -0.4733
 3585ntf    fn420833   0.431   1.910   6.933 -0.0725  0.6268 -0.0215
 3585ntf    fn420834   0.451   2.022   6.758  0.2051 -0.1437 -0.0605
 3585ntf    fn420835   0.608   2.020   6.899  0.4952 -0.1535  0.0435
 3586ntf    cn120836   2.904   1.435   5.441 -0.1191  0.2179  0.5162
 3586ntf    sn220837   2.767   1.446   5.323  0.1519 -0.3979  0.1415
 3586ntf    nn320838   2.646   1.393   5.408  0.4217 -0.6398  0.3763
 3586ntf    sn220839   2.588   1.252   5.445 -0.0205 -0.5538  0.0136
 3586ntf    cn120840   2.555   1.281   5.621  0.1430  0.0280 -0.0473
 3586ntf    fn420841   2.924   1.310   5.479 -0.7200  0.1122  0.4879
 3586ntf    fn420842   3.022   1.479   5.400 -0.2701  0.0491 -0.1080
 3586ntf    fn420843   2.889   1.492   5.560  0.3760 -0.6348  0.9970
 3586ntf    on520844   2.751   1.588   5.302  0.3905 -0.3505  0.2760
 3586ntf    on520845   2.814   1.368   5.211  0.6431  0.2435 -0.1072
 3586ntf    on520846   2.690   1.151   5.454  0.5602  0.0189 -0.0325
 3586ntf    on520847   2.457   1.228   5.389  0.0516  0.0144 -0.4061
 3586ntf    fn420848   2.506   1.175   5.685  0.0642  0.1002  0.0120
 3586ntf    fn420849   2.664   1.318   5.687  0.2988 -0.1395 -0.2087
 3586ntf    fn420850   2.465   1.377   5.635  0.4892  0.3773 -0.1987
 3587ntf    cn120851   1.180   4.624   4.838  0.2308 -0.3831  0.3075
 3587ntf    sn220852   1.360   4.649   4.819  0.1797 -0.1540  0.1183
 3587ntf    nn320853   1.364   4.769   4.919  0.3821 -0.2506  0.2249
 3587ntf    sn220854   1.456   4.826   5.034  0.0581 -0.0826  0.4025
 3587ntf    cn120855   1.388   4.739   5.178  0.3931 -0.2384  0.4669
 3587ntf    fn420856   1.135   4.598   4.959 -0.2430 -0.3227  0.1444
 3587ntf    fn420857   1.119   4.732   4.791  0.0572 -0.2827  0.7648
 3587ntf    fn420858   1.146   4.525   4.757  0.8068 -0.5648  0.2798
 3587ntf    on520859   1.425   4.527   4.861  0.5357 -0.0501 -0.1253
 3587ntf    on520860   1.369   4.695   4.682  0.5183  0.0635  0.2140
 3587ntf    on520861   1.426   4.965   5.057 -0.9801 -0.2197 -0.0397
 3587ntf    on520862   1.595   4.789   5.022 -0.0832 -0.2165 -1.0542
 3587ntf    fn420863   1.274   4.791   5.220  0.3040 -0.4671  0.5129
 3587ntf    fn420864   1.361   4.614   5.143  0.2345 -0.0421 -0.1206
 3587ntf    fn420865   1.465   4.730   5.285  0.3449 -0.0759  0.5154
 3588ntf    cn120866   0.013   0.648   0.556 -0.0876  0.2500 -0.4891
 3588ntf    sn220867  -0.104   0.775   0.499 -0.5696  0.0879  0.1261
 3588ntf    nn320868  -0.000   0.878   0.443 -0.6131 -0.1054 -0.3128
 3588ntf    sn220869   0.030   0.921   0.295 -0.0342 -0.0165 -0.1709
 3588ntf    cn120870  -0.118   1.010   0.238 -0.2728 -0.1560  0.2299
 3588ntf    fn420871   0.081   0.597   0.455  0.3527  0.3743 -0.2575
 3588ntf    fn420872   0.098   0.696   0.645 -0.4571  0.2492 -0.1323
 3588ntf    fn420873  -0.054   0.548   0.612  0.6579  0.2404  0.4047
 3588ntf    on520874  -0.192   0.716   0.401 -0.2539 -0.3086  0.0740
 3588ntf    on520875  -0.158   0.823   0.624  0.5699 -0.6210  0.9148
 3588ntf    on520876   0.035   0.814   0.197  0.5393 -0.0562 -0.1020
 3588ntf    on520877   0.141   1.012   0.283 -0.0401  0.0588  0.3507
 3588ntf    fn420878  -0.123   1.047   0.111  0.4756 -0.1539  0.1945
 3588ntf    fn420879  -0.229   0.942   0.258 -0.5032  0.1909  0.1322
 3588ntf    fn420880  -0.132   1.127   0.297 -0.1491  0.0935 -0.2299
 3589ntf    cn120881   6.213   6.576   5.819 -0.0179 -0.6721  0.3633
 3589ntf    sn220882   6.173   6.460   5.953 -0.5021 -0.5300  0.3428
 3589ntf    nn320883   6.301   6.479   6.042 -0.1380 -0.7354 -0.1337
 3589ntf    sn220884   6.423   6.383   6.066  0.4080 -0.0413 -0.0961
 3589ntf    cn120885   6.352   6.293   6.207 -0.2426  0.1366 -0.3063
 3589ntf    fn420886   6.278   6.683   5.862 -0.1177 -0.3995 -0.1497
 3589ntf    fn420887   6.298   6.517   5.736  0.1679  0.5145 -0.3145
 3589ntf    fn420888   6.107   6.615   5.751  0.4643  0.5257  0.2703
 3589ntf    on520889   6.056   6.515   6.018 -0.1465 -0.2692  0.7699
 3589ntf    on520890   6.151   6.330   5.896  0.2316 -0.5301  0.0508
 3589ntf    on520891   6.541   6.448   6.117  0.2017  0.1395  0.1523
 3589ntf    on520892   6.440   6.281   5.966 -0.2622 -0.0354 -0.2234
 3589ntf    fn420893   6.437   6.215   6.272 -0.3535  0.3237  0.0658
 3589ntf    fn420894   6.291   6.376   6.291  0.5417  0.1143  0.2958
 3589ntf    fn420895   6.263   6.209   6.157 -0.3835 -0.4500  0.8959
 3590ntf    cn120896   0.149   0.008   2.569  0.1652  0.0211 -0.2117
 3590ntf    sn220897   0.181   0.173   2.638 -0.0677 -0.0016 -0.0508
 3590ntf    nn320898   0.184   0.266   2.513 -0.2435  0.2408  0.1247
 3590ntf    sn220899   0.063   0.337   2.441 -0.1686 -0.0599 -0.3002
 3590ntf    cn120900   0.152   0.385   2.290  0.0706  0.1443 -0.0948
 3590ntf    fn420901   0.175  -0.093   2.650 -0.5438 -0.1606 -0.2016
 3590ntf    fn420902   0.021   0.003   2.535  0.1238  0.2236 -0.0824
 3590ntf    fn420903   0.221  -0.004   2.458 -0.0243 -0.5959 -0.2719
 3590ntf    on520904   0.075   0.188   2.735  0.6993 -0.1375  0.8280
 3590ntf    on520905   0.316   0.159   2.688  0.0692  0.6186 -0.2409
 3590ntf    on520906   0.025   0.460   2.504  0.3025 -0.0145 -0.1013
 3590ntf    on520907  -0.043   0.259   2.382  0.5078 -1.1019 -0.1749
 3590ntf    fn420908   0.066   0.430   2.200 -0.1927  0.5519  0.3541
 3590ntf    fn420909   0.243   0.479   2.309 -0.0383  0.1634  0.3289
 3590ntf    fn420910   0.207   0.279   2.234  0.6758 -0.0831  0.9161
 3591ntf    cn120911   0.881   1.735   7.128 -0.2590  0.0484  0.0646
 3591ntf    sn220912   0.859   1.742   7.309 -0.4062  0.3256  0.0360
 3591ntf    nn320913   0.938   1.616   7.359 -0.3832  0.3942  0.1733
 3591ntf    sn220914   1.090   1.614   7.396 -0.2890 -0.0398 -0.2276
 3591ntf    cn120915   1.128   1.437   7.374  0.8138  0.2073 -0.3966
 3591ntf    fn420916   0.847   1.849   7.071  0.2430  0.0684 -0.1997
 3591ntf    fn420917   1.007   1.713   7.095 -0.3859 -0.2583 -0.2206
 3591ntf    fn420918   0.801   1.646   7.071 -0.0243 -0.0106 -0.1735
 3591ntf    on520919   0.922   1.869   7.337  0.9114 -0.2259 -0.3568
 3591ntf    on520920   0.717   1.724   7.324 -0.3600 -0.1428 -0.0742
 3591ntf    on520921   1.114   1.640   7.536 -0.2266 -0.1733 -0.2133
 3591ntf    on520922   1.175   1.682   7.302  0.3046 -0.4308  0.0177
 3591ntf    fn420923   1.040   1.360   7.437  0.4914  0.4134 -0.5888
 3591ntf    fn420924   1.116   1.400   7.247 -0.2013 -0.5081 -0.1098
 3591ntf    fn420925   1.247   1.392   7.408  0.7565  0.2822 -0.0988
 3592ntf    cn120926   0.986   1.643   4.576 -0.2817  0.4881 -0.1998
 3592ntf    sn220927   1.131   1.699   4.482  0.2463 -0.0462  0.2819
 3592ntf    nn320928   1.079   1.658   4.340  0.4677  0.2208  0.1214
 3592ntf    sn220929   1.016   1.740   4.222 -0.0294 -0.1504  0.1239
 3592ntf    cn120930   1.173   1.769   4.135 -0.2570  0.3025 -0.1360
 3592ntf    fn420931   0.966   1.513   4.558  0.4281  0.3881 -0.3166
 3592ntf    fn420932   1.004   1.654   4.707 -0.2319  0.2790 -0.1872
 3592ntf    fn420933   0.869   1.696   4.545 -0.6460  0.0994  0.4660
 3592ntf    on520934   1.141   1.839   4.518  0.0898 -0.0421  0.3121
 3592ntf    on520935   1.240   1.614   4.523  0.1979  0.0453  0.6053
 3592ntf    on520936   0.971   1.874   4.247 -0.3646 -0.1367 -0.5438
 3592ntf    on520937   0.942   1.662   4.125  0.2197  0.1902 -0.3418
 3592ntf    fn420938   1.261   1.825   4.217 -0.6662 -0.0139  0.5212
 3592ntf    fn420939   1.227   1.659   4.086 -0.0003  0.3754 -0.0193
 3592ntf    fn420940   1.165   1.858   4.037 -0.1216  0.0816 -0.3486
 3593ntf    cn120941   6.487   5.585   3.927  0.2923 -0.2719 -0.1983
 3593ntf    sn220942   6.499   5.449   4.047  0.1930 -0.1618 -0.0629
 3593ntf    nn320943   6.577   5.516   4.165  0.2392  0.5050 -0.4661
 3593ntf    sn220944   6.686   5.444   4.252 -0.2703 -0.3164 -0.4927
 3593ntf    cn120945   6.831   5.443   4.144  0.2071  0.1895  0.1309
 3593ntf    fn420946   6.424   5.691   3.974  0.3738 -0.3739  0.1402
 3593ntf    fn420947   6.598   5.638   3.877  0.3302  0.0508  0.2265
 3593ntf    fn420948   6.419   5.554   3.818  0.0147 -0.0636 -0.0853
 3593ntf    on520949   6.359   5.428   4.073  0.1707  0.3639  0.2573
 3593ntf    on520950   6.557   5.344   3.966  0.1002 -0.2009 -0.0794
 3593ntf    on520951   6.656   5.307   4.286  0.1365 -0.1496  0.5876
 3593ntf    on520952   6.728   5.528   4.362 -0.5983 -0.5828 -0.1599
 3593ntf    fn420953   6.836   5.557   4.076  0.0785 -0.0390 -0.2667
 3593ntf    fn420954   6.944   5.440   4.213  0.1972  0.6749  0.1685
 3593ntf    fn420955   6.833   5.348   4.052 -0.1878  0.3645 -0.0574
 3594ntf    cn120956   3.404   5.916   4.667  0.4311  0.0511  0.2080
 3594ntf    sn220957   3.446   6.091   4.642  0.1118  0.0752 -0.1762
 3594ntf    nn320958   3.511   6.078   4.500  0.3948  0.3586 -0.0726
 3594ntf    sn220959   3.486   6.149   4.363  0.0756  0.1495 -0.1235
 3594ntf    cn120960   3.606   6.283   4.389  0.1511  0.0607 -0.0127
 3594ntf    fn420961   3.350   5.893   4.785  0.1292  0.2798  0.1156
 3594ntf    fn420962   3.323   5.870   4.573  0.2701 -0.2302  0.4856
 3594ntf    fn420963   3.514   5.842   4.660  0.1915 -0.3094  0.2094
 3594ntf    on520964   3.318   6.158   4.651 -0.0526 -0.2305 -0.2233
 3594ntf    on520965   3.551   6.112   4.738  0.3346 -0.1972 -0.3600
 3594ntf    on520966   3.359   6.217   4.356 -0.0583 -0.0666  0.1954
 3594ntf    on520967   3.529   6.071   4.249 -0.0238  0.1326 -0.1493
 3594ntf    fn420968   3.723   6.240   4.431  0.1732 -0.3875 -0.5184
 3594ntf    fn420969   3.629   6.346   4.275 -0.2262  0.0210 -0.1115
 3594ntf    fn420970   3.561   6.376   4.472  0.0228  0.0352 -0.0537
 3595ntf    cn120971   3.176   3.188   5.502  0.4625 -0.3076 -0.0769
 3595ntf    sn220972   3.007   3.146   5.452  0.1714  0.2517  0.4238
 3595ntf    nn320973   3.016   2.993   5.418 -0.0592  0.4331 -0.4812
 3595ntf    sn220974   2.941   2.919   5.301 -0.0443 -0.1412 -0.1283
 3595ntf    cn120975   2.895   2.760   5.377  0.0555  0.2227  0.7132
 3595ntf    fn420976   3.205   3.151   5.625  0.2457  0.3455  0.1754
 3595ntf    fn420977   3.266   3.133   5.422  0.2425 -0.2869 -0.3380
 3595ntf    fn420978   3.195   3.319   5.504  0.0001 -0.2303 -0.5566
 3595ntf    on520979   2.920   3.172   5.564 -0.3304  0.5364 -0.0258
 3595ntf    on520980   2.977   3.229   5.337 -0.5660 -0.0239  0.4112
 3595ntf    on520981   3.029   2.877   5.195  0.4096  0.7069 -0.0938
 3595ntf    on520982   2.811   2.971   5.267  0.0589  0.4959  0.4394
 3595ntf    fn420983   2.841   2.682   5.285  0.2643  0.2330  0.5808
 3595ntf    fn420984   2.998   2.699   5.433 -0.1064 -0.4833  0.2659
 3595ntf    fn420985   2.803   2.785   5.468 -0.3301 -0.0507  0.4076
 3596ntf    cn120986   6.392   0.130   2.776 -0.2079 -0.5662 -0.0970
 3596ntf    sn220987   6.314   0.061   2.627 -0.3411  0.0120 -0.2955
 3596ntf    nn320988   6.207   0.162   2.572 -0.3042  0.0490 -0.2989
 3596ntf    sn220989   6.095   0.235   2.655 -0.0182  0.3560 -0.1774
 3596ntf    cn120990   5.981   0.260   2.517 -0.0605  0.0470 -0.1988
 3596ntf    fn420991   6.312   0.108   2.878 -0.0847 -0.3099  0.0559
 3596ntf    fn420992   6.509   0.077   2.809  0.2330  0.1606 -0.4666
 3596ntf    fn420993   6.414   0.259   2.756 -0.0098 -0.6383 -0.3511
 3596ntf    on520994   6.424   0.061   2.532  0.0824 -0.1598  0.1903
 3596ntf    on520995   6.275  -0.067   2.680  0.3795 -0.1940 -0.2432
 3596ntf    on520996   6.135   0.368   2.694  0.6145  0.3085 -0.6423
 3596ntf    on520997   6.030   0.150   2.752  0.4483  0.0630 -0.1142
 3596ntf    fn420998   5.937   0.142   2.476  0.5220 -0.0989 -0.4107
 3596ntf    fn420999   5.870   0.327   2.546  0.0602 -0.0335  0.4628
 3596ntf    fn421000   6.037   0.317   2.412 -0.5948  0.6470 -0.1633
 3597ntf    cn121001   1.939   3.485   1.388  0.0233 -0.0553 -0.5164
 3597ntf    sn221002   2.053   3.363   1.458  0.2697  0.4355 -0.0496
 3597ntf    nn321003   2.081   3.437   1.593  0.2512  0.3308  0.0119
 3597ntf    sn221004   2.219   3.502   1.632  0.4419 -0.0191 -0.0828
 3597ntf    cn121005   2.162   3.651   1.718 -0.2159 -0.2452 -0.1201
 3597ntf    fn421006   1.991   3.594   1.335 -0.4702  0.3093 -0.2665
 3597ntf    fn421007   1.866   3.437   1.289 -0.1765  0.2665 -0.5274
 3597ntf    fn421008   1.849   3.526   1.477  0.1729 -0.4754 -0.1670
 3597ntf    on521009   1.983   3.238   1.474 -0.2030  0.7346  0.2446
 3597ntf    on521010   2.166   3.357   1.369  0.6590  0.0782  0.4610
 3597ntf    on521011   2.300   3.563   1.530 -0.0621  0.1470 -0.3844
 3597ntf    on521012   2.284   3.433   1.741 -0.8079 -0.4924  0.3819
 3597ntf    fn421013   2.106   3.741   1.639 -0.4431 -0.0564  0.2539
 3597ntf    fn421014   2.077   3.636   1.818  0.3457 -0.1138  0.3843
 3597ntf    fn421015   2.269   3.714   1.765 -0.6399  0.2419  0.2006
 3598ntf    cn121016   1.795   6.972   7.074  0.2940 -0.2274  0.6558
 3598ntf    sn221017   1.680   6.833   7.055 -0.0056  0.0891  0.1487
 3598ntf    nn321018   1.648   6.799   7.205  0.1047  0.5358  0.2738
 3598ntf    sn221019   1.679   6.674   7.294 -0.5236  0.0237 -0.2120
 3598ntf    cn121020   1.518   6.639   7.370 -0.3905 -0.0990  0.0172
 3598ntf    fn421021   1.829   7.037   6.964 -0.6564 -0.1671  0.3893
 3598ntf    fn421022   1.757   7.071   7.153  0.4040 -0.1003  0.5503
 3598ntf    fn421023   1.903   6.924   7.133  0.7694 -0.5894 -0.4898
 3598ntf    on521024   1.569   6.889   6.981 -0.2881 -0.1603  0.3828
 3598ntf    on521025   1.751   6.730   6.983 -0.1278 -0.0138  0.1753
 3598ntf    on521026   1.752   6.708   7.414 -0.8336  0.1106 -0.0486
 3598ntf    on521027   1.712   6.552   7.225  0.0086 -0.2199  0.4621
 3598ntf    fn421028   1.490   6.719   7.471 -0.6436  0.5142 -0.5264
 3598ntf    fn421029   1.423   6.657   7.279 -0.3287  0.1468 -0.0001
 3598ntf    fn421030   1.499   6.513   7.407 -0.1347 -0.2702 -0.4245
 3599ntf    cn121031   1.805   6.707   2.037 -0.4200 -0.0483 -0.5214
 3599ntf    sn221032   1.875   6.628   2.185 -0.1555  0.1152 -0.5599
 3599ntf    nn321033   2.023   6.681   2.184 -0.2618  0.4238 -0.3709
 3599ntf    sn221034   2.069   6.825   2.226  0.2605  0.1929 -0.1366
 3599ntf    cn121035   2.119   6.782   2.395  0.0137  0.0496 -0.0983
 3599ntf    fn421036   1.852   6.661   1.922 -0.1850 -1.1929  0.0232
 3599ntf    fn421037   1.676   6.681   2.025 -0.5125  0.1973 -0.0785
 3599ntf    fn421038   1.825   6.838   2.040  0.1140 -0.1435  0.6441
 3599ntf    on521039   1.801   6.678   2.298  0.0745  0.5743 -0.6065
 3599ntf    on521040   1.873   6.487   2.157 -0.1767 -0.0800  0.4048
 3599ntf    on521041   1.960   6.919   2.238 -0.2281 -0.3399 -0.3356
 3599ntf    on521042   2.187   6.865   2.154  0.3221 -0.0981 -0.1980
 3599ntf    fn421043   2.219   6.697   2.413 -0.1393 -0.1351 -0.1187
 3599ntf    fn421044   2.169   6.888   2.458  0.1828  0.2534 -0.5728
 3599ntf    fn421045   2.018   6.731   2.464 -0.2042 -0.2269 -0.6236
 3600ntf    cn121046   5.765   1.877   5.977  0.1692  0.0520 -0.2685
 3600ntf    sn221047   5.671   2.031   5.956  0.4211  0.2393 -0.0210
 3600ntf    nn321048   5.682   2.049   5.801 -0.1941 -0.0188 -0.1009
 3600ntf    sn221049   5.805   2.065   5.704 -0.3504 -0.0052 -0.2981
 3600ntf    cn121050   5.752   2.219   5.623 -0.5495  0.0172 -0.1284
 3600ntf    fn421051   5.706   1.784   6.051  0.7451 -0.5460 -0.5453
 3600ntf    fn421052   5.780   1.817   5.860  0.6710  0.3790 -0.3759
 3600ntf    fn421053   5.887   1.889   6.026 -0.0070 -0.0392  0.2014
 3600ntf    on521054   5.534   1.999   5.989  0.4467 -0.0209 -0.1660
 3600ntf    on521055   5.741   2.121   6.044  0.2460  0.1424  0.2177
 3600ntf    on521056   5.804   1.965   5.600 -0.5985 -0.4674  0.1410
 3600ntf    on521057   5.927   2.098   5.774 -0.6614 -0.1606  0.3227
 3600ntf    fn421058   5.778   2.320   5.704 -1.0281  0.0045  0.0398
 3600ntf    fn421059   5.812   2.234   5.505 -0.0336  0.2892  0.1654
 3600ntf    fn421060   5.622   2.219   5.604 -0.5236  0.1217 -0.3073
 3601ntf    cn121061   5.632   5.881   4.811 -0.1136  0.1330 -0.0188
 3601ntf    sn221062   5.569   5.914   4.978 -0.1695  0.2027 -0.0531
 3601ntf    nn321063   5.705   5.884   5.052 -0.1060 -0.0996 -0.2922
 3601ntf    sn221064   5.750   5.772   5.152  0.1754  0.1787 -0.1062
 3601ntf    cn121065   5.672   5.834   5.304 -0.0928 -0.2737 -0.0550
 3601ntf    fn421066   5.553   5.909   4.709 -0.4565 -0.4711  0.0787
 3601ntf    fn421067   5.735   5.965   4.803  0.2075 -0.2544  0.0276
 3601ntf    fn421068   5.677   5.757   4.801  0.0140  0.2015 -0.3085
 3601ntf    on521069   5.533   6.053   4.987  0.6479  0.4043  0.2519
 3601ntf    on521070   5.466   5.814   4.989  0.7210 -0.6369  0.9245
 3601ntf    on521071   5.889   5.781   5.186 -0.1447  0.5903  1.1499
 3601ntf    on521072   5.699   5.640   5.120 -0.7415  0.4789  0.0807
 3601ntf    fn421073   5.715   5.952   5.345  0.0408 -0.4298  0.2614
 3601ntf    fn421074   5.541   5.849   5.297  0.0208  0.7564 -0.1323
 3601ntf    fn421075   5.709   5.756   5.405  0.1133  0.1628  0.2135
 3602ntf    cn121076   2.089   4.757   0.174 -0.1120 -0.3200 -0.2119
 3602ntf    sn221077   2.191   4.662   0.058  0.0885  0.0882 -0.3733
 3602ntf    nn321078   2.218   4.534   0.145 -0.3582 -0.0386 -0.4182
 3602ntf    sn221079   2.179   4.385   0.115  0.1217 -0.2032 -0.2358
 3602ntf    cn121080   2.026   4.354   0.209  0.0927  0.1746 -0.1539
 3602ntf    fn421081   2.139   4.766   0.296  0.3796 -0.6063 -0.3909
 3602ntf    fn421082   2.082   4.885   0.138  0.0244 -0.2519  0.0067
 3602ntf    fn421083   1.964   4.716   0.188 -0.3653  0.2888 -0.5943
 3602ntf    on521084   2.119   4.640  -0.065 -0.0431  0.2382 -0.3229
 3602ntf    on521085   2.315   4.734   0.042  0.2121 -0.0301  0.0479
 3602ntf    on521086   2.274   4.290   0.165  0.6930  0.4011 -0.1619
 3602ntf    on521087   2.129   4.365  -0.018  0.4337  0.1185 -0.4012
 3602ntf    fn421088   2.050   4.323   0.335  0.3739  0.3517 -0.1636
 3602ntf    fn421089   1.949   4.461   0.222 -0.0844 -0.0008  0.2772
 3602ntf    fn421090   1.958   4.249   0.166  0.0658  0.1239  0.0127
 3603ntf    cn121091   3.646   0.126   3.070 -0.0058  0.0435 -0.0410
 3603ntf    sn221092   3.701   0.200   2.913  0.1583  0.3102  0.1421
 3603ntf    nn321093   3.653   0.347   2.942  0.1169  0.2772  0.2404
 3603ntf    sn221094   3.510   0.406   2.915 -0.0099 -0.0569  0.1812
 3603ntf    cn121095   3.537   0.461   2.744 -0.1977 -0.1223  0.1305
 3603ntf    fn421096   3.667   0.202   3.176  0.8032 -0.4232  0.1464
 3603ntf    fn421097   3.516   0.114   3.053  0.0732 -0.0615 -0.6107
 3603ntf    fn421098   3.699   0.006   3.090 -0.2119 -0.0547 -0.0796
 3603ntf    on521099   3.845   0.190   2.914  0.1537  0.2313 -0.0303
 3603ntf    on521100   3.623   0.133   2.812  0.1845 -0.0338  0.3509
 3603ntf    on521101   3.480   0.532   2.977 -0.1148  0.0715 -0.1281
 3603ntf    on521102   3.402   0.313   2.893 -0.6632  0.5905  0.6398
 3603ntf    fn421103   3.546   0.369   2.650 -0.0268 -0.2969  0.3168
 3603ntf    fn421104   3.443   0.547   2.706 -0.0433  0.4111  0.9256
 3603ntf    fn421105   3.647   0.534   2.735 -0.4054  0.2797  0.7260
 3604ntf    cn121106   3.472   6.823   1.832 -0.0317 -0.1280 -0.0162
 3604ntf    sn221107   3.409   6.959   1.728  0.5183 -0.1005 -0.3197
 3604ntf    nn321108   3.513   6.948   1.611  0.6071  0.2053 -0.2674
 3604ntf    sn221109   3.552   7.057   1.505  0.3695  0.2043 -0.3544
 3604ntf    cn121110   3.723   7.062   1.565  0.2749 -0.7151  0.0048
 3604ntf    fn421111   3.406   6.814   1.946 -0.4626  0.5194 -0.2056
 3604ntf    fn421112   3.467   6.702   1.780  0.1919 -0.1342 -0.0216
 3604ntf    fn421113   3.600   6.848   1.855 -0.0717 -0.0090  0.0848
 3604ntf    on521114   3.274   6.922   1.692  0.1799  0.8611 -0.0546
 3604ntf    on521115   3.425   7.071   1.817  0.3385 -0.8685  0.6998
 3604ntf    on521116   3.499   7.189   1.531  0.5347  0.1697  0.1763
 3604ntf    on521117   3.552   7.008   1.369  0.5694  0.4790 -0.4548
 3604ntf    fn421118   3.804   6.960   1.541  0.0669 -0.9217  0.1824
 3604ntf    fn421119   3.789   7.161   1.506  0.4595 -0.3783  0.7611
 3604ntf    fn421120   3.721   7.088   1.695  0.2444  0.4534 -0.2184
 3605ntf    cn121121   4.388   0.579   4.012  0.5644 -0.1958 -0.0612
 3605ntf    sn221122   4.453   0.431   4.094  0.0417 -0.2924  0.1874
 3605ntf    nn321123   4.443   0.328   3.977  0.0385 -0.1172  0.0338
 3605ntf    sn221124   4.546   0.211   3.958  0.0337 -0.0393 -0.4942
 3605ntf    cn121125   4.635   0.281   3.815  0.0762  0.2424 -0.3294
 3605ntf    fn421126   4.354   0.678   4.092 -0.0978  0.1392 -0.7375
 3605ntf    fn421127   4.485   0.624   3.934  0.5168 -0.1870 -0.1161
 3605ntf    fn421128   4.288   0.542   3.933  0.4853  0.0100 -0.0563
 3605ntf    on521129   4.589   0.471   4.121 -0.3071  1.3351 -0.3830
 3605ntf    on521130   4.367   0.415   4.209 -0.0438 -0.2301  0.1321
 3605ntf    on521131   4.475   0.099   3.902 -0.0958 -0.1440 -0.1204
 3605ntf    on521132   4.645   0.195   4.061  0.1060 -0.3353 -0.6092
 3605ntf    fn421133   4.712   0.380   3.857 -0.0442  0.3128 -0.2719
 3605ntf    fn421134   4.712   0.195   3.752  0.1652  0.0361  0.0530
 3605ntf    fn421135   4.557   0.320   3.715  0.1110 -0.0208 -0.4580
 3606ntf    cn121136   5.993   1.393   5.187  0.1706  0.2774  0.5661
 3606ntf    sn221137   5.993   1.575   5.186 -0.1507  0.2756 -0.0990
 3606ntf    nn321138   6.135   1.602   5.124 -0.2051 -0.0013 -0.3491
 3606ntf    sn221139   6.179   1.650   4.981  0.0820  0.1750 -0.2037
 3606ntf    cn121140   6.203   1.826   5.020  0.4095  0.1745 -0.4047
 3606ntf    fn421141   5.875   1.339   5.215  0.0657 -0.0699 -0.5170
 3606ntf    fn421142   6.022   1.353   5.064 -0.1436  0.7908  0.3259
 3606ntf    fn421143   6.085   1.345   5.269  0.4981 -0.3946 -0.1781
 3606ntf    on521144   5.877   1.610   5.108  0.2073  0.5137 -0.5264
 3606ntf    on521145   5.988   1.597   5.328  0.4953  0.1033 -0.0456
 3606ntf    on521146   6.081   1.646   4.875  0.0737  0.5489 -0.2124
 3606ntf    on521147   6.308   1.595   4.949 -0.0346 -0.2715  0.0771
 3606ntf    fn421148   6.088   1.873   5.067  0.3283  0.1968 -0.6234
 3606ntf    fn421149   6.300   1.856   5.104 -0.0708  1.1669 -0.1817
 3606ntf    fn421150   6.230   1.894   4.909 -0.5245  0.1300 -0.6723
 3607ntf    cn121151   5.473   4.345   4.274 -0.1215 -0.4745 -0.0330
 3607ntf    sn221152   5.633   4.295   4.204  0.0349 -0.1479  0.0928
 3607ntf    nn321153   5.714   4.250   4.331 -0.1513 -0.1986  0.1944
 3607ntf    sn221154   5.829   4.143   4.342  0.3272  0.2884  0.0159
 3607ntf    cn121155   5.964   4.254   4.291  0.6793 -0.0488  0.2084
 3607ntf    fn421156   5.401   4.254   4.338 -0.1337  0.1937  0.9184
 3607ntf    fn421157   5.485   4.444   4.361  0.5951 -0.3010 -0.3236
 3607ntf    fn421158   5.383   4.380   4.183 -0.3265  0.1381  0.3974
 3607ntf    on521159   5.599   4.190   4.111  0.7807 -0.2568 -0.0679
 3607ntf    on521160   5.692   4.419   4.159  0.7106 -0.3559  0.3794
 3607ntf    on521161   5.823   4.038   4.244 -0.6846 -0.2058  0.5876
 3607ntf    on521162   5.852   4.104   4.479  0.6294  0.6910  0.0842
 3607ntf    fn421163   5.948   4.304   4.169  0.6191 -0.1693  0.1657
 3607ntf    fn421164   5.990   4.352   4.375 -0.4098  0.1899  0.2796
 3607ntf    fn421165   6.070   4.175   4.292  0.5645 -0.2114 -0.1054
 3608ntf    cn121166   4.783   0.556   5.778 -0.1331 -0.4034  0.2169
 3608ntf    sn221167   4.625   0.644   5.790  0.1370  0.1054  0.0734
 3608ntf    nn321168   4.680   0.786   5.827  0.1446  0.0291  0.3615
 3608ntf    sn221169   4.743   0.826   5.965  0.2294  0.5422  0.1791
 3608ntf    cn121170   4.611   0.929   6.033 -0.4230 -0.1442 -0.0354
 3608ntf    fn421171   4.774   0.444   5.708 -0.4478 -0.4062  0.2615
 3608ntf    fn421172   4.876   0.634   5.727 -0.1883 -0.3074  0.2635
 3608ntf    fn421173   4.834   0.515   5.893  0.6482 -0.1612 -0.0368
 3608ntf    on521174   4.575   0.628   5.656  0.0304 -0.1491  0.1409
 3608ntf    on521175   4.551   0.571   5.891  0.1200  0.0999  0.0569
 3608ntf    on521176   4.856   0.916   5.955  0.4043  0.2755 -0.3151
 3608ntf    on521177   4.753   0.718   6.061 -0.2779 -0.0099 -0.3787
 3608ntf    fn421178   4.615   1.038   5.959  0.5281 -0.2307 -0.1129
 3608ntf    fn421179   4.490   0.877   6.024 -0.2399 -0.5467 -0.1832
 3608ntf    fn421180   4.631   0.975   6.156  0.0157  0.3962 -0.3031
 3609ntf    cn121181   0.138   1.803   0.947 -0.0975  0.0878  0.1134
 3609ntf    sn221182   0.234   1.680   0.854  0.0732  0.4130 -0.1453
 3609ntf    nn321183   0.373   1.751   0.875 -0.1170  0.3778  1.3710
 3609ntf    sn221184   0.508   1.707   0.941  0.4540  0.1361  0.0709
 3609ntf    cn121185   0.622   1.801   0.835  0.2157  0.2421 -0.0905
 3609ntf    fn421186   0.014   1.762   0.964 -0.0436 -0.0308  0.2180
 3609ntf    fn421187   0.181   1.815   1.072 -0.3755 -0.1677  0.2338
 3609ntf    fn421188   0.139   1.928   0.902 -0.0049  0.1316  0.2335
 3609ntf    on521189   0.208   1.555   0.922  0.1993  0.2758 -0.3488
 3609ntf    on521190   0.182   1.690   0.721 -0.0322 -0.2239 -0.1561
 3609ntf    on521191   0.558   1.575   0.913  0.2391  0.0746 -0.0191
 3609ntf    on521192   0.537   1.760   1.072 -0.9033  0.3337  0.3033
 3609ntf    fn421193   0.745   1.809   0.883  0.2960  0.9495 -0.3978
 3609ntf    fn421194   0.636   1.739   0.719 -0.5937 -0.0137 -0.0598
 3609ntf    fn421195   0.574   1.922   0.808 -0.2254  0.0407 -0.2299
 3610ntf    cn121196   4.000   1.321   4.000  0.0491  0.2662 -0.1299
 3610ntf    sn221197   4.027   1.167   4.093 -0.2521  0.1788 -0.1872
 3610ntf    nn321198   4.077   1.072   3.979 -0.1843 -0.5453  0.4356
 3610ntf    sn221199   4.004   0.956   3.902 -0.0978 -0.1224 -0.2902
 3610ntf    cn121200   4.084   1.003   3.745  0.3951  0.2485  0.0717
 3610ntf    fn421201   3.965   1.424   4.075  0.1484 -0.2863  0.6966
 3610ntf    fn421202   4.106   1.354   3.928  0.2579  0.0664  0.0833
 3610ntf    fn421203   3.900   1.310   3.914  0.2056  0.1929 -0.3015
 3610ntf    on521204   4.131   1.210   4.183 -0.2856  0.3212 -0.2155
 3610ntf    on521205   3.902   1.132   4.156 -0.2889  0.0408 -0.3366
 3610ntf    on521206   3.861   0.967   3.886 -0.1251 -0.1126 -0.0494
 3610ntf    on521207   4.066   0.831   3.937 -0.3395 -0.0917  0.2518
 3610ntf    fn421208   4.076   1.132   3.719 -0.0450  0.1076 -0.4850
 3610ntf    fn421209   4.215   0.981   3.754  0.3405 -0.2612 -0.3400
 3610ntf    fn421210   4.032   0.939   3.642  0.4844  0.4322 -0.0870
 3611ntf    cn121211   3.814   4.030   1.401 -0.0727  0.2298  0.2878
 3611ntf    sn221212   3.877   4.115   1.253 -0.5375  0.1313  0.0313
 3611ntf    nn321213   3.953   3.995   1.186  0.1614  0.5032  0.1517
 3611ntf    sn221214   4.104   3.985   1.144  0.1595 -0.1867  0.2972
 3611ntf    cn121215   4.161   3.859   1.262  0.5085 -0.5077 -0.2162
 3611ntf    fn421216   3.908   3.956   1.459 -0.0969 -0.0475 -0.0216
 3611ntf    fn421217   3.763   4.119   1.484 -0.3482 -0.0533  0.4255
 3611ntf    fn421218   3.713   3.948   1.375 -0.0324  0.1972  0.2325
 3611ntf    on521219   3.750   4.154   1.195 -0.4463 -0.1004 -0.3273
 3611ntf    on521220   3.960   4.213   1.318 -0.1796 -0.1406 -0.0155
 3611ntf    on521221   4.186   4.100   1.171 -0.1977  0.0671  0.3119
 3611ntf    on521222   4.114   3.931   1.011 -0.3397 -0.2281  0.2744
 3611ntf    fn421223   4.082   3.753   1.257 -0.0639 -0.0921 -0.0894
 3611ntf    fn421224   4.280   3.805   1.237  0.6454 -0.5819  0.5718
 3611ntf    fn421225   4.169   3.906   1.385 -0.1608 -0.0253 -0.3568
 3612ntf    cn121226   6.090   1.859   3.338  0.1121 -0.0363 -0.4918
 3612ntf    sn221227   5.910   1.866   3.310  0.0230 -0.0529  0.0494
 3612ntf    nn321228   5.882   1.993   3.397  0.7936  0.0259  0.1893
 3612ntf    sn221229   5.812   2.011   3.536  0.1430 -0.0379 -0.1278
 3612ntf    cn121230   5.640   2.061   3.505  0.0480  0.0116  0.4662
 3612ntf    fn421231   6.146   1.756   3.278 -0.1082 -0.1002 -0.5905
 3612ntf    fn421232   6.146   1.970   3.292 -0.2937  0.2369 -0.3402
 3612ntf    fn421233   6.106   1.849   3.469 -0.4235 -0.1997 -0.4348
 3612ntf    on521234   5.907   1.890   3.167  0.3425 -0.3490 -0.0103
 3612ntf    on521235   5.857   1.743   3.365  0.2999 -0.3662 -0.3724
 3612ntf    on521236   5.861   2.126   3.609  0.0837 -0.3818  0.4640
 3612ntf    on521237   5.797   1.901   3.628 -0.7506  0.0775 -0.1218
 3612ntf    fn421238   5.640   2.164   3.421 -0.0739 -0.2318  0.1664
 3612ntf    fn421239   5.559   1.971   3.451  0.4044  0.1007 -0.2260
 3612ntf    fn421240   5.577   2.105   3.613 -0.2084 -0.5169  0.5361
 3613ntf    cn121241   6.660   3.917   3.159 -0.1541 -0.1140  0.3161
 3613ntf    sn221242   6.703   3.788   3.280  0.0097 -0.0152  0.3626
 3613ntf    nn321243   6.579   3.795   3.376 -0.1291 -0.4958  0.2196
 3613ntf    sn221244   6.445   3.713   3.374 -0.1451 -0.4644 -0.0932
 3613ntf    cn121245   6.332   3.853   3.351 -0.1600 -0.4830 -0.1350
 3613ntf    fn421246   6.759   3.937   3.074 -0.3011  0.0314  0.1797
 3613ntf    fn421247   6.558   3.878   3.084 -0.0104  0.3531 -0.1269
 3613ntf    fn421248   6.622   4.029   3.218  0.2590 -0.3636  1.0626
 3613ntf    on521249   6.705   3.677   3.188 -0.9792  0.2924 -0.0445
 3613ntf    on521250   6.824   3.842   3.338  0.0091  0.6132 -0.2122
 3613ntf    on521251   6.418   3.658   3.504 -0.1684  0.0945  0.1412
 3613ntf    on521252   6.419   3.631   3.258 -0.2291  0.2786 -0.6081
 3613ntf    fn421253   6.343   3.935   3.455  0.2751 -0.4833 -0.1815
 3613ntf    fn421254   6.357   3.924   3.242 -0.7346 -0.0349  0.0155
 3613ntf    fn421255   6.206   3.810   3.353 -0.3215 -0.0084  0.3501
 3614ntf    cn121256   3.724   1.764   4.191  0.3275 -0.2031 -0.0856
 3614ntf    sn221257   3.713   1.939   4.238  0.3152 -0.2288  0.0071
 3614ntf    nn321258   3.564   1.980   4.212  0.5627  0.7684  0.1094
 3614ntf    sn221259   3.425   1.911   4.240  0.7492  0.2584 -0.2130
 3614ntf    cn121260   3.385   2.002   4.392  0.1821 -0.0151 -0.1949
 3614ntf    fn421261   3.670   1.678   4.276 -0.3305  0.1311 -0.1567
 3614ntf    fn421262   3.657   1.738   4.080  0.0929 -0.5342  0.1301
 3614ntf    fn421263   3.840   1.707   4.162  0.3994 -0.0713 -0.0568
 3614ntf    on521264   3.741   1.941   4.379 -0.5819  0.3133  0.1880
 3614ntf    on521265   3.806   1.992   4.141 -0.3675  0.5663 -0.2314
 3614ntf    on521266   3.432   1.771   4.275 -0.2309  0.2273 -0.1258
 3614ntf    on521267   3.326   1.964   4.150  0.2318 -0.2239  0.0655
 3614ntf    fn421268   3.386   2.134   4.379  0.4926 -0.0269 -0.3065
 3614ntf    fn421269   3.265   1.973   4.439  0.4022  0.0639  0.4292
 3614ntf    fn421270   3.471   1.979   4.491 -0.1305  0.0338  0.0890
 3615ntf    cn121271   1.040   0.032   4.844 -0.1133  0.2136 -0.0343
 3615ntf    sn221272   1.055   0.213   4.839  0.2932  0.1807 -0.0290
 3615ntf    nn321273   1.045   0.231   4.683  0.5482 -0.3070 -0.1041
 3615ntf    sn221274   1.139   0.318   4.592  0.3486  0.1147  0.0925
 3615ntf    cn121275   1.016   0.375   4.471  0.3814 -0.0770 -0.0305
 3615ntf    fn421276   0.916  -0.013   4.837 -0.1043  0.2257 -0.2937
 3615ntf    fn421277   1.112  -0.022   4.746  0.3350  0.0118  0.4021
 3615ntf    fn421278   1.084  -0.019   4.958 -0.2245 -0.7517 -0.4088
 3615ntf    on521279   0.943   0.270   4.910 -0.0943 -0.6785  0.0631
 3615ntf    on521280   1.182   0.230   4.904 -0.0623  0.1785  0.6752
 3615ntf    on521281   1.232   0.248   4.508  0.1444  0.1127 -0.1335
 3615ntf    on521282   1.190   0.439   4.652 -0.0189 -0.0134  0.6700
 3615ntf    fn421283   0.969   0.282   4.388 -0.0118  0.2823 -0.2144
 3615ntf    fn421284   0.911   0.436   4.523  0.3393 -0.1056 -0.0816
 3615ntf    fn421285   1.062   0.466   4.387  0.4122 -0.3988 -0.3678
 3616ntf    cn121286   0.509   6.761   7.064 -0.1817  0.4299 -0.2782
 3616ntf    sn221287   0.522   6.643   6.926  0.2512  0.0792  0.0600
 3616ntf    nn321288   0.677   6.659   6.903  0.3327 -0.3276  0.3101
 3616ntf    sn221289   0.792   6.569   6.959  0.6351  0.0812  0.3485
 3616ntf    cn121290   0.776   6.423   6.852  0.4206  0.2004  0.2189
 3616ntf    fn421291   0.610   6.762   7.149  0.0894 -0.0511 -0.5860
 3616ntf    fn421292   0.488   6.885   7.021 -0.0965  0.5788  0.1112
 3616ntf    fn421293   0.405   6.739   7.143 -0.0649 -0.2767 -0.3203
 3616ntf    on521294   0.486   6.521   6.993  0.0498 -0.1620 -0.4876
 3616ntf    on521295   0.430   6.706   6.834  0.0575 -0.3161 -0.0179
 3616ntf    on521296   0.772   6.523   7.094 -0.3748 -0.0099  0.1734
 3616ntf    on521297   0.921   6.618   6.918  0.6826  0.2900  0.7387
 3616ntf    fn421298   0.846   6.317   6.888  0.7296  0.3619  0.0926
 3616ntf    fn421299   0.651   6.388   6.826  0.5734  0.0620 -0.3509
 3616ntf    fn421300   0.829   6.458   6.736 -0.3498  0.3259 -0.1038
 3617ntf    cn121301   7.095   2.300   3.864 -0.2017  0.0632 -0.0473
 3617ntf    sn221302   7.267   2.361   3.866 -0.1628 -0.0393 -0.1840
 3617ntf    nn321303   7.259   2.432   4.006  0.2235 -0.0741 -0.1430
 3617ntf    sn221304   7.370   2.523   4.069  0.0199  0.0223  0.0762
 3617ntf    cn121305   7.326   2.688   4.006 -0.1463 -0.0693 -0.0486
 3617ntf    fn421306   7.003   2.394   3.854 -0.0855  0.2035  0.1831
 3617ntf    fn421307   7.070   2.211   3.769  0.5688  0.0916 -0.2914
 3617ntf    fn421308   7.066   2.229   3.971 -0.4223  0.3956  0.1145
 3617ntf    on521309   7.340   2.237   3.858  0.3091  0.2242  0.0020
 3617ntf    on521310   7.272   2.452   3.754 -0.2281 -0.2227 -0.3362
 3617ntf    on521311   7.500   2.496   4.014 -0.2704  0.1699 -0.6846
 3617ntf    on521312   7.356   2.537   4.212  0.3160 -0.3881  0.1442
 3617ntf    fn421313   7.330   2.696   3.874  0.3805  0.1127 -0.0248
 3617ntf    fn421314   7.208   2.723   4.053 -0.1649  0.4419 -0.4726
 3617ntf    fn421315   7.412   2.778   4.050  0.0105 -0.3326  0.1897
 3618ntf    cn121316   1.166   4.588   1.186 -0.3219  0.4950  0.1287
 3618ntf    sn221317   1.033   4.465   1.205  0.2818 -0.1570  0.1927
 3618ntf    nn321318   1.070   4.366   1.089 -0.0761  0.1234 -0.1686
 3618ntf    sn221319   1.133   4.222   1.100 -0.5363 -0.0941 -0.3566
 3618ntf    cn121320   1.200   4.216   0.931  0.0547 -0.0323 -0.1286
 3618ntf    fn421321   1.170   4.632   1.061  0.1430  0.1289  0.0130
 3618ntf    fn421322   1.149   4.693   1.264 -0.6872  0.0871  0.6094
 3618ntf    fn421323   1.287   4.541   1.210 -0.6815 -0.7108 -0.2958
 3618ntf    on521324   1.049   4.421   1.341 -0.2821 -0.0033  0.3135
 3618ntf    on521325   0.914   4.538   1.169 -0.2780 -1.0219  0.2505
 3618ntf    on521326   1.028   4.124   1.109 -0.4733 -0.1694 -0.4496
 3618ntf    on521327   1.246   4.211   1.189  0.2020  0.2996 -1.2332
 3618ntf    fn421328   1.113   4.245   0.836  1.0062 -0.2067 -1.0593
 3618ntf    fn421329   1.299   4.301   0.910  0.1945 -0.0143  0.5523
 3618ntf    fn421330   1.252   4.099   0.897  0.2085  0.0034 -0.0113
 3619ntf    cn121331   3.600   5.217   4.290 -0.3492 -0.1154  0.4129
 3619ntf    sn221332   3.643   5.317   4.436 -0.0220  0.0878  0.1806
 3619ntf    nn321333   3.515   5.292   4.523 -0.1725  0.9961  0.2300
 3619ntf    sn221334   3.500   5.305   4.679  0.1435  0.3444  0.3169
 3619ntf    cn121335   3.424   5.469   4.699  0.0608  0.2775  0.5402
 3619ntf    fn421336   3.481   5.252   4.245 -0.0592 -0.1765 -0.4213
 3619ntf    fn421337   3.686   5.226   4.189 -0.5985 -1.0281  0.1121
 3619ntf    fn421338   3.583   5.090   4.321  0.7444 -0.1252  1.0172
 3619ntf    on521339   3.761   5.254   4.489  0.2724  0.2140 -0.3125
 3619ntf    on521340   3.650   5.456   4.396  0.5751 -0.0949 -0.3692
 3619ntf    on521341   3.621   5.303   4.758  0.5263  0.0807 -0.2620
 3619ntf    on521342   3.402   5.207   4.718  0.9055 -0.3567  0.4999
 3619ntf    fn421343   3.376   5.492   4.821  0.2163  0.2725  0.6021
 3619ntf    fn421344   3.519   5.556   4.670  0.3776 -0.0761  0.5124
 3619ntf    fn421345   3.325   5.485   4.613  0.3453 -0.0945  0.1434
 3620ntf    cn121346   5.386   1.234   6.776  0.4707  0.1592 -0.1897
 3620ntf    sn221347   5.379   1.315   6.614  0.5538 -0.0372 -0.2914
 3620ntf    nn321348   5.512   1.271   6.542  0.7864 -0.0125  0.1179
 3620ntf    sn221349   5.533   1.165   6.428 -0.3916 -0.0594 -0.0684
 3620ntf    cn121350   5.600   1.024   6.523 -0.5709  0.0787  0.2659
 3620ntf    fn421351   5.498   1.258   6.841  0.1332  0.3634  0.3278
 3620ntf    fn421352   5.284   1.269   6.853  0.4924  0.2769 -0.2152
 3620ntf    fn421353   5.378   1.103   6.755 -0.2492  0.2508 -0.5257
 3620ntf    on521354   5.260   1.258   6.557  0.1196  0.0790  0.4841
 3620ntf    on521355   5.375   1.458   6.634  0.1711 -0.2216  1.0632
 3620ntf    on521356   5.637   1.203   6.336 -0.7927  0.3252 -0.3690
 3620ntf    on521357   5.419   1.108   6.360 -0.0897  0.4885 -1.0465
 3620ntf    fn421358   5.730   1.033   6.545 -0.4960  0.7787 -0.4043
 3620ntf    fn421359   5.545   1.016   6.643  0.3356  0.0355  0.6867
 3620ntf    fn421360   5.580   0.910   6.460 -0.5263  0.0915  0.2281
 3621ntf    cn121361   1.899   7.199   0.789 -0.1770  0.0568  0.3394
 3621ntf    sn221362   1.825   7.305   0.661  0.1482  0.0977  0.1845
 3621ntf    nn321363   1.946   7.321   0.562 -0.2461  0.1475 -0.2929
 3621ntf    sn221364   2.057   7.432   0.561 -0.0080 -0.0848  0.1042
 3621ntf    cn121365   2.198   7.320   0.538  0.0820  0.0021  0.2323
 3621ntf    fn421366   1.957   7.098   0.726 -0.7385 -0.3056  0.3916
 3621ntf    fn421367   1.996   7.265   0.849 -0.4681  0.4497  0.3812
 3621ntf    fn421368   1.809   7.160   0.877 -0.2323 -0.5620  0.0187
 3621ntf    on521369   1.710   7.234   0.610  0.0507  0.3799  0.0043
 3621ntf    on521370   1.794   7.419   0.744 -0.6769 -0.4093  0.5865
 3621ntf    on521371   2.088   7.496   0.687 -0.2061 -0.2461  0.2353
 3621ntf    on521372   2.050   7.508   0.439  0.6227  0.0432  0.1462
 3621ntf    fn421373   2.224   7.248   0.646 -0.6369 -0.2748  0.2255
 3621ntf    fn421374   2.168   7.226   0.450  0.1561  0.4147 -0.2376
 3621ntf    fn421375   2.312   7.380   0.507 -0.0158  0.0598 -0.0152
 3622ntf    cn121376   4.392   5.581   0.638 -0.2277  0.0045 -0.0094
 3622ntf    sn221377   4.419   5.760   0.624  0.1908 -0.0607 -0.0438
 3622ntf    nn321378   4.414   5.786   0.469  0.0423  0.5596  0.0610
 3622ntf    sn221379   4.306   5.857   0.381  0.0373  0.4309 -0.0369
 3622ntf    cn121380   4.359   6.031   0.392  0.4018  0.3421 -0.3904
 3622ntf    fn421381   4.483   5.515   0.568  0.1487  0.1827  0.3130
 3622ntf    fn421382   4.406   5.550   0.766 -0.3040 -0.0828 -0.0218
 3622ntf    fn421383   4.272   5.534   0.606 -0.1133 -0.5782  0.3939
 3622ntf    on521384   4.308   5.817   0.697 -0.0414 -0.3816 -0.1458
 3622ntf    on521385   4.550   5.773   0.682 -0.1446 -0.1032  0.7352
 3622ntf    on521386   4.176   5.843   0.442  0.2275 -0.3240  0.2091
 3622ntf    on521387   4.313   5.831   0.239 -0.1351  0.4336 -0.0459
 3622ntf    fn421388   4.445   6.046   0.491 -0.4067  0.1432  0.3546
 3622ntf    fn421389   4.419   6.070   0.281  0.3488  0.3904 -0.4019
 3622ntf    fn421390   4.264   6.118   0.421  0.1868 -0.1334  0.3515
 3623ntf    cn121391   3.456   4.651   5.088  0.0245 -0.1158 -0.0655
 3623ntf    sn221392   3.366   4.676   4.932  0.0149  0.0141 -0.0397
 3623ntf    nn321393   3.446   4.799   4.876  0.0028  0.0973  0.1252
 3623ntf    sn221394   3.566   4.804   4.775 -0.1007  0.0984  0.0020
 3623ntf    cn121395   3.487   4.820   4.612 -0.1238  0.0617  0.0098
 3623ntf    fn421396   3.581   4.618   5.064  0.1391  0.2023  0.0890
 3623ntf    fn421397   3.463   4.759   5.164  0.2525 -0.3137  0.1970
 3623ntf    fn421398   3.394   4.566   5.168 -0.3261  0.4252  0.2499
 3623ntf    on521399   3.354   4.549   4.864 -0.7719  0.1261 -0.1140
 3623ntf    on521400   3.238   4.722   4.979  0.4536  0.8431  0.3697
 3623ntf    on521401   3.646   4.685   4.758 -0.1812  0.0887 -0.3241
 3623ntf    on521402   3.638   4.928   4.786  0.4401 -0.1894 -0.2473
 3623ntf    fn421403   3.399   4.918   4.602  0.2681  0.3471 -0.7713
 3623ntf    fn421404   3.581   4.851   4.524  0.1262  0.0133  0.2585
 3623ntf    fn421405   3.430   4.708   4.571  0.1218 -0.1515  0.2434
 3624ntf    cn121406   5.341   6.165   0.025  0.1273 -0.1330  0.9159
 3624ntf    sn221407   5.403   6.121   0.190  0.4763 -0.4458  0.7035
 3624ntf    nn321408   5.522   6.033   0.140  0.4262 -0.5123  0.7014
 3624ntf    sn221409   5.513   5.890   0.074  0.2064 -0.1469 -0.0692
 3624ntf    cn121410   5.576   5.786   0.209  0.0235  0.1295  0.2323
 3624ntf    fn421411   5.296   6.064  -0.048 -0.0833 -0.0866  0.9786
 3624ntf    fn421412   5.240   6.251   0.020 -0.0101 -0.3307  0.2096
 3624ntf    fn421413   5.437   6.227  -0.041 -0.3035  0.3490  0.7277
 3624ntf    on521414   5.445   6.246   0.249  0.4243 -0.1252  0.0718
 3624ntf    on521415   5.288   6.056   0.249  0.0833  0.2689  0.7382
 3624ntf    on521416   5.607   5.863  -0.032  1.1416 -0.4795  0.8253
 3624ntf    on521417   5.378   5.851   0.044  0.1985 -0.3119  0.1813
 3624ntf    fn421418   5.561   5.656   0.188 -0.3736  0.2123 -0.0066
 3624ntf    fn421419   5.704   5.806   0.235 -0.0621  0.7570  0.1689
 3624ntf    fn421420   5.511   5.811   0.321  0.0960  0.2422  0.2487
 3625ntf    cn121421   6.036   2.036   0.817  0.1470  0.0449 -0.0811
 3625ntf    sn221422   6.158   1.998   0.946  0.0076 -0.1949 -0.0200
 3625ntf    nn321423   6.179   2.141   1.006 -0.8128  0.0482 -0.3045
 3625ntf    sn221424   6.156   2.193   1.153 -0.1501  0.0133 -0.1866
 3625ntf    cn121425   6.261   2.341   1.149 -0.1580  0.0263  0.1763
 3625ntf    fn421426   6.081   2.119   0.724  0.2504 -0.3369 -0.3716
 3625ntf    fn421427   5.987   1.934   0.749  0.5134 -0.1181 -0.1042
 3625ntf    fn421428   5.933   2.111   0.855 -0.1002 -0.0067 -0.6398
 3625ntf    on521429   6.090   1.897   1.024 -0.0197 -0.3183 -0.2020
 3625ntf    on521430   6.264   1.952   0.860 -0.3374  0.0535 -0.5776
 3625ntf    on521431   6.201   2.112   1.263  0.1379 -0.1561 -0.4271
 3625ntf    on521432   6.024   2.248   1.169 -0.0015  0.3641 -0.1635
 3625ntf    fn421433   6.253   2.404   1.266 -0.3249  0.2370  0.0522
 3625ntf    fn421434   6.390   2.320   1.129 -0.2008  0.3844 -0.5073
 3625ntf    fn421435   6.225   2.422   1.050 -0.0375  0.1373  0.2230
 3626ntf    cn121436   2.966   0.644   4.444  0.2928 -0.1181  0.1118
 3626ntf    sn221437   2.888   0.754   4.565 -0.2562 -0.0294 -0.3188
 3626ntf    nn321438   2.877   0.648   4.681 -0.7693  0.8988  0.5012
 3626ntf    sn221439   2.966   0.609   4.804 -0.1547  0.1880 -0.1553
 3626ntf    cn121440   2.899   0.716   4.936 -0.4334 -0.5098  0.2755
 3626ntf    fn421441   2.990   0.690   4.322 -0.1971 -0.1119  0.0138
 3626ntf    fn421442   3.082   0.602   4.492  0.3785  0.2879  0.2659
 3626ntf    fn421443   2.885   0.541   4.424 -0.3730  0.4685 -0.2872
 3626ntf    on521444   2.992   0.852   4.585 -0.3738 -0.0276  0.3120
 3626ntf    on521445   2.762   0.784   4.501 -0.4792  0.0928  0.1734
 3626ntf    on521446   3.106   0.641   4.798 -0.0411 -0.3884 -0.6769
 3626ntf    on521447   2.939   0.476   4.854 -0.2991  0.3337  0.1611
 3626ntf    fn421448   2.773   0.683   4.958 -0.5685 -0.0764  0.1501
 3626ntf    fn421449   2.971   0.710   5.047  0.2054  0.2539 -0.0899
 3626ntf    fn421450   2.906   0.845   4.908 -0.1072 -0.3423  1.1069
 3627ntf    cn121451   3.606   6.590   4.099  0.0343 -0.2297 -0.1169
 3627ntf    sn221452   3.605   6.731   3.985 -0.1480  0.0240  0.1947
 3627ntf    nn321453   3.637   6.845   4.088  0.0951  0.2532 -0.1330
 3627ntf    sn221454   3.773   6.923   4.103  0.1041  0.1549  0.3177
 3627ntf    cn121455   3.754   6.981   4.274 -0.1378 -0.0142  0.3494
 3627ntf    fn421456   3.701   6.599   4.191 -0.9159 -0.0531  0.8702
 3627ntf    fn421457   3.493   6.576   4.167  0.4922 -0.0558  0.6990
 3627ntf    fn421458   3.623   6.477   4.033 -0.2859 -0.0675 -0.4784
 3627ntf    on521459   3.706   6.712   3.883 -0.2838  0.5672 -0.0468
 3627ntf    on521460   3.468   6.739   3.940  0.0431  0.5591 -0.3049
 3627ntf    on521461   3.775   7.045   4.026  0.1227 -0.2656 -0.3622
 3627ntf    on521462   3.896   6.848   4.118 -0.0903 -0.3381 -0.4737
 3627ntf    fn421463   3.730   6.874   4.349 -0.5740 -0.1032  0.0864
 3627ntf    fn421464   3.863   7.040   4.320 -0.3338  0.3787  0.3176
 3627ntf    fn421465   3.651   7.060   4.299 -0.2761 -0.0478 -0.1051
 3628ntf    cn121466   4.704   7.112   1.113  0.2920  0.2073 -0.1728
 3628ntf    sn221467   4.709   6.974   0.995  0.0699  0.4781 -0.5034
 3628ntf    nn321468   4.862   6.937   0.990  0.0403  0.2399  0.2811
 3628ntf    sn221469   4.941   6.832   1.076  0.0310  0.1326  0.1577
 3628ntf    cn121470   5.112   6.848   1.014 -0.0530  0.0567 -0.0957
 3628ntf    fn421471   4.782   7.207   1.065  0.3941  0.1650 -0.0892
 3628ntf    fn421472   4.580   7.159   1.110  0.1845 -0.0754 -0.2752
 3628ntf    fn421473   4.735   7.085   1.239 -0.2177 -0.3072 -0.1526
 3628ntf    on521474   4.621   6.878   1.057  0.8842 -0.0044 -0.0689
 3628ntf    on521475   4.675   7.032   0.867 -0.2681  0.0330 -0.6194
 3628ntf    on521476   4.907   6.695   1.045  0.2019  0.1885 -0.2800
 3628ntf    on521477   4.951   6.871   1.214 -0.0680  0.8366 -0.0281
 3628ntf    fn421478   5.111   6.845   0.882 -0.0866 -0.3345 -0.0871
 3628ntf    fn421479   5.166   6.960   1.058 -0.4580 -0.1496  0.9735
 3628ntf    fn421480   5.194   6.751   1.052 -0.2717 -0.0624  0.0805
 3629ntf    cn121481   6.663   0.474   2.910 -0.3343 -0.2904 -0.1715
 3629ntf    sn221482   6.831   0.408   2.891 -0.1815  0.0414  0.0229
 3629ntf    nn321483   6.907   0.539   2.849  0.2128 -0.2277 -0.1130
 3629ntf    sn221484   7.001   0.634   2.930  0.1015 -0.2710  0.0668
 3629ntf    cn121485   7.169   0.589   2.877  0.1841 -0.2464  0.3072
 3629ntf    fn421486   6.664   0.565   3.006  0.2288 -0.1974 -0.2613
 3629ntf    fn421487   6.612   0.531   2.802 -0.0177 -0.0394 -0.1891
 3629ntf    fn421488   6.578   0.383   2.953 -0.4007 -0.3613 -0.4483
 3629ntf    on521489   6.864   0.355   3.021 -0.5733  0.0162  0.1136
 3629ntf    on521490   6.820   0.309   2.787  0.1096 -0.0600  0.0866
 3629ntf    on521491   6.998   0.626   3.074  0.0572  0.6929  0.1284
 3629ntf    on521492   6.992   0.766   2.873  0.7465 -0.5832 -0.7666
 3629ntf    fn421493   7.207   0.475   2.932 -0.5522 -0.6176  0.0563
 3629ntf    fn421494   7.180   0.586   2.746  0.6007 -0.1021  0.3371
 3629ntf    fn421495   7.253   0.677   2.931 -0.1596  0.5118 -0.3761
 3630ntf    cn121496   5.943   3.198   0.408 -0.1163  0.0853  0.1414
 3630ntf    sn221497   5.831   3.341   0.403 -0.3262 -0.0877 -0.2239
 3630ntf    nn321498   5.897   3.424   0.519 -0.3905  0.3239 -0.4789
 3630ntf    sn221499   6.029   3.509   0.528 -0.3283  0.1627  0.1876
 3630ntf    cn121500   5.945   3.669   0.507 -0.0933  0.2766  0.1169
 3630ntf    fn421501   5.938   3.107   0.311  0.6718  0.2484 -0.0596
 3630ntf    fn421502   6.072   3.227   0.416 -0.1728  0.2178  0.5923
 3630ntf    fn421503   5.924   3.120   0.513  0.4135 -0.3049 -0.0458
 3630ntf    on521504   5.845   3.396   0.271  0.1348 -0.0566 -0.1642
 3630ntf    on521505   5.706   3.279   0.438 -0.3554 -0.3695 -0.8138
 3630ntf    on521506   6.119   3.492   0.417 -0.2545  0.0986  0.2571
 3630ntf    on521507   6.076   3.503   0.664 -0.2306  0.0083  0.1479
 3630ntf    fn421508   5.830   3.673   0.572 -0.3671  0.2372 -0.3677
 3630ntf    fn421509   6.015   3.773   0.550 -0.0945  0.4410 -0.2740
 3630ntf    fn421510   5.928   3.682   0.377  0.0324  0.1091  0.0827
 3631ntf    cn121511   4.386   1.282   1.198  0.4972  0.1799 -0.2106
 3631ntf    sn221512   4.206   1.277   1.223  0.5576  0.2089  0.2479
 3631ntf    nn321513   4.157   1.363   1.101 -0.0531  0.0144  0.3490
 3631ntf    sn221514   4.061   1.487   1.093 -0.1119 -0.0519 -0.0166
 3631ntf    cn121515   3.940   1.415   0.978 -0.0985 -0.6415  0.3355
 3631ntf    fn421516   4.429   1.402   1.233  0.0721  0.3397 -0.2338
 3631ntf    fn421517   4.448   1.193   1.274 -0.4120 -0.0533  0.2834
 3631ntf    fn421518   4.423   1.257   1.074 -0.0028 -0.3373 -0.2614
 3631ntf    on521519   4.162   1.141   1.202  0.2303  0.4148 -0.4318
 3631ntf    on521520   4.190   1.336   1.353  0.0227 -0.2963  0.4166
 3631ntf    on521521   4.111   1.606   1.028  0.2281  0.2198  0.7300
 3631ntf    on521522   3.985   1.511   1.213 -0.2865  0.1416 -0.1652
 3631ntf    fn421523   3.987   1.328   0.890 -0.1817  0.1042 -0.4476
 3631ntf    fn421524   3.852   1.351   1.053 -0.2570 -0.4306  0.3277
 3631ntf    fn421525   3.880   1.515   0.916  0.1629 -0.8567 -0.2696
 3632ntf    cn121526   2.709   0.371   3.207 -0.0355  0.1837  0.1783
 3632ntf    sn221527   2.891   0.368   3.208 -0.0419 -0.2196  0.1901
 3632ntf    nn321528   2.919   0.511   3.266 -0.4833 -0.1018  0.1182
 3632ntf    sn221529   3.029   0.557   3.369  0.1278  0.1165 -0.6285
 3632ntf    cn121530   3.177   0.574   3.264  0.2306 -0.0281 -0.5085
 3632ntf    fn421531   2.665   0.279   3.122  0.0890  0.1990  0.0959
 3632ntf    fn421532   2.659   0.359   3.329  0.1722 -0.4312  0.2052
 3632ntf    fn421533   2.663   0.490   3.172 -0.2449  0.1451  0.3200
 3632ntf    on521534   2.940   0.258   3.287  0.0739 -0.0921  0.2963
 3632ntf    on521535   2.911   0.362   3.065  0.4430  0.0225  0.2451
 3632ntf    on521536   3.067   0.454   3.462  0.1814 -0.1317 -0.9213
 3632ntf    on521537   3.016   0.692   3.417  0.7520 -0.2571  0.6180
 3632ntf    fn421538   3.197   0.477   3.176  0.1434  0.0603 -0.6258
 3632ntf    fn421539   3.159   0.687   3.197  0.5880  0.1481 -0.3062
 3632ntf    fn421540   3.288   0.601   3.330 -0.0067 -0.0303 -0.1042
 3633ntf    cn121541   5.448   6.546   5.391 -0.7866 -0.0826  0.1201
 3633ntf    sn221542   5.561   6.407   5.417 -0.2771  0.2426 -0.3380
 3633ntf    nn321543   5.681   6.495   5.466 -0.0572 -0.1162 -0.2243
 3633ntf    sn221544   5.835   6.463   5.455  0.0121  0.0910  0.1114
 3633ntf    cn121545   5.854   6.424   5.632 -0.2279 -0.4678  0.0170
 3633ntf    fn421546   5.496   6.643   5.315 -0.1446 -0.4435  0.0640
 3633ntf    fn421547   5.332   6.504   5.343 -0.6087 -0.8558  0.3518
 3633ntf    fn421548   5.420   6.600   5.509 -0.1636 -0.1690  0.3118
 3633ntf    on521549   5.499   6.325   5.518  0.0136 -0.0793 -0.4161
 3633ntf    on521550   5.594   6.343   5.292  0.1872  0.4404 -0.3214
 3633ntf    on521551   5.916   6.580   5.431  0.4570 -0.1938  0.2099
 3633ntf    on521552   5.865   6.336   5.395 -0.1686 -0.2351  0.6948
 3633ntf    fn421553   5.776   6.320   5.659  0.0413 -0.5888  0.3297
 3633ntf    fn421554   5.977   6.378   5.647 -0.0485 -0.0415 -0.1351
 3633ntf    fn421555   5.818   6.522   5.714 -0.0181 -0.0746 -0.3543
 3634ntf    cn121556   0.970   6.449   0.719  0.0847 -0.1999 -0.0920
 3634ntf    sn221557   1.079   6.578   0.652 -0.0116 -0.1265 -0.1067
 3634ntf    nn321558   1.064   6.544   0.499  0.2143  0.2078 -0.2051
 3634ntf    sn221559   1.172   6.549   0.386  0.1865  0.3933 -0.2235
 3634ntf    cn121560   1.226   6.376   0.379 -0.4542  0.1802  0.0541
 3634ntf    fn421561   0.926   6.478   0.840 -0.0720  0.2284 -0.2485
 3634ntf    fn421562   0.859   6.438   0.648 -0.2301  0.2109  0.3283
 3634ntf    fn421563   1.032   6.332   0.719  0.7580  0.1519 -0.1699
 3634ntf    on521564   1.016   6.700   0.697  0.2762 -0.1903  0.4747
 3634ntf    on521565   1.210   6.560   0.710  0.1457  0.1485 -0.3675
 3634ntf    on521566   1.287   6.632   0.412 -0.4755  0.9796  0.8900
 3634ntf    on521567   1.105   6.566   0.259  0.0162  0.2808 -0.1484
 3634ntf    fn421568   1.125   6.290   0.377  0.3578 -0.7972  0.0175
 3634ntf    fn421569   1.295   6.351   0.268 -0.6148 -0.0559  0.0062
 3634ntf    fn421570   1.301   6.351   0.485 -0.5077 -0.1081  0.0271
 3635ntf    cn121571   0.891   2.685   2.432 -0.2342 -0.0158  0.4796
 3635ntf    sn221572   0.852   2.570   2.567 -0.2118 -0.0089  0.4919
 3635ntf    nn321573   0.990   2.583   2.641  0.1056  0.1000 -0.1189
 3635ntf    sn221574   1.048   2.489   2.752  0.0582  0.3180  0.0901
 3635ntf    cn121575   1.147   2.384   2.641 -0.2294  0.5171 -0.3571
 3635ntf    fn421576   0.910   2.803   2.488 -0.1077  0.2698 -0.1542
 3635ntf    fn421577   1.003   2.661   2.366 -0.1346  0.3818  0.4999
 3635ntf    fn421578   0.798   2.702   2.340  0.1336 -0.5721 -0.0004
 3635ntf    on521579   0.740   2.629   2.636 -0.1450 -0.0286  0.6176
 3635ntf    on521580   0.826   2.441   2.507  0.2955  0.3104 -0.4266
 3635ntf    on521581   0.951   2.408   2.821  0.2705  0.4091  0.5035
 3635ntf    on521582   1.144   2.556   2.837 -0.2153 -0.2075  0.8249
 3635ntf    fn421583   1.184   2.277   2.708 -0.4486  0.5833 -0.1271
 3635ntf    fn421584   1.080   2.332   2.540  0.0305 -0.6454  0.0559
 3635ntf    fn421585   1.260   2.441   2.603  0.0639  0.2890  0.1635
 3636ntf    cn121586   3.910   5.485   3.544  0.2686 -0.2791  0.0976
 3636ntf    sn221587   3.873   5.513   3.720 -0.3793 -0.1446 -0.0554
 3636ntf    nn321588   3.914   5.379   3.792  0.3401 -0.1244 -0.4160
 3636ntf    sn221589   3.991   5.371   3.929 -0.1427  0.3753 -0.1101
 3636ntf    cn121590   4.046   5.198   3.920  0.0132  0.4253 -0.1228
 3636ntf    fn421591   3.871   5.590   3.473  0.0326 -0.2933  0.2044
 3636ntf    fn421592   4.036   5.461   3.514  0.3597 -0.1062  0.3334
 3636ntf    fn421593   3.839   5.388   3.490  0.0418 -0.1830  0.2204
 3636ntf    on521594   3.948   5.629   3.761  0.3687 -0.6026 -0.0984
 3636ntf    on521595   3.731   5.535   3.719 -0.4744 -0.6487  0.7955
 3636ntf    on521596   3.916   5.376   4.052  0.0599  0.2264  0.0199
 3636ntf    on521597   4.116   5.441   3.938  0.0955 -0.0983  0.3045
 3636ntf    fn421598   4.112   5.188   3.806  0.4897  0.4706  0.1473
 3636ntf    fn421599   4.131   5.167   4.016 -0.6911  0.3428  0.4796
 3636ntf    fn421600   3.942   5.117   3.924  0.3526 -0.0302 -0.4227
 3637ntf    cn121601   7.128   4.799   4.140  0.0972 -0.7398 -0.1564
 3637ntf    sn221602   7.249   4.896   4.046 -0.3069  0.1438  0.2162
 3637ntf    nn321603   7.169   4.935   3.917  0.1650  0.3532 -0.0169
 3637ntf    sn221604   7.131   5.078   3.865 -0.0796  0.2791 -0.0427
 3637ntf    cn121605   6.958   5.076   3.920 -0.0342 -0.0319  0.0908
 3637ntf    fn421606   7.178   4.766   4.258  0.5916  0.3115 -0.0606
 3637ntf    fn421607   7.010   4.851   4.172  0.2102 -0.7101  0.2156
 3637ntf    fn421608   7.104   4.686   4.074 -0.7046 -0.5003 -0.2817
 3637ntf    on521609   7.278   5.002   4.139 -1.1096  0.3049  0.2869
 3637ntf    on521610   7.355   4.803   4.012 -0.3461 -0.1373  0.8443
 3637ntf    on521611   7.115   5.071   3.722  0.2460  0.9217 -0.1154
 3637ntf    on521612   7.189   5.194   3.928  0.4651  0.0602 -0.1349
 3637ntf    fn421613   6.874   4.985   3.874 -0.2199  0.3745 -0.3804
 3637ntf    fn421614   6.959   5.067   4.052  0.2307  0.2497  0.1092
 3637ntf    fn421615   6.891   5.188   3.897  0.3091  0.3121  0.7218
 3638ntf    cn121616   5.586   3.894   3.418 -0.3688  0.5103  0.0456
 3638ntf    sn221617   5.658   3.908   3.251 -0.0487 -0.0614  0.1329
 3638ntf    nn321618   5.799   3.968   3.288  0.0061 -0.5009  0.6444
 3638ntf    sn221619   5.867   4.109   3.288 -0.2802 -0.3585 -0.0238
 3638ntf    cn121620   5.969   4.099   3.138 -0.2666 -0.8791  0.0190
 3638ntf    fn421621   5.682   3.841   3.491 -0.2274  0.0136 -0.4880
 3638ntf    fn421622   5.552   4.008   3.476 -0.7233  0.2611  0.3237
 3638ntf    fn421623   5.486   3.808   3.419 -0.1488  0.2583  0.5412
 3638ntf    on521624   5.665   3.769   3.215 -0.9214 -0.1668  0.3579
 3638ntf    on521625   5.561   3.990   3.183  0.0522 -0.0350  0.0203
 3638ntf    on521626   5.974   4.101   3.384 -0.0769  0.1618 -0.2034
 3638ntf    on521627   5.785   4.228   3.276  0.5340  0.1616 -0.5056
 3638ntf    fn421628   6.042   3.990   3.126  0.2524 -0.5015 -0.2510
 3638ntf    fn421629   5.901   4.100   3.024  0.6082 -0.2001 -0.5076
 3638ntf    fn421630   6.044   4.208   3.137 -0.1968 -0.9276 -0.0092
 3639ntf    cn121631   4.127   0.271   0.662  0.3275  0.1864 -0.1612
 3639ntf    sn221632   4.085   0.289   0.486 -0.0744 -0.1832 -0.1039
 3639ntf    nn321633   4.229   0.306   0.427 -0.0641  0.2496  0.0456
 3639ntf    sn221634   4.326   0.198   0.366  0.0871  0.3025  0.1910
 3639ntf    cn121635   4.291   0.207   0.188 -0.1462 -0.0970  0.2163
 3639ntf    fn421636   4.020   0.258   0.738  0.1681 -0.1329 -0.4414
 3639ntf    fn421637   4.199   0.163   0.689 -0.0636  0.0522  0.3722
 3639ntf    fn421638   4.183   0.380   0.713  0.1088  0.0844  0.3051
 3639ntf    on521639   4.003   0.175   0.450  0.2539  0.0526 -1.6495
 3639ntf    on521640   4.016   0.415   0.491  0.1658 -0.0443 -0.2903
 3639ntf    on521641   4.300   0.061   0.401  0.1564  0.1404 -0.3883
 3639ntf    on521642   4.465   0.236   0.379  0.1179  0.1885  0.1932
 3639ntf    fn421643   4.353   0.110   0.123  0.2102 -0.0682  0.5080
 3639ntf    fn421644   4.160   0.195   0.170 -0.1204  0.9327 -0.7878
 3639ntf    fn421645   4.327   0.321   0.132  0.0049 -0.2677 -0.0347
 3640ntf    cn121646   3.765   5.198   2.137  0.1595 -0.6623  0.2232
 3640ntf    sn221647   3.659   5.123   2.011 -0.0873  0.1452 -0.0528
 3640ntf    nn321648   3.774   5.099   1.907  0.0210  0.1780  0.0591
 3640ntf    sn221649   3.864   4.973   1.882  0.1285  0.1085  0.7833
 3640ntf    cn121650   3.838   4.970   1.702  0.5996  0.1545  0.7144
 3640ntf    fn421651   3.830   5.306   2.096 -0.1225 -0.3239  0.6591
 3640ntf    fn421652   3.708   5.239   2.250  0.4378 -0.2547  0.2162
 3640ntf    fn421653   3.861   5.120   2.184  0.7934  0.0999  0.2168
 3640ntf    on521654   3.597   5.008   2.072  0.3749 -0.0194  0.1095
 3640ntf    on521655   3.566   5.225   1.969 -0.2132 -0.0229 -0.1875
 3640ntf    on521656   3.818   4.842   1.923 -0.2450  0.1902  0.6309
 3640ntf    on521657   4.005   5.002   1.887  0.1387  0.2271 -0.0079
 3640ntf    fn421658   3.712   4.960   1.663  0.8986  0.8964 -0.4879
 3640ntf    fn421659   3.902   5.075   1.653 -0.1492  0.1949 -0.1986
 3640ntf    fn421660   3.903   4.866   1.652 -0.1421  0.0902 -0.1294
 3641ntf    cn121661   4.437   5.557   2.577 -0.0342  0.0100 -0.2813
 3641ntf    sn221662   4.443   5.376   2.596 -0.1111  0.0285 -0.0817
 3641ntf    nn321663   4.526   5.332   2.470  0.0860 -0.3854  0.1902
 3641ntf    sn221664   4.682   5.345   2.460  0.0539  0.1530  0.3519
 3641ntf    cn121665   4.685   5.351   2.278 -0.4121 -0.1391  0.3316
 3641ntf    fn421666   4.538   5.609   2.645 -0.6455  0.4518  0.3034
 3641ntf    fn421667   4.447   5.593   2.450  0.1563 -0.1196 -0.3049
 3641ntf    fn421668   4.327   5.611   2.625  0.2276 -0.3455  0.7424
 3641ntf    on521669   4.489   5.345   2.729 -0.7451  0.3217  0.2091
 3641ntf    on521670   4.303   5.346   2.577 -0.3232  1.2163 -0.5049
 3641ntf    on521671   4.760   5.228   2.490 -0.0609 -0.0370 -0.0800
 3641ntf    on521672   4.727   5.477   2.498 -0.3128  0.3231  0.2058
 3641ntf    fn421673   4.800   5.312   2.226 -0.3232  0.5266  0.0076
 3641ntf    fn421674   4.596   5.273   2.220  0.0577 -0.2531 -0.2486
 3641ntf    fn421675   4.664   5.474   2.233  0.1279 -0.3471 -0.5164
 3642ntf    cn121676   6.398   1.059   5.272 -0.3423 -0.1332  0.3443
 3642ntf    sn221677   6.390   0.907   5.372 -0.0110 -0.1825  0.2980
 3642ntf    nn321678   6.261   0.840   5.312  0.0393  0.2814 -0.3448
 3642ntf    sn221679   6.132   0.806   5.394  0.2934  0.3459  0.0864
 3642ntf    cn121680   6.039   0.958   5.356 -0.0870  0.0747 -0.0806
 3642ntf    fn421681   6.296   1.136   5.304 -0.3907 -0.0156 -0.0886
 3642ntf    fn421682   6.502   1.141   5.282 -0.3192 -0.1123 -0.0335
 3642ntf    fn421683   6.378   1.040   5.142  0.2055 -0.3730  0.2919
 3642ntf    on521684   6.510   0.841   5.328  0.2490  0.5284 -0.0893
 3642ntf    on521685   6.380   0.974   5.500  0.2384  0.5176 -0.0404
 3642ntf    on521686   6.137   0.807   5.538  0.2097  0.8904  0.0888
 3642ntf    on521687   6.052   0.702   5.334  0.1486  0.4800  0.0437
 3642ntf    fn421688   5.919   0.969   5.410 -0.0387  0.1265  0.0174
 3642ntf    fn421689   6.104   1.066   5.396  0.1521 -0.4644  1.0521
 3642ntf    fn421690   6.022   0.975   5.226 -0.3061 -0.0205 -0.0651
 3643ntf    cn121691   0.568   5.381   1.627  0.3355 -0.0764  0.2808
 3643ntf    sn221692   0.491   5.544   1.646  0.3226 -0.0789  0.2498
 3643ntf    nn321693   0.607   5.642   1.606 -0.0740  0.1568 -0.3430
 3643ntf    sn221694   0.714   5.714   1.695 -0.4566  0.4942 -0.1523
 3643ntf    cn121695   0.844   5.727   1.568  0.0054 -0.0450  0.2597
 3643ntf    fn421696   0.655   5.359   1.724 -0.0581 -0.3341  0.5802
 3643ntf    fn421697   0.486   5.278   1.637  0.0071  0.1538  0.0096
 3643ntf    fn421698   0.621   5.363   1.507 -0.0772 -0.0620  0.0944
 3643ntf    on521699   0.382   5.531   1.552  0.3327 -0.5670  0.3041
 3643ntf    on521700   0.452   5.558   1.784 -0.5498 -0.0476  0.0092
 3643ntf    on521701   0.770   5.643   1.807 -0.0695  0.2019 -0.5287
 3643ntf    on521702   0.675   5.848   1.732  0.0822  0.5001  0.4071
 3643ntf    fn421703   0.800   5.789   1.459 -0.2630  0.0904  0.4438
 3643ntf    fn421704   0.953   5.790   1.609  0.2072 -0.0592 -0.2488
 3643ntf    fn421705   0.877   5.604   1.534  0.0034  0.1132 -0.3236
 3644ntf    cn121706   5.539   1.157   4.627 -0.3656  0.0885  0.0342
 3644ntf    sn221707   5.621   1.155   4.790  0.2632  0.0457 -0.2805
 3644ntf    nn321708   5.506   1.219   4.876  0.1571 -0.1734 -0.2576
 3644ntf    sn221709   5.534   1.316   4.996 -0.0046  0.1004 -0.4401
 3644ntf    cn121710   5.567   1.188   5.120  0.0344  0.0695 -0.4830
 3644ntf    fn421711   5.607   1.120   4.520 -0.1209  0.1804  0.1570
 3644ntf    fn421712   5.434   1.077   4.630 -0.1369 -0.2441 -0.6551
 3644ntf    fn421713   5.497   1.281   4.611 -0.1132  0.1655 -0.0284
 3644ntf    on521714   5.636   1.012   4.804  0.3004  0.0477 -0.2988
 3644ntf    on521715   5.740   1.228   4.754  0.0451  0.1987 -0.7041
 3644ntf    on521716   5.416   1.386   5.042  0.2005  0.0636  0.1484
 3644ntf    on521717   5.651   1.400   4.984  0.6418 -0.7177  0.0254
 3644ntf    fn421718   5.607   1.233   5.237  0.0935 -0.1235 -0.4285
 3644ntf    fn421719   5.459   1.118   5.151  0.0717 -0.0677 -0.6593
 3644ntf    fn421720   5.653   1.102   5.066  0.3040 -0.1271  0.2527
 3645ntf    cn121721   6.820   4.969   3.265  0.0384 -0.0370  0.1038
 3645ntf    sn221722   6.657   4.891   3.254  0.0315 -0.0363  0.1929
 3645ntf    nn321723   6.636   4.883   3.098  0.2027 -0.2484  0.1808
 3645ntf    sn221724   6.628   4.759   3.002  0.3443  0.0815 -0.2579
 3645ntf    cn121725   6.802   4.730   2.959  0.3669  0.2462 -0.2786
 3645ntf    fn421726   6.916   4.894   3.214 -0.4924 -0.2587 -0.5694
 3645ntf    fn421727   6.827   5.086   3.203  0.2075 -0.0825  0.0372
 3645ntf    fn421728   6.857   4.981   3.391  0.3137 -0.3258  0.0512
 3645ntf    on521729   6.659   4.767   3.327  0.8871 -0.4422 -0.5102
 3645ntf    on521730   6.572   4.986   3.321 -0.6017 -0.1870 -0.3806
 3645ntf    on521731   6.556   4.786   2.880  0.1914  0.4616 -0.0869
 3645ntf    on521732   6.583   4.635   3.061  0.1917  0.3293  0.1530
 3645ntf    fn421733   6.825   4.603   2.930 -0.1201  0.1581 -0.2901
 3645ntf    fn421734   6.840   4.805   2.857  0.1485  0.3452 -0.2858
 3645ntf    fn421735   6.890   4.756   3.054 -0.0961  0.3942  0.1164
 3646ntf    cn121736   2.692   5.215   4.578 -0.3325  0.2336 -0.2728
 3646ntf    sn221737   2.538   5.132   4.530 -0.2853  0.1372 -0.2588
 3646ntf    nn321738   2.613   4.995   4.520 -0.1024  0.1698  0.5468
 3646ntf    sn221739   2.543   4.856   4.540  0.1674 -0.0683 -0.1327
 3646ntf    cn121740   2.655   4.778   4.660  0.3191  0.1761 -0.1163
 3646ntf    fn421741   2.786   5.168   4.498  0.2184  0.2352  0.3542
 3646ntf    fn421742   2.679   5.347   4.570 -0.0419  0.3005  0.2740
 3646ntf    fn421743   2.739   5.188   4.699 -0.2043  0.3906 -0.2871
 3646ntf    on521744   2.459   5.161   4.648  0.3850  0.6614  0.0678
 3646ntf    on521745   2.499   5.184   4.401  0.0127 -0.1716 -0.4759
 3646ntf    on521746   2.559   4.766   4.428 -0.4772 -0.1610 -0.1520
 3646ntf    on521747   2.412   4.861   4.600  0.2194  0.8488 -0.0836
 3646ntf    fn421748   2.781   4.790   4.621  0.3644 -0.6247 -0.2248
 3646ntf    fn421749   2.648   4.845   4.774 -0.1206  0.4404 -0.2970
 3646ntf    fn421750   2.633   4.649   4.681  0.1767  0.1809 -0.2367
 3647ntf    cn121751   1.798   0.934   6.327 -0.3774 -0.1586 -0.1548
 3647ntf    sn221752   1.857   1.093   6.261  0.1093 -0.1351  0.3303
 3647ntf    nn321753   1.821   1.098   6.108  0.3822  0.5766  0.2843
 3647ntf    sn221754   1.789   1.215   6.009  0.0691  0.1355 -0.1383
 3647ntf    cn121755   1.610   1.234   6.035  0.0278  0.2226 -0.4866
 3647ntf    fn421756   1.824   0.926   6.457 -0.1379  0.4770 -0.1570
 3647ntf    fn421757   1.671   0.910   6.301 -0.3134 -0.6344 -0.0387
 3647ntf    fn421758   1.864   0.833   6.273 -0.3284  0.4277 -1.2202
 3647ntf    on521759   1.783   1.190   6.338  0.5398  0.0222  0.5531
 3647ntf    on521760   1.997   1.083   6.293  0.1634 -0.2014  0.0745
 3647ntf    on521761   1.798   1.178   5.870  0.9536  0.6972 -0.2352
 3647ntf    on521762   1.856   1.336   6.046 -0.2951  0.1665  0.4315
 3647ntf    fn421763   1.548   1.264   5.922 -0.1058  0.2963 -0.3940
 3647ntf    fn421764   1.556   1.117   6.064  0.3245  0.2324  0.1041
 3647ntf    fn421765   1.577   1.312   6.137  0.1977 -0.6066  0.2119
 3648ntf    cn121766   1.138   6.430   1.456  0.2646  0.2867  0.1046
 3648ntf    sn221767   1.314   6.461   1.491  0.2998 -0.1392  0.2982
 3648ntf    nn321768   1.313   6.575   1.599 -0.3315 -0.0204  0.1710
 3648ntf    sn221769   1.348   6.568   1.752 -0.0938  0.0703  0.1208
 3648ntf    cn121770   1.507   6.651   1.722 -0.0091 -0.1735 -0.1107
 3648ntf    fn421771   1.127   6.346   1.354  0.2578  0.1971  0.1795
 3648ntf    fn421772   1.078   6.377   1.561 -0.0432  0.1022 -0.1649
 3648ntf    fn421773   1.070   6.539   1.426 -0.1145  0.0389  0.0630
 3648ntf    on521774   1.367   6.331   1.527 -0.5448 -0.7116 -0.4818
 3648ntf    on521775   1.363   6.524   1.372 -0.5010  0.0347  0.0550
 3648ntf    on521776   1.379   6.441   1.814 -0.1974 -0.0357 -0.0442
 3648ntf    on521777   1.259   6.650   1.830 -0.1528  0.0158  0.1107
 3648ntf    fn421778   1.485   6.741   1.627 -0.6002 -0.2320 -0.0309
 3648ntf    fn421779   1.563   6.715   1.823  0.0408 -0.5844  0.1208
 3648ntf    fn421780   1.607   6.577   1.677  0.3332  0.3532 -0.2211
 3649ntf    cn121781   4.142   6.377   3.237 -0.2266  0.0077 -0.1889
 3649ntf    sn221782   4.057   6.378   3.076 -0.0726  0.3331 -0.2683
 3649ntf    nn321783   3.958   6.258   3.095  0.1687  0.2064  0.1889
 3649ntf    sn221784   3.842   6.243   3.200 -0.3257  0.0917 -0.3691
 3649ntf    cn121785   3.702   6.231   3.086 -0.4502 -0.4131 -0.1667
 3649ntf    fn421786   4.076   6.422   3.343  0.1852 -0.0155  0.0795
 3649ntf    fn421787   4.174   6.253   3.270  0.4724  0.2465  0.0404
 3649ntf    fn421788   4.247   6.455   3.220 -0.1431 -0.1054 -0.1896
 3649ntf    on521789   4.000   6.511   3.085  0.1110  0.3845  0.1984
 3649ntf    on521790   4.166   6.351   2.987 -0.0633 -0.4163 -0.0283
 3649ntf    on521791   3.818   6.357   3.285 -0.3282 -0.2209  0.0560
 3649ntf    on521792   3.858   6.120   3.274 -0.9137 -0.0296 -0.4436
 3649ntf    fn421793   3.718   6.139   2.992 -0.2931 -0.7323  0.1720
 3649ntf    fn421794   3.583   6.216   3.142 -0.1995  0.1659  0.5349
 3649ntf    fn421795   3.694   6.348   3.024  0.3084 -0.3336 -0.1199
 3650ntf    cn121796   2.371   3.231   0.501  0.3965 -0.0616 -0.4250
 3650ntf    sn221797   2.299   3.110   0.615  0.3146  0.1613 -0.2413
 3650ntf    nn321798   2.430   3.035   0.656 -0.2264 -0.5367  0.2302
 3650ntf    sn221799   2.488   2.895   0.613  0.0741 -0.4332  0.2950
 3650ntf    cn121800   2.646   2.887   0.703  0.1934  0.1882  0.1500
 3650ntf    fn421801   2.400   3.345   0.561 -0.3766 -0.0221 -0.1262
 3650ntf    fn421802   2.492   3.199   0.456  0.2750 -0.6410 -0.3421
 3650ntf    fn421803   2.294   3.256   0.396 -0.2842 -0.2465  0.0246
 3650ntf    on521804   2.259   3.193   0.726 -0.2590 -0.4808  0.0361
 3650ntf    on521805   2.207   3.034   0.535 -0.0717 -0.0958  0.4349
 3650ntf    on521806   2.520   2.882   0.473 -0.4210  0.0158  0.1373
 3650ntf    on521807   2.412   2.790   0.675 -0.0487 -0.2730  0.4178
 3650ntf    fn421808   2.706   2.769   0.694 -0.3411 -0.0924  0.1836
 3650ntf    fn421809   2.728   2.979   0.656 -0.0214  0.3006 -0.0038
 3650ntf    fn421810   2.628   2.898   0.833  0.3181  0.2456  0.1624
 3651ntf    cn121811   1.791   0.746   5.031 -0.2286 -0.0002  0.0476
 3651ntf    sn221812   1.771   0.918   4.975 -0.1707  0.0026  0.0344
 3651ntf    nn321813   1.800   0.984   5.114  0.1646  0.1523 -0.1064
 3651ntf    sn221814   1.872   1.119   5.148  0.1292  0.1881 -0.1754
 3651ntf    cn121815   1.726   1.226   5.173  0.0071 -0.0033 -0.0709
 3651ntf    fn421816   1.758   0.728   5.158 -0.3011 -0.5646 -0.0478
 3651ntf    fn421817   1.722   0.656   4.963  0.1622  0.2004 -0.6318
 3651ntf    fn421818   1.920   0.715   5.026 -0.2222 -0.0229  0.3483
 3651ntf    on521819   1.876   0.933   4.877 -0.1221  0.4272  0.1498
 3651ntf    on521820   1.633   0.932   4.935 -0.1065  0.2896 -0.0852
 3651ntf    on521821   1.939   1.179   5.036  0.4046  0.4710  0.1398
 3651ntf    on521822   1.931   1.129   5.279 -0.5040 -0.5155  0.1712
 3651ntf    fn421823   1.655   1.235   5.062  0.3254 -0.1571 -0.2883
 3651ntf    fn421824   1.656   1.179   5.275 -0.0851  0.2105 -0.0369
 3651ntf    fn421825   1.771   1.347   5.202 -0.0476 -0.1682  0.7295
 3652ntf    cn121826   1.543   3.525   1.706  0.0941  0.0584  0.0383
 3652ntf    sn221827   1.433   3.454   1.579  0.0773  0.5600 -0.2314
 3652ntf    nn321828   1.374   3.583   1.512  0.1906  0.6830 -0.0953
 3652ntf    sn221829   1.225   3.629   1.530  0.0899  0.2045  0.3197
 3652ntf    cn121830   1.140   3.552   1.389  0.5792  0.3007 -0.0297
 3652ntf    fn421831   1.593   3.434   1.788  0.7362  0.1528 -0.2444
 3652ntf    fn421832   1.649   3.580   1.651  0.1263 -0.2804 -0.2434
 3652ntf    fn421833   1.484   3.618   1.779  0.0262 -0.2665  0.3978
 3652ntf    on521834   1.537   3.392   1.502  0.4457  0.3288  0.4389
 3652ntf    on521835   1.352   3.365   1.659  0.5109  0.1680 -0.2208
 3652ntf    on521836   1.213   3.771   1.506 -0.2672  0.0792 -0.2737
 3652ntf    on521837   1.153   3.582   1.646 -0.8295  0.3613 -0.1776
 3652ntf    fn421838   1.181   3.427   1.369  0.1015  0.2389 -0.6520
 3652ntf    fn421839   1.009   3.543   1.409  0.5825  0.0778 -0.0992
 3652ntf    fn421840   1.153   3.615   1.274  0.4508  0.0580 -0.1778
 3653ntf    cn121841   5.838   3.998   0.365 -0.0591  0.2311 -0.0484
 3653ntf    sn221842   6.010   4.000   0.306  0.0127  0.1174  0.1546
 3653ntf    nn321843   5.996   4.109   0.194  0.1324 -0.2303 -0.2043
 3653ntf    sn221844   6.018   4.265   0.191 -0.1442 -0.1946 -0.4442
 3653ntf    cn121845   5.848   4.329   0.197 -0.0376  0.1273 -0.8623
 3653ntf    fn421846   5.806   3.893   0.438  0.0509  0.0142 -0.3063
 3653ntf    fn421847   5.819   4.108   0.434  0.0046 -0.1087  0.5159
 3653ntf    fn421848   5.746   4.001   0.270 -0.3234 -0.2147  0.1888
 3653ntf    on521849   6.088   4.034   0.422  0.1972 -0.4422  0.2006
 3653ntf    on521850   6.029   3.871   0.244  0.2119  0.0726  0.3076
 3653ntf    on521851   6.066   4.302   0.061  0.7075 -0.3447 -0.1782
 3653ntf    on521852   6.086   4.322   0.305 -0.3846  0.0092 -0.4024
 3653ntf    fn421853   5.784   4.284   0.091  0.2208 -0.4819 -0.7627
 3653ntf    fn421854   5.778   4.283   0.300  0.7003 -0.4029 -0.5941
 3653ntf    fn421855   5.835   4.461   0.200  0.2216  0.1407 -0.2154
 3654ntf    cn121856   1.485   0.022   5.318  0.0418  0.1199  0.2756
 3654ntf    sn221857   1.666   0.015   5.333  0.0858  0.0740 -0.2528
 3654ntf    nn321858   1.677   0.116   5.453  0.6327 -0.0028 -0.2347
 3654ntf    sn221859   1.730   0.263   5.450  0.4160  0.0925  0.3511
 3654ntf    cn121860   1.563   0.336   5.455  0.2256 -0.3031 -0.0883
 3654ntf    fn421861   1.446  -0.071   5.233 -0.2397  0.4322  0.0601
 3654ntf    fn421862   1.425   0.006   5.435 -0.3596  0.7880  0.1695
 3654ntf    fn421863   1.439   0.140   5.279 -0.0897 -0.1651 -0.4447
 3654ntf    on521864   1.691  -0.123   5.368  0.3753  0.2885  0.4049
 3654ntf    on521865   1.716   0.064   5.207 -0.2257  0.2328 -0.3168
 3654ntf    on521866   1.794   0.317   5.332  0.1517 -0.2420  0.0489
 3654ntf    on521867   1.773   0.301   5.582  0.1735  0.1025  0.4279
 3654ntf    fn421868   1.487   0.265   5.537  0.4495 -0.5883 -0.1288
 3654ntf    fn421869   1.559   0.455   5.513  0.2673 -0.2018 -0.2947
 3654ntf    fn421870   1.503   0.343   5.338 -0.0448  0.1467  0.0740
 3655ntf    cn121871   6.401   0.636   4.560  0.1036  0.2762 -0.3205
 3655ntf    sn221872   6.560   0.581   4.628 -0.1595  0.3032  0.3268
 3655ntf    nn321873   6.520   0.446   4.695  0.3454  0.0514  0.1295
 3655ntf    sn221874   6.499   0.404   4.845  0.0594  0.1978  0.1313
 3655ntf    cn121875   6.409   0.246   4.830  0.4659 -0.0037 -0.2067
 3655ntf    fn421876   6.406   0.751   4.495 -0.3202  0.6017  0.2102
 3655ntf    fn421877   6.360   0.541   4.477 -0.4507  0.4820 -0.2879
 3655ntf    fn421878   6.303   0.659   4.645 -0.2421 -0.2254 -0.5720
 3655ntf    on521879   6.644   0.566   4.511 -0.6450  0.2306 -0.0153
 3655ntf    on521880   6.599   0.687   4.718  0.2837 -0.0496  0.5561
 3655ntf    on521881   6.411   0.491   4.918 -0.3335  0.1378 -0.2647
 3655ntf    on521882   6.622   0.363   4.907  0.3572  0.6397 -0.1658
 3655ntf    fn421883   6.467   0.160   4.748 -0.1570 -0.5488 -0.0782
 3655ntf    fn421884   6.403   0.173   4.939 -1.1846 -0.2744 -0.4583
 3655ntf    fn421885   6.286   0.264   4.785  0.6451 -0.0189 -0.7185
 3656ntf    cn121886   1.042   2.689   4.190  0.0139  0.2500 -0.0788
 3656ntf    sn221887   1.137   2.538   4.226  0.1677  0.3677  0.0087
 3656ntf    nn321888   1.191   2.513   4.081 -0.1282  0.4788 -0.1220
 3656ntf    sn221889   1.129   2.420   3.971  0.3620 -0.0565  0.0511
 3656ntf    cn121890   1.267   2.397   3.854 -0.0467  0.1948 -0.4842
 3656ntf    fn421891   1.025   2.754   4.304  0.2663 -0.1149  0.1651
 3656ntf    fn421892   1.101   2.780   4.114 -0.1330  0.0200 -0.4715
 3656ntf    fn421893   0.924   2.667   4.134 -0.1538  0.3683  0.2246
 3656ntf    on521894   1.247   2.578   4.310 -0.0133  1.0909 -0.0915
 3656ntf    on521895   1.039   2.442   4.271  0.1684  0.3522 -0.0227
 3656ntf    on521896   1.033   2.497   3.895  0.0809 -0.7396 -0.2978
 3656ntf    on521897   1.093   2.285   4.007  0.9853 -0.1502  0.3409
 3656ntf    fn421898   1.374   2.347   3.913 -0.6026 -0.0040  0.3771
 3656ntf    fn421899   1.241   2.308   3.760  0.3607 -0.7191  0.2558
 3656ntf    fn421900   1.303   2.509   3.793  0.3434  0.0705 -0.4825
 3657ntf    cn121901   4.037   4.659   5.674 -0.6224  0.4627 -0.0690
 3657ntf    sn221902   4.107   4.808   5.598  0.5200  0.0555  0.1675
 3657ntf    nn321903   4.257   4.780   5.637  0.4645 -0.2928  0.1339
 3657ntf    sn221904   4.327   4.830   5.768 -0.0292 -0.0983  0.3250
 3657ntf    cn121905   4.446   4.697   5.802  0.2198 -0.0272 -0.2568
 3657ntf    fn421906   4.090   4.643   5.794 -0.2450 -0.3642 -0.3355
 3657ntf    fn421907   3.905   4.656   5.673 -0.6134  0.0119 -0.1825
 3657ntf    fn421908   4.072   4.553   5.603  0.2069  0.9853 -0.4485
 3657ntf    on521909   4.099   4.785   5.456  0.2159 -0.1034  0.2095
 3657ntf    on521910   4.040   4.920   5.659 -0.2681 -0.2597 -0.1064
 3657ntf    on521911   4.255   4.814   5.892 -0.2900  0.4109  0.2434
 3657ntf    on521912   4.422   4.938   5.756 -0.2148 -0.0147 -0.4477
 3657ntf    fn421913   4.516   4.662   5.696  0.1279 -0.5660 -0.1437
 3657ntf    fn421914   4.529   4.737   5.897 -0.6096  0.5732  0.2327
 3657ntf    fn421915   4.371   4.598   5.847 -0.0255  0.2584 -0.0238
 3658ntf    cn121916   4.522   5.553   4.715  0.5581 -0.1690 -0.1670
 3658ntf    sn221917   4.396   5.684   4.722  0.2623 -0.4678  0.1369
 3658ntf    nn321918   4.308   5.633   4.842 -0.2541  0.0365 -0.0266
 3658ntf    sn221919   4.241   5.714   4.959 -0.0761 -0.0831  0.1578
 3658ntf    cn121920   4.374   5.718   5.083  0.2033 -0.4463 -0.1252
 3658ntf    fn421921   4.584   5.546   4.832  0.5257 -0.6463 -0.1757
 3658ntf    fn421922   4.468   5.435   4.690  0.0950  0.0917 -0.4158
 3658ntf    fn421923   4.617   5.563   4.623  0.3570  0.2852 -0.3277
 3658ntf    on521924   4.473   5.805   4.740  0.0227 -0.2936 -0.0107
 3658ntf    on521925   4.329   5.679   4.595 -0.5803 -0.0526  0.5541
 3658ntf    on521926   4.137   5.639   5.026 -0.4263  0.0206 -0.2694
 3658ntf    on521927   4.209   5.849   4.919 -0.1391 -0.1205  0.0815
 3658ntf    fn421928   4.486   5.779   5.047  0.3087  0.0053  0.9130
 3658ntf    fn421929   4.339   5.795   5.185 -0.1459 -0.5908 -0.1366
 3658ntf    fn421930   4.407   5.600   5.133 -0.0290 -0.3588  0.2439
 3659ntf    cn121931   3.449   0.583   0.293 -0.0274  0.2149 -0.2250
 3659ntf    sn221932   3.275   0.540   0.320  0.0193  0.1086 -0.0951
 3659ntf    nn321933   3.275   0.538   0.477 -0.3361 -0.4121 -0.1006
 3659ntf    sn221934   3.314   0.417   0.571  0.2047 -0.0360  0.1657
 3659ntf    cn121935   3.151   0.336   0.578 -0.1054  0.5517 -0.1105
 3659ntf    fn421936   3.528   0.478   0.310 -0.3397 -0.1531 -0.9753
 3659ntf    fn421937   3.469   0.630   0.170  0.7999 -0.0193 -0.1840
 3659ntf    fn421938   3.498   0.674   0.375 -0.3484 -0.2758  0.5146
 3659ntf    on521939   3.201   0.659   0.284 -0.4360 -0.1844 -0.1408
 3659ntf    on521940   3.242   0.420   0.248 -0.2010 -0.1035  0.3564
 3659ntf    on521941   3.324   0.463   0.707  0.3876 -0.0067  0.1419
 3659ntf    on521942   3.402   0.318   0.514  0.2047  0.1994 -0.2527
 3659ntf    fn421943   3.154   0.227   0.653 -0.2133  0.3889 -0.3424
 3659ntf    fn421944   3.052   0.407   0.629 -0.1271  0.2372  0.2855
 3659ntf    fn421945   3.121   0.288   0.458  0.6504 -0.4225  0.0772
 3660ntf    cn121946   3.049   7.011   3.747 -0.0265 -0.2876  0.1921
 3660ntf    sn221947   3.183   6.909   3.680  0.0572 -0.1094  0.0872
 3660ntf    nn321948   3.191   6.967   3.534  0.3181 -0.1808  0.0730
 3660ntf    sn221949   3.131   6.902   3.404  0.1339 -0.0754  0.1060
 3660ntf    cn121950   3.239   6.757   3.381 -0.0908 -0.2574  0.1878
 3660ntf    fn421951   3.072   7.041   3.874  0.4534 -0.5457  0.1673
 3660ntf    fn421952   3.041   7.129   3.687  0.0826 -0.2665  0.2201
 3660ntf    fn421953   2.932   6.953   3.723  0.0819 -0.3669 -0.1438
 3660ntf    on521954   3.299   6.955   3.751 -0.2105 -0.4061  0.7197
 3660ntf    on521955   3.150   6.770   3.698 -0.0619 -0.1013 -0.0612
 3660ntf    on521956   3.168   6.983   3.291 -0.2734 -0.3679 -0.2389
 3660ntf    on521957   3.000   6.841   3.407  0.0584  0.0567 -0.4044
 3660ntf    fn421958   3.217   6.699   3.264 -0.0757  0.0490  0.0292
 3660ntf    fn421959   3.369   6.781   3.375 -0.1575  0.0912  0.0457
 3660ntf    fn421960   3.230   6.662   3.472 -0.9516 -0.4232 -0.0562
 3661ntf    cn121961   3.240   3.457   2.074 -0.6612 -0.3346  0.1531
 3661ntf    sn221962   3.268   3.625   2.013  0.4844 -0.4319  0.3857
 3661ntf    nn321963   3.425   3.626   2.000  0.4979 -0.2336  0.5523
 3661ntf    sn221964   3.524   3.745   2.026  0.0974  0.2276  0.0191
 3661ntf    cn121965   3.560   3.704   2.200 -0.5701  0.1774  0.1460
 3661ntf    fn421966   3.115   3.437   2.111 -0.6854 -0.2299  0.1252
 3661ntf    fn421967   3.255   3.369   1.976 -0.4265  0.2027 -0.2960
 3661ntf    fn421968   3.321   3.423   2.173  0.1126  0.1902 -0.2937
 3661ntf    on521969   3.201   3.621   1.886 -0.0292  0.3817  0.6207
 3661ntf    on521970   3.212   3.716   2.110 -0.5300 -0.8184  0.1676
 3661ntf    on521971   3.469   3.877   2.042 -0.0952  0.0937  0.4745
 3661ntf    on521972   3.650   3.731   1.957 -0.0740 -0.8856 -0.0848
 3661ntf    fn421973   3.669   3.770   2.236  0.1146 -0.5191 -0.6195
 3661ntf    fn421974   3.469   3.751   2.285 -0.3742  1.0130 -0.0934
 3661ntf    fn421975   3.592   3.579   2.225 -0.0716  0.2576 -0.0741
 3662ntf    cn121976   6.145   6.733   1.263  0.2442 -0.1860  0.3188
 3662ntf    sn221977   6.040   6.877   1.228  0.6105  0.0475  0.1729
 3662ntf    nn321978   5.938   6.877   1.348  0.4836 -0.2167  0.0650
 3662ntf    sn221979   5.812   6.787   1.379  0.2852  0.1905  0.4488
 3662ntf    cn121980   5.683   6.911   1.348  0.1601 -0.0455  0.0122
 3662ntf    fn421981   6.169   6.737   1.393  0.1973 -0.1270  0.3259
 3662ntf    fn421982   6.090   6.619   1.225 -0.4082  0.1473  0.2378
 3662ntf    fn421983   6.264   6.735   1.205 -0.2989  0.5503 -0.8107
 3662ntf    on521984   6.134   6.986   1.223  0.8496 -0.1797 -0.2745
 3662ntf    on521985   5.980   6.846   1.101  0.3702 -0.3377  0.3774
 3662ntf    on521986   5.796   6.747   1.516 -0.7101  0.1724  0.3303
 3662ntf    on521987   5.774   6.688   1.281 -0.4125  0.3476  0.5594
 3662ntf    fn421988   5.701   6.962   1.227  0.3137  0.4169  0.2282
 3662ntf    fn421989   5.558   6.868   1.359  0.1685 -0.3237 -0.8861
 3662ntf    fn421990   5.690   7.015   1.430 -1.3569  0.0916 -0.0036
 3663ntf    cn121991   3.297   1.617   5.872 -0.5478  0.1712 -0.2439
 3663ntf    sn221992   3.455   1.584   5.787 -0.4001 -0.3495  0.2319
 3663ntf    nn321993   3.458   1.703   5.685  0.0987 -0.6597 -0.1214
 3663ntf    sn221994   3.575   1.769   5.604  0.0076 -0.2300  0.0930
 3663ntf    cn121995   3.486   1.833   5.458 -0.0742 -0.0598  0.2167
 3663ntf    fn421996   3.305   1.577   5.997 -0.1598 -0.0093 -0.3240
 3663ntf    fn421997   3.280   1.747   5.889  0.3321  0.2878 -0.1921
 3663ntf    fn421998   3.189   1.568   5.815 -0.2353 -0.4547 -0.3050
 3663ntf    on521999   3.552   1.593   5.893 -0.0261 -0.1062 -0.1284
 3663ntf    on522000   3.430   1.455   5.727  0.2325 -0.3321 -0.0789
 3663ntf    on522001   3.670   1.674   5.552 -0.3686 -0.2921 -0.4923
 3663ntf    on522002   3.633   1.884   5.668 -0.3981 -0.0966  0.2263
 3663ntf    fn422003   3.584   1.865   5.376 -0.2043 -0.4125 -0.0794
 3663ntf    fn422004   3.411   1.738   5.403 -0.3159  0.3496 -0.1601
 3663ntf    fn422005   3.419   1.946   5.475 -0.0232  0.0973 -0.5980
 3664ntf    cn122006   1.643   5.937   0.326 -0.0712 -0.1680  0.4597
 3664ntf    sn222007   1.641   5.757   0.305  0.6190 -0.1447  0.1639
 3664ntf    nn322008   1.594   5.716   0.449  0.7354  0.1170  0.2770
 3664ntf    sn222009   1.649   5.600   0.540 -0.0464 -0.3537  0.1586
 3664ntf    cn122010   1.777   5.689   0.634  0.0844 -0.2747 -0.0925
 3664ntf    fn422011   1.658   5.990   0.206 -0.0842 -0.7557  0.1973
 3664ntf    fn422012   1.531   5.997   0.363 -0.0039  0.4765 -0.3334
 3664ntf    fn422013   1.741   5.989   0.399  0.2574 -0.0632 -0.0472
 3664ntf    on522014   1.542   5.740   0.202  0.4235 -0.7579  0.4490
 3664ntf    on522015   1.778   5.737   0.265  0.4383 -0.6314 -0.2251
 3664ntf    on522016   1.702   5.485   0.471  0.4968  0.1406 -0.2561
 3664ntf    on522017   1.559   5.564   0.646 -0.5050  0.3040  0.0006
 3664ntf    fn422018   1.716   5.791   0.692  0.0090 -0.4637  0.1670
 3664ntf    fn422019   1.838   5.612   0.722  0.4252 -0.1985 -0.2607
 3664ntf    fn422020   1.867   5.750   0.559 -0.6124 -0.2108 -0.8859
 3665ntf    cn122021   7.172   2.875   6.164 -0.2180  0.3490  0.1568
 3665ntf    sn222022   7.302   2.934   6.051 -0.1388 -0.2403 -0.0664
 3665ntf    nn322023   7.434   2.866   6.102 -0.2540 -0.1562  0.3464
 3665ntf    sn222024   7.581   2.920   6.103 -0.2749 -0.0925  0.1322
 3665ntf    cn122025   7.615   2.994   5.941  0.1061 -0.0899  0.2108
 3665ntf    fn422026   7.051   2.913   6.129 -0.2793 -0.2149 -0.2606
 3665ntf    fn422027   7.173   2.743   6.168  0.3574  0.3579  0.5118
 3665ntf    fn422028   7.180   2.911   6.291 -0.4417 -0.5231  0.4252
 3665ntf    on522029   7.249   2.875   5.931  0.1875  0.2882 -0.4746
 3665ntf    on522030   7.301   3.079   6.056 -0.2758 -0.2335 -0.2651
 3665ntf    on522031   7.681   2.816   6.114  0.4143  0.5971  0.5419
 3665ntf    on522032   7.600   3.033   6.191 -0.3726 -0.2291  0.3290
 3665ntf    fn422033   7.737   3.044   5.933 -0.0444  0.3116  0.3754
 3665ntf    fn422034   7.605   2.909   5.840  0.1148  0.2876 -0.1082
 3665ntf    fn422035   7.541   3.098   5.905  0.1039 -0.3291 -0.4946
 3666ntf    cn122036   6.190   2.293   2.331 -0.4289  0.0643 -0.0814
 3666ntf    sn222037   6.349   2.213   2.292 -0.1357  0.4437  0.3166
 3666ntf    nn322038   6.321   2.075   2.363  0.5342  0.0728 -0.1335
 3666ntf    sn222039   6.322   1.929   2.305  0.1221 -0.0415  0.1479
 3666ntf    cn122040   6.153   1.901   2.244 -0.0151 -0.1433  0.5703
 3666ntf    fn422041   6.201   2.422   2.306  0.3312 -0.1295 -0.7851
 3666ntf    fn422042   6.091   2.247   2.258  0.2080 -0.4114 -0.6592
 3666ntf    fn422043   6.155   2.281   2.458  0.3196 -0.4330  0.0900
 3666ntf    on522044   6.363   2.208   2.148 -0.3443  0.0543  0.3066
 3666ntf    on522045   6.449   2.288   2.363  0.0929  0.2750  0.1771
 3666ntf    on522046   6.337   1.832   2.411  0.4098  0.0484  0.1916
 3666ntf    on522047   6.386   1.909   2.178  0.3841 -0.2830  0.3156
 3666ntf    fn422048   6.054   1.952   2.315  0.2041  0.4507  0.4610
 3666ntf    fn422049   6.135   1.963   2.129 -0.0964  0.1093  0.7176
 3666ntf    fn422050   6.135   1.772   2.220 -0.2069  0.0408 -0.3038
 3667ntf    cn122051   5.594   5.031   4.845 -0.1747 -0.0034 -0.1949
 3667ntf    sn222052   5.433   5.084   4.779 -0.1781  0.2756  0.0334
 3667ntf    nn322053   5.430   4.977   4.664 -0.1158  0.0783  0.2132
 3667ntf    sn222054   5.429   4.999   4.508 -0.0434 -0.1966  0.1730
 3667ntf    cn122055   5.259   5.062   4.493  0.1682  0.2983 -0.1481
 3667ntf    fn422056   5.626   4.908   4.807 -0.6103  0.0824 -0.8539
 3667ntf    fn422057   5.685   5.112   4.792 -0.0919  0.1586  0.1908
 3667ntf    fn422058   5.606   5.046   4.976 -0.6087 -0.2150 -0.1312
 3667ntf    on522059   5.346   5.046   4.887 -0.7907 -0.0708 -0.5724
 3667ntf    on522060   5.434   5.222   4.738 -0.8885  0.2419 -0.0989
 3667ntf    on522061   5.426   4.876   4.432  0.4614 -0.3411  0.3819
 3667ntf    on522062   5.501   5.111   4.454 -0.2160 -0.0575  0.2303
 3667ntf    fn422063   5.176   4.989   4.565 -0.2607  0.7510 -0.1778
 3667ntf    fn422064   5.250   5.189   4.530  0.7045  0.3407 -0.1605
 3667ntf    fn422065   5.210   5.050   4.371  0.3735  0.1341 -0.2145
 3668ntf    cn122066   1.807   2.654   4.001 -0.4615 -0.1078 -0.1441
 3668ntf    sn222067   1.900   2.650   3.845 -0.2431  0.3263 -0.0275
 3668ntf    nn322068   2.035   2.721   3.880 -0.1894  0.2969 -0.1747
 3668ntf    sn222069   2.174   2.670   3.826 -0.1089  0.2075  0.1158
 3668ntf    cn122070   2.146   2.680   3.647 -0.3330 -0.1778  0.1296
 3668ntf    fn422071   1.783   2.779   4.037 -0.3651 -0.0672 -0.2232
 3668ntf    fn422072   1.688   2.596   4.006 -0.6905  0.4053  0.4486
 3668ntf    fn422073   1.871   2.597   4.102  0.5553  0.3335 -0.5286
 3668ntf    on522074   1.913   2.508   3.822 -0.0290  0.2346  0.6440
 3668ntf    on522075   1.818   2.737   3.763 -0.6863  0.0935  0.1616
 3668ntf    on522076   2.223   2.537   3.853  0.5911  0.3147 -0.5760
 3668ntf    on522077   2.268   2.778   3.849 -0.4591  0.5920 -0.2487
 3668ntf    fn422078   2.265   2.666   3.590  0.0183  0.6982  0.6351
 3668ntf    fn422079   2.072   2.581   3.600  0.1475 -0.3736 -0.2325
 3668ntf    fn422080   2.091   2.795   3.613 -0.2318 -0.0261  0.4814
 3669ntf    cn122081   5.620   0.284   6.655 -0.5285 -0.6930 -0.2284
 3669ntf    sn222082   5.630   0.463   6.622  0.0468 -0.6683  0.0783
 3669ntf    nn322083   5.778   0.459   6.569 -0.0007 -0.0156 -0.1060
 3669ntf    sn222084   5.910   0.462   6.653 -0.0863 -0.4648  0.0465
 3669ntf    cn122085   5.950   0.639   6.664 -0.5891 -0.3643  0.2751
 3669ntf    fn422086   5.688   0.204   6.575  0.2950 -0.0502 -0.1856
 3669ntf    fn422087   5.661   0.254   6.777  0.2574  0.0367 -0.3055
 3669ntf    fn422088   5.493   0.246   6.660 -0.7837  0.1765  0.1581
 3669ntf    on522089   5.542   0.491   6.512  0.4740  0.1009 -0.0777
 3669ntf    on522090   5.611   0.533   6.747  1.1751  0.2961 -0.2789
 3669ntf    on522091   6.025   0.409   6.584  0.0454  0.2485 -0.2986
 3669ntf    on522092   5.893   0.426   6.791 -0.2076 -0.0813  0.1330
 3669ntf    fn422093   5.850   0.724   6.650 -0.2650 -0.0908 -0.4378
 3669ntf    fn422094   6.030   0.671   6.764 -0.4987  0.0166  0.0863
 3669ntf    fn422095   6.013   0.668   6.551 -0.2568 -0.7818  0.3530
 3670ntf    cn122096   4.107   0.139   7.038 -0.3901  0.1602  0.2693
 3670ntf    sn222097   4.001   0.025   6.944  0.0874  0.2666 -0.4001
 3670ntf    nn322098   3.917   0.108   6.842 -0.0473  0.5377 -0.0679
 3670ntf    sn222099   3.950   0.157   6.696  0.0509 -0.0700 -0.2530
 3670ntf    cn122100   3.802   0.096   6.611 -0.1258  0.2902 -0.2075
 3670ntf    fn422101   4.188   0.205   6.958 -0.3225 -0.0215  0.1880
 3670ntf    fn422102   4.043   0.235   7.103  0.3628  0.9164 -0.0996
 3670ntf    fn422103   4.178   0.079   7.132 -0.2181  0.0490  0.0697
 3670ntf    on522104   4.096  -0.066   6.883  0.6494  0.0943  0.7007
 3670ntf    on522105   3.910  -0.025   7.044  0.6840  0.2598  0.1434
 3670ntf    on522106   4.050   0.089   6.617 -0.1535 -0.1112 -0.4765
 3670ntf    on522107   3.935   0.299   6.671  0.6620  0.0548  0.0680
 3670ntf    fn422108   3.819  -0.034   6.596  0.8704  0.4104 -0.1742
 3670ntf    fn422109   3.686   0.111   6.673 -0.2239 -0.1346 -0.2833
 3670ntf    fn422110   3.793   0.131   6.483 -0.0119 -0.4307 -0.4176
 3671ntf    cn122111   1.560   6.092   0.759 -0.3253  0.1513 -0.3852
 3671ntf    sn222112   1.494   6.204   0.885 -0.0263 -0.1229  0.0207
 3671ntf    nn322113   1.596   6.170   0.999  0.3323  0.2841 -0.1771
 3671ntf    sn222114   1.717   6.252   1.056  0.4374  0.1946 -0.2717
 3671ntf    cn122115   1.831   6.231   0.915  0.0202 -0.2097 -0.5515
 3671ntf    fn422116   1.690   6.066   0.761 -0.4283 -0.3256  0.2840
 3671ntf    fn422117   1.499   5.975   0.774 -0.3435  0.1927 -0.1426
 3671ntf    fn422118   1.530   6.134   0.637 -0.2415 -0.5862 -0.6696
 3671ntf    on522119   1.506   6.335   0.825 -1.1006  0.1975  0.4645
 3671ntf    on522120   1.363   6.147   0.908 -0.1777  0.2359  0.0630
 3671ntf    on522121   1.773   6.181   1.169 -0.0908  0.7986  0.3741
 3671ntf    on522122   1.694   6.394   1.065 -0.3702  0.1008 -0.8191
 3671ntf    fn422123   1.945   6.294   0.936 -0.0539 -0.3117  0.1973
 3671ntf    fn422124   1.860   6.103   0.902  0.1634 -0.2152 -0.1944
 3671ntf    fn422125   1.772   6.277   0.806 -0.1970  0.2826 -0.2295
 3672ntf    cn122126   6.158   2.561   4.300  0.4031  0.5559  0.3371
 3672ntf    sn222127   6.252   2.475   4.171 -0.3328 -0.0904  0.2264
 3672ntf    nn322128   6.219   2.573   4.053  0.2837 -0.4823 -0.2823
 3672ntf    sn222129   6.127   2.537   3.931  0.0173 -0.3580 -0.1200
 3672ntf    cn122130   6.081   2.706   3.883  0.3533 -0.1727  0.1968
 3672ntf    fn422131   6.178   2.497   4.415  0.3944  0.0694  0.0713
 3672ntf    fn422132   6.188   2.688   4.317 -0.0448  0.7400 -0.2503
 3672ntf    fn422133   6.027   2.551   4.280  0.4888 -0.0066  0.0425
 3672ntf    on522134   6.391   2.491   4.205 -0.1946 -0.0119 -0.3589
 3672ntf    on522135   6.205   2.339   4.159  0.1677 -0.2072 -0.4320
 3672ntf    on522136   6.002   2.475   3.967  0.0276 -0.1213  0.3272
 3672ntf    on522137   6.193   2.477   3.818  0.3693 -0.0293 -0.0938
 3672ntf    fn422138   6.184   2.779   3.844  0.0310 -0.0013 -0.3616
 3672ntf    fn422139   6.000   2.708   3.778  0.4776 -0.1352  0.1017
 3672ntf    fn422140   6.018   2.769   3.981  0.2534 -0.5622  0.3841
 3673ntf    cn122141   4.119   4.246   4.102 -0.1995  0.0628 -0.0439
 3673ntf    sn222142   3.973   4.344   4.147 -0.1605  0.0537  0.1023
 3673ntf    nn322143   3.881   4.244   4.226  0.0020 -0.0542  0.1555
 3673ntf    sn222144   3.885   4.213   4.380  0.2443  0.0490  0.1700
 3673ntf    cn122145   3.771   4.337   4.447 -0.1100 -0.4449  0.4896
 3673ntf    fn422146   4.191   4.228   4.212  0.2452 -0.2996 -0.3884
 3673ntf    fn422147   4.098   4.129   4.043 -0.1164  0.1224 -0.1920
 3673ntf    fn422148   4.197   4.303   4.012 -0.4035  0.0190 -0.2474
 3673ntf    on522149   4.017   4.456   4.226  0.0736  0.5948 -0.7761
 3673ntf    on522150   3.913   4.370   4.019  0.0957  0.1037 -0.0079
 3673ntf    on522151   4.008   4.235   4.453  0.0769  0.3186  0.3717
 3673ntf    on522152   3.818   4.087   4.403 -0.0227  0.0751 -0.4535
 3673ntf    fn422153   3.830   4.454   4.465 -0.3549 -0.2364 -0.0499
 3673ntf    fn422154   3.673   4.357   4.361  0.3730 -0.0937  0.0134
 3673ntf    fn422155   3.708   4.313   4.561 -0.4769  0.0480  0.3962
 3674ntf    cn122156   0.915   1.579   6.813 -0.1086 -0.0037  0.0732
 3674ntf    sn222157   1.088   1.554   6.763 -0.2030 -0.3550 -0.0771
 3674ntf    nn322158   1.095   1.608   6.616  0.4333 -0.1691  0.0228
 3674ntf    sn222159   1.076   1.754   6.560  0.1531 -0.2151 -0.0010
 3674ntf    cn122160   1.219   1.760   6.448  0.1036 -0.0675 -0.0568
 3674ntf    fn422161   0.834   1.545   6.714  0.1797 -0.7584  0.0956
 3674ntf    fn422162   0.881   1.510   6.920  0.0899 -0.2938 -0.0504
 3674ntf    fn422163   0.893   1.709   6.828 -0.0757 -0.0570  0.5874
 3674ntf    on522164   1.160   1.624   6.866  0.0248  0.0044 -0.4815
 3674ntf    on522165   1.099   1.410   6.755  0.2960 -0.3053 -0.2766
 3674ntf    on522166   1.108   1.856   6.657  0.5440  0.1380 -0.4980
 3674ntf    on522167   0.953   1.765   6.485 -0.0894 -0.2092  0.3949
 3674ntf    fn422168   1.242   1.871   6.379  0.6630 -0.3397 -0.3204
 3674ntf    fn422169   1.330   1.725   6.512  0.1352 -0.7388 -0.4687
 3674ntf    fn422170   1.209   1.670   6.351 -0.1918 -0.1772  0.0750
 3675ntf    cn122171   1.001   5.524   2.743 -0.5358  0.1456 -0.3170
 3675ntf    sn222172   1.030   5.558   2.919 -0.2560 -0.0270 -0.3281
 3675ntf    nn322173   0.933   5.445   2.972 -0.5087  0.2874 -0.1131
 3675ntf    sn222174   0.931   5.389   3.118  0.0511  0.3442 -0.0782
 3675ntf    cn122175   0.777   5.458   3.186  0.2382  0.4110  0.2780
 3675ntf    fn422176   1.056   5.618   2.667 -0.5817 -0.0449 -0.5883
 3675ntf    fn422177   1.047   5.408   2.698 -0.1030  0.3989 -0.5309
 3675ntf    fn422178   0.872   5.544   2.722 -0.5007  0.5862 -0.1191
 3675ntf    on522179   1.169   5.540   2.951 -0.2540 -0.0078 -0.3266
 3675ntf    on522180   0.979   5.692   2.930 -0.3349 -0.0943  0.1519
 3675ntf    on522181   1.034   5.429   3.210 -0.3557  0.0105  0.5283
 3675ntf    on522182   0.894   5.249   3.123  0.4505  0.2249 -0.4422
 3675ntf    fn422183   0.763   5.417   3.311  0.1705  0.1180  0.1760
 3675ntf    fn422184   0.770   5.590   3.181 -0.3178  0.3966  0.5780
 3675ntf    fn422185   0.671   5.416   3.119  0.5155 -0.1266  0.1739
 3676ntf    cn122186   0.913   1.341   4.294  0.4346  0.5807 -0.1360
 3676ntf    sn222187   0.978   1.192   4.374 -0.1047  0.6036  0.3454
 3676ntf    nn322188   0.874   1.175   4.490 -0.5805  0.6188 -0.0775
 3676ntf    sn222189   0.745   1.085   4.481 -0.2882  0.1635  0.2252
 3676ntf    cn122190   0.635   1.165   4.602 -0.1769  0.5297  0.0847
 3676ntf    fn422191   0.989   1.388   4.196 -0.0306  0.3897 -0.5938
 3676ntf    fn422192   0.798   1.338   4.229  0.4351  0.2989 -0.1244
 3676ntf    fn422193   0.892   1.435   4.385  0.2648  0.4695 -0.0612
 3676ntf    on522194   0.980   1.094   4.269  0.2114  0.6577  0.2996
 3676ntf    on522195   1.109   1.240   4.412  0.4562 -0.0994 -0.6515
 3676ntf    on522196   0.773   0.954   4.534 -0.3910 -0.0993 -0.3636
 3676ntf    on522197   0.673   1.097   4.357  0.5317 -0.2237 -0.2980
 3676ntf    fn422198   0.673   1.171   4.729 -0.1779  0.3967  0.0915
 3676ntf    fn422199   0.614   1.292   4.569  0.2683  0.5891  0.0265
 3676ntf    fn422200   0.514   1.114   4.591 -0.0455  0.1014  0.5859
 3677ntf    cn122201   2.518   1.379   0.996  0.4736 -0.1421 -0.2999
 3677ntf    sn222202   2.630   1.397   1.138 -0.0604  0.2196  0.0789
 3677ntf    nn322203   2.749   1.301   1.102 -0.0907  0.1724  0.1053
 3677ntf    sn222204   2.762   1.149   1.136  0.1415  0.1815  0.0590
 3677ntf    cn122205   2.897   1.167   1.257  0.2105 -0.0311  0.0147
 3677ntf    fn422206   2.590   1.392   0.886  0.0660  0.7696 -0.4708
 3677ntf    fn422207   2.460   1.261   0.984  0.6292 -0.2242 -0.2503
 3677ntf    fn422208   2.425   1.473   0.990  0.3659 -0.1810  0.5538
 3677ntf    on522209   2.681   1.530   1.113 -0.3660  0.4070  0.4312
 3677ntf    on522210   2.556   1.370   1.259 -0.2760  0.3515 -0.0227
 3677ntf    on522211   2.828   1.065   1.040  0.0220 -0.4200  0.4950
 3677ntf    on522212   2.653   1.094   1.213  0.3365 -0.0966  0.1376
 3677ntf    fn422213   3.002   1.224   1.200  0.0341 -0.3136 -0.6016
 3677ntf    fn422214   2.852   1.255   1.346 -0.1111 -0.7558  0.5826
 3677ntf    fn422215   2.938   1.054   1.313 -0.0381 -0.0400  0.1839
 3678ntf    cn122216   1.637   6.576   3.420 -0.0092 -0.1542  0.6239
 3678ntf    sn222217   1.686   6.715   3.526 -0.0433  0.2556  0.1031
 3678ntf    nn322218   1.820   6.661   3.589 -0.1880 -0.0388  0.1596
 3678ntf    sn222219   1.967   6.670   3.536 -0.1796  0.1570  0.2133
 3678ntf    cn122220   2.035   6.814   3.623  0.2686  0.0900 -0.0227
 3678ntf    fn422221   1.626   6.457   3.477  0.3648 -0.6059 -0.2261
 3678ntf    fn422222   1.525   6.601   3.354  0.6028  0.1359 -0.3269
 3678ntf    fn422223   1.728   6.560   3.325 -0.1348 -0.2621  0.5198
 3678ntf    on522224   1.718   6.826   3.439 -0.3677  0.2260 -0.0532
 3678ntf    on522225   1.585   6.723   3.628  0.0987  0.3820  0.2335
 3678ntf    on522226   1.996   6.694   3.397 -0.2100 -0.2941  0.1249
 3678ntf    on522227   2.048   6.571   3.603 -0.0532  0.0803 -0.0515
 3678ntf    fn422228   2.073   6.791   3.747 -0.6969 -0.8507  0.1150
 3678ntf    fn422229   2.145   6.861   3.565  0.6967  0.0735  0.7637
 3678ntf    fn422230   1.938   6.905   3.624  0.1190 -0.0598 -0.5554
 3679ntf    cn122231   4.028   5.599   0.881 -0.0940  0.0175  0.1035
 3679ntf    sn222232   3.971   5.465   0.989 -0.1978  0.0909  0.1403
 3679ntf    nn322233   4.020   5.512   1.131  0.3279  0.1153 -0.0454
 3679ntf    sn222234   3.945   5.602   1.235  0.1438 -0.2201  0.1159
 3679ntf    cn122235   4.008   5.546   1.397 -0.4582  0.2139  0.5062
 3679ntf    fn422236   4.159   5.609   0.900 -0.0270  0.6994 -0.6785
 3679ntf    fn422237   4.014   5.569   0.753  0.0106 -0.0476  0.1065
 3679ntf    fn422238   3.972   5.716   0.909 -0.3547 -0.0418 -0.1651
 3679ntf    on522239   3.829   5.450   0.969 -0.2787  0.5915  0.3196
 3679ntf    on522240   4.052   5.357   0.939  0.1833  0.0469  0.8333
 3679ntf    on522241   3.804   5.581   1.253 -0.0444  0.4909 -0.4730
 3679ntf    on522242   3.992   5.739   1.240  0.1978 -0.2091 -0.6483
 3679ntf    fn422243   4.136   5.514   1.385 -0.6332 -0.2987 -0.0837
 3679ntf    fn422244   3.985   5.641   1.486 -0.1378  0.2418  0.5604
 3679ntf    fn422245   3.943   5.441   1.445  0.2083 -0.4607 -0.0333
 3680ntf    cn122246   5.800   5.196   1.519 -0.1195  0.0974 -0.0150
 3680ntf    sn222247   5.832   5.100   1.670 -0.0791 -0.1230 -0.1640
 3680ntf    nn322248   5.690   5.041   1.698 -0.0572 -0.2220 -0.2639
 3680ntf    sn222249   5.648   4.943   1.814  0.0613  0.0275 -0.0098
 3680ntf    cn122250   5.649   4.781   1.731 -0.0680  0.1885 -0.3278
 3680ntf    fn422251   5.911   5.260   1.484 -0.2417  0.2490 -0.1305
 3680ntf    fn422252   5.773   5.129   1.408  0.1203  0.0506 -0.0438
 3680ntf    fn422253   5.707   5.289   1.535 -0.6165 -0.4915  0.5232
 3680ntf    on522254   5.931   5.002   1.632 -0.0137 -0.0660 -0.1422
 3680ntf    on522255   5.866   5.193   1.774 -0.3231  0.1585 -0.3329
 3680ntf    on522256   5.509   4.962   1.846 -0.0469 -0.4092 -0.2151
 3680ntf    on522257   5.745   4.935   1.920  0.0743  0.0259 -0.0218
 3680ntf    fn422258   5.617   4.677   1.805  0.0612  0.1650 -0.3050
 3680ntf    fn422259   5.566   4.778   1.628 -0.1278  0.2035 -0.2803
 3680ntf    fn422260   5.764   4.755   1.671  0.1785  0.1812  0.1435
 3681ntf    cn122261   1.297   4.587   7.011 -0.3693 -0.4775  0.1028
 3681ntf    sn222262   1.393   4.632   7.159 -0.2712  0.0682 -0.1227
 3681ntf    nn322263   1.460   4.763   7.107  0.3871 -0.2553 -0.0960
 3681ntf    sn222264   1.610   4.801   7.076  0.3822 -0.0829  0.0868
 3681ntf    cn122265   1.661   4.819   7.250  0.2325 -0.1101  0.1334
 3681ntf    fn422266   1.176   4.639   7.019 -0.1378  0.1201 -0.2106
 3681ntf    fn422267   1.364   4.621   6.902 -0.5714 -0.2039  0.0642
 3681ntf    fn422268   1.270   4.458   7.004  0.2245 -0.6057  0.1212
 3681ntf    on522269   1.290   4.653   7.258 -0.2649  0.5611 -0.2220
 3681ntf    on522270   1.484   4.523   7.185 -0.2193  0.2248  0.3624
 3681ntf    on522271   1.634   4.927   7.011  0.6862  0.0231  0.4071
 3681ntf    on522272   1.684   4.687   7.026  0.2941 -0.0639 -0.0904
 3681ntf    fn422273   1.586   4.905   7.317 -0.7376 -0.4979 -0.4222
 3681ntf    fn422274   1.656   4.708   7.322 -0.4344 -0.1691  0.0018
 3681ntf    fn422275   1.782   4.871   7.259  0.1590  0.0360  0.2819
 3682ntf    cn122276   5.402   3.414   4.888 -0.1095  0.2692  0.1802
 3682ntf    sn222277   5.292   3.559   4.905 -0.2299  0.1905  0.0688
 3682ntf    nn322278   5.373   3.652   5.002  0.2328 -0.3337  0.1899
 3682ntf    sn222279   5.367   3.659   5.159 -0.0902  0.1701  0.1578
 3682ntf    cn122280   5.547   3.661   5.188 -0.0510 -0.4472 -0.0204
 3682ntf    fn422281   5.503   3.448   4.810 -0.5038 -0.6104 -0.7323
 3682ntf    fn422282   5.440   3.386   5.012  0.4695  0.0401 -0.0504
 3682ntf    fn422283   5.347   3.310   4.828 -0.1739  0.6433 -0.4130
 3682ntf    on522284   5.287   3.613   4.771 -0.4962 -0.0425 -0.0178
 3682ntf    on522285   5.170   3.504   4.959  0.0198 -0.2895  0.1512
 3682ntf    on522286   5.314   3.538   5.218 -0.6278  0.2405 -0.1734
 3682ntf    on522287   5.317   3.787   5.202  0.9521  0.5662  0.2275
 3682ntf    fn422288   5.610   3.559   5.133 -0.5967 -0.4811 -0.6046
 3682ntf    fn422289   5.594   3.776   5.142 -0.2870 -0.0849  0.6337
 3682ntf    fn422290   5.585   3.664   5.314 -0.0865  0.0172 -0.0172
 3683ntf    cn122291   5.048   6.675   2.352  0.1564 -0.0783  0.3078
 3683ntf    sn222292   4.914   6.625   2.464 -0.1451  0.1906  0.0711
 3683ntf    nn322293   4.842   6.761   2.492 -0.0948  0.2670 -0.1703
 3683ntf    sn222294   4.696   6.817   2.477 -0.2772 -0.1685 -0.0305
 3683ntf    cn122295   4.720   6.894   2.314 -0.0256  0.1861  0.1718
 3683ntf    fn422296   4.996   6.743   2.251  0.0978 -0.3050  0.1865
 3683ntf    fn422297   5.134   6.751   2.416  0.6109 -0.1414 -0.2218
 3683ntf    fn422298   5.118   6.573   2.307 -0.0608  0.0371 -0.3078
 3683ntf    on522299   4.835   6.537   2.381 -0.1424  0.0705  0.1935
 3683ntf    on522300   4.977   6.568   2.581 -0.0794  0.5259  0.1996
 3683ntf    on522301   4.666   6.917   2.577 -0.0964 -0.4900  0.3440
 3683ntf    on522302   4.598   6.714   2.452  0.3632 -0.8182  0.1241
 3683ntf    fn422303   4.811   6.989   2.304  0.5287 -0.4300 -0.8040
 3683ntf    fn422304   4.748   6.804   2.221  0.1396  0.5163 -0.1017
 3683ntf    fn422305   4.608   6.955   2.277 -0.1304 -0.2983 -0.3201
 3684ntf    cn122306   6.672   4.785   1.796  0.2132 -0.1709  0.1002
 3684ntf    sn222307   6.711   4.700   1.952 -0.2804 -0.4129  0.0932
 3684ntf    nn322308   6.848   4.637   1.907 -0.0578  0.1211  0.0115
 3684ntf    sn222309   6.885   4.498   1.846 -0.2935  0.1701 -0.2410
 3684ntf    cn122310   6.916   4.412   2.003 -0.0011  0.1405 -0.3149
 3684ntf    fn422311   6.569   4.867   1.806 -0.0854 -0.4830 -0.4183
 3684ntf    fn422312   6.769   4.858   1.742  0.2239 -0.7968 -0.7476
 3684ntf    fn422313   6.642   4.706   1.695  0.0173  0.5437 -0.4124
 3684ntf    on522314   6.727   4.800   2.055  0.1927  0.5762 -0.9182
 3684ntf    on522315   6.600   4.611   1.973 -0.5344 -0.0420  0.3448
 3684ntf    on522316   7.013   4.504   1.781  0.1573 -0.3592  0.5815
 3684ntf    on522317   6.772   4.433   1.784 -0.6857 -0.2946  0.9328
 3684ntf    fn422318   6.835   4.453   2.099  0.3686  0.1658 -0.0139
 3684ntf    fn422319   6.910   4.280   1.993 -0.6771  0.1481 -0.0598
 3684ntf    fn422320   7.038   4.426   2.052  0.0015  0.1615 -0.3260
 3685ntf    cn122321   0.756   0.407   0.597 -0.1289  0.2184  0.1055
 3685ntf    sn222322   0.936   0.433   0.596 -0.0446 -0.3465  0.0854
 3685ntf    nn322323   0.965   0.400   0.445  0.1917 -0.1123  0.0798
 3685ntf    sn222324   0.958   0.489   0.316 -0.1106  0.0040  0.1755
 3685ntf    cn122325   1.103   0.597   0.335 -0.2734  0.2127  0.2391
 3685ntf    fn422326   0.694   0.504   0.533 -0.5058 -0.0034  0.1289
 3685ntf    fn422327   0.722   0.289   0.547  0.0394  0.1869  0.0642
 3685ntf    fn422328   0.717   0.410   0.723  0.1805  0.7714  0.1884
 3685ntf    on522329   0.956   0.568   0.642 -0.4508 -0.0880 -0.4780
 3685ntf    on522330   0.988   0.330   0.681 -0.5135 -0.3787  0.3392
 3685ntf    on522331   0.846   0.580   0.318  0.1894  0.3772  0.0891
 3685ntf    on522332   0.977   0.406   0.200 -0.6533  0.6936 -0.4212
 3685ntf    fn422333   1.134   0.679   0.236  0.2039 -0.0054  0.2063
 3685ntf    fn422334   1.095   0.672   0.444 -0.4938  0.2168  0.2210
 3685ntf    fn422335   1.213   0.525   0.347 -0.3506  0.0442 -0.0581
 3686ntf    cn122336   6.162   4.598   1.355  0.2151 -0.0116 -0.1890
 3686ntf    sn222337   6.165   4.486   1.211  0.3380 -0.0226 -0.1787
 3686ntf    nn322338   6.022   4.515   1.153  0.4667  0.5478 -0.2179
 3686ntf    sn222339   5.986   4.518   1.000  0.3403 -0.3389 -0.2120
 3686ntf    cn122340   6.012   4.686   0.936  0.1483 -0.1230  0.2672
 3686ntf    fn422341   6.059   4.566   1.432  0.1568 -0.4227 -0.4323
 3686ntf    fn422342   6.272   4.607   1.427  0.0026 -0.0835  0.1487
 3686ntf    fn422343   6.125   4.720   1.319  0.9588  0.3727  0.3285
 3686ntf    on522344   6.278   4.535   1.137  0.1677 -0.4660 -0.7416
 3686ntf    on522345   6.182   4.363   1.285  0.3739  0.3423  0.4318
 3686ntf    on522346   5.844   4.507   0.981  0.3833 -0.1165 -0.6814
 3686ntf    on522347   6.053   4.428   0.910 -0.8660 -0.3292 -1.1427
 3686ntf    fn422348   6.140   4.722   0.937  0.0623  0.2127 -0.2941
 3686ntf    fn422349   5.966   4.698   0.812 -0.2710  0.3370  0.4647
 3686ntf    fn422350   5.938   4.767   1.010  0.3438  0.4040 -0.1016
 3687ntf    cn122351   5.195   3.146   3.721 -0.0483  0.0172 -0.2365
 3687ntf    sn222352   5.314   3.010   3.734  0.1993  0.2771  0.2457
 3687ntf    nn322353   5.433   3.061   3.645  0.0587  0.2731  0.0550
 3687ntf    sn222354   5.565   3.133   3.690  0.0763  0.3146 -0.0637
 3687ntf    cn122355   5.683   2.997   3.662 -0.0011  0.2450 -0.0507
 3687ntf    fn422356   5.186   3.176   3.592  0.1987 -0.1584 -0.2954
 3687ntf    fn422357   5.075   3.114   3.766  0.0572 -0.1131 -0.0478
 3687ntf    fn422358   5.231   3.254   3.789  0.6595 -0.4680  0.1658
 3687ntf    on522359   5.335   2.991   3.876  0.0766  0.0570  0.2354
 3687ntf    on522360   5.240   2.904   3.669  0.1784  0.5549 -0.1830
 3687ntf    on522361   5.581   3.180   3.825 -0.2180  0.6734 -0.1516
 3687ntf    on522362   5.610   3.223   3.587  0.3376  0.5221  0.2299
 3687ntf    fn422363   5.654   2.941   3.545  0.5368 -0.1582  0.0046
 3687ntf    fn422364   5.806   3.044   3.648  0.0961 -0.0794 -0.2978
 3687ntf    fn422365   5.689   2.903   3.754 -0.1610  0.0839 -0.2043
 3688ntf    cn122366   2.839   6.076   6.429 -0.4149 -0.1475  0.1740
 3688ntf    sn222367   2.891   6.080   6.254 -0.2482 -0.0534  0.2248
 3688ntf    nn322368   2.990   6.202   6.252 -0.4463  0.1067  0.1859
 3688ntf    sn222369   3.141   6.216   6.212 -0.5117  0.3450  0.0234
 3688ntf    cn122370   3.228   6.206   6.371 -0.2846 -0.2696 -0.1367
 3688ntf    fn422371   2.757   5.973   6.437  0.3239 -0.7607 -0.0037
 3688ntf    fn422372   2.937   6.055   6.515 -0.2402  0.1645  0.0526
 3688ntf    fn422373   2.771   6.185   6.458 -0.0217  0.0469  0.3728
 3688ntf    on522374   2.951   5.950   6.236 -0.7412 -0.2399 -0.0838
 3688ntf    on522375   2.771   6.102   6.177  0.0912  0.0711 -0.2707
 3688ntf    on522376   3.173   6.347   6.159  0.4473  0.0616 -0.1150
 3688ntf    on522377   3.198   6.103   6.143  0.0831  0.6272  0.0479
 3688ntf    fn422378   3.177   6.298   6.451 -0.2476  0.1110 -0.5437
 3688ntf    fn422379   3.227   6.085   6.425  0.1222 -0.0514  0.3704
 3688ntf    fn422380   3.357   6.235   6.361 -0.2102 -0.4465  0.2970
 3689ntf    cn122381   2.157   6.812   6.795  0.1360  0.3764 -0.1932
 3689ntf    sn222382   2.226   6.827   6.963  0.0561  0.1670 -0.1416
 3689ntf    nn322383   2.217   6.983   6.972 -0.0833  0.1372  0.2545
 3689ntf    sn222384   2.325   7.097   6.975 -0.0610  0.1214  0.0677
 3689ntf    cn122385   2.230   7.217   6.875 -0.0065  0.3017  0.2328
 3689ntf    fn422386   2.037   6.868   6.788  0.0560  0.2346  0.0451
 3689ntf    fn422387   2.229   6.878   6.705  0.3409  0.4647  0.0355
 3689ntf    fn422388   2.147   6.691   6.743  0.1006  0.2560  0.0950
 3689ntf    on522389   2.128   6.772   7.053 -0.2350  0.4997 -0.2547
 3689ntf    on522390   2.354   6.762   6.950 -0.2300 -0.4133 -0.1029
 3689ntf    on522391   2.445   7.067   6.901 -0.1921 -1.1991  0.3750
 3689ntf    on522392   2.339   7.169   7.099 -0.2112  0.1057  0.0941
 3689ntf    fn422393   2.165   7.155   6.778 -0.0919  0.3764  0.2425
 3689ntf    fn422394   2.150   7.300   6.939 -0.4891 -0.0095  0.0314
 3689ntf    fn422395   2.319   7.290   6.809 -0.4115  0.3611 -0.2504
 3690ntf    cn122396   5.247   4.666   3.527  0.1843  0.5542  0.3985
 3690ntf    sn222397   5.403   4.591   3.471 -0.1418  0.3225 -0.2124
 3690ntf    nn322398   5.486   4.715   3.424 -0.1068  0.4734  0.2467
 3690ntf    sn222399   5.637   4.753   3.445 -0.0315  0.2187  0.1568
 3690ntf    cn122400   5.678   4.779   3.269  0.0522 -0.2634  0.1021
 3690ntf    fn422401   5.176   4.575   3.592  0.2234  0.4094  0.2405
 3690ntf    fn422402   5.260   4.768   3.610  0.6901  0.3542  0.5688
 3690ntf    fn422403   5.169   4.700   3.425 -0.1780  0.5742  0.6775
 3690ntf    on522404   5.452   4.529   3.592  0.6723 -0.3605 -0.8842
 3690ntf    on522405   5.379   4.498   3.364 -0.0783 -0.3423  0.3450
 3690ntf    on522406   5.725   4.647   3.490 -0.8541 -0.4342  0.2449
 3690ntf    on522407   5.652   4.887   3.495  0.2631  0.0552  0.5159
 3690ntf    fn422408   5.634   4.674   3.201 -0.7357  0.1680 -0.0691
 3690ntf    fn422409   5.628   4.886   3.210 -0.1243 -0.3743  0.0489
 3690ntf    fn422410   5.807   4.781   3.242  0.0548  0.2620  0.1366
 3691ntf    cn122411   3.886   1.957   6.683  0.2759 -0.2812 -0.2061
 3691ntf    sn222412   3.980   1.813   6.626  0.3869 -0.2029 -0.2201
 3691ntf    nn322413   4.084   1.886   6.532 -0.2592  0.5953 -0.3240
 3691ntf    sn222414   4.173   1.833   6.414  0.1544  0.2877  0.1217
 3691ntf    cn122415   4.319   1.787   6.512  0.1225 -0.2488 -0.0796
 3691ntf    fn422416   3.870   2.050   6.590  0.3390 -0.2202 -0.1559
 3691ntf    fn422417   3.763   1.929   6.724  0.0478  0.8472 -0.1017
 3691ntf    fn422418   3.934   2.026   6.786 -0.4668  0.0629 -0.0782
 3691ntf    on522419   4.045   1.762   6.745  0.0502  0.3419  0.1979
 3691ntf    on522420   3.886   1.722   6.565 -0.0468  0.3042 -0.3183
 3691ntf    on522421   4.214   1.944   6.332  0.1799  0.3915  0.2733
 3691ntf    on522422   4.134   1.706   6.359  0.3156 -0.1255  0.9388
 3691ntf    fn422423   4.416   1.762   6.424  0.2033  0.1641 -0.1096
 3691ntf    fn422424   4.351   1.884   6.597  0.2615 -0.1189 -0.2767
 3691ntf    fn422425   4.302   1.671   6.572 -0.9584 -0.3117 -0.4801
 3692ntf    cn122426   5.468   5.002   6.578  0.2886  0.2982  0.0817
 3692ntf    sn222427   5.404   5.049   6.742  0.7373  0.3878  0.2306
 3692ntf    nn322428   5.423   4.919   6.827  0.0125 -0.0005 -0.1890
 3692ntf    sn222429   5.343   4.785   6.808 -0.0621  0.0197 -0.0129
 3692ntf    cn122430   5.234   4.784   6.954  0.1708  0.3177  0.1662
 3692ntf    fn422431   5.443   4.880   6.535 -0.2462  0.4842 -0.1427
 3692ntf    fn422432   5.418   5.085   6.488  0.6248 -0.2680 -0.6324
 3692ntf    fn422433   5.595   5.028   6.555  0.2041  0.1118 -0.6236
 3692ntf    on522434   5.501   5.150   6.779 -0.0825  0.9103  0.9905
 3692ntf    on522435   5.270   5.100   6.726  0.5936  0.0091  0.2096
 3692ntf    on522436   5.428   4.670   6.821  0.5142  0.4739  0.2806
 3692ntf    on522437   5.247   4.781   6.700  0.4462  0.0971 -0.4709
 3692ntf    fn422438   5.301   4.817   7.063  0.2863  0.4736  0.0495
 3692ntf    fn422439   5.138   4.873   6.938 -0.1110  0.0926  0.5898
 3692ntf    fn422440   5.171   4.668   6.969 -0.3337  0.5277 -0.2988
 3693ntf    cn122441   6.965   1.622   3.922 -0.6196 -0.0494  0.2162
 3693ntf    sn222442   6.923   1.588   3.748  0.3352 -0.2146  0.0122
 3693ntf    nn322443   6.945   1.730   3.686  0.4703 -0.3676 -0.2899
 3693ntf    sn222444   6.844   1.842   3.643  0.0798 -0.5662  0.1114
 3693ntf    cn122445   6.762   1.892   3.798  0.1110  0.3823 -0.1715
 3693ntf    fn422446   7.081   1.681   3.944 -0.4260 -0.0747 -0.7091
 3693ntf    fn422447   6.879   1.700   3.986 -0.4977  0.0268  0.2865
 3693ntf    fn422448   6.965   1.510   3.991 -0.3117 -0.3516 -0.2667
 3693ntf    on522449   7.024   1.500   3.696  0.0095 -0.3388 -0.4169
 3693ntf    on522450   6.783   1.553   3.746  0.2861 -0.0273  0.1107
 3693ntf    on522451   6.739   1.797   3.555  0.3691 -0.0129 -0.5185
 3693ntf    on522452   6.926   1.956   3.608 -0.4382 -0.0364  0.5947
 3693ntf    fn422453   6.832   1.931   3.903  0.0479  0.2206 -0.0706
 3693ntf    fn422454   6.690   1.998   3.765 -0.4391  0.0051 -0.1933
 3693ntf    fn422455   6.673   1.800   3.831  0.3652  0.2219  0.0677
 3694ntf    cn122456   2.737   3.144   4.348 -0.1690  0.0131  0.2725
 3694ntf    sn222457   2.607   3.218   4.451 -0.0010  0.0861  0.4300
 3694ntf    nn322458   2.600   3.100   4.555  0.2545 -0.1578  0.1741
 3694ntf    sn222459   2.543   3.097   4.702 -0.3162  0.1909 -0.0360
 3694ntf    cn122460   2.389   3.002   4.686 -0.0663 -0.1332 -0.5481
 3694ntf    fn422461   2.854   3.163   4.405 -0.0103 -0.2538  0.0377
 3694ntf    fn422462   2.718   3.014   4.327  0.1875  0.0661 -0.4270
 3694ntf    fn422463   2.754   3.191   4.225  0.3190 -0.4075  0.1762
 3694ntf    on522464   2.670   3.341   4.493 -0.1755  0.2882  0.1026
 3694ntf    on522465   2.499   3.230   4.358  0.0549  0.0174  0.3561
 3694ntf    on522466   2.503   3.228   4.748 -0.7241 -0.0932  0.4195
 3694ntf    on522467   2.623   3.020   4.794  0.2482 -0.0238 -0.6912
 3694ntf    fn422468   2.415   2.882   4.637  0.3283 -0.2727 -0.0139
 3694ntf    fn422469   2.332   2.989   4.805  0.2799 -0.6136 -0.4276
 3694ntf    fn422470   2.301   3.069   4.613  0.2207  0.6369 -0.1969
 3695ntf    cn122471   2.139   4.394   2.210  0.4996  0.7115  0.1504
 3695ntf    sn222472   2.198   4.358   2.042  0.4036  0.0776  0.2535
 3695ntf    nn322473   2.194   4.201   2.050 -0.7423  0.1169  0.7342
 3695ntf    sn222474   2.107   4.100   1.967  0.0056  0.0851 -0.0185
 3695ntf    cn122475   2.222   4.073   1.828 -0.0478  0.0886 -0.0629
 3695ntf    fn422476   2.020   4.348   2.245  0.5131  0.3735 -0.2559
 3695ntf    fn422477   2.224   4.351   2.302  0.1063 -0.4137 -0.0049
 3695ntf    fn422478   2.134   4.524   2.236 -0.1478  0.7929 -0.3749
 3695ntf    on522479   2.101   4.422   1.956  0.5942 -0.2567 -0.2134
 3695ntf    on522480   2.333   4.407   2.039  0.4800 -0.1371  0.1126
 3695ntf    on522481   1.981   4.143   1.913  0.1919  0.5063 -0.1283
 3695ntf    on522482   2.109   3.977   2.041 -0.0813  0.0004 -0.1568
 3695ntf    fn422483   2.346   4.055   1.870 -0.1173  0.1283  0.1601
 3695ntf    fn422484   2.192   3.959   1.767 -0.3170  0.1064  0.0340
 3695ntf    fn422485   2.220   4.166   1.734  0.4058  0.2611  0.0955
 3696ntf    cn122486   0.038   1.059   5.832  0.0386 -0.1548  0.0423
 3696ntf    sn222487  -0.116   1.000   5.755  0.0183 -0.0474  0.0010
 3696ntf    nn322488  -0.053   0.976   5.613 -0.0757  0.0913 -0.0642
 3696ntf    sn222489  -0.034   0.835   5.548  0.3110  0.0872  0.0564
 3696ntf    cn122490   0.008   0.894   5.381  0.0841 -0.0952 -0.0654
 3696ntf    fn422491   0.142   0.981   5.806  0.3631  0.1973  0.2739
 3696ntf    fn422492   0.082   1.174   5.783  0.0715 -0.4000 -0.5192
 3696ntf    fn422493   0.039   1.069   5.963  0.3683  0.0878  0.0218
 3696ntf    on522494  -0.156   0.876   5.817 -0.1409  0.2960  0.5859
 3696ntf    on522495  -0.200   1.117   5.765 -0.2162 -0.2320  0.2044
 3696ntf    on522496  -0.149   0.751   5.526  0.3208 -0.0166  0.3986
 3696ntf    on522497   0.091   0.775   5.587  0.2623  0.1092  0.2457
 3696ntf    fn422498   0.117   0.969   5.379 -0.0444  0.0970  0.1067
 3696ntf    fn422499   0.032   0.795   5.297  0.6010 -0.3875  0.4211
 3696ntf    fn422500  -0.095   0.969   5.347  0.1908  0.2441  0.3659
 3697ntf    cn122501   6.766   0.431   6.849 -0.5702  0.0466  0.2348
 3697ntf    sn222502   6.922   0.522   6.822 -0.3704 -0.2948  0.2269
 3697ntf    nn322503   7.022   0.412   6.771  0.0251  0.0086  0.3466
 3697ntf    sn222504   7.058   0.376   6.623 -0.1598  0.2804  0.2338
 3697ntf    cn122505   7.232   0.325   6.634 -0.1692  0.1495 -0.1912
 3697ntf    fn422506   6.776   0.323   6.925 -0.3726 -0.0347  0.0950
 3697ntf    fn422507   6.675   0.503   6.911 -0.0651  0.7260  0.2000
 3697ntf    fn422508   6.716   0.389   6.734  0.1257 -0.3730  0.0800
 3697ntf    on522509   6.889   0.631   6.734  0.1985 -0.2867  0.0220
 3697ntf    on522510   6.952   0.565   6.957 -0.3897 -0.7961  0.3947
 3697ntf    on522511   7.064   0.492   6.537  0.7716  0.1183  0.0720
 3697ntf    on522512   6.988   0.259   6.576  0.3544 -0.1672  0.5667
 3697ntf    fn422513   7.297   0.400   6.722 -0.6635  0.2826  0.0662
 3697ntf    fn422514   7.258   0.203   6.679  0.1929  0.1364 -0.4294
 3697ntf    fn422515   7.298   0.336   6.520  0.3011 -0.6616 -0.0083
 3698ntf    cn122516   4.206   1.344   5.067  0.3393  0.1990  0.1968
 3698ntf    sn222517   4.156   1.271   5.225 -0.0881  0.0362 -0.0115
 3698ntf    nn322518   4.000   1.290   5.232 -0.0365  0.2728  0.5110
 3698ntf    sn222519   3.893   1.189   5.286 -0.1829 -0.0785 -0.4330
 3698ntf    cn122520   3.864   1.105   5.127 -0.1769 -0.2142 -0.3621
 3698ntf    fn422521   4.154   1.465   5.052 -0.2168 -0.0347  0.2176
 3698ntf    fn422522   4.338   1.354   5.063  0.3791 -0.3047  0.2062
 3698ntf    fn422523   4.167   1.278   4.959  0.6991 -0.0081  0.1938
 3698ntf    on522524   4.205   1.136   5.212 -0.4319 -0.1197  0.2863
 3698ntf    on522525   4.232   1.350   5.319 -0.3304 -0.1601  0.3555
 3698ntf    on522526   3.774   1.264   5.317 -0.1172 -0.2363  0.2161
 3698ntf    on522527   3.937   1.089   5.379 -0.7094  0.0473 -0.0457
 3698ntf    fn422528   3.813   1.184   5.034 -0.2782  0.2948  0.1222
 3698ntf    fn422529   3.973   1.053   5.072  0.0385  0.0833 -0.2152
 3698ntf    fn422530   3.786   0.998   5.137 -0.2020 -0.2273 -0.7031
 3699ntf    cn122531   3.731   1.180   2.182 -0.2329  0.2086  0.2657
 3699ntf    sn222532   3.700   1.050   2.306 -0.4225 -0.1603 -0.1664
 3699ntf    nn322533   3.846   1.030   2.359 -0.2509  0.4216 -0.4158
 3699ntf    sn222534   3.941   0.906   2.370 -0.5234  0.2444 -0.0644
 3699ntf    cn122535   4.076   0.969   2.473 -0.5437  0.1098  0.0444
 3699ntf    fn422536   3.735   1.301   2.235 -0.3459  0.0780  0.5775
 3699ntf    fn422537   3.845   1.164   2.116 -0.2165  0.3892  0.2507
 3699ntf    fn422538   3.631   1.186   2.096  0.1296  0.2147 -0.1592
 3699ntf    on522539   3.602   1.110   2.393 -0.3715 -0.4430  0.0857
 3699ntf    on522540   3.659   0.940   2.222 -0.2564 -0.1252 -0.2943
 3699ntf    on522541   3.993   0.870   2.240 -0.2470  0.0437  0.1001
 3699ntf    on522542   3.895   0.793   2.447 -1.1759  0.4310 -0.1757
 3699ntf    fn422543   4.035   0.998   2.596 -0.2376 -0.3854  0.2683
 3699ntf    fn422544   4.173   0.881   2.492  0.1132  0.7621 -0.2387
 3699ntf    fn422545   4.137   1.077   2.427  0.2764 -0.1038  0.5942
 3700ntf    cn122546   4.329   3.219   2.097  0.3188 -0.1742 -0.0415
 3700ntf    sn222547   4.356   3.110   2.240  0.1941 -0.1176  0.0254
 3700ntf    nn322548   4.408   3.219   2.341  0.0710  0.8131 -0.8973
 3700ntf    sn222549   4.547   3.278   2.384 -0.0664  0.2862  0.2988
 3700ntf    cn122550   4.522   3.312   2.561 -0.1132  0.1181  0.3247
 3700ntf    fn422551   4.278   3.338   2.124 -0.0081 -0.4157  0.4175
 3700ntf    fn422552   4.447   3.244   2.042  0.4598 -0.4933  0.1107
 3700ntf    fn422553   4.258   3.154   2.006  0.1481 -0.2072  0.1157
 3700ntf    on522554   4.222   3.068   2.273  0.0922  0.1830  0.0027
 3700ntf    on522555   4.448   3.009   2.193  0.3360  0.1653 -0.3071
 3700ntf    on522556   4.570   3.410   2.330 -0.1542  0.0521 -0.3108
 3700ntf    on522557   4.659   3.188   2.376 -0.0130  0.3631  0.1854
 3700ntf    fn422558   4.502   3.198   2.625  0.4768 -0.1724  0.0009
 3700ntf    fn422559   4.632   3.362   2.615  0.2964 -0.0708 -0.3289
 3700ntf    fn422560   4.426   3.400   2.586 -0.1645  0.1410  0.0523
 3701ntf    cn122561   5.858   0.616   2.243  0.1917 -0.2075  0.5170
 3701ntf    sn222562   5.679   0.586   2.262  0.1150  0.0101  0.1544
 3701ntf    nn322563   5.616   0.631   2.126  0.2009 -0.0441  0.0967
 3701ntf    sn222564   5.544   0.542   2.018  0.0238 -0.1813  0.3273
 3701ntf    cn122565   5.500   0.652   1.880  0.1115 -0.2043  0.2815
 3701ntf    fn422566   5.887   0.744   2.228 -0.2679 -0.0999  0.5165
 3701ntf    fn422567   5.921   0.576   2.352  0.8749 -0.2218  0.1194
 3701ntf    fn422568   5.911   0.546   2.144 -0.1476  0.0531  0.1473
 3701ntf    on522569   5.662   0.446   2.295  0.3248  0.0704  0.5282
 3701ntf    on522570   5.637   0.677   2.365  0.0294 -0.2312  0.3332
 3701ntf    on522571   5.417   0.496   2.067  0.1638 -0.2016  0.6782
 3701ntf    on522572   5.631   0.450   1.950  0.2168  0.5255 -0.3977
 3701ntf    fn422573   5.428   0.752   1.927 -0.3896 -0.4870  0.1214
 3701ntf    fn422574   5.598   0.713   1.815 -0.4410  0.2840 -0.0947
 3701ntf    fn422575   5.437   0.589   1.781 -0.0259 -0.1806  0.3536
 3702ntf    cn122576   3.009   2.886   4.231 -0.2278 -0.0173  0.3779
 3702ntf    sn222577   3.048   2.712   4.264 -0.0499 -0.0387  0.0510
 3702ntf    nn322578   2.967   2.690   4.396 -0.0272  0.4023  0.1387
 3702ntf    sn222579   2.858   2.584   4.435 -0.2219  0.3873 -0.4362
 3702ntf    cn122580   2.969   2.447   4.480  0.0831  0.6098 -0.5067
 3702ntf    fn422581   2.882   2.918   4.212 -0.1796 -0.1358 -0.1724
 3702ntf    fn422582   3.053   2.967   4.326 -0.3238  0.0742  0.3453
 3702ntf    fn422583   3.071   2.921   4.120 -0.2151 -0.1440  0.3443
 3702ntf    on522584   3.002   2.646   4.144  0.3502  0.3631 -0.3262
 3702ntf    on522585   3.189   2.705   4.295 -0.1127 -1.1482  0.1293
 3702ntf    on522586   2.767   2.549   4.329  0.3846 -0.7169 -0.6083
 3702ntf    on522587   2.799   2.617   4.562 -0.0980  0.8263 -0.4907
 3702ntf    fn422588   3.024   2.474   4.597 -0.1402 -0.6423 -0.1005
 3702ntf    fn422589   2.902   2.336   4.508  0.1541  0.7258  0.1281
 3702ntf    fn422590   3.062   2.441   4.387 -0.0394 -0.2519 -0.5805
 3703ntf    cn122591   3.183   4.150   4.025 -0.3355 -0.0617  0.3353
 3703ntf    sn222592   3.238   4.317   3.980 -0.1650 -0.1355  0.2683
 3703ntf    nn322593   3.242   4.395   4.116  0.1839  0.2025  0.0660
 3703ntf    sn222594   3.363   4.406   4.216  0.2109 -0.0511  0.0603
 3703ntf    cn122595   3.258   4.415   4.365  0.2334 -0.0215  0.0740
 3703ntf    fn422596   3.273   4.091   4.102  0.1864  0.1848 -0.0826
 3703ntf    fn422597   3.069   4.148   4.093 -0.4096 -0.1499  0.2094
 3703ntf    fn422598   3.164   4.074   3.919 -0.0880  0.1205  0.1579
 3703ntf    on522599   3.366   4.294   3.918  0.0773  0.5182  0.5106
 3703ntf    on522600   3.132   4.365   3.895 -0.3556  0.0915  0.6285
 3703ntf    on522601   3.440   4.528   4.223  0.0732  0.0314  0.1523
 3703ntf    on522602   3.428   4.280   4.245  0.5666  0.0741 -0.1984
 3703ntf    fn422603   3.333   4.434   4.472  0.2929  0.2236 -0.0089
 3703ntf    fn422604   3.180   4.522   4.369  0.2881  0.0201  0.0393
 3703ntf    fn422605   3.180   4.313   4.394 -0.0023  0.0640 -0.2595
 3704ntf    cn122606   1.326   1.800   2.739 -0.4103  0.1962 -0.3358
 3704ntf    sn222607   1.164   1.820   2.818 -0.1725  0.0933  0.1865
 3704ntf    nn322608   1.114   1.672   2.804 -0.2837  0.1002  0.4958
 3704ntf    sn222609   1.045   1.603   2.681  0.1838  0.3892  0.0696
 3704ntf    cn122610   0.875   1.639   2.736  0.0355 -0.3389  0.0925
 3704ntf    fn422611   1.416   1.827   2.833 -0.0168 -0.0997 -0.6208
 3704ntf    fn422612   1.341   1.678   2.690  0.3904  0.1048  0.1010
 3704ntf    fn422613   1.342   1.884   2.639  0.5134 -0.0223 -0.3873
 3704ntf    on522614   1.192   1.864   2.952  0.6827  0.1987 -0.0228
 3704ntf    on522615   1.086   1.907   2.734  0.2932 -0.3581 -0.7231
 3704ntf    on522616   1.060   1.460   2.683 -0.3383  0.3336  0.1659
 3704ntf    on522617   1.064   1.667   2.553  0.1328 -0.0564 -0.1652
 3704ntf    fn422618   0.790   1.557   2.675 -0.3654  0.8352 -0.9674
 3704ntf    fn422619   0.860   1.637   2.867  0.0589 -0.8591  0.0929
 3704ntf    fn422620   0.832   1.756   2.694 -0.1502 -0.2374  0.5667
 3705ntf    cn122621   0.441   3.595   4.431 -0.2745  0.2864  0.4432
 3705ntf    sn222622   0.312   3.571   4.557 -0.4583 -0.0037  0.2007
 3705ntf    nn322623   0.310   3.414   4.570  0.4186 -0.0220  0.1891
 3705ntf    sn222624   0.216   3.331   4.663  0.0892  0.2214  0.0756
 3705ntf    cn122625   0.101   3.286   4.529  0.1169  0.5820 -0.0679
 3705ntf    fn422626   0.410   3.529   4.321  0.6250 -0.0594  0.3901
 3705ntf    fn422627   0.448   3.723   4.397  0.6774 -0.0360 -0.6394
 3705ntf    fn422628   0.563   3.556   4.464 -0.1726 -0.3227 -0.6106
 3705ntf    on522629   0.355   3.645   4.674  0.3644 -0.2427  0.0580
 3705ntf    on522630   0.198   3.624   4.487 -0.3380  0.0399  0.0363
 3705ntf    on522631   0.144   3.408   4.762  0.0605  0.3135 -0.0168
 3705ntf    on522632   0.253   3.196   4.699  0.3951  0.2530 -0.1161
 3705ntf    fn422633   0.077   3.381   4.440  0.0113  0.3351 -0.3053
 3705ntf    fn422634   0.161   3.182   4.474 -0.0279  0.1780  0.5279
 3705ntf    fn422635  -0.015   3.236   4.567  0.4005 -0.4728 -0.5814
 3706ntf    cn122636   6.827   0.362   5.240  0.3041 -0.1022  0.3607
 3706ntf    sn222637   6.959   0.240   5.268  0.0048 -0.4687  0.1840
 3706ntf    nn322638   6.997   0.192   5.123  0.0072 -0.0703  0.0512
 3706ntf    sn222639   7.093   0.253   5.015 -0.0269 -0.0689  0.0207
 3706ntf    cn122640   7.252   0.183   5.069 -0.0969 -0.3277 -0.1083
 3706ntf    fn422641   6.870   0.474   5.184 -0.9346 -0.1071 -0.6359
 3706ntf    fn422642   6.732   0.316   5.161 -0.0745  0.8451  0.2500
 3706ntf    fn422643   6.771   0.388   5.357 -0.1084  0.3864  0.0574
 3706ntf    on522644   7.055   0.329   5.328  0.0908 -0.3234 -0.1642
 3706ntf    on522645   6.912   0.135   5.354 -0.0324 -0.2577  0.4203
 3706ntf    on522646   7.105   0.396   5.026 -0.3296 -0.0262 -0.2011
 3706ntf    on522647   7.075   0.197   4.884 -0.1909  0.1886 -0.0664
 3706ntf    fn422648   7.298   0.234   5.182  0.1854 -0.4850 -0.1507
 3706ntf    fn422649   7.254   0.051   5.074  0.1514 -0.3216 -0.0196
 3706ntf    fn422650   7.344   0.212   4.978  0.0022  0.3034  0.1862
 3707ntf    cn122651   3.650   6.541   5.095  0.0595  0.4500  0.0280
 3707ntf    sn222652   3.788   6.570   4.980  0.2024  0.0355  0.0949
 3707ntf    nn322653   3.822   6.421   4.946 -0.2970  0.0824 -0.6363
 3707ntf    sn222654   3.956   6.377   4.876 -0.0292  0.0650 -0.1148
 3707ntf    cn122655   3.887   6.299   4.728 -0.2968  0.6791 -0.3151
 3707ntf    fn422656   3.684   6.450   5.184 -0.3760  0.1505 -0.1088
 3707ntf    fn422657   3.608   6.645   5.166 -0.0451  0.3900  0.0529
 3707ntf    fn422658   3.541   6.486   5.043  0.2690  0.3191 -0.2730
 3707ntf    on522659   3.721   6.647   4.878 -0.3065  0.1168  0.4849
 3707ntf    on522660   3.886   6.629   5.068  0.1729 -0.2893  0.3497
 3707ntf    on522661   4.022   6.269   4.945 -0.4538 -0.2551 -0.2115
 3707ntf    on522662   4.039   6.481   4.820 -0.1920  0.4774  0.3999
 3707ntf    fn422663   3.977   6.278   4.633 -0.3401 -0.1665 -0.1747
 3707ntf    fn422664   3.835   6.181   4.756  0.9095  0.1041 -0.4450
 3707ntf    fn422665   3.802   6.371   4.656  0.0286  0.8459 -0.5386
 3708ntf    cn122666   2.885   6.379   3.673  0.1636 -0.3693 -0.0745
 3708ntf    sn222667   2.817   6.307   3.521 -0.0519  0.0757 -0.1903
 3708ntf    nn322668   2.666   6.288   3.563  0.0784 -0.1612  0.1818
 3708ntf    sn222669   2.538   6.356   3.503  0.2045 -0.0557  0.0301
 3708ntf    cn122670   2.484   6.233   3.381  0.1466  0.0302 -0.0306
 3708ntf    fn422671   2.999   6.446   3.664 -0.0689  0.0821  0.2862
 3708ntf    fn422672   2.795   6.453   3.736  0.1237 -0.0557 -0.4966
 3708ntf    fn422673   2.909   6.281   3.758  0.0642  0.3348  0.7869
 3708ntf    on522674   2.848   6.410   3.426  0.0704 -0.0082 -0.2402
 3708ntf    on522675   2.874   6.175   3.514  0.3718  0.2152  0.5445
 3708ntf    on522676   2.556   6.477   3.426 -0.0611 -0.0174  0.0272
 3708ntf    on522677   2.433   6.373   3.601  0.3031  0.7921 -0.0046
 3708ntf    fn422678   2.589   6.212   3.304  0.2568 -0.1808  0.1751
 3708ntf    fn422679   2.440   6.118   3.430  0.1767 -0.0481 -0.1877
 3708ntf    fn422680   2.383   6.269   3.304  0.2063 -0.1410 -0.1883
 3709ntf    cn122681   2.595   6.336   1.621  0.1215 -0.4634  0.1084
 3709ntf    sn222682   2.555   6.404   1.457  0.0736  0.1300  0.3632
 3709ntf    nn322683   2.405   6.358   1.452  0.2246 -0.3012 -0.3657
 3709ntf    sn222684   2.341   6.223   1.405 -0.0074 -0.1844 -0.3906
 3709ntf    cn122685   2.220   6.191   1.537  0.1628  0.3360 -0.1082
 3709ntf    fn422686   2.721   6.299   1.633  0.1281 -0.4909 -0.0460
 3709ntf    fn422687   2.580   6.428   1.715  0.4920  0.2352 -0.5046
 3709ntf    fn422688   2.519   6.233   1.656 -0.2380 -0.0184  0.6473
 3709ntf    on522689   2.575   6.544   1.482 -0.3729  0.2273  0.1851
 3709ntf    on522690   2.645   6.337   1.366  0.5116  0.9242  0.2048
 3709ntf    on522691   2.432   6.111   1.403  0.6286  0.3258 -0.4668
 3709ntf    on522692   2.248   6.230   1.295 -0.3406 -0.0647 -0.1015
 3709ntf    fn422693   2.260   6.233   1.656 -0.2834  0.4641 -0.0017
 3709ntf    fn422694   2.099   6.242   1.526  0.0012  0.0742  0.4162
 3709ntf    fn422695   2.199   6.060   1.546 -0.2211  0.3915 -0.1900
 3710ntf    cn122696   0.907   1.001   2.131  0.3235  0.1733 -0.0989
 3710ntf    sn222697   0.865   0.960   1.959  0.2905  0.0039 -0.0497
 3710ntf    nn322698   0.877   1.101   1.891 -0.2140  0.1427  0.1448
 3710ntf    sn222699   1.006   1.159   1.822 -0.1232 -0.4603 -0.2002
 3710ntf    cn122700   0.963   1.101   1.655  0.0875 -0.0772 -0.3867
 3710ntf    fn422701   0.872   0.909   2.219 -0.0613  0.4053 -0.0065
 3710ntf    fn422702   1.038   1.023   2.138  0.3492 -0.1934  0.6600
 3710ntf    fn422703   0.855   1.115   2.174 -0.1135  0.0103 -0.1970
 3710ntf    on522704   0.955   0.861   1.906 -0.5861 -0.6091 -0.4190
 3710ntf    on522705   0.726   0.921   1.957  0.3660 -0.2751  0.0696
 3710ntf    on522706   1.127   1.087   1.854  0.3028 -0.2361 -1.2794
 3710ntf    on522707   1.012   1.303   1.828  0.0118 -0.4587 -0.3742
 3710ntf    fn422708   1.057   1.118   1.564  0.3948  1.0754  0.1266
 3710ntf    fn422709   0.918   0.977   1.651  0.2289 -0.1205 -0.6937
 3710ntf    fn422710   0.860   1.172   1.611 -0.0164  0.0768  0.1026
 3711ntf    cn122711   5.607   2.638   3.555 -0.2030  0.3486  0.0043
 3711ntf    sn222712   5.441   2.610   3.485 -0.1285 -0.0758 -0.0081
 3711ntf    nn322713   5.481   2.498   3.382  0.1145 -0.0574  0.0658
 3711ntf    sn222714   5.474   2.507   3.226  0.2105  0.3109  0.0812
 3711ntf    cn122715   5.541   2.343   3.184  0.4323  0.3461  0.2946
 3711ntf    fn422716   5.694   2.677   3.463  0.0628  0.0217  0.1127
 3711ntf    fn422717   5.613   2.735   3.644  0.3108  0.1180  0.2281
 3711ntf    fn422718   5.656   2.529   3.612  0.3915  0.5700 -0.0792
 3711ntf    on522719   5.377   2.553   3.601  0.6959 -0.2024  0.3955
 3711ntf    on522720   5.418   2.743   3.435  0.5312  0.1459  0.2693
 3711ntf    on522721   5.562   2.602   3.163  0.1644  0.0781 -0.3357
 3711ntf    on522722   5.333   2.512   3.196  0.2820  0.6349 -0.2108
 3711ntf    fn422723   5.488   2.237   3.242 -0.1469  0.6722  0.3798
 3711ntf    fn422724   5.538   2.316   3.055 -0.3595 -0.2571  0.4356
 3711ntf    fn422725   5.666   2.327   3.222  0.5813 -0.0507 -0.3622
 3712ntf    cn122726   5.868   6.778   4.952  0.1364 -0.0339 -0.0054
 3712ntf    sn222727   5.780   6.624   4.991  0.2643 -0.1046  0.0043
 3712ntf    nn322728   5.696   6.614   4.858 -0.1273 -0.2895  0.2640
 3712ntf    sn222729   5.718   6.526   4.730 -0.2561  0.3765 -0.2242
 3712ntf    cn122730   5.614   6.380   4.762 -0.1218  0.4084  0.3841
 3712ntf    fn422731   5.949   6.760   4.849  0.0169  0.4547 -0.1845
 3712ntf    fn422732   5.794   6.881   4.916 -0.3457 -0.3373  0.1049
 3712ntf    fn422733   5.940   6.835   5.047  0.0701  0.1291 -0.0531
 3712ntf    on522734   5.884   6.525   5.003  0.2246 -0.1817 -0.2666
 3712ntf    on522735   5.697   6.644   5.107  0.0192 -0.2933 -0.1379
 3712ntf    on522736   5.855   6.484   4.710 -0.4757 -0.6533  0.3281
 3712ntf    on522737   5.656   6.577   4.610 -0.1222 -0.1570 -0.5220
 3712ntf    fn422738   5.639   6.308   4.870  0.2980  0.0218  0.0340
 3712ntf    fn422739   5.488   6.415   4.777 -0.4467 -0.4152 -0.3350
 3712ntf    fn422740   5.621   6.297   4.659 -0.1816  0.2846  0.4790
 3713ntf    cn122741   3.421   3.674   3.124 -0.1501  0.3563  0.2855
 3713ntf    sn222742   3.244   3.648   3.158 -0.0971  0.0641  0.3400
 3713ntf    nn322743   3.224   3.720   3.296  1.0493 -0.1592  0.6357
 3713ntf    sn222744   3.177   3.869   3.314  0.4734 -0.2764  0.1312
 3713ntf    cn122745   3.001   3.851   3.358  0.2181  0.3498 -0.6089
 3713ntf    fn422746   3.493   3.606   3.212 -0.7402 -0.4378  0.1688
 3713ntf    fn422747   3.467   3.646   3.004 -0.4927 -0.2969  0.3023
 3713ntf    fn422748   3.464   3.799   3.137  0.2203  0.2495  0.0788
 3713ntf    on522749   3.180   3.703   3.041  0.4254  0.1227  0.0800
 3713ntf    on522750   3.233   3.506   3.175  0.1044 -0.0600 -0.5197
 3713ntf    on522751   3.168   3.954   3.198 -0.2637 -0.4045  0.0860
 3713ntf    on522752   3.237   3.930   3.430 -0.2593 -0.0216  0.3843
 3713ntf    fn422753   2.924   3.775   3.282  0.0019  0.4657 -0.5056
 3713ntf    fn422754   2.994   3.808   3.483 -0.2289  0.6127 -0.5449
 3713ntf    fn422755   2.942   3.969   3.362  0.3733  0.4039  0.0959
 3714ntf    cn122756   2.884   7.079   4.394 -0.6932 -0.1053 -0.1173
 3714ntf    sn222757   2.805   6.948   4.492 -0.0052 -0.1323  0.4034
 3714ntf    nn322758   2.658   6.995   4.521 -0.1207  0.1927 -0.6934
 3714ntf    sn222759   2.545   6.928   4.607  0.2320  0.0007 -0.3787
 3714ntf    cn122760   2.584   7.011   4.765 -0.0511 -0.1468 -0.2303
 3714ntf    fn422761   2.885   7.198   4.451 -0.2009  0.0842 -0.5098
 3714ntf    fn422762   3.013   7.054   4.375 -0.6021  0.4900 -0.2876
 3714ntf    fn422763   2.832   7.099   4.274 -0.2416  0.2012 -0.2618
 3714ntf    on522764   2.813   6.842   4.396 -0.1750  0.0193  0.2223
 3714ntf    on522765   2.895   6.945   4.606  0.4421  0.1827  0.0606
 3714ntf    on522766   2.564   6.787   4.625  0.0318 -0.0385 -0.4705
 3714ntf    on522767   2.410   6.971   4.579  0.0745 -0.1311  0.1702
 3714ntf    fn422768   2.490   6.990   4.855  0.0082  0.2853 -0.0669
 3714ntf    fn422769   2.697   6.964   4.816 -0.1600  0.2049  0.3418
 3714ntf    fn422770   2.610   7.140   4.752 -0.0254 -0.1128  0.1681
 3715ntf    cn122771   0.878   5.214   0.393 -0.1218  0.4260 -0.0912
 3715ntf    sn222772   0.811   5.045   0.385  0.2077  0.3039 -0.3406
 3715ntf    nn322773   0.769   5.020   0.534 -0.1902  0.4308 -0.4285
 3715ntf    sn222774   0.632   5.034   0.609  0.0957  0.2562  0.1385
 3715ntf    cn122775   0.681   5.148   0.741  0.0269  0.0853  0.3116
 3715ntf    fn422776   0.977   5.219   0.480 -0.2673 -0.5342  0.1359
 3715ntf    fn422777   0.927   5.253   0.276 -0.2865 -0.0077 -0.3046
 3715ntf    fn422778   0.795   5.308   0.435 -0.2928  0.0158  0.4953
 3715ntf    on522779   0.705   5.050   0.286 -0.0665  0.4767 -0.0419
 3715ntf    on522780   0.916   4.952   0.353  0.1823  0.0898  0.1931
 3715ntf    on522781   0.589   4.915   0.679  0.1459 -0.0819 -0.3979
 3715ntf    on522782   0.535   5.114   0.538 -0.1884 -0.0306  0.2009
 3715ntf    fn422783   0.753   5.076   0.827 -0.0871 -0.0343  0.3070
 3715ntf    fn422784   0.762   5.245   0.702  0.1026 -0.1081 -0.0185
 3715ntf    fn422785   0.584   5.205   0.810 -0.0310  0.2055  0.1305
 3716ntf    cn122786   5.608   5.522   2.888  0.0421 -0.0320 -0.2886
 3716ntf    sn222787   5.726   5.509   2.750  0.2210  0.0822 -0.1460
 3716ntf    nn322788   5.749   5.662   2.720  0.1563  0.0980 -0.1168
 3716ntf    sn222789   5.746   5.731   2.579 -0.4203 -0.1069 -0.2088
 3716ntf    cn122790   5.876   5.853   2.614 -0.3147 -0.2653 -0.0399
 3716ntf    fn422791   5.621   5.405   2.948  0.2762  0.1295 -0.0208
 3716ntf    fn422792   5.623   5.614   2.982 -0.5101 -0.3570  0.1176
 3716ntf    fn422793   5.485   5.528   2.840 -0.2906  0.3421  0.5868
 3716ntf    on522794   5.847   5.457   2.808 -0.0956  0.1627  0.6023
 3716ntf    on522795   5.643   5.439   2.656  0.0267  0.2071 -0.0676
 3716ntf    on522796   5.633   5.814   2.548 -0.0767  0.2822 -0.4245
 3716ntf    on522797   5.806   5.648   2.477  0.1922 -0.7556  0.6635
 3716ntf    fn422798   5.966   5.801   2.696 -0.2687 -0.4428 -0.2034
 3716ntf    fn422799   5.948   5.880   2.506  0.0438 -0.0713  0.2433
 3716ntf    fn422800   5.834   5.972   2.653  0.1167  0.0067 -0.3903
 3717ntf    cn122801   6.749   0.100   0.963  0.6969 -0.2942 -0.3288
 3717ntf    sn222802   6.618  -0.025   0.979  0.1986  0.2157 -0.3884
 3717ntf    nn322803   6.614  -0.072   0.829 -0.0445  0.2866 -0.4043
 3717ntf    sn222804   6.689  -0.183   0.746 -0.4237  0.0312 -0.4063
 3717ntf    cn122805   6.668  -0.108   0.582 -0.4443  0.0510 -0.3948
 3717ntf    fn422806   6.722   0.189   0.869  0.8797  0.0416 -0.0635
 3717ntf    fn422807   6.771   0.165   1.077  0.2198 -0.1888 -0.2966
 3717ntf    fn422808   6.867   0.045   0.938  0.6344 -0.3700 -0.4575
 3717ntf    on522809   6.655  -0.112   1.087 -0.4972 -0.0779 -0.3858
 3717ntf    on522810   6.504   0.054   1.018  0.2802  0.1854 -0.0919
 3717ntf    on522811   6.624  -0.311   0.729 -0.1491 -0.1479 -0.1106
 3717ntf    on522812   6.830  -0.182   0.772 -0.4035 -0.1130 -0.5132
 3717ntf    fn422813   6.749  -0.005   0.566 -0.0078 -0.1551  0.4336
 3717ntf    fn422814   6.707  -0.197   0.492 -0.1851 -0.9205  0.6608
 3717ntf    fn422815   6.545  -0.069   0.551 -0.6250 -0.2082 -0.0107
 3718ntf    cn122816   3.338   0.347   5.669 -0.3217 -0.0658  0.2998
 3718ntf    sn222817   3.328   0.291   5.497  0.0338  0.3035  0.1578
 3718ntf    nn322818   3.399   0.409   5.421 -0.1297  0.2051 -0.1507
 3718ntf    sn222819   3.455   0.417   5.275 -0.0078 -0.4237 -0.1422
 3718ntf    cn122820   3.630   0.377   5.305  0.1513  0.2703 -0.1213
 3718ntf    fn422821   3.465   0.356   5.705 -0.2124 -0.2066 -0.0473
 3718ntf    fn422822   3.279   0.464   5.686 -0.7499 -0.1298 -0.6880
 3718ntf    fn422823   3.279   0.260   5.750 -0.4752  0.5111  0.8118
 3718ntf    on522824   3.400   0.166   5.494  0.2371  0.4327 -0.4675
 3718ntf    on522825   3.185   0.284   5.477 -0.0140  0.0617  0.5718
 3718ntf    on522826   3.451   0.554   5.232  0.6364 -0.2601  0.3048
 3718ntf    on522827   3.398   0.323   5.182 -0.4028 -0.7128  0.3877
 3718ntf    fn422828   3.647   0.246   5.313 -0.1673  0.2270 -0.1451
 3718ntf    fn422829   3.712   0.428   5.215 -0.0708  0.7905 -0.0276
 3718ntf    fn422830   3.672   0.427   5.420  0.2870  0.2150 -0.1468
 3719ntf    cn122831   4.383   6.332   6.392  0.0845 -0.2274 -0.0676
 3719ntf    sn222832   4.216   6.331   6.465 -0.1361  0.0140 -0.5668
 3719ntf    nn322833   4.182   6.485   6.472  0.4967  0.1276  0.1446
 3719ntf    sn222834   4.158   6.575   6.598  0.1760  0.1485  0.0678
 3719ntf    cn122835   4.025   6.688   6.546 -0.1130 -0.1444  0.1649
 3719ntf    fn422836   4.450   6.427   6.456 -0.3404  0.0177  0.0165
 3719ntf    fn422837   4.450   6.218   6.401  0.1447 -0.1956 -0.1160
 3719ntf    fn422838   4.394   6.373   6.267 -0.2205 -0.0116 -0.0270
 3719ntf    on522839   4.150   6.267   6.354  0.0984  0.1311 -0.7780
 3719ntf    on522840   4.230   6.268   6.593  0.3118  0.7992 -0.2164
 3719ntf    on522841   4.270   6.661   6.626  0.3763  0.0052 -0.2872
 3719ntf    on522842   4.094   6.501   6.704  0.9985 -0.7212 -0.0332
 3719ntf    fn422843   4.009   6.776   6.644 -0.3782  0.1281 -0.1180
 3719ntf    fn422844   4.051   6.758   6.436 -0.1509 -0.0574  0.2114
 3719ntf    fn422845   3.907   6.630   6.531 -0.1846  0.0544 -0.0571
 3720ntf    cn122846   3.990   0.936   1.536 -0.7216 -0.0372 -0.1782
 3720ntf    sn222847   4.005   0.780   1.628  0.1487  0.0906 -0.0902
 3720ntf    nn322848   3.952   0.672   1.528 -0.0355 -0.1758  0.2942
 3720ntf    sn222849   3.802   0.635   1.498  0.0120  0.0783 -0.2762
 3720ntf    cn122850   3.795   0.478   1.589  0.3909  0.1814 -0.0668
 3720ntf    fn422851   3.980   0.924   1.405 -0.5003 -0.5002 -0.1530
 3720ntf    fn422852   3.880   1.001   1.569 -0.1320  0.4053  0.9895
 3720ntf    fn422853   4.088   1.023   1.556 -0.3594 -0.4370 -0.2062
 3720ntf    on522854   4.148   0.767   1.635  0.0820 -0.1866  0.8688
 3720ntf    on522855   3.938   0.794   1.755 -0.2269 -0.0703 -0.2705
 3720ntf    on522856   3.782   0.596   1.361  0.2890 -0.3543 -0.1953
 3720ntf    on522857   3.703   0.720   1.560  0.5458  0.5991 -0.1223
 3720ntf    fn422858   3.890   0.391   1.559 -0.2544 -0.3912 -0.4941
 3720ntf    fn422859   3.790   0.503   1.719 -1.0449  0.0671 -0.0889
 3720ntf    fn422860   3.675   0.424   1.571  0.1877  0.7213 -0.3332
 3721ntf    cn122861   1.904   6.742   5.007  0.1016 -0.1961 -0.3617
 3721ntf    sn222862   1.752   6.725   4.908 -0.1875 -0.0986  0.0640
 3721ntf    nn322863   1.795   6.749   4.759 -0.0008  0.0533  0.1421
 3721ntf    sn222864   1.885   6.871   4.718  0.0460 -0.0591 -0.0899
 3721ntf    cn122865   1.748   6.963   4.640 -0.1658 -0.1347  0.1926
 3721ntf    fn422866   1.894   6.673   5.119 -0.4566 -0.4769 -0.5808
 3721ntf    fn422867   2.004   6.678   4.950  0.4734  0.2837 -0.2585
 3721ntf    fn422868   1.947   6.863   5.039 -0.0476 -0.1871 -0.1904
 3721ntf    on522869   1.722   6.586   4.932 -0.2678 -0.0314  0.3568
 3721ntf    on522870   1.668   6.824   4.971  0.4514  0.1519  0.5409
 3721ntf    on522871   1.974   6.831   4.612 -0.3098 -0.6727 -0.1684
 3721ntf    on522872   1.938   6.959   4.818 -0.2922 -0.0576  0.0901
 3721ntf    fn422873   1.638   6.974   4.713 -0.3939  0.4985 -0.2412
 3721ntf    fn422874   1.777   7.083   4.592 -0.2867  0.0753  0.6357
 3721ntf    fn422875   1.718   6.894   4.531 -0.0845 -0.3303  0.2927
 3722ntf    cn122876   0.639   1.851   6.097  0.1502  0.2566  0.1867
 3722ntf    sn222877   0.462   1.831   6.060  0.1536 -0.2524  0.4355
 3722ntf    nn322878   0.387   1.892   6.184 -0.3742 -0.5526  0.2641
 3722ntf    sn222879   0.365   1.824   6.323 -0.3143 -0.4902  0.3046
 3722ntf    cn122880   0.441   1.939   6.442 -0.1317 -0.0473 -0.2378
 3722ntf    fn422881   0.693   1.958   6.041 -0.2348  0.3391 -0.0255
 3722ntf    fn422882   0.653   1.854   6.228  0.1930 -0.2926  0.1965
 3722ntf    fn422883   0.701   1.740   6.059  0.0171  0.2565 -0.0347
 3722ntf    on522884   0.441   1.917   5.946 -0.3343  0.1443  0.8177
 3722ntf    on522885   0.440   1.691   6.035 -0.0685 -0.2018  0.3517
 3722ntf    on522886   0.446   1.710   6.357  0.6532  0.0920 -0.0237
 3722ntf    on522887   0.227   1.838   6.362 -0.3958 -0.2960 -0.0548
 3722ntf    fn422888   0.572   1.939   6.429 -0.0450 -0.1095  0.5918
 3722ntf    fn422889   0.394   2.062   6.425  0.1198  0.1165  0.2516
 3722ntf    fn422890   0.421   1.903   6.568  0.3615 -0.1364 -0.1827
 3723ntf    cn122891   2.040   5.158   7.177 -0.4768 -0.0959 -0.3348
 3723ntf    sn222892   2.154   5.215   7.048 -0.1038 -0.1645 -0.0391
 3723ntf    nn322893   2.083   5.160   6.919 -0.1949 -0.1937  0.0236
 3723ntf    sn222894   1.978   5.238   6.833 -0.1832  0.0195  0.2023
 3723ntf    cn122895   1.917   5.104   6.727 -0.2730 -0.1336  0.4480
 3723ntf    fn422896   1.929   5.230   7.179 -0.2881  0.1955  0.9018
 3723ntf    fn422897   2.006   5.030   7.174  0.4750 -0.3790  0.2143
 3723ntf    fn422898   2.085   5.183   7.299 -0.0674  0.5384 -0.6099
 3723ntf    on522899   2.165   5.355   7.080 -0.4694 -0.1750  0.1295
 3723ntf    on522900   2.273   5.138   7.074  0.0776  0.3066  0.5438
 3723ntf    on522901   2.050   5.322   6.741  0.0995 -0.5267 -0.0781
 3723ntf    on522902   1.860   5.290   6.898 -0.1661  0.4147 -0.0759
 3723ntf    fn422903   2.010   5.056   6.647 -0.2993  0.5746 -0.0121
 3723ntf    fn422904   1.874   5.002   6.801  0.0833 -0.2478  0.5000
 3723ntf    fn422905   1.816   5.149   6.654 -0.1932 -0.3998  0.1704
 3724ntf    cn122906   3.381   2.667   3.366 -0.2912 -0.2067  0.3275
 3724ntf    sn222907   3.202   2.693   3.345 -0.2281  0.2730  0.3749
 3724ntf    nn322908   3.182   2.680   3.190 -0.0076  0.3151  0.3431
 3724ntf    sn222909   3.100   2.771   3.092 -0.2853 -0.3063 -0.0028
 3724ntf    cn122910   3.028   2.639   2.989 -0.3137 -0.0718 -0.2825
 3724ntf    fn422911   3.424   2.631   3.486  0.0180 -0.6679  0.0826
 3724ntf    fn422912   3.421   2.577   3.277 -0.7903 -0.5210  0.4207
 3724ntf    fn422913   3.447   2.780   3.344 -0.1858 -0.3041  0.1356
 3724ntf    on522914   3.143   2.579   3.412  0.2352  0.3355  0.9041
 3724ntf    on522915   3.181   2.822   3.406 -0.1511  0.4577  0.0142
 3724ntf    on522916   3.174   2.851   2.998 -0.4360  0.2770  0.3697
 3724ntf    on522917   2.983   2.839   3.141 -0.4929 -0.3659 -0.4175
 3724ntf    fn422918   2.983   2.540   3.064 -0.3066 -0.1690 -0.4077
 3724ntf    fn422919   2.918   2.679   2.928 -0.6476 -0.1620  0.2554
 3724ntf    fn422920   3.114   2.586   2.903  0.0199 -0.4237  0.2619
 3725ntf    cn122921   3.619   3.501   5.054  0.2864  0.0961 -0.2592
 3725ntf    sn222922   3.470   3.541   4.958 -0.0667 -0.1876  0.1638
 3725ntf    nn322923   3.404   3.649   5.050 -0.3292  0.2008 -0.4705
 3725ntf    sn222924   3.257   3.681   5.096 -0.2728 -0.1378 -0.0485
 3725ntf    cn122925   3.270   3.624   5.268  0.2957  0.1207 -0.0022
 3725ntf    fn422926   3.593   3.466   5.179 -0.2009  0.7461 -0.1740
 3725ntf    fn422927   3.701   3.410   5.004  0.1941 -0.3328  0.3553
 3725ntf    fn422928   3.688   3.614   5.061 -0.1088  0.2837  0.8251
 3725ntf    on522929   3.525   3.586   4.832  0.0936  0.2672  0.3946
 3725ntf    on522930   3.398   3.416   4.960  0.1174 -0.3025 -0.2490
 3725ntf    on522931   3.162   3.596   5.030 -0.3446  0.3809 -0.6241
 3725ntf    on522932   3.235   3.823   5.106  0.3275 -0.0803  0.5497
 3725ntf    fn422933   3.306   3.497   5.270  0.1357  0.0723 -0.2022
 3725ntf    fn422934   3.348   3.698   5.345  0.6113 -0.4441  0.2241
 3725ntf    fn422935   3.155   3.625   5.333  0.3991  0.7653  0.1815
 3726ntf    cn122936   6.763   6.447   2.851  0.4836  0.1594  0.1388
 3726ntf    sn222937   6.639   6.526   2.745  0.2979  0.0522  0.2771
 3726ntf    nn322938   6.532   6.582   2.845 -0.2079 -0.0042 -0.2241
 3726ntf    sn222939   6.377   6.586   2.817 -0.2395 -0.3602 -0.1078
 3726ntf    cn122940   6.318   6.480   2.953  0.0776 -0.5243 -0.0960
 3726ntf    fn422941   6.832   6.533   2.925 -0.2103  0.3516  0.5664
 3726ntf    fn422942   6.707   6.364   2.937  0.3159  0.1461  0.0172
 3726ntf    fn422943   6.859   6.382   2.787  0.6686  0.2558  0.3136
 3726ntf    on522944   6.711   6.629   2.674 -0.2646  0.1705 -0.1333
 3726ntf    on522945   6.595   6.417   2.661 -0.2819 -0.0431  0.6957
 3726ntf    on522946   6.337   6.522   2.695 -0.1565  0.0299 -0.3412
 3726ntf    on522947   6.316   6.712   2.852  0.5879  0.2354 -0.7399
 3726ntf    fn422948   6.342   6.546   3.065 -0.1230 -0.2059 -0.2390
 3726ntf    fn422949   6.188   6.464   2.934 -0.0698  0.4229  0.0561
 3726ntf    fn422950   6.387   6.368   2.956  0.1268 -0.5020 -0.3170
 3727ntf    cn122951   6.376   3.374   4.374  0.0086 -0.1547  0.0000
 3727ntf    sn222952   6.289   3.440   4.229 -0.0735 -0.3011 -0.0175
 3727ntf    nn322953   6.187   3.531   4.306  0.3545  0.0095  0.1893
 3727ntf    sn222954   6.193   3.686   4.330 -0.1520  0.0890 -0.1837
 3727ntf    cn122955   6.122   3.747   4.174  0.7392  0.3681 -0.4892
 3727ntf    fn422956   6.445   3.265   4.347 -0.1427 -0.2642  0.0528
 3727ntf    fn422957   6.460   3.460   4.429 -0.2135  0.2495 -0.2882
 3727ntf    fn422958   6.288   3.336   4.465 -0.4670 -0.0617 -0.4170
 3727ntf    on522959   6.393   3.501   4.149  0.1112 -0.0601  0.4019
 3727ntf    on522960   6.224   3.324   4.172  0.0111  0.0072 -0.7566
 3727ntf    on522961   6.321   3.752   4.327 -0.2222  0.2443  0.1891
 3727ntf    on522962   6.100   3.721   4.434  0.0464  0.5144 -0.1443
 3727ntf    fn422963   5.992   3.720   4.169  0.7607  0.1476  0.0874
 3727ntf    fn422964   6.127   3.878   4.160  0.2503  0.4369 -0.0666
 3727ntf    fn422965   6.185   3.704   4.066  0.2809  0.1421 -0.6692
 3728ntf    cn122966   0.202   6.055   5.672  0.0720  0.3153 -0.0914
 3728ntf    sn222967   0.167   6.063   5.494  0.2883 -0.0425 -0.1518
 3728ntf    nn322968   0.207   6.211   5.459  0.4080 -0.0096  0.1234
 3728ntf    sn222969   0.351   6.258   5.418  0.2826 -0.1995 -0.5400
 3728ntf    cn122970   0.374   6.377   5.553  0.1343 -0.5451 -0.2106
 3728ntf    fn422971   0.319   6.107   5.704  0.1819  0.3388 -0.5250
 3728ntf    fn422972   0.114   6.100   5.759 -0.1357 -0.0569 -0.1044
 3728ntf    fn422973   0.221   5.928   5.705 -1.1041  0.2355  0.3127
 3728ntf    on522974   0.240   5.952   5.438  0.0767 -0.3037  0.0906
 3728ntf    on522975   0.024   6.047   5.496  0.2313  0.3503 -0.7440
 3728ntf    on522976   0.347   6.348   5.305  0.3659  0.6034  0.0890
 3728ntf    on522977   0.460   6.164   5.424 -0.2393 -0.7988 -0.4347
 3728ntf    fn422978   0.305   6.489   5.538  0.1216 -0.5022  0.1396
 3728ntf    fn422979   0.346   6.325   5.672  0.6143  0.0959  0.1902
 3728ntf    fn422980   0.501   6.411   5.562 -0.0092  0.0510 -0.4058
 3729ntf    cn122981   3.925   0.973   6.556  0.2762  0.0092  0.0183
 3729ntf    sn222982   4.071   1.038   6.644  0.0885  0.4449  0.0076
 3729ntf    nn322983   4.149   1.087   6.517 -0.6966  0.6907 -0.3879
 3729ntf    sn222984   4.224   1.224   6.497 -0.0873  0.4138 -0.0224
 3729ntf    cn122985   4.388   1.161   6.451 -0.1775  0.1890 -0.0416
 3729ntf    fn422986   3.970   0.882   6.471 -0.2019 -0.3326  0.1318
 3729ntf    fn422987   3.840   0.908   6.634  0.0564  0.0282 -0.2041
 3729ntf    fn422988   3.859   1.061   6.484  0.1614  0.0307  0.1496
 3729ntf    on522989   4.026   1.137   6.739  0.4141  0.1546  0.4666
 3729ntf    on522990   4.120   0.918   6.707 -0.9969  0.0887  0.2020
 3729ntf    on522991   4.248   1.302   6.616 -0.3205 -0.1159  0.3766
 3729ntf    on522992   4.190   1.286   6.371  0.1111  0.6139  0.0232
 3729ntf    fn422993   4.430   1.065   6.531 -0.2283 -0.1316 -0.3967
 3729ntf    fn422994   4.395   1.108   6.330 -0.2990 -0.0909  0.0718
 3729ntf    fn422995   4.472   1.262   6.462 -0.1488  0.1906 -0.2795
 3730ntf    cn122996   3.436   2.505   0.236  0.0527 -0.3715  0.3012
 3730ntf    sn222997   3.488   2.550   0.068 -0.2387 -0.3556  0.2161
 3730ntf    nn322998   3.351   2.600   0.010  0.2685  0.5021 -0.2503
 3730ntf    sn222999   3.316   2.730  -0.072 -0.2541  0.3466 -0.2754
 3730ntf    cn123000   3.169   2.782   0.020 -0.0808 -0.4195  0.4466
 3730ntf    fn423001   3.521   2.423   0.295  0.5838  0.1772  0.3123
 3730ntf    fn423002   3.428   2.616   0.309  0.1053  0.2166 -0.5782
 3730ntf    fn423003   3.312   2.459   0.233  0.0953 -0.4908  0.3673
 3730ntf    on523004   3.582   2.658   0.079 -0.5869  0.0235 -0.4181
 3730ntf    on523005   3.537   2.430   0.005  0.3517  0.0402 -0.0826
 3730ntf    on523006   3.263   2.703  -0.204 -0.0420  0.3445 -0.3612
 3730ntf    on523007   3.411   2.836  -0.054  0.0811 -0.0210  0.1331
 3730ntf    fn423008   3.068   2.696   0.020  0.4144 -1.0007  0.2936
 3730ntf    fn423009   3.196   2.810   0.147  0.4052  0.5569  0.1351
 3730ntf    fn423010   3.127   2.899  -0.026  0.6646 -0.2200  0.2572
 3731ntf    cn123011   2.956   6.173   5.771 -0.0683 -0.5276  0.0614
 3731ntf    sn223012   2.892   6.169   5.601 -0.3340  0.0132  0.1475
 3731ntf    nn323013   2.823   6.310   5.590 -0.0090  0.1695  0.0743
 3731ntf    sn223014   2.671   6.349   5.600 -0.0505  0.0954 -0.2531
 3731ntf    cn123015   2.617   6.356   5.426  0.2764 -0.3790 -0.3761
 3731ntf    fn423016   2.864   6.214   5.856 -0.2610 -0.0253 -0.3803
 3731ntf    fn423017   3.009   6.058   5.809  0.3817 -0.3279  0.0491
 3731ntf    fn423018   3.060   6.254   5.787 -0.3129 -0.1755 -0.1166
 3731ntf    on523019   3.013   6.164   5.522 -0.3167 -0.1899  0.1875
 3731ntf    on523020   2.813   6.049   5.603 -0.1816 -0.0907 -0.0860
 3731ntf    on523021   2.664   6.487   5.642  0.5517  0.0362  0.0507
 3731ntf    on523022   2.584   6.249   5.655  0.3042  0.2393  0.5812
 3731ntf    fn423023   2.485   6.361   5.420  0.2340 -0.1568  0.5249
 3731ntf    fn423024   2.661   6.462   5.360 -0.4382  0.0456 -0.1841
 3731ntf    fn423025   2.650   6.249   5.356  0.8411 -0.4939  0.0492
 3732ntf    cn123026   2.430   5.870   5.202 -0.0085  0.2994  0.0190
 3732ntf    sn223027   2.250   5.889   5.186  0.0062  0.1015 -0.3769
 3732ntf    nn323028   2.195   5.803   5.305 -0.1778  0.1096 -0.4562
 3732ntf    sn223029   2.142   5.655   5.311 -0.2038  0.1349  0.0498
 3732ntf    cn123030   2.162   5.620   5.488 -0.1576 -0.0710  0.0041
 3732ntf    fn423031   2.502   5.960   5.137  0.7895 -0.0854  0.3443
 3732ntf    fn423032   2.465   5.886   5.329  0.1508  0.0064  0.0122
 3732ntf    fn423033   2.465   5.750   5.159 -0.5519  0.3763 -0.6470
 3732ntf    on523034   2.237   6.031   5.205 -0.0500  0.0681 -0.1688
 3732ntf    on523035   2.221   5.835   5.055 -0.1097  0.6345 -0.5725
 3732ntf    on523036   2.238   5.562   5.255  0.0006  0.3148  0.0988
 3732ntf    on523037   2.002   5.635   5.286 -0.2396 -0.1518  0.4819
 3732ntf    fn423038   2.288   5.635   5.526 -0.1091  0.0673 -0.2091
 3732ntf    fn423039   2.098   5.710   5.562 -0.5722 -0.5355  0.2156
 3732ntf    fn423040   2.110   5.504   5.523  0.0332 -0.2385 -0.2643
 3733ntf    cn123041   6.763   3.137   5.082  0.0626 -0.4000 -0.1691
 3733ntf    sn223042   6.814   3.014   5.205  0.1530 -0.1778  0.0166
 3733ntf    nn323043   6.698   3.039   5.309  0.1389 -0.7428  0.1434
 3733ntf    sn223044   6.690   3.074   5.461  0.2743  0.1503 -0.0495
 3733ntf    cn123045   6.756   3.243   5.482  0.3918  0.1373 -0.3160
 3733ntf    fn423046   6.767   3.258   5.135  0.3051 -0.4573 -0.0560
 3733ntf    fn423047   6.846   3.141   4.979  0.2793 -0.1889  0.0134
 3733ntf    fn423048   6.642   3.122   5.031  0.0521  0.3569 -0.3847
 3733ntf    on523049   6.796   2.886   5.140 -0.0064 -0.1780  0.0605
 3733ntf    on523050   6.944   3.050   5.255  0.0416  0.1343  0.0823
 3733ntf    on523051   6.784   2.999   5.540  0.8399  0.0121 -0.8411
 3733ntf    on523052   6.555   3.088   5.510  0.0149  0.1766 -0.7681
 3733ntf    fn423053   6.701   3.289   5.593  0.0386 -0.5895 -0.1776
 3733ntf    fn423054   6.887   3.258   5.496  0.3662  0.4349 -0.4057
 3733ntf    fn423055   6.723   3.322   5.381  0.0675  0.1659 -0.1877
 3734ntf    cn123056   6.234   5.515   4.927  0.3596  0.0510 -0.1846
 3734ntf    sn223057   6.224   5.617   4.777  0.1955 -0.1810 -0.3334
 3734ntf    nn323058   6.358   5.697   4.794 -0.0398  0.0514  0.5043
 3734ntf    sn223059   6.379   5.846   4.840 -0.0275  0.1740  0.1093
 3734ntf    cn123060   6.336   5.938   4.690  0.1460 -0.0015 -0.0491
 3734ntf    fn423061   6.147   5.415   4.927 -0.1211  0.4638  0.2775
 3734ntf    fn423062   6.355   5.463   4.940  0.4958  0.5501  0.5858
 3734ntf    fn423063   6.209   5.579   5.040  0.2410 -0.2161 -0.0578
 3734ntf    on523064   6.246   5.526   4.668  0.2175 -0.4249 -0.1265
 3734ntf    on523065   6.098   5.688   4.784  0.2504 -0.1037 -0.1139
 3734ntf    on523066   6.518   5.881   4.858 -0.0224  0.2374 -0.0501
 3734ntf    on523067   6.279   5.880   4.938 -0.3849 -0.7041  0.0579
 3734ntf    fn423068   6.329   6.069   4.707 -0.2506 -0.0362  0.0841
 3734ntf    fn423069   6.408   5.913   4.582  0.5015 -0.3929  0.2750
 3734ntf    fn423070   6.212   5.906   4.656 -0.1462  0.3611  0.6704
 3735ntf    cn123071   3.982   2.448   6.667  0.1610 -0.0472 -0.0185
 3735ntf    sn223072   4.095   2.507   6.537 -0.1681 -0.0658 -0.3167
 3735ntf    nn323073   4.206   2.558   6.636 -0.5013  0.0520  0.0011
 3735ntf    sn223074   4.264   2.703   6.659  0.1183 -0.1762 -0.1090
 3735ntf    cn123075   4.435   2.676   6.605  0.2296  0.2916  0.0118
 3735ntf    fn423076   3.862   2.435   6.612  0.3998 -0.8006 -0.3766
 3735ntf    fn423077   4.011   2.327   6.712 -0.0042  0.0302  0.2943
 3735ntf    fn423078   3.974   2.530   6.770 -0.8500 -0.1682  0.0165
 3735ntf    on523079   4.122   2.384   6.468 -0.6972 -0.8272  0.7984
 3735ntf    on523080   4.028   2.609   6.460  0.0980  0.1730 -0.2338
 3735ntf    on523081   4.266   2.732   6.800 -0.5301 -0.2607 -0.0794
 3735ntf    on523082   4.221   2.815   6.580  0.6181  0.2392  0.2079
 3735ntf    fn423083   4.512   2.784   6.600  0.6111  0.0337  0.2289
 3735ntf    fn423084   4.491   2.583   6.681 -0.2022 -0.0484 -0.0866
 3735ntf    fn423085   4.439   2.630   6.481 -0.1238  0.2130  0.0292
 3736ntf    cn123086   6.201   3.246   0.040 -0.2696  0.2309 -0.5000
 3736ntf    sn223087   6.139   3.147  -0.100 -0.0878 -0.0341 -0.3936
 3736ntf    nn323088   6.235   3.189  -0.217  0.5543  0.3484  0.2542
 3736ntf    sn223089   6.225   3.294  -0.334  0.0036  0.0857  0.0618
 3736ntf    cn123090   6.400   3.292  -0.384  0.1857 -0.0844  0.6982
 3736ntf    fn423091   6.180   3.373   0.009  0.0390  0.3321 -0.3041
 3736ntf    fn423092   6.145   3.229   0.158  0.2622 -0.2167 -0.3116
 3736ntf    fn423093   6.332   3.242   0.062 -0.2762 -0.3055 -0.5526
 3736ntf    on523094   6.142   3.011  -0.055  0.3029  0.1174  0.0496
 3736ntf    on523095   6.003   3.193  -0.102  0.0045  0.2469 -0.4227
 3736ntf    on523096   6.197   3.430  -0.296 -0.1299  0.1202 -0.1564
 3736ntf    on523097   6.155   3.244  -0.450  0.3120 -0.2545  0.0186
 3736ntf    fn423098   6.426   3.175  -0.439 -0.4022 -0.0778  0.4004
 3736ntf    fn423099   6.437   3.384  -0.472 -0.4597 -0.0748  0.4308
 3736ntf    fn423100   6.484   3.308  -0.283  0.5815  0.4864  0.2828
 3737ntf    cn123101   5.669   1.297   2.911 -0.0031  0.0762  0.1704
 3737ntf    sn223102   5.717   1.439   2.807  0.1466 -0.0101  0.1214
 3737ntf    nn323103   5.604   1.437   2.699  0.1961  0.1060  0.0677
 3737ntf    sn223104   5.479   1.531   2.682  0.1829  0.0949  0.1035
 3737ntf    cn123105   5.472   1.528   2.501 -0.2646  0.0892  0.1193
 3737ntf    fn423106   5.658   1.189   2.837  0.3772 -0.0440  0.2832
 3737ntf    fn423107   5.759   1.260   3.001 -0.1315  0.1151  0.3143
 3737ntf    fn423108   5.556   1.318   2.976 -0.2900 -0.0180 -0.2985
 3737ntf    on523109   5.718   1.545   2.905 -0.3244 -0.1293  0.2550
 3737ntf    on523110   5.844   1.394   2.755 -0.0373 -0.1590 -0.1958
 3737ntf    on523111   5.488   1.668   2.727 -0.0884 -0.0646  0.6531
 3737ntf    on523112   5.358   1.461   2.717  0.2841 -0.1568 -0.0546
 3737ntf    fn423113   5.373   1.592   2.441 -0.1901  0.0326 -0.0681
 3737ntf    fn423114   5.590   1.560   2.449  0.1255 -0.1924  0.8320
 3737ntf    fn423115   5.457   1.404   2.458  0.2004 -0.0043  0.2150
 3738ntf    cn123116   1.236   1.850   5.018 -0.0737 -0.0171  0.0192
 3738ntf    sn223117   1.367   1.919   4.912  0.0738 -0.0949  0.1510
 3738ntf    nn323118   1.471   1.949   5.026  0.3922  0.0372 -0.1707
 3738ntf    sn223119   1.627   1.940   5.011  0.3732 -0.0371 -0.3282
 3738ntf    cn123120   1.680   1.778   5.075 -0.1556  0.0607  0.3729
 3738ntf    fn423121   1.134   1.797   4.952 -0.0136 -0.4167  0.2476
 3738ntf    fn423122   1.276   1.758   5.104 -0.3987 -0.0489  0.1390
 3738ntf    fn423123   1.186   1.945   5.095 -0.4030 -0.0156 -0.1922
 3738ntf    on523124   1.390   1.806   4.826 -0.5559  0.0075 -0.1560
 3738ntf    on523125   1.304   2.039   4.863  0.1770 -0.1657 -0.1542
 3738ntf    on523126   1.695   2.019   5.111  0.6166 -0.1944 -0.3680
 3738ntf    on523127   1.672   1.946   4.874 -0.7685 -0.0427 -0.7177
 3738ntf    fn423128   1.662   1.786   5.205 -0.4512 -0.4077  0.3640
 3738ntf    fn423129   1.605   1.678   5.032  0.0711 -0.1128  0.3804
 3738ntf    fn423130   1.807   1.746   5.061 -0.2075 -0.0965  0.2443
 3739ntf    cn123131   5.797   2.720   7.147  0.4133 -0.1938 -0.4463
 3739ntf    sn223132   5.727   2.556   7.178 -0.0463  0.0937  0.0595
 3739ntf    nn323133   5.582   2.595   7.226 -0.0268 -0.6940  0.8012
 3739ntf    sn223134   5.445   2.568   7.155  0.2639  0.0679 -0.0778
 3739ntf    cn123135   5.396   2.405   7.220 -0.2812  0.3583  0.2488
 3739ntf    fn423136   5.771   2.772   7.028 -0.5184 -0.2233 -0.2630
 3739ntf    fn423137   5.759   2.806   7.241  0.0125 -1.0997  0.2318
 3739ntf    fn423138   5.929   2.724   7.152  0.4200 -0.3492 -0.5139
 3739ntf    on523139   5.738   2.487   7.052  0.3827  0.1524  0.0640
 3739ntf    on523140   5.806   2.503   7.287  0.3096  0.6473  0.0742
 3739ntf    on523141   5.444   2.552   7.012 -0.2694 -0.6518 -0.0010
 3739ntf    on523142   5.347   2.659   7.209  0.1349 -0.1171  0.0012
 3739ntf    fn423143   5.280   2.364   7.172  0.1141 -0.3524 -0.1123
 3739ntf    fn423144   5.479   2.307   7.189 -0.2678  0.6204 -0.5735
 3739ntf    fn423145   5.391   2.402   7.352  0.1459  0.1230  0.2607
 3740ntf    cn123146   1.491   4.479   5.932 -0.2405  0.0942  0.0414
 3740ntf    sn223147   1.662   4.437   5.978 -0.2298  0.1209  0.0253
 3740ntf    nn323148   1.640   4.285   6.013  0.4352  0.0063 -0.0274
 3740ntf    sn223149   1.659   4.160   5.920  0.1445  0.1658 -0.3086
 3740ntf    cn123150   1.832   4.129   5.968  0.0067  0.0652  0.1350
 3740ntf    fn423151   1.495   4.581   5.849  0.3289  0.2045  0.1977
 3740ntf    fn423152   1.426   4.387   5.862 -0.3107 -0.0252  0.2589
 3740ntf    fn423153   1.423   4.504   6.042  0.5143  0.1558  0.5047
 3740ntf    on523154   1.732   4.460   5.854  0.0051  0.0132  0.1378
 3740ntf    on523155   1.694   4.525   6.088  0.2681  0.0826 -0.0857
 3740ntf    on523156   1.662   4.191   5.780 -0.0737  0.0750 -0.3332
 3740ntf    on523157   1.587   4.042   5.960  0.4950  0.2100  0.4801
 3740ntf    fn423158   1.837   4.096   6.096 -0.5064  0.4665  0.2620
 3740ntf    fn423159   1.901   4.037   5.902 -0.0644  0.3881 -0.3952
 3740ntf    fn423160   1.899   4.243   5.959 -0.0847  0.0993 -0.1282
 3741ntf    cn123161   2.122   2.480   5.118 -0.3735 -0.1748  0.0110
 3741ntf    sn223162   2.249   2.390   5.025 -0.2338 -0.2866  0.3078
 3741ntf    nn323163   2.172   2.262   4.977 -0.4379 -0.2262  0.4769
 3741ntf    sn223164   2.074   2.234   4.858  0.0711 -0.0216  0.0034
 3741ntf    cn123165   2.040   2.057   4.882  0.2399 -0.0660 -0.0867
 3741ntf    fn423166   2.072   2.389   5.200 -0.0459 -0.1412  0.2517
 3741ntf    fn423167   2.170   2.585   5.183  0.1915 -0.3840 -0.0637
 3741ntf    fn423168   2.022   2.505   5.035 -0.5486 -0.2911  0.1843
 3741ntf    on523169   2.281   2.484   4.920 -0.9237  0.1979  0.5244
 3741ntf    on523170   2.354   2.367   5.121  0.4295  0.5357 -0.1908
 3741ntf    on523171   2.120   2.238   4.722  0.7620 -0.6707  0.2100
 3741ntf    on523172   1.939   2.280   4.879  0.0565  0.1319 -0.4331
 3741ntf    fn423173   1.983   2.038   5.000  0.3341  0.3730  0.0300
 3741ntf    fn423174   1.956   2.004   4.794  0.3418  0.1892 -0.3412
 3741ntf    fn423175   2.147   1.980   4.868 -0.1166 -0.5666 -0.1152
 3742ntf    cn123176   5.583   0.883   4.127 -0.3401 -0.3783  0.2526
 3742ntf    sn223177   5.759   0.849   4.160 -0.1889 -0.0798 -0.2383
 3742ntf    nn323178   5.820   0.974   4.087  0.0035  0.0760  0.1846
 3742ntf    sn223179   5.972   1.010   4.075  0.0987 -0.3580  0.0752
 3742ntf    cn123180   6.002   1.022   3.896  0.0063 -0.1327  0.0752
 3742ntf    fn423181   5.570   0.948   4.013 -0.4068 -1.6152 -0.4630
 3742ntf    fn423182   5.507   0.775   4.113 -0.6864 -0.0961 -0.0468
 3742ntf    fn423183   5.529   0.961   4.219  0.1609 -0.0199  0.2409
 3742ntf    on523184   5.752   0.860   4.304 -0.2723  0.3206 -0.2697
 3742ntf    on523185   5.778   0.718   4.104 -0.1351 -0.0627 -0.2593
 3742ntf    on523186   6.076   0.918   4.113  0.3017 -0.3333 -0.4116
 3742ntf    on523187   5.992   1.146   4.118 -0.3050 -0.2316 -0.1319
 3742ntf    fn423188   5.982   0.902   3.846 -0.6165  0.1843 -0.4471
 3742ntf    fn423189   5.930   1.115   3.834 -0.1913  0.0401  0.5577
 3742ntf    fn423190   6.127   1.056   3.871 -0.1391  0.0246 -0.4379
 3743ntf    cn123191   5.109   3.692   7.126  0.0904 -0.1444 -0.0846
 3743ntf    sn223192   5.285   3.647   7.132  0.0283 -0.3724  0.0330
 3743ntf    nn323193   5.343   3.792   7.122 -0.0114 -0.3612 -0.0340
 3743ntf    sn223194   5.414   3.875   7.236 -0.2228  0.0359 -0.1917
 3743ntf    cn123195   5.518   3.984   7.133  0.1640  0.2416  0.4165
 3743ntf    fn423196   5.085   3.751   7.010  0.5075  0.5992  0.2050
 3743ntf    fn423197   5.017   3.597   7.132  0.1804 -0.2388 -0.1927
 3743ntf    fn423198   5.069   3.776   7.219 -0.1699  0.0892 -0.4025
 3743ntf    on523199   5.285   3.574   7.257  0.5754 -0.4498 -0.0106
 3743ntf    on523200   5.300   3.574   7.008  0.0389 -0.4108  0.0567
 3743ntf    on523201   5.515   3.802   7.307 -0.1691  0.1115 -0.1916
 3743ntf    on523202   5.315   3.957   7.301 -0.1349  0.2588 -0.3345
 3743ntf    fn423203   5.439   4.074   7.077  0.4560  0.4743  0.3772
 3743ntf    fn423204   5.605   4.057   7.201  0.5351 -0.0063  0.2090
 3743ntf    fn423205   5.584   3.916   7.041  0.1048  0.0594  0.5063
 3744ntf    cn123206   1.901   3.618   4.583  0.0744 -0.3236  0.3882
 3744ntf    sn223207   1.758   3.699   4.662  0.2895  0.3762  0.0720
 3744ntf    nn323208   1.792   3.698   4.815 -0.0001  0.4002  0.1368
 3744ntf    sn223209   1.785   3.574   4.911 -0.0255  0.3143  0.0240
 3744ntf    cn123210   1.603   3.561   4.915  0.0235 -0.2354  0.6632
 3744ntf    fn423211   1.919   3.660   4.459 -0.9574 -0.0585  0.3194
 3744ntf    fn423212   2.020   3.633   4.639  0.2257 -0.2947  0.0598
 3744ntf    fn423213   1.880   3.488   4.579  0.3641 -0.3454 -0.4523
 3744ntf    on523214   1.765   3.832   4.606 -0.3227  0.1686 -0.5185
 3744ntf    on523215   1.645   3.622   4.616  0.2723  0.3070  0.2299
 3744ntf    on523216   1.820   3.609   5.046 -0.6473  0.0146  0.2686
 3744ntf    on523217   1.841   3.451   4.860  0.4433  0.4998  0.0888
 3744ntf    fn423218   1.561   3.529   5.036 -0.9299  0.0675  0.4155
 3744ntf    fn423219   1.554   3.680   4.885  0.5540 -0.2059 -0.1205
 3744ntf    fn423220   1.541   3.472   4.839 -0.4659  0.7050 -0.0541
 3745ntf    cn123221   2.515   3.660   3.841 -0.2022  0.3062  0.1792
 3745ntf    sn223222   2.497   3.834   3.891  0.1358  0.3643  0.1034
 3745ntf    nn323223   2.420   3.892   3.767 -0.1067 -0.0074  0.0781
 3745ntf    sn223224   2.267   3.908   3.738 -0.0976  0.0209  0.0463
 3745ntf    cn123225   2.265   4.090   3.751  0.2690  0.0362 -0.1013
 3745ntf    fn423226   2.592   3.641   3.735 -0.1780 -0.2086  0.2882
 3745ntf    fn423227   2.571   3.591   3.938 -0.1111  0.4683  0.2425
 3745ntf    fn423228   2.405   3.591   3.816 -0.0610  0.1354  0.0284
 3745ntf    on523229   2.426   3.828   4.017 -0.1294 -0.2665 -0.0714
 3745ntf    on523230   2.633   3.880   3.900  0.1337  0.4814 -0.4730
 3745ntf    on523231   2.174   3.869   3.841 -0.6095 -0.0901 -0.4524
 3745ntf    on523232   2.227   3.886   3.601  0.4193  0.7521 -0.2286
 3745ntf    fn423233   2.332   4.161   3.663  0.1078 -0.3247 -0.5186
 3745ntf    fn423234   2.138   4.126   3.747  0.2296 -0.1119 -0.1899
 3745ntf    fn423235   2.302   4.126   3.873 -0.0187 -0.4298  0.1277
 3746ntf    cn123236   2.803   0.363   6.726  0.2436 -0.0657  0.2817
 3746ntf    sn223237   2.749   0.352   6.899 -0.0330 -0.3101  0.1826
 3746ntf    nn323238   2.890   0.331   6.967  0.2732  0.2651 -0.2656
 3746ntf    sn223239   2.931   0.228   7.077  0.1330  0.2932 -0.1867
 3746ntf    cn123240   3.079   0.312   7.142 -0.0364  0.1710  0.3658
 3746ntf    fn423241   2.799   0.486   6.677 -0.1471 -0.1450  0.1097
 3746ntf    fn423242   2.926   0.322   6.702  0.2337  0.0610  0.0040
 3746ntf    fn423243   2.730   0.288   6.646 -0.2571  0.0718  0.6019
 3746ntf    on523244   2.703   0.489   6.911 -0.2197 -0.3777  0.2388
 3746ntf    on523245   2.660   0.240   6.889  0.0223 -0.3506  0.1407
 3746ntf    on523246   2.984   0.111   7.012  0.0718  0.0125  0.2650
 3746ntf    on523247   2.852   0.223   7.198 -0.5914  0.0250 -0.6651
 3746ntf    fn423248   3.136   0.256   7.248 -0.4153 -0.2509  0.3480
 3746ntf    fn423249   3.173   0.304   7.050 -0.1881  0.3574  0.1946
 3746ntf    fn423250   3.068   0.440   7.170 -0.2420  0.2611 -0.1325
 3747ntf    cn123251   1.920   5.618   1.178  0.4584 -0.6149 -0.2738
 3747ntf    sn223252   1.806   5.632   1.320  0.3965 -0.0099 -0.3813
 3747ntf    nn323253   1.778   5.482   1.357 -0.1595  0.0938 -0.3753
 3747ntf    sn223254   1.710   5.367   1.274  0.0044 -0.2296 -0.0635
 3747ntf    cn123255   1.853   5.256   1.256  0.2952  0.1712 -0.2632
 3747ntf    fn423256   1.952   5.738   1.132  0.3159 -0.3689  0.2635
 3747ntf    fn423257   2.034   5.561   1.214  0.2059 -0.4674  0.7829
 3747ntf    fn423258   1.872   5.550   1.075 -0.2096 -0.1328 -0.2903
 3747ntf    on523259   1.887   5.691   1.423 -0.1104  0.0188  0.0039
 3747ntf    on523260   1.693   5.710   1.276  0.3099  0.0965  0.0346
 3747ntf    on523261   1.668   5.394   1.139  0.3133  0.4774 -0.0228
 3747ntf    on523262   1.615   5.289   1.348  0.0594  0.3730  0.6568
 3747ntf    fn423263   1.954   5.303   1.185  0.2868  0.3124 -0.1819
 3747ntf    fn423264   1.911   5.219   1.369 -0.2419  0.8480  0.2430
 3747ntf    fn423265   1.817   5.148   1.188 -0.0197  0.2072 -0.1573
 3748ntf    cn123266   5.392   6.836   0.743  0.2054  0.0650 -0.0344
 3748ntf    sn223267   5.560   6.774   0.710  0.1106 -0.3546  0.2578
 3748ntf    nn323268   5.571   6.825   0.562 -1.1307  0.2196  0.3449
 3748ntf    sn223269   5.617   6.966   0.510  0.2162 -0.2849  0.1240
 3748ntf    cn123270   5.789   6.918   0.475  0.1758 -0.1061 -0.3289
 3748ntf    fn423271   5.300   6.799   0.656 -0.0863 -0.0415  0.3157
 3748ntf    fn423272   5.343   6.794   0.859  0.1109 -0.7215 -0.3533
 3748ntf    fn423273   5.397   6.968   0.745  0.8947  0.0410  0.3363
 3748ntf    on523274   5.658   6.831   0.799  0.1874  0.6163 -0.4283
 3748ntf    on523275   5.545   6.631   0.709 -0.1542 -0.3258 -0.2043
 3748ntf    on523276   5.621   7.070   0.609  0.3790 -0.0166 -0.1599
 3748ntf    on523277   5.565   7.006   0.381  0.6277 -0.6145 -0.1459
 3748ntf    fn423278   5.824   6.807   0.538  0.4529  0.2388  0.1296
 3748ntf    fn423279   5.805   6.888   0.347  0.4291 -0.3089 -0.2505
 3748ntf    fn423280   5.876   7.012   0.504 -0.5575  0.4780  0.0174
 3749ntf    cn123281   2.466   5.348   1.562 -0.0657 -0.2299 -0.4458
 3749ntf    sn223282   2.456   5.241   1.709 -0.1218  0.1729 -0.1568
 3749ntf    nn323283   2.515   5.336   1.820  0.1566 -0.1177 -0.0529
 3749ntf    sn223284   2.440   5.447   1.903  0.3828 -0.0268  0.0297
 3749ntf    cn123285   2.398   5.375   2.064 -0.3428  0.2556 -0.0304
 3749ntf    fn423286   2.590   5.378   1.527  0.1225 -0.7750 -0.2609
 3749ntf    fn423287   2.407   5.293   1.457 -0.4157  0.1804 -0.4651
 3749ntf    fn423288   2.410   5.466   1.580 -0.4146 -0.5079  0.3579
 3749ntf    on523289   2.321   5.193   1.718 -0.1539  0.3014  0.0529
 3749ntf    on523290   2.558   5.143   1.682 -0.2842  0.0437 -0.2959
 3749ntf    on523291   2.310   5.488   1.857  0.3748 -0.0651  0.0176
 3749ntf    on523292   2.523   5.557   1.945  0.0372  0.0317  0.5705
 3749ntf    fn423293   2.499   5.357   2.148 -0.2241  0.0892 -0.2074
 3749ntf    fn423294   2.314   5.457   2.125  0.2623 -0.0719  1.2966
 3749ntf    fn423295   2.344   5.254   2.056  0.3834 -0.0566 -0.3070
 3750ntf    cn123296   1.120   3.778   3.475  0.2820 -0.5385 -0.4339
 3750ntf    sn223297   1.196   3.917   3.387  0.0981 -0.0420  0.1824
 3750ntf    nn323298   1.082   3.959   3.288  0.2655 -0.0650 -0.0211
 3750ntf    sn223299   1.072   4.094   3.208 -0.3663 -0.1192 -0.0376
 3750ntf    cn123300   0.970   4.200   3.315  0.3727  0.4117  0.1464
 3750ntf    fn423301   1.191   3.747   3.582 -0.2319  0.2138  0.1409
 3750ntf    fn423302   0.998   3.812   3.514  0.4990  0.2821 -0.4536
 3750ntf    fn423303   1.105   3.667   3.404  0.0090 -0.4949 -0.4472
 3750ntf    on523304   1.225   4.010   3.493 -0.0525  0.3884 -0.1491
 3750ntf    on523305   1.305   3.845   3.325  0.5330  0.7107  0.0571
 3750ntf    on523306   0.999   4.080   3.084  0.0930  0.7524 -0.4079
 3750ntf    on523307   1.198   4.163   3.202 -0.3052 -0.1535  0.7504
 3750ntf    fn423308   1.031   4.227   3.429 -0.4281  0.3107  0.6055
 3750ntf    fn423309   0.940   4.316   3.261 -0.4497  0.1334 -0.0177
 3750ntf    fn423310   0.858   4.138   3.348  0.1976  0.5798 -0.1286
 3751ntf    cn123311   6.841   4.720   0.533 -0.2841 -0.2086 -0.2560
 3751ntf    sn223312   6.806   4.582   0.645 -0.2253  0.2019  0.2747
 3751ntf    nn323313   6.792   4.665   0.777 -0.6417 -0.1456  0.4497
 3751ntf    sn223314   6.906   4.699   0.879 -0.2064 -0.0101 -0.0831
 3751ntf    cn123315   6.837   4.847   0.959  0.3236  0.2570 -0.1111
 3751ntf    fn423316   6.917   4.692   0.428  0.1006 -0.3862  0.0659
 3751ntf    fn423317   6.730   4.776   0.488 -0.1020  0.4638  0.1063
 3751ntf    fn423318   6.902   4.821   0.595 -0.4951 -0.0943 -0.2341
 3751ntf    on523319   6.680   4.537   0.591 -0.0754  0.5238 -0.3585
 3751ntf    on523320   6.918   4.494   0.626 -0.5211 -0.2058  0.3961
 3751ntf    on523321   7.023   4.747   0.809 -0.1498  0.1388  0.1143
 3751ntf    on523322   6.920   4.599   0.982 -0.4968  0.3368  0.2994
 3751ntf    fn423323   6.706   4.842   0.981  0.2766  0.0794 -0.4289
 3751ntf    fn423324   6.900   4.872   1.072  0.5432  0.1999 -0.2218
 3751ntf    fn423325   6.852   4.958   0.889  0.3547 -0.0270 -0.5571
 3752ntf    cn123326   0.605   6.553   3.307 -0.3598 -0.2066  0.0331
 3752ntf    sn223327   0.701   6.401   3.334 -0.0295 -0.0227 -0.0931
 3752ntf    nn323328   0.752   6.429   3.480 -0.0080  0.4372 -0.1877
 3752ntf    sn223329   0.728   6.340   3.607  0.3341  0.6045 -0.0051
 3752ntf    cn123330   0.864   6.222   3.588 -0.2189 -0.0646  0.1583
 3752ntf    fn423331   0.502   6.569   3.388 -0.1373  0.2154  0.2367
 3752ntf    fn423332   0.676   6.662   3.334  0.1444 -0.4373 -0.3312
 3752ntf    fn423333   0.561   6.565   3.183 -0.0194 -0.2193 -0.0916
 3752ntf    on523334   0.598   6.301   3.318 -0.5103  0.3271  0.7388
 3752ntf    on523335   0.795   6.423   3.227 -0.4277  0.7300 -0.2967
 3752ntf    on523336   0.604   6.267   3.619  0.4821  0.2908 -0.3773
 3752ntf    on523337   0.751   6.409   3.732  0.1994 -0.1961  0.4667
 3752ntf    fn423338   0.865   6.165   3.469  0.0113  0.7536 -0.2336
 3752ntf    fn423339   0.983   6.277   3.605  0.2433 -0.8587 -0.4069
 3752ntf    fn423340   0.854   6.115   3.666  0.1403  0.0230  0.3266
 3753ntf    cn123341   0.473   1.328   6.770  0.3301 -0.1452 -0.2508
 3753ntf    sn223342   0.542   1.302   6.936  0.0147 -0.0349 -0.1018
 3753ntf    nn323343   0.683   1.238   6.908  0.1747  0.1054  0.3714
 3753ntf    sn223344   0.725   1.117   6.816  0.1094  0.4630 -0.1371
 3753ntf    cn123345   0.875   1.065   6.905  0.0226  0.0738 -0.2205
 3753ntf    fn423346   0.448   1.214   6.708 -0.1104 -0.0718 -0.2092
 3753ntf    fn423347   0.354   1.384   6.776  0.5310  0.2618 -0.0731
 3753ntf    fn423348   0.557   1.401   6.698  0.2162  0.0372 -0.1990
 3753ntf    on523349   0.534   1.430   7.000 -0.1974 -0.0604 -0.0751
 3753ntf    on523350   0.449   1.204   6.987 -0.2460  0.3445  0.1526
 3753ntf    on523351   0.775   1.168   6.691  0.1028  0.5499 -0.1043
 3753ntf    on523352   0.645   0.998   6.808  0.7494 -0.0363  0.6317
 3753ntf    fn423353   0.961   1.159   6.940 -0.4224  0.3812  0.0585
 3753ntf    fn423354   0.844   0.991   7.011  0.0682 -0.3972 -0.5311
 3753ntf    fn423355   0.947   0.985   6.829 -0.1107  0.0008 -0.2713
 3754ntf    cn123356   4.531   3.926   2.869  0.0614  0.2239  0.1546
 3754ntf    sn223357   4.708   3.918   2.910  0.1084  0.2517 -0.0442
 3754ntf    nn323358   4.717   3.783   2.988 -0.0260  0.0014 -0.4590
 3754ntf    sn223359   4.846   3.712   3.044 -0.0445  0.0326 -0.3774
 3754ntf    cn123360   4.778   3.551   3.094  0.2945 -0.1748 -0.5815
 3754ntf    fn423361   4.444   3.915   2.968 -0.1942  0.2191 -0.0698
 3754ntf    fn423362   4.501   4.034   2.800  0.0885  0.3885  0.3981
 3754ntf    fn423363   4.500   3.821   2.795 -0.4375  0.3455  0.1855
 3754ntf    on523364   4.764   3.931   2.777  0.0978  0.6883 -0.0081
 3754ntf    on523365   4.718   4.032   2.997  0.3628  0.2732 -0.0987
 3754ntf    on523366   4.889   3.764   3.172  0.1296 -0.5657 -0.1923
 3754ntf    on523367   4.945   3.683   2.944  0.2076 -0.1615 -0.0732
 3754ntf    fn423368   4.695   3.560   3.197  0.4973 -0.3520 -0.4027
 3754ntf    fn423369   4.705   3.505   2.993 -0.4954  0.0819 -0.1395
 3754ntf    fn423370   4.865   3.459   3.131 -0.1369 -0.2985  0.1505
 3755ntf    cn123371   3.290   5.644   7.122 -0.3504 -0.6538 -0.0225
 3755ntf    sn223372   3.430   5.580   7.219 -0.0212  0.1780  0.0601
 3755ntf    nn323373   3.459   5.438   7.159  0.0160  0.2287 -0.0428
 3755ntf    sn223374   3.576   5.388   7.067  0.1690 -0.1599  0.3556
 3755ntf    cn123375   3.478   5.339   6.921 -0.0207 -0.0839  0.4584
 3755ntf    fn423376   3.236   5.758   7.160  0.3360 -0.4503  0.3619
 3755ntf    fn423377   3.330   5.661   6.997 -0.3778  0.2642  0.0883
 3755ntf    fn423378   3.184   5.564   7.128 -0.0801 -1.0157 -0.0170
 3755ntf    on523379   3.530   5.682   7.201 -0.0014  0.0919 -0.3165
 3755ntf    on523380   3.371   5.559   7.349  0.6792 -0.2759  0.3139
 3755ntf    on523381   3.638   5.263   7.104 -0.2561 -0.2643  0.7111
 3755ntf    on523382   3.656   5.490   7.003 -0.0333  0.2058  0.6852
 3755ntf    fn423383   3.541   5.255   6.842 -0.4310  0.1768 -0.1549
 3755ntf    fn423384   3.370   5.275   6.962 -0.4483  0.3381  0.0052
 3755ntf    fn423385   3.445   5.442   6.844  0.0184 -0.1164  0.3986
 3756ntf    cn123386   6.688   3.858   0.620  0.4225 -0.3577  0.1785
 3756ntf    sn223387   6.824   3.975   0.644  0.2794 -0.1804  0.1267
 3756ntf    nn323388   6.929   3.915   0.543  0.4863 -0.4123  0.4785
 3756ntf    sn223389   6.942   3.918   0.387 -0.2201 -0.2760  0.4203
 3756ntf    cn123390   7.100   3.995   0.343 -0.4201 -0.0665  0.0627
 3756ntf    fn423391   6.669   3.845   0.490 -0.5940 -0.3410  0.3172
 3756ntf    fn423392   6.720   3.739   0.669 -0.1384 -0.4040  0.4421
 3756ntf    fn423393   6.576   3.907   0.673  0.3176  0.0226 -0.3890
 3756ntf    on523394   6.764   4.100   0.605  0.0945 -0.3240 -0.0539
 3756ntf    on523395   6.867   3.958   0.780  0.1766 -0.2566  0.1497
 3756ntf    on523396   6.848   4.003   0.318  0.0522 -0.2222  0.1129
 3756ntf    on523397   6.951   3.781   0.343  0.0793 -0.2699  0.4653
 3756ntf    fn423398   7.104   4.115   0.398  0.9397  0.0158 -0.1718
 3756ntf    fn423399   7.207   3.924   0.377 -0.0028  0.2402 -0.5945
 3756ntf    fn423400   7.118   4.013   0.213  0.0035 -0.6265  0.0390
 3757ntf    cn123401   6.751   5.251   7.100 -0.4393  0.1410  0.2496
 3757ntf    sn223402   6.657   5.202   7.248 -0.1342 -0.0268  0.3896
 3757ntf    nn323403   6.767   5.222   7.358 -0.4097  0.4104  0.5927
 3757ntf    sn223404   6.892   5.128   7.379 -0.3538  0.3898  0.1747
 3757ntf    cn123405   6.820   4.978   7.451 -0.0171 -0.0700 -0.4436
 3757ntf    fn423406   6.842   5.342   7.130  0.0878 -0.4220  0.3968
 3757ntf    fn423407   6.804   5.148   7.035 -0.2315  0.1143  0.4602
 3757ntf    fn423408   6.670   5.306   7.012  0.0624 -0.0424 -0.3278
 3757ntf    on523409   6.571   5.316   7.273 -0.2900 -0.1124  0.2429
 3757ntf    on523410   6.610   5.069   7.218  0.3747 -0.0418 -0.3466
 3757ntf    on523411   6.962   5.179   7.494 -0.0598 -0.2267  0.2703
 3757ntf    on523412   6.953   5.092   7.254 -0.3885  0.4399  0.1433
 3757ntf    fn423413   6.782   4.899   7.352  0.0166 -0.2944 -0.2789
 3757ntf    fn423414   6.904   4.907   7.525 -0.2400  0.0978 -0.0285
 3757ntf    fn423415   6.720   5.001   7.534  0.4739  0.3208  0.0498
 3758ntf    cn123416   5.367   1.534   0.916 -0.2763  0.3273  0.1267
 3758ntf    sn223417   5.384   1.622   0.758 -0.1813 -0.2474 -0.1877
 3758ntf    nn323418   5.524   1.690   0.779 -0.4477  0.1868  0.2281
 3758ntf    sn223419   5.564   1.821   0.854  0.1889  0.1056  0.0428
 3758ntf    cn123420   5.649   1.900   0.714  0.3559  0.0516  0.1132
 3758ntf    fn423421   5.270   1.444   0.907 -0.5373  0.6394 -0.2617
 3758ntf    fn423422   5.475   1.465   0.947 -0.0993  0.5401 -0.0112
 3758ntf    fn423423   5.333   1.613   1.017  0.0452  0.4287  0.1544
 3758ntf    on523424   5.396   1.517   0.660 -0.1985 -0.5051  0.0870
 3758ntf    on523425   5.270   1.710   0.750  0.1091  0.1899  0.3931
 3758ntf    on523426   5.658   1.789   0.959 -0.4490 -0.6217  0.4004
 3758ntf    on523427   5.456   1.908   0.893 -0.2790 -0.4730  0.0445
 3758ntf    fn423428   5.576   1.912   0.604  0.0666 -0.0443  0.2933
 3758ntf    fn423429   5.702   2.014   0.757  0.0970  0.0287  0.5021
 3758ntf    fn423430   5.745   1.818   0.676  0.2664  0.0045 -0.0154
 3759ntf    cn123431   3.345   0.661   1.448  0.0274  0.2647 -0.5615
 3759ntf    sn223432   3.330   0.501   1.364  0.3946 -0.0957  0.0519
 3759ntf    nn323433   3.188   0.446   1.403  0.0649  0.5940 -0.1551
 3759ntf    sn223434   3.067   0.398   1.315 -0.1676  0.4841  0.2257
 3759ntf    cn123435   2.957   0.540   1.345 -0.1813  0.5163  0.0214
 3759ntf    fn423436   3.315   0.666   1.577  0.4452  0.2703 -0.4623
 3759ntf    fn423437   3.469   0.707   1.438  0.3521 -0.3407  0.4740
 3759ntf    fn423438   3.265   0.750   1.391 -0.3187  0.3986  0.1182
 3759ntf    on523439   3.349   0.532   1.225 -0.9118  0.3495 -0.0435
 3759ntf    on523440   3.434   0.426   1.429  0.2304  0.3095  0.7949
 3759ntf    on523441   2.998   0.282   1.367 -0.1062  0.6023  0.5761
 3759ntf    on523442   3.085   0.390   1.173  0.2153  0.0322  0.2971
 3759ntf    fn423443   3.025   0.653   1.337  0.6126  0.1078  0.8112
 3759ntf    fn423444   2.849   0.541   1.268 -0.1417 -0.5762 -0.0666
 3759ntf    fn423445   2.916   0.531   1.470 -0.2099 -0.0947 -0.0263
 3760ntf    cn123446   2.477   1.490   4.554 -0.1195 -0.0486 -0.3004
 3760ntf    sn223447   2.308   1.424   4.554  0.0016 -0.3590 -0.1361
 3760ntf    nn323448   2.228   1.527   4.641  0.3383  0.0673 -0.3276
 3760ntf    sn223449   2.112   1.503   4.744  0.0743 -0.1590 -0.6756
 3760ntf    cn123450   1.989   1.630   4.702  0.0283  0.0570  0.1008
 3760ntf    fn423451   2.570   1.415   4.497  0.2830  0.5768 -0.4772
 3760ntf    fn423452   2.478   1.603   4.485  0.4790  0.3229  0.2971
 3760ntf    fn423453   2.534   1.513   4.671 -0.5384 -0.3406 -0.0349
 3760ntf    on523454   2.277   1.443   4.415  0.2384 -0.3601 -0.1894
 3760ntf    on523455   2.335   1.291   4.603  0.8536 -0.1779 -0.0947
 3760ntf    on523456   2.156   1.535   4.878  0.7890 -0.1935 -0.9001
 3760ntf    on523457   2.051   1.373   4.729  0.6616 -0.4807 -0.3181
 3760ntf    fn423458   1.896   1.635   4.796  0.0504 -0.1402  0.1337
 3760ntf    fn423459   2.048   1.749   4.698 -0.1234  0.1391  0.2683
 3760ntf    fn423460   1.936   1.601   4.585  0.0765  0.6099 -0.0621
 3761ntf    cn123461   5.966   6.235   1.518  0.2167  0.3225  0.2584
 3761ntf    sn223462   6.035   6.073   1.564 -0.3984 -0.0329 -0.0436
 3761ntf    nn323463   5.918   5.980   1.518 -0.5743 -0.0604  0.4614
 3761ntf    sn223464   5.893   5.918   1.376 -0.1226  0.1993  0.2683
 3761ntf    cn123465   5.716   5.958   1.361 -0.0434  0.3848 -0.1882
 3761ntf    fn423466   5.924   6.242   1.393  0.6994  0.0376  0.0780
 3761ntf    fn423467   5.865   6.272   1.596  0.2699  0.1531  0.4093
 3761ntf    fn423468   6.054   6.332   1.527  0.2927  0.2408  0.4006
 3761ntf    on523469   6.162   6.061   1.495 -0.3662 -0.1663  0.0381
 3761ntf    on523470   6.027   6.080   1.707 -0.3015 -0.1142 -0.0343
 3761ntf    on523471   5.887   5.774   1.385  1.1733  0.1850  1.0572
 3761ntf    on523472   5.957   5.974   1.259  0.3226 -0.3013  0.2679
 3761ntf    fn423473   5.668   5.923   1.243 -0.1263 -0.1046 -0.0127
 3761ntf    fn423474   5.651   5.890   1.454 -0.1131  0.6961 -0.0087
 3761ntf    fn423475   5.689   6.087   1.378 -0.5763  0.3385 -0.6623
 3762ntf    cn123476   6.084   4.617   2.791 -0.4200  0.0302 -0.5894
 3762ntf    sn223477   6.108   4.767   2.891  0.0265 -0.4992  0.1028
 3762ntf    nn323478   5.962   4.823   2.902  0.1563 -0.1230 -0.0610
 3762ntf    sn223479   5.883   4.924   2.811  0.1090 -0.1365 -0.0356
 3762ntf    cn123480   5.747   4.951   2.928 -0.0340 -0.7281 -0.0622
 3762ntf    fn423481   6.193   4.546   2.771 -0.2728  0.1645 -0.2586
 3762ntf    fn423482   6.003   4.534   2.854 -0.4942  0.1514 -0.5251
 3762ntf    fn423483   6.041   4.645   2.669  0.2693  0.6026 -0.7042
 3762ntf    on523484   6.163   4.724   3.017 -0.4104 -0.1927  0.3967
 3762ntf    on523485   6.189   4.856   2.811  0.6447 -0.8667  0.3147
 3762ntf    on523486   5.818   4.875   2.692 -0.0700 -0.2477  0.1089
 3762ntf    on523487   5.933   5.059   2.805  0.0400 -0.1127 -0.0683
 3762ntf    fn423488   5.662   5.030   2.864  0.0837 -0.8259 -0.3451
 3762ntf    fn423489   5.681   4.839   2.953 -0.4725 -0.5237 -0.2914
 3762ntf    fn423490   5.786   5.022   3.032 -0.4350 -0.2617 -0.2240
 3763ntf    cn123491   5.473   7.081   2.307 -0.0760  0.0541  0.0030
 3763ntf    sn223492   5.489   7.140   2.136  0.4933 -0.0027  0.0354
 3763ntf    nn323493   5.354   7.077   2.084  0.0388  0.5146  0.5746
 3763ntf    sn223494   5.205   7.125   2.097 -0.2023 -0.0209 -0.1872
 3763ntf    cn123495   5.119   6.967   2.073 -0.3201  0.0019  0.0871
 3763ntf    fn423496   5.394   7.162   2.375 -0.2865 -0.3504  0.2460
 3763ntf    fn423497   5.422   6.959   2.313  0.1349 -0.0103  0.5010
 3763ntf    fn423498   5.585   7.069   2.375 -0.1431  0.5633  0.2067
 3763ntf    on523499   5.489   7.284   2.144 -0.5871 -0.0222  0.5574
 3763ntf    on523500   5.607   7.079   2.079  0.6384  0.2156  0.1030
 3763ntf    on523501   5.165   7.217   1.993  0.4684  0.1559 -0.2937
 3763ntf    on523502   5.166   7.162   2.230 -0.2020  0.3852 -0.2990
 3763ntf    fn423503   5.161   6.875   2.159 -0.8506 -0.1870  0.1485
 3763ntf    fn423504   4.987   6.973   2.077 -0.3290 -0.2107  0.1261
 3763ntf    fn423505   5.133   6.916   1.952  0.1430 -0.0779  0.1741
 3764ntf    cn123506   2.754   1.613   0.175  0.1235 -0.1989  0.1479
 3764ntf    sn223507   2.753   1.793   0.147 -0.2582 -0.2427 -0.1283
 3764ntf    nn323508   2.783   1.844   0.293 -0.5414  0.1148 -0.1949
 3764ntf    sn223509   2.680   1.868   0.409 -0.4351  0.2528 -0.1298
 3764ntf    cn123510   2.717   1.725   0.515  0.3634  0.4866 -0.0838
 3764ntf    fn423511   2.639   1.563   0.217 -0.1849 -0.2220 -0.7019
 3764ntf    fn423512   2.762   1.553   0.057 -0.3167  0.5200 -0.2510
 3764ntf    fn423513   2.840   1.561   0.261  0.2843  0.6990  0.5376
 3764ntf    on523514   2.861   1.820   0.055 -0.3295 -0.2002 -0.1997
 3764ntf    on523515   2.622   1.832   0.100  0.0874  0.6159 -0.3891
 3764ntf    on523516   2.539   1.860   0.379 -0.6500  0.0391  0.8895
 3764ntf    on523517   2.723   1.978   0.493 -0.8901  0.2693  0.0849
 3764ntf    fn423518   2.640   1.729   0.622  1.2179 -0.3071  0.5688
 3764ntf    fn423519   2.698   1.606   0.460 -0.2899  0.4579  0.1984
 3764ntf    fn423520   2.840   1.726   0.563  0.4750  1.0590 -0.3713
 3765ntf    cn123521   4.773   4.620   1.198 -0.1252 -0.1327  0.2509
 3765ntf    sn223522   4.694   4.473   1.270  0.1616 -0.2857  0.2553
 3765ntf    nn323523   4.684   4.374   1.149 -0.2787  0.3237 -0.2151
 3765ntf    sn223524   4.798   4.278   1.098 -0.3811  0.0375  0.0910
 3765ntf    cn123525   4.781   4.276   0.917  0.4147 -0.6094  0.0192
 3765ntf    fn423526   4.696   4.676   1.106  0.0381 -0.5768 -0.1624
 3765ntf    fn423527   4.813   4.712   1.284  0.2338  0.4714 -0.5519
 3765ntf    fn423528   4.886   4.593   1.134 -0.5611  0.0988 -0.6369
 3765ntf    on523529   4.779   4.434   1.380  0.3824 -0.4176  0.0373
 3765ntf    on523530   4.559   4.518   1.294 -0.0036 -0.6640  0.0449
 3765ntf    on523531   4.770   4.142   1.138 -0.9777  0.1000 -0.1101
 3765ntf    on523532   4.935   4.322   1.112 -0.4283 -0.0301  0.7969
 3765ntf    fn423533   4.892   4.226   0.864  0.6264 -0.1848  0.0581
 3765ntf    fn423534   4.682   4.197   0.882  0.2056 -0.3354 -0.0048
 3765ntf    fn423535   4.769   4.395   0.861 -0.1817 -0.3541  0.6673
 3766ntf    cn123536   0.839   4.183   0.080 -0.2777 -0.0045  0.2491
 3766ntf    sn223537   0.700   4.258   0.169 -0.0923  0.3707  0.2255
 3766ntf    nn323538   0.776   4.336   0.282  0.3999 -0.1657  0.2654
 3766ntf    sn223539   0.858   4.271   0.398  0.2767  0.0845  0.4938
 3766ntf    cn123540   0.720   4.231   0.510  0.0021  0.6682  0.3660
 3766ntf    fn423541   0.875   4.071   0.141  1.2245  0.3590  0.0915
 3766ntf    fn423542   0.809   4.150  -0.044  0.2845  0.0339  0.1008
 3766ntf    fn423543   0.955   4.248   0.073 -0.0394 -0.3887  0.5587
 3766ntf    on523544   0.638   4.346   0.073 -0.1535 -0.4407 -0.4894
 3766ntf    on523545   0.616   4.151   0.217  0.3425  0.0144  0.1840
 3766ntf    on523546   0.928   4.368   0.478 -0.7263  0.4621  0.9319
 3766ntf    on523547   0.929   4.150   0.365 -0.4859 -0.2368  0.0034
 3766ntf    fn423548   0.646   4.128   0.474  0.1122  0.5878  0.3666
 3766ntf    fn423549   0.765   4.197   0.630  1.0917 -0.0746 -0.2279
 3766ntf    fn423550   0.635   4.328   0.539 -0.2766  0.6145 -0.2607
 3767ntf    cn123551   7.058   5.521   0.389 -0.1649 -0.5557 -0.2137
 3767ntf    sn223552   7.238   5.544   0.397 -0.2801  0.2583  0.0984
 3767ntf    nn323553   7.272   5.412   0.473 -0.2377  0.2435  0.0532
 3767ntf    sn223554   7.289   5.397   0.628  0.2571  0.2317  0.0001
 3767ntf    cn123555   7.445   5.304   0.624  0.2013  0.1274  0.2570
 3767ntf    fn423556   6.994   5.632   0.356  0.3931 -0.1069  0.2039
 3767ntf    fn423557   7.027   5.432   0.296  0.2181 -0.5660 -0.3314
 3767ntf    fn423558   7.014   5.471   0.504  0.7511  0.1742  0.4652
 3767ntf    on523559   7.280   5.535   0.259  0.5935 -0.7516  0.4296
 3767ntf    on523560   7.260   5.674   0.457 -0.0835  0.1632  0.2325
 3767ntf    on523561   7.187   5.315   0.689  0.8065 -0.6015 -0.1876
 3767ntf    on523562   7.321   5.516   0.703  0.4684  0.2310 -0.0896
 3767ntf    fn423563   7.525   5.334   0.524 -0.0057  0.0580  0.0673
 3767ntf    fn423564   7.511   5.318   0.737  0.3586 -0.0789  0.1918
 3767ntf    fn423565   7.433   5.173   0.609 -0.2671  0.1407  0.4754
 3768ntf    cn123566   5.237   1.737   5.581  0.2306 -0.2625 -0.6039
 3768ntf    sn223567   5.090   1.781   5.484 -0.0427 -0.1185 -0.1206
 3768ntf    nn323568   5.118   1.686   5.363  0.5822 -0.2530  0.1281
 3768ntf    sn223569   5.216   1.713   5.243 -0.1092 -0.0822 -0.4006
 3768ntf    cn123570   5.362   1.617   5.292  0.0765  0.3018 -0.2027
 3768ntf    fn423571   5.271   1.611   5.559  0.1706 -0.3576 -0.1532
 3768ntf    fn423572   5.345   1.804   5.542 -0.0580  0.2971 -0.4485
 3768ntf    fn423573   5.214   1.768   5.707  0.1782 -1.0567 -0.4152
 3768ntf    on523574   4.977   1.731   5.559 -0.1463  0.0099 -0.1899
 3768ntf    on523575   5.113   1.923   5.470  0.8458 -0.2125  0.3145
 3768ntf    on523576   5.268   1.848   5.239  0.8016 -0.4109  0.0973
 3768ntf    on523577   5.164   1.655   5.122  0.3652 -0.2843 -0.5088
 3768ntf    fn423578   5.395   1.637   5.419  0.1465 -0.6364 -0.0670
 3768ntf    fn423579   5.331   1.490   5.278 -0.1117  0.3770 -0.4641
 3768ntf    fn423580   5.471   1.637   5.219  0.6122 -0.4355  0.3747
 3769ntf    cn123581   7.095   2.598   3.152  0.1454  0.0393  0.4369
 3769ntf    sn223582   7.274   2.617   3.177  0.2012 -0.3740  0.3657
 3769ntf    nn323583   7.329   2.488   3.106  0.4921 -0.2903  0.4371
 3769ntf    sn223584   7.446   2.469   3.003  0.2408 -0.1676  0.1296
 3769ntf    cn123585   7.352   2.435   2.851  0.1955  0.2445  0.0634
 3769ntf    fn423586   7.053   2.483   3.203  0.6684 -0.3130  0.0907
 3769ntf    fn423587   7.022   2.683   3.221  1.0431  0.5861  0.7276
 3769ntf    fn423588   7.051   2.610   3.028  0.4461 -0.0911  0.3159
 3769ntf    on523589   7.299   2.740   3.105  0.5740 -0.3366  0.5533
 3769ntf    on523590   7.297   2.607   3.319  0.0198  0.2446  0.4415
 3769ntf    on523591   7.517   2.349   3.038  0.4646 -0.1351 -0.2062
 3769ntf    on523592   7.518   2.586   2.961  0.2620 -0.2725 -0.1304
 3769ntf    fn423593   7.354   2.305   2.826 -0.2242  0.3147 -0.3467
 3769ntf    fn423594   7.225   2.467   2.870  0.0546  0.3368 -0.9679
 3769ntf    fn423595   7.390   2.495   2.739  0.2659 -0.4080 -0.2706
 3770ntf    cn123596   5.927   4.833   3.833  0.0476  0.3585  0.1408
 3770ntf    sn223597   6.101   4.878   3.859  0.1103  0.1344  0.1131
 3770ntf    nn323598   6.115   4.960   3.726  0.1755  0.2754  0.2065
 3770ntf    sn223599   6.125   5.115   3.706  0.2685  0.2274 -0.1225
 3770ntf    cn123600   6.267   5.122   3.592  0.3490 -0.2752 -0.0563
 3770ntf    fn423601   5.859   4.794   3.940  0.1807 -0.2848 -0.0079
 3770ntf    fn423602   5.867   4.945   3.794  0.4007  0.4310 -0.1966
 3770ntf    fn423603   5.901   4.749   3.734  0.1883 -0.3579  0.6996
 3770ntf    on523604   6.106   4.958   3.979 -0.0614  0.3209 -0.0032
 3770ntf    on523605   6.157   4.746   3.851 -0.1210  0.0212  0.3397
 3770ntf    on523606   6.175   5.184   3.822  0.4662 -0.1907  0.0422
 3770ntf    on523607   6.024   5.176   3.623 -0.2917 -0.3599  0.1263
 3770ntf    fn423608   6.313   5.244   3.567 -0.5137  0.0014 -0.3689
 3770ntf    fn423609   6.372   5.057   3.638  0.1701 -0.2828  0.3433
 3770ntf    fn423610   6.239   5.067   3.474 -0.6168  0.1041 -0.0179
 3771ntf    cn123611   4.923   4.987   3.360  0.0992  0.1787 -0.1716
 3771ntf    sn223612   4.960   5.141   3.448 -0.2693  0.2578 -0.1529
 3771ntf    nn323613   4.812   5.179   3.486 -0.4032 -0.2069 -0.2077
 3771ntf    sn223614   4.723   5.292   3.424  0.1158  0.2436 -0.1408
 3771ntf    cn123615   4.768   5.435   3.527  0.1182  0.0671  0.1024
 3771ntf    fn423616   4.833   5.008   3.265 -0.1216 -0.4628 -0.1130
 3771ntf    fn423617   5.029   4.945   3.293 -0.1673 -0.4628 -0.2038
 3771ntf    fn423618   4.873   4.885   3.429  0.5889 -0.1406 -0.2868
 3771ntf    on523619   5.037   5.104   3.564  0.3003  0.6124 -0.4132
 3771ntf    on523620   5.034   5.220   3.353  0.8266 -0.0971  0.4015
 3771ntf    on523621   4.582   5.271   3.447 -0.0259  0.7410 -0.5401
 3771ntf    on523622   4.756   5.342   3.293  0.4123  0.2497 -0.0625
 3771ntf    fn423623   4.740   5.418   3.655  0.6424 -0.3906  0.1592
 3771ntf    fn423624   4.894   5.473   3.521  0.1612  0.0472  0.8008
 3771ntf    fn423625   4.693   5.538   3.490  0.3565  0.1117 -0.2588
 3772ntf    cn123626   6.327   4.499   5.909 -0.1003 -0.3002  0.1041
 3772ntf    sn223627   6.271   4.445   5.745  0.1410  0.1488 -0.1294
 3772ntf    nn323628   6.393   4.366   5.686 -0.1664 -0.5226  0.1213
 3772ntf    sn223629   6.402   4.306   5.541  0.2118  0.0810 -0.1058
 3772ntf    cn123630   6.546   4.395   5.473  0.4288 -0.3760 -0.2459
 3772ntf    fn423631   6.438   4.570   5.900 -0.5074  0.3560  0.2141
 3772ntf    fn423632   6.232   4.571   5.966  0.0977  0.1223 -0.0961
 3772ntf    fn423633   6.355   4.398   5.989 -0.1538 -0.7752 -0.4708
 3772ntf    on523634   6.159   4.367   5.792 -0.3351  0.6326 -0.4559
 3772ntf    on523635   6.242   4.567   5.674  0.0485  0.1280 -0.1274
 3772ntf    on523636   6.288   4.343   5.461  0.0279  0.4181  0.3095
 3772ntf    on523637   6.443   4.168   5.538 -0.1507 -0.0212 -0.3603
 3772ntf    fn423638   6.531   4.526   5.487  0.2637 -0.3810 -0.3777
 3772ntf    fn423639   6.657   4.375   5.542  0.4006 -0.3826 -0.2027
 3772ntf    fn423640   6.568   4.369   5.345 -0.2549 -0.6720 -0.3065
 3773ntf    cn123641   3.895   2.851   3.465 -0.1341  0.1660 -0.1130
 3773ntf    sn223642   4.002   2.706   3.485 -0.1927  0.1331 -0.0393
 3773ntf    nn323643   3.920   2.580   3.440 -0.1797  0.0437  0.1832
 3773ntf    sn223644   3.890   2.448   3.520 -0.1382 -0.1257 -0.0778
 3773ntf    cn123645   3.737   2.498   3.604  0.1794 -0.1173  0.4996
 3773ntf    fn423646   3.958   2.962   3.501 -0.1477  0.0483  0.2844
 3773ntf    fn423647   3.855   2.868   3.340 -0.4277  0.0689 -0.0314
 3773ntf    fn423648   3.788   2.854   3.542 -0.1320  0.3230 -0.1157
 3773ntf    on523649   4.109   2.740   3.395  0.1170 -0.5765  0.0479
 3773ntf    on523650   4.034   2.704   3.626  0.7844 -0.3934 -0.2547
 3773ntf    on523651   3.984   2.410   3.622 -0.1040 -0.7483 -0.3398
 3773ntf    on523652   3.835   2.352   3.427 -0.0355 -0.3493  0.0913
 3773ntf    fn423653   3.640   2.521   3.517  0.6699 -0.5750 -0.1728
 3773ntf    fn423654   3.701   2.405   3.691 -0.3411 -0.0341  0.3797
 3773ntf    fn423655   3.747   2.604   3.683 -0.4621  0.2672  0.0744
 3774ntf    cn123656   5.730   2.451   4.659  0.0508  0.2070 -0.2283
 3774ntf    sn223657   5.730   2.472   4.839 -0.4461  0.1398 -0.2188
 3774ntf    nn323658   5.608   2.383   4.881  0.1094 -0.4719  0.1217
 3774ntf    sn223659   5.511   2.395   5.004 -0.0384  0.1266 -0.0528
 3774ntf    cn123660   5.369   2.450   4.904 -0.1576  0.2100  0.1621
 3774ntf    fn423661   5.735   2.322   4.627  0.2284  0.0650  0.3575
 3774ntf    fn423662   5.622   2.501   4.601  0.3790 -0.2706 -1.2850
 3774ntf    fn423663   5.828   2.499   4.584 -0.2064  0.2526 -0.5401
 3774ntf    on523664   5.855   2.418   4.890 -0.8521 -0.5514  0.0617
 3774ntf    on523665   5.715   2.611   4.873 -0.0709  0.2952 -0.6814
 3774ntf    on523666   5.543   2.498   5.100  0.6405  0.0387 -0.1776
 3774ntf    on523667   5.471   2.265   5.051  0.3054 -0.1119 -0.4103
 3774ntf    fn423668   5.370   2.393   4.785 -0.2247 -0.1678  0.3399
 3774ntf    fn423669   5.254   2.417   4.962  0.3147 -0.1900  0.8939
 3774ntf    fn423670   5.371   2.578   4.871 -0.3341  0.1025 -0.2642
 3775ntf    cn123671   3.253   6.079   2.893 -0.1843 -0.5319  0.7207
 3775ntf    sn223672   3.350   5.929   2.860  0.0558 -0.3088  0.4013
 3775ntf    nn323673   3.253   5.828   2.788 -0.0099 -0.2476  0.4042
 3775ntf    sn223674   3.116   5.774   2.844 -0.1365 -0.2089  0.1350
 3775ntf    cn123675   3.108   5.620   2.748  0.0446  0.0766 -0.3393
 3775ntf    fn423676   3.165   6.101   2.796  0.0859 -0.0603  0.5788
 3775ntf    fn423677   3.177   6.072   3.001 -0.4405 -0.9743  0.5154
 3775ntf    fn423678   3.329   6.186   2.909 -0.1909 -0.4512  0.2484
 3775ntf    on523679   3.448   5.975   2.765 -0.0747 -0.1921  0.3214
 3775ntf    on523680   3.379   5.885   2.994  0.3512 -0.2436  0.3580
 3775ntf    on523681   2.999   5.850   2.809  0.3494  0.3871 -0.2073
 3775ntf    on523682   3.123   5.725   2.980 -0.3821  0.9632  0.5764
 3775ntf    fn423683   2.992   5.556   2.762  0.0231  0.2487  0.3028
 3775ntf    fn423684   3.123   5.630   2.617 -0.4012 -0.4654 -0.4366
 3775ntf    fn423685   3.194   5.527   2.786 -0.2782  0.0605  0.3712
 3776ntf    cn123686   1.516   4.985   5.411  0.0715 -0.3761  0.5283
 3776ntf    sn223687   1.393   5.118   5.417  0.3045 -0.1164 -0.2469
 3776ntf    nn323688   1.417   5.155   5.568  0.0598 -0.0617 -0.2202
 3776ntf    sn223689   1.384   5.079   5.702  0.1643  0.2624 -0.0084
 3776ntf    cn123690   1.359   5.228   5.802 -0.3670  0.1290  0.0630
 3776ntf    fn423691   1.486   4.869   5.467 -0.3503 -0.0315  1.0181
 3776ntf    fn423692   1.561   4.953   5.290  0.5904 -0.2347  0.6815
 3776ntf    fn423693   1.626   5.023   5.473  0.0493  0.3039  0.1637
 3776ntf    on523694   1.428   5.221   5.323 -0.3493  0.2369 -0.1122
 3776ntf    on523695   1.274   5.040   5.392  0.5198 -0.4848 -0.1315
 3776ntf    on523696   1.497   5.015   5.763  0.1734 -0.2397 -0.5414
 3776ntf    on523697   1.257   5.011   5.711 -0.1047  0.7025 -0.3688
 3776ntf    fn423698   1.273   5.304   5.736 -0.2833  0.3502  0.2046
 3776ntf    fn423699   1.307   5.198   5.920 -0.5572 -0.5174 -0.1800
 3776ntf    fn423700   1.467   5.304   5.820 -0.1392 -0.1981  0.0797
 3777ntf    cn123701   4.960   7.162   2.956  0.3075 -0.3011 -0.1061
 3777ntf    sn223702   5.005   7.339   2.956  0.0479 -0.2344 -0.2201
 3777ntf    nn323703   5.043   7.342   3.108  0.0707  0.1072 -0.2325
 3777ntf    sn223704   5.052   7.463   3.207  0.1163 -0.0849 -0.0005
 3777ntf    cn123705   5.159   7.388   3.334  0.3200  0.2160  0.0080
 3777ntf    fn423706   4.880   7.123   2.858 -0.0765  0.4090 -0.0820
 3777ntf    fn423707   5.063   7.080   2.951  0.5472  0.0163 -0.4478
 3777ntf    fn423708   4.888   7.130   3.062  0.1470 -0.0860 -0.1479
 3777ntf    on523709   5.114   7.356   2.864 -0.1529 -0.4481 -0.5015
 3777ntf    on523710   4.875   7.396   2.930  0.0586  0.1706  0.5899
 3777ntf    on523711   4.932   7.489   3.283  0.1157  0.2360 -0.1083
 3777ntf    on523712   5.128   7.575   3.157 -0.3805  0.5573  0.6530
 3777ntf    fn423713   5.282   7.386   3.286  0.3162 -0.1283  0.0065
 3777ntf    fn423714   5.166   7.457   3.446  0.2018  0.2802 -0.0238
 3777ntf    fn423715   5.129   7.264   3.370 -0.3788  0.1967 -0.5952
 3778ntf    cn123716   2.273   6.822   2.912 -0.1758 -0.1288 -0.0680
 3778ntf    sn223717   2.422   6.897   2.984 -0.1471  0.0074 -0.2700
 3778ntf    nn323718   2.365   6.973   3.109  0.2544  0.2466 -0.2290
 3778ntf    sn223719   2.431   7.094   3.183 -0.5965  0.5421  0.0619
 3778ntf    cn123720   2.283   7.194   3.215 -0.5226  0.5938  0.2431
 3778ntf    fn423721   2.196   6.772   3.008 -0.2717  0.0505 -0.0515
 3778ntf    fn423722   2.201   6.912   2.848 -0.2404 -0.4085 -0.3967
 3778ntf    fn423723   2.302   6.719   2.833  0.5334  0.0221 -0.0116
 3778ntf    on523724   2.506   6.787   3.024 -0.0842  0.2810  0.3637
 3778ntf    on523725   2.465   6.980   2.874 -0.1193  0.4718  0.0898
 3778ntf    on523726   2.525   7.172   3.106 -0.3292  0.6142  0.4610
 3778ntf    on523727   2.484   7.055   3.311  0.8534  0.7351 -0.4531
 3778ntf    fn423728   2.283   7.300   3.135  0.2687  0.6439  0.3042
 3778ntf    fn423729   2.178   7.118   3.186 -0.1504  0.0343  0.3618
 3778ntf    fn423730   2.262   7.247   3.335  0.4174  0.2403  0.5703
 3779ntf    cn123731   4.697   6.660   5.221 -0.0262 -0.1418  0.8212
 3779ntf    sn223732   4.666   6.835   5.261 -0.1395  0.0337 -0.0193
 3779ntf    nn323733   4.753   6.830   5.392 -0.3584  0.1379  0.1315
 3779ntf    sn223734   4.845   6.935   5.464  0.1154  0.0089 -0.2781
 3779ntf    cn123735   5.017   6.881   5.440  0.0038 -0.4518 -0.0572
 3779ntf    fn423736   4.685   6.580   5.326 -0.6351 -0.4499  0.5194
 3779ntf    fn423737   4.606   6.615   5.137  0.4650  0.3084  0.0312
 3779ntf    fn423738   4.822   6.648   5.179 -0.3941 -0.2656 -0.2622
 3779ntf    on523739   4.712   6.906   5.145  0.1740  0.3091  0.2705
 3779ntf    on523740   4.524   6.829   5.287 -0.0496 -0.2755  0.4115
 3779ntf    on523741   4.832   6.941   5.608  0.4785  0.1140 -0.2508
 3779ntf    on523742   4.838   7.061   5.395 -0.0453  0.3167  0.2887
 3779ntf    fn423743   5.043   6.815   5.329  0.4969 -0.1594 -0.1136
 3779ntf    fn423744   5.108   6.974   5.461 -0.3456 -0.1643  0.1884
 3779ntf    fn423745   5.040   6.794   5.538 -0.1491 -0.1241  0.2738
 3780ntf    cn123746   4.582   3.914   4.856 -0.0737  0.5087 -0.0393
 3780ntf    sn223747   4.751   3.848   4.840 -0.3565 -0.2836  0.1605
 3780ntf    nn323748   4.805   3.948   4.949 -0.6178 -0.0301  0.0593
 3780ntf    sn223749   4.883   3.929   5.085 -0.3643  0.2016 -0.0532
 3780ntf    cn123750   5.050   3.982   5.036 -0.2479 -0.0250  0.1004
 3780ntf    fn423751   4.528   3.881   4.972 -0.1831  0.3189 -0.1438
 3780ntf    fn423752   4.579   4.046   4.850 -0.4926  0.5020  0.0212
 3780ntf    fn423753   4.495   3.879   4.763  0.4762  0.1082 -0.4136
 3780ntf    on523754   4.737   3.709   4.873 -0.6696 -0.2877  0.0084
 3780ntf    on523755   4.789   3.884   4.706 -0.0424  0.3115  0.3988
 3780ntf    on523756   4.897   3.792   5.125 -0.5189  0.1547 -0.1573
 3780ntf    on523757   4.836   4.027   5.180  0.3158  0.5110 -0.0277
 3780ntf    fn423758   5.039   4.093   4.965  0.0122 -0.1587 -0.1509
 3780ntf    fn423759   5.139   4.014   5.129 -0.5601 -0.1427  0.4437
 3780ntf    fn423760   5.111   3.901   4.951 -0.0612  0.4770 -0.2497
   7.19954   7.19954   7.19954
