Converted from moscito
32400
    1SOL     ow    1   4.229   1.667   2.817  0.0066 -0.5826 -0.5103
    1SOL     hw    2   4.219   1.622   2.901  0.8923  0.6189  0.2750
    1SOL     hw    3   4.160   1.734   2.817  0.7470  0.2006 -0.1860
    1SOL     vw    4   4.219   1.670   2.828  0.2215 -0.3208 -0.3639
    2SOL     ow    5   1.807   6.131   1.905  0.4264 -0.2514  0.4242
    2SOL     hw    6   1.843   6.058   1.855  0.6815 -0.6941  1.2254
    2SOL     hw    7   1.857   6.208   1.876 -0.8780 -0.0970 -1.5397
    2SOL     vw    8   1.819   6.132   1.895  0.2880 -0.2894  0.2708
    3SOL     ow    9   4.409   7.284   3.252  0.3900 -0.4200  0.0301
    3SOL     hw   10   4.475   7.353   3.255  0.7041 -0.6752 -0.6509
    3SOL     hw   11   4.327   7.328   3.234  0.3041 -0.0565  1.2524
    3SOL     vw   12   4.407   7.299   3.250  0.4203 -0.4055  0.1014
    4SOL     ow   13   6.198   3.086   5.932 -0.0386  0.0638  0.3926
    4SOL     hw   14   6.194   3.071   5.838 -0.2277 -1.2333  0.5834
    4SOL     hw   15   6.271   3.146   5.944 -0.9229  1.4209 -0.6869
    4SOL     vw   16   6.207   3.092   5.921 -0.1802  0.0719  0.2751
    5SOL     ow   17   3.884   1.741   7.056  0.3774 -0.7519 -0.2760
    5SOL     hw   18   3.956   1.736   6.993 -0.4792  1.3929 -1.5668
    5SOL     hw   19   3.805   1.737   7.001 -0.4282 -0.6675  0.8545
    5SOL     vw   20   3.883   1.740   7.040  0.1582 -0.4578 -0.2971
    6SOL     ow   21   5.848   6.741   3.728 -0.6036 -0.6631 -0.2305
    6SOL     hw   22   5.838   6.799   3.804  0.2882  1.8117 -1.8605
    6SOL     hw   23   5.930   6.694   3.744 -1.0173 -1.0543  0.8410
    6SOL     vw   24   5.857   6.743   3.740 -0.5405 -0.3881 -0.3042
    7SOL     ow   25   5.972   5.567   0.409  0.0494  0.7495  0.3997
    7SOL     hw   26   5.948   5.575   0.316 -1.7393 -0.8343  0.6523
    7SOL     hw   27   5.888   5.557   0.454  0.9681 -0.5235  1.9450
    7SOL     vw   28   5.958   5.567   0.403 -0.0656  0.3726  0.6369
    8SOL     ow   29   7.484   6.793   3.997 -0.7190 -0.2055  0.3925
    8SOL     hw   30   7.477   6.796   4.092 -0.3049 -1.8643  0.5101
    8SOL     hw   31   7.395   6.775   3.967 -0.9566  0.8610  0.4011
    8SOL     vw   32   7.471   6.791   4.006 -0.6957 -0.2837  0.4091
    9SOL     ow   33   3.928   7.152   7.513 -0.5443  0.5316 -0.3084
    9SOL     hw   34   3.955   7.227   7.459  0.1666  0.0463 -0.6431
    9SOL     hw   35   3.978   7.161   7.594  0.7865 -0.4357 -0.9772
    9SOL     vw   36   3.938   7.163   7.516 -0.2749  0.3400 -0.4411
   10SOL     ow   37   6.969   0.792   0.138 -0.8495 -0.3847 -0.3524
   10SOL     hw   38   6.919   0.720   0.175  0.7439 -1.5568 -0.3927
   10SOL     hw   39   7.043   0.750   0.094 -1.3143  1.0819 -2.7543
   10SOL     vw   40   6.972   0.777   0.137 -0.7005 -0.3458 -0.6746
   11SOL     ow   41   1.096   0.062   6.527 -0.2041  0.0761 -0.1811
   11SOL     hw   42   1.032  -0.009   6.522 -0.1121 -0.2076  1.9050
   11SOL     hw   43   1.061   0.121   6.594  1.1703  0.4638  0.2302
   11SOL     vw   44   1.083   0.060   6.535 -0.0107  0.0898  0.1485
   12SOL     ow   45   2.013   1.478   0.670 -1.0751  0.2706  0.1862
   12SOL     hw   46   2.030   1.534   0.746 -1.3611 -0.8316  1.0780
   12SOL     hw   47   2.047   1.528   0.596 -0.5356  1.2448  1.0638
   12SOL     vw   48   2.019   1.492   0.670 -1.0417  0.2537  0.4196
   13SOL     ow   49   6.321   5.740   2.892 -0.7005 -0.1089  0.5438
   13SOL     hw   50   6.346   5.708   2.978 -2.3117  1.2293  1.5816
   13SOL     hw   51   6.228   5.719   2.885  0.0006 -3.1031 -2.2848
   13SOL     vw   52   6.312   5.733   2.902 -0.8209 -0.3276  0.3077
   14SOL     ow   53   0.199   2.846   3.737 -1.0760  0.3298 -0.5338
   14SOL     hw   54   0.134   2.790   3.694  1.5460 -1.7300 -2.1355
   14SOL     hw   55   0.264   2.863   3.669  1.1344  0.5057  1.5095
   14SOL     vw   56   0.199   2.841   3.722 -0.4384  0.0813 -0.4755
   15SOL     ow   57   3.564   6.986   7.575 -0.4978 -0.7358  1.1274
   15SOL     hw   58   3.476   6.962   7.546 -0.6548  2.2811 -1.3001
   15SOL     hw   59   3.558   7.077   7.602  1.9322 -0.3861  0.7550
   15SOL     vw   60   3.552   6.995   7.575 -0.1980 -0.2913  0.7579
   16SOL     ow   61   2.038   5.516   3.354 -0.1885  0.2209 -0.4603
   16SOL     hw   62   2.043   5.508   3.449 -1.6108 -2.6875 -0.5092
   16SOL     hw   63   2.118   5.474   3.322 -1.4948 -2.4440 -0.5072
   16SOL     vw   64   2.049   5.510   3.362 -0.5485 -0.5143 -0.4729
   17SOL     ow   65   7.252   2.951   5.387  0.6850 -0.1639  0.1148
   17SOL     hw   66   7.157   2.956   5.394  0.7050 -1.3211  1.7312
   17SOL     hw   67   7.276   2.875   5.439  2.2161 -2.2650 -3.2987
   17SOL     vw   68   7.243   2.942   5.394  0.8895 -0.5938 -0.1225
   18SOL     ow   69   5.887   1.958   5.181  0.2150  0.0464  0.3011
   18SOL     hw   70   5.929   2.036   5.217 -2.1293  0.8757  1.4053
   18SOL     hw   71   5.890   1.894   5.252 -0.0108 -0.0331  0.2413
   18SOL     vw   72   5.893   1.960   5.195 -0.1242  0.1453  0.4387
   19SOL     ow   73   3.834   5.493   1.732  0.0813 -0.0454  0.0010
   19SOL     hw   74   3.761   5.524   1.677 -1.2791  0.2166  1.8272
   19SOL     hw   75   3.793   5.433   1.795  1.6318 -0.6653  0.4722
   19SOL     vw   76   3.819   5.489   1.733  0.1063 -0.0927  0.3040
   20SOL     ow   77   4.834   5.105   4.227  0.3936 -0.0800  0.2038
   20SOL     hw   78   4.746   5.075   4.204  0.2584  0.1088  0.4696
   20SOL     hw   79   4.881   5.107   4.143  1.0220 -2.9397  0.3572
   20SOL     vw   80   4.829   5.101   4.213  0.4585 -0.4327  0.2592
   21SOL     ow   81   3.885   5.957   2.875 -0.4375  0.2477  0.2126
   21SOL     hw   82   3.841   6.027   2.924 -1.1527  0.1324 -0.2549
   21SOL     hw   83   3.952   5.924   2.936 -0.5474  0.8804  0.6844
   21SOL     vw   84   3.888   5.962   2.890 -0.5463  0.3157  0.2133
   22SOL     ow   85   7.555   7.461   3.093  0.1845  0.4269 -0.0422
   22SOL     hw   86   7.562   7.557   3.099 -0.8276  0.6429 -1.7680
   22SOL     hw   87   7.484   7.439   3.153 -1.4680  1.1113 -1.6537
   22SOL     vw   88   7.547   7.471   3.102 -0.1671  0.5455 -0.4826
   23SOL     ow   89   1.510   3.563   4.681 -0.7033 -1.1965 -0.4592
   23SOL     hw   90   1.426   3.540   4.643 -1.6687 -0.4289  1.1303
   23SOL     hw   91   1.504   3.535   4.772  0.4914 -0.4659 -0.1301
   23SOL     vw   92   1.498   3.556   4.688 -0.6732 -0.9990 -0.2062
   24SOL     ow   93   0.802   3.740   2.862 -0.1355  0.1530  0.1781
   24SOL     hw   94   0.708   3.722   2.857 -0.1617  0.1438  0.6559
   24SOL     hw   95   0.808   3.819   2.916  0.2786 -1.2777  2.3145
   24SOL     vw   96   0.791   3.748   2.868 -0.0843 -0.0370  0.5230
   25SOL     ow   97   6.838   6.290   6.004  0.0563 -0.1075 -0.2200
   25SOL     hw   98   6.746   6.280   6.030 -0.0779  2.0994  0.3097
   25SOL     hw   99   6.835   6.316   5.912  0.2214 -1.0312 -0.4976
   25SOL     vw  100   6.826   6.292   5.996  0.0603  0.0618 -0.1864
   26SOL     ow  101   6.730   1.452   2.645 -0.0693 -0.2062 -0.3840
   26SOL     hw  102   6.724   1.357   2.635 -1.0536 -0.2059  0.1070
   26SOL     hw  103   6.653   1.486   2.599 -1.0925  0.1867  1.5139
   26SOL     vw  104   6.719   1.444   2.637 -0.3343 -0.1543 -0.0687
   27SOL     ow  105   4.195   2.532   2.111  0.0916 -0.1017  0.9459
   27SOL     hw  106   4.237   2.600   2.058  1.2993 -0.5681  1.2647
   27SOL     hw  107   4.195   2.568   2.200 -3.1863  1.2816  0.5340
   27SOL     vw  108   4.200   2.546   2.116 -0.1817  0.0193  0.9335
   28SOL     ow  109   2.959   0.498   5.845 -0.6030  0.3980  1.0334
   28SOL     hw  110   2.939   0.409   5.871  0.2850 -0.4371 -0.9629
   28SOL     hw  111   3.050   0.495   5.813 -1.6751  1.1374 -2.5025
   28SOL     vw  112   2.969   0.486   5.844 -0.6274  0.3854  0.3033
   29SOL     ow  113   4.439   3.773   7.611 -0.4925 -0.1148  0.3836
   29SOL     hw  114   4.488   3.829   7.671 -0.2832  0.4190 -0.2648
   29SOL     hw  115   4.377   3.833   7.569  1.1935  0.1164 -1.9248
   29SOL     vw  116   4.437   3.789   7.613 -0.2422 -0.0138 -0.0062
   30SOL     ow  117   6.955   1.502   0.553  0.6795  0.2136  1.0240
   30SOL     hw  118   6.989   1.418   0.585  0.3995 -0.5065 -0.5016
   30SOL     hw  119   7.034   1.553   0.532  0.8754 -0.5329 -0.1656
   30SOL     vw  120   6.970   1.498   0.554  0.6685  0.0201  0.6658
   31SOL     ow  121   1.810   4.793   1.681  0.2770  0.0844  0.3087
   31SOL     hw  122   1.790   4.869   1.626  1.4967  0.0406 -0.2308
   31SOL     hw  123   1.728   4.774   1.727 -0.1658  1.4574  0.1323
   31SOL     vw  124   1.796   4.801   1.680  0.3795  0.2596  0.2142
   32SOL     ow  125   0.154   5.343   2.579 -0.2382  0.0303 -0.1952
   32SOL     hw  126   0.197   5.423   2.609  0.1395  0.3159 -1.4487
   32SOL     hw  127   0.105   5.369   2.501 -0.7945 -0.7850 -0.1380
   32SOL     vw  128   0.153   5.357   2.573 -0.2618 -0.0393 -0.3531
   33SOL     ow  129   0.887   4.722   1.620  0.4525  0.0995 -0.2802
   33SOL     hw  130   0.971   4.723   1.667 -0.2036 -0.4883  0.9616
   33SOL     hw  131   0.846   4.806   1.642  0.2754 -0.0494 -0.0334
   33SOL     vw  132   0.893   4.733   1.629  0.3426  0.0021 -0.0838
   34SOL     ow  133   4.486   0.269   4.720 -0.1853 -0.5948  0.4816
   34SOL     hw  134   4.443   0.352   4.704 -1.7931 -1.6869 -1.2402
   34SOL     hw  135   4.503   0.268   4.814  0.1232  1.7494  0.4965
   34SOL     vw  136   4.483   0.280   4.730 -0.3567 -0.4296  0.2563
   35SOL     ow  137   1.773   3.754   4.556  0.4872  0.9239  0.2803
   35SOL     hw  138   1.782   3.819   4.487 -3.4837  1.5840  0.1781
   35SOL     hw  139   1.852   3.765   4.609  2.0723  2.6739 -2.2263
   35SOL     vw  140   1.785   3.764   4.554  0.1724  1.2419 -0.0639
   36SOL     ow  141   1.183   0.082   0.099  0.6310  0.6334 -0.2812
   36SOL     hw  142   1.092   0.099   0.076  0.3403  1.8610  1.5412
   36SOL     hw  143   1.187  -0.012   0.114 -0.6914  0.7283  0.8883
   36SOL     vw  144   1.172   0.072   0.098  0.4181  0.8079  0.1135
   37SOL     ow  145   4.205   5.279   3.809  0.1003 -0.0883 -0.3620
   37SOL     hw  146   4.280   5.324   3.770 -0.1955 -1.0056 -2.0741
   37SOL     hw  147   4.243   5.215   3.869  0.5338  2.1004  1.8357
   37SOL     vw  148   4.220   5.277   3.812  0.1183  0.0794 -0.2979
   38SOL     ow  149   5.952   7.343   1.481  0.0792 -0.3190 -0.3624
   38SOL     hw  150   5.955   7.304   1.394  0.1899  0.0677 -0.5327
   38SOL     hw  151   5.962   7.268   1.541 -2.1695 -0.8676 -0.6120
   38SOL     vw  152   5.954   7.328   1.478 -0.2029 -0.3402 -0.4178
   39SOL     ow  153   0.003   2.213   3.666  0.6186 -0.2874  0.7519
   39SOL     hw  154   0.021   2.290   3.612  2.1425 -1.1988 -0.1079
   39SOL     hw  155  -0.029   2.248   3.749 -0.2609  1.2023 -0.1810
   39SOL     vw  156   0.001   2.228   3.670  0.7036 -0.2111  0.5153
   40SOL     ow  157   2.993   5.283   3.812  0.8119  0.5474 -0.1070
   40SOL     hw  158   2.946   5.319   3.737  0.8190  0.5971 -0.0877
   40SOL     hw  159   3.085   5.294   3.790  0.8340 -0.5277 -0.6246
   40SOL     vw  160   2.999   5.290   3.799  0.8157  0.4120 -0.1727
   41SOL     ow  161   3.827   2.999   4.168  0.2140 -0.1967  0.1027
   41SOL     hw  162   3.825   3.093   4.186  1.6152 -0.2311  0.5997
   41SOL     hw  163   3.794   2.959   4.249  3.1303 -0.2176  1.4116
   41SOL     vw  164   3.822   3.006   4.181  0.7837 -0.2040  0.3407
   42SOL     ow  165   6.552   3.173   6.645  0.2274 -0.4424 -0.2847
   42SOL     hw  166   6.618   3.134   6.588  1.7542  0.3011  0.9151
   42SOL     hw  167   6.540   3.110   6.715  0.3610 -0.1607 -0.0067
   42SOL     vw  168   6.559   3.160   6.647  0.4466 -0.3071 -0.0896
   43SOL     ow  169   2.988   4.348   3.717  0.3513 -0.4195 -0.2515
   43SOL     hw  170   3.059   4.321   3.658  1.9105  0.6695  1.0270
   43SOL     hw  171   2.968   4.269   3.767  0.4216 -0.8222 -0.8353
   43SOL     vw  172   2.995   4.334   3.716  0.5664 -0.3288 -0.1600
   44SOL     ow  173   2.875   2.615   7.169  0.1016 -0.1867 -0.2777
   44SOL     hw  174   2.788   2.585   7.195  0.2142  0.2249  0.5995
   44SOL     hw  175   2.886   2.699   7.213  0.7238  0.0369 -0.8375
   44SOL     vw  176   2.865   2.622   7.178  0.1985 -0.1030 -0.2360
   45SOL     ow  177   5.005   7.091   1.287  0.0530 -0.3060 -0.2318
   45SOL     hw  178   5.070   7.032   1.247  0.6262  0.4398 -0.4338
   45SOL     hw  179   4.990   7.055   1.374 -0.4237 -1.3610 -0.7275
   45SOL     vw  180   5.012   7.078   1.293  0.0653 -0.3467 -0.3239
   46SOL     ow  181   5.436   5.788   0.688  0.0343 -0.6275 -0.4386
   46SOL     hw  182   5.345   5.769   0.663 -0.7215  2.0824  0.0185
   46SOL     hw  183   5.455   5.872   0.647  2.0027 -0.6428  0.3617
   46SOL     vw  184   5.427   5.796   0.679  0.1943 -0.2720 -0.2727
   47SOL     ow  185   1.628   6.074   0.844 -0.0644 -0.2078 -0.5749
   47SOL     hw  186   1.624   6.018   0.921  1.6484 -1.2595 -1.1882
   47SOL     hw  187   1.537   6.097   0.826 -0.5287 -0.1528  1.5664
   47SOL     vw  188   1.615   6.070   0.852  0.1004 -0.3395 -0.3733
   48SOL     ow  189   6.190   2.778   5.201  0.1382 -0.0530  0.1703
   48SOL     hw  190   6.223   2.859   5.241 -1.4036  1.8465 -2.1279
   48SOL     hw  191   6.197   2.794   5.107 -0.4695 -2.5463 -0.3530
   48SOL     vw  192   6.195   2.791   5.194 -0.1454 -0.1312 -0.2017
   49SOL     ow  193   6.124   0.320   3.322 -0.1493  0.0609  0.3321
   49SOL     hw  194   6.180   0.243   3.337  0.6654  0.9135  1.8287
   49SOL     hw  195   6.076   0.299   3.242  1.2628 -1.3101 -0.1982
   49SOL     vw  196   6.125   0.307   3.313  0.1442 -0.0075  0.4596
   50SOL     ow  197   0.935   7.526   6.023  0.2741  0.4327 -0.2422
   50SOL     hw  198   0.941   7.549   5.931  0.5030  1.9403  0.1308
   50SOL     hw  199   0.933   7.430   6.024 -1.5866  0.3853 -1.9277
   50SOL     vw  200   0.935   7.516   6.011  0.0588  0.6254 -0.4153
   51SOL     ow  201   0.057   5.094   7.070  0.5849  0.2691 -0.3514
   51SOL     hw  202  -0.004   5.112   6.997 -1.1212  1.5401  1.3031
   51SOL     hw  203   0.007   5.037   7.129  1.3126  0.6456  0.6507
   51SOL     vw  204   0.042   5.089   7.068  0.4559  0.4861 -0.0010
   52SOL     ow  205   0.374   4.880   2.142  0.2192  0.1451 -0.6883
   52SOL     hw  206   0.450   4.910   2.193 -0.8840  2.5358 -0.2958
   52SOL     hw  207   0.360   4.950   2.078 -0.0885 -1.5183 -2.5362
   52SOL     vw  208   0.382   4.894   2.140  0.0331  0.2413 -0.8801
   53SOL     ow  209   6.795   7.265   4.981  0.1610 -0.0925  0.7375
   53SOL     hw  210   6.790   7.218   4.898 -0.6878  0.8290  0.2480
   53SOL     hw  211   6.881   7.242   5.016 -0.1484 -1.8420  0.4409
   53SOL     vw  212   6.806   7.256   4.975  0.0083 -0.2017  0.6337
   54SOL     ow  213   4.619   3.580   2.951 -0.8090  0.0903  0.4515
   54SOL     hw  214   4.645   3.519   3.020 -1.6537 -0.7024  0.0920
   54SOL     hw  215   4.656   3.664   2.978 -1.7189 -0.0251  2.2430
   54SOL     vw  216   4.628   3.583   2.964 -1.0402 -0.0296  0.6404
   55SOL     ow  217   6.351   1.011   4.968  0.4962 -0.8281  0.0655
   55SOL     hw  218   6.387   0.923   4.970 -0.7356 -1.5893 -3.3048
   55SOL     hw  219   6.258   1.000   4.990  0.2545 -0.4620 -0.7224
   55SOL     vw  220   6.343   0.998   4.971  0.3014 -0.8802 -0.4830
   56SOL     ow  221   1.310   6.634   4.559  0.6949  0.0305 -0.1879
   56SOL     hw  222   1.405   6.648   4.553  0.6651  1.2962  1.4421
   56SOL     hw  223   1.272   6.711   4.517  0.4326  0.2608  0.4450
   56SOL     vw  224   1.318   6.646   4.553  0.6564  0.2277  0.1109
   57SOL     ow  225   2.567   7.509   4.408 -0.3716  0.1082  0.2810
   57SOL     hw  226   2.577   7.427   4.360 -2.1526  0.3720 -0.6497
   57SOL     hw  227   2.543   7.481   4.497 -0.6483 -0.3960  0.0551
   57SOL     vw  228   2.565   7.494   4.414 -0.6430  0.0765  0.1283
   58SOL     ow  229   5.672   4.796   5.659  0.1763  0.5749 -0.0490
   58SOL     hw  230   5.731   4.792   5.584  0.4441  1.0422  0.1326
   58SOL     hw  231   5.723   4.839   5.727 -0.2604  0.6784  0.2164
   58SOL     vw  232   5.686   4.801   5.658  0.1538  0.6504  0.0100
   59SOL     ow  233   2.320   5.974   5.652 -0.0551 -0.1392  0.7338
   59SOL     hw  234   2.286   6.008   5.735  1.6001 -0.2912  1.5263
   59SOL     hw  235   2.243   5.940   5.607 -0.8647 -1.3606  2.8474
   59SOL     vw  236   2.306   5.974   5.657  0.0564 -0.3207  1.1172
   60SOL     ow  237   4.137   6.189   5.619  0.0400  0.0403  0.5863
   60SOL     hw  238   4.210   6.227   5.668  1.7179 -0.1802 -1.5685
   60SOL     hw  239   4.131   6.099   5.651 -0.2380  0.4692  1.7773
   60SOL     vw  240   4.146   6.182   5.629  0.2246  0.0677  0.4592
   61SOL     ow  241   5.958   2.434   4.560 -0.0849 -0.1910 -0.4120
   61SOL     hw  242   5.972   2.382   4.640  1.6672  1.0917  0.1768
   61SOL     hw  243   5.866   2.458   4.563 -0.1613 -0.5402  1.0044
   61SOL     vw  244   5.948   2.430   4.571  0.1364 -0.0678 -0.1476
   62SOL     ow  245   3.170   4.331   4.288 -0.0392  0.4024 -0.8375
   62SOL     hw  246   3.130   4.384   4.219 -1.0117  2.1704  1.0010
   62SOL     hw  247   3.097   4.291   4.334  0.6348 -1.4842 -1.2977
   62SOL     vw  248   3.155   4.333   4.285 -0.0787  0.3865 -0.6557
   63SOL     ow  249   6.898   1.784   3.550 -0.1312  0.0254 -0.8054
   63SOL     hw  250   6.818   1.752   3.592  1.3102 -2.0832  0.5620
   63SOL     hw  251   6.968   1.733   3.591  1.7865  0.7053 -3.0267
   63SOL     vw  252   6.897   1.773   3.561  0.3121 -0.1631 -0.9180
   64SOL     ow  253   0.662   3.360   6.492 -0.1161 -0.6090  0.0105
   64SOL     hw  254   0.719   3.300   6.445  0.7679  0.5684 -0.4792
   64SOL     hw  255   0.683   3.345   6.585 -1.2351 -2.3126  0.0318
   64SOL     vw  256   0.672   3.350   6.498 -0.1470 -0.6784 -0.0513
   65SOL     ow  257   7.266   3.888   4.984  0.4940  0.5037  0.1037
   65SOL     hw  258   7.285   3.909   5.076  0.7181 -0.2820  0.2476
   65SOL     hw  259   7.330   3.820   4.962 -2.3029 -2.5714  0.7265
   65SOL     vw  260   7.277   3.882   4.993  0.1547 -0.0058  0.2046
   66SOL     ow  261   6.433   4.002   1.511  0.0469 -0.0167 -0.0356
   66SOL     hw  262   6.353   3.962   1.478 -0.3024 -0.0703  0.8260
   66SOL     hw  263   6.480   4.032   1.434 -0.2791 -0.9718 -0.6200
   66SOL     vw  264   6.429   4.001   1.497 -0.0420 -0.1500  0.0009
   67SOL     ow  265   0.994   4.426   0.632  0.4561  0.2353  0.1239
   67SOL     hw  266   1.047   4.505   0.638 -0.4612  0.9843 -0.9774
   67SOL     hw  267   0.915   4.455   0.586  1.0027 -1.7476 -2.2533
   67SOL     vw  268   0.990   4.441   0.627  0.4072  0.0727 -0.3350
   68SOL     ow  269   2.011   3.942   3.378  0.7524  0.3903 -0.1622
   68SOL     hw  270   2.072   3.988   3.434  0.9162  0.2607 -0.2315
   68SOL     hw  271   2.061   3.923   3.299  0.6977  0.0676 -0.1208
   68SOL     vw  272   2.025   3.945   3.375  0.7666  0.3306 -0.1659
   69SOL     ow  273   0.899   3.616   4.395 -0.5239  0.4238 -0.0483
   69SOL     hw  274   0.809   3.610   4.426 -0.6545 -2.6706 -0.7381
   69SOL     hw  275   0.892   3.615   4.299  0.2275 -0.0723 -0.1109
   69SOL     vw  276   0.886   3.615   4.386 -0.4420 -0.0499 -0.1476
   70SOL     ow  277   4.543   2.779   6.127 -0.2931 -0.6289 -0.5841
   70SOL     hw  278   4.615   2.724   6.157  0.1297  0.6451  0.8511
   70SOL     hw  279   4.541   2.767   6.032 -1.1751 -4.2122 -0.2559
   70SOL     vw  280   4.552   2.771   6.119 -0.3536 -0.9336 -0.3514
   71SOL     ow  281   1.237   5.776   4.550  0.0942 -0.1219  0.6095
   71SOL     hw  282   1.142   5.785   4.554 -0.1893 -2.3727  0.3419
   71SOL     hw  283   1.251   5.688   4.515  2.2562 -0.4645  2.1526
   71SOL     vw  284   1.226   5.766   4.546  0.3422 -0.4644  0.7777
   72SOL     ow  285   6.857   5.020   7.295 -0.3432 -0.1913 -0.9878
   72SOL     hw  286   6.813   4.938   7.275 -0.4183 -0.1266 -1.0917
   72SOL     hw  287   6.785   5.083   7.309 -0.3489 -0.5363  0.8630
   72SOL     vw  288   6.842   5.018   7.294 -0.3541 -0.2282 -0.7572
   73SOL     ow  289   2.514   4.213   1.184  0.5620  0.9516 -0.0205
   73SOL     hw  290   2.445   4.154   1.214 -0.8993  1.8919 -1.3412
   73SOL     hw  291   2.582   4.155   1.149  0.4306  0.0064  1.2092
   73SOL     vw  292   2.514   4.198   1.184  0.3518  0.9508 -0.0325
   74SOL     ow  293   3.163   5.766   2.227  0.1630  0.2553 -0.3603
   74SOL     hw  294   3.237   5.767   2.288 -0.0744  0.7170 -0.0808
   74SOL     hw  295   3.088   5.741   2.280  0.4877 -2.5185 -1.0795
   74SOL     vw  296   3.163   5.763   2.242  0.1745 -0.0498 -0.4183
   75SOL     ow  297   5.269   1.732   2.051 -0.0087  0.0062 -0.8587
   75SOL     hw  298   5.302   1.815   2.015  1.6089 -0.2718 -0.0814
   75SOL     hw  299   5.297   1.666   1.988  2.4928 -0.4332  0.5806
   75SOL     vw  300   5.277   1.734   2.038  0.5348 -0.0885 -0.5664
   76SOL     ow  301   0.115   3.014   0.629 -0.2689 -0.0904  0.3181
   76SOL     hw  302   0.199   3.053   0.603 -0.2543  0.0179  0.5245
   76SOL     hw  303   0.080   3.075   0.693  0.0691 -0.7534  1.1534
   76SOL     vw  304   0.122   3.028   0.634 -0.2223 -0.1636  0.4556
   77SOL     ow  305   5.612   5.398   1.282 -0.2795  0.4282 -0.1159
   77SOL     hw  306   5.643   5.368   1.197  1.0853  1.6012 -0.0692
   77SOL     hw  307   5.610   5.494   1.274 -3.3773  0.4788  0.0998
   77SOL     vw  308   5.616   5.407   1.270 -0.5081  0.5896 -0.0814
   78SOL     ow  309   7.541   1.251   4.209 -0.2866 -0.6838  0.6322
   78SOL     hw  310   7.499   1.335   4.222 -1.3322 -1.1875  0.5979
   78SOL     hw  311   7.517   1.200   4.286 -0.7572 -1.3833  0.0332
   78SOL     vw  312   7.532   1.255   4.221 -0.4869 -0.8426  0.5486
   79SOL     ow  313   6.226   6.764   6.172  0.3216 -0.3234 -0.1926
   79SOL     hw  314   6.259   6.854   6.164 -0.9983  0.2732  0.7199
   79SOL     hw  315   6.218   6.750   6.267 -1.6272 -0.5657 -0.3617
   79SOL     vw  316   6.229   6.774   6.184 -0.1094 -0.2766 -0.0947
   80SOL     ow  317   5.562   4.054   1.940  0.3939  0.0034  0.1573
   80SOL     hw  318   5.535   3.986   2.001  0.6707  1.1346  1.5928
   80SOL     hw  319   5.607   4.007   1.870  0.1292 -1.3286  0.8494
   80SOL     vw  320   5.565   4.039   1.939  0.3955 -0.0231  0.4380
   81SOL     ow  321   1.453   2.373   3.665 -0.7413  0.0105  0.0710
   81SOL     hw  322   1.544   2.372   3.695 -0.5667  0.0273 -0.4579
   81SOL     hw  323   1.458   2.358   3.571 -1.1694  1.7541 -0.2503
   81SOL     vw  324   1.466   2.371   3.657 -0.7747  0.2428 -0.0411
   82SOL     ow  325   5.980   6.099   3.512 -0.2704 -0.2639 -0.4581
   82SOL     hw  326   6.062   6.100   3.562  0.0724 -0.7861 -0.9857
   82SOL     hw  327   5.927   6.032   3.555 -0.3618 -0.0377 -0.2138
   82SOL     vw  328   5.984   6.090   3.524 -0.2372 -0.3028 -0.4954
   83SOL     ow  329   1.160   1.089   1.323 -0.7057 -0.0894 -0.3065
   83SOL     hw  330   1.251   1.110   1.302 -0.8996 -1.5165 -3.0397
   83SOL     hw  331   1.114   1.172   1.314 -0.0871  0.1239 -1.9004
   83SOL     vw  332   1.166   1.103   1.319 -0.6496 -0.2495 -0.8774
   84SOL     ow  333   6.753   6.097   3.176  0.0373 -0.2467  0.3981
   84SOL     hw  334   6.783   6.125   3.090  0.3062 -1.0492  0.2227
   84SOL     hw  335   6.733   6.004   3.166 -1.2313 -0.0518  0.8565
   84SOL     vw  336   6.754   6.088   3.164 -0.0944 -0.3269  0.4355
   85SOL     ow  337   1.911   1.394   6.350 -0.1379 -0.2693  0.0066
   85SOL     hw  338   1.998   1.366   6.320  0.8981 -0.1745  2.6711
   85SOL     hw  339   1.926   1.479   6.390 -1.7853  0.4295 -0.7703
   85SOL     vw  340   1.925   1.402   6.351 -0.2186 -0.1646  0.2558
   86SOL     ow  341   6.025   2.316   4.266 -1.0168 -0.4036 -0.3306
   86SOL     hw  342   6.058   2.240   4.219 -1.3037 -1.9337  1.8085
   86SOL     hw  343   5.940   2.335   4.226 -0.5387 -0.6061 -1.4753
   86SOL     vw  344   6.018   2.308   4.255 -0.9918 -0.6323 -0.1993
   87SOL     ow  345   2.725   6.764   2.848  0.0884 -0.1361  0.0419
   87SOL     hw  346   2.648   6.806   2.885 -0.8096 -1.1687 -0.5864
   87SOL     hw  347   2.780   6.836   2.817 -1.9684  0.6071 -2.1629
   87SOL     vw  348   2.722   6.779   2.849 -0.3015 -0.1740 -0.3319
   88SOL     ow  349   5.884   4.193   6.302  0.4694  0.2751 -0.3906
   88SOL     hw  350   5.813   4.233   6.352  0.7336  0.8391 -0.4511
   88SOL     hw  351   5.906   4.259   6.235 -0.7068 -0.9585 -2.0538
   88SOL     vw  352   5.878   4.207   6.299  0.3490  0.1869 -0.6180
   89SOL     ow  353   3.422   0.763   2.043 -0.1208 -0.1544  0.1327
   89SOL     hw  354   3.432   0.831   2.110  0.9842 -0.0299 -0.1408
   89SOL     hw  355   3.421   0.812   1.960  1.9905 -0.5203 -0.1613
   89SOL     vw  356   3.423   0.779   2.041  0.3036 -0.1863  0.0579
   90SOL     ow  357   6.533   7.605   3.871  0.0420 -0.2618 -0.1490
   90SOL     hw  358   6.557   7.697   3.871  1.0481 -0.5115 -0.9081
   90SOL     hw  359   6.545   7.576   3.781 -0.9993 -0.9660 -0.0933
   90SOL     vw  360   6.537   7.613   3.859  0.0374 -0.3877 -0.2418
   91SOL     ow  361   1.299   7.569   0.895 -0.2766 -0.2349  0.5663
   91SOL     hw  362   1.230   7.512   0.859  0.5886 -1.3451  0.6362
   91SOL     hw  363   1.321   7.628   0.823 -1.0945 -0.0498  0.4538
   91SOL     vw  364   1.293   7.569   0.881 -0.2704 -0.3569  0.5607
   92SOL     ow  365   3.451   6.224   0.633  0.7398  0.6237  0.3135
   92SOL     hw  366   3.411   6.248   0.717  0.3875  0.4473  0.2006
   92SOL     hw  367   3.456   6.129   0.636  0.9600  0.6330  0.2373
   92SOL     vw  368   3.446   6.215   0.644  0.7224  0.6018  0.2885
   93SOL     ow  369   4.402   5.735   7.111  0.3814  0.3070 -0.6504
   93SOL     hw  370   4.446   5.818   7.131  0.2891  0.0264  0.7600
   93SOL     hw  371   4.473   5.671   7.108  0.3583  0.2925 -0.9900
   93SOL     vw  372   4.417   5.738   7.113  0.3662  0.2682 -0.5090
   94SOL     ow  373   3.378   5.255   2.600 -0.2499  0.0505 -0.7044
   94SOL     hw  374   3.389   5.172   2.555 -2.2146 -0.1285 -0.9261
   94SOL     hw  375   3.313   5.302   2.548 -1.1069  0.6485  0.8493
   94SOL     vw  376   3.371   5.251   2.587 -0.6222  0.1059 -0.5287
   95SOL     ow  377   5.044   0.142   6.442  0.3722 -0.3087 -0.2482
   95SOL     hw  378   4.953   0.171   6.440  0.5803  0.3548 -1.5553
   95SOL     hw  379   5.039   0.050   6.416 -0.1644 -1.1808  2.6258
   95SOL     vw  380   5.031   0.133   6.438  0.3288 -0.3362 -0.0412
   96SOL     ow  381   6.049   7.483   5.357  0.0257  0.1810 -0.2395
   96SOL     hw  382   6.144   7.494   5.357 -0.0706  1.0628  0.0549
   96SOL     hw  383   6.023   7.493   5.449 -0.1379 -2.1905  0.0351
   96SOL     vw  384   6.058   7.485   5.369 -0.0086 -0.0157 -0.1645
   97SOL     ow  385   1.822   7.607   4.823  0.7236 -0.2881  0.0813
   97SOL     hw  386   1.804   7.516   4.846 -0.8414 -0.0534 -0.0886
   97SOL     hw  387   1.777   7.659   4.890  2.5841  0.3851  0.8631
   97SOL     vw  388   1.813   7.602   4.835  0.7626 -0.1683  0.1621
   98SOL     ow  389   0.486   0.817   2.214 -0.2243  0.0026  0.1099
   98SOL     hw  390   0.474   0.817   2.309 -1.8666  0.0041 -0.0700
   98SOL     hw  391   0.398   0.828   2.179  0.4081  0.4270 -1.4192
   98SOL     vw  392   0.473   0.819   2.222 -0.3576  0.0587 -0.1155
   99SOL     ow  393   1.184   1.687   3.536 -0.1103 -0.4250  0.6386
   99SOL     hw  394   1.183   1.780   3.513  1.9126 -0.5538 -0.1930
   99SOL     hw  395   1.100   1.654   3.505 -0.5242  0.9662  0.1983
   99SOL     vw  396   1.173   1.695   3.529  0.1019 -0.2584  0.4709
  100SOL     ow  397   4.591   6.939   7.497  0.4691 -0.6447  0.3171
  100SOL     hw  398   4.592   7.025   7.456 -0.8977 -2.0599 -3.0984
  100SOL     hw  399   4.683   6.916   7.508  0.9327 -0.1541 -2.1130
  100SOL     vw  400   4.603   6.947   7.493  0.3498 -0.7665 -0.4537
  101SOL     ow  401   5.297   6.950   7.085  0.4086  0.1481 -0.0270
  101SOL     hw  402   5.208   6.968   7.114 -0.2597 -0.2668 -1.7250
  101SOL     hw  403   5.290   6.936   6.991  1.8918 -2.1687  0.1042
  101SOL     vw  404   5.284   6.950   7.077  0.5162 -0.2124 -0.2339
  102SOL     ow  405   7.634   6.935   2.926  0.1512 -0.8912 -0.2632
  102SOL     hw  406   7.727   6.950   2.944  0.0305 -2.0253  1.5726
  102SOL     hw  407   7.594   6.924   3.012 -1.3688 -2.1250 -1.0603
  102SOL     vw  408   7.641   6.935   2.939 -0.0653 -1.2038 -0.1264
  103SOL     ow  409   7.140   0.231   6.192 -0.1037  0.2436 -0.9877
  103SOL     hw  410   7.054   0.250   6.155 -1.1242 -0.1427  1.0566
  103SOL     hw  411   7.191   0.311   6.178 -1.5363  1.3185 -0.2439
  103SOL     vw  412   7.136   0.244   6.185 -0.4275  0.3344 -0.6196
  104SOL     ow  413   0.935   4.463   6.304  0.2673 -0.0870  0.0663
  104SOL     hw  414   0.969   4.384   6.263  3.3208  1.2852 -0.2954
  104SOL     hw  415   0.983   4.470   6.386 -2.5781 -0.4249  1.9104
  104SOL     vw  416   0.946   4.453   6.309  0.2948  0.0496  0.2620
  105SOL     ow  417   5.483   7.110   4.967 -0.5921  0.0525  0.0474
  105SOL     hw  418   5.577   7.093   4.963 -0.1627  1.8243  1.4548
  105SOL     hw  419   5.475   7.192   5.015 -2.9567 -0.8604  1.4066
  105SOL     vw  420   5.494   7.119   4.972 -0.8473  0.1662  0.4125
  106SOL     ow  421   2.730   0.714   5.353  0.1275 -0.3848  0.1117
  106SOL     hw  422   2.671   0.763   5.410 -0.7983 -0.5855 -0.6534
  106SOL     hw  423   2.680   0.637   5.327 -0.4944  0.9273 -2.9991
  106SOL     vw  424   2.716   0.710   5.357 -0.0767 -0.2382 -0.3998
  107SOL     ow  425   4.136   3.291   0.617 -0.3195  0.4517 -0.5691
  107SOL     hw  426   4.203   3.349   0.652 -1.0413  2.1561 -1.8760
  107SOL     hw  427   4.173   3.203   0.626  1.3074  1.1870  0.3601
  107SOL     vw  428   4.150   3.287   0.623 -0.2000  0.7735 -0.6189
  108SOL     ow  429   1.864   2.724   4.468 -0.7655  0.4724 -0.0655
  108SOL     hw  430   1.794   2.709   4.532  0.0619  0.5541  0.8754
  108SOL     hw  431   1.885   2.817   4.476  1.9180 -0.1845  2.3276
  108SOL     vw  432   1.858   2.734   4.477 -0.3023  0.3964  0.3743
  109SOL     ow  433   2.542   0.862   5.141 -0.0199  0.1412 -0.3264
  109SOL     hw  434   2.576   0.781   5.103 -1.4764 -0.4541 -0.3995
  109SOL     hw  435   2.582   0.865   5.228  0.4710 -0.3740 -0.5258
  109SOL     vw  436   2.552   0.852   5.148 -0.1472 -0.0053 -0.3622
  110SOL     ow  437   4.406   3.557   0.147  0.5781  0.5212 -0.0973
  110SOL     hw  438   4.468   3.611   0.197  0.5957 -0.4510  0.9742
  110SOL     hw  439   4.377   3.614   0.076  1.4071  1.5741  0.3740
  110SOL     vw  440   4.410   3.572   0.145  0.6897  0.5319  0.1063
  111SOL     ow  441   5.391   3.145   0.923  0.5372 -0.0153 -0.0769
  111SOL     hw  442   5.433   3.222   0.962  0.5028  0.2337 -0.5278
  111SOL     hw  443   5.389   3.081   0.994  1.6122 -0.0060 -0.0219
  111SOL     vw  444   5.397   3.147   0.938  0.6747  0.0188 -0.1291
  112SOL     ow  445   1.387   4.731   1.611  0.0971  0.0868  0.0172
  112SOL     hw  446   1.369   4.669   1.541  2.4071 -1.2532  0.5196
  112SOL     hw  447   1.358   4.816   1.576 -1.5863 -0.9806 -1.3229
  112SOL     vw  448   1.381   4.734   1.597  0.1798 -0.2308 -0.0933
  113SOL     ow  449   0.417   3.416   6.656  0.4681  0.7237 -0.1323
  113SOL     hw  450   0.390   3.492   6.706  0.2300  1.3009 -1.1006
  113SOL     hw  451   0.356   3.347   6.682  1.9693  0.2046  2.3227
  113SOL     vw  452   0.406   3.417   6.666  0.6348  0.7312  0.0639
  114SOL     ow  453   5.042   1.531   2.186 -0.2530 -0.0050  0.3459
  114SOL     hw  454   5.043   1.615   2.142 -3.4229 -0.0741 -0.1325
  114SOL     hw  455   5.000   1.471   2.124 -0.7213 -1.2124  1.7450
  114SOL     vw  456   5.037   1.534   2.172 -0.7329 -0.1734  0.4672
  115SOL     ow  457   5.419   6.417   3.542 -0.8268  0.0718  0.1875
  115SOL     hw  458   5.328   6.402   3.516 -0.8914 -0.6445  0.7953
  115SOL     hw  459   5.467   6.345   3.502 -0.4248  0.7689 -0.6179
  115SOL     vw  460   5.413   6.405   3.533 -0.7825  0.0691  0.1615
  116SOL     ow  461   2.136   1.443   5.229  0.3335 -0.6972 -0.2512
  116SOL     hw  462   2.148   1.354   5.197  0.4469 -0.6144 -0.4406
  116SOL     hw  463   2.224   1.474   5.250  0.3435 -0.4822 -0.5886
  116SOL     vw  464   2.149   1.435   5.227  0.3498 -0.6579 -0.3209
  117SOL     ow  465   3.701   4.204   6.414  1.0715  0.3833 -0.6544
  117SOL     hw  466   3.743   4.267   6.473 -1.3288  2.8304 -1.3930
  117SOL     hw  467   3.666   4.257   6.342 -1.2303 -1.7495 -1.2457
  117SOL     vw  468   3.702   4.219   6.412  0.4511  0.4246 -0.8299
  118SOL     ow  469   6.212   6.662   4.541 -0.4755 -0.3484 -0.6430
  118SOL     hw  470   6.125   6.646   4.578  0.5661 -2.9028  0.9815
  118SOL     hw  471   6.237   6.748   4.573 -2.1756  0.2097 -0.7168
  118SOL     vw  472   6.204   6.671   4.550 -0.5624 -0.6118 -0.4382
  119SOL     ow  473   5.577   3.409   3.802  0.3552 -0.3927  0.3216
  119SOL     hw  474   5.648   3.412   3.738 -0.4083 -1.9998 -0.6620
  119SOL     hw  475   5.523   3.335   3.775 -1.1083  0.1131  1.6761
  119SOL     vw  476   5.579   3.400   3.790  0.0618 -0.5380  0.3705
  120SOL     ow  477   2.536   0.682   6.017 -0.6329  0.1904 -0.0278
  120SOL     hw  478   2.445   0.677   5.987 -1.5477 -0.2910  2.5335
  120SOL     hw  479   2.530   0.669   6.112  2.0135  1.3142  0.3712
  120SOL     vw  480   2.523   0.680   6.026 -0.4045  0.2751  0.3626
  121SOL     ow  481   6.482   2.255   0.518 -0.0547 -0.3427 -0.4188
  121SOL     hw  482   6.444   2.340   0.542  1.3879  0.3086 -0.3066
  121SOL     hw  483   6.461   2.244   0.425 -0.3232  0.1011 -0.4127
  121SOL     vw  484   6.474   2.265   0.509  0.1001 -0.1981 -0.4033
  122SOL     ow  485   0.026   0.620   1.417 -0.5791 -0.2774 -0.1857
  122SOL     hw  486   0.046   0.613   1.324  0.3133 -1.2578  0.0742
  122SOL     hw  487  -0.069   0.632   1.420 -0.7936 -1.5815 -1.1654
  122SOL     vw  488   0.016   0.621   1.405 -0.4895 -0.5787 -0.2806
  123SOL     ow  489   5.991   5.809   4.183 -0.5619  0.3710 -0.2550
  123SOL     hw  490   6.085   5.824   4.190 -0.7242  1.3287  0.1405
  123SOL     hw  491   5.976   5.791   4.091  0.0517 -0.1552 -0.2574
  123SOL     vw  492   6.001   5.809   4.172 -0.5021  0.4277 -0.2029
  124SOL     ow  493   1.894   6.168   5.055 -0.3537 -0.0219 -0.0781
  124SOL     hw  494   1.806   6.133   5.065 -0.8506  0.9959 -0.7844
  124SOL     hw  495   1.884   6.263   5.062  0.9346  0.0497  1.5589
  124SOL     vw  496   1.881   6.176   5.058 -0.2492  0.1214  0.0451
  125SOL     ow  497   5.850   4.541   5.219 -0.2619  0.7725 -0.3857
  125SOL     hw  498   5.827   4.459   5.264 -1.6203  1.4762  0.2491
  125SOL     hw  499   5.942   4.529   5.194  1.1732  0.8835  3.9334
  125SOL     vw  500   5.859   4.529   5.222 -0.2518  0.8800  0.2675
  126SOL     ow  501   6.239   6.360   1.889 -0.3594 -0.1007 -0.1440
  126SOL     hw  502   6.156   6.322   1.916 -2.2655  1.5633 -3.1144
  126SOL     hw  503   6.218   6.412   1.812  3.4608  0.4978 -0.9957
  126SOL     vw  504   6.226   6.362   1.883 -0.1068  0.1976 -0.6483
  127SOL     ow  505   2.614   4.285   6.080 -0.7785  0.1089  0.3096
  127SOL     hw  506   2.698   4.240   6.089 -1.2492 -0.6744  0.8691
  127SOL     hw  507   2.556   4.220   6.040 -1.3818  0.3189  0.8228
  127SOL     vw  508   2.617   4.271   6.076 -0.9202  0.0331  0.4511
  128SOL     ow  509   4.873   4.258   5.799 -0.0394 -0.6569 -0.3488
  128SOL     hw  510   4.853   4.271   5.892  0.5901 -0.8451 -0.1751
  128SOL     hw  511   4.796   4.213   5.764 -0.2361 -0.6918  0.1128
  128SOL     vw  512   4.860   4.254   5.807  0.0176 -0.6864 -0.2651
  129SOL     ow  513   5.585   6.338   5.828  0.5670  0.0731  0.3301
  129SOL     hw  514   5.633   6.400   5.773  1.0788  2.2727  3.0495
  129SOL     hw  515   5.651   6.275   5.857  0.7024  0.0570 -0.0065
  129SOL     vw  516   5.600   6.338   5.824  0.6523  0.3614  0.6444
  130SOL     ow  517   0.425   5.165   1.016  1.2220 -0.3004 -0.8163
  130SOL     hw  518   0.473   5.242   0.985 -0.0722  0.3241 -1.3479
  130SOL     hw  519   0.451   5.095   0.956  4.6423 -1.1374  1.3430
  130SOL     vw  520   0.435   5.166   1.004  1.5025 -0.3283 -0.6015
  131SOL     ow  521   3.635   1.307   0.321  0.3187 -0.1173 -0.6206
  131SOL     hw  522   3.655   1.343   0.408  1.3906 -1.6657 -0.1821
  131SOL     hw  523   3.681   1.364   0.260 -0.0219  0.6863 -0.1425
  131SOL     vw  524   3.644   1.319   0.325  0.4152 -0.2156 -0.4997
  132SOL     ow  525   1.499   2.066   3.017 -0.1773  0.0439  0.0500
  132SOL     hw  526   1.495   2.041   2.925 -2.0042 -1.0253  0.3617
  132SOL     hw  527   1.564   2.136   3.021  0.1093 -0.0664 -2.0024
  132SOL     vw  528   1.507   2.072   3.006 -0.3805 -0.1118 -0.1798
  133SOL     ow  529   7.052   7.579   0.194  0.2734  0.3265 -0.6757
  133SOL     hw  530   7.145   7.563   0.211  0.2169 -0.1956 -0.8219
  133SOL     hw  531   7.042   7.674   0.202  1.1055  0.5616 -2.0256
  133SOL     vw  532   7.063   7.589   0.197  0.3757  0.2887 -0.8731
  134SOL     ow  533   2.363   0.032   0.434  0.5632  0.0404  1.2511
  134SOL     hw  534   2.330  -0.007   0.353 -1.3136  2.7940  0.5483
  134SOL     hw  535   2.291   0.021   0.497  0.7618  0.6594  1.5925
  134SOL     vw  536   2.349   0.025   0.432  0.3417  0.4853  1.2034
  135SOL     ow  537   1.905   3.199   4.058  0.5617 -0.0600 -0.5002
  135SOL     hw  538   1.895   3.279   4.110 -0.0929  0.2628 -1.1036
  135SOL     hw  539   1.855   3.133   4.105 -0.1101  0.2563 -0.7563
  135SOL     vw  540   1.897   3.201   4.071  0.3867  0.0244 -0.6137
  136SOL     ow  541   0.588   3.794   6.716 -0.3803  0.0234  0.2020
  136SOL     hw  542   0.607   3.812   6.808  2.8049 -0.0003 -0.3262
  136SOL     hw  543   0.502   3.752   6.717 -0.5356  0.1834  3.1199
  136SOL     vw  544   0.579   3.791   6.728  0.0195  0.0415  0.5176
  137SOL     ow  545   3.066   0.567   3.613  0.0590  0.0128  0.1008
  137SOL     hw  546   3.082   0.473   3.610 -1.3445 -0.5141  3.7950
  137SOL     hw  547   2.976   0.578   3.581 -0.4450 -0.2220  1.3622
  137SOL     vw  548   3.056   0.556   3.608 -0.1928 -0.0877  0.7546
  138SOL     ow  549   1.504   5.487   4.595  0.2881 -0.1669 -1.0338
  138SOL     hw  550   1.516   5.579   4.571  1.2419  0.1163  0.3827
  138SOL     hw  551   1.592   5.450   4.590  0.0822 -0.7271 -0.5728
  138SOL     vw  552   1.518   5.495   4.591  0.3868 -0.2036 -0.7861
  139SOL     ow  553   0.654   2.230   0.123 -0.3360 -0.2290 -0.2669
  139SOL     hw  554   0.561   2.233   0.142  0.1064 -2.6534  3.3900
  139SOL     hw  555   0.662   2.171   0.048 -1.6860 -2.1562  1.0315
  139SOL     vw  556   0.643   2.223   0.116 -0.4558 -0.8031  0.3869
  140SOL     ow  557   6.394   2.284   0.062 -0.3181 -0.1693 -0.4067
  140SOL     hw  558   6.313   2.323   0.029 -1.2667  0.3388  2.2546
  140SOL     hw  559   6.456   2.357   0.062 -0.8974  0.3626  0.6890
  140SOL     vw  560   6.391   2.299   0.058 -0.5200 -0.0322  0.0890
  141SOL     ow  561   3.072   0.477   5.457 -0.0604 -0.4418 -0.7103
  141SOL     hw  562   3.092   0.390   5.424 -1.1854 -0.4277 -1.4905
  141SOL     hw  563   2.982   0.471   5.488  0.3815  0.0200  0.7859
  141SOL     vw  564   3.063   0.465   5.457 -0.1504 -0.3790 -0.6158
  142SOL     ow  565   7.628   4.770   6.622 -0.2804 -0.4871  0.6191
  142SOL     hw  566   7.536   4.786   6.604 -0.1144 -0.6019 -0.4138
  142SOL     hw  567   7.673   4.847   6.587  0.0404 -0.5612  0.8602
  142SOL     vw  568   7.622   4.782   6.615 -0.2161 -0.5121  0.5145
  143SOL     ow  569   7.074   4.592   3.177  0.1114  0.2361 -0.8258
  143SOL     hw  570   7.005   4.658   3.187  2.0329  2.0812  1.4251
  143SOL     hw  571   7.064   4.534   3.252  0.4673 -0.0184 -0.9691
  143SOL     vw  572   7.064   4.593   3.188  0.4117  0.4458 -0.5478
  144SOL     ow  573   0.644   1.016   5.190  0.6544 -0.2523  0.1536
  144SOL     hw  574   0.589   1.072   5.245 -0.4136 -0.5684 -0.5528
  144SOL     hw  575   0.602   1.019   5.104  3.3151  1.6995 -1.1989
  144SOL     vw  576   0.631   1.024   5.186  0.8645 -0.0364 -0.1183
  145SOL     ow  577   6.994   6.040   1.851 -0.2125 -0.1841 -0.6982
  145SOL     hw  578   7.024   6.110   1.793 -3.4543  1.0221 -1.0991
  145SOL     hw  579   6.901   6.030   1.831 -0.2995 -3.3941  0.6468
  145SOL     vw  580   6.986   6.048   1.840 -0.6516 -0.4485 -0.5737
  146SOL     ow  581   1.513   7.132   2.568 -0.3339  0.2490 -0.0580
  146SOL     hw  582   1.552   7.218   2.587  0.2287 -0.5116  2.6262
  146SOL     hw  583   1.587   7.071   2.572 -1.1595 -0.7220  1.1854
  146SOL     vw  584   1.528   7.136   2.571 -0.3685  0.0207  0.4601
  147SOL     ow  585   2.068   1.196   0.713 -0.7916  0.0274  1.1310
  147SOL     hw  586   1.975   1.189   0.692 -1.2946 -1.8652  3.5232
  147SOL     hw  587   2.112   1.141   0.648 -1.4050  0.4171  0.3747
  147SOL     vw  588   2.061   1.188   0.702 -0.9390 -0.1709  1.3468
  148SOL     ow  589   6.464   1.170   1.208 -0.1475 -0.3320 -0.7031
  148SOL     hw  590   6.536   1.113   1.183  0.3740 -1.3602  2.5715
  148SOL     hw  591   6.386   1.116   1.199  0.1231 -0.9558  0.5148
  148SOL     vw  592   6.463   1.156   1.204 -0.0432 -0.5500 -0.1104
  149SOL     ow  593   6.037   1.502   0.061 -0.7402 -0.0001 -0.2302
  149SOL     hw  594   6.017   1.523   0.152  1.3124  0.1353  0.2523
  149SOL     hw  595   6.028   1.406   0.056 -0.9267 -0.0006  0.1010
  149SOL     vw  596   6.034   1.492   0.072 -0.4938  0.0176 -0.1229
  150SOL     ow  597   0.996   4.384   0.921 -0.0695  0.1395 -0.1518
  150SOL     hw  598   0.987   4.368   0.827 -1.1211  3.7826 -0.8377
  150SOL     hw  599   1.090   4.401   0.933  0.4103 -2.2397 -0.0756
  150SOL     vw  600   1.007   4.384   0.910 -0.1450  0.3064 -0.2323
  151SOL     ow  601   2.258   1.166   4.906  0.0457 -0.3714 -0.6856
  151SOL     hw  602   2.173   1.182   4.947  1.2295 -0.5040  2.0288
  151SOL     hw  603   2.265   1.233   4.839 -1.2290  1.1999  0.6647
  151SOL     vw  604   2.248   1.177   4.903  0.0339 -0.1816 -0.1493
  152SOL     ow  605   2.368   4.625   4.333 -0.1577  0.1225  0.5075
  152SOL     hw  606   2.390   4.533   4.349 -1.6314 -0.8487 -2.3945
  152SOL     hw  607   2.388   4.669   4.416  2.5931 -2.3861  1.3373
  152SOL     vw  608   2.374   4.618   4.346  0.0110 -0.3369  0.2341
  153SOL     ow  609   0.294   3.763   4.855 -0.1356 -0.2137 -0.2244
  153SOL     hw  610   0.287   3.731   4.765  0.4641 -0.3793 -0.2151
  153SOL     hw  611   0.344   3.844   4.848 -0.3952 -0.0413 -0.0798
  153SOL     vw  612   0.299   3.769   4.842 -0.0908 -0.2127 -0.2041
  154SOL     ow  613   6.148   7.112   2.913  0.7706  0.1985  0.4233
  154SOL     hw  614   6.136   7.020   2.938 -1.2929 -0.4463 -2.4485
  154SOL     hw  615   6.108   7.162   2.984  0.0760 -1.2118  1.0535
  154SOL     vw  616   6.141   7.106   2.926  0.4067 -0.0727  0.1276
  155SOL     ow  617   5.215   7.477   0.574 -0.3902 -0.1717  0.0244
  155SOL     hw  618   5.125   7.454   0.550 -0.3190  0.7706 -1.2463
  155SOL     hw  619   5.264   7.396   0.563 -0.6147 -0.1047 -1.9125
  155SOL     vw  620   5.209   7.463   0.569 -0.4106 -0.0386 -0.3988
  156SOL     ow  621   5.224   1.696   3.113 -0.2637 -0.2410 -0.3041
  156SOL     hw  622   5.255   1.651   3.192 -3.1133  0.1968  1.2004
  156SOL     hw  623   5.302   1.735   3.076  1.1680 -0.0995  2.5687
  156SOL     vw  624   5.238   1.695   3.119 -0.4506 -0.1646  0.2735
  157SOL     ow  625   0.245   2.438   6.983 -0.2824  0.3322  0.8397
  157SOL     hw  626   0.224   2.411   6.893  0.8967 -1.6180  1.0946
  157SOL     hw  627   0.266   2.357   7.028 -1.7600  1.1445  3.1958
  157SOL     vw  628   0.245   2.424   6.977 -0.3218  0.1820  1.1842
  158SOL     ow  629   0.069   5.176   6.554  0.3756 -0.0364  0.1626
  158SOL     hw  630  -0.023   5.155   6.536  0.8240 -0.9083 -1.3330
  158SOL     hw  631   0.066   5.234   6.630 -1.2577 -1.8198  1.5622
  158SOL     vw  632   0.056   5.181   6.562  0.2193 -0.3870  0.1497
  159SOL     ow  633   0.108   6.501   1.900  0.4080 -0.2964  0.2087
  159SOL     hw  634   0.023   6.544   1.911 -0.9452 -2.8837  0.7860
  159SOL     hw  635   0.130   6.470   1.988  0.4427 -2.1807 -0.4106
  159SOL     vw  636   0.100   6.502   1.913  0.2341 -0.8864  0.2031
  160SOL     ow  637   0.336   1.118   7.227  0.1831  0.2276  1.0192
  160SOL     hw  638   0.244   1.124   7.254  0.1625  0.8578  0.8309
  160SOL     hw  639   0.365   1.033   7.258  0.0899  0.8095  2.8046
  160SOL     vw  640   0.328   1.108   7.235  0.1681  0.3875  1.2300
  161SOL     ow  641   0.235   4.270   3.662 -0.3826  0.1298 -0.0225
  161SOL     hw  642   0.245   4.238   3.572 -0.6927  0.1296 -0.0555
  161SOL     hw  643   0.142   4.262   3.681 -0.3757  0.4849  0.1686
  161SOL     vw  644   0.224   4.265   3.653 -0.4226  0.1767 -0.0018
  162SOL     ow  645   4.507   2.473   4.764  0.2058 -0.5648 -0.4896
  162SOL     hw  646   4.458   2.429   4.694  1.2488 -2.1215 -0.2868
  162SOL     hw  647   4.516   2.407   4.832  0.7474  0.3709  0.3748
  162SOL     vw  648   4.502   2.458   4.764  0.4148 -0.6468 -0.3488
  163SOL     ow  649   6.222   2.171   3.394  0.3409 -0.4127  0.0354
  163SOL     hw  650   6.207   2.078   3.377  0.0304 -0.5069  0.8193
  163SOL     hw  651   6.215   2.180   3.489  0.0096  0.4705 -0.0656
  163SOL     vw  652   6.219   2.160   3.404  0.2563 -0.3086  0.1256
  164SOL     ow  653   1.158   2.219   0.861 -0.8925 -0.7022 -0.6164
  164SOL     hw  654   1.237   2.189   0.816 -1.5225 -2.3931 -0.6726
  164SOL     hw  655   1.187   2.241   0.950 -0.0990  0.2479 -1.0893
  164SOL     vw  656   1.172   2.218   0.867 -0.8709 -0.7999 -0.6862
  165SOL     ow  657   7.537   7.035   0.617 -0.4683  0.0477 -0.0441
  165SOL     hw  658   7.588   6.955   0.629 -0.0346  0.7036  3.6670
  165SOL     hw  659   7.600   7.099   0.585  0.4817  0.1358  1.8630
  165SOL     vw  660   7.552   7.033   0.615 -0.2856  0.1459  0.6971
  166SOL     ow  661   7.171   4.600   2.489 -0.1993 -0.1473 -0.4256
  166SOL     hw  662   7.113   4.585   2.414  0.0992  1.5138 -1.0418
  166SOL     hw  663   7.188   4.695   2.487  1.1471 -0.3330  0.7609
  166SOL     vw  664   7.165   4.611   2.479  0.0179  0.0474 -0.3505
  167SOL     ow  665   3.932   2.346   3.145  0.1375 -0.2584  0.4882
  167SOL     hw  666   3.888   2.362   3.229 -1.2030  0.8372 -0.3859
  167SOL     hw  667   4.012   2.399   3.150 -0.7730  1.1933  0.4436
  167SOL     vw  668   3.936   2.355   3.157 -0.1594  0.0778  0.3670
  168SOL     ow  669   6.498   4.957   6.496  0.4289 -0.2241  0.1497
  168SOL     hw  670   6.437   4.985   6.428 -1.1385 -5.1085 -0.8923
  168SOL     hw  671   6.442   4.930   6.569  1.1789 -3.8936 -0.4444
  168SOL     vw  672   6.482   4.957   6.497  0.3209 -1.3525 -0.0663
  169SOL     ow  673   3.030   5.725   0.157  0.3886  0.1979 -0.0297
  169SOL     hw  674   2.957   5.740   0.217 -0.8617  0.7835 -1.6459
  169SOL     hw  675   3.054   5.633   0.172 -1.7583 -0.5163 -0.5739
  169SOL     vw  676   3.024   5.715   0.167 -0.0596  0.1810 -0.3148
  170SOL     ow  677   6.886   0.215   4.794 -0.2696 -0.0400  0.3960
  170SOL     hw  678   6.951   0.201   4.725 -0.5113  0.4957  0.0517
  170SOL     hw  679   6.838   0.132   4.799  1.3460 -0.9613  1.6435
  170SOL     vw  680   6.888   0.202   4.785 -0.0882 -0.0909  0.5157
  171SOL     ow  681   4.288   6.418   2.543 -0.3733 -0.6356  0.4268
  171SOL     hw  682   4.212   6.465   2.578  1.4148  2.8071  0.1447
  171SOL     hw  683   4.361   6.444   2.600  1.1049 -1.5093 -0.9757
  171SOL     vw  684   4.288   6.428   2.555  0.0579 -0.2968  0.2047
  172SOL     ow  685   4.313   5.557   1.471 -0.1922  0.3907 -0.0199
  172SOL     hw  686   4.399   5.546   1.512  0.7253 -0.9888 -2.1199
  172SOL     hw  687   4.281   5.640   1.505  1.3697  0.3190  1.8401
  172SOL     vw  688   4.320   5.566   1.481  0.1349  0.1993 -0.0516
  173SOL     ow  689   2.971   1.392   4.164 -0.5376 -0.0329 -0.1682
  173SOL     hw  690   2.903   1.358   4.105 -0.8646  2.0916 -1.1104
  173SOL     hw  691   3.007   1.314   4.207 -1.3155 -1.5291 -2.0808
  173SOL     vw  692   2.967   1.377   4.162 -0.6834  0.0499 -0.5448
  174SOL     ow  693   0.213   7.617   4.591 -0.1491 -0.4635 -0.2075
  174SOL     hw  694   0.254   7.612   4.505  0.8820 -0.0133  0.2346
  174SOL     hw  695   0.124   7.586   4.578  0.3999 -1.6995 -1.1701
  174SOL     vw  696   0.207   7.612   4.578  0.0594 -0.5670 -0.2761
  175SOL     ow  697   0.839   5.547   3.101 -0.7622  0.5661 -0.4401
  175SOL     hw  698   0.855   5.582   3.013  0.4541  0.1258 -0.4174
  175SOL     hw  699   0.925   5.520   3.132 -1.5144 -1.8789 -0.2193
  175SOL     vw  700   0.852   5.548   3.093 -0.7010  0.1855 -0.4079
  176SOL     ow  701   1.546   3.185   0.494 -0.6986 -0.3125 -0.0878
  176SOL     hw  702   1.546   3.120   0.423  1.7817 -0.4064 -0.0945
  176SOL     hw  703   1.575   3.137   0.571  0.0483  0.5228  0.1690
  176SOL     vw  704   1.550   3.170   0.495 -0.2729 -0.2146 -0.0548
  177SOL     ow  705   5.844   4.218   1.700 -0.5042 -0.2116  0.2360
  177SOL     hw  706   5.863   4.245   1.610 -0.9817 -1.1146 -0.1486
  177SOL     hw  707   5.885   4.132   1.709 -2.1432 -1.0268  0.2175
  177SOL     vw  708   5.852   4.210   1.689 -0.7834 -0.4385  0.1828
  178SOL     ow  709   3.310   3.391   5.217 -0.0201  0.0885  0.1988
  178SOL     hw  710   3.230   3.356   5.177  0.7888 -2.4483  0.6106
  178SOL     hw  711   3.296   3.485   5.221 -3.9696 -0.3818  2.2782
  178SOL     vw  712   3.298   3.399   5.213 -0.4344 -0.3082  0.5276
  179SOL     ow  713   5.151   7.097   5.179  0.2139  0.3794  0.0943
  179SOL     hw  714   5.241   7.112   5.208  0.6674  0.3715 -1.2610
  179SOL     hw  715   5.101   7.168   5.220  1.1764  1.5642 -0.7301
  179SOL     vw  716   5.156   7.108   5.188  0.4005  0.5348 -0.1934
  180SOL     ow  717   4.673   4.444   5.552 -0.7537  0.2396 -0.0785
  180SOL     hw  718   4.643   4.376   5.613 -1.7616  0.0790 -0.7338
  180SOL     hw  719   4.596   4.464   5.499  0.2161  0.0712 -1.5906
  180SOL     vw  720   4.659   4.437   5.553 -0.7586  0.1962 -0.3643
  181SOL     ow  721   3.277   0.521   4.738 -0.4461 -0.5081  0.4568
  181SOL     hw  722   3.220   0.543   4.812  0.2506  1.6208  0.4147
  181SOL     hw  723   3.364   0.517   4.776 -0.0092  1.1158 -0.2878
  181SOL     vw  724   3.281   0.523   4.753 -0.2966 -0.0130  0.3526
  182SOL     ow  725   1.362   2.627   2.837  0.0847  0.0926  0.0702
  182SOL     hw  726   1.282   2.576   2.850  0.6245 -0.5985  0.7514
  182SOL     hw  727   1.353   2.699   2.900  0.3556 -0.4292  0.7176
  182SOL     vw  728   1.350   2.630   2.847  0.1917 -0.0675  0.2453
  183SOL     ow  729   7.620   3.766   4.539 -0.2364 -0.9506 -0.0833
  183SOL     hw  730   7.631   3.787   4.446  0.6106 -2.5111 -0.3699
  183SOL     hw  731   7.620   3.851   4.583  0.3547 -0.2313 -1.4186
  183SOL     vw  732   7.622   3.780   4.532 -0.0467 -1.0614 -0.2971
  184SOL     ow  733   5.520   6.946   6.494 -0.5737  0.1146  0.9153
  184SOL     hw  734   5.536   6.887   6.420  1.1275  1.0388  0.5116
  184SOL     hw  735   5.492   6.888   6.565  2.3277 -1.4305  0.9545
  184SOL     vw  736   5.518   6.931   6.494  0.0334  0.0324  0.8674
  185SOL     ow  737   0.651   3.817   6.350  0.0914 -0.0932  0.5020
  185SOL     hw  738   0.629   3.871   6.426 -0.0129  0.0543  0.3659
  185SOL     hw  739   0.621   3.867   6.274  2.5547  1.0236  0.1719
  185SOL     vw  740   0.644   3.830   6.350  0.4026  0.0737  0.4404
  186SOL     ow  741   0.007   6.858   0.985 -0.1594 -0.0299  0.2741
  186SOL     hw  742  -0.084   6.883   0.966  0.6203  1.8847 -1.2847
  186SOL     hw  743   0.047   6.938   1.019  0.3895 -1.5056  3.4638
  186SOL     vw  744  -0.000   6.872   0.987  0.0160  0.0281  0.4893
  187SOL     ow  745   5.169   7.035   0.993 -0.3235  0.1176  0.3723
  187SOL     hw  746   5.212   6.950   1.004  1.4701  0.3862 -3.0107
  187SOL     hw  747   5.076   7.014   0.984 -0.2420 -1.1578  1.9798
  187SOL     vw  748   5.163   7.021   0.993 -0.0761 -0.0150  0.1380
  188SOL     ow  749   7.577   7.255   0.374  0.5030  0.6751 -0.2760
  188SOL     hw  750   7.646   7.190   0.360  0.2364  0.3398 -0.0618
  188SOL     hw  751   7.524   7.250   0.294 -1.5269 -1.8631  1.0423
  188SOL     vw  752   7.579   7.246   0.362  0.2003  0.2961 -0.0738
  189SOL     ow  753   1.027   2.271   4.361  0.3345 -0.5502  0.5156
  189SOL     hw  754   0.931   2.272   4.360  0.2667 -0.8657 -2.5688
  189SOL     hw  755   1.053   2.333   4.293  2.1429 -3.1860 -1.4444
  189SOL     vw  756   1.018   2.279   4.352  0.5642 -0.9395 -0.1500
  190SOL     ow  757   7.217   1.779   0.821 -0.3530 -0.0357  0.7227
  190SOL     hw  758   7.302   1.760   0.861  0.2467  1.9418  0.4721
  190SOL     hw  759   7.238   1.820   0.738 -1.5282  1.6336  1.2101
  190SOL     vw  760   7.231   1.782   0.816 -0.4289  0.4454  0.7539
  191SOL     ow  761   1.497   7.387   0.871  0.0952 -0.0715 -0.1903
  191SOL     hw  762   1.425   7.450   0.877 -0.5069 -0.7560 -0.1565
  191SOL     hw  763   1.533   7.383   0.960 -0.3208 -0.3023 -0.0315
  191SOL     vw  764   1.493   7.395   0.884 -0.0392 -0.1924 -0.1649
  192SOL     ow  765   5.707   5.217   1.462 -0.6633 -0.9325 -0.1062
  192SOL     hw  766   5.662   5.248   1.541 -2.2239 -1.5818 -0.7027
  192SOL     hw  767   5.684   5.281   1.395  2.2428  0.7241  0.3221
  192SOL     vw  768   5.698   5.229   1.464 -0.4857 -0.7994 -0.1284
  193SOL     ow  769   1.513   1.852   5.437 -0.0489 -1.4437 -1.1219
  193SOL     hw  770   1.483   1.762   5.425  0.9540 -2.0454  0.5921
  193SOL     hw  771   1.482   1.876   5.524  0.6795 -0.5222 -1.1043
  193SOL     vw  772   1.505   1.843   5.447  0.1795 -1.4015 -0.8934
  194SOL     ow  773   6.064   5.293   0.037 -0.1854  0.0719  0.5730
  194SOL     hw  774   6.115   5.273  -0.042  3.1414  2.4842  1.8816
  194SOL     hw  775   6.030   5.208   0.066  0.7025 -1.2605 -1.9596
  194SOL     vw  776   6.066   5.279   0.030  0.3705  0.2146  0.4113
  195SOL     ow  777   0.160   0.749   4.845 -0.3152  0.1988  0.1784
  195SOL     hw  778   0.129   0.806   4.775  0.2266  0.2502 -0.0259
  195SOL     hw  779   0.138   0.660   4.817 -1.2817  0.3081  0.5598
  195SOL     vw  780   0.153   0.745   4.832 -0.3712  0.2200  0.2019
  196SOL     ow  781   1.647   1.773   3.524 -0.1284  0.4361 -0.1771
  196SOL     hw  782   1.710   1.702   3.511  1.6435  1.8498  0.2069
  196SOL     hw  783   1.691   1.833   3.585 -2.3520  0.9247  1.0570
  196SOL     vw  784   1.661   1.772   3.531 -0.1880  0.6871  0.0365
  197SOL     ow  785   0.365   6.796   4.256  0.2131  0.3554 -0.0298
  197SOL     hw  786   0.330   6.721   4.208 -0.0726  1.0357 -0.9255
  197SOL     hw  787   0.307   6.806   4.331  0.9847 -1.0570  0.7992
  197SOL     vw  788   0.353   6.788   4.259  0.2772  0.2587 -0.0386
  198SOL     ow  789   4.680   7.625   0.864  0.2974  0.3916 -0.5998
  198SOL     hw  790   4.653   7.644   0.954  2.1744 -1.2045  0.3862
  198SOL     hw  791   4.747   7.691   0.846  0.2023  0.4640 -0.6892
  198SOL     vw  792   4.685   7.636   0.874  0.5326  0.1905 -0.4815
  199SOL     ow  793   4.047   3.107   4.055 -0.0220  0.4279  0.3097
  199SOL     hw  794   3.981   3.045   4.083 -1.0681 -0.1713 -3.1135
  199SOL     hw  795   4.001   3.168   3.998  1.8913  1.6068 -0.0796
  199SOL     vw  796   4.033   3.107   4.051  0.0925  0.5044 -0.1934
  200SOL     ow  797   6.855   1.732   2.707 -0.1119  0.2529 -0.0696
  200SOL     hw  798   6.862   1.645   2.667  1.0260  0.5246 -0.5179
  200SOL     hw  799   6.768   1.763   2.683 -0.0296 -0.2276 -1.0429
  200SOL     vw  800   6.845   1.724   2.698  0.0494  0.2254 -0.2571
  201SOL     ow  801   3.130   0.315   4.550 -0.8568  0.1767 -0.0573
  201SOL     hw  802   3.102   0.262   4.624 -0.3748 -0.1688 -0.1186
  201SOL     hw  803   3.077   0.283   4.477  0.6797 -1.4934 -0.5051
  201SOL     vw  804   3.119   0.304   4.550 -0.5906 -0.0893 -0.1242
  202SOL     ow  805   7.424   6.998   0.871 -0.1011 -0.2480  0.2661
  202SOL     hw  806   7.453   7.063   0.934  1.9964 -1.6984  0.9137
  202SOL     hw  807   7.484   7.007   0.797  0.4134 -1.5874  0.4892
  202SOL     vw  808   7.436   7.008   0.869  0.2434 -0.6158  0.3810
  203SOL     ow  809   1.372   3.220   6.542 -0.0927 -0.0129 -0.0899
  203SOL     hw  810   1.299   3.159   6.534 -0.8559  0.9573 -0.7913
  203SOL     hw  811   1.396   3.241   6.452 -1.3641  2.4334  0.0477
  203SOL     vw  812   1.365   3.215   6.529 -0.3611  0.4379 -0.1643
  204SOL     ow  813   3.734   7.022   7.335 -0.3260  0.7033 -0.3449
  204SOL     hw  814   3.683   6.995   7.412  0.3436  2.6952  0.8697
  204SOL     hw  815   3.685   6.987   7.261 -2.0991  0.4168  0.8980
  204SOL     vw  816   3.721   7.013   7.335 -0.4716  0.9282 -0.0207
  205SOL     ow  817   5.560   6.858   3.769 -0.0310  0.2799  0.1074
  205SOL     hw  818   5.556   6.876   3.863 -0.3317  0.5996  0.0331
  205SOL     hw  819   5.488   6.908   3.731  0.9116  1.2547 -0.4703
  205SOL     vw  820   5.550   6.867   3.776  0.0539  0.4506  0.0212
  206SOL     ow  821   7.316   5.540   1.497 -0.3838 -0.2041  0.7957
  206SOL     hw  822   7.261   5.481   1.445  0.5710  0.8618 -1.5785
  206SOL     hw  823   7.259   5.615   1.516 -0.2428  0.2252 -0.3641
  206SOL     vw  824   7.301   5.542   1.492 -0.2391 -0.0069  0.3294
  207SOL     ow  825   3.265   2.748   7.109  0.0107 -0.4290  0.0692
  207SOL     hw  826   3.229   2.691   7.176 -1.8653 -0.8403 -1.2079
  207SOL     hw  827   3.220   2.722   7.028  2.5429 -0.3231 -1.4942
  207SOL     vw  828   3.255   2.737   7.107  0.0974 -0.4692 -0.3054
  208SOL     ow  829   5.315   1.768   2.412  0.4424 -0.1675  0.5990
  208SOL     hw  830   5.248   1.792   2.476 -1.0411 -0.6581 -0.6950
  208SOL     hw  831   5.389   1.824   2.432 -0.9316  1.5499  1.0887
  208SOL     vw  832   5.316   1.778   2.423  0.0658 -0.0056  0.4928
  209SOL     ow  833   4.119   6.625   5.297 -0.1301  0.4496  0.2553
  209SOL     hw  834   4.071   6.655   5.374  0.9844  1.0878  0.7219
  209SOL     hw  835   4.160   6.704   5.262  1.3286 -0.2103  0.4090
  209SOL     vw  836   4.118   6.639   5.303  0.2093  0.4466  0.3371
  210SOL     ow  837   1.916   4.093   3.164 -0.5586 -0.5976  0.2179
  210SOL     hw  838   1.908   4.178   3.207  0.0120 -0.7542  0.6355
  210SOL     hw  839   1.940   4.033   3.234  2.8484 -0.4344 -0.6561
  210SOL     vw  840   1.918   4.097   3.179 -0.0339 -0.5968  0.1576
  211SOL     ow  841   1.046   6.774   1.093 -0.1552  0.6162  0.2309
  211SOL     hw  842   0.981   6.722   1.045 -0.7169 -0.7343  2.2900
  211SOL     hw  843   1.129   6.731   1.073 -0.4144 -0.0984  0.6442
  211SOL     vw  844   1.048   6.761   1.084 -0.2635  0.3438  0.5571
  212SOL     ow  845   6.558   7.574   4.162 -0.1344  0.0269  0.1333
  212SOL     hw  846   6.539   7.608   4.250  0.1415  1.1328 -0.2217
  212SOL     hw  847   6.626   7.508   4.176 -0.9396 -0.6854  0.8781
  212SOL     vw  848   6.564   7.570   4.175 -0.2043  0.0789  0.1848
  213SOL     ow  849   0.631   2.440   6.233  0.1021 -0.2670  0.2999
  213SOL     hw  850   0.707   2.495   6.252 -0.6484  0.3928  1.4942
  213SOL     hw  851   0.557   2.501   6.231 -0.8401 -1.2618  2.2014
  213SOL     vw  852   0.631   2.455   6.235 -0.1212 -0.3111  0.7081
  214SOL     ow  853   6.784   3.332   6.366 -0.3859  0.7978  0.5901
  214SOL     hw  854   6.764   3.239   6.375 -0.6732  0.9507  1.6337
  214SOL     hw  855   6.826   3.356   6.448 -1.4506  1.8751  0.8390
  214SOL     vw  856   6.787   3.323   6.378 -0.5643  0.9601  0.7606
  215SOL     ow  857   1.024   2.085   7.620  0.2349 -0.3374 -0.2145
  215SOL     hw  858   1.117   2.067   7.611 -0.0348 -1.0071 -1.9690
  215SOL     hw  859   0.983   1.999   7.631 -0.2057 -0.0637  0.3784
  215SOL     vw  860   1.031   2.071   7.620  0.1412 -0.3897 -0.3678
  216SOL     ow  861   2.419   4.735   3.667 -0.0127  0.1572 -0.2246
  216SOL     hw  862   2.334   4.778   3.661  0.6512  1.5568  0.0275
  216SOL     hw  863   2.464   4.780   3.739  1.2316 -0.0202 -0.8584
  216SOL     vw  864   2.414   4.746   3.676  0.2390  0.3188 -0.2750
  217SOL     ow  865   2.620   7.274   4.285  0.1409 -0.3197  0.5285
  217SOL     hw  866   2.574   7.197   4.316 -0.4295 -0.0537  0.3543
  217SOL     hw  867   2.640   7.255   4.193  0.6370 -0.5514  0.6801
  217SOL     vw  868   2.617   7.262   4.277  0.1310 -0.3150  0.5257
  218SOL     ow  869   5.072   2.205   6.854 -0.1935  0.1458 -0.1715
  218SOL     hw  870   5.064   2.137   6.920 -1.5209  0.4130 -0.0250
  218SOL     hw  871   5.103   2.282   6.901 -0.1624  0.0539 -0.0436
  218SOL     vw  872   5.075   2.206   6.869 -0.3643  0.1688 -0.1352
  219SOL     ow  873   3.479   6.197   0.114 -0.2403  0.4843  0.3160
  219SOL     hw  874   3.484   6.227   0.204  1.6930 -3.4823  1.7725
  219SOL     hw  875   3.547   6.246   0.068  1.5761 -0.2333  2.0811
  219SOL     vw  876   3.488   6.207   0.120  0.2545 -0.1338  0.7411
  220SOL     ow  877   5.483   6.026   2.389 -0.7414  0.1986 -0.0546
  220SOL     hw  878   5.470   6.121   2.390  2.6148  0.7768 -0.6448
  220SOL     hw  879   5.497   6.005   2.297  0.0743 -0.5922  0.2329
  220SOL     vw  880   5.483   6.036   2.377 -0.1910  0.1707 -0.0947
  221SOL     ow  881   4.029   2.832   2.349  0.0860  0.1109 -0.6884
  221SOL     hw  882   3.964   2.777   2.393 -0.0980  1.7861  1.2875
  221SOL     hw  883   4.112   2.808   2.389 -0.2212  2.4225  1.5892
  221SOL     vw  884   4.031   2.821   2.360  0.0210  0.6369 -0.1271
  222SOL     ow  885   7.589   4.049   0.752  0.5011 -0.2487  0.4484
  222SOL     hw  886   7.570   4.080   0.841  1.2180  0.2821  0.4207
  222SOL     hw  887   7.506   4.013   0.721 -0.1806  1.0106  0.7525
  222SOL     vw  888   7.575   4.048   0.760  0.5059 -0.0124  0.4849
  223SOL     ow  889   1.294   2.415   4.371  0.5641 -0.0339  0.7726
  223SOL     hw  890   1.349   2.488   4.340  0.3001 -0.0494  0.2629
  223SOL     hw  891   1.222   2.458   4.418 -0.2411  0.1098 -0.5421
  223SOL     vw  892   1.292   2.431   4.373  0.4230 -0.0169  0.5319
  224SOL     ow  893   1.034   6.444   4.620  0.1454  1.3787  0.1942
  224SOL     hw  894   1.126   6.423   4.605  0.3039  2.6293 -0.8365
  224SOL     hw  895   0.989   6.359   4.617  1.2349  0.7684  0.5656
  224SOL     vw  896   1.040   6.430   4.618  0.3101  1.4632  0.1070
  225SOL     ow  897   2.474   0.953   5.947 -0.1906 -0.0166 -0.0757
  225SOL     hw  898   2.499   0.860   5.946 -0.5891 -0.1393  0.7976
  225SOL     hw  899   2.507   0.986   6.030  0.2856  0.7301 -0.5569
  225SOL     vw  900   2.482   0.945   5.958 -0.1802  0.0657 -0.0241
  226SOL     ow  901   7.414   4.255   2.392 -0.5739  0.2570  0.8220
  226SOL     hw  902   7.481   4.317   2.363  0.1134 -0.4302  0.8915
  226SOL     hw  903   7.356   4.307   2.448  0.3737  0.7060  1.4280
  226SOL     vw  904   7.415   4.270   2.396 -0.3581  0.2255  0.9111
  227SOL     ow  905   2.292   6.304   5.944  0.2375 -0.0076 -0.5727
  227SOL     hw  906   2.322   6.394   5.945 -0.0417  0.1170  1.4055
  227SOL     hw  907   2.319   6.268   6.029 -0.0885 -1.6267 -1.1101
  227SOL     vw  908   2.299   6.311   5.955  0.1576 -0.2048 -0.3827
  228SOL     ow  909   6.046   7.201   5.386 -0.6821 -0.4678 -1.0021
  228SOL     hw  910   6.042   7.222   5.479  3.9481 -1.1312 -0.4086
  228SOL     hw  911   6.055   7.286   5.343  1.9544 -0.2468 -0.2145
  228SOL     vw  912   6.047   7.215   5.393  0.2768 -0.5262 -0.8197
  229SOL     ow  913   2.875   4.317   6.865 -0.3142 -0.5582  0.1931
  229SOL     hw  914   2.880   4.412   6.870  1.5555 -0.6870  2.0814
  229SOL     hw  915   2.929   4.294   6.789  0.3219 -0.1615  0.5148
  229SOL     vw  916   2.883   4.326   6.856  0.0165 -0.5231  0.4847
  230SOL     ow  917   0.391   1.670   6.250  0.5124  0.3426  0.0813
  230SOL     hw  918   0.387   1.590   6.304 -1.3319  0.9984  0.9988
  230SOL     hw  919   0.377   1.638   6.161  0.8420 -0.4793  0.3085
  230SOL     vw  920   0.388   1.655   6.246  0.3125  0.3207  0.2322
  231SOL     ow  921   4.400   1.306   3.245  0.0225  0.4121 -1.1064
  231SOL     hw  922   4.395   1.378   3.182 -1.2026 -0.4377 -2.0139
  231SOL     hw  923   4.493   1.301   3.267 -0.0395  3.4404  0.4074
  231SOL     vw  924   4.412   1.315   3.240 -0.1476  0.6996 -1.0264
  232SOL     ow  925   0.559   4.004   6.515 -0.0034 -0.2651 -0.3727
  232SOL     hw  926   0.547   3.935   6.580  0.9704 -2.0152 -1.9454
  232SOL     hw  927   0.610   4.071   6.560 -0.4651 -0.8209  1.0318
  232SOL     vw  928   0.564   4.004   6.529  0.0642 -0.5693 -0.3948
  233SOL     ow  929   7.385   2.389   2.822  0.5544 -0.5631  1.0894
  233SOL     hw  930   7.448   2.346   2.879 -1.4243 -3.7037  1.1413
  233SOL     hw  931   7.398   2.348   2.736  1.6094  2.0922 -0.1225
  233SOL     vw  932   7.395   2.378   2.818  0.4325 -0.6270  0.9363
  234SOL     ow  933   6.599   2.435   0.033 -0.3452 -1.1406 -0.0487
  234SOL     hw  934   6.673   2.410   0.088 -0.6085 -3.1760 -0.5426
  234SOL     hw  935   6.612   2.528   0.016  0.3577 -0.7336  2.4584
  234SOL     vw  936   6.611   2.444   0.038 -0.2873 -1.3555  0.2169
  235SOL     ow  937   5.979   7.514   5.104 -0.0231  0.3260 -0.1113
  235SOL     hw  938   6.063   7.504   5.060 -0.5703 -0.8434 -0.9772
  235SOL     hw  939   5.998   7.504   5.197  0.9460  1.2656 -0.2007
  235SOL     vw  940   5.992   7.511   5.111  0.0327  0.2956 -0.2372
  236SOL     ow  941   5.424   3.066   3.974  0.0468  0.5029 -0.4153
  236SOL     hw  942   5.503   3.118   3.981  1.1098 -1.2985  2.7679
  236SOL     hw  943   5.385   3.068   4.061 -0.1511 -3.3714 -0.2036
  236SOL     vw  944   5.429   3.073   3.986  0.1609 -0.2459  0.0325
  237SOL     ow  945   1.332   6.943   2.691 -0.3553  0.1952  0.4757
  237SOL     hw  946   1.325   6.959   2.785 -0.9927 -0.2578  0.5074
  237SOL     hw  947   1.263   6.879   2.672 -1.1093  1.2585 -0.5179
  237SOL     vw  948   1.322   6.937   2.701 -0.5389  0.2759  0.3487
  238SOL     ow  949   6.818   6.138   2.670 -0.0700  0.6080 -0.6358
  238SOL     hw  950   6.846   6.092   2.749 -1.1670 -2.7722 -2.0411
  238SOL     hw  951   6.895   6.135   2.612 -0.3264 -0.0995 -0.9557
  238SOL     vw  952   6.832   6.132   2.673 -0.2484  0.0687 -0.8634
  239SOL     ow  953   7.322   7.384   0.008  0.1002 -0.6292 -0.7123
  239SOL     hw  954   7.369   7.303  -0.013 -0.9706 -1.5317  0.3105
  239SOL     hw  955   7.361   7.449  -0.051  1.5152 -1.6955 -1.0185
  239SOL     vw  956   7.334   7.382  -0.003  0.1459 -0.8891 -0.6177
  240SOL     ow  957   1.758   4.136   5.299  0.4492  0.3557  0.1857
  240SOL     hw  958   1.761   4.075   5.226 -0.0322 -1.1949  1.4145
  240SOL     hw  959   1.850   4.162   5.313  0.3891  2.2174 -2.1267
  240SOL     vw  960   1.771   4.132   5.291  0.3778  0.3967  0.0427
  241SOL     ow  961   7.418   5.905   7.230 -0.4285 -0.7949 -0.1755
  241SOL     hw  962   7.396   5.839   7.165  0.2594  0.0773 -1.3194
  241SOL     hw  963   7.339   5.914   7.283 -0.7583 -2.0299 -0.4273
  241SOL     vw  964   7.405   5.898   7.229 -0.3810 -0.8428 -0.3598
  242SOL     ow  965   6.556   5.946   2.840 -0.0742  0.0557 -0.4454
  242SOL     hw  966   6.541   6.023   2.895 -0.8870 -1.0278  0.8963
  242SOL     hw  967   6.646   5.920   2.860 -0.1730  0.0059 -0.0624
  242SOL     vw  968   6.566   5.953   2.850 -0.1948 -0.0937 -0.2179
  243SOL     ow  969   6.651   7.117   5.780  0.7274  1.0327  0.7271
  243SOL     hw  970   6.671   7.209   5.764 -3.0552  2.3792  2.5342
  243SOL     hw  971   6.672   7.103   5.872 -0.8007  0.8429  1.0865
  243SOL     vw  972   6.656   7.127   5.790  0.0265  1.1854  1.0128
  244SOL     ow  973   7.506   1.117   4.468 -0.5994 -0.8290 -0.2771
  244SOL     hw  974   7.577   1.059   4.494  0.1872 -0.9320 -2.4439
  244SOL     hw  975   7.498   1.178   4.541  0.2791 -2.0927  0.9364
  244SOL     vw  976   7.515   1.118   4.481 -0.3796 -1.0093 -0.4029
  245SOL     ow  977   4.200   6.746   5.643  0.2457 -0.5134 -0.3491
  245SOL     hw  978   4.222   6.673   5.700  2.2409  0.4195  0.1759
  245SOL     hw  979   4.266   6.743   5.574  0.6370  1.0110 -0.0805
  245SOL     vw  980   4.212   6.736   5.642  0.5605 -0.1891 -0.2441
  246SOL     ow  981   1.597   0.432   7.223 -0.9770 -0.1427 -0.2560
  246SOL     hw  982   1.641   0.393   7.147 -3.0038 -1.7008 -0.7238
  246SOL     hw  983   1.600   0.527   7.206 -0.0062 -0.3636 -1.4753
  246SOL     vw  984   1.603   0.440   7.211 -1.1163 -0.3774 -0.4785
  247SOL     ow  985   0.342   5.004   0.613 -0.2440  0.1718 -0.1332
  247SOL     hw  986   0.373   5.060   0.542 -1.1680  1.7271  0.6520
  247SOL     hw  987   0.274   4.950   0.573 -1.4986  1.7627 -0.2687
  247SOL     vw  988   0.337   5.004   0.598 -0.5315  0.5867 -0.0474
  248SOL     ow  989   2.083   3.580   4.063  0.4023  0.5937  0.1083
  248SOL     hw  990   2.065   3.652   4.122 -1.1929  0.6661 -0.4147
  248SOL     hw  991   2.004   3.526   4.066  1.4295 -0.9705  0.2423
  248SOL     vw  992   2.071   3.582   4.071  0.3272  0.3970  0.0570
  249SOL     ow  993   7.312   5.899   2.405 -0.1688  0.0426 -0.1540
  249SOL     hw  994   7.268   5.983   2.413 -0.1852  0.2764 -2.1951
  249SOL     hw  995   7.242   5.834   2.406 -0.0950 -0.0911  2.4244
  249SOL     vw  996   7.297   5.902   2.406 -0.1612  0.0558 -0.0830
  250SOL     ow  997   1.356   2.079   0.736 -0.7071  0.0646  0.3608
  250SOL     hw  998   1.332   1.989   0.716 -1.7980 -0.1861  2.5659
  250SOL     hw  999   1.437   2.072   0.787 -0.6858  0.3487  0.3713
  250SOL     vw 1000   1.364   2.066   0.740 -0.8482  0.0690  0.6531
  251SOL     ow 1001   2.866   5.806   4.442  0.7602 -0.1629  0.2908
  251SOL     hw 1002   2.846   5.852   4.361  0.5425  0.3467  0.6308
  251SOL     hw 1003   2.946   5.848   4.474 -0.7639  1.7350  1.8918
  251SOL     vw 1004   2.874   5.818   4.436  0.5304  0.1547  0.5469
  252SOL     ow 1005   2.807   4.370   3.480  0.2627 -0.7470  0.7856
  252SOL     hw 1006   2.883   4.375   3.422  0.2460 -0.3300  0.7970
  252SOL     hw 1007   2.844   4.348   3.566  0.6085  1.3980  1.2425
  252SOL     vw 1008   2.822   4.368   3.484  0.3062 -0.4089  0.8473
  253SOL     ow 1009   3.861   4.876   5.004 -0.1789 -0.1191 -0.0441
  253SOL     hw 1010   3.789   4.933   4.978  0.5189  1.2831  0.9633
  253SOL     hw 1011   3.900   4.919   5.080  0.8123 -1.6023  0.3398
  253SOL     vw 1012   3.857   4.889   5.010  0.0441 -0.1299  0.1392
  254SOL     ow 1013   6.963   2.083   7.486 -0.2627  0.3639 -0.0677
  254SOL     hw 1014   7.000   1.999   7.460 -0.3635  0.9346 -2.2325
  254SOL     hw 1015   6.993   2.145   7.420  0.2103  2.1818  1.7220
  254SOL     vw 1016   6.972   2.080   7.474 -0.2134  0.6790 -0.1173
  255SOL     ow 1017   2.393   3.794   1.749 -0.1418  0.0755 -0.1258
  255SOL     hw 1018   2.307   3.760   1.724  1.0121 -1.2267 -2.6979
  255SOL     hw 1019   2.374   3.865   1.811 -2.8992 -1.8579  1.4398
  255SOL     vw 1020   2.379   3.799   1.754 -0.3535 -0.3514 -0.2586
  256SOL     ow 1021   1.873   0.946   4.114  0.0658 -0.7158  0.2165
  256SOL     hw 1022   1.902   0.887   4.184 -1.4644 -2.1899 -0.3504
  256SOL     hw 1023   1.840   0.889   4.045 -2.6707  0.7585  0.1580
  256SOL     vw 1024   1.873   0.931   4.114 -0.4972 -0.7158  0.1338
  257SOL     ow 1025   2.924   1.343   2.295  0.0947  0.4017 -0.1860
  257SOL     hw 1026   2.882   1.419   2.336  0.7377 -0.1669  1.5922
  257SOL     hw 1027   2.999   1.380   2.249  0.5184  0.8260  0.8342
  257SOL     vw 1028   2.928   1.358   2.294  0.2354  0.3827  0.1832
  258SOL     ow 1029   6.584   1.105   2.238  0.2635  0.5505 -0.1749
  258SOL     hw 1030   6.499   1.092   2.278  0.2898 -2.0852 -0.8069
  258SOL     hw 1031   6.581   1.054   2.157  2.4892  0.2382 -0.1237
  258SOL     vw 1032   6.573   1.096   2.232  0.5605  0.1615 -0.2515
  259SOL     ow 1033   0.181   1.363   1.379  0.0303  0.4637  0.9491
  259SOL     hw 1034   0.263   1.413   1.378  0.1312  0.2963  0.0098
  259SOL     hw 1035   0.132   1.396   1.303 -0.7195  0.4700  1.4282
  259SOL     vw 1036   0.185   1.374   1.368 -0.0553  0.4424  0.8885
  260SOL     ow 1037   3.732   1.459   4.154  0.2301  0.2057  0.2117
  260SOL     hw 1038   3.759   1.368   4.161 -1.9608 -0.6370 -1.3242
  260SOL     hw 1039   3.808   1.509   4.183  0.7656 -2.0970  3.1332
  260SOL     vw 1040   3.746   1.454   4.158  0.0117 -0.2093  0.3946
  261SOL     ow 1041   7.192   0.805   5.208  0.3947  0.7976  0.0815
  261SOL     hw 1042   7.270   0.844   5.248  0.8821  1.3071 -1.3140
  261SOL     hw 1043   7.120   0.859   5.238  0.7437  1.1323  0.3324
  261SOL     vw 1044   7.193   0.817   5.217  0.5050  0.9090 -0.0696
  262SOL     ow 1045   0.074   1.286   3.315 -0.2793 -0.3541 -0.0422
  262SOL     hw 1046   0.120   1.319   3.392  2.5745 -3.4423 -0.1754
  262SOL     hw 1047   0.002   1.234   3.350  0.4178 -0.9363  0.5734
  262SOL     vw 1048   0.071   1.283   3.330  0.1892 -0.8384  0.0215
  263SOL     ow 1049   5.358   4.269   6.354 -0.3937  0.0767  0.0018
  263SOL     hw 1050   5.324   4.197   6.407  0.2157  0.2733  0.6766
  263SOL     hw 1051   5.284   4.295   6.299 -1.4662  0.6995  1.6427
  263SOL     vw 1052   5.344   4.263   6.354 -0.4549  0.1848  0.3073
  264SOL     ow 1053   0.086   5.978   7.305 -0.2924  0.4097  0.0301
  264SOL     hw 1054   0.083   6.067   7.271 -1.2004  1.0361  1.6617
  264SOL     hw 1055   0.174   5.947   7.282 -0.0478  1.6359 -0.7685
  264SOL     vw 1056   0.097   5.985   7.298 -0.3799  0.6545  0.1402
  265SOL     ow 1057   0.242   6.987   0.720  0.1781 -0.2329  0.0860
  265SOL     hw 1058   0.257   6.976   0.813  0.2494  3.1039  0.5988
  265SOL     hw 1059   0.208   7.077   0.711 -0.0159 -0.4854 -3.0703
  265SOL     vw 1060   0.240   6.998   0.731  0.1619  0.1738 -0.2629
  266SOL     ow 1061   3.182   6.116   6.005  0.2604 -0.1848 -0.6559
  266SOL     hw 1062   3.090   6.114   5.978  0.2609 -0.2008 -0.6570
  266SOL     hw 1063   3.224   6.178   5.945  0.0408  0.6353  0.0237
  266SOL     vw 1064   3.176   6.124   5.993  0.2314 -0.0787 -0.5662
  267SOL     ow 1065   2.533   4.145   1.540  0.5252  0.1807  0.0556
  267SOL     hw 1066   2.537   4.178   1.630  1.4835 -2.5248  1.0904
  267SOL     hw 1067   2.472   4.205   1.496 -2.2845 -0.0335  3.2367
  267SOL     vw 1068   2.526   4.157   1.546  0.2810 -0.2043  0.6118
  268SOL     ow 1069   4.400   2.947   2.432  0.2986 -0.0895  0.3320
  268SOL     hw 1070   4.492   2.946   2.403  0.6945  3.3114  0.9814
  268SOL     hw 1071   4.352   2.910   2.358  2.1561 -2.4817  0.1871
  268SOL     vw 1072   4.406   2.942   2.418  0.5960  0.0436  0.3986
  269SOL     ow 1073   2.451   6.336   4.345  0.0528 -0.1562  0.0246
  269SOL     hw 1074   2.519   6.275   4.373  0.3069  0.7375  1.4503
  269SOL     hw 1075   2.482   6.370   4.261  1.1521 -0.1123  0.4373
  269SOL     vw 1076   2.464   6.332   4.338  0.2311 -0.0327  0.2673
  270SOL     ow 1077   2.283   7.398   0.742 -0.2385  0.1809  0.7200
  270SOL     hw 1078   2.222   7.340   0.696 -0.8072  0.8728  0.5854
  270SOL     hw 1079   2.240   7.484   0.740 -0.8653  0.0378  3.5425
  270SOL     vw 1080   2.269   7.402   0.736 -0.3964  0.2532  1.0746
  271SOL     ow 1081   4.045   4.106   4.842 -0.3128  0.7451  0.0591
  271SOL     hw 1082   4.137   4.085   4.854 -0.3848  0.3698 -0.0483
  271SOL     hw 1083   3.999   4.046   4.900 -0.4786  1.1092  0.3122
  271SOL     vw 1084   4.051   4.095   4.852 -0.3440  0.7436  0.0782
  272SOL     ow 1085   6.341   4.064   5.679 -0.4783  0.0819 -0.7812
  272SOL     hw 1086   6.419   4.050   5.624  0.2337  2.7587 -0.5677
  272SOL     hw 1087   6.355   4.006   5.754  2.7619  2.3091  0.5744
  272SOL     vw 1088   6.353   4.054   5.681  0.0432  0.7288 -0.5741
  273SOL     ow 1089   6.243   6.196   5.106  1.0138  0.7214  0.0772
  273SOL     hw 1090   6.151   6.181   5.129  1.2921  0.2184  0.9043
  273SOL     hw 1091   6.257   6.141   5.029  0.2495  1.9063 -0.9409
  273SOL     vw 1092   6.232   6.187   5.099  0.9499  0.8116  0.0520
  274SOL     ow 1093   7.054   4.425   2.979  0.1338  0.1613  0.9083
  274SOL     hw 1094   7.102   4.351   3.018 -0.1631 -0.3681  0.2886
  274SOL     hw 1095   7.062   4.495   3.043  0.7826 -0.2781  1.3199
  274SOL     vw 1096   7.062   4.424   2.992  0.1805  0.0336  0.8808
  275SOL     ow 1097   3.700   3.156   5.464 -0.1680 -0.0374  0.3399
  275SOL     hw 1098   3.783   3.192   5.434 -0.5977  0.9559  0.2934
  275SOL     hw 1099   3.723   3.073   5.505  0.5231 -1.2373 -2.2548
  275SOL     vw 1100   3.714   3.150   5.465 -0.1335 -0.0646 -0.0086
  276SOL     ow 1101   4.331   3.847   3.571  0.4093  0.4481  0.2840
  276SOL     hw 1102   4.345   3.835   3.665  1.0145  0.3152  0.1839
  276SOL     hw 1103   4.308   3.761   3.538  0.2065  0.4930  0.3088
  276SOL     vw 1104   4.330   3.834   3.579  0.4625  0.4365  0.2741
  277SOL     ow 1105   2.025   6.270   0.567  0.5706 -0.3429  0.5232
  277SOL     hw 1106   2.022   6.269   0.471  2.4531 -0.9972  0.4399
  277SOL     hw 1107   2.110   6.232   0.589  0.6044  0.7330  2.4391
  277SOL     vw 1108   2.036   6.265   0.557  0.8235 -0.2875  0.7650
  278SOL     ow 1109   5.881   0.866   1.204 -0.2081 -0.5010 -0.4472
  278SOL     hw 1110   5.852   0.840   1.292  0.0584  2.8985  0.7979
  278SOL     hw 1111   5.957   0.923   1.219  1.1173 -1.4071 -3.0560
  278SOL     vw 1112   5.887   0.870   1.218  0.0021 -0.1720 -0.6271
  279SOL     ow 1113   2.044   3.121   1.899  0.0984  0.0590  0.6533
  279SOL     hw 1114   2.137   3.145   1.896  0.2162  0.0259  2.5075
  279SOL     hw 1115   2.009   3.174   1.971 -1.3651  0.1713 -0.1111
  279SOL     vw 1116   2.051   3.131   1.908 -0.0790  0.0693  0.7971
  280SOL     ow 1117   4.640   6.569   6.593 -0.1947 -0.1033  0.0801
  280SOL     hw 1118   4.649   6.637   6.526 -0.0898 -0.6609 -0.4853
  280SOL     hw 1119   4.701   6.594   6.662  1.8596 -1.0152 -1.3075
  280SOL     vw 1120   4.649   6.581   6.593  0.0904 -0.2968 -0.1776
  281SOL     ow 1121   5.212   3.655   1.866 -0.3900  0.2924  1.0546
  281SOL     hw 1122   5.232   3.741   1.904  1.9117  0.8483 -1.1297
  281SOL     hw 1123   5.196   3.599   1.942  0.1793  2.1520  2.6435
  281SOL     vw 1124   5.213   3.659   1.881 -0.0112  0.6111  0.9760
  282SOL     ow 1125   5.666   7.525   1.444 -0.0059 -0.2870 -0.5062
  282SOL     hw 1126   5.619   7.601   1.479  1.1536 -0.0827  0.7036
  282SOL     hw 1127   5.758   7.544   1.463  0.4786 -1.1598 -1.8580
  282SOL     vw 1128   5.672   7.538   1.451  0.2110 -0.3750 -0.5249
  283SOL     ow 1129   0.302   3.807   1.590 -0.0676  0.6436 -0.5334
  283SOL     hw 1130   0.387   3.777   1.623  0.1705  0.7592 -1.0308
  283SOL     hw 1131   0.271   3.735   1.535 -1.4311 -0.4598  1.5132
  283SOL     vw 1132   0.309   3.793   1.587 -0.2161  0.5133 -0.3290
  284SOL     ow 1133   7.418   6.389   2.018  0.0353  0.2845  0.0721
  284SOL     hw 1134   7.358   6.358   1.950 -0.2052 -2.3504  1.3459
  284SOL     hw 1135   7.445   6.476   1.988 -2.6026  0.6249 -1.6924
  284SOL     vw 1136   7.414   6.396   2.005 -0.3445 -0.0181  0.0073
  285SOL     ow 1137   0.869   5.503   4.336  0.5382  0.1050 -0.1031
  285SOL     hw 1138   0.851   5.411   4.354 -0.1159  0.3957  0.7293
  285SOL     hw 1139   0.961   5.504   4.307  0.2393 -0.9375 -1.1863
  285SOL     vw 1140   0.879   5.491   4.334  0.4124  0.0057 -0.1361
  286SOL     ow 1141   1.507   5.582   2.459 -0.1036 -0.4164  0.3413
  286SOL     hw 1142   1.571   5.648   2.486  0.5959  0.1306 -2.3446
  286SOL     hw 1143   1.423   5.628   2.457 -0.0616 -0.3140  0.9933
  286SOL     vw 1144   1.504   5.597   2.462 -0.0057 -0.3309  0.0730
  287SOL     ow 1145   1.567   5.225   5.632 -0.0424  0.3206 -1.3199
  287SOL     hw 1146   1.615   5.142   5.638 -0.4599  0.1259 -0.2473
  287SOL     hw 1147   1.475   5.198   5.624 -0.2470  0.6464 -0.3257
  287SOL     vw 1148   1.561   5.210   5.632 -0.1245  0.3378 -1.0471
  288SOL     ow 1149   0.928   6.638   5.140  0.2908  0.2936 -0.4813
  288SOL     hw 1150   0.879   6.680   5.069  0.6001 -0.5369 -1.1968
  288SOL     hw 1151   0.944   6.709   5.202 -1.5994  0.6500 -0.3273
  288SOL     vw 1152   0.924   6.653   5.138  0.0823  0.2310 -0.5555
  289SOL     ow 1153   0.227   4.144   0.662 -0.3441 -0.0893 -0.0722
  289SOL     hw 1154   0.171   4.085   0.712 -0.3883  2.0169  2.5652
  289SOL     hw 1155   0.170   4.180   0.594 -0.8578 -1.4223 -0.3798
  289SOL     vw 1156   0.212   4.141   0.660 -0.4177  0.0126  0.2352
  290SOL     ow 1157   1.068   4.489   1.604 -0.1882 -0.0564 -0.8441
  290SOL     hw 1158   1.101   4.400   1.602 -0.6668 -0.3338  1.1540
  290SOL     hw 1159   0.978   4.483   1.574 -0.4524 -0.3788 -0.0009
  290SOL     vw 1160   1.061   4.477   1.600 -0.2863 -0.1354 -0.4692
  291SOL     ow 1161   5.906   5.231   5.570  0.3038  0.1133  0.5209
  291SOL     hw 1162   5.961   5.155   5.550 -2.1743 -1.7300  0.2541
  291SOL     hw 1163   5.960   5.285   5.629  1.9199 -2.1262  1.2164
  291SOL     vw 1164   5.921   5.228   5.575  0.1900 -0.4253  0.5774
  292SOL     ow 1165   2.209   7.244   1.647 -0.0365 -0.0146  1.0417
  292SOL     hw 1166   2.122   7.204   1.659  0.4245 -0.5659  2.7915
  292SOL     hw 1167   2.270   7.170   1.649  0.6061  0.5183  1.3435
  292SOL     vw 1168   2.205   7.229   1.649  0.1092 -0.0169  1.3124
  293SOL     ow 1169   4.478   2.217   7.053 -0.2236  0.6201  0.5470
  293SOL     hw 1170   4.502   2.303   7.017  0.2372  0.0879 -0.4563
  293SOL     hw 1171   4.559   2.166   7.047 -0.8411 -0.3002 -0.1223
  293SOL     vw 1172   4.492   2.222   7.048 -0.2441  0.4286  0.3264
  294SOL     ow 1173   6.663   2.694   7.585  0.6579  0.4944 -0.3429
  294SOL     hw 1174   6.601   2.767   7.585 -0.2805 -0.2409  1.1914
  294SOL     hw 1175   6.740   2.727   7.539  0.1434  2.3468  0.0658
  294SOL     vw 1176   6.665   2.708   7.579  0.4661  0.6417 -0.0865
  295SOL     ow 1177   4.150   1.790   6.915  0.0413  0.1292  0.3097
  295SOL     hw 1178   4.227   1.840   6.944 -0.3320  0.8924  0.0304
  295SOL     hw 1179   4.127   1.829   6.831  0.5245 -1.4141 -0.5806
  295SOL     vw 1180   4.157   1.802   6.908  0.0558  0.0263  0.1554
  296SOL     ow 1181   2.850   2.593   3.586  0.5556 -0.2175  0.0189
  296SOL     hw 1182   2.918   2.544   3.632  0.8808  0.3004  0.0933
  296SOL     hw 1183   2.769   2.568   3.631  0.9485  0.8442  1.3900
  296SOL     vw 1184   2.848   2.584   3.598  0.6503 -0.0091  0.2096
  297SOL     ow 1185   7.089   1.374   7.260  0.4336 -0.0935  0.2130
  297SOL     hw 1186   7.077   1.349   7.352  1.8011  0.1308  0.4721
  297SOL     hw 1187   7.110   1.467   7.263  1.7433 -0.3504 -0.1972
  297SOL     vw 1188   7.090   1.383   7.273  0.7870 -0.0978  0.1931
  298SOL     ow 1189   3.206   4.610   4.326 -0.0111  0.0534  0.8592
  298SOL     hw 1190   3.135   4.635   4.384 -0.8010 -0.5963  0.1952
  298SOL     hw 1191   3.246   4.693   4.299 -2.5379  0.7178 -1.2720
  298SOL     vw 1192   3.202   4.624   4.330 -0.4486  0.0553  0.4904
  299SOL     ow 1193   3.189   0.836   3.456  0.4477  0.4905  0.5701
  299SOL     hw 1194   3.201   0.886   3.537  2.4241  0.9498  0.0526
  299SOL     hw 1195   3.270   0.851   3.407 -0.8314  0.5053 -1.6592
  299SOL     vw 1196   3.202   0.844   3.460  0.5398  0.5530  0.2077
  300SOL     ow 1197   0.040   5.328   1.833 -0.0397  0.4699  1.0744
  300SOL     hw 1198   0.105   5.336   1.764  0.7042  1.9024  1.8984
  300SOL     hw 1199  -0.014   5.406   1.825  0.2720  0.8348  2.3088
  300SOL     vw 1200   0.042   5.339   1.823  0.0995  0.7069  1.3461
  301SOL     ow 1201   0.572   4.040   0.742 -0.2182  0.9217  0.0676
  301SOL     hw 1202   0.626   4.029   0.820 -0.5744  0.0173  0.1902
  301SOL     hw 1203   0.491   4.079   0.774 -0.3260  0.6424  0.1311
  301SOL     vw 1204   0.569   4.044   0.756 -0.2794  0.7653  0.0922
  302SOL     ow 1205   0.602   2.400   7.010  0.3238 -0.0562 -0.5461
  302SOL     hw 1206   0.580   2.345   6.935 -0.4379 -0.6940  0.1176
  302SOL     hw 1207   0.584   2.489   6.982 -1.6976 -0.4294 -0.5553
  302SOL     vw 1208   0.597   2.405   6.997 -0.0434 -0.1897 -0.4597
  303SOL     ow 1209   7.085   1.457   0.294  0.0499 -0.3683 -0.2713
  303SOL     hw 1210   7.170   1.459   0.338  1.1998  1.0037 -2.3334
  303SOL     hw 1211   7.066   1.365   0.281  0.1509 -0.7661  2.1034
  303SOL     vw 1212   7.094   1.445   0.298  0.2151 -0.2398 -0.2301
  304SOL     ow 1213   3.413   6.652   5.643 -0.7343  0.8458  0.7028
  304SOL     hw 1214   3.375   6.734   5.676 -0.2969  0.8845  1.1129
  304SOL     hw 1215   3.507   6.661   5.659 -0.8011 -0.1728  1.6940
  304SOL     vw 1216   3.420   6.664   5.649 -0.6855  0.7167  0.8879
  305SOL     ow 1217   5.167   5.952   0.374 -0.1335  0.0513  0.4651
  305SOL     hw 1218   5.120   5.958   0.292 -1.7301 -1.3471  1.2159
  305SOL     hw 1219   5.184   6.043   0.400  2.1796  0.5379 -2.2968
  305SOL     vw 1220   5.163   5.965   0.367 -0.0389 -0.0691  0.1997
  306SOL     ow 1221   6.138   1.430   1.390 -0.3392 -0.2010  0.3536
  306SOL     hw 1222   6.073   1.361   1.401  0.9248 -1.2805  1.5060
  306SOL     hw 1223   6.098   1.508   1.430 -2.8351  0.5581 -3.1871
  306SOL     vw 1224   6.124   1.431   1.397 -0.5019 -0.2433  0.0385
  307SOL     ow 1225   3.044   7.046   6.994 -0.2068  0.3210  0.1794
  307SOL     hw 1226   3.133   7.051   7.029  1.0299  3.6950 -2.7436
  307SOL     hw 1227   3.045   6.971   6.934  1.1993  1.1637 -0.8986
  307SOL     vw 1228   3.056   7.037   6.991  0.1419  0.8774 -0.3483
  308SOL     ow 1229   2.321   5.895   6.028 -0.1067  0.1373  0.3192
  308SOL     hw 1230   2.326   5.949   6.107 -0.7407 -0.8457  1.0582
  308SOL     hw 1231   2.264   5.822   6.052 -0.0578 -0.3561 -0.9557
  308SOL     vw 1232   2.314   5.892   6.041 -0.1839 -0.0575  0.2484
  309SOL     ow 1233   1.201   3.622   5.641  0.3383 -0.5163 -0.8865
  309SOL     hw 1234   1.144   3.596   5.714 -1.4239  1.3563 -1.4902
  309SOL     hw 1235   1.141   3.659   5.577  2.2675  2.1255 -1.3301
  309SOL     vw 1236   1.186   3.624   5.642  0.3603  0.0793 -1.0247
  310SOL     ow 1237   1.630   0.720   5.345 -0.2013  1.1064 -0.5498
  310SOL     hw 1238   1.556   0.668   5.315  0.2915  0.7076 -1.0879
  310SOL     hw 1239   1.679   0.742   5.266  1.4380 -0.4682 -0.0397
  310SOL     vw 1240   1.627   0.716   5.331  0.0799  0.8460 -0.5536
  311SOL     ow 1241   0.974   2.303   5.965 -0.1947 -0.0830 -0.0398
  311SOL     hw 1242   0.879   2.297   5.962 -0.2675  1.2534 -2.4788
  311SOL     hw 1243   0.993   2.323   6.057 -2.2392 -0.4164  0.5099
  311SOL     vw 1244   0.964   2.305   5.977 -0.4741  0.0494 -0.2892
  312SOL     ow 1245   5.370   4.457   3.011  0.3236 -0.2116 -0.9871
  312SOL     hw 1246   5.431   4.440   2.939  0.6042  0.2931 -0.8762
  312SOL     hw 1247   5.289   4.484   2.968  0.7480  0.9188 -1.1124
  312SOL     vw 1248   5.367   4.458   2.996  0.4165  0.0041 -0.9890
  313SOL     ow 1249   6.500   5.891   2.266 -0.1696 -0.1284 -0.2144
  313SOL     hw 1250   6.570   5.830   2.244 -0.7075 -2.1311  2.9988
  313SOL     hw 1251   6.420   5.847   2.238 -0.3722  0.9040 -1.3569
  313SOL     vw 1252   6.498   5.877   2.259 -0.2673 -0.2565  0.0589
  314SOL     ow 1253   4.194   6.232   6.712 -0.1701  0.3099 -0.7481
  314SOL     hw 1254   4.236   6.295   6.653 -0.4706 -0.4668 -1.8139
  314SOL     hw 1255   4.267   6.187   6.754  0.0555  1.6409  0.3643
  314SOL     vw 1256   4.209   6.235   6.710 -0.1800  0.3831 -0.7420
  315SOL     ow 1257   3.905   1.585   0.556 -0.3897  0.2805  0.2552
  315SOL     hw 1258   3.902   1.578   0.651  1.7736  1.0184  0.4426
  315SOL     hw 1259   3.949   1.504   0.528  0.4218  0.7829  0.0467
  315SOL     vw 1260   3.911   1.573   0.565  0.0026  0.4442  0.2524
  316SOL     ow 1261   4.630   0.340   2.153  0.1498 -0.2022 -0.9667
  316SOL     hw 1262   4.586   0.425   2.159  0.2090 -0.2473  0.2632
  316SOL     hw 1263   4.561   0.279   2.127 -0.4741 -0.2116  0.6104
  316SOL     vw 1264   4.615   0.343   2.150  0.0746 -0.2094 -0.5964
  317SOL     ow 1265   2.282   6.653   1.432 -0.0398  0.2301  0.0515
  317SOL     hw 1266   2.358   6.659   1.373  0.3522  0.6475  0.5940
  317SOL     hw 1267   2.261   6.744   1.453  0.5234  0.0626  1.4463
  317SOL     vw 1268   2.289   6.666   1.427  0.0862  0.2627  0.3071
  318SOL     ow 1269   6.524   1.438   5.190  0.2776  0.4001 -0.2485
  318SOL     hw 1270   6.486   1.362   5.146 -0.9802  0.0274  1.4088
  318SOL     hw 1271   6.531   1.505   5.121 -0.3786 -0.5870 -1.3002
  318SOL     vw 1272   6.520   1.437   5.175  0.0250  0.2207 -0.1686
  319SOL     ow 1273   2.512   3.291   3.118 -0.0804  0.3562  0.4408
  319SOL     hw 1274   2.428   3.275   3.160  0.5226 -0.5349  1.3552
  319SOL     hw 1275   2.514   3.386   3.102 -2.3258  0.0911 -1.9797
  319SOL     vw 1276   2.501   3.302   3.122 -0.2972  0.2036  0.2420
  320SOL     ow 1277   7.413   4.954   0.772  0.1212 -0.1330 -0.1738
  320SOL     hw 1278   7.331   4.931   0.729  0.6258 -4.5698  0.7732
  320SOL     hw 1279   7.466   4.994   0.704 -1.0658 -1.8702 -2.2250
  320SOL     vw 1280   7.410   4.956   0.758  0.0312 -0.9475 -0.3195
  321SOL     ow 1281   5.126   7.209   4.946  0.7235  0.2767 -0.3134
  321SOL     hw 1282   5.041   7.179   4.914  0.1636  0.7527  0.6572
  321SOL     hw 1283   5.132   7.172   5.034  0.4106  2.1882  0.5780
  321SOL     vw 1284   5.116   7.200   4.954  0.6084  0.5920 -0.0672
  322SOL     ow 1285   0.614   6.169   4.582  0.7745 -0.1374 -0.0018
  322SOL     hw 1286   0.534   6.127   4.553  1.5964 -1.9403  0.2346
  322SOL     hw 1287   0.588   6.219   4.660 -0.2562 -0.0392 -0.3926
  322SOL     vw 1288   0.600   6.170   4.589  0.7469 -0.3624 -0.0222
  323SOL     ow 1289   2.246   5.695   7.267  0.0097 -0.5822 -0.2342
  323SOL     hw 1290   2.201   5.716   7.349 -0.8024 -1.0664 -0.5451
  323SOL     hw 1291   2.182   5.715   7.199  1.5667  2.3940 -0.9716
  323SOL     vw 1292   2.232   5.700   7.269  0.1079 -0.2534 -0.3724
  324SOL     ow 1293   2.550   3.599   4.391 -0.6796  0.2114 -0.1849
  324SOL     hw 1294   2.457   3.607   4.372 -0.9670  0.7574  1.3197
  324SOL     hw 1295   2.593   3.634   4.313 -1.8037  3.1331  0.3840
  324SOL     vw 1296   2.543   3.605   4.378 -0.8658  0.6688  0.0887
  325SOL     ow 1297   0.918   0.944   1.215 -0.8909  0.0305 -0.6117
  325SOL     hw 1298   1.010   0.958   1.238 -1.1761 -1.0269  1.3665
  325SOL     hw 1299   0.883   1.032   1.204 -0.2989  0.6102  1.5530
  325SOL     vw 1300   0.926   0.957   1.217 -0.8504 -0.0325 -0.0651
  326SOL     ow 1301   0.061   5.470   7.226 -0.2138  0.5820 -0.3611
  326SOL     hw 1302  -0.007   5.467   7.293 -2.2887 -2.9006 -2.3536
  326SOL     hw 1303   0.014   5.477   7.143  1.9555  0.0507 -1.7422
  326SOL     vw 1304   0.046   5.470   7.224 -0.2013  0.0525 -0.8066
  327SOL     ow 1305   0.649   2.071   7.523  0.3051 -0.2319  0.7105
  327SOL     hw 1306   0.720   2.107   7.469 -0.6055  1.0616  0.3310
  327SOL     hw 1307   0.627   1.988   7.480  0.7621 -0.0460  0.0934
  327SOL     vw 1308   0.655   2.065   7.510  0.2453 -0.0367  0.5789
  328SOL     ow 1309   3.788   6.299   7.117 -0.7916 -0.0950  0.0726
  328SOL     hw 1310   3.763   6.390   7.101 -1.1330  0.2409  2.2320
  328SOL     hw 1311   3.774   6.287   7.211  3.9357 -0.9169  0.9012
  328SOL     vw 1312   3.783   6.310   7.127 -0.2130 -0.1595  0.4666
  329SOL     ow 1313   2.909   5.763   0.381 -0.2279 -0.4623 -0.4079
  329SOL     hw 1314   2.832   5.820   0.376 -0.8192 -1.3388 -2.0380
  329SOL     hw 1315   2.904   5.723   0.468 -0.2881  1.2472  0.4199
  329SOL     vw 1316   2.898   5.766   0.392 -0.3139 -0.3524 -0.5138
  330SOL     ow 1317   2.631   4.516   5.966 -0.2539 -0.0989 -0.2153
  330SOL     hw 1318   2.624   4.435   6.018 -1.0139  0.0043 -0.1439
  330SOL     hw 1319   2.713   4.556   5.995 -0.9328  0.2489  1.3482
  330SOL     vw 1320   2.641   4.510   5.977 -0.4436 -0.0393  0.0007
  331SOL     ow 1321   1.374   3.358   1.989 -0.2280  0.3782 -0.9665
  331SOL     hw 1322   1.358   3.440   1.942  0.5425  0.4128 -1.1804
  331SOL     hw 1323   1.309   3.358   2.059 -0.7975  0.7607 -1.4795
  331SOL     vw 1324   1.363   3.369   1.992 -0.2015  0.4332 -1.0625
  332SOL     ow 1325   3.193   0.293   3.729 -0.2784 -0.0458 -0.1155
  332SOL     hw 1326   3.238   0.242   3.661  0.5633 -1.2202  1.2641
  332SOL     hw 1327   3.228   0.259   3.812 -0.7984  1.7777  0.9046
  332SOL     vw 1328   3.204   0.282   3.731 -0.2358  0.0398  0.2010
  333SOL     ow 1329   6.678   4.523   3.307  0.0610  0.0678 -0.0288
  333SOL     hw 1330   6.631   4.595   3.349 -1.7063 -0.1281 -1.5442
  333SOL     hw 1331   6.643   4.445   3.349  0.5873  0.0023  0.2931
  333SOL     vw 1332   6.667   4.522   3.318 -0.1028  0.0331 -0.1863
  334SOL     ow 1333   0.654   6.946   4.340 -0.2159  0.5274 -0.7808
  334SOL     hw 1334   0.641   7.032   4.300  1.5333  0.7249 -1.0056
  334SOL     hw 1335   0.749   6.932   4.337 -0.3400 -0.8439  0.4384
  334SOL     vw 1336   0.665   6.956   4.334 -0.0014  0.3722 -0.6497
  335SOL     ow 1337   4.949   2.630   0.090  0.0315  0.0773 -0.1447
  335SOL     hw 1338   5.031   2.603   0.132 -0.4542 -1.1417  0.0673
  335SOL     hw 1339   4.882   2.579   0.135 -0.9349  1.5821  0.1521
  335SOL     vw 1340   4.951   2.620   0.101 -0.1602  0.1149 -0.0776
  336SOL     ow 1341   7.619   4.428   2.294  0.2951  0.2763 -0.5133
  336SOL     hw 1342   7.706   4.402   2.262 -0.4779 -4.2200  0.3448
  336SOL     hw 1343   7.637   4.478   2.374  2.2813 -2.7893  1.1831
  336SOL     vw 1344   7.633   4.431   2.300  0.4552 -0.7215 -0.1763
  337SOL     ow 1345   5.170   1.343   2.752 -0.4629  0.1268  0.1523
  337SOL     hw 1346   5.175   1.363   2.846  0.6991 -1.0665  0.3658
  337SOL     hw 1347   5.244   1.285   2.736 -1.6908 -1.1451 -1.1469
  337SOL     vw 1348   5.180   1.338   2.762 -0.4716 -0.1985  0.0091
  338SOL     ow 1349   0.458   1.909   6.060 -0.1041  0.9678 -0.2068
  338SOL     hw 1350   0.426   1.958   5.984  0.2706  0.0687 -0.9811
  338SOL     hw 1351   0.542   1.873   6.030 -0.4463 -0.2556  0.2631
  338SOL     vw 1352   0.465   1.911   6.046 -0.0998  0.6878 -0.2468
  339SOL     ow 1353   4.114   1.605   5.951 -0.8096  0.3421 -0.3430
  339SOL     hw 1354   4.172   1.585   6.025 -4.2622 -3.2384  1.7816
  339SOL     hw 1355   4.134   1.538   5.886 -2.0901 -0.5845  0.1831
  339SOL     vw 1356   4.124   1.593   5.952 -1.4338 -0.2526  0.0067
  340SOL     ow 1357   2.098   0.457   6.977 -0.4184 -0.2677  0.0804
  340SOL     hw 1358   2.081   0.540   6.932  1.2907  0.5159  0.7988
  340SOL     hw 1359   2.175   0.422   6.934  0.0270 -0.5099  1.0414
  340SOL     vw 1360   2.106   0.464   6.966 -0.1342 -0.1962  0.3018
  341SOL     ow 1361   0.363   3.183   0.568 -0.0581  0.1223  0.1451
  341SOL     hw 1362   0.450   3.194   0.605  0.7992  1.3681 -2.0462
  341SOL     hw 1363   0.318   3.265   0.587 -1.3585 -1.0161  2.5006
  341SOL     vw 1364   0.368   3.195   0.575 -0.1166  0.1364  0.1668
  342SOL     ow 1365   4.405   5.377   0.163 -0.0654 -0.3558  0.3753
  342SOL     hw 1366   4.411   5.284   0.139 -0.8836 -0.1676 -0.6153
  342SOL     hw 1367   4.492   5.412   0.144  0.3594 -0.9847  1.0897
  342SOL     vw 1368   4.418   5.369   0.157 -0.1173 -0.4141  0.3389
  343SOL     ow 1369   3.188   6.223   7.202 -0.0721  0.6027  1.0471
  343SOL     hw 1370   3.150   6.280   7.135 -0.3013  0.1865  0.8239
  343SOL     hw 1371   3.113   6.183   7.246  0.0946 -0.5584  0.3184
  343SOL     vw 1372   3.173   6.225   7.199 -0.0805  0.3948  0.9217
  344SOL     ow 1373   5.654   2.321   7.284  0.0230 -0.1388 -0.6421
  344SOL     hw 1374   5.582   2.383   7.295 -0.8371 -1.4822  2.2371
  344SOL     hw 1375   5.611   2.235   7.281  1.4394 -0.9201  0.3018
  344SOL     vw 1376   5.639   2.318   7.285  0.0966 -0.4190 -0.1380
  345SOL     ow 1377   6.031   7.591   1.262 -0.5936  0.8624 -0.1883
  345SOL     hw 1378   5.963   7.535   1.224  0.7940 -3.0189  2.5515
  345SOL     hw 1379   6.113   7.559   1.225  0.1909  2.0575  0.4350
  345SOL     vw 1380   6.033   7.580   1.252 -0.3071  0.5083  0.2555
  346SOL     ow 1381   7.310   6.387   1.546 -0.5987 -0.4354  0.5878
  346SOL     hw 1382   7.317   6.301   1.504  0.9908 -0.2273  0.3779
  346SOL     hw 1383   7.226   6.422   1.514 -1.0360 -1.6944  0.2956
  346SOL     vw 1384   7.300   6.380   1.536 -0.4468 -0.5744  0.5215
  347SOL     ow 1385   7.630   5.464   1.492  0.3101 -0.2108 -0.2336
  347SOL     hw 1386   7.688   5.402   1.537  1.5054  0.3866 -0.9264
  347SOL     hw 1387   7.657   5.461   1.401 -1.9152 -1.2030 -0.9364
  347SOL     vw 1388   7.641   5.455   1.486  0.1743 -0.2627 -0.4177
  348SOL     ow 1389   3.688   5.207   3.046  0.2433  0.9292 -0.8246
  348SOL     hw 1390   3.763   5.266   3.053 -1.5697  3.4139 -0.9669
  348SOL     hw 1391   3.640   5.219   3.128  0.3990 -1.2998 -0.3497
  348SOL     vw 1392   3.692   5.217   3.058  0.0247  0.9627 -0.7807
  349SOL     ow 1393   1.789   5.240   3.139 -0.7569  0.9440  0.7623
  349SOL     hw 1394   1.747   5.196   3.065 -0.6999 -0.6553  1.6323
  349SOL     hw 1395   1.853   5.177   3.171 -1.2510  1.3084  2.5978
  349SOL     vw 1396   1.792   5.226   3.134 -0.8146  0.7813  1.1193
  350SOL     ow 1397   6.366   0.528   6.490 -0.0020  0.0349  0.1380
  350SOL     hw 1398   6.368   0.623   6.485  1.1739  0.0333  0.2376
  350SOL     hw 1399   6.351   0.499   6.401  1.4374  0.3036 -0.2227
  350SOL     vw 1400   6.364   0.537   6.478  0.3433  0.0702  0.1032
  351SOL     ow 1401   5.776   6.705   5.851  0.1798 -0.3819 -0.3865
  351SOL     hw 1402   5.736   6.680   5.933  1.2551 -0.2142  0.2163
  351SOL     hw 1403   5.769   6.628   5.795 -2.7989  0.2833 -1.0671
  351SOL     vw 1404   5.770   6.692   5.854 -0.0715 -0.2720 -0.3970
  352SOL     ow 1405   3.027   5.821   5.812  0.9102  0.2296 -0.0254
  352SOL     hw 1406   3.121   5.807   5.819  1.1813  0.4277 -2.3958
  352SOL     hw 1407   3.016   5.915   5.803  0.7299  0.0669 -1.9295
  352SOL     vw 1408   3.038   5.831   5.811  0.9222  0.2341 -0.5894
  353SOL     ow 1409   6.532   5.938   5.403  0.3103  0.5963  0.2201
  353SOL     hw 1410   6.508   6.027   5.376 -0.2438  0.6033  0.7193
  353SOL     hw 1411   6.624   5.929   5.376  0.2448  1.1710 -0.2050
  353SOL     vw 1412   6.541   5.949   5.396  0.2286  0.6733  0.2298
  354SOL     ow 1413   4.247   4.401   0.507  0.3398 -0.3389  0.1293
  354SOL     hw 1414   4.311   4.362   0.566 -0.3264 -1.7094 -0.0142
  354SOL     hw 1415   4.289   4.480   0.474  0.8272  0.3433  2.2417
  354SOL     vw 1416   4.261   4.406   0.511  0.3161 -0.4296  0.3890
  355SOL     ow 1417   6.711   1.794   3.367  0.3654 -0.3980 -0.7337
  355SOL     hw 1418   6.796   1.773   3.405  0.0960  1.5503  1.1590
  355SOL     hw 1419   6.647   1.760   3.429 -0.2027 -0.6861 -1.4677
  355SOL     vw 1420   6.714   1.787   3.380  0.2551 -0.1790 -0.5808
  356SOL     ow 1421   0.366   2.938   3.487 -0.1719  0.1528 -0.1827
  356SOL     hw 1422   0.398   3.022   3.521  0.9867 -0.4938  0.3712
  356SOL     hw 1423   0.318   2.962   3.408  2.3579  1.1409 -1.5312
  356SOL     vw 1424   0.364   2.952   3.481  0.3147  0.1978 -0.2875
  357SOL     ow 1425   4.021   6.942   7.259 -0.2214 -0.5121 -0.1343
  357SOL     hw 1426   4.103   6.946   7.209 -1.0426  0.7934 -1.4613
  357SOL     hw 1427   4.005   6.848   7.270  0.0626 -0.8784 -2.2843
  357SOL     vw 1428   4.029   6.930   7.254 -0.2923 -0.3881 -0.5929
  358SOL     ow 1429   2.352   2.094   4.752 -0.2656 -0.4209 -0.3847
  358SOL     hw 1430   2.285   2.141   4.802 -1.5601  0.0464 -2.4222
  358SOL     hw 1431   2.360   2.009   4.796 -1.5254 -0.1390  0.4414
  358SOL     vw 1432   2.344   2.089   4.765 -0.6027 -0.3221 -0.5445
  359SOL     ow 1433   5.468   4.955   6.882 -0.0174  0.0744 -0.1402
  359SOL     hw 1434   5.398   4.911   6.931 -0.0381 -0.6274 -0.7839
  359SOL     hw 1435   5.439   5.046   6.876 -0.9061 -0.2186 -0.4361
  359SOL     vw 1436   5.455   4.961   6.888 -0.1373 -0.0570 -0.2639
  360SOL     ow 1437   1.093   6.838   2.600 -0.5522  0.5483 -0.0083
  360SOL     hw 1438   1.034   6.888   2.657 -2.5061 -2.2327  0.5815
  360SOL     hw 1439   1.044   6.826   2.519 -0.1340 -0.4142 -0.1330
  360SOL     vw 1440   1.079   6.843   2.597 -0.7548  0.0546  0.0530
  361SOL     ow 1441   5.439   4.640   1.544  0.1301  0.1389  0.3780
  361SOL     hw 1442   5.424   4.699   1.618 -1.5147  2.0804 -1.3778
  361SOL     hw 1443   5.535   4.638   1.534  0.3061  4.2822 -0.6796
  361SOL     vw 1444   5.450   4.648   1.553 -0.0639  0.9418  0.0067
  362SOL     ow 1445   0.411   1.651   0.884  0.6269  0.3897 -0.3747
  362SOL     hw 1446   0.321   1.664   0.911  0.4825  0.5059 -0.9135
  362SOL     hw 1447   0.433   1.728   0.833  0.1730 -0.8063 -2.4882
  362SOL     vw 1448   0.402   1.663   0.881  0.5480  0.2472 -0.7247
  363SOL     ow 1449   0.049   5.445   6.263  0.3137 -0.5254  0.1846
  363SOL     hw 1450   0.007   5.524   6.297 -0.0682  0.5860 -2.5745
  363SOL     hw 1451   0.142   5.456   6.282  0.6359  1.8704 -2.1544
  363SOL     vw 1452   0.056   5.457   6.270  0.3058 -0.0629 -0.4880
  364SOL     ow 1453   2.215   2.806   7.430 -0.0981  0.1880 -0.4777
  364SOL     hw 1454   2.160   2.840   7.359 -1.0943 -0.1635  0.1145
  364SOL     hw 1455   2.200   2.866   7.503  0.6438  0.3338 -0.4330
  364SOL     vw 1456   2.206   2.818   7.430 -0.1316  0.1608 -0.3939
  365SOL     ow 1457   1.492   7.171   4.361  0.0242 -0.0213  0.3459
  365SOL     hw 1458   1.545   7.107   4.408  0.2277 -1.0120 -1.1429
  365SOL     hw 1459   1.405   7.163   4.398  1.0810  2.8486  4.0708
  365SOL     vw 1460   1.488   7.162   4.372  0.1905  0.2267  0.6409
  366SOL     ow 1461   5.439   4.789   1.755  0.0575 -0.4978  0.4906
  366SOL     hw 1462   5.428   4.863   1.695 -1.8879 -1.3702 -0.3057
  366SOL     hw 1463   5.353   4.778   1.795 -0.1045 -3.1086 -0.3903
  366SOL     vw 1464   5.427   4.797   1.752 -0.2205 -0.9575  0.2693
  367SOL     ow 1465   0.952   6.475   4.925  1.4647 -0.2175  0.2733
  367SOL     hw 1466   0.965   6.526   5.005  0.1541 -0.0312  0.3841
  367SOL     hw 1467   1.001   6.394   4.940  2.9113  0.6533  0.4186
  367SOL     vw 1468   0.960   6.471   4.937  1.4826 -0.0782  0.3071
  368SOL     ow 1469   0.931   6.863   5.723  0.1635  0.2311 -0.4663
  368SOL     hw 1470   0.894   6.920   5.655 -0.3174  0.9137  0.3467
  368SOL     hw 1471   0.907   6.905   5.805  0.0309 -1.0154  0.1556
  368SOL     vw 1472   0.923   6.876   5.725  0.0826  0.1569 -0.2770
  369SOL     ow 1473   2.391   6.448   4.652 -0.0141  0.1960 -0.4229
  369SOL     hw 1474   2.298   6.465   4.638  0.3466  1.3630 -1.5815
  369SOL     hw 1475   2.433   6.474   4.570  1.3851  0.1311  0.2460
  369SOL     vw 1476   2.384   6.454   4.639  0.2179  0.3412 -0.4876
  370SOL     ow 1477   0.883   0.949   1.598 -0.2130  0.1687  0.1690
  370SOL     hw 1478   0.947   0.988   1.657 -1.0176  2.2690 -0.2582
  370SOL     hw 1479   0.836   0.886   1.652  3.0629 -2.5868  0.1419
  370SOL     vw 1480   0.885   0.946   1.613  0.1130  0.0823  0.1090
  371SOL     ow 1481   7.259   0.891   6.254  0.0273  0.1376  0.4379
  371SOL     hw 1482   7.171   0.928   6.258 -0.8195 -1.8198  0.8411
  371SOL     hw 1483   7.253   0.824   6.186  1.5126  0.6824 -0.2665
  371SOL     vw 1484   7.246   0.887   6.246  0.1113 -0.0488  0.3982
  372SOL     ow 1485   7.595   6.418   0.507 -0.0215 -0.3247 -0.0873
  372SOL     hw 1486   7.680   6.452   0.534  0.9625 -1.7698 -1.1852
  372SOL     hw 1487   7.562   6.483   0.444 -0.4513  0.9840  1.4371
  372SOL     vw 1488   7.602   6.431   0.502  0.0517 -0.3428 -0.0311
  373SOL     ow 1489   6.937   0.884   7.166  0.1318  0.6454  0.3237
  373SOL     hw 1490   6.929   0.915   7.257  1.4303  2.1081 -0.0149
  373SOL     hw 1491   6.850   0.896   7.129 -0.2187  0.7721  1.1687
  373SOL     vw 1492   6.925   0.890   7.173  0.2568  0.8551  0.3903
  374SOL     ow 1493   5.982   4.600   2.993  0.5425 -0.4580  0.3641
  374SOL     hw 1494   6.013   4.645   3.071 -1.1371 -1.9573  1.9667
  374SOL     hw 1495   5.998   4.507   3.010  1.1829 -0.7732 -1.5959
  374SOL     vw 1496   5.988   4.594   3.005  0.4055 -0.6974  0.3170
  375SOL     ow 1497   1.501   4.161   2.245 -0.4375  0.4098  0.1114
  375SOL     hw 1498   1.592   4.132   2.255 -0.6435  0.0115  0.9127
  375SOL     hw 1499   1.504   4.255   2.261 -0.7984 -0.1491  5.2667
  375SOL     vw 1500   1.513   4.170   2.249 -0.5123  0.2832  0.8973
  376SOL     ow 1501   2.125   5.637   7.022 -0.0985  0.2778 -0.3348
  376SOL     hw 1502   2.169   5.592   6.950  1.0900  1.1314 -0.1656
  376SOL     hw 1503   2.120   5.572   7.092  1.0461  0.1971 -0.3075
  376SOL     vw 1504   2.130   5.622   7.022  0.2092  0.3800 -0.3088
  377SOL     ow 1505   0.213   0.795   6.620  0.2900  0.5565  0.7748
  377SOL     hw 1506   0.294   0.846   6.626  1.2371 -0.6664 -0.7582
  377SOL     hw 1507   0.144   0.860   6.618  1.4941  1.9388 -2.1339
  377SOL     vw 1508   0.215   0.810   6.621  0.5739  0.5776  0.1888
  378SOL     ow 1509   2.690   1.318   0.837  0.5531  0.2122 -0.3457
  378SOL     hw 1510   2.715   1.271   0.917  0.6623  0.3862 -0.2760
  378SOL     hw 1511   2.703   1.254   0.767  0.2682 -0.0033 -0.2023
  378SOL     vw 1512   2.695   1.303   0.838  0.5300  0.2067 -0.3175
  379SOL     ow 1513   1.681   1.275   3.695  0.3642 -0.6348  0.2762
  379SOL     hw 1514   1.699   1.181   3.684  0.4435 -0.5377 -0.4444
  379SOL     hw 1515   1.612   1.294   3.632 -0.8770 -0.5571  1.5958
  379SOL     vw 1516   1.675   1.265   3.686  0.2109 -0.6118  0.3551
  380SOL     ow 1517   5.478   1.533   6.618  0.2951  0.2562 -0.1766
  380SOL     hw 1518   5.536   1.608   6.615 -1.4832  1.6742 -1.0712
  380SOL     hw 1519   5.431   1.542   6.701  2.9056 -2.2501  1.7968
  380SOL     vw 1520   5.479   1.544   6.628  0.4048  0.1125 -0.0341
  381SOL     ow 1521   7.186   2.771   0.195 -0.3927 -0.6848 -0.1029
  381SOL     hw 1522   7.168   2.715   0.270 -2.0653  0.7952  0.6760
  381SOL     hw 1523   7.151   2.857   0.219 -0.4865 -0.0064 -2.3427
  381SOL     vw 1524   7.179   2.775   0.208 -0.6258 -0.4001 -0.2956
  382SOL     ow 1525   4.013   1.921   1.614  0.4405  0.3355 -0.2541
  382SOL     hw 1526   4.106   1.917   1.594  0.6634  2.1815  0.1469
  382SOL     hw 1527   4.006   1.992   1.678 -1.4404  1.5539 -1.6875
  382SOL     vw 1528   4.024   1.930   1.620  0.2222  0.7398 -0.3904
  383SOL     ow 1529   1.412   1.356   4.441  0.2866  0.1425 -0.2473
  383SOL     hw 1530   1.437   1.266   4.420 -0.9416 -0.7807  1.8840
  383SOL     hw 1531   1.495   1.402   4.453  1.0404 -1.5669  1.7829
  383SOL     vw 1532   1.426   1.350   4.440  0.2241 -0.2048  0.3016
  384SOL     ow 1533   7.133   6.177   0.337 -0.1299  0.5332 -0.2437
  384SOL     hw 1534   7.175   6.255   0.373  2.6613 -1.4361  1.1272
  384SOL     hw 1535   7.142   6.186   0.242 -2.0108  2.8962 -0.2815
  384SOL     vw 1536   7.139   6.188   0.330 -0.0100  0.5853 -0.0679
  385SOL     ow 1537   2.591   5.411   5.993  0.1669  0.6206 -0.4521
  385SOL     hw 1538   2.535   5.373   5.925 -1.2231  2.4637 -0.4301
  385SOL     hw 1539   2.668   5.354   5.995 -1.3074 -1.5591 -1.0799
  385SOL     vw 1540   2.594   5.398   5.984 -0.2109  0.5760 -0.5319
  386SOL     ow 1541   2.275   6.119   6.197 -0.0786  0.1983  0.3619
  386SOL     hw 1542   2.214   6.113   6.271 -0.1536 -3.2878  0.1852
  386SOL     hw 1543   2.359   6.140   6.237 -0.6225  1.1097  1.0740
  386SOL     vw 1544   2.278   6.121   6.212 -0.1603 -0.1414  0.4325
  387SOL     ow 1545   0.160   7.552   5.935 -0.3250 -0.5656 -0.5669
  387SOL     hw 1546   0.216   7.496   5.881 -0.9728 -1.9582  0.1779
  387SOL     hw 1547   0.168   7.517   6.023 -0.8221  0.4678 -0.0933
  387SOL     vw 1548   0.168   7.540   5.939 -0.4761 -0.6127 -0.4063
  388SOL     ow 1549   0.930   4.869   7.233  0.0421  0.2869  0.7821
  388SOL     hw 1550   0.847   4.875   7.280 -1.5769  0.5879 -1.9276
  388SOL     hw 1551   0.909   4.825   7.151  2.0772  2.2942 -0.9838
  388SOL     vw 1552   0.917   4.864   7.228  0.0970  0.5915  0.1915
  389SOL     ow 1553   6.714   2.371   0.674 -0.0950 -0.1747  0.0908
  389SOL     hw 1554   6.658   2.421   0.733 -0.9379 -0.7650 -0.1892
  389SOL     hw 1555   6.788   2.429   0.657  0.1083  0.0514  1.6228
  389SOL     vw 1556   6.716   2.385   0.679 -0.1793 -0.2228  0.2561
  390SOL     ow 1557   2.227   5.771   6.318  1.1981  0.0001  0.3261
  390SOL     hw 1558   2.215   5.719   6.238  1.2738  3.1330 -1.9050
  390SOL     hw 1559   2.140   5.775   6.357  1.0751 -1.2621  0.2171
  390SOL     vw 1560   2.214   5.764   6.313  1.1919  0.2470  0.0174
  391SOL     ow 1561   0.104   4.837   1.261  0.0722  0.8370 -0.5518
  391SOL     hw 1562   0.194   4.803   1.264  0.0584  0.7365 -1.2023
  391SOL     hw 1563   0.055   4.769   1.215 -0.7697 -0.0529  1.5290
  391SOL     vw 1564   0.109   4.823   1.255 -0.0407  0.7064 -0.3631
  392SOL     ow 1565   7.142   0.935   6.584  0.1127  0.4992 -0.0918
  392SOL     hw 1566   7.087   0.939   6.506  0.2427  0.1472 -0.2035
  392SOL     hw 1567   7.230   0.958   6.552 -0.0588  1.6151  0.1868
  392SOL     vw 1568   7.146   0.939   6.569  0.1070  0.6000 -0.0696
  393SOL     ow 1569   2.523   2.204   5.809 -0.0711 -0.7639  0.0196
  393SOL     hw 1570   2.443   2.202   5.758 -0.2570  3.6312 -0.2575
  393SOL     hw 1571   2.594   2.195   5.745 -0.3092 -1.0733 -0.2000
  393SOL     vw 1572   2.522   2.202   5.794 -0.1272 -0.2248 -0.0458
  394SOL     ow 1573   4.891   0.342   0.313 -0.3101  0.1020 -0.2717
  394SOL     hw 1574   4.964   0.388   0.354 -0.2929 -0.4538  0.3434
  394SOL     hw 1575   4.848   0.408   0.259  0.2036  0.6222 -0.0559
  394SOL     vw 1576   4.895   0.357   0.311 -0.2398  0.0973 -0.1621
  395SOL     ow 1577   1.409   0.610   2.327  0.2744  0.5288  0.6194
  395SOL     hw 1578   1.336   0.605   2.265 -0.5766  3.0824  1.3054
  395SOL     hw 1579   1.480   0.560   2.286 -0.8650  0.5673 -1.4907
  395SOL     vw 1580   1.409   0.603   2.314  0.0117  0.8708  0.4315
  396SOL     ow 1581   2.083   6.995   3.542 -0.1094  0.5657  0.6413
  396SOL     hw 1582   2.076   6.908   3.581 -2.5826 -0.1130 -1.0792
  396SOL     hw 1583   2.157   6.989   3.482  0.4176  0.0018  1.3362
  396SOL     vw 1584   2.091   6.983   3.539 -0.3662  0.4020  0.5060
  397SOL     ow 1585   0.953   2.233   4.845  0.6643  0.4897  0.2924
  397SOL     hw 1586   0.878   2.270   4.800  0.7540 -1.3091 -1.4531
  397SOL     hw 1587   0.932   2.241   4.938 -1.3489  0.7042 -0.1538
  397SOL     vw 1588   0.941   2.239   4.852  0.4105  0.2807  0.0031
  398SOL     ow 1589   2.846   3.244   5.283  0.1050 -0.6153 -0.5374
  398SOL     hw 1590   2.751   3.244   5.292  0.1791  1.3225  1.0415
  398SOL     hw 1591   2.861   3.274   5.193 -0.7804 -0.6642 -0.7160
  398SOL     vw 1592   2.835   3.248   5.272 -0.0020 -0.3661 -0.3526
  399SOL     ow 1593   3.898   3.885   0.473  0.3478  0.2329 -0.4081
  399SOL     hw 1594   3.897   3.860   0.381 -1.6947 -0.3118 -0.2945
  399SOL     hw 1595   3.839   3.822   0.515  0.5237  1.0436  1.1083
  399SOL     vw 1596   3.890   3.873   0.467  0.1014  0.2680 -0.1930
  400SOL     ow 1597   1.321   5.919   4.758 -0.0456 -0.1122 -0.8164
  400SOL     hw 1598   1.313   5.854   4.688 -0.0859 -0.2499 -0.6825
  400SOL     hw 1599   1.245   5.975   4.747  1.1206  1.2784 -2.3377
  400SOL     vw 1600   1.310   5.918   4.747  0.1029  0.0534 -0.9995
  401SOL     ow 1601   2.644   3.609   2.229 -0.0447  0.8261 -0.4139
  401SOL     hw 1602   2.555   3.609   2.266 -0.0449 -0.6620 -0.3642
  401SOL     hw 1603   2.638   3.551   2.153  0.4391  2.2811 -1.5996
  401SOL     vw 1604   2.631   3.601   2.224  0.0192  0.8217 -0.5637
  402SOL     ow 1605   6.104   1.200   2.443 -0.4575 -0.9607 -0.7411
  402SOL     hw 1606   6.049   1.212   2.365 -2.2746  1.2195  0.7547
  402SOL     hw 1607   6.192   1.186   2.408 -1.2360 -0.2572 -3.1918
  402SOL     vw 1608   6.108   1.199   2.428 -0.8001 -0.5803 -0.8672
  403SOL     ow 1609   5.415   3.607   3.740  0.7830  0.1918 -0.1974
  403SOL     hw 1610   5.463   3.529   3.770  0.2426 -0.5008 -1.0510
  403SOL     hw 1611   5.369   3.638   3.818 -0.2141 -1.2728 -0.1472
  403SOL     vw 1612   5.415   3.601   3.754  0.5801 -0.0927 -0.3034
  404SOL     ow 1613   1.690   1.296   4.113  0.0482 -0.0362 -0.0496
  404SOL     hw 1614   1.611   1.350   4.109  0.3921  0.4193 -1.0580
  404SOL     hw 1615   1.688   1.256   4.200 -0.7199  0.8289  0.3423
  404SOL     vw 1616   1.679   1.298   4.124 -0.0077  0.1380 -0.1309
  405SOL     ow 1617   0.247   2.132   6.471  0.0512 -0.2868  0.2537
  405SOL     hw 1618   0.192   2.111   6.547  0.1373 -1.0293  0.1191
  405SOL     hw 1619   0.192   2.185   6.415 -0.4251 -0.7541  0.2743
  405SOL     vw 1620   0.233   2.136   6.474 -0.0003 -0.4464  0.2389
  406SOL     ow 1621   5.398   3.967   1.542 -0.4919 -0.0278  0.8957
  406SOL     hw 1622   5.396   4.052   1.584  1.5725 -0.2169  1.4692
  406SOL     hw 1623   5.488   3.937   1.551 -0.2190 -0.6835 -2.4883
  406SOL     vw 1624   5.409   3.974   1.548 -0.1836 -0.1394  0.5250
  407SOL     ow 1625   1.981   4.435   0.119  0.1028  0.5636  0.3524
  407SOL     hw 1626   2.067   4.425   0.078  1.6275 -1.7215  3.7299
  407SOL     hw 1627   1.919   4.416   0.048  2.4044 -0.3666 -1.5499
  407SOL     vw 1628   1.984   4.431   0.104  0.6077  0.1395  0.5470
  408SOL     ow 1629   0.740   4.368   6.027 -0.4483 -0.4762  0.1907
  408SOL     hw 1630   0.809   4.321   6.076  0.5737 -1.6036 -2.1720
  408SOL     hw 1631   0.692   4.299   5.982 -1.4874  0.5113 -0.2501
  408SOL     vw 1632   0.743   4.352   6.028 -0.4506 -0.4945 -0.1793
  409SOL     ow 1633   0.951   6.966   2.826 -0.8381 -0.1592 -0.0199
  409SOL     hw 1634   1.029   6.994   2.874 -0.1055 -1.7405 -0.1894
  409SOL     hw 1635   0.898   7.045   2.817  0.9407  1.0618 -0.2795
  409SOL     vw 1636   0.954   6.980   2.831 -0.5068 -0.2067 -0.0765
  410SOL     ow 1637   4.342   6.806   2.252 -0.1630  0.5447 -0.1083
  410SOL     hw 1638   4.432   6.787   2.226  0.3710  0.6643  1.5203
  410SOL     hw 1639   4.332   6.899   2.233  1.0545  1.2390  2.2488
  410SOL     vw 1640   4.353   6.816   2.246  0.0682  0.6521  0.4176
  411SOL     ow 1641   5.757   4.312   3.733  0.1947 -0.6959 -0.2155
  411SOL     hw 1642   5.706   4.238   3.766 -0.4466 -0.4760 -0.6783
  411SOL     hw 1643   5.691   4.372   3.696  0.6824  0.2138  0.3552
  411SOL     vw 1644   5.742   4.310   3.732  0.1745 -0.5467 -0.2012
  412SOL     ow 1645   6.932   3.089   2.783 -0.1093  0.4087 -0.2034
  412SOL     hw 1646   6.893   3.171   2.753  0.4273  0.2124 -1.5164
  412SOL     hw 1647   6.965   3.048   2.703  0.3225 -0.7230  0.5328
  412SOL     vw 1648   6.931   3.094   2.769  0.0186  0.2334 -0.2795
  413SOL     ow 1649   2.787   4.035   7.024  0.6609  0.0234 -0.6060
  413SOL     hw 1650   2.849   3.962   7.018 -0.0506 -0.6514 -0.0250
  413SOL     hw 1651   2.742   4.021   7.107  1.0465  1.5734 -0.1095
  413SOL     vw 1652   2.789   4.023   7.034  0.6180  0.1390 -0.4637
  414SOL     ow 1653   2.005   4.287   5.053 -0.1886  0.3480 -0.5085
  414SOL     hw 1654   2.086   4.307   5.006 -0.7719 -1.1384 -2.2651
  414SOL     hw 1655   2.017   4.327   5.140  0.9512  3.2249 -1.8473
  414SOL     vw 1656   2.018   4.295   5.058 -0.1153  0.5312 -0.9170
  415SOL     ow 1657   2.299   6.989   3.873  1.0037  0.3687 -0.3413
  415SOL     hw 1658   2.355   6.914   3.859  0.9933  0.0087  1.3201
  415SOL     hw 1659   2.359   7.063   3.880  1.0152  0.5538 -1.9466
  415SOL     vw 1660   2.314   6.989   3.872  1.0040  0.3455 -0.3339
  416SOL     ow 1661   1.342   6.274   5.721 -0.4792  0.7117  0.1180
  416SOL     hw 1662   1.378   6.302   5.637  0.5007 -0.4531  0.1231
  416SOL     hw 1663   1.274   6.211   5.699 -0.7565  0.9830  0.1864
  416SOL     vw 1664   1.338   6.269   5.707 -0.3865  0.5941  0.1276
  417SOL     ow 1665   3.220   1.305   1.861  0.2661 -0.0652 -0.6049
  417SOL     hw 1666   3.205   1.218   1.897  2.2843 -0.4541 -0.5799
  417SOL     hw 1667   3.239   1.290   1.768 -0.3951  0.4643 -0.8332
  417SOL     vw 1668   3.220   1.291   1.853  0.4451 -0.0467 -0.6317
  418SOL     ow 1669   4.842   3.707   7.277 -0.2896 -0.6416 -0.2247
  418SOL     hw 1670   4.904   3.636   7.255 -0.7693 -1.9064  2.1791
  418SOL     hw 1671   4.888   3.787   7.253  1.3582 -1.6523 -0.6261
  418SOL     vw 1672   4.856   3.708   7.271 -0.1357 -0.9418  0.0396
  419SOL     ow 1673   7.422   7.091   3.020 -0.2935 -0.6554  0.1951
  419SOL     hw 1674   7.511   7.076   2.986  0.2550 -0.1318  1.3385
  419SOL     hw 1675   7.422   7.184   3.044 -1.3841 -0.4821 -0.4164
  419SOL     vw 1676   7.434   7.102   3.018 -0.3650 -0.5634  0.2651
  420SOL     ow 1677   2.781   3.849   2.473 -0.1489  0.1476 -0.3262
  420SOL     hw 1678   2.740   3.925   2.432  1.5676  0.1008 -2.3460
  420SOL     hw 1679   2.733   3.836   2.555 -2.0769  1.8900 -1.0898
  420SOL     vw 1680   2.769   3.857   2.478 -0.1767  0.3713 -0.6933
  421SOL     ow 1681   7.461   5.397   6.565 -0.2511  0.2573 -0.4236
  421SOL     hw 1682   7.386   5.342   6.539 -0.1233 -0.1557  0.0678
  421SOL     hw 1683   7.469   5.460   6.494  0.3688 -1.1268 -1.6498
  421SOL     vw 1684   7.452   5.398   6.552 -0.1526  0.0200 -0.5207
  422SOL     ow 1685   3.944   4.591   0.717  0.6902  0.5570  0.5942
  422SOL     hw 1686   3.890   4.644   0.658  0.0020 -1.6798 -0.9333
  422SOL     hw 1687   3.883   4.556   0.781  0.9118  0.6348  0.8485
  422SOL     vw 1688   3.929   4.594   0.718  0.6286  0.2723  0.4262
  423SOL     ow 1689   3.348   0.509   5.358  0.0562  0.1234  0.1270
  423SOL     hw 1690   3.406   0.437   5.384  0.2264  1.0507  2.5810
  423SOL     hw 1691   3.407   0.578   5.327  0.0019 -0.1308 -0.5698
  423SOL     vw 1692   3.364   0.509   5.357  0.0714  0.2122  0.3591
  424SOL     ow 1693   2.919   7.240   2.119 -0.5591  0.3442 -0.7574
  424SOL     hw 1694   2.977   7.312   2.097 -0.4752 -0.1116 -2.0880
  424SOL     hw 1695   2.844   7.249   2.061 -0.5642 -0.6156 -0.9285
  424SOL     vw 1696   2.917   7.250   2.109 -0.5488  0.1574 -0.9556
  425SOL     ow 1697   4.400   3.127   2.706 -0.0235  0.0771 -0.3719
  425SOL     hw 1698   4.476   3.153   2.654 -0.3912  0.0654 -0.9312
  425SOL     hw 1699   4.436   3.090   2.786  0.5412  1.1428 -0.1205
  425SOL     vw 1700   4.415   3.126   2.710  0.0029  0.2162 -0.4126
  426SOL     ow 1701   3.750   6.219   3.401  0.1149  0.3911 -0.5423
  426SOL     hw 1702   3.743   6.125   3.382  1.6394  0.1763 -0.1911
  426SOL     hw 1703   3.800   6.223   3.483 -0.1381  1.5100 -0.4272
  426SOL     vw 1704   3.756   6.207   3.410  0.2828  0.5102 -0.4809
  427SOL     ow 1705   6.810   5.835   2.866  0.0601  0.3909  0.4753
  427SOL     hw 1706   6.805   5.789   2.950  2.9763  0.3695  0.7311
  427SOL     hw 1707   6.843   5.770   2.804  1.2495  1.2899  0.1273
  427SOL     vw 1708   6.814   5.821   2.869  0.6015  0.5066  0.4631
  428SOL     ow 1709   5.474   4.289   2.091 -0.2146 -0.1729 -0.0812
  428SOL     hw 1710   5.392   4.339   2.090 -0.1611  0.0221  1.5971
  428SOL     hw 1711   5.529   4.336   2.153  0.4660 -1.3917  0.2693
  428SOL     vw 1712   5.471   4.302   2.099 -0.1178 -0.3080  0.1863
  429SOL     ow 1713   1.023   2.281   3.634 -0.1529  0.0112  0.4339
  429SOL     hw 1714   1.043   2.375   3.633  0.8249 -0.1847 -1.1041
  429SOL     hw 1715   1.057   2.248   3.551 -1.0306 -1.6074  0.6753
  429SOL     vw 1716   1.030   2.289   3.623 -0.1398 -0.2283  0.2626
  430SOL     ow 1717   2.668   1.664   4.610 -0.7701 -0.4238  0.8665
  430SOL     hw 1718   2.658   1.759   4.606  0.5224 -0.2234  1.7261
  430SOL     hw 1719   2.661   1.635   4.519 -0.3389  0.5970  0.4940
  430SOL     vw 1720   2.666   1.673   4.597 -0.5428 -0.2627  0.9308
  431SOL     ow 1721   4.496   5.626   3.869 -0.1547  0.0044  0.1194
  431SOL     hw 1722   4.517   5.540   3.832  1.1117  0.7890 -1.0633
  431SOL     hw 1723   4.501   5.613   3.964  2.1555 -0.7654 -0.0365
  431SOL     vw 1724   4.499   5.613   3.877  0.3173  0.0062 -0.0572
  432SOL     ow 1725   3.548   5.601   1.350  0.3995  0.9349  0.2075
  432SOL     hw 1726   3.639   5.618   1.327  0.7678  1.9706  2.2063
  432SOL     hw 1727   3.509   5.688   1.360 -1.5049  0.6006 -2.8139
  432SOL     vw 1728   3.555   5.615   1.348  0.1968  1.0273  0.0726
  433SOL     ow 1729   7.244   5.859   4.541 -0.3549 -0.4989 -0.3402
  433SOL     hw 1730   7.220   5.917   4.613  1.2232  0.3254 -0.4359
  433SOL     hw 1731   7.337   5.877   4.526 -0.1907 -2.0234 -1.3324
  433SOL     vw 1732   7.253   5.869   4.548 -0.1249 -0.5913 -0.4838
  434SOL     ow 1733   6.159   1.195   1.814  0.1940 -0.1165  0.2512
  434SOL     hw 1734   6.229   1.196   1.878  1.4853  0.0201 -1.1200
  434SOL     hw 1735   6.094   1.134   1.850  1.0956 -0.4120  1.4316
  434SOL     vw 1736   6.159   1.187   1.827  0.4833 -0.1376  0.2260
  435SOL     ow 1737   1.270   4.562   2.310 -0.4148  0.1800 -0.3215
  435SOL     hw 1738   1.239   4.596   2.226 -1.4668 -0.3720 -0.1741
  435SOL     hw 1739   1.314   4.636   2.350  0.8299  0.2328 -1.6911
  435SOL     vw 1740   1.272   4.576   2.304 -0.3895  0.1142 -0.4828
  436SOL     ow 1741   5.346   0.125   0.147 -0.0727  0.9421 -0.3772
  436SOL     hw 1742   5.415   0.191   0.145 -1.7776  2.8370  0.2949
  436SOL     hw 1743   5.272   0.166   0.104 -0.9250 -0.9064 -0.7741
  436SOL     vw 1744   5.346   0.139   0.141 -0.4101  0.9482 -0.3409
  437SOL     ow 1745   6.425   0.697   1.614 -0.3200  0.4091 -0.2351
  437SOL     hw 1746   6.466   0.748   1.544  0.3600 -0.0604 -0.1786
  437SOL     hw 1747   6.470   0.725   1.693 -0.3628  0.1631 -0.1250
  437SOL     vw 1748   6.436   0.708   1.615 -0.2358  0.3147 -0.2131
  438SOL     ow 1749   4.111   6.114   0.205  0.8596 -0.0430 -0.3724
  438SOL     hw 1750   4.182   6.131   0.143  0.6270 -1.0153 -0.9197
  438SOL     hw 1751   4.124   6.024   0.232  1.1624  0.4672  1.2932
  438SOL     vw 1752   4.122   6.105   0.200  0.8690 -0.1042 -0.2249
  439SOL     ow 1753   3.638   5.992   0.040  0.0642  0.5327  0.1616
  439SOL     hw 1754   3.565   6.039   0.080 -0.1261 -0.0442  0.5053
  439SOL     hw 1755   3.684   5.952   0.114  0.9369  1.1682 -0.0133
  439SOL     vw 1756   3.635   5.993   0.055  0.1541  0.5405  0.1839
  440SOL     ow 1757   1.757   2.235   6.653 -0.4162  0.0515 -0.3483
  440SOL     hw 1758   1.823   2.272   6.711 -0.4322  0.9254 -0.8688
  440SOL     hw 1759   1.729   2.154   6.696 -1.1912  1.2002  1.3940
  440SOL     vw 1760   1.762   2.229   6.666 -0.5206  0.3184 -0.1872
  441SOL     ow 1761   4.510   4.367   7.315  0.3646  0.5167 -0.3169
  441SOL     hw 1762   4.414   4.369   7.318  0.2580 -1.5772 -1.0734
  441SOL     hw 1763   4.532   4.385   7.224  0.6944  0.7298 -0.1981
  441SOL     vw 1764   4.500   4.370   7.304  0.3939  0.2687 -0.4008
  442SOL     ow 1765   6.498   2.828   4.618  0.5477  0.1548 -0.7192
  442SOL     hw 1766   6.491   2.922   4.636  2.1315  0.4770 -1.5977
  442SOL     hw 1767   6.574   2.800   4.670  0.0543 -0.6689 -0.4225
  442SOL     vw 1768   6.507   2.836   4.628  0.6917  0.0887 -0.7958
  443SOL     ow 1769   6.104   0.868   4.616 -0.1361 -0.1398 -0.1457
  443SOL     hw 1770   6.018   0.886   4.654  0.3308 -1.2618  1.5247
  443SOL     hw 1771   6.096   0.780   4.579  0.7540 -1.0344  1.6418
  443SOL     vw 1772   6.092   0.859   4.616  0.0424 -0.4058  0.3104
  444SOL     ow 1773   0.611   6.862   6.018 -0.0042 -0.5851  0.5489
  444SOL     hw 1774   0.551   6.936   6.026 -2.0041 -2.2004  1.5627
  444SOL     hw 1775   0.693   6.900   5.986 -1.0681  1.9639  0.6459
  444SOL     vw 1776   0.614   6.877   6.015 -0.4084 -0.4618  0.6955
  445SOL     ow 1777   1.806   3.687   1.269  0.1911  0.3514 -0.3039
  445SOL     hw 1778   1.830   3.776   1.297  1.3421  0.1357 -0.5466
  445SOL     hw 1779   1.865   3.668   1.196  0.3220 -0.8169  0.0879
  445SOL     vw 1780   1.817   3.696   1.263  0.3602  0.1688 -0.2842
  446SOL     ow 1781   0.084   6.742   4.858  0.1671 -0.0203  0.6487
  446SOL     hw 1782   0.178   6.730   4.845  0.6511 -0.2098  3.6502
  446SOL     hw 1783   0.051   6.653   4.872 -0.3132  0.1305  0.4823
  446SOL     vw 1784   0.092   6.729   4.858  0.1676 -0.0257  1.0228
  447SOL     ow 1785   2.375   5.470   3.050 -0.0970 -0.0854 -0.3111
  447SOL     hw 1786   2.424   5.419   2.985 -0.5312  0.3788 -1.0177
  447SOL     hw 1787   2.298   5.416   3.070 -0.1746 -0.0425 -0.4951
  447SOL     vw 1788   2.371   5.456   3.044 -0.1645 -0.0186 -0.4284
  448SOL     ow 1789   6.099   4.021   1.622  1.0653  0.4029 -0.8943
  448SOL     hw 1790   6.110   3.970   1.702  1.8331  1.0686 -0.5551
  448SOL     hw 1791   6.175   4.080   1.621 -1.2849  3.7335  0.3289
  448SOL     vw 1792   6.111   4.022   1.632  0.8564  0.9303 -0.6881
  449SOL     ow 1793   4.003   6.982   3.247  0.3306  0.5687  0.4282
  449SOL     hw 1794   3.983   6.893   3.274 -2.8340  1.1676  0.4143
  449SOL     hw 1795   4.012   6.977   3.152  0.8530  0.1891  0.4903
  449SOL     vw 1796   4.002   6.970   3.238 -0.0179  0.5977  0.4344
  450SOL     ow 1797   1.040   1.810   0.012  0.0513  0.1740  0.1328
  450SOL     hw 1798   1.133   1.788   0.004  0.0156 -1.2200  2.6788
  450SOL     hw 1799   1.001   1.735   0.056 -2.2800  0.8257 -0.6912
  450SOL     vw 1800   1.047   1.798   0.016 -0.2610  0.0761  0.3600
  451SOL     ow 1801   2.165   3.731   3.735  0.7937 -0.0777 -0.2344
  451SOL     hw 1802   2.231   3.799   3.730 -0.8153  1.5991  0.1211
  451SOL     hw 1803   2.212   3.653   3.765  2.9818  0.4174 -2.0958
  451SOL     vw 1804   2.180   3.730   3.738  0.8701  0.2089 -0.4328
  452SOL     ow 1805   1.279   6.225   1.824  0.5679  0.5957 -0.3418
  452SOL     hw 1806   1.279   6.246   1.917  0.1621 -2.1348  0.3793
  452SOL     hw 1807   1.188   6.202   1.804  0.9238 -0.3587 -0.9815
  452SOL     vw 1808   1.267   6.225   1.833  0.5613  0.1097 -0.3310
  453SOL     ow 1809   2.310   0.894   4.315  0.5799 -0.0532 -0.3021
  453SOL     hw 1810   2.238   0.836   4.337  0.2090  1.0223  1.5561
  453SOL     hw 1811   2.309   0.961   4.384  0.8843  2.2705 -2.3953
  453SOL     vw 1812   2.301   0.895   4.327  0.5711  0.3953 -0.3331
  454SOL     ow 1813   1.410   1.606   3.455 -0.6173  0.0377  0.6672
  454SOL     hw 1814   1.330   1.635   3.499 -0.5151 -0.1351  0.9739
  454SOL     hw 1815   1.475   1.672   3.476 -0.3563 -0.4559  1.4554
  454SOL     vw 1816   1.408   1.618   3.464 -0.5693 -0.0502  0.8117
  455SOL     ow 1817   1.203   4.595   1.831 -0.4222  0.5123  0.0474
  455SOL     hw 1818   1.290   4.628   1.811 -0.1832  0.4966  1.0257
  455SOL     hw 1819   1.172   4.558   1.748 -0.0850  1.7871 -0.6839
  455SOL     vw 1820   1.210   4.595   1.817 -0.3462  0.6785  0.0800
  456SOL     ow 1821   1.581   0.353   0.945 -0.1778 -0.2917 -0.3265
  456SOL     hw 1822   1.663   0.326   0.988 -0.5584 -0.8827  0.0457
  456SOL     hw 1823   1.541   0.415   1.005 -1.3212 -2.0435  0.8400
  456SOL     vw 1824   1.587   0.357   0.959 -0.3788 -0.6008 -0.1235
  457SOL     ow 1825   7.018   5.016   4.836 -0.1315  0.0741  0.1939
  457SOL     hw 1826   6.996   5.099   4.793 -0.3532  0.6288  1.3331
  457SOL     hw 1827   6.936   4.967   4.838 -1.3471  1.8605  3.8285
  457SOL     vw 1828   7.005   5.020   4.831 -0.3209  0.3829  0.8240
  458SOL     ow 1829   6.572   0.813   4.510 -0.0168 -0.3830  0.3177
  458SOL     hw 1830   6.521   0.845   4.585 -1.7067  0.0081 -0.9388
  458SOL     hw 1831   6.628   0.887   4.487 -0.0420 -0.2347  0.7184
  458SOL     vw 1832   6.572   0.827   4.517 -0.2432 -0.3118  0.2050
  459SOL     ow 1833   5.679   0.006   0.501 -0.0528  0.4484 -0.7967
  459SOL     hw 1834   5.601  -0.012   0.449  0.7665 -0.6834 -1.6719
  459SOL     hw 1835   5.752  -0.026   0.448  0.7374 -1.9742  1.4972
  459SOL     vw 1836   5.678  -0.001   0.487  0.1595 -0.0207 -0.6095
  460SOL     ow 1837   2.188   4.007   6.363  0.1226  0.3894  0.4385
  460SOL     hw 1838   2.241   4.086   6.369 -0.5162  0.7431  1.9290
  460SOL     hw 1839   2.187   3.986   6.269  0.2556  2.1749 -0.0093
  460SOL     vw 1840   2.195   4.015   6.351  0.0559  0.6719  0.5760
  461SOL     ow 1841   2.231   7.036   6.560  0.4455 -0.1368 -0.3057
  461SOL     hw 1842   2.185   6.967   6.513  2.2399 -2.2546  0.8655
  461SOL     hw 1843   2.167   7.070   6.622 -0.2628 -1.2737 -0.3941
  461SOL     vw 1844   2.217   7.032   6.562  0.5887 -0.5660 -0.1631
  462SOL     ow 1845   5.201   2.289   2.067  0.0048 -0.1425  0.2591
  462SOL     hw 1846   5.240   2.208   2.036  0.3180  0.4963 -1.1140
  462SOL     hw 1847   5.129   2.306   2.007 -1.9674 -0.8981  2.3016
  462SOL     vw 1848   5.197   2.281   2.055 -0.2141 -0.1580  0.3475
  463SOL     ow 1849   7.118   4.405   5.751  0.0737  0.7728 -0.2098
  463SOL     hw 1850   7.129   4.347   5.675 -0.3730  0.8273 -0.3195
  463SOL     hw 1851   7.023   4.412   5.762  0.1099 -0.7118  1.4963
  463SOL     vw 1852   7.107   4.398   5.742  0.0196  0.5841  0.0010
  464SOL     ow 1853   2.501   4.628   6.579 -0.0056 -0.5987 -0.2498
  464SOL     hw 1854   2.452   4.707   6.602 -1.2301 -1.0734 -1.1493
  464SOL     hw 1855   2.489   4.570   6.653  0.9456  0.0564  0.4420
  464SOL     vw 1856   2.493   4.631   6.592 -0.0417 -0.5748 -0.2770
  465SOL     ow 1857   4.018   0.196   0.157  0.4540 -0.2769  0.3498
  465SOL     hw 1858   4.053   0.169   0.073  1.2415  1.7275 -0.0294
  465SOL     hw 1859   3.923   0.187   0.149  0.4309  1.0427 -1.2160
  465SOL     vw 1860   4.010   0.191   0.145  0.5550  0.1617  0.0932
  466SOL     ow 1861   1.852   6.698   3.962  0.3439 -0.3478 -0.2339
  466SOL     hw 1862   1.851   6.742   4.047  0.3335  0.3643 -0.5929
  466SOL     hw 1863   1.836   6.606   3.982 -2.1183  0.1470  0.3340
  466SOL     vw 1864   1.850   6.692   3.976  0.0177 -0.1888 -0.2064
  467SOL     ow 1865   4.384   2.476   5.498  0.2054 -0.1382 -0.4881
  467SOL     hw 1866   4.431   2.422   5.561  1.6056 -0.5058 -1.7968
  467SOL     hw 1867   4.322   2.416   5.456  2.0366 -0.9178 -2.2280
  467SOL     vw 1868   4.382   2.461   5.500  0.6318 -0.2896 -0.8903
  468SOL     ow 1869   6.168   6.794   7.012  0.0234  0.0868  1.0752
  468SOL     hw 1870   6.166   6.699   7.003 -0.8214  0.2939 -2.4009
  468SOL     hw 1871   6.254   6.820   6.978  1.3265  0.5624  4.3243
  468SOL     vw 1872   6.179   6.785   7.007  0.0837  0.1767  1.0450
  469SOL     ow 1873   5.485   4.337   1.793 -0.0415  0.1562 -0.2696
  469SOL     hw 1874   5.474   4.431   1.781  1.5528  0.2997 -0.8983
  469SOL     hw 1875   5.510   4.305   1.706  2.8675 -0.2386  0.5805
  469SOL     vw 1876   5.487   4.345   1.780  0.5527  0.1230 -0.2404
  470SOL     ow 1877   1.902   4.993   3.245  0.5009  0.9051 -0.2841
  470SOL     hw 1878   1.946   4.909   3.258  1.3629  1.2125 -1.0786
  470SOL     hw 1879   1.841   5.000   3.319  2.1306  0.6620  1.1650
  470SOL     vw 1880   1.900   4.983   3.257  0.8296  0.9136 -0.1979
  471SOL     ow 1881   1.246   1.984   1.668  0.2175 -0.2573  0.5870
  471SOL     hw 1882   1.151   1.977   1.658  0.1095  1.5986 -0.3256
  471SOL     hw 1883   1.259   2.060   1.724  1.1700 -0.4840  0.6972
  471SOL     vw 1884   1.235   1.993   1.674  0.3290 -0.0423  0.4811
  472SOL     ow 1885   6.810   2.175   0.917  0.3962 -0.0486  0.1557
  472SOL     hw 1886   6.885   2.121   0.941 -0.7404 -1.1475  1.3390
  472SOL     hw 1887   6.823   2.257   0.965  1.4942  0.3076 -0.6928
  472SOL     vw 1888   6.822   2.179   0.926  0.3912 -0.1467  0.1999
  473SOL     ow 1889   3.282   0.808   6.622  0.0451  0.0567  0.2283
  473SOL     hw 1890   3.324   0.847   6.699  1.5065  1.9092 -1.4122
  473SOL     hw 1891   3.328   0.726   6.608  1.7419  1.0386 -0.2565
  473SOL     vw 1892   3.294   0.803   6.630  0.4617  0.4307 -0.0522
  474SOL     ow 1893   2.993   2.167   0.414  0.2349  0.1343  0.9186
  474SOL     hw 1894   3.026   2.170   0.325 -0.8048 -0.9269  0.4670
  474SOL     hw 1895   2.980   2.074   0.432  1.4687  0.2403  2.5909
  474SOL     vw 1896   2.996   2.155   0.405  0.2607  0.0081  1.0796
  475SOL     ow 1897   6.886   1.268   1.795  0.0699  0.5889  0.0965
  475SOL     hw 1898   6.879   1.197   1.732  2.7927  0.6956 -0.4671
  475SOL     hw 1899   6.933   1.337   1.749 -0.5071  1.8702  1.3393
  475SOL     vw 1900   6.892   1.268   1.781  0.3531  0.7720  0.1860
  476SOL     ow 1901   0.844   0.979   5.643  0.0941 -0.1020  0.3010
  476SOL     hw 1902   0.769   0.947   5.594  0.1939  1.5013 -0.9697
  476SOL     hw 1903   0.889   0.900   5.673 -1.0791 -1.0948 -0.4867
  476SOL     vw 1904   0.840   0.965   5.641 -0.0475 -0.0214  0.0293
  477SOL     ow 1905   6.102   0.935   0.834 -0.1720  0.1187 -0.4805
  477SOL     hw 1906   6.135   0.935   0.744 -0.9982 -0.9284 -0.8063
  477SOL     hw 1907   6.159   0.873   0.880  1.1508  1.6884  0.1086
  477SOL     vw 1908   6.114   0.927   0.828 -0.1066  0.1877 -0.4458
  478SOL     ow 1909   3.490   1.543   5.181  0.4539  0.5200 -0.1139
  478SOL     hw 1910   3.428   1.507   5.118 -0.0474  0.0163  0.6491
  478SOL     hw 1911   3.444   1.617   5.220 -0.2262 -0.6380  1.3940
  478SOL     vw 1912   3.475   1.548   5.178  0.2979  0.3008  0.1857
  479SOL     ow 1913   1.374   2.728   2.579  0.0920  0.4148 -0.4636
  479SOL     hw 1914   1.388   2.689   2.666  0.6060  1.3186 -0.1253
  479SOL     hw 1915   1.301   2.788   2.591  0.6926  1.1577 -0.4410
  479SOL     vw 1916   1.366   2.731   2.592  0.2391  0.6320 -0.4159
  480SOL     ow 1917   3.097   2.190   0.664 -0.7409  0.1144  1.0847
  480SOL     hw 1918   3.077   2.172   0.572 -0.8952  2.3949  0.6157
  480SOL     hw 1919   3.020   2.159   0.712 -0.9074 -0.5784  0.3951
  480SOL     vw 1920   3.084   2.183   0.658 -0.7831  0.3238  0.9318
  481SOL     ow 1921   1.230   1.755   3.259 -0.0700  0.4287 -0.9311
  481SOL     hw 1922   1.253   1.718   3.345 -0.3291  2.4459  0.0648
  481SOL     hw 1923   1.137   1.775   3.267 -0.3774 -0.4288 -2.1328
  481SOL     vw 1924   1.221   1.752   3.271 -0.1447  0.5817 -0.9582
  482SOL     ow 1925   4.302   2.868   2.211 -0.0138 -0.5907 -0.4342
  482SOL     hw 1926   4.330   2.945   2.161 -2.1376  0.0190 -0.7814
  482SOL     hw 1927   4.275   2.805   2.144 -1.4136 -0.3573 -0.1141
  482SOL     vw 1928   4.302   2.870   2.195 -0.4787 -0.4795 -0.4377
  483SOL     ow 1929   0.536   6.290   1.878  0.3424 -0.3219 -0.2500
  483SOL     hw 1930   0.563   6.372   1.919 -0.3935  0.6263 -1.6118
  483SOL     hw 1931   0.599   6.276   1.807  1.6471 -1.9866  1.1388
  483SOL     vw 1932   0.548   6.299   1.874  0.4175 -0.4165 -0.2463
  484SOL     ow 1933   2.790   3.863   5.752 -0.2552 -0.1217  0.7349
  484SOL     hw 1934   2.884   3.858   5.770 -0.4853 -0.4194  1.9617
  484SOL     hw 1935   2.778   3.809   5.674  0.4320 -1.1627  1.3105
  484SOL     vw 1936   2.801   3.855   5.744 -0.1948 -0.2984  0.9727
  485SOL     ow 1937   3.995   1.849   0.676 -0.0723  0.0554  0.2653
  485SOL     hw 1938   4.077   1.884   0.711 -0.7210  2.1079 -0.1386
  485SOL     hw 1939   3.927   1.887   0.732 -0.7927 -5.0207  3.5703
  485SOL     vw 1940   3.997   1.858   0.688 -0.2531 -0.3436  0.6481
  486SOL     ow 1941   2.981   2.579   6.317  0.3624 -0.3050  0.3960
  486SOL     hw 1942   3.018   2.496   6.346  0.0350 -1.5147 -2.3174
  486SOL     hw 1943   3.052   2.642   6.326  1.2478 -1.3189  0.6965
  486SOL     vw 1944   2.995   2.576   6.322  0.4361 -0.5983  0.0777
  487SOL     ow 1945   4.687   7.132   0.626  0.1564 -0.0148  0.1071
  487SOL     hw 1946   4.597   7.143   0.657  0.7694  1.1287  1.5721
  487SOL     hw 1947   4.679   7.134   0.530 -1.2285  1.5357  0.2084
  487SOL     vw 1948   4.674   7.134   0.617  0.0546  0.3407  0.3137
  488SOL     ow 1949   5.508   0.157   5.219  0.1445 -0.4004 -0.3575
  488SOL     hw 1950   5.509   0.099   5.143 -1.1509 -0.4028 -0.3928
  488SOL     hw 1951   5.539   0.103   5.291 -1.4695 -1.3016 -0.2977
  488SOL     vw 1952   5.512   0.142   5.218 -0.2394 -0.5196 -0.3545
  489SOL     ow 1953   1.409   4.984   6.517  0.2656 -0.4083  0.4350
  489SOL     hw 1954   1.476   4.986   6.448 -0.9980 -0.4774 -0.8334
  489SOL     hw 1955   1.442   4.920   6.580  2.5146  1.2485  1.0597
  489SOL     vw 1956   1.423   4.976   6.516  0.3957 -0.1993  0.3502
  490SOL     ow 1957   2.456   4.095   6.565 -0.1994 -0.3301 -0.3094
  490SOL     hw 1958   2.396   4.074   6.637  1.0271 -1.9546  0.3110
  490SOL     hw 1959   2.476   4.010   6.526  0.0096  0.4189 -1.9149
  490SOL     vw 1960   2.451   4.081   6.569 -0.0100 -0.4454 -0.4392
  491SOL     ow 1961   1.670   2.437   6.493 -0.1500  1.1062 -0.0638
  491SOL     hw 1962   1.731   2.416   6.422 -2.1158  2.9777 -2.5121
  491SOL     hw 1963   1.701   2.386   6.567  2.6939 -0.1593 -1.9437
  491SOL     vw 1964   1.682   2.427   6.493 -0.0341  1.1860 -0.6349
  492SOL     ow 1965   2.184   1.154   2.287 -0.5661 -0.3711  0.2593
  492SOL     hw 1966   2.265   1.205   2.292 -1.5761  1.2202  1.2495
  492SOL     hw 1967   2.211   1.069   2.251  1.0993  1.0148 -2.0471
  492SOL     vw 1968   2.198   1.149   2.283 -0.4795  0.0217  0.0857
  493SOL     ow 1969   1.567   5.302   5.363  0.2151 -0.6790  0.1692
  493SOL     hw 1970   1.543   5.259   5.445 -0.4011  2.0682  1.5776
  493SOL     hw 1971   1.512   5.259   5.296 -2.1419 -0.5145  1.8531
  493SOL     vw 1972   1.556   5.291   5.365 -0.1771 -0.2949  0.5774
  494SOL     ow 1973   0.007   2.318   2.653 -0.5049 -0.0179  0.6911
  494SOL     hw 1974   0.074   2.386   2.664 -1.3407  1.0071 -0.2974
  494SOL     hw 1975   0.050   2.237   2.679  1.0089  0.6698  0.4167
  494SOL     vw 1976   0.021   2.317   2.658 -0.4155  0.2080  0.5245
  495SOL     ow 1977   6.524   3.864   2.074 -0.5449  0.0903  0.1876
  495SOL     hw 1978   6.508   3.908   2.158  1.1831  0.2149  0.4803
  495SOL     hw 1979   6.483   3.778   2.086 -2.0707  0.8028  0.3905
  495SOL     vw 1980   6.516   3.858   2.087 -0.5181  0.2009  0.2531
  496SOL     ow 1981   5.242   1.765   6.403  0.1024 -0.0826 -0.3617
  496SOL     hw 1982   5.166   1.733   6.452  1.3612 -2.0210  0.4002
  496SOL     hw 1983   5.267   1.846   6.449 -0.7449 -0.0799  0.1243
  496SOL     vw 1984   5.235   1.772   6.416  0.1566 -0.3380 -0.1969
  497SOL     ow 1985   0.474   4.327   1.072  0.3873 -0.0650 -0.7731
  497SOL     hw 1986   0.385   4.312   1.101  0.0394 -0.4134 -1.9596
  497SOL     hw 1987   0.475   4.299   0.980  1.5080  0.6700 -1.0121
  497SOL     vw 1988   0.463   4.321   1.063  0.4893 -0.0141 -0.9611
  498SOL     ow 1989   3.139   6.935   1.839 -0.0289  0.9989  0.4399
  498SOL     hw 1990   3.108   7.003   1.779 -0.9061  0.3326  0.1083
  498SOL     hw 1991   3.181   6.870   1.782 -2.4669 -0.5491  0.2345
  498SOL     vw 1992   3.141   6.935   1.823 -0.4661  0.7067  0.3690
  499SOL     ow 1993   2.531   6.809   0.738  0.9961 -0.2150  0.0917
  499SOL     hw 1994   2.450   6.849   0.768  1.1550 -0.9740  1.6591
  499SOL     hw 1995   2.594   6.828   0.808  1.4759 -1.7968  0.1319
  499SOL     vw 1996   2.529   6.817   0.751  1.0804 -0.5238  0.3038
  500SOL     ow 1997   0.060   1.444   3.583  0.2243  0.3950  0.4930
  500SOL     hw 1998   0.062   1.521   3.526 -1.8042  0.2597  0.1512
  500SOL     hw 1999   0.048   1.479   3.671 -0.9460  0.4968  0.3102
  500SOL     vw 2000   0.058   1.459   3.587 -0.1977  0.3906  0.4238
  501SOL     ow 2001   4.521   5.931   6.283 -0.2043 -0.1867 -0.1247
  501SOL     hw 2002   4.561   5.884   6.209  4.7139  2.7716  0.1689
  501SOL     hw 2003   4.479   6.007   6.242  1.6397  0.9061 -0.1322
  501SOL     vw 2004   4.521   5.935   6.268  0.6876  0.3476 -0.0873
  502SOL     ow 2005   6.517   5.339   6.360 -0.4816  0.5306 -0.4417
  502SOL     hw 2006   6.595   5.290   6.385 -1.1258 -0.4868 -0.3795
  502SOL     hw 2007   6.506   5.403   6.431  0.6317  1.1014 -0.7647
  502SOL     vw 2008   6.526   5.341   6.373 -0.4196  0.4716 -0.4764
  503SOL     ow 2009   0.461   3.132   4.577 -0.5759 -0.0376 -0.1472
  503SOL     hw 2010   0.552   3.119   4.550 -0.2870 -1.4432  1.3631
  503SOL     hw 2011   0.442   3.057   4.634 -2.4630  0.5984  0.1221
  503SOL     vw 2012   0.470   3.120   4.581 -0.7868 -0.1390  0.0875
  504SOL     ow 2013   7.507   2.963   4.829 -0.1072  0.3565 -1.2373
  504SOL     hw 2014   7.465   2.939   4.747 -0.0550 -0.5752 -1.0049
  504SOL     hw 2015   7.523   2.880   4.873  0.2391  0.8184 -0.4649
  504SOL     vw 2016   7.504   2.949   4.824 -0.0546  0.2946 -1.1048
  505SOL     ow 2017   1.113   2.337   2.376 -0.5970  0.5038  0.1268
  505SOL     hw 2018   1.044   2.271   2.382 -1.6062  1.5891  0.9861
  505SOL     hw 2019   1.095   2.396   2.449  2.2304 -0.0882  1.4299
  505SOL     vw 2020   1.101   2.336   2.387 -0.3571  0.5690  0.4121
  506SOL     ow 2021   3.439   0.400   4.542 -0.6871 -0.6942 -0.5434
  506SOL     hw 2022   3.490   0.386   4.462 -2.1007  1.5804 -1.9626
  506SOL     hw 2023   3.491   0.461   4.594 -1.3246  0.7365 -1.4853
  506SOL     vw 2024   3.452   0.406   4.538 -0.9577 -0.2053 -0.8552
  507SOL     ow 2025   3.964   3.677   3.520 -0.2723  0.6100 -0.5246
  507SOL     hw 2026   3.938   3.627   3.443  1.4104  0.4140 -0.9896
  507SOL     hw 2027   3.985   3.611   3.586  1.7097  0.6313 -1.0620
  507SOL     vw 2028   3.963   3.662   3.519  0.2112  0.5870 -0.6568
  508SOL     ow 2029   5.255   1.707   2.839  0.3338  0.3361 -0.0904
  508SOL     hw 2030   5.189   1.719   2.771  0.5437 -2.2852 -0.8632
  508SOL     hw 2031   5.211   1.735   2.920 -2.1580 -2.1726 -0.4202
  508SOL     vw 2032   5.240   1.712   2.841  0.0327 -0.3408 -0.2358
  509SOL     ow 2033   5.933   4.158   0.560  0.0637  0.1333 -0.4638
  509SOL     hw 2034   6.003   4.224   0.552 -1.4578  2.4678  3.0806
  509SOL     hw 2035   5.973   4.087   0.610  0.2556  0.9946  0.6543
  509SOL     vw 2036   5.948   4.158   0.565 -0.1116  0.5550  0.1514
  510SOL     ow 2037   7.625   1.178   1.863 -0.1128  0.4051  0.0833
  510SOL     hw 2038   7.678   1.105   1.831  1.2894  0.2739  2.4944
  510SOL     hw 2039   7.683   1.228   1.920 -1.4669  2.6049 -0.3344
  510SOL     vw 2040   7.640   1.175   1.866 -0.1064  0.6781  0.3463
  511SOL     ow 2041   3.223   1.812   4.594  0.0109 -0.8150 -0.2056
  511SOL     hw 2042   3.185   1.730   4.564 -2.7853  0.1831  0.3127
  511SOL     hw 2043   3.149   1.862   4.629  1.4738  2.1638 -1.0020
  511SOL     vw 2044   3.208   1.808   4.595 -0.1650 -0.2903 -0.2422
  512SOL     ow 2045   0.388   2.653   0.960  0.3232 -0.0834 -0.2119
  512SOL     hw 2046   0.383   2.567   0.920  2.5300  0.9438 -3.0117
  512SOL     hw 2047   0.433   2.638   1.044  0.9457 -1.6120 -0.7917
  512SOL     vw 2048   0.393   2.640   0.966  0.6965 -0.1495 -0.6578
  513SOL     ow 2049   3.158   2.391   0.870  0.0919  0.1689  0.4230
  513SOL     hw 2050   3.097   2.455   0.835  0.4130  1.2928  1.8362
  513SOL     hw 2051   3.178   2.422   0.958  0.2263 -1.9079  1.1711
  513SOL     vw 2052   3.153   2.403   0.877  0.1521  0.0432  0.7081
  514SOL     ow 2053   3.052   5.996   0.336 -0.4328 -0.3206 -0.2481
  514SOL     hw 2054   3.021   6.005   0.426 -1.6332  2.6419 -0.8324
  514SOL     hw 2055   3.054   5.902   0.320 -1.5437 -0.8772  2.4271
  514SOL     vw 2056   3.048   5.985   0.345 -0.7377 -0.0033  0.0278
  515SOL     ow 2057   5.266   7.183   1.350 -0.4586 -0.1711 -0.1528
  515SOL     hw 2058   5.172   7.171   1.361 -0.6003  0.2726 -0.8074
  515SOL     hw 2059   5.306   7.111   1.399 -1.1620 -1.0054 -0.7728
  515SOL     vw 2060   5.259   7.172   1.358 -0.5705 -0.2227 -0.3209
  516SOL     ow 2061   2.565   1.382   5.191 -0.1553 -0.0466  0.1856
  516SOL     hw 2062   2.557   1.430   5.109 -0.0427  0.6911  0.5937
  516SOL     hw 2063   2.636   1.427   5.238  0.1027 -0.7570  0.4830
  516SOL     vw 2064   2.573   1.395   5.187 -0.1065 -0.0430  0.2787
  517SOL     ow 2065   1.111   0.614   7.328  0.1643  0.2406  0.5197
  517SOL     hw 2066   1.026   0.628   7.285  1.6679  1.8213 -2.2006
  517SOL     hw 2067   1.129   0.696   7.374  1.1916  0.8124 -0.8432
  517SOL     vw 2068   1.102   0.626   7.328  0.4982  0.5246 -0.0188
  518SOL     ow 2069   4.331   4.160   4.907 -0.0240  0.1049 -0.4516
  518SOL     hw 2070   4.293   4.240   4.943 -1.4259 -0.9442  0.5288
  518SOL     hw 2071   4.400   4.190   4.849 -1.0443  2.0543 -0.7365
  518SOL     vw 2072   4.335   4.174   4.904 -0.3440  0.2239 -0.3600
  519SOL     ow 2073   0.086   0.682   6.359  0.1342  0.1575  0.6020
  519SOL     hw 2074   0.052   0.757   6.408 -0.5606  0.5149 -0.3883
  519SOL     hw 2075   0.079   0.609   6.421 -0.3747  0.6617  1.1635
  519SOL     vw 2076   0.080   0.682   6.374 -0.0247  0.2712  0.5455
  520SOL     ow 2077   3.595   4.382   4.621 -0.0088  0.2164 -0.1247
  520SOL     hw 2078   3.595   4.299   4.572 -2.4192  0.5823 -0.8803
  520SOL     hw 2079   3.619   4.448   4.556 -1.3034  0.4622 -0.3911
  520SOL     vw 2080   3.598   4.380   4.606 -0.4976  0.2971 -0.2596
  521SOL     ow 2081   3.045   4.230   6.644  0.1476  0.2076  0.2428
  521SOL     hw 2082   3.006   4.188   6.566  0.5478 -0.6003  0.4698
  521SOL     hw 2083   3.124   4.179   6.662  0.6650  1.0912  0.5148
  521SOL     vw 2084   3.050   4.218   6.636  0.2686  0.2174  0.3085
  522SOL     ow 2085   1.174   2.683   5.686 -0.4769  0.5628 -0.2259
  522SOL     hw 2086   1.182   2.765   5.637  1.5773  0.5767  0.0204
  522SOL     hw 2087   1.084   2.682   5.718 -1.1833  1.6543 -2.0602
  522SOL     vw 2088   1.163   2.693   5.684 -0.2990  0.7088 -0.4354
  523SOL     ow 2089   5.019   0.733   4.331  0.1592 -0.1448 -0.0647
  523SOL     hw 2090   5.035   0.713   4.423 -0.5747  0.9566  0.3194
  523SOL     hw 2091   5.067   0.814   4.315  1.2925 -0.9746 -0.9988
  523SOL     vw 2092   5.027   0.741   4.341  0.2120 -0.1089 -0.1373
  524SOL     ow 2093   5.771   4.418   4.921 -0.1981  0.0397  0.5000
  524SOL     hw 2094   5.804   4.331   4.942  0.1167  0.0072 -0.0962
  524SOL     hw 2095   5.744   4.411   4.829  1.0395  0.9216  0.0502
  524SOL     vw 2096   5.772   4.406   4.911  0.0067  0.1519  0.3619
  525SOL     ow 2097   6.299   7.348   5.229  0.4026  0.5832  0.4813
  525SOL     hw 2098   6.284   7.257   5.205 -2.4395  1.1695 -0.3131
  525SOL     hw 2099   6.347   7.385   5.155 -0.6478  0.3045 -0.3633
  525SOL     vw 2100   6.304   7.341   5.216 -0.1109  0.6237  0.2651
  526SOL     ow 2101   4.655   1.428   2.989 -0.7165  0.0818  0.0708
  526SOL     hw 2102   4.640   1.335   2.971  1.4854 -0.1987 -0.5832
  526SOL     hw 2103   4.666   1.467   2.902 -1.1525  0.8729  0.3637
  526SOL     vw 2104   4.654   1.421   2.975 -0.4835  0.1491  0.0231
  527SOL     ow 2105   0.359   5.401   1.483 -0.6593 -0.3155  0.2480
  527SOL     hw 2106   0.318   5.371   1.402  0.2968 -1.4232  0.1615
  527SOL     hw 2107   0.452   5.385   1.471 -0.5272 -0.8419  1.7013
  527SOL     vw 2108   0.366   5.395   1.471 -0.5158 -0.5312  0.4283
  528SOL     ow 2109   2.450   7.199   0.655 -0.2979  0.3257  0.4365
  528SOL     hw 2110   2.407   7.283   0.676 -1.8676 -0.4063  0.3165
  528SOL     hw 2111   2.423   7.140   0.726 -1.3107 -0.7377 -0.7781
  528SOL     vw 2112   2.441   7.203   0.668 -0.6387  0.0889  0.2605
  529SOL     ow 2113   1.036   2.653   4.330 -0.6175  0.4048 -0.0348
  529SOL     hw 2114   1.087   2.734   4.326  0.0633  0.0064  0.3615
  529SOL     hw 2115   0.946   2.681   4.319 -0.3315  1.1462 -0.6123
  529SOL     vw 2116   1.031   2.667   4.328 -0.4900  0.4500 -0.0587
  530SOL     ow 2117   7.555   1.274   3.913 -0.4892  0.5458  0.2554
  530SOL     hw 2118   7.566   1.231   3.828  2.7198  3.0536 -0.8225
  530SOL     hw 2119   7.463   1.301   3.914 -0.3163  1.8136 -3.2396
  530SOL     vw 2120   7.544   1.272   3.902 -0.0432  1.0439 -0.3479
  531SOL     ow 2121   5.218   2.933   0.841 -0.1570 -0.2813  0.5571
  531SOL     hw 2122   5.248   2.907   0.928 -0.0827 -1.0548  0.3074
  531SOL     hw 2123   5.297   2.931   0.786  0.0997  1.7402  0.7995
  531SOL     vw 2124   5.232   2.929   0.845 -0.1132 -0.1167  0.5561
  532SOL     ow 2125   0.878   0.640   3.355  0.7449 -0.6235 -0.2773
  532SOL     hw 2126   0.875   0.659   3.262 -0.0209  0.0656 -0.1276
  532SOL     hw 2127   0.793   0.601   3.374  0.4680  0.2210  0.3176
  532SOL     vw 2128   0.866   0.638   3.345  0.6074 -0.4212 -0.1793
  533SOL     ow 2129   6.552   0.380   4.404 -0.1212  0.2880  0.0874
  533SOL     hw 2130   6.643   0.351   4.416 -0.3541  0.1974  1.9672
  533SOL     hw 2131   6.500   0.305   4.433 -0.8167  0.3246 -1.0212
  533SOL     vw 2132   6.557   0.366   4.409 -0.2434  0.2809  0.1893
  534SOL     ow 2133   0.892   0.883   3.461 -0.0958  0.0356 -0.0536
  534SOL     hw 2134   0.889   0.946   3.390 -1.2695  1.4311  1.1783
  534SOL     hw 2135   0.891   0.798   3.418 -0.2034  0.8355 -1.6999
  534SOL     vw 2136   0.892   0.880   3.446 -0.2649  0.3253 -0.1082
  535SOL     ow 2137   3.256   6.085   2.303 -0.6759  0.0029 -0.1253
  535SOL     hw 2138   3.271   6.163   2.357  0.4742  0.3831 -0.9617
  535SOL     hw 2139   3.169   6.055   2.330 -1.7404  2.3072 -0.6636
  535SOL     vw 2140   3.247   6.092   2.314 -0.6646  0.3569 -0.3067
  536SOL     ow 2141   6.758   7.266   0.725 -0.1766  0.5602 -0.0637
  536SOL     hw 2142   6.727   7.314   0.801  2.2973 -0.2769  1.6138
  536SOL     hw 2143   6.838   7.312   0.698  0.1789 -0.4175 -0.7712
  536SOL     vw 2144   6.765   7.278   0.731  0.1969  0.3209  0.0643
  537SOL     ow 2145   6.641   1.671   0.858 -0.9228 -0.1007 -0.2517
  537SOL     hw 2146   6.574   1.619   0.904 -0.4981  1.1271  1.8762
  537SOL     hw 2147   6.602   1.757   0.848  0.5726  0.8737  1.7579
  537SOL     vw 2148   6.627   1.675   0.863 -0.6697  0.1899  0.2942
  538SOL     ow 2149   5.634   3.643   1.675 -0.5800  0.3825 -0.6542
  538SOL     hw 2150   5.666   3.589   1.603 -1.8560 -1.9884  0.4198
  538SOL     hw 2151   5.687   3.616   1.750 -0.3940  1.5855 -0.3413
  538SOL     vw 2152   5.645   3.632   1.676 -0.7241  0.2284 -0.4712
  539SOL     ow 2153   5.586   5.355   7.595 -0.2477 -0.4455 -0.5694
  539SOL     hw 2154   5.620   5.266   7.606 -0.3976 -0.4014  0.3696
  539SOL     hw 2155   5.498   5.351   7.632 -0.0764  0.2065 -0.0881
  539SOL     vw 2156   5.579   5.343   7.601 -0.2451 -0.3536 -0.3824
  540SOL     ow 2157   6.204   7.107   4.437 -0.0634  0.2148 -0.7888
  540SOL     hw 2158   6.115   7.138   4.451 -0.1224 -0.2998  0.0813
  540SOL     hw 2159   6.218   7.115   4.343 -0.1813  2.5310 -0.6596
  540SOL     vw 2160   6.194   7.112   4.427 -0.0865  0.4523 -0.6568
  541SOL     ow 2161   2.838   0.675   3.491  1.2032 -0.2842 -0.2735
  541SOL     hw 2162   2.747   0.662   3.466  0.8899 -1.0521  1.1211
  541SOL     hw 2163   2.840   0.762   3.531  1.8597  1.2839 -3.3787
  541SOL     vw 2164   2.826   0.685   3.493  1.2485 -0.1786 -0.4991
  542SOL     ow 2165   7.042   7.335   0.649  0.5734 -0.0692  0.1416
  542SOL     hw 2166   7.009   7.423   0.667  0.6187  0.1823 -0.9362
  542SOL     hw 2167   7.031   7.324   0.554  0.5695 -1.2239  0.2603
  542SOL     vw 2168   7.036   7.346   0.639  0.5791 -0.1886  0.0151
  543SOL     ow 2169   3.739   3.865   6.400  0.1883  0.2662 -0.5491
  543SOL     hw 2170   3.789   3.878   6.319  1.9934  0.1319  0.4914
  543SOL     hw 2171   3.672   3.801   6.376  2.5699 -2.1909 -1.2944
  543SOL     vw 2172   3.737   3.858   6.386  0.7408 -0.0757 -0.5100
  544SOL     ow 2173   4.852   7.295   5.888  0.0220 -0.6868 -0.0750
  544SOL     hw 2174   4.932   7.247   5.865  1.9984  2.5482 -0.4694
  544SOL     hw 2175   4.849   7.368   5.827 -2.0967  0.4925  1.3345
  544SOL     vw 2176   4.862   7.298   5.877  0.0033 -0.1042  0.0587
  545SOL     ow 2177   1.198   4.813   1.205  0.0012 -0.4029 -0.4564
  545SOL     hw 2178   1.239   4.740   1.251  0.5089  1.0875  1.6044
  545SOL     hw 2179   1.119   4.833   1.256  0.7214  1.4865 -0.0119
  545SOL     vw 2180   1.193   4.806   1.218  0.1633  0.0429 -0.1259
  546SOL     ow 2181   7.167   1.221   6.276  0.6505 -0.3228  0.1886
  546SOL     hw 2182   7.129   1.280   6.211  0.2067  0.0332  0.7644
  546SOL     hw 2183   7.096   1.160   6.296  1.3988 -1.6997 -1.1343
  546SOL     vw 2184   7.153   1.220   6.270  0.6907 -0.4575  0.0901
  547SOL     ow 2185   3.483   0.381   3.864  0.2643  0.0232 -0.3660
  547SOL     hw 2186   3.483   0.364   3.770  0.4196  0.4155 -0.4414
  547SOL     hw 2187   3.477   0.295   3.905 -1.5746 -0.0501 -0.7393
  547SOL     vw 2188   3.482   0.368   3.857  0.0422  0.0652 -0.4251
  548SOL     ow 2189   2.520   4.949   3.800  0.2814  0.3616  0.0732
  548SOL     hw 2190   2.613   4.959   3.822  0.6475  0.3872 -1.4168
  548SOL     hw 2191   2.488   5.038   3.788  0.1842  0.3289  0.0860
  548SOL     vw 2192   2.528   4.962   3.801  0.3169  0.3607 -0.1217
  549SOL     ow 2193   4.462   6.292   0.412  0.6073  0.2674  0.3462
  549SOL     hw 2194   4.542   6.336   0.439 -0.0342  0.6172  1.8021
  549SOL     hw 2195   4.395   6.360   0.415  0.5771  0.5397 -3.0340
  549SOL     vw 2196   4.464   6.307   0.416  0.5186  0.3495  0.0923
  550SOL     ow 2197   6.055   6.086   2.066  0.0330  0.0009  0.3482
  550SOL     hw 2198   5.993   6.157   2.051  0.2298  0.4151  1.4181
  550SOL     hw 2199   6.132   6.129   2.104 -0.1616 -0.8686  1.8102
  550SOL     vw 2200   6.057   6.101   2.069  0.0334 -0.0591  0.6822
  551SOL     ow 2201   1.443   5.991   1.821 -0.1191 -0.6726 -0.1773
  551SOL     hw 2202   1.535   6.013   1.802  0.1400 -1.5326  0.0454
  551SOL     hw 2203   1.397   6.075   1.816  1.1768  0.3378  2.7420
  551SOL     vw 2204   1.449   6.005   1.818  0.0861 -0.6528  0.2373
  552SOL     ow 2205   1.021   0.071   0.653  0.8459 -0.7842 -0.4215
  552SOL     hw 2206   0.997   0.150   0.702  0.2025 -0.0439 -1.8704
  552SOL     hw 2207   0.964   0.002   0.689  0.9282 -0.4365  0.3870
  552SOL     vw 2208   1.010   0.072   0.664  0.7719 -0.6407 -0.5060
  553SOL     ow 2209   6.774   1.533   5.327 -0.5100  0.3196 -0.8721
  553SOL     hw 2210   6.774   1.628   5.323  0.9508  0.4174  0.6853
  553SOL     hw 2211   6.844   1.511   5.387  0.9300 -1.8611 -3.1538
  553SOL     vw 2212   6.783   1.542   5.334 -0.1271  0.0448 -0.9675
  554SOL     ow 2213   0.421   5.141   2.269 -0.2431 -0.4853  0.7673
  554SOL     hw 2214   0.405   5.144   2.363  1.3084 -2.0986  1.1389
  554SOL     hw 2215   0.378   5.061   2.240 -1.0360  0.1979  0.0083
  554SOL     vw 2216   0.413   5.131   2.278 -0.1430 -0.6077  0.7162
  555SOL     ow 2217   7.585   0.734   5.053  0.0519  0.3719  0.1865
  555SOL     hw 2218   7.540   0.806   5.097 -0.6598  0.1583 -0.1684
  555SOL     hw 2219   7.677   0.758   5.054  0.1409  0.1232  2.2824
  555SOL     vw 2220   7.591   0.747   5.059 -0.0302  0.3109  0.4160
  556SOL     ow 2221   7.505   0.732   6.593  0.4438 -0.0277  0.0558
  556SOL     hw 2222   7.418   0.713   6.627 -0.0444 -1.7246 -1.9225
  556SOL     hw 2223   7.535   0.648   6.557  1.9266  1.0531 -1.3626
  556SOL     vw 2224   7.498   0.718   6.592  0.5748 -0.1090 -0.3924
  557SOL     ow 2225   2.681   2.025   5.220  0.1003  0.0861  1.0443
  557SOL     hw 2226   2.604   1.973   5.195  0.5586 -0.7160  1.2513
  557SOL     hw 2227   2.647   2.113   5.236 -0.9140 -0.4678  2.0077
  557SOL     vw 2228   2.666   2.030   5.218  0.0269 -0.0929  1.1985
  558SOL     ow 2229   2.980   0.759   5.380  0.0470 -0.2174 -0.5374
  558SOL     hw 2230   3.015   0.848   5.374 -1.2503  0.5261  1.5986
  558SOL     hw 2231   2.887   0.769   5.358 -0.1127 -1.0397 -0.2626
  558SOL     vw 2232   2.972   0.772   5.376 -0.1452 -0.2277 -0.2191
  559SOL     ow 2233   2.454   1.040   4.761  0.0981 -0.8574  0.1036
  559SOL     hw 2234   2.516   1.086   4.818 -0.6391 -1.2961  1.2818
  559SOL     hw 2235   2.373   1.037   4.811 -0.3690 -1.8692 -0.6875
  559SOL     vw 2236   2.452   1.046   4.775 -0.0608 -1.0489  0.1545
  560SOL     ow 2237   5.440   4.602   4.943  0.7216  0.0818  0.0145
  560SOL     hw 2238   5.347   4.587   4.962  0.2120  1.8322 -0.9313
  560SOL     hw 2239   5.447   4.696   4.925  2.6801 -0.0130  0.0317
  560SOL     vw 2240   5.429   4.612   4.943  0.9129  0.2999 -0.1082
  561SOL     ow 2241   6.398   2.787   6.500  0.0325  0.2957 -0.7488
  561SOL     hw 2242   6.325   2.730   6.473 -0.0202 -0.1716  0.3157
  561SOL     hw 2243   6.393   2.787   6.596  0.9229  0.9451 -0.6992
  561SOL     vw 2244   6.387   2.779   6.509  0.1433  0.3196 -0.6018
  562SOL     ow 2245   5.970   6.863   6.839 -0.4580  0.1069  0.6517
  562SOL     hw 2246   6.022   6.939   6.810 -0.1461 -0.1491  0.5383
  562SOL     hw 2247   6.033   6.807   6.885 -1.3336  1.5593  3.9237
  562SOL     vw 2248   5.986   6.866   6.841 -0.5322  0.2651  1.0684
  563SOL     ow 2249   3.276   3.241   2.625  0.0343  0.2947  0.6221
  563SOL     hw 2250   3.208   3.292   2.669 -0.7156  0.8816 -1.1391
  563SOL     hw 2251   3.258   3.150   2.651  1.2442  0.7793  3.5918
  563SOL     vw 2252   3.265   3.236   2.634  0.0951  0.4361  0.7814
  564SOL     ow 2253   1.992   4.096   5.454 -0.0376 -0.9914 -0.2146
  564SOL     hw 2254   2.021   4.039   5.526 -0.4191 -0.5991  0.2568
  564SOL     hw 2255   2.066   4.154   5.438 -0.3450 -0.3340  0.6366
  564SOL     vw 2256   2.005   4.096   5.461 -0.1285 -0.8528 -0.0401
  565SOL     ow 2257   4.009   6.916   3.658  0.2682 -0.6378  0.4903
  565SOL     hw 2258   3.986   6.950   3.744  4.0285 -1.2924  1.9383
  565SOL     hw 2259   4.013   6.821   3.670  0.5548 -0.7575 -0.4698
  565SOL     vw 2260   4.007   6.908   3.671  0.8020 -0.7401  0.5547
  566SOL     ow 2261   4.685   5.978   4.946 -0.5237 -0.2418 -0.5289
  566SOL     hw 2262   4.682   5.942   5.034  1.4818  1.0919  0.1635
  566SOL     hw 2263   4.709   5.904   4.890  1.0464 -0.5684  0.5002
  566SOL     vw 2264   4.688   5.963   4.950 -0.0517 -0.1090 -0.3016
  567SOL     ow 2265   0.059   0.794   7.066 -0.0971 -0.5282  0.2804
  567SOL     hw 2266   0.152   0.789   7.045 -0.0008 -0.1153  0.6000
  567SOL     hw 2267   0.016   0.746   6.995  0.2808  0.1490 -0.4124
  567SOL     vw 2268   0.065   0.787   7.054 -0.0346 -0.3844  0.2313
  568SOL     ow 2269   4.380   0.683   5.497  0.6823  0.8025 -0.0303
  568SOL     hw 2270   4.429   0.733   5.563  0.2020  0.5937  0.4979
  568SOL     hw 2271   4.291   0.718   5.502  0.4801  0.3066 -0.0782
  568SOL     vw 2272   4.375   0.694   5.507  0.5922  0.7096  0.0334
  569SOL     ow 2273   5.524   1.032   4.235  0.2673  0.2753  0.5195
  569SOL     hw 2274   5.451   1.078   4.276  1.5468  1.2926  1.8092
  569SOL     hw 2275   5.585   1.102   4.209  1.3414 -0.5779  0.6382
  569SOL     vw 2276   5.523   1.047   4.237  0.5782  0.2970  0.7055
  570SOL     ow 2277   0.332   4.734   3.718  0.0923 -0.0356 -0.0811
  570SOL     hw 2278   0.293   4.790   3.651  2.0014  0.2046 -1.0577
  570SOL     hw 2279   0.395   4.790   3.763  0.2800 -0.7454  0.5705
  570SOL     vw 2280   0.335   4.749   3.715  0.3690 -0.0975 -0.1240
  571SOL     ow 2281   4.914   2.968   0.729  0.0099 -0.3660  0.0799
  571SOL     hw 2282   4.833   3.019   0.730  0.9939  1.2467  0.5278
  571SOL     hw 2283   4.946   2.976   0.639  0.6714  0.6819  0.3914
  571SOL     vw 2284   4.908   2.976   0.717  0.2267 -0.0150  0.1801
  572SOL     ow 2285   0.100   5.152   1.123 -0.4530 -0.4560 -0.1962
  572SOL     hw 2286   0.061   5.068   1.102 -1.7670  0.1514 -0.2804
  572SOL     hw 2287   0.031   5.201   1.168 -0.7554  1.6230 -2.6352
  572SOL     vw 2288   0.086   5.148   1.126 -0.6663 -0.1018 -0.5291
  573SOL     ow 2289   3.018   5.575   5.692  0.1098 -0.1408 -0.3901
  573SOL     hw 2290   3.034   5.485   5.661  0.8499  0.2379 -1.1703
  573SOL     hw 2291   3.069   5.630   5.632  1.2372  0.6716  1.2243
  573SOL     vw 2292   3.027   5.570   5.680  0.3562  0.0162 -0.2799
  574SOL     ow 2293   5.839   5.004   5.420  0.3519  0.3995  0.1024
  574SOL     hw 2294   5.922   4.980   5.461 -0.5686 -0.3372  1.5979
  574SOL     hw 2295   5.786   5.039   5.492 -0.6146  0.9501 -0.8475
  574SOL     vw 2296   5.843   5.006   5.435  0.1030  0.3753  0.1743
  575SOL     ow 2297   6.966   5.136   5.112 -0.2493  0.1639  0.7298
  575SOL     hw 2298   6.885   5.086   5.100  0.6877 -1.1978 -0.3236
  575SOL     hw 2299   6.943   5.225   5.088 -0.6530 -0.8299 -3.2737
  575SOL     vw 2300   6.953   5.141   5.107 -0.1786 -0.1469  0.0627
  576SOL     ow 2301   6.802   1.373   7.104 -0.0580  0.0413  0.4137
  576SOL     hw 2302   6.890   1.349   7.133 -0.1298 -0.5144  0.1765
  576SOL     hw 2303   6.756   1.290   7.097 -1.7018  0.4561  3.9833
  576SOL     vw 2304   6.808   1.359   7.107 -0.2847  0.0226  0.8533
  577SOL     ow 2305   3.037   6.117   0.099 -0.5911 -0.5467 -0.4493
  577SOL     hw 2306   3.103   6.058   0.063 -0.0390 -0.7534  0.8526
  577SOL     hw 2307   3.017   6.082   0.185 -0.2085  1.1869  0.3975
  577SOL     vw 2308   3.043   6.105   0.106 -0.4679 -0.3452 -0.1658
  578SOL     ow 2309   7.557   5.545   7.000  0.1559  0.0015 -0.2327
  578SOL     hw 2310   7.497   5.616   6.977 -0.4212 -0.2564  0.4429
  578SOL     hw 2311   7.542   5.478   6.932  0.8030  0.5615 -0.9510
  578SOL     vw 2312   7.547   5.545   6.988  0.1650  0.0412 -0.2387
  579SOL     ow 2313   4.226   3.680   5.313 -0.5994  0.0411 -0.3255
  579SOL     hw 2314   4.243   3.612   5.247 -0.4146  0.1062 -0.3429
  579SOL     hw 2315   4.263   3.760   5.276  1.8435 -0.4119  0.9805
  579SOL     vw 2316   4.233   3.681   5.299 -0.2527 -0.0101 -0.1557
  580SOL     ow 2317   4.807   7.197   3.371 -0.2469 -0.5933 -0.1585
  580SOL     hw 2318   4.771   7.267   3.316 -0.1713 -1.0899 -0.8447
  580SOL     hw 2319   4.864   7.147   3.313  2.2764  0.6553  1.0616
  580SOL     vw 2320   4.810   7.200   3.356  0.0958 -0.4942 -0.0880
  581SOL     ow 2321   2.695   1.933   6.087 -0.3236 -0.2414 -0.1633
  581SOL     hw 2322   2.706   1.901   6.176 -0.2398  1.5464  0.5191
  581SOL     hw 2323   2.781   1.968   6.063 -0.4651 -0.2939 -0.7741
  581SOL     vw 2324   2.708   1.934   6.096 -0.3313 -0.0124 -0.1538
  582SOL     ow 2325   2.933   1.892   5.096 -0.2579  0.1001 -0.3135
  582SOL     hw 2326   2.983   1.811   5.090 -1.3256 -0.8195  2.0920
  582SOL     hw 2327   2.873   1.889   5.021 -0.4807 -1.4849 -0.1029
  582SOL     vw 2328   2.931   1.881   5.085 -0.4282 -0.2304  0.0317
  583SOL     ow 2329   2.356   2.962   2.359  0.2419 -0.0226 -0.3364
  583SOL     hw 2330   2.344   2.996   2.271  0.7910 -1.9615 -1.2231
  583SOL     hw 2331   2.273   2.978   2.404 -0.2475  0.4470 -1.4023
  583SOL     vw 2332   2.343   2.968   2.354  0.2497 -0.2165 -0.5941
  584SOL     ow 2333   1.072   4.650   2.966 -0.1590 -0.1642 -0.4420
  584SOL     hw 2334   1.131   4.678   2.896  0.9686 -2.0136 -0.3126
  584SOL     hw 2335   0.985   4.676   2.937  0.4046  0.0461 -2.0266
  584SOL     vw 2336   1.069   4.657   2.953  0.0641 -0.3808 -0.6340
  585SOL     ow 2337   7.405   1.164   1.702  0.2443 -0.1538 -0.0312
  585SOL     hw 2338   7.456   1.140   1.779  1.1739 -0.4024 -0.7103
  585SOL     hw 2339   7.314   1.163   1.732  0.6998  2.6596  1.8456
  585SOL     vw 2340   7.399   1.161   1.716  0.4270  0.1846  0.1269
  586SOL     ow 2341   0.273   5.676   3.384  0.1859  0.2236 -1.3815
  586SOL     hw 2342   0.349   5.684   3.326  2.8206 -2.9003  1.2703
  586SOL     hw 2343   0.288   5.741   3.453  0.9366 -0.8897 -0.4618
  586SOL     vw 2344   0.285   5.685   3.385  0.6326 -0.3355 -0.9104
  587SOL     ow 2345   7.396   7.405   5.652  0.1190 -0.1983  0.0729
  587SOL     hw 2346   7.338   7.329   5.656  0.2406 -0.3423 -0.6505
  587SOL     hw 2347   7.347   7.469   5.599 -0.2417  0.4654  1.1790
  587SOL     vw 2348   7.382   7.403   5.645  0.0877 -0.1297  0.1230
  588SOL     ow 2349   6.835   6.343   2.203 -0.3598 -0.7210 -0.2872
  588SOL     hw 2350   6.900   6.321   2.137  0.4037 -1.1593  0.5810
  588SOL     hw 2351   6.774   6.403   2.159 -0.2233 -1.4776 -1.5390
  588SOL     vw 2352   6.835   6.348   2.189 -0.2415 -0.8788 -0.3377
  589SOL     ow 2353   5.131   7.641   0.363 -0.7916 -0.0573  0.4776
  589SOL     hw 2354   5.068   7.572   0.340 -3.4380  2.2232  0.3553
  589SOL     hw 2355   5.105   7.716   0.310  0.4802  1.7594  2.2711
  589SOL     vw 2356   5.119   7.641   0.353 -0.9732  0.4830  0.6981
  590SOL     ow 2357   1.698   0.315   7.473  0.3848  0.3410 -0.0309
  590SOL     hw 2358   1.659   0.333   7.388 -0.8817  2.0158  0.8464
  590SOL     hw 2359   1.737   0.398   7.500  0.9336 -0.2114  0.9538
  590SOL     vw 2360   1.698   0.328   7.466  0.2901  0.4891  0.2148
  591SOL     ow 2361   3.567   6.722   3.233 -0.1671 -0.4134  0.4069
  591SOL     hw 2362   3.508   6.653   3.205 -2.4098  0.5484  2.4511
  591SOL     hw 2363   3.543   6.798   3.180  1.7636 -0.8794 -1.2782
  591SOL     vw 2364   3.556   6.723   3.222 -0.2083 -0.3479  0.4543
  592SOL     ow 2365   2.640   6.136   5.941  0.3085  0.2679  0.0660
  592SOL     hw 2366   2.642   6.046   5.973 -1.9406  0.1411 -0.0004
  592SOL     hw 2367   2.665   6.189   6.016  3.6492 -0.4078 -0.3884
  592SOL     vw 2368   2.644   6.131   5.955  0.4524  0.1621 -0.0029
  593SOL     ow 2369   4.174   6.372   5.359 -0.2346  0.1979  0.7688
  593SOL     hw 2370   4.262   6.344   5.384  0.6976  0.7055 -1.6689
  593SOL     hw 2371   4.178   6.467   5.356 -0.3895  0.1810 -0.7940
  593SOL     vw 2372   4.186   6.381   5.362 -0.1323  0.2625  0.2413
  594SOL     ow 2373   2.162   7.429   4.712  0.0694  0.6552  0.6841
  594SOL     hw 2374   2.251   7.395   4.721  0.5167  1.9050  1.1136
  594SOL     hw 2375   2.133   7.445   4.802 -0.1924  1.2538  0.4991
  594SOL     vw 2376   2.170   7.426   4.725  0.0938  0.8991  0.7164
  595SOL     ow 2377   1.831   0.894   1.606  0.0731  0.1618  0.4199
  595SOL     hw 2378   1.908   0.911   1.661  0.4372 -2.0370  0.6699
  595SOL     hw 2379   1.826   0.799   1.601  0.1912  0.2265 -3.5860
  595SOL     vw 2380   1.841   0.884   1.613  0.1367 -0.1197 -0.0756
  596SOL     ow 2381   0.362   7.540   2.523 -0.2558 -0.5178  0.0968
  596SOL     hw 2382   0.298   7.609   2.507 -0.6957 -0.3440  2.2878
  596SOL     hw 2383   0.427   7.580   2.581 -0.0167 -1.6498  0.6546
  596SOL     vw 2384   0.362   7.554   2.529 -0.2823 -0.6442  0.4596
  597SOL     ow 2385   5.635   6.491   7.043  0.1882  0.7082 -1.1223
  597SOL     hw 2386   5.620   6.409   6.996  1.9131 -1.2124  1.4271
  597SOL     hw 2387   5.547   6.518   7.071 -0.2547 -1.2604 -0.4804
  597SOL     vw 2388   5.621   6.484   7.040  0.3572  0.1950 -0.7010
  598SOL     ow 2389   4.817   5.536   0.729 -0.1404 -0.2981 -0.2765
  598SOL     hw 2390   4.749   5.518   0.793  0.1362 -1.7352 -0.3563
  598SOL     hw 2391   4.814   5.631   0.717 -0.2831  0.0089  1.7614
  598SOL     vw 2392   4.808   5.546   0.736 -0.1225 -0.4470 -0.0181
  599SOL     ow 2393   2.949   1.742   4.571 -0.7240  0.5300  0.4973
  599SOL     hw 2394   2.940   1.826   4.616 -0.7530  0.8556 -0.1053
  599SOL     hw 2395   2.859   1.714   4.555 -0.7329 -0.1035  1.5724
  599SOL     vw 2396   2.936   1.750   4.575 -0.7290  0.4894  0.5596
  600SOL     ow 2397   3.205   2.319   2.503 -0.1811 -0.6561  0.1923
  600SOL     hw 2398   3.298   2.303   2.492 -0.1368 -0.6515  0.5795
  600SOL     hw 2399   3.199   2.382   2.574 -0.5776 -2.1351  1.5234
  600SOL     vw 2400   3.216   2.325   2.511 -0.2276 -0.8507  0.4190
  601SOL     ow 2401   7.314   2.721   2.870 -0.1120  0.1315  0.1191
  601SOL     hw 2402   7.337   2.634   2.838 -1.0736  0.1893 -0.7811
  601SOL     hw 2403   7.386   2.745   2.928 -0.2169 -1.5912  1.0163
  601SOL     vw 2404   7.327   2.713   2.873 -0.2525 -0.0881  0.1186
  602SOL     ow 2405   4.055   1.094   6.307 -0.1681  0.0250  0.4161
  602SOL     hw 2406   4.053   1.183   6.269  2.2820  0.3459  0.8629
  602SOL     hw 2407   4.112   1.045   6.247  0.4866 -0.5602  1.5027
  602SOL     vw 2408   4.062   1.099   6.294  0.2418 -0.0098  0.6185
  603SOL     ow 2409   0.851   3.975   3.004  0.0005 -0.1746 -0.0045
  603SOL     hw 2410   0.945   3.990   3.011  0.1216  0.1356 -1.7592
  603SOL     hw 2411   0.817   4.053   2.961 -0.8870 -0.7181 -0.3257
  603SOL     vw 2412   0.859   3.987   2.999 -0.1006 -0.2054 -0.2784
  604SOL     ow 2413   2.826   6.086   7.507 -0.4464  0.5529  0.3395
  604SOL     hw 2414   2.842   5.994   7.531  2.5253  0.8587 -0.1999
  604SOL     hw 2415   2.819   6.085   7.412 -0.7295  0.8716  0.3553
  604SOL     vw 2416   2.827   6.074   7.498 -0.0917  0.6354  0.2701
  605SOL     ow 2417   1.896   1.320   5.875  0.1975 -0.6466 -0.2766
  605SOL     hw 2418   1.919   1.295   5.965  0.6069 -2.3260 -0.8188
  605SOL     hw 2419   1.824   1.383   5.886  1.6434  0.8437  1.2808
  605SOL     vw 2420   1.889   1.325   5.889  0.4423 -0.6715 -0.1428
  606SOL     ow 2421   0.069   5.415   2.324  0.7522  0.0712 -0.1358
  606SOL     hw 2422   0.108   5.415   2.237  1.6849  0.0649  0.2722
  606SOL     hw 2423   0.015   5.495   2.327 -0.9015 -0.9320 -1.4003
  606SOL     vw 2424   0.067   5.426   2.313  0.6571 -0.0620 -0.2487
  607SOL     ow 2425   5.873   1.766   5.884  0.3787 -0.2646  0.4360
  607SOL     hw 2426   5.922   1.727   5.957  1.6182 -0.1075 -0.2821
  607SOL     hw 2427   5.939   1.779   5.816 -0.9345 -1.3010 -1.0906
  607SOL     vw 2428   5.888   1.763   5.885  0.3688 -0.3806  0.1400
  608SOL     ow 2429   2.122   5.907   6.881  0.4552 -0.0462  0.0524
  608SOL     hw 2430   2.167   5.833   6.923 -0.3956 -0.1984  0.7165
  608SOL     hw 2431   2.048   5.925   6.938 -0.3152  0.2233 -1.0162
  608SOL     vw 2432   2.118   5.899   6.894  0.2413 -0.0305 -0.0010
  609SOL     ow 2433   1.458   4.598   6.331 -0.5069 -0.2707 -1.0899
  609SOL     hw 2434   1.478   4.571   6.421 -4.2823  0.7124  0.2276
  609SOL     hw 2435   1.505   4.681   6.321  0.8866 -0.9465 -0.5279
  609SOL     vw 2436   1.467   4.606   6.342 -0.8212 -0.2301 -0.8421
  610SOL     ow 2437   6.824   2.397   6.550  0.3102 -0.0182 -0.7693
  610SOL     hw 2438   6.754   2.444   6.595 -1.0063 -0.7364 -1.9827
  610SOL     hw 2439   6.893   2.462   6.539 -0.3099  0.8229  0.1201
  610SOL     vw 2440   6.824   2.412   6.554  0.0548 -0.0019 -0.8118
  611SOL     ow 2441   2.838   2.321   4.848  0.1619 -0.8208 -0.3713
  611SOL     hw 2442   2.759   2.289   4.891  0.5299 -1.3124 -0.0618
  611SOL     hw 2443   2.806   2.368   4.771 -0.4693 -0.4126  0.1337
  611SOL     vw 2444   2.824   2.323   4.844  0.1272 -0.8317 -0.2639
  612SOL     ow 2445   2.935   5.413   7.191  0.0673 -0.1858  0.3423
  612SOL     hw 2446   2.965   5.497   7.225  0.3942  0.3321 -1.1396
  612SOL     hw 2447   2.915   5.431   7.098  0.2383 -1.7577 -0.0166
  612SOL     vw 2448   2.936   5.427   7.183  0.1330 -0.3247  0.0997
  613SOL     ow 2449   2.382   5.719   4.967 -0.2910 -0.8511 -0.1281
  613SOL     hw 2450   2.379   5.738   5.061  1.7407 -0.7877 -0.0179
  613SOL     hw 2451   2.352   5.628   4.960  0.6297 -1.2488  0.7628
  613SOL     vw 2452   2.378   5.710   4.979  0.0985 -0.8953  0.0041
  614SOL     ow 2453   2.912   7.133   4.766  0.6737 -0.4667  0.2295
  614SOL     hw 2454   2.978   7.139   4.835  0.3434  0.0436  0.4973
  614SOL     hw 2455   2.959   7.090   4.693  1.6016  0.8109  0.0457
  614SOL     vw 2456   2.927   7.128   4.765  0.7526 -0.2308  0.2406
  615SOL     ow 2457   6.594   3.675   5.655 -0.1550  0.3977  0.1306
  615SOL     hw 2458   6.540   3.628   5.591 -1.1953 -1.2880  2.1402
  615SOL     hw 2459   6.547   3.757   5.669 -2.0900 -0.8607  1.5316
  615SOL     vw 2460   6.581   3.680   5.648 -0.5474  0.0093  0.5805
  616SOL     ow 2461   3.740   3.442   4.862 -0.2290  0.5459  0.3902
  616SOL     hw 2462   3.828   3.478   4.854 -0.1360  0.6688  1.8036
  616SOL     hw 2463   3.708   3.474   4.946 -1.3294 -0.1489  0.2606
  616SOL     vw 2464   3.747   3.451   4.872 -0.3619  0.4705  0.5596
  617SOL     ow 2465   5.670   6.578   1.230  0.4780 -0.1644 -0.0927
  617SOL     hw 2466   5.690   6.621   1.313 -0.9713  1.1801 -0.3976
  617SOL     hw 2467   5.589   6.618   1.201  1.0684 -0.4433 -2.2968
  617SOL     vw 2468   5.662   6.589   1.237  0.3648 -0.0236 -0.4237
  618SOL     ow 2469   6.258   5.851   4.228 -0.1629 -0.1500  0.0205
  618SOL     hw 2470   6.321   5.868   4.298  1.7552  1.0966 -1.8848
  618SOL     hw 2471   6.295   5.895   4.151 -2.2826 -1.2529 -1.7442
  618SOL     vw 2472   6.271   5.859   4.227 -0.1895 -0.1309 -0.4637
  619SOL     ow 2473   3.187   4.211   3.553 -0.2959 -0.6707  0.3792
  619SOL     hw 2474   3.244   4.285   3.530 -1.6850  0.6539  1.0229
  619SOL     hw 2475   3.116   4.215   3.490  0.6705 -2.8376 -0.9560
  619SOL     vw 2476   3.185   4.221   3.542 -0.3517 -0.7820  0.2880
  620SOL     ow 2477   4.220   6.186   2.006 -0.0352  0.6014  1.1081
  620SOL     hw 2478   4.192   6.099   2.035 -0.8247  0.1654 -0.8248
  620SOL     hw 2479   4.314   6.188   2.024  0.0033 -0.6699  1.1555
  620SOL     vw 2480   4.228   6.175   2.012 -0.1342  0.3762  0.8593
  621SOL     ow 2481   4.676   3.704   5.519  0.1320 -0.2596  0.0640
  621SOL     hw 2482   4.725   3.785   5.507  0.7267 -0.7606 -1.0876
  621SOL     hw 2483   4.743   3.636   5.523 -0.4164 -1.1959 -3.4708
  621SOL     vw 2484   4.692   3.706   5.518  0.1380 -0.4493 -0.5543
  622SOL     ow 2485   4.974   4.543   4.865  0.0678 -0.4171  0.7265
  622SOL     hw 2486   5.041   4.575   4.806  0.0604  0.1266  1.0029
  622SOL     hw 2487   4.946   4.460   4.827  0.2254 -0.1898  0.0951
  622SOL     vw 2488   4.979   4.536   4.852  0.0875 -0.3154  0.6797
  623SOL     ow 2489   0.727   6.435   5.869  0.0908 -0.7963 -0.0016
  623SOL     hw 2490   0.645   6.386   5.866 -0.6315  0.4312 -1.3527
  623SOL     hw 2491   0.770   6.404   5.949 -1.3305 -2.0069  0.3465
  623SOL     vw 2492   0.722   6.424   5.879 -0.1920 -0.7942 -0.1340
  624SOL     ow 2493   1.525   6.680   0.887  0.4224 -0.1899 -0.5624
  624SOL     hw 2494   1.552   6.593   0.856  0.2178  0.0541 -1.4588
  624SOL     hw 2495   1.592   6.739   0.855 -0.7803  0.3300 -2.2533
  624SOL     vw 2496   1.537   6.676   0.879  0.2367 -0.0889 -0.9038
  625SOL     ow 2497   2.638   4.097   5.757 -0.0760 -0.1460  0.1571
  625SOL     hw 2498   2.607   4.086   5.847 -0.2593 -0.4952  0.0526
  625SOL     hw 2499   2.669   4.010   5.732  2.2721  0.4574  0.7256
  625SOL     vw 2500   2.638   4.084   5.766  0.2098 -0.1128  0.2184
  626SOL     ow 2501   5.857   4.336   0.948  0.0807 -0.8867  0.2710
  626SOL     hw 2502   5.844   4.263   1.008  1.2118  0.0063  1.6837
  626SOL     hw 2503   5.949   4.361   0.961  0.1700 -0.2609 -1.3892
  626SOL     vw 2504   5.868   4.330   0.958  0.2418 -0.6866  0.2384
  627SOL     ow 2505   0.433   5.081   6.758  0.8887 -0.1888 -0.1262
  627SOL     hw 2506   0.415   5.160   6.809  2.4466 -0.1824  0.4614
  627SOL     hw 2507   0.387   5.011   6.806  0.2303  0.2173 -0.1569
  627SOL     vw 2508   0.424   5.082   6.771  1.0074 -0.1342 -0.0529
  628SOL     ow 2509   4.763   1.314   6.210  0.0327  0.4239 -0.1364
  628SOL     hw 2510   4.697   1.299   6.278 -0.4522  2.5323 -0.0929
  628SOL     hw 2511   4.812   1.390   6.240  0.0496  1.1835 -1.9708
  628SOL     vw 2512   4.760   1.322   6.223 -0.0291  0.8024 -0.3726
  629SOL     ow 2513   0.251   3.962   7.381  0.5493  0.4257  0.2800
  629SOL     hw 2514   0.155   3.963   7.378  0.4831 -1.6271  0.3117
  629SOL     hw 2515   0.276   4.054   7.373 -1.4395  1.1011  1.2111
  629SOL     vw 2516   0.242   3.974   7.379  0.2782  0.2439  0.4070
  630SOL     ow 2517   6.567   3.462   6.238 -0.4931  0.3747  0.7578
  630SOL     hw 2518   6.485   3.464   6.287 -1.5080 -0.0329 -0.8458
  630SOL     hw 2519   6.626   3.411   6.293 -1.3606  0.4999  1.8509
  630SOL     vw 2520   6.564   3.456   6.252 -0.7415  0.3375  0.6902
  631SOL     ow 2521   1.757   1.898   1.863 -0.1288  0.5490  0.8136
  631SOL     hw 2522   1.815   1.890   1.787 -0.8754 -0.8221  0.3603
  631SOL     hw 2523   1.816   1.908   1.938  0.6168  1.7977  0.0828
  631SOL     vw 2524   1.772   1.899   1.863 -0.1289  0.5329  0.6573
  632SOL     ow 2525   0.008   4.179   4.980 -0.0485  0.5181 -0.2519
  632SOL     hw 2526   0.085   4.234   4.972 -0.8944  1.8062  0.1957
  632SOL     hw 2527  -0.035   4.184   4.895  0.1205  0.1681 -0.3587
  632SOL     vw 2528   0.012   4.187   4.968 -0.1378  0.6421 -0.2069
  633SOL     ow 2529   5.065   1.682   4.386  0.3181  0.5202 -0.4109
  633SOL     hw 2530   5.135   1.671   4.321  0.8442 -0.1802  0.2512
  633SOL     hw 2531   4.987   1.647   4.344  0.6730 -0.0076 -0.6457
  633SOL     vw 2532   5.064   1.676   4.372  0.4344  0.3582 -0.3545
  634SOL     ow 2533   0.227   5.972   2.203  0.2802 -0.0023 -0.0862
  634SOL     hw 2534   0.318   6.001   2.201  0.7132 -1.2459  0.4577
  634SOL     hw 2535   0.203   5.974   2.296 -0.7277  1.6444 -0.3341
  634SOL     vw 2536   0.236   5.976   2.215  0.2044  0.0508 -0.0473
  635SOL     ow 2537   5.337   2.030   5.041  0.6069 -0.2178 -0.0682
  635SOL     hw 2538   5.279   1.974   5.093  2.7129  0.4597  3.2824
  635SOL     hw 2539   5.326   2.117   5.079  1.0515  0.6989 -1.9271
  635SOL     vw 2540   5.328   2.034   5.053  0.9437 -0.0074  0.1285
  636SOL     ow 2541   5.580   6.611   2.225  0.4998  0.8352 -0.0613
  636SOL     hw 2542   5.658   6.659   2.253  2.7540 -2.1032 -0.7114
  636SOL     hw 2543   5.614   6.542   2.168 -2.6107 -0.6632 -0.3198
  636SOL     vw 2544   5.595   6.608   2.221  0.3872  0.2496 -0.1811
  637SOL     ow 2545   2.293   3.158   2.145  0.3536  0.0930 -0.2879
  637SOL     hw 2546   2.299   3.176   2.051  0.8366 -0.0962 -0.2955
  637SOL     hw 2547   2.212   3.202   2.173  0.6464  0.8673 -0.6258
  637SOL     vw 2548   2.283   3.167   2.136  0.4560  0.1702 -0.3334
  638SOL     ow 2549   6.575   5.864   1.129 -0.0118 -0.3387 -0.0329
  638SOL     hw 2550   6.658   5.869   1.081  1.1302  2.1894  2.0020
  638SOL     hw 2551   6.539   5.953   1.123  0.2778  0.1755  3.7835
  638SOL     vw 2552   6.581   5.876   1.122  0.1771  0.0627  0.7390
  639SOL     ow 2553   0.799   5.367   0.901  0.7034 -0.6252 -0.4866
  639SOL     hw 2554   0.857   5.419   0.844 -1.0156  0.4664 -1.3272
  639SOL     hw 2555   0.858   5.327   0.965  2.2100  1.8120 -0.2233
  639SOL     vw 2556   0.815   5.369   0.902  0.6754 -0.1595 -0.5628
  640SOL     ow 2557   6.625   6.943   2.836 -0.0740 -0.0954  0.1677
  640SOL     hw 2558   6.554   6.969   2.895 -0.7354 -0.4971 -0.4404
  640SOL     hw 2559   6.683   7.019   2.833  0.9154 -0.6186  2.6704
  640SOL     vw 2560   6.624   6.956   2.844 -0.0308 -0.2174  0.4177
  641SOL     ow 2561   0.770   7.035   0.191 -0.1029  0.0340 -0.0885
  641SOL     hw 2562   0.757   7.092   0.115 -0.7317  0.1635  0.1080
  641SOL     hw 2563   0.839   7.077   0.242  0.5463 -0.2170 -0.7383
  641SOL     vw 2564   0.777   7.048   0.188 -0.1002  0.0179 -0.1483
  642SOL     ow 2565   6.682   5.416   0.047 -0.0018  0.5810  0.1687
  642SOL     hw 2566   6.642   5.428  -0.039 -0.7291 -1.1032  0.2306
  642SOL     hw 2567   6.691   5.322   0.057 -0.1651  0.7181  2.0407
  642SOL     vw 2568   6.678   5.405   0.037 -0.1192  0.3769  0.4238
  643SOL     ow 2569   5.468   5.898   3.051  0.5414 -0.6321 -0.4351
  643SOL     hw 2570   5.477   5.818   3.103  1.6811 -1.2312 -1.5120
  643SOL     hw 2571   5.493   5.969   3.110  0.4326 -1.1569  0.2481
  643SOL     vw 2572   5.472   5.897   3.065  0.6776 -0.7803 -0.4871
  644SOL     ow 2573   0.948   0.214   7.434 -0.4059  0.6933  0.2447
  644SOL     hw 2574   0.876   0.152   7.423 -0.1610  0.4939 -0.2312
  644SOL     hw 2575   1.012   0.189   7.368 -0.6104  1.9048 -0.4567
  644SOL     vw 2576   0.947   0.203   7.424 -0.4006  0.8268  0.0892
  645SOL     ow 2577   7.477   2.797   3.071  0.0934  0.0998  0.3278
  645SOL     hw 2578   7.440   2.870   3.122 -1.0684 -0.7698  0.7625
  645SOL     hw 2579   7.483   2.725   3.133  2.7374  0.2143  0.3271
  645SOL     vw 2580   7.473   2.797   3.086  0.2890  0.0002  0.3850
  646SOL     ow 2581   1.328   2.049   3.726 -0.3059  0.0005  0.0925
  646SOL     hw 2582   1.301   2.017   3.640 -0.2242 -0.6469  0.3077
  646SOL     hw 2583   1.423   2.062   3.718 -0.1275 -1.0601  0.3985
  646SOL     vw 2584   1.337   2.047   3.713 -0.2716 -0.2249  0.1614
  647SOL     ow 2585   3.280   3.957   3.712 -0.2558  0.1465 -0.4182
  647SOL     hw 2586   3.246   3.887   3.657 -2.0386  0.6096  0.0189
  647SOL     hw 2587   3.316   3.913   3.789  1.4563 -0.4447 -1.4878
  647SOL     vw 2588   3.281   3.942   3.714 -0.2651  0.1295 -0.5016
  648SOL     ow 2589   5.191   3.650   4.383 -0.0412 -0.1689  0.4253
  648SOL     hw 2590   5.170   3.570   4.432  0.6859 -1.7705 -1.7253
  648SOL     hw 2591   5.118   3.662   4.323  1.2891 -1.1664 -1.5100
  648SOL     vw 2592   5.179   3.641   4.382  0.2303 -0.5119 -0.1137
  649SOL     ow 2593   0.428   2.911   3.150  0.2025  0.1362 -0.3193
  649SOL     hw 2594   0.423   3.006   3.156 -1.6401  0.1863 -1.7893
  649SOL     hw 2595   0.509   2.894   3.102  0.4743  0.9529 -0.1644
  649SOL     vw 2596   0.438   2.921   3.144 -0.0048  0.2507 -0.4927
  650SOL     ow 2597   2.139   6.917   1.412  0.5067 -0.5576 -0.1542
  650SOL     hw 2598   2.053   6.875   1.404 -0.5871  0.9894  2.3043
  650SOL     hw 2599   2.137   6.988   1.348  0.8033 -1.6966 -1.4961
  650SOL     vw 2600   2.127   6.921   1.402  0.4016 -0.5035 -0.0070
  651SOL     ow 2601   3.955   5.752   1.738 -0.1238 -0.6929 -0.3393
  651SOL     hw 2602   4.025   5.736   1.676  1.4391  1.7930  0.6176
  651SOL     hw 2603   3.920   5.666   1.759  3.6884 -2.2800  0.2820
  651SOL     vw 2604   3.959   5.739   1.733  0.5853 -0.5744 -0.1311
  652SOL     ow 2605   2.475   4.411   4.444  0.0274 -0.1398 -0.4887
  652SOL     hw 2606   2.435   4.343   4.389  0.2505 -1.2609  0.6839
  652SOL     hw 2607   2.430   4.403   4.528  0.7807  0.4663 -0.0206
  652SOL     vw 2608   2.464   4.401   4.447  0.1562 -0.2077 -0.2723
  653SOL     ow 2609   3.382   6.889   3.725  0.9441  0.2170  0.0435
  653SOL     hw 2610   3.305   6.896   3.669  2.4548 -0.8684 -2.3687
  653SOL     hw 2611   3.375   6.803   3.766  0.8259  0.1586 -0.0976
  653SOL     vw 2612   3.371   6.879   3.723  1.1280  0.0658 -0.2935
  654SOL     ow 2613   2.078   0.990   1.324 -0.0939  0.0117 -0.5429
  654SOL     hw 2614   2.134   0.951   1.392  1.4057 -1.0828 -2.3279
  654SOL     hw 2615   2.136   1.050   1.277  0.0112 -1.9808 -3.1446
  654SOL     vw 2616   2.093   0.993   1.327  0.1178 -0.3956 -1.1217
  655SOL     ow 2617   3.173   3.189   5.400 -0.2731  0.6870 -0.7016
  655SOL     hw 2618   3.247   3.247   5.380  0.7010 -0.5492 -0.8116
  655SOL     hw 2619   3.210   3.121   5.457 -0.7168 -1.2455 -2.5525
  655SOL     vw 2620   3.188   3.187   5.405 -0.2031  0.2689 -0.9603
  656SOL     ow 2621   5.509   4.421   2.752  0.7830 -0.1949 -0.0638
  656SOL     hw 2622   5.516   4.469   2.670  1.0716  1.5120  0.9249
  656SOL     hw 2623   5.448   4.350   2.733 -1.2099  1.6765 -1.0988
  656SOL     vw 2624   5.502   4.418   2.739  0.5581  0.2773 -0.0699
  657SOL     ow 2625   3.700   6.647   7.344  0.4852  1.0712 -0.2693
  657SOL     hw 2626   3.643   6.658   7.421 -2.0313 -0.8164 -1.6925
  657SOL     hw 2627   3.648   6.681   7.271  0.6071 -1.8063 -1.8199
  657SOL     vw 2628   3.685   6.653   7.345  0.1693  0.4425 -0.6618
  658SOL     ow 2629   0.411   4.424   5.351 -0.0600 -0.5014 -0.1845
  658SOL     hw 2630   0.503   4.421   5.379 -0.4627 -0.2775  1.2510
  658SOL     hw 2631   0.402   4.508   5.307  0.4344 -0.5597 -0.4090
  658SOL     vw 2632   0.422   4.434   5.349 -0.0479 -0.4792 -0.0246
  659SOL     ow 2633   5.389   3.133   1.409 -0.3308  0.9238  0.3294
  659SOL     hw 2634   5.396   3.073   1.483  1.9196  1.7333  0.8411
  659SOL     hw 2635   5.417   3.082   1.333  0.1455  0.9103  0.5158
  659SOL     vw 2636   5.393   3.119   1.409  0.0288  1.0288  0.4215
  660SOL     ow 2637   3.750   2.330   3.777  0.0087  0.3835 -0.1874
  660SOL     hw 2638   3.745   2.398   3.709 -0.1402 -1.2454 -1.8626
  660SOL     hw 2639   3.667   2.338   3.824 -1.0917 -0.1797 -1.9293
  660SOL     vw 2640   3.739   2.340   3.774 -0.1562  0.0943 -0.6382
  661SOL     ow 2641   1.416   3.293   2.384 -0.3662  0.2479 -0.4060
  661SOL     hw 2642   1.339   3.239   2.369 -0.2743  0.0265 -0.0798
  661SOL     hw 2643   1.477   3.268   2.314  0.8160 -2.1679  1.3483
  661SOL     vw 2644   1.414   3.283   2.373 -0.1981 -0.0999 -0.1315
  662SOL     ow 2645   5.444   6.799   6.710 -0.1870  0.0743 -0.1787
  662SOL     hw 2646   5.398   6.877   6.742 -1.7408 -0.2209 -1.5475
  662SOL     hw 2647   5.375   6.736   6.691  0.8652 -0.8088 -1.2832
  662SOL     vw 2648   5.429   6.801   6.712 -0.2530 -0.0813 -0.5052
  663SOL     ow 2649   5.815   0.762   4.365 -0.3804  0.2705  0.2945
  663SOL     hw 2650   5.826   0.784   4.273  0.3275 -1.5970 -0.1078
  663SOL     hw 2651   5.786   0.671   4.365  4.1300 -1.4412  1.8989
  663SOL     vw 2652   5.813   0.753   4.353  0.3078 -0.2017  0.4530
  664SOL     ow 2653   0.887   2.098   5.296 -0.0488  0.4962  0.2206
  664SOL     hw 2654   0.842   2.075   5.215 -1.6457  0.7879  0.9949
  664SOL     hw 2655   0.818   2.102   5.362  1.4034 -1.3625  1.9665
  664SOL     vw 2656   0.872   2.096   5.294 -0.0679  0.2894  0.5529
  665SOL     ow 2657   4.604   2.411   5.285  0.2926  0.2328 -0.4058
  665SOL     hw 2658   4.664   2.343   5.317 -0.4392 -0.0234  0.4562
  665SOL     hw 2659   4.635   2.430   5.196  2.5389  1.1266  0.4794
  665SOL     vw 2660   4.616   2.404   5.277  0.4923  0.3167 -0.1752
  666SOL     ow 2661   0.463   0.118   4.603 -0.3760 -0.1446  0.0621
  666SOL     hw 2662   0.487   0.027   4.588  3.5406  1.1741 -3.7859
  666SOL     hw 2663   0.523   0.149   4.670  0.9013  0.3702 -1.2633
  666SOL     vw 2664   0.474   0.110   4.610  0.3092  0.0973 -0.6201
  667SOL     ow 2665   5.055   0.884   3.263 -0.4011  0.6946  0.3992
  667SOL     hw 2666   5.085   0.948   3.198 -1.2112  2.5189  1.7482
  667SOL     hw 2667   5.052   0.801   3.215 -2.0840  2.1412 -2.2506
  667SOL     vw 2668   5.059   0.881   3.248 -0.7298  1.1262  0.2277
  668SOL     ow 2669   2.467   4.470   6.819  0.3619 -0.2464  0.4648
  668SOL     hw 2670   2.497   4.556   6.848  1.3707 -1.0193  1.8495
  668SOL     hw 2671   2.374   4.483   6.800  1.1359  1.8637 -2.5193
  668SOL     vw 2672   2.459   4.483   6.821  0.5970 -0.0699  0.2537
  669SOL     ow 2673   5.881   6.968   4.267 -0.4905  0.2983 -0.0248
  669SOL     hw 2674   5.808   6.910   4.245 -0.2741 -0.1388  0.4101
  669SOL     hw 2675   5.958   6.927   4.227 -0.1508 -0.3155  1.2049
  669SOL     vw 2676   5.882   6.955   4.258 -0.4170  0.1595  0.1950
  670SOL     ow 2677   5.826   5.444   5.414  0.5714 -0.2634 -0.1630
  670SOL     hw 2678   5.890   5.384   5.453  1.9035  1.8421  1.0317
  670SOL     hw 2679   5.773   5.475   5.488 -0.6420 -0.5364 -0.8806
  670SOL     vw 2680   5.827   5.440   5.429  0.5872 -0.0212 -0.1001
  671SOL     ow 2681   5.418   2.253   4.476 -0.3005  0.1544 -0.2046
  671SOL     hw 2682   5.379   2.283   4.394 -1.4196 -2.0037 -0.5106
  671SOL     hw 2683   5.433   2.334   4.526 -3.0902  1.2754 -1.0076
  671SOL     vw 2684   5.415   2.268   4.472 -0.8161  0.0176 -0.3507
  672SOL     ow 2685   0.990   4.944   6.359  0.4806  0.6393  0.2187
  672SOL     hw 2686   0.982   5.040   6.363  1.0667  0.6464  1.6285
  672SOL     hw 2687   0.907   4.911   6.392 -0.1975  0.6206 -1.3912
  672SOL     vw 2688   0.978   4.952   6.364  0.4685  0.6380  0.1922
  673SOL     ow 2689   5.359   1.574   1.833  0.1128  0.0554 -0.0240
  673SOL     hw 2690   5.413   1.546   1.759  0.6012  1.0621 -0.0703
  673SOL     hw 2691   5.376   1.509   1.901  2.0612  0.7953  0.2538
  673SOL     vw 2692   5.369   1.562   1.832  0.4342  0.2858  0.0066
  674SOL     ow 2693   3.960   6.144   5.378 -0.0369 -0.4568  0.0048
  674SOL     hw 2694   3.965   6.140   5.283 -0.3942  0.6417 -0.0743
  674SOL     hw 2695   3.874   6.106   5.399 -0.6011  0.6390 -0.2365
  674SOL     vw 2696   3.949   6.138   5.368 -0.1585 -0.1669 -0.0377
  675SOL     ow 2697   6.008   1.573   2.515 -0.3329 -1.1793 -0.1055
  675SOL     hw 2698   6.013   1.665   2.488 -1.5806 -1.5181 -1.5998
  675SOL     hw 2699   5.948   1.532   2.452 -0.4653 -2.8424  1.0362
  675SOL     vw 2700   6.001   1.580   2.503 -0.5150 -1.4434 -0.1520
  676SOL     ow 2701   0.105   2.452   5.476 -0.2175 -0.7565  0.1003
  676SOL     hw 2702   0.169   2.430   5.543  0.9131 -2.7699 -1.5002
  676SOL     hw 2703   0.032   2.492   5.523  1.6835  0.5133  2.1348
  676SOL     vw 2704   0.103   2.455   5.491  0.1825 -0.8545  0.1576
  677SOL     ow 2705   4.324   5.822   1.809  0.7774  0.4428  0.3593
  677SOL     hw 2706   4.344   5.765   1.883 -2.4488  0.4822  1.3874
  677SOL     hw 2707   4.407   5.867   1.791  2.6869 -2.3443  1.3836
  677SOL     vw 2708   4.338   5.820   1.816  0.6037  0.0806  0.6301
  678SOL     ow 2709   5.088   2.246   6.350 -0.3188  0.3729  0.2692
  678SOL     hw 2710   5.061   2.309   6.282  0.4868  0.0536 -0.3694
  678SOL     hw 2711   5.174   2.215   6.321 -0.1933 -0.1684  1.1749
  678SOL     vw 2712   5.096   2.250   6.337 -0.1960  0.2595  0.3045
  679SOL     ow 2713   5.009   3.820   1.722 -0.2366 -0.3249 -1.0516
  679SOL     hw 2714   4.917   3.818   1.747  0.0664 -0.6008  0.1456
  679SOL     hw 2715   5.053   3.769   1.791  1.0800  1.7061 -0.2954
  679SOL     vw 2716   5.003   3.813   1.734 -0.0229 -0.0935 -0.7939
  680SOL     ow 2717   5.098   1.088   3.480  0.1627  0.0284  0.0328
  680SOL     hw 2718   5.077   1.158   3.541  3.7842  0.7123  0.7535
  680SOL     hw 2719   5.146   1.131   3.409 -1.7054 -1.1302 -2.0744
  680SOL     vw 2720   5.102   1.103   3.478  0.3943 -0.0343 -0.1503
  681SOL     ow 2721   5.450   3.374   1.527  1.0966  0.7647 -0.3733
  681SOL     hw 2722   5.470   3.296   1.475  2.5749 -1.8838  3.6894
  681SOL     hw 2723   5.523   3.434   1.511  3.0107 -1.1752  0.5790
  681SOL     vw 2724   5.462   3.372   1.518  1.5442  0.1593  0.2884
  682SOL     ow 2725   5.294   2.579   2.117  0.3476  0.0649 -0.4656
  682SOL     hw 2726   5.257   2.645   2.177  2.7432  0.5762  0.5664
  682SOL     hw 2727   5.289   2.621   2.031  0.8096  1.1594  0.0147
  682SOL     vw 2728   5.288   2.594   2.113  0.7246  0.2767 -0.2660
  683SOL     ow 2729   1.511   4.992   5.856  0.5886 -0.7481 -0.0288
  683SOL     hw 2730   1.596   4.962   5.824 -0.0872 -0.4370 -2.3461
  683SOL     hw 2731   1.528   5.078   5.894  1.2413 -0.3620 -1.1344
  683SOL     vw 2732   1.524   4.999   5.856  0.5855 -0.6564 -0.4802
  684SOL     ow 2733   1.120   7.055   5.816  0.4443  0.3915 -0.5756
  684SOL     hw 2734   1.205   7.081   5.782  0.6467 -0.1653 -0.5021
  684SOL     hw 2735   1.097   6.976   5.766 -1.3755  2.1344 -2.7344
  684SOL     vw 2736   1.128   7.048   5.805  0.2308  0.5481 -0.8507
  685SOL     ow 2737   6.176   4.904   6.075 -0.6347  0.4695 -0.1343
  685SOL     hw 2738   6.271   4.901   6.071 -0.5041  2.1367  0.6997
  685SOL     hw 2739   6.154   4.996   6.059 -2.0850  0.1665 -0.0437
  685SOL     vw 2740   6.185   4.915   6.072 -0.8087  0.6495 -0.0122
  686SOL     ow 2741   4.814   0.284   3.560  0.1246  0.4454  0.0343
  686SOL     hw 2742   4.772   0.199   3.548  1.3998  0.0735 -2.4184
  686SOL     hw 2743   4.903   0.263   3.588  0.8763  0.8241 -1.8735
  686SOL     vw 2744   4.820   0.270   3.562  0.3920  0.4463 -0.5409
  687SOL     ow 2745   5.601   4.226   1.231 -0.3902 -0.5028 -0.0277
  687SOL     hw 2746   5.644   4.190   1.153 -0.8376 -1.3889  0.1161
  687SOL     hw 2747   5.637   4.174   1.304  1.5188  1.6057  0.6444
  687SOL     vw 2748   5.612   4.214   1.231 -0.1972 -0.3414  0.0799
  688SOL     ow 2749   2.524   5.428   6.537  0.1805 -0.7654  0.1318
  688SOL     hw 2750   2.470   5.350   6.521  0.3146 -0.3142 -3.3061
  688SOL     hw 2751   2.555   5.418   6.626 -4.4517 -1.7423  1.9219
  688SOL     vw 2752   2.521   5.416   6.546 -0.4131 -0.8347 -0.0854
  689SOL     ow 2753   1.524   1.858   0.802  0.1826  0.1848 -0.0344
  689SOL     hw 2754   1.543   1.887   0.890  1.8095 -1.1899  0.1336
  689SOL     hw 2755   1.606   1.870   0.754 -0.6820  0.9663 -1.4035
  689SOL     vw 2756   1.537   1.863   0.807  0.2832  0.1065 -0.1929
  690SOL     ow 2757   1.116   6.822   0.452  0.3009 -0.3125  0.3326
  690SOL     hw 2758   1.178   6.750   0.439  0.9925  0.2843  0.2774
  690SOL     hw 2759   1.141   6.860   0.536  2.8898  2.6609 -1.5323
  690SOL     vw 2760   1.127   6.817   0.461  0.7337  0.1585  0.0793
  691SOL     ow 2761   3.303   3.068   3.885 -0.0500 -0.2543  0.3300
  691SOL     hw 2762   3.300   3.155   3.925  1.5032 -0.9533  2.1793
  691SOL     hw 2763   3.219   3.058   3.841  0.3248  2.7696 -1.3219
  691SOL     vw 2764   3.292   3.078   3.884  0.2044  0.0523  0.3562
  692SOL     ow 2765   7.321   5.625   1.963 -0.4482  0.0531 -0.2818
  692SOL     hw 2766   7.270   5.699   1.929  0.1858  0.5332 -0.1958
  692SOL     hw 2767   7.263   5.584   2.027 -0.8262  0.4403 -0.3668
  692SOL     vw 2768   7.306   5.629   1.967 -0.4141  0.1676 -0.2816
  693SOL     ow 2769   1.180   0.265   4.020  0.4500 -0.1394  0.4100
  693SOL     hw 2770   1.146   0.298   3.937  2.8834 -0.0975 -0.6399
  693SOL     hw 2771   1.191   0.171   4.007 -1.1883 -0.5315  1.4878
  693SOL     vw 2772   1.177   0.257   4.008  0.5550 -0.1856  0.4134
  694SOL     ow 2773   4.375   1.605   0.645 -0.4032  0.1258 -0.4296
  694SOL     hw 2774   4.418   1.664   0.706 -0.3828  1.0350 -1.3070
  694SOL     hw 2775   4.432   1.528   0.642  1.1325  1.2469 -1.4734
  694SOL     vw 2776   4.388   1.602   0.653 -0.1979  0.3936 -0.6830
  695SOL     ow 2777   7.158   0.720   4.964  0.0453 -0.2827  0.1913
  695SOL     hw 2778   7.148   0.801   4.914  0.9399 -1.0768 -1.3386
  695SOL     hw 2779   7.177   0.750   5.053 -1.3770  1.1724  0.0509
  695SOL     vw 2780   7.159   0.735   4.969 -0.0243 -0.1955 -0.0288
  696SOL     ow 2781   4.421   3.780   5.527 -0.1224  0.3810 -0.3659
  696SOL     hw 2782   4.512   3.757   5.507 -0.2861 -1.5477  0.8096
  696SOL     hw 2783   4.425   3.867   5.565  0.8599  1.5473 -2.9325
  696SOL     vw 2784   4.433   3.788   5.529 -0.0143  0.2803 -0.5496
  697SOL     ow 2785   0.798   7.279   4.501  0.4949  0.5781  0.0881
  697SOL     hw 2786   0.887   7.272   4.466  0.5316  0.3757  0.2166
  697SOL     hw 2787   0.810   7.279   4.596  0.3316  0.1091  0.1139
  697SOL     vw 2788   0.811   7.278   4.509  0.4781  0.4895  0.1085
  698SOL     ow 2789   6.203   0.541   1.098 -0.1996  0.8254 -0.4507
  698SOL     hw 2790   6.171   0.514   1.185 -0.6583  0.3691 -0.7546
  698SOL     hw 2791   6.295   0.514   1.097 -0.8377 -1.6317 -1.0594
  698SOL     vw 2792   6.211   0.534   1.110 -0.3443  0.4410 -0.5711
  699SOL     ow 2793   3.215   0.464   5.772  0.3285  0.5178  0.2373
  699SOL     hw 2794   3.242   0.473   5.681  0.7814 -0.8195  0.2177
  699SOL     hw 2795   3.297   0.458   5.821  0.1830 -2.6914  0.2765
  699SOL     vw 2796   3.229   0.465   5.766  0.3691 -0.0820  0.2398
  700SOL     ow 2797   3.048   2.854   1.762  0.0689  0.4165  0.4853
  700SOL     hw 2798   3.082   2.940   1.786  0.6772  0.5134 -0.6248
  700SOL     hw 2799   2.969   2.843   1.816 -0.4026  1.9614  0.1725
  700SOL     vw 2800   3.042   2.864   1.772  0.0868  0.6330  0.2975
  701SOL     ow 2801   1.126   6.013   5.031  0.6338  0.1934  0.3387
  701SOL     hw 2802   1.150   6.104   5.015 -1.5535  0.4252 -2.0957
  701SOL     hw 2803   1.047   6.018   5.084  0.3720 -0.2806 -0.0013
  701SOL     vw 2804   1.119   6.026   5.036  0.3107  0.1612 -0.0274
  702SOL     ow 2805   0.854   1.016   5.351  0.5174  0.4174  0.2337
  702SOL     hw 2806   0.902   0.934   5.339 -0.9399 -0.6271  1.1168
  702SOL     hw 2807   0.791   1.018   5.279 -0.3043  0.0912  0.9226
  702SOL     vw 2808   0.852   1.005   5.340  0.2167  0.2366  0.4411
  703SOL     ow 2809   6.957   3.425   6.161  0.0696 -0.0643  0.1338
  703SOL     hw 2810   6.907   3.396   6.237  2.3777 -1.3194  1.2538
  703SOL     hw 2811   7.044   3.387   6.172  0.6889  0.2023 -2.8453
  703SOL     vw 2812   6.962   3.416   6.173  0.4559 -0.1948 -0.1113
  704SOL     ow 2813   0.038   5.995   5.180  0.0796 -0.8552  0.4084
  704SOL     hw 2814  -0.022   6.003   5.106  0.1972 -1.0254  0.2949
  704SOL     hw 2815   0.036   6.081   5.222 -1.0568 -1.1636  1.0231
  704SOL     vw 2816   0.030   6.007   5.176 -0.0548 -0.9184  0.4745
  705SOL     ow 2817   0.065   0.112   0.396  0.3807 -0.4720  0.3061
  705SOL     hw 2818   0.041   0.162   0.474  4.7030  1.0260  0.9724
  705SOL     hw 2819   0.043   0.022   0.418 -4.2097  0.4739  0.5838
  705SOL     vw 2820   0.059   0.107   0.409  0.3454 -0.1495  0.4306
  706SOL     ow 2821   1.621   1.927   1.085 -0.4063  0.5012  0.6757
  706SOL     hw 2822   1.611   1.999   1.148  0.1634 -0.0977  1.4807
  706SOL     hw 2823   1.560   1.860   1.116 -0.1479  0.2157  0.5678
  706SOL     vw 2824   1.612   1.928   1.098 -0.2971  0.3844  0.7677
  707SOL     ow 2825   0.388   4.165   0.863 -1.1348  0.4583 -0.2670
  707SOL     hw 2826   0.331   4.151   0.787 -0.7522 -2.2837 -0.1375
  707SOL     hw 2827   0.371   4.090   0.920 -0.4753  1.7848  1.7992
  707SOL     vw 2828   0.378   4.153   0.861 -0.9973  0.2716  0.0227
  708SOL     ow 2829   6.614   0.350   6.921 -0.8241  0.1785 -0.0336
  708SOL     hw 2830   6.583   0.340   6.831 -1.4860 -0.9235  0.2994
  708SOL     hw 2831   6.540   0.392   6.967 -0.6494  0.3534  0.0903
  708SOL     vw 2832   6.600   0.354   6.915 -0.8883  0.0561  0.0267
  709SOL     ow 2833   1.510   2.638   2.309  0.1626  0.2369  0.0659
  709SOL     hw 2834   1.466   2.661   2.391  0.7606  0.1890  0.4007
  709SOL     hw 2835   1.576   2.574   2.334 -3.5445 -4.6953 -1.1932
  709SOL     vw 2836   1.513   2.633   2.323 -0.2476 -0.4201 -0.0559
  710SOL     ow 2837   5.324   0.261   4.869  0.5719 -0.4416 -0.4891
  710SOL     hw 2838   5.395   0.306   4.822 -0.0223  0.5112 -0.4804
  710SOL     hw 2839   5.319   0.175   4.826  1.2781 -0.2721 -0.9360
  710SOL     vw 2840   5.333   0.255   4.857  0.5870 -0.2935 -0.5469
  711SOL     ow 2841   2.130   0.514   3.075 -0.1111 -0.2886  0.4136
  711SOL     hw 2842   2.146   0.463   2.996  0.7352 -0.4562  0.6893
  711SOL     hw 2843   2.035   0.506   3.089 -0.1902 -0.6781 -0.2922
  711SOL     vw 2844   2.119   0.506   3.067 -0.0098 -0.3621  0.3567
  712SOL     ow 2845   2.598   2.587   5.066 -0.0192 -0.2062 -0.1164
  712SOL     hw 2846   2.544   2.648   5.115  1.3231  0.2392  0.8805
  712SOL     hw 2847   2.661   2.642   5.019 -0.5954 -0.6875 -1.5393
  712SOL     vw 2848   2.599   2.602   5.066  0.0818 -0.2109 -0.1729
  713SOL     ow 2849   6.551   1.712   2.643 -0.3754 -0.4831 -0.4908
  713SOL     hw 2850   6.559   1.648   2.572 -0.9247 -2.2818  0.9901
  713SOL     hw 2851   6.485   1.774   2.612  0.2409 -0.5568 -2.0117
  713SOL     vw 2852   6.544   1.712   2.630 -0.3664 -0.7302 -0.4960
  714SOL     ow 2853   2.651   7.190   4.018 -0.0431 -0.1991  0.3193
  714SOL     hw 2854   2.734   7.237   4.012 -0.3665  0.2510 -1.1981
  714SOL     hw 2855   2.668   7.105   3.978  0.3384 -1.1455  2.3719
  714SOL     vw 2856   2.664   7.185   4.012 -0.0354 -0.2649  0.3901
  715SOL     ow 2857   1.987   0.225   7.468 -0.7268 -0.2244 -1.2768
  715SOL     hw 2858   1.897   0.224   7.435 -0.6163 -0.9300 -1.5826
  715SOL     hw 2859   1.988   0.158   7.537 -0.3340 -0.5330 -1.5767
  715SOL     vw 2860   1.975   0.216   7.473 -0.6604 -0.3582 -1.3568
  716SOL     ow 2861   2.781   5.044   3.839 -0.1853 -0.1009 -0.7454
  716SOL     hw 2862   2.760   5.046   3.745 -0.9950 -1.2732 -0.6078
  716SOL     hw 2863   2.802   4.952   3.856  1.7766  0.4166 -0.1450
  716SOL     vw 2864   2.781   5.032   3.829 -0.0334 -0.1872 -0.6480
  717SOL     ow 2865   3.974   0.070   5.895  0.7459 -0.2931 -0.2890
  717SOL     hw 2866   4.030   0.007   5.851  1.5119 -0.2810  0.6417
  717SOL     hw 2867   3.885   0.049   5.864  0.8709 -2.3452  0.5622
  717SOL     vw 2868   3.969   0.059   5.885  0.8634 -0.5623 -0.0539
  718SOL     ow 2869   5.426   7.423   4.231  0.2844  0.0741 -0.3548
  718SOL     hw 2870   5.348   7.402   4.282  0.0317 -0.9465 -1.1414
  718SOL     hw 2871   5.401   7.500   4.179  0.4090  0.8575  0.6991
  718SOL     vw 2872   5.413   7.431   4.231  0.2675  0.0429 -0.3200
  719SOL     ow 2873   1.070   5.804   3.365  0.0224  0.7027  0.2579
  719SOL     hw 2874   1.151   5.754   3.360 -0.6651 -0.6322  1.7234
  719SOL     hw 2875   1.017   5.770   3.292 -0.4760 -0.8522  1.2947
  719SOL     vw 2876   1.073   5.793   3.354 -0.1340  0.3214  0.5879
  720SOL     ow 2877   6.348   3.711   6.104 -0.1321 -0.4228 -0.1874
  720SOL     hw 2878   6.369   3.662   6.184 -0.1471 -0.3527 -0.1407
  720SOL     hw 2879   6.253   3.709   6.099 -0.1555 -0.0566  0.0299
  720SOL     vw 2880   6.338   3.704   6.114 -0.1373 -0.3651 -0.1528
  721SOL     ow 2881   7.314   0.595   3.043 -0.3510  0.4715  0.8720
  721SOL     hw 2882   7.369   0.556   3.111  1.3922 -0.8117 -1.1380
  721SOL     hw 2883   7.347   0.684   3.033  0.0230  0.3589  1.0677
  721SOL     vw 2884   7.326   0.602   3.051 -0.0715  0.2874  0.6328
  722SOL     ow 2885   7.449   1.531   0.525  0.4456 -0.2793  0.1671
  722SOL     hw 2886   7.508   1.474   0.476  1.4083 -0.9523  2.0080
  722SOL     hw 2887   7.504   1.570   0.593 -0.9153  0.2895  0.9887
  722SOL     vw 2888   7.464   1.529   0.527  0.3932 -0.2931  0.5184
  723SOL     ow 2889   2.322   1.224   5.195 -0.6209  0.7111 -0.2463
  723SOL     hw 2890   2.394   1.287   5.196  1.2769 -1.3270 -0.1310
  723SOL     hw 2891   2.297   1.218   5.103 -0.4762  1.2524 -0.3250
  723SOL     vw 2892   2.328   1.231   5.183 -0.3514  0.5136 -0.2413
  724SOL     ow 2893   3.767   5.627   4.213  0.6844 -0.7658 -0.2985
  724SOL     hw 2894   3.686   5.650   4.258  1.7820 -1.2212  2.0976
  724SOL     hw 2895   3.749   5.542   4.173 -0.3817 -0.2925 -0.8528
  724SOL     vw 2896   3.754   5.619   4.214  0.6886 -0.7634 -0.0556
  725SOL     ow 2897   7.535   5.561   3.713 -0.2649  0.0326 -0.0879
  725SOL     hw 2898   7.502   5.649   3.698  1.1362  0.7824  0.9860
  725SOL     hw 2899   7.547   5.555   3.807  1.5086 -0.5932 -0.3089
  725SOL     vw 2900   7.532   5.572   3.723  0.1538  0.0491  0.0247
  726SOL     ow 2901   3.731   1.216   3.661  0.5907  0.4480 -0.1083
  726SOL     hw 2902   3.682   1.193   3.582 -0.2293  1.9748 -0.0854
  726SOL     hw 2903   3.677   1.182   3.733  0.8883 -0.1601 -0.1699
  726SOL     vw 2904   3.717   1.208   3.660  0.5217  0.5692 -0.1134
  727SOL     ow 2905   3.219   6.006   2.052 -0.0098 -0.2140 -0.1020
  727SOL     hw 2906   3.249   6.059   2.125 -1.3149  0.2936  0.1020
  727SOL     hw 2907   3.275   6.031   1.979 -0.5581  1.4653 -0.0031
  727SOL     vw 2908   3.230   6.016   2.052 -0.2544  0.0746 -0.0620
  728SOL     ow 2909   4.162   2.462   1.708  0.0738  0.1530 -0.0923
  728SOL     hw 2910   4.149   2.415   1.626  0.0304 -1.2889  0.6994
  728SOL     hw 2911   4.246   2.505   1.699  1.0245 -1.6192 -0.1868
  728SOL     vw 2912   4.171   2.461   1.696  0.1936 -0.2711 -0.0004
  729SOL     ow 2913   6.127   4.008   6.241 -0.4952  0.2581  0.0385
  729SOL     hw 2914   6.124   3.921   6.201 -0.1701  0.5107 -0.5401
  729SOL     hw 2915   6.139   4.068   6.168  1.7005  0.6088  0.6332
  729SOL     vw 2916   6.128   4.005   6.226 -0.1628  0.3376  0.0408
  730SOL     ow 2917   5.054   4.450   5.737  0.3401  0.8928 -0.0792
  730SOL     hw 2918   5.091   4.474   5.822  2.3184 -1.4615 -0.1474
  730SOL     hw 2919   5.000   4.373   5.755  2.4891 -0.9980 -1.0943
  730SOL     vw 2920   5.052   4.443   5.750  0.8845  0.3328 -0.2224
  731SOL     ow 2921   2.686   0.747   7.637  0.6819  0.6016  0.2606
  731SOL     hw 2922   2.606   0.735   7.688  0.2022  2.0772 -0.1027
  731SOL     hw 2923   2.663   0.714   7.549  1.0631 -0.6326  0.6046
  731SOL     vw 2924   2.672   0.741   7.632  0.6689  0.6335  0.2580
  732SOL     ow 2925   7.305   6.758   2.815 -0.3771  0.3822  0.3469
  732SOL     hw 2926   7.286   6.839   2.862 -0.8970  0.0146  0.7766
  732SOL     hw 2927   7.232   6.749   2.753  0.8326  1.4228 -1.3167
  732SOL     vw 2928   7.293   6.768   2.813 -0.2861  0.4706  0.1841
  733SOL     ow 2929   3.635   1.643   4.453  0.3508  0.8779 -0.3731
  733SOL     hw 2930   3.568   1.589   4.411  1.2444  1.0602 -2.1237
  733SOL     hw 2931   3.718   1.604   4.426  0.9888  2.0805 -0.2201
  733SOL     vw 2932   3.637   1.630   4.444  0.5528  1.0606 -0.5839
  734SOL     ow 2933   3.383   7.441   2.455 -0.2750 -0.2756 -0.6841
  734SOL     hw 2934   3.363   7.367   2.399  0.8314 -0.5767 -0.7046
  734SOL     hw 2935   3.463   7.416   2.501  0.0792  0.8643 -0.6292
  734SOL     vw 2936   3.391   7.428   2.454 -0.0823 -0.1650 -0.6796
  735SOL     ow 2937   4.510   5.976   0.705  0.1062 -0.3153 -0.7751
  735SOL     hw 2938   4.437   6.018   0.659 -0.5755 -2.2623 -1.5524
  735SOL     hw 2939   4.502   5.883   0.683  0.5310 -1.1633  2.2693
  735SOL     vw 2940   4.499   5.969   0.696  0.0722 -0.6843 -0.4759
  736SOL     ow 2941   5.100   4.235   7.554 -0.0544 -0.4773 -0.1940
  736SOL     hw 2942   5.153   4.203   7.481  0.9080  1.1742 -0.2865
  736SOL     hw 2943   5.092   4.159   7.612 -0.6295 -1.7552 -1.8573
  736SOL     vw 2944   5.106   4.221   7.552 -0.0033 -0.4280 -0.4258
  737SOL     ow 2945   1.712   7.261   0.523  0.2965  0.4895 -0.2465
  737SOL     hw 2946   1.618   7.248   0.518  0.1216  0.3814  2.2327
  737SOL     hw 2947   1.749   7.176   0.500 -0.2057  0.4762 -1.0296
  737SOL     vw 2948   1.705   7.248   0.519  0.2071  0.4735 -0.0227
  738SOL     ow 2949   4.770   4.362   7.507 -0.2904 -0.0289 -0.0027
  738SOL     hw 2950   4.820   4.372   7.589 -1.3470  3.0395  0.4008
  738SOL     hw 2951   4.828   4.397   7.440  0.0274 -1.2574 -0.3976
  738SOL     vw 2952   4.784   4.368   7.509 -0.3879  0.2139 -0.0017
  739SOL     ow 2953   1.256   2.757   2.184 -0.0706 -1.0485 -0.2239
  739SOL     hw 2954   1.217   2.799   2.260  0.0611 -0.9348 -0.2193
  739SOL     hw 2955   1.183   2.709   2.144 -0.0250 -1.5185  0.2544
  739SOL     vw 2956   1.241   2.756   2.188 -0.0472 -1.0955 -0.1602
  740SOL     ow 2957   6.512   2.856   6.144  0.2957  0.3779 -0.0426
  740SOL     hw 2958   6.493   2.778   6.092  1.3914 -1.1387  1.6955
  740SOL     hw 2959   6.601   2.880   6.120  0.5098  0.1584  0.5114
  740SOL     vw 2960   6.521   2.848   6.134  0.4687  0.1488  0.2599
  741SOL     ow 2961   3.040   4.426   3.321 -0.1174 -0.0964  0.3418
  741SOL     hw 2962   3.037   4.521   3.333 -3.6195 -0.1508  1.0188
  741SOL     hw 2963   3.022   4.413   3.229  0.9950 -0.1413  0.1151
  741SOL     vw 2964   3.037   4.437   3.311 -0.4326 -0.1092  0.4011
  742SOL     ow 2965   4.649   3.217   2.830 -0.6547  0.6319 -0.0795
  742SOL     hw 2966   4.621   3.280   2.895  1.5487  0.5749  1.0324
  742SOL     hw 2967   4.652   3.266   2.747 -1.4857  1.2621  0.2592
  742SOL     vw 2968   4.646   3.232   2.827 -0.4737  0.7076  0.1117
  743SOL     ow 2969   4.462   4.374   7.634 -0.6910  0.0254 -0.1951
  743SOL     hw 2970   4.454   4.361   7.728  1.3203 -2.8879 -0.2881
  743SOL     hw 2971   4.373   4.393   7.604 -1.4288  0.6410  2.1982
  743SOL     vw 2972   4.449   4.375   7.642 -0.5231 -0.2778  0.1085
  744SOL     ow 2973   0.257   2.784   2.509 -0.6480 -0.0677 -0.6351
  744SOL     hw 2974   0.254   2.703   2.458  0.6740 -1.3883  1.2254
  744SOL     hw 2975   0.192   2.770   2.579 -0.3030  0.3959 -0.2166
  744SOL     vw 2976   0.248   2.771   2.512 -0.4281 -0.1806 -0.3345
  745SOL     ow 2977   0.278   7.383   2.733  0.3852  0.6962  0.3273
  745SOL     hw 2978   0.341   7.312   2.744  0.5804  1.0555  1.5770
  745SOL     hw 2979   0.304   7.426   2.651  0.8567 -0.0573  0.0745
  745SOL     vw 2980   0.290   7.379   2.723  0.4732  0.6440  0.4588
  746SOL     ow 2981   2.399   0.286   0.353  0.3051 -0.7118  0.2660
  746SOL     hw 2982   2.346   0.338   0.415 -2.4574 -0.6947 -1.8985
  746SOL     hw 2983   2.393   0.197   0.386  1.6711 -0.2995  1.7744
  746SOL     vw 2984   2.391   0.281   0.366  0.1208 -0.6552  0.1795
  747SOL     ow 2985   3.884   4.718   1.160  0.4018  0.5131 -0.2398
  747SOL     hw 2986   3.932   4.637   1.141 -0.5932 -0.2808  0.4771
  747SOL     hw 2987   3.864   4.713   1.253  1.1874  2.0922  0.0351
  747SOL     vw 2988   3.888   4.706   1.170  0.3741  0.6168 -0.1090
  748SOL     ow 2989   1.882   4.362   7.500  0.1657  0.6011  0.1188
  748SOL     hw 2990   1.864   4.452   7.472 -0.3243  0.6597  0.6090
  748SOL     hw 2991   1.975   4.349   7.481  0.1416  1.0686 -0.3418
  748SOL     vw 2992   1.892   4.372   7.494  0.0979  0.6704  0.1225
  749SOL     ow 2993   4.274   6.924   7.136  0.1748  0.4582 -0.3152
  749SOL     hw 2994   4.347   6.985   7.139  0.0034  0.6564 -0.1617
  749SOL     hw 2995   4.247   6.923   7.044  1.5939 -1.0728 -0.7532
  749SOL     vw 2996   4.280   6.932   7.124  0.3393  0.2825 -0.3526
  750SOL     ow 2997   5.458   6.789   2.009 -0.6930  0.2557  0.0747
  750SOL     hw 2998   5.393   6.831   1.952 -3.6788 -1.5113  1.9006
  750SOL     hw 2999   5.519   6.747   1.949 -2.0748  0.7614 -1.7927
  750SOL     vw 3000   5.457   6.789   1.993 -1.2691  0.0892  0.0692
  751SOL     ow 3001   2.035   6.987   2.219 -0.1625 -0.0452 -0.9104
  751SOL     hw 3002   2.056   6.952   2.133  0.4499  1.1301 -1.2546
  751SOL     hw 3003   2.069   6.921   2.280 -1.8383 -1.5737 -1.5338
  751SOL     vw 3004   2.042   6.974   2.216 -0.3028 -0.0918 -1.0380
  752SOL     ow 3005   4.193   7.058   2.596  0.1642  1.0358 -0.2163
  752SOL     hw 3006   4.144   7.112   2.534  0.0958  2.5148  1.0577
  752SOL     hw 3007   4.276   7.105   2.609  0.7144  0.0776 -0.1543
  752SOL     vw 3008   4.198   7.071   2.590  0.2279  1.1046 -0.0399
  753SOL     ow 3009   2.436   0.958   1.230 -0.0270 -0.5448  0.3708
  753SOL     hw 3010   2.430   1.029   1.294 -0.5850  2.2660 -2.5200
  753SOL     hw 3011   2.511   0.907   1.257  0.5256  1.2711  2.5257
  753SOL     vw 3012   2.445   0.961   1.242 -0.0278  0.0656  0.2737
  754SOL     ow 3013   0.550   3.696   0.191  0.0749  0.0839 -0.4399
  754SOL     hw 3014   0.607   3.668   0.119  1.0922  0.6861  0.1089
  754SOL     hw 3015   0.533   3.788   0.175  0.3325  0.2284  0.1107
  754SOL     vw 3016   0.555   3.704   0.179  0.2431  0.1824 -0.2949
  755SOL     ow 3017   3.762   6.348   0.014  0.2713  0.0171  0.0454
  755SOL     hw 3018   3.854   6.329  -0.006  0.5507  0.6103  0.7385
  755SOL     hw 3019   3.760   6.443   0.027 -0.7841  0.2958 -1.7407
  755SOL     vw 3020   3.774   6.358   0.013  0.1689  0.1323 -0.0988
  756SOL     ow 3021   3.196   6.279   0.317 -0.4400  0.2193 -0.5493
  756SOL     hw 3022   3.158   6.218   0.254 -2.0772  0.1388  0.4682
  756SOL     hw 3023   3.159   6.253   0.402  0.8051  1.0451  0.2898
  756SOL     vw 3024   3.186   6.267   0.320 -0.4919  0.3173 -0.3043
  757SOL     ow 3025   3.812   4.774   5.556 -0.4312 -0.5322 -0.6514
  757SOL     hw 3026   3.895   4.732   5.531 -0.9983 -2.1591  0.0788
  757SOL     hw 3027   3.828   4.808   5.644 -0.4802 -0.6612 -0.5932
  757SOL     vw 3028   3.825   4.773   5.564 -0.5124 -0.7641 -0.5472
  758SOL     ow 3029   3.412   6.452   0.454 -0.2529 -0.5832  0.5093
  758SOL     hw 3030   3.368   6.480   0.534 -1.8760 -0.7062 -0.3011
  758SOL     hw 3031   3.343   6.413   0.401  1.0214 -1.6269 -0.4544
  758SOL     vw 3032   3.397   6.450   0.457 -0.2989 -0.7372  0.2752
  759SOL     ow 3033   0.283   1.695   0.594 -0.7828  0.2715  0.5682
  759SOL     hw 3034   0.280   1.756   0.521  2.0737  0.5658  0.5811
  759SOL     hw 3035   0.328   1.618   0.560 -1.8980 -0.7551  1.3038
  759SOL     vw 3036   0.288   1.693   0.580 -0.5531  0.1748  0.6669
  760SOL     ow 3037   3.984   6.607   2.354  0.0879  0.4271 -0.2004
  760SOL     hw 3038   3.908   6.552   2.332  0.4729 -0.2914  0.2175
  760SOL     hw 3039   4.059   6.559   2.317  0.6948 -0.5368  2.1409
  760SOL     vw 3040   3.984   6.593   2.346  0.2189  0.2050  0.1636
  761SOL     ow 3041   5.646   5.255   7.317 -0.4240  0.0027 -0.1539
  761SOL     hw 3042   5.689   5.265   7.232 -0.6089 -0.9309 -0.3660
  761SOL     hw 3043   5.612   5.166   7.317 -1.1537  0.2673  0.5729
  761SOL     vw 3044   5.647   5.244   7.306 -0.5448 -0.0856 -0.0861
  762SOL     ow 3045   0.799   3.718   4.704 -0.2096  0.4056  0.6598
  762SOL     hw 3046   0.807   3.785   4.635 -0.6249 -0.6047 -0.4100
  762SOL     hw 3047   0.750   3.762   4.774 -0.5023  1.2189 -0.0275
  762SOL     vw 3048   0.793   3.733   4.704 -0.3030  0.3796  0.4277
  763SOL     ow 3049   3.925   7.115   3.508 -0.1634  0.6258  0.2333
  763SOL     hw 3050   3.871   7.172   3.562 -0.9342  0.6495 -0.5354
  763SOL     hw 3051   3.921   7.030   3.550 -0.9259  0.5931  0.1042
  763SOL     vw 3052   3.917   7.112   3.520 -0.3657  0.6247  0.1148
  764SOL     ow 3053   0.782   5.055   2.420  0.2088  0.1013 -0.0477
  764SOL     hw 3054   0.836   5.015   2.488 -2.5646 -0.0652  2.2370
  764SOL     hw 3055   0.718   5.108   2.468 -2.3686 -0.5861 -2.4569
  764SOL     vw 3056   0.781   5.057   2.436 -0.4972 -0.0112 -0.0641
  765SOL     ow 3057   7.177   4.767   7.040 -0.2445 -0.3024 -0.3751
  765SOL     hw 3058   7.227   4.687   7.054 -1.3943 -1.0897 -0.5642
  765SOL     hw 3059   7.108   4.741   6.978  0.1646  1.1682 -1.5071
  765SOL     vw 3060   7.175   4.753   7.033 -0.3424 -0.2124 -0.5496
  766SOL     ow 3061   6.176   2.096   6.213  0.4800  0.2939 -0.1492
  766SOL     hw 3062   6.201   2.029   6.276  0.4105  0.4788  0.0737
  766SOL     hw 3063   6.230   2.172   6.235 -1.3409  1.2375  1.3345
  766SOL     vw 3064   6.186   2.097   6.224  0.2303  0.4427  0.0763
  767SOL     ow 3065   3.960   2.192   2.888  1.3121  0.3799 -0.0743
  767SOL     hw 3066   4.003   2.118   2.930 -2.3637 -2.0997 -0.1670
  767SOL     hw 3067   3.919   2.154   2.809 -0.7890  2.4223 -0.0769
  767SOL     vw 3068   3.960   2.177   2.883  0.5498  0.3221 -0.0869
  768SOL     ow 3069   7.454   5.613   2.630 -0.7180 -1.0379 -1.1178
  768SOL     hw 3070   7.510   5.669   2.576  0.9929 -0.6364  0.9459
  768SOL     hw 3071   7.366   5.650   2.621  0.4465  2.5943  0.7891
  768SOL     vw 3072   7.450   5.625   2.621 -0.3386 -0.5059 -0.5939
  769SOL     ow 3073   5.672   5.044   0.925  0.1755 -0.1493  0.0042
  769SOL     hw 3074   5.640   4.957   0.951  3.7656 -2.0422 -1.2571
  769SOL     hw 3075   5.635   5.058   0.838  1.0134 -1.3521 -0.5773
  769SOL     vw 3076   5.663   5.034   0.917  0.7594 -0.5579 -0.2389
  770SOL     ow 3077   4.043   6.424   5.094 -0.3826 -0.8599 -0.1669
  770SOL     hw 3078   4.106   6.457   5.158 -0.2932  0.6194 -0.9715
  770SOL     hw 3079   4.036   6.330   5.113  3.0603 -1.3886 -0.8659
  770SOL     vw 3080   4.050   6.416   5.105  0.0834 -0.7346 -0.3655
  771SOL     ow 3081   7.242   3.433   6.469 -0.1083 -0.8965  0.4454
  771SOL     hw 3082   7.180   3.462   6.536  0.6306 -0.9543  1.1693
  771SOL     hw 3083   7.314   3.394   6.518 -0.5577 -2.9895 -0.4587
  771SOL     vw 3084   7.243   3.432   6.485 -0.0703 -1.1803  0.4218
  772SOL     ow 3085   6.029   1.227   0.070  0.2767  0.1913 -0.0085
  772SOL     hw 3086   6.088   1.165   0.028  0.6652 -0.3463  1.2804
  772SOL     hw 3087   6.009   1.188   0.155 -1.0015  0.9294  0.0656
  772SOL     vw 3088   6.034   1.214   0.076  0.1595  0.2178  0.1714
  773SOL     ow 3089   7.505   6.516   6.575  0.5003 -0.0480 -0.5202
  773SOL     hw 3090   7.416   6.486   6.558  1.3176 -1.8362 -1.9059
  773SOL     hw 3091   7.499   6.560   6.660 -1.2965 -2.0047  0.4756
  773SOL     vw 3092   7.492   6.518   6.584  0.3712 -0.5422 -0.5717
  774SOL     ow 3093   2.531   0.877   2.915 -0.5219  0.0779 -0.5476
  774SOL     hw 3094   2.580   0.797   2.899 -0.2965 -0.1388  1.0772
  774SOL     hw 3095   2.439   0.852   2.905 -0.4474 -0.3765 -0.1213
  774SOL     vw 3096   2.525   0.863   2.912 -0.4823 -0.0107 -0.2769
  775SOL     ow 3097   5.625   6.948   5.796 -0.0817  0.0274 -0.7249
  775SOL     hw 3098   5.547   6.905   5.830  1.0053 -0.5842  1.1874
  775SOL     hw 3099   5.605   7.042   5.801 -1.7122 -0.1083 -3.0181
  775SOL     vw 3100   5.612   6.955   5.801 -0.1535 -0.0708 -0.7751
  776SOL     ow 3101   0.925   5.478   4.665 -0.1780  0.7612  0.0516
  776SOL     hw 3102   0.951   5.559   4.621 -1.9138  2.2120  1.5296
  776SOL     hw 3103   0.840   5.455   4.626 -0.4816  0.5955  0.7892
  776SOL     vw 3104   0.917   5.485   4.654 -0.4471  0.9308  0.3440
  777SOL     ow 3105   3.301   6.712   5.405  0.4602  0.2063 -0.2177
  777SOL     hw 3106   3.273   6.638   5.351  0.2856  0.7711 -0.9164
  777SOL     hw 3107   3.320   6.673   5.491 -0.9455 -0.4327 -0.1698
  777SOL     vw 3108   3.300   6.697   5.409  0.2518  0.1969 -0.3037
  778SOL     ow 3109   0.091   4.964   7.353  0.3650  0.4281  0.1918
  778SOL     hw 3110   0.065   5.018   7.427 -2.6571  0.1918 -0.5643
  778SOL     hw 3111   0.010   4.950   7.303  1.7371 -1.6842 -1.6723
  778SOL     vw 3112   0.077   4.969   7.356  0.1473  0.1183 -0.1538
  779SOL     ow 3113   6.500   2.081   6.336 -0.2032 -0.5510  0.8830
  779SOL     hw 3114   6.436   2.019   6.370  1.1566 -3.3029 -1.2244
  779SOL     hw 3115   6.486   2.081   6.242 -0.9213  3.4138  0.8094
  779SOL     vw 3116   6.489   2.073   6.328 -0.1185 -0.3910  0.5953
  780SOL     ow 3117   5.246   2.886   2.498 -0.4122  0.5997 -0.5292
  780SOL     hw 3118   5.317   2.821   2.502 -0.6924  0.3401  1.6070
  780SOL     hw 3119   5.198   2.865   2.418 -1.3368 -2.7963  0.7422
  780SOL     vw 3120   5.249   2.875   2.488 -0.5713  0.1174 -0.0796
  781SOL     ow 3121   7.499   5.740   1.603 -0.4545 -0.6057  0.3850
  781SOL     hw 3122   7.502   5.769   1.512 -0.1284  1.0127  0.8909
  781SOL     hw 3123   7.435   5.798   1.645  2.4456  1.6234  2.1266
  781SOL     vw 3124   7.491   5.751   1.597 -0.0291 -0.0982  0.6815
  782SOL     ow 3125   7.446   2.916   5.177 -0.3822  0.1048  0.7441
  782SOL     hw 3126   7.413   2.830   5.152  0.6522 -0.5765  1.6523
  782SOL     hw 3127   7.369   2.963   5.209 -0.4219 -1.7689  3.7106
  782SOL     vw 3128   7.431   2.911   5.178 -0.2511 -0.2323  1.2553
  783SOL     ow 3129   5.356   7.047   5.500 -0.4180 -0.5414 -0.0473
  783SOL     hw 3130   5.416   7.122   5.501 -0.7727 -0.2275 -1.0266
  783SOL     hw 3131   5.392   6.986   5.565  0.4371  0.0390  0.0369
  783SOL     vw 3132   5.369   7.049   5.509 -0.3517 -0.4234 -0.1655
  784SOL     ow 3133   6.707   6.743   5.266  0.5559  0.0521  0.1028
  784SOL     hw 3134   6.743   6.827   5.237 -0.4371 -0.0169 -1.4132
  784SOL     hw 3135   6.762   6.677   5.223 -0.1173 -0.0510 -0.6296
  784SOL     vw 3136   6.719   6.745   5.257  0.3359  0.0296 -0.1938
  785SOL     ow 3137   1.182   1.674   5.922  0.2143 -0.1271  0.6732
  785SOL     hw 3138   1.094   1.648   5.897 -0.4591  2.2228  0.3465
  785SOL     hw 3139   1.240   1.625   5.864 -0.8282 -1.8386  1.0149
  785SOL     vw 3140   1.178   1.664   5.911 -0.0120 -0.0429  0.6752
  786SOL     ow 3141   2.301   0.826   3.577 -0.8264 -0.1362 -0.3146
  786SOL     hw 3142   2.387   0.827   3.619  0.9201 -3.0026 -3.3192
  786SOL     hw 3143   2.265   0.740   3.598 -1.0158 -0.6244 -2.4236
  786SOL     vw 3144   2.308   0.815   3.585 -0.6210 -0.5788 -0.9893
  787SOL     ow 3145   5.144   2.614   5.866  0.3382  0.0214 -0.0211
  787SOL     hw 3146   5.227   2.645   5.903  2.1920 -3.2196 -1.0518
  787SOL     hw 3147   5.168   2.575   5.782 -1.5827 -3.7534  0.9536
  787SOL     vw 3148   5.158   2.613   5.860  0.3293 -0.9042 -0.0286
  788SOL     ow 3149   2.532   1.174   5.764 -0.1172 -0.1860 -0.4004
  788SOL     hw 3150   2.509   1.104   5.825  1.7352 -0.2611  0.2661
  788SOL     hw 3151   2.460   1.236   5.771 -0.2815 -0.5345  1.3590
  788SOL     vw 3152   2.519   1.173   5.773  0.1056 -0.2419 -0.0801
  789SOL     ow 3153   4.905   1.357   2.406 -0.3815  0.5062  0.0013
  789SOL     hw 3154   4.843   1.312   2.350 -0.5384  0.1469  0.4517
  789SOL     hw 3155   4.926   1.438   2.360 -1.1170  0.5905 -0.1925
  789SOL     vw 3156   4.900   1.362   2.393 -0.4992  0.4699  0.0350
  790SOL     ow 3157   4.660   3.589   6.194  0.4967  0.1843 -0.6529
  790SOL     hw 3158   4.664   3.596   6.099  1.0541 -0.0726 -0.6502
  790SOL     hw 3159   4.582   3.640   6.219 -1.0338 -1.6563 -1.4444
  790SOL     vw 3160   4.650   3.597   6.185  0.3681 -0.0924 -0.7567
  791SOL     ow 3161   6.262   5.797   2.201 -0.3747 -0.2860  0.2850
  791SOL     hw 3162   6.233   5.853   2.129  0.1849 -1.4002 -0.8365
  791SOL     hw 3163   6.181   5.770   2.244 -0.9228 -1.6411 -1.5057
  791SOL     vw 3164   6.247   5.801   2.197 -0.3731 -0.6120 -0.0992
  792SOL     ow 3165   0.445   1.896   5.611 -0.7698  0.3949 -0.5213
  792SOL     hw 3166   0.388   1.822   5.630  0.1483 -0.7665 -2.0281
  792SOL     hw 3167   0.440   1.906   5.516  0.3345  1.2639 -0.5093
  792SOL     vw 3168   0.437   1.887   5.601 -0.5030  0.3564 -0.7184
  793SOL     ow 3169   0.535   4.466   1.332  0.4542  0.0560  0.7306
  793SOL     hw 3170   0.443   4.490   1.344  0.6723  2.0805 -1.1218
  793SOL     hw 3171   0.582   4.519   1.396  0.3692 -1.1626  1.8510
  793SOL     vw 3172   0.529   4.476   1.342  0.4717  0.1626  0.6341
  794SOL     ow 3173   5.995   7.095   3.384 -0.2825  0.3565 -0.4345
  794SOL     hw 3174   6.014   7.007   3.415  0.7100  0.5672 -0.4059
  794SOL     hw 3175   5.911   7.117   3.425 -0.5382 -0.5643 -0.4426
  794SOL     vw 3176   5.986   7.086   3.393 -0.1850  0.2627 -0.4318
  795SOL     ow 3177   5.897   7.381   0.163  0.1170 -0.2008 -0.2880
  795SOL     hw 3178   5.893   7.445   0.234  2.5956 -0.7845  0.4902
  795SOL     hw 3179   5.914   7.298   0.207  1.2394 -0.6575 -1.5189
  795SOL     vw 3180   5.899   7.378   0.178  0.5920 -0.3381 -0.3477
  796SOL     ow 3181   0.721   3.700   0.450 -0.0775  0.4246 -0.4072
  796SOL     hw 3182   0.675   3.779   0.477 -1.4618 -0.8029  1.0275
  796SOL     hw 3183   0.811   3.730   0.432 -1.0929  2.6917 -2.2697
  796SOL     vw 3184   0.727   3.715   0.451 -0.3941  0.5616 -0.4636
  797SOL     ow 3185   5.933   2.290   6.158  0.7155 -0.1431 -0.3429
  797SOL     hw 3186   5.867   2.303   6.227  1.2330  0.2556  0.0902
  797SOL     hw 3187   5.918   2.361   6.097 -0.8519 -1.4588 -1.5734
  797SOL     vw 3188   5.922   2.301   6.159  0.5767 -0.2642 -0.4482
  798SOL     ow 3189   0.353   2.835   4.004  0.5047 -0.3522 -0.3876
  798SOL     hw 3190   0.440   2.809   4.032  0.0653 -1.3623  0.1090
  798SOL     hw 3191   0.352   2.820   3.909  0.1536 -2.6456 -0.0839
  798SOL     vw 3192   0.364   2.829   3.995  0.4004 -0.7880 -0.2819
  799SOL     ow 3193   0.443   1.959   6.376 -0.1450  0.0650 -0.1467
  799SOL     hw 3194   0.371   2.008   6.415 -0.4733  0.5775 -1.3669
  799SOL     hw 3195   0.492   1.926   6.451  0.0999  2.2684  0.7554
  799SOL     vw 3196   0.440   1.961   6.391 -0.1560  0.4234 -0.1886
  800SOL     ow 3197   3.375   1.250   2.110  0.0957  0.0513  0.2593
  800SOL     hw 3198   3.471   1.244   2.106  0.1081  0.5271 -0.3336
  800SOL     hw 3199   3.345   1.167   2.074  0.2776 -0.8343  2.0493
  800SOL     vw 3200   3.384   1.239   2.104  0.1215 -0.0029  0.4171
  801SOL     ow 3201   6.058   6.943   5.145 -0.1099  0.4434  0.0628
  801SOL     hw 3202   6.012   7.027   5.140 -1.6036 -0.3790 -0.7076
  801SOL     hw 3203   5.991   6.878   5.124  0.8252 -1.0182  1.3880
  801SOL     vw 3204   6.043   6.945   5.142 -0.1833  0.1421  0.1361
  802SOL     ow 3205   3.132   7.518   2.626  0.0538 -0.3357 -0.4707
  802SOL     hw 3206   3.089   7.493   2.708  1.2517 -0.3703  0.1670
  802SOL     hw 3207   3.104   7.452   2.564 -3.6086  1.5155 -1.0727
  802SOL     vw 3208   3.123   7.506   2.629 -0.2713 -0.0961 -0.4660
  803SOL     ow 3209   4.562   0.076   6.942  0.1011  0.4031 -0.0118
  803SOL     hw 3210   4.512   0.008   6.988  0.4355  2.3965  3.6720
  803SOL     hw 3211   4.610   0.028   6.874 -2.2665 -2.4485  0.1071
  803SOL     vw 3212   4.562   0.060   6.939 -0.1671  0.2899  0.4900
  804SOL     ow 3213   2.195   5.798   4.779 -0.1373  0.2917  0.0013
  804SOL     hw 3214   2.164   5.730   4.719  0.5497  0.9336 -1.1248
  804SOL     hw 3215   2.260   5.754   4.834 -2.0192 -0.7405  1.5206
  804SOL     vw 3216   2.199   5.784   4.779 -0.2949  0.2403  0.0532
  805SOL     ow 3217   3.416   6.676   3.485  0.0354  0.3057 -0.2251
  805SOL     hw 3218   3.394   6.659   3.576 -1.2312 -0.6289 -0.6752
  805SOL     hw 3219   3.340   6.721   3.449  0.5317  0.6945 -0.8159
  805SOL     vw 3220   3.403   6.679   3.492 -0.0664  0.2339 -0.3624
  806SOL     ow 3221   3.257   5.536   4.791 -0.3439  0.5005 -0.3702
  806SOL     hw 3222   3.297   5.533   4.704 -0.2325 -0.5802 -0.2998
  806SOL     hw 3223   3.312   5.479   4.845 -1.2202  0.0198  0.0446
  806SOL     vw 3224   3.269   5.528   4.787 -0.4448  0.2947 -0.3064
  807SOL     ow 3225   4.039   5.428   7.245 -0.1372 -0.2822 -0.2211
  807SOL     hw 3226   4.061   5.466   7.160 -1.3206  0.5428 -0.1785
  807SOL     hw 3227   4.043   5.501   7.307 -1.5087 -0.3841  0.0199
  807SOL     vw 3228   4.042   5.442   7.242 -0.4742 -0.1869 -0.1836
  808SOL     ow 3229   1.797   1.567   3.530 -0.1512  0.8022 -0.2274
  808SOL     hw 3230   1.871   1.573   3.469 -0.4875  2.9365 -0.5304
  808SOL     hw 3231   1.827   1.613   3.608 -0.4874 -0.0151  0.3877
  808SOL     vw 3232   1.810   1.574   3.532 -0.2399  0.9760 -0.1862
  809SOL     ow 3233   0.901   2.174   2.423 -0.3817 -0.1159 -0.2788
  809SOL     hw 3234   0.860   2.259   2.439 -1.5753 -0.5122 -1.1104
  809SOL     hw 3235   0.876   2.151   2.333  0.9899 -0.7687 -0.5309
  809SOL     vw 3236   0.892   2.182   2.413 -0.3582 -0.2543 -0.4218
  810SOL     ow 3237   7.512   3.026   1.141  0.6839 -0.1705 -0.1453
  810SOL     hw 3238   7.445   3.095   1.135  1.1951  0.2360 -1.5306
  810SOL     hw 3239   7.561   3.047   1.221 -0.1580  0.1368  0.3090
  810SOL     vw 3240   7.509   3.038   1.151  0.6404 -0.0763 -0.2680
  811SOL     ow 3241   5.965   0.974   5.840 -0.0479 -0.2696 -0.0464
  811SOL     hw 3242   5.996   0.967   5.750 -1.0338  1.6903 -0.6094
  811SOL     hw 3243   5.881   1.020   5.833  0.7220  1.6300  1.9873
  811SOL     vw 3244   5.958   0.979   5.828 -0.0765  0.2396  0.1476
  812SOL     ow 3245   2.065   6.793   4.563  0.5159  0.5297  0.4122
  812SOL     hw 3246   1.970   6.780   4.569  0.4571  0.4990 -0.4768
  812SOL     hw 3247   2.077   6.845   4.484  1.3682 -1.1229 -0.6060
  812SOL     vw 3248   2.054   6.798   4.553  0.6205  0.3076  0.1605
  813SOL     ow 3249   3.252   0.705   1.582 -0.0940 -0.3262 -0.1266
  813SOL     hw 3250   3.265   0.752   1.500 -0.7102  0.8168  0.4111
  813SOL     hw 3251   3.172   0.742   1.619  1.2486  0.6492  1.9854
  813SOL     vw 3252   3.243   0.716   1.577  0.0018 -0.0467  0.2230
  814SOL     ow 3253   5.470   1.771   3.043  0.7103 -0.4334  0.2751
  814SOL     hw 3254   5.463   1.853   3.092 -0.9539  0.3085 -1.0861
  814SOL     hw 3255   5.493   1.799   2.954  2.2810 -1.6372  0.2551
  814SOL     vw 3256   5.472   1.786   3.037  0.6979 -0.4944  0.0930
  815SOL     ow 3257   2.509   4.258   0.876  0.5717  0.6834  0.2787
  815SOL     hw 3258   2.456   4.185   0.844 -1.0329  1.8469  0.1597
  815SOL     hw 3259   2.583   4.263   0.815  0.2666 -0.2996 -0.1913
  815SOL     vw 3260   2.512   4.249   0.864  0.3196  0.7074  0.2010
  816SOL     ow 3261   5.669   1.598   1.977 -0.0523  0.4430 -0.4210
  816SOL     hw 3262   5.699   1.687   1.957  2.5413 -0.0492  0.7865
  816SOL     hw 3263   5.710   1.544   1.908 -0.9040  0.0839 -0.6516
  816SOL     vw 3264   5.679   1.603   1.965  0.1774  0.3306 -0.2921
  817SOL     ow 3265   2.486   1.013   7.397 -0.5793  0.2937  0.2761
  817SOL     hw 3266   2.423   0.951   7.434 -0.3925 -0.0401  0.0400
  817SOL     hw 3267   2.544   1.035   7.471  1.7280 -2.7425 -0.4183
  817SOL     vw 3268   2.485   1.007   7.412 -0.2502 -0.1509  0.1531
  818SOL     ow 3269   7.322   5.912   1.710 -0.1260 -0.1561 -0.5655
  818SOL     hw 3270   7.274   5.897   1.791  1.7794  1.3269  0.9318
  818SOL     hw 3271   7.280   5.988   1.671 -0.0604  0.0868 -0.1632
  818SOL     vw 3272   7.310   5.920   1.716  0.1340  0.0718 -0.3150
  819SOL     ow 3273   6.865   1.308   0.924  0.4346 -0.5097  0.0248
  819SOL     hw 3274   6.953   1.346   0.926  1.3653 -2.5019 -0.3465
  819SOL     hw 3275   6.827   1.331   1.009  0.6930  1.6676 -0.3912
  819SOL     vw 3276   6.872   1.316   0.936  0.5915 -0.4854 -0.0791
  820SOL     ow 3277   3.846   6.890   2.572  0.4983 -0.0160 -0.2578
  820SOL     hw 3278   3.768   6.840   2.596  1.2325 -2.8183 -2.9763
  820SOL     hw 3279   3.818   6.944   2.498  0.8640 -0.3383 -0.6424
  820SOL     vw 3280   3.832   6.890   2.565  0.6434 -0.4280 -0.6673
  821SOL     ow 3281   7.406   6.817   2.471  0.1383  0.5796 -0.7808
  821SOL     hw 3282   7.374   6.908   2.474 -1.5546  0.0248 -0.8818
  821SOL     hw 3283   7.335   6.766   2.511  1.6563 -0.5602  0.5704
  821SOL     vw 3284   7.392   6.823   2.477  0.1152  0.3560 -0.6160
  822SOL     ow 3285   7.579   1.403   1.731  0.2073  0.1192  0.1026
  822SOL     hw 3286   7.596   1.481   1.784  1.0276  0.8274 -1.1308
  822SOL     hw 3287   7.575   1.332   1.794 -0.4518  1.1351  1.2551
  822SOL     vw 3288   7.581   1.404   1.746  0.2286  0.3467  0.0920
  823SOL     ow 3289   2.681   7.248   4.922 -0.2157  0.0095 -0.2737
  823SOL     hw 3290   2.613   7.199   4.877  1.0301 -1.0086 -1.1334
  823SOL     hw 3291   2.675   7.221   5.014 -1.9970  1.1930  0.0082
  823SOL     vw 3292   2.671   7.238   4.928 -0.2862  0.0312 -0.3498
  824SOL     ow 3293   1.286   0.419   2.066  0.9718  0.1090 -0.4132
  824SOL     hw 3294   1.341   0.484   2.022  2.2591  0.5390  1.7137
  824SOL     hw 3295   1.207   0.466   2.091  1.6553  0.7413  0.6100
  824SOL     vw 3296   1.283   0.434   2.063  1.2318  0.2492  0.0024
  825SOL     ow 3297   5.754   3.871   1.106 -0.5224 -0.1722 -0.2645
  825SOL     hw 3298   5.817   3.800   1.119  1.2860  1.4773  0.6748
  825SOL     hw 3299   5.720   3.858   1.017  2.9278  0.0612 -1.8013
  825SOL     vw 3300   5.758   3.860   1.096  0.1717  0.0763 -0.3434
  826SOL     ow 3301   5.981   0.534   7.061  0.8417  0.2532  0.5008
  826SOL     hw 3302   6.014   0.451   7.026 -0.4794  0.5356 -1.5681
  826SOL     hw 3303   5.932   0.509   7.140 -1.9353 -1.4024 -1.5779
  826SOL     vw 3304   5.979   0.520   7.067  0.3009  0.0720 -0.0465
  827SOL     ow 3305   4.202   1.980   0.778 -0.1601 -1.0896  0.5518
  827SOL     hw 3306   4.287   2.011   0.745 -1.1526 -0.3402 -1.4849
  827SOL     hw 3307   4.204   2.000   0.871  1.0483  1.0645  0.1437
  827SOL     vw 3308   4.214   1.987   0.786 -0.1316 -0.7066  0.2292
  828SOL     ow 3309   6.758   4.206   2.095  0.1514 -1.0424  0.3421
  828SOL     hw 3310   6.782   4.295   2.121  3.4899 -2.0821  1.4032
  828SOL     hw 3311   6.840   4.168   2.063 -1.2396 -3.6606 -0.3756
  828SOL     vw 3312   6.772   4.213   2.094  0.4082 -1.5249  0.3875
  829SOL     ow 3313   6.585   5.555   0.812 -0.2786 -0.5435 -0.1065
  829SOL     hw 3314   6.629   5.640   0.814 -1.2785 -0.0102  0.1859
  829SOL     hw 3315   6.628   5.504   0.880  1.5486 -0.9192 -1.4819
  829SOL     vw 3316   6.596   5.560   0.821 -0.1695 -0.5229 -0.2494
  830SOL     ow 3317   5.313   3.739   3.996 -0.0203 -0.0002  0.2965
  830SOL     hw 3318   5.369   3.670   4.033 -0.8156 -0.5382  0.5160
  830SOL     hw 3319   5.374   3.809   3.973  0.7250 -0.4973  0.7059
  830SOL     vw 3320   5.329   3.739   3.998 -0.0267 -0.1366  0.3794
  831SOL     ow 3321   2.794   5.632   6.459  0.8660  0.3607 -0.2791
  831SOL     hw 3322   2.786   5.728   6.453 -0.5243  0.1679 -2.7242
  831SOL     hw 3323   2.882   5.618   6.494  0.2659  2.5018  2.5378
  831SOL     vw 3324   2.805   5.643   6.463  0.6034  0.6177 -0.2298
  832SOL     ow 3325   3.236   0.985   6.347 -0.6813  0.0941 -1.2172
  832SOL     hw 3326   3.308   0.923   6.332  0.2532  1.0253 -0.7598
  832SOL     hw 3327   3.273   1.071   6.323 -1.4083  0.6813 -0.3013
  832SOL     vw 3328   3.251   0.988   6.342 -0.6539  0.2944 -1.0359
  833SOL     ow 3329   1.563   4.924   5.260  0.4037  0.2623  0.0905
  833SOL     hw 3330   1.495   4.990   5.272  1.4765  1.6786 -1.2279
  833SOL     hw 3331   1.578   4.888   5.348 -0.8982  1.0688  0.6667
  833SOL     vw 3332   1.556   4.928   5.273  0.3734  0.5553 -0.0076
  834SOL     ow 3333   0.656   3.103   4.865  0.8851  0.6809  0.2425
  834SOL     hw 3334   0.712   3.179   4.851 -1.2595  2.3909  0.3614
  834SOL     hw 3335   0.693   3.059   4.941  2.5779  1.1744 -0.2465
  834SOL     vw 3336   0.668   3.107   4.873  0.8255  0.9717  0.1934
  835SOL     ow 3337   4.322   6.443   4.585 -0.0695 -0.2685 -0.0350
  835SOL     hw 3338   4.392   6.449   4.520 -0.3872  2.1648 -0.2353
  835SOL     hw 3339   4.244   6.423   4.534  0.3373 -2.7377  0.1626
  835SOL     vw 3340   4.321   6.441   4.570 -0.0579 -0.2730 -0.0350
  836SOL     ow 3341   2.507   2.512   4.422  0.0069  0.1815 -0.0660
  836SOL     hw 3342   2.532   2.605   4.415  1.2453 -0.1799 -0.7585
  836SOL     hw 3343   2.495   2.484   4.331  1.2311 -0.7324  0.0351
  836SOL     vw 3344   2.509   2.521   4.409  0.3318  0.0132 -0.1442
  837SOL     ow 3345   1.430   0.923   1.695 -0.2535 -0.2025 -0.0655
  837SOL     hw 3346   1.347   0.932   1.648  0.1102 -1.2180 -0.9760
  837SOL     hw 3347   1.485   0.873   1.634  0.6792 -0.4226  0.9346
  837SOL     vw 3348   1.426   0.917   1.680 -0.0824 -0.3655 -0.0536
  838SOL     ow 3349   3.506   5.192   2.876 -0.2377 -0.2989  0.2689
  838SOL     hw 3350   3.423   5.170   2.918 -0.5729  1.2960  0.5225
  838SOL     hw 3351   3.564   5.217   2.949 -0.5365  1.5928 -0.0789
  838SOL     vw 3352   3.503   5.193   2.892 -0.3214  0.1612  0.2564
  839SOL     ow 3353   6.582   4.048   5.556 -0.5559  0.9485 -0.1857
  839SOL     hw 3354   6.651   4.034   5.621 -1.6094 -0.8000  0.6448
  839SOL     hw 3355   6.625   4.094   5.484  1.5349 -0.2830  0.1936
  839SOL     vw 3356   6.597   4.052   5.555 -0.4189  0.5550 -0.0260
  840SOL     ow 3357   5.375   0.016   7.344 -0.1073  0.8347  0.1612
  840SOL     hw 3358   5.392  -0.067   7.300 -2.0802  0.2146  0.4808
  840SOL     hw 3359   5.293   0.002   7.391  0.1212  2.6068  1.1831
  840SOL     vw 3360   5.367   0.003   7.345 -0.3374  0.9868  0.3381
  841SOL     ow 3361   3.540   2.323   5.451  0.4015 -0.2600 -0.6374
  841SOL     hw 3362   3.472   2.388   5.434  0.0032 -0.6634 -0.6215
  841SOL     hw 3363   3.598   2.329   5.375  1.9595  2.0445  0.6594
  841SOL     vw 3364   3.538   2.332   5.439  0.5546 -0.0092 -0.4640
  842SOL     ow 3365   3.250   2.328   4.963 -0.7024  0.5231  0.7781
  842SOL     hw 3366   3.323   2.376   5.004  0.4240 -0.7296  0.3113
  842SOL     hw 3367   3.174   2.384   4.977  0.4478  2.1495  0.7863
  842SOL     vw 3368   3.250   2.342   4.971 -0.4020  0.5724  0.7179
  843SOL     ow 3369   0.271   3.314   4.667 -0.2766 -0.2087 -1.1209
  843SOL     hw 3370   0.245   3.331   4.577  3.3000  1.1134 -2.0740
  843SOL     hw 3371   0.343   3.252   4.660  1.1783  1.1836  0.6330
  843SOL     vw 3372   0.277   3.308   4.654  0.3873  0.1494 -1.0152
  844SOL     ow 3373   2.380   6.098   3.469 -0.2444  0.7816  0.0664
  844SOL     hw 3374   2.390   6.187   3.433 -1.3874  0.3898 -1.3266
  844SOL     hw 3375   2.448   6.092   3.536  0.4671  2.3895 -0.4442
  844SOL     vw 3376   2.391   6.109   3.473 -0.3014  0.9420 -0.1847
  845SOL     ow 3377   1.793   3.409   2.631  0.5489 -0.1696  0.0916
  845SOL     hw 3378   1.864   3.439   2.573  0.8047 -0.8644  0.0341
  845SOL     hw 3379   1.716   3.406   2.574  0.3728  0.9909  0.2538
  845SOL     vw 3380   1.792   3.412   2.616  0.5593 -0.1080  0.1053
  846SOL     ow 3381   7.471   6.124   5.813  0.1042 -0.1576  0.4385
  846SOL     hw 3382   7.531   6.127   5.739  0.3522  1.3578  0.6677
  846SOL     hw 3383   7.517   6.169   5.883 -0.7707 -0.1567  1.0332
  846SOL     vw 3384   7.485   6.130   5.812  0.0215  0.0427  0.5472
  847SOL     ow 3385   5.681   1.198   6.031 -0.5665  0.3331  0.5090
  847SOL     hw 3386   5.700   1.146   6.109 -1.6321  1.4848  1.5835
  847SOL     hw 3387   5.713   1.286   6.053  1.1829  0.2161 -1.2533
  847SOL     vw 3388   5.688   1.203   6.045 -0.4761  0.4697  0.4182
  848SOL     ow 3389   2.446   3.670   5.977 -0.5405 -0.2692 -0.1958
  848SOL     hw 3390   2.430   3.651   5.884 -0.3863  0.4387 -0.3688
  848SOL     hw 3391   2.464   3.584   6.015 -0.8974 -0.6048 -0.7614
  848SOL     vw 3392   2.446   3.656   5.969 -0.5674 -0.2199 -0.2933
  849SOL     ow 3393   3.652   1.399   3.875 -0.0918 -0.3014 -0.1476
  849SOL     hw 3394   3.656   1.444   3.959 -1.2409 -0.5188  0.0315
  849SOL     hw 3395   3.562   1.412   3.845  0.5706  0.7494 -1.8808
  849SOL     vw 3396   3.640   1.407   3.882 -0.1559 -0.1914 -0.3527
  850SOL     ow 3397   6.867   2.865   3.597 -0.5367 -0.6018  0.1861
  850SOL     hw 3398   6.797   2.851   3.660  0.8212 -2.8030  1.3314
  850SOL     hw 3399   6.945   2.830   3.639  1.5215  2.5515 -0.6589
  850SOL     vw 3400   6.868   2.858   3.611 -0.0858 -0.4762  0.2258
  851SOL     ow 3401   1.226   6.518   5.801  0.4729  0.4390 -0.2198
  851SOL     hw 3402   1.310   6.563   5.801 -0.0757  1.7235 -3.6445
  851SOL     hw 3403   1.247   6.428   5.775  1.0616 -0.2885  2.4113
  851SOL     vw 3404   1.240   6.512   5.798  0.4783  0.5126 -0.3245
  852SOL     ow 3405   1.959   0.889   6.103  0.2423  0.5076 -0.0152
  852SOL     hw 3406   2.048   0.863   6.079  0.5187  1.1672  0.2610
  852SOL     hw 3407   1.957   0.879   6.198 -0.7826 -1.9074 -0.2322
  852SOL     vw 3408   1.971   0.884   6.113  0.1435  0.2760 -0.0074
  853SOL     ow 3409   0.440   6.647   2.876 -0.0511 -0.3140 -0.1369
  853SOL     hw 3410   0.406   6.573   2.927 -1.1404  0.9107  1.0019
  853SOL     hw 3411   0.366   6.674   2.821 -0.2055  0.8725  0.6049
  853SOL     vw 3412   0.426   6.641   2.875 -0.2152  0.0041  0.1113
  854SOL     ow 3413   2.754   4.359   4.176  0.0506  0.2476 -0.0475
  854SOL     hw 3414   2.722   4.368   4.266  0.2726 -0.9883  0.1697
  854SOL     hw 3415   2.715   4.277   4.145 -0.6428  1.0425 -1.3567
  854SOL     vw 3416   2.745   4.349   4.184 -0.0116  0.1893 -0.1915
  855SOL     ow 3417   6.887   2.430   4.688 -0.6120 -0.1341  0.2662
  855SOL     hw 3418   6.952   2.373   4.645 -0.6398 -0.4108  0.5900
  855SOL     hw 3419   6.909   2.518   4.657  0.9626 -0.0027  1.6410
  855SOL     vw 3420   6.899   2.434   4.678 -0.4079 -0.1533  0.4904
  856SOL     ow 3421   7.374   4.824   6.575 -0.0382  0.2821  0.0402
  856SOL     hw 3422   7.298   4.790   6.526 -0.4060  2.3617 -0.9483
  856SOL     hw 3423   7.346   4.822   6.666 -0.9560  0.2332 -0.2277
  856SOL     vw 3424   7.360   4.819   6.580 -0.2077  0.5500 -0.1254
  857SOL     ow 3425   3.967   0.365   5.660 -0.0792 -0.3291 -0.0375
  857SOL     hw 3426   3.970   0.427   5.587  1.4053 -0.4942 -0.1478
  857SOL     hw 3427   3.889   0.311   5.643 -1.4179  1.4810  0.0852
  857SOL     vw 3428   3.957   0.366   5.648 -0.0600 -0.1121 -0.0358
  858SOL     ow 3429   7.018   3.514   4.794 -0.1844 -0.1585 -0.2524
  858SOL     hw 3430   7.033   3.465   4.713 -1.7981  0.3821 -0.9355
  858SOL     hw 3431   6.942   3.470   4.834  2.1974 -2.1737  2.4725
  858SOL     vw 3432   7.010   3.501   4.789 -0.0830 -0.3531  0.0169
  859SOL     ow 3433   1.242   5.674   4.103  0.4224  0.1684 -0.1366
  859SOL     hw 3434   1.156   5.691   4.065 -0.5672 -2.2444  0.8432
  859SOL     hw 3435   1.226   5.671   4.197  1.6557 -0.0650  0.0808
  859SOL     vw 3436   1.229   5.676   4.110  0.4545 -0.1807  0.0215
  860SOL     ow 3437   6.981   0.179   0.282 -0.0651 -0.1087 -0.6574
  860SOL     hw 3438   6.924   0.125   0.337  1.2350 -2.3422 -1.3928
  860SOL     hw 3439   6.935   0.263   0.275 -3.5496 -1.9241 -1.6912
  860SOL     vw 3440   6.967   0.183   0.289 -0.3533 -0.6429 -0.8908
  861SOL     ow 3441   5.650   5.741   0.880  0.4850  0.1965 -0.4292
  861SOL     hw 3442   5.660   5.836   0.866 -2.5783  0.8326  0.7849
  861SOL     hw 3443   5.636   5.733   0.975  2.6241 -1.7706 -0.1946
  861SOL     vw 3444   5.649   5.753   0.891  0.3631  0.0207 -0.2381
  862SOL     ow 3445   2.535   5.760   4.486  0.5128  0.2643 -0.1619
  862SOL     hw 3446   2.497   5.706   4.417  0.6066  0.7240 -0.5779
  862SOL     hw 3447   2.508   5.849   4.464  0.7933  0.4470  0.2322
  862SOL     vw 3448   2.526   5.765   4.474  0.5621  0.3488 -0.1647
  863SOL     ow 3449   7.476   5.351   2.587  0.6374  0.2234  0.2619
  863SOL     hw 3450   7.452   5.348   2.494 -1.2791  1.5300  0.6469
  863SOL     hw 3451   7.470   5.443   2.610  4.2853  0.4035  0.9844
  863SOL     vw 3452   7.472   5.363   2.578  0.8662  0.4196  0.4081
  864SOL     ow 3453   6.479   6.160   3.013  0.0329  0.0211 -0.6724
  864SOL     hw 3454   6.523   6.176   3.096  1.3290 -0.6654 -1.1876
  864SOL     hw 3455   6.518   6.224   2.953 -0.3677  0.0294 -0.9287
  864SOL     vw 3456   6.490   6.171   3.016  0.1512 -0.0684 -0.7741
  865SOL     ow 3457   4.138   5.620   5.247 -0.1692 -0.0084  0.2722
  865SOL     hw 3458   4.148   5.602   5.340 -0.2382  1.3257  0.5636
  865SOL     hw 3459   4.044   5.615   5.231 -0.1619 -0.1916  0.2879
  865SOL     vw 3460   4.127   5.617   5.257 -0.1774  0.1433  0.3123
  866SOL     ow 3461   3.337   5.744   1.964 -0.0507  0.6867 -0.3335
  866SOL     hw 3462   3.336   5.713   1.874  2.7523 -2.5025  0.5244
  866SOL     hw 3463   3.410   5.806   1.967  1.3104 -0.8518  0.0661
  866SOL     vw 3464   3.347   5.748   1.953  0.4988  0.0627 -0.1676
  867SOL     ow 3465   5.267   2.394   6.078  0.7180  0.2588  0.1920
  867SOL     hw 3466   5.177   2.422   6.063  0.5333 -1.3623 -2.2427
  867SOL     hw 3467   5.319   2.446   6.017  1.1988 -0.1390  0.2559
  867SOL     vw 3468   5.262   2.405   6.068  0.7572 -0.0076 -0.1211
  868SOL     ow 3469   2.870   4.733   5.661  0.0849  0.1418  0.0002
  868SOL     hw 3470   2.802   4.669   5.683  0.0472  0.1262 -0.1614
  868SOL     hw 3471   2.859   4.803   5.725  0.3451 -0.1717  0.3964
  868SOL     vw 3472   2.859   4.734   5.673  0.1143  0.0982  0.0312
  869SOL     ow 3473   2.089   5.693   3.808 -0.5881  0.0361  0.5488
  869SOL     hw 3474   2.015   5.664   3.861 -1.1486 -0.1061 -0.3081
  869SOL     hw 3475   2.061   5.777   3.771 -1.0162 -0.8170 -1.1573
  869SOL     vw 3476   2.076   5.701   3.810 -0.7186 -0.0951  0.2108
  870SOL     ow 3477   4.193   0.955   6.092 -0.0134 -0.2460 -0.3240
  870SOL     hw 3478   4.212   1.043   6.057 -1.2079  0.4580  0.6844
  870SOL     hw 3479   4.277   0.911   6.095  0.6944  1.0494 -0.4192
  870SOL     vw 3480   4.206   0.961   6.088 -0.0775  0.0178 -0.2036
  871SOL     ow 3481   6.609   2.356   6.316  0.2666 -0.8200 -0.2397
  871SOL     hw 3482   6.562   2.378   6.236  0.1866 -0.1809 -0.0175
  871SOL     hw 3483   6.568   2.274   6.346  0.3078 -1.0700 -0.8522
  871SOL     vw 3484   6.597   2.348   6.310  0.2615 -0.7688 -0.2911
  872SOL     ow 3485   0.738   6.263   6.257  0.1929 -0.2637  0.9338
  872SOL     hw 3486   0.653   6.221   6.252  0.6769 -1.2898  0.9750
  872SOL     hw 3487   0.733   6.318   6.335 -0.1038 -1.1100  1.5313
  872SOL     vw 3488   0.726   6.265   6.267  0.2176 -0.5107  1.0180
  873SOL     ow 3489   1.182   5.132   2.049 -0.1144  0.1081 -0.0257
  873SOL     hw 3490   1.237   5.077   2.105  2.2046  1.7461 -0.5228
  873SOL     hw 3491   1.198   5.098   1.960 -0.8386 -0.1228 -0.0740
  873SOL     vw 3492   1.192   5.120   2.044  0.0961  0.2935 -0.0978
  874SOL     ow 3493   2.665   7.014   0.615 -0.2760  0.1400 -0.2258
  874SOL     hw 3494   2.598   6.960   0.657 -0.7728 -1.5136 -2.9293
  874SOL     hw 3495   2.747   6.968   0.634 -0.1990  0.7038  0.8619
  874SOL     vw 3496   2.667   7.000   0.623 -0.3314 -0.0038 -0.4390
  875SOL     ow 3497   0.322   0.206   0.256 -0.6444  0.3349 -0.0945
  875SOL     hw 3498   0.230   0.202   0.281 -0.4348  0.9625  0.8135
  875SOL     hw 3499   0.328   0.150   0.178 -2.0167  1.2535 -0.9058
  875SOL     vw 3500   0.311   0.198   0.249 -0.7978  0.5389 -0.0817
  876SOL     ow 3501   0.538   0.033   2.680  0.6019  0.3519  0.1871
  876SOL     hw 3502   0.488   0.033   2.761  1.1207  3.4311  0.6301
  876SOL     hw 3503   0.625  -0.001   2.704  0.5186  0.5366  0.7465
  876SOL     vw 3504   0.543   0.029   2.694  0.6594  0.7826  0.3194
  877SOL     ow 3505   7.259   5.146   4.974 -0.4541 -0.4873 -0.3910
  877SOL     hw 3506   7.321   5.090   4.926  0.6698 -2.0413  2.5476
  877SOL     hw 3507   7.311   5.222   5.000 -0.6567 -0.3024 -0.5317
  877SOL     vw 3508   7.274   5.148   4.971 -0.3326 -0.6680 -0.0219
  878SOL     ow 3509   6.988   4.483   6.487  0.4841 -0.0013 -0.4705
  878SOL     hw 3510   7.050   4.410   6.486 -0.9215 -1.2601  0.4784
  878SOL     hw 3511   6.903   4.443   6.506 -0.3055  1.9122  0.3351
  878SOL     vw 3512   6.985   4.468   6.489  0.1945  0.0851 -0.2391
  879SOL     ow 3513   6.755   1.864   0.492 -0.1006  0.1085  0.5174
  879SOL     hw 3514   6.747   1.944   0.440 -0.7598 -0.0888  0.3078
  879SOL     hw 3515   6.848   1.860   0.516  0.1566  0.3553 -0.3979
  879SOL     vw 3516   6.767   1.874   0.489 -0.1535  0.1150  0.3690
  880SOL     ow 3517   1.154   4.790   6.543 -0.3919 -1.1158  0.0276
  880SOL     hw 3518   1.093   4.841   6.490 -1.9871 -0.2542  2.5086
  880SOL     hw 3519   1.240   4.829   6.527 -0.8056 -0.8974 -1.8504
  880SOL     vw 3520   1.157   4.802   6.534 -0.6569 -0.9732  0.1068
  881SOL     ow 3521   1.646   6.342   3.445  0.2386 -0.5928 -0.4556
  881SOL     hw 3522   1.605   6.427   3.462 -1.8765 -1.6769  0.3309
  881SOL     hw 3523   1.591   6.303   3.376  1.7278 -0.9777 -1.4725
  881SOL     vw 3524   1.633   6.348   3.438  0.1560 -0.7863 -0.4860
  882SOL     ow 3525   7.195   6.955   3.205  0.7566 -0.0077  1.1505
  882SOL     hw 3526   7.238   6.889   3.259 -0.0252  0.8517  2.9401
  882SOL     hw 3527   7.199   7.035   3.258  2.8968  1.8116 -1.4941
  882SOL     vw 3528   7.201   6.957   3.219  0.9358  0.3457  1.0376
  883SOL     ow 3529   7.587   3.932   5.052 -0.1200  0.5215 -1.1468
  883SOL     hw 3530   7.494   3.954   5.062  0.1707  0.5565  2.5482
  883SOL     hw 3531   7.629   4.014   5.026 -0.8444  1.0496 -0.6912
  883SOL     vw 3532   7.580   3.946   5.050 -0.1771  0.5959 -0.5994
  884SOL     ow 3533   1.946   6.086   5.760  0.2556  0.1668  0.5859
  884SOL     hw 3534   2.034   6.075   5.797 -0.0386 -1.2690  0.9281
  884SOL     hw 3535   1.887   6.068   5.833 -0.3227 -0.6154 -0.0485
  884SOL     vw 3536   1.950   6.082   5.775  0.1404 -0.1256  0.5472
  885SOL     ow 3537   7.595   2.095   4.533 -0.9542  0.6100 -0.3068
  885SOL     hw 3538   7.547   2.036   4.476 -1.3071 -0.0402  0.6284
  885SOL     hw 3539   7.660   2.137   4.476 -1.7823  0.5488 -1.3172
  885SOL     vw 3540   7.597   2.093   4.518 -1.1100  0.5162 -0.3169
  886SOL     ow 3541   4.557   0.523   3.206  0.5615 -0.3969 -0.2729
  886SOL     hw 3542   4.469   0.526   3.170 -0.0727 -1.8821  1.0254
  886SOL     hw 3543   4.614   0.543   3.132 -0.8131 -0.2332 -1.3314
  886SOL     vw 3544   4.553   0.526   3.192  0.2966 -0.5713 -0.2413
  887SOL     ow 3545   6.184   3.859   1.423 -0.0731  0.3838  0.5473
  887SOL     hw 3546   6.127   3.867   1.500  1.2910  1.0572  1.5224
  887SOL     hw 3547   6.169   3.770   1.392 -2.1665  0.7535  0.3305
  887SOL     vw 3548   6.174   3.848   1.430 -0.1693  0.5214  0.6474
  888SOL     ow 3549   2.333   7.207   4.664  0.8064  0.1191  0.4088
  888SOL     hw 3550   2.255   7.153   4.677 -0.1667  0.8761 -1.7831
  888SOL     hw 3551   2.406   7.150   4.687 -0.3108 -1.2064  0.8149
  888SOL     vw 3552   2.332   7.192   4.669  0.5306  0.0443  0.1731
  889SOL     ow 3553   1.058   0.031   6.218 -0.4594  0.2545 -0.0583
  889SOL     hw 3554   1.014  -0.031   6.160 -0.4346 -1.3999  1.6120
  889SOL     hw 3555   1.019   0.116   6.197 -1.2510 -0.4701 -1.6708
  889SOL     vw 3556   1.047   0.034   6.207 -0.5605 -0.0594 -0.0508
  890SOL     ow 3557   3.802   4.295   4.774 -0.3697 -0.1044 -0.4831
  890SOL     hw 3558   3.746   4.254   4.838  1.2240 -1.1194  0.3169
  890SOL     hw 3559   3.748   4.302   4.695 -0.9257 -3.1978 -0.4855
  890SOL     vw 3560   3.788   4.291   4.772 -0.2331 -0.6466 -0.3777
  891SOL     ow 3561   1.835   5.952   3.087 -0.4247  0.2578  0.4222
  891SOL     hw 3562   1.869   5.945   3.176  0.2137 -0.6258  0.1228
  891SOL     hw 3563   1.740   5.948   3.097 -0.3314 -2.4893  0.8924
  891SOL     vw 3564   1.827   5.951   3.100 -0.3281 -0.2213  0.4447
  892SOL     ow 3565   1.814   5.745   5.115  0.0465  0.2366  0.4796
  892SOL     hw 3566   1.822   5.829   5.071 -2.4585  0.8398  1.0098
  892SOL     hw 3567   1.902   5.707   5.110  0.5274  1.4399 -2.5824
  892SOL     vw 3568   1.827   5.751   5.109 -0.2206  0.4752  0.1454
  893SOL     ow 3569   3.926   1.102   4.815 -0.8396  0.6437 -0.0896
  893SOL     hw 3570   3.888   1.120   4.729 -0.6727  0.8895 -0.1155
  893SOL     hw 3571   3.952   1.010   4.811  0.3194  0.9644 -0.7625
  893SOL     vw 3572   3.925   1.092   4.803 -0.6646  0.7185 -0.1817
  894SOL     ow 3573   2.638   0.939   0.221  0.4091  0.2125 -0.2003
  894SOL     hw 3574   2.616   0.895   0.302  0.6828  2.0065  0.9001
  894SOL     hw 3575   2.559   0.988   0.197 -0.4430 -1.9950 -2.2600
  894SOL     vw 3576   2.625   0.940   0.228  0.3327  0.1579 -0.3269
  895SOL     ow 3577   5.636   2.594   7.476 -0.0926  0.1973 -0.0687
  895SOL     hw 3578   5.582   2.587   7.398 -0.8244 -1.1902  0.5270
  895SOL     hw 3579   5.578   2.570   7.548  0.7090  0.9383  0.8495
  895SOL     vw 3580   5.621   2.590   7.475 -0.0832  0.1118  0.1309
  896SOL     ow 3581   3.443   4.387   4.231  0.5314  0.9792  0.5172
  896SOL     hw 3582   3.419   4.314   4.175 -0.9457  2.0799 -0.3623
  896SOL     hw 3583   3.524   4.359   4.273 -0.3567 -1.4326  0.7823
  896SOL     vw 3584   3.451   4.374   4.229  0.2192  0.8063  0.4363
  897SOL     ow 3585   0.461   1.769   5.096 -0.2000  0.1555  0.7870
  897SOL     hw 3586   0.443   1.845   5.042  0.2252 -1.0552 -1.1374
  897SOL     hw 3587   0.419   1.788   5.180  0.1354  2.5977  0.4492
  897SOL     vw 3588   0.453   1.781   5.100 -0.0996  0.3180  0.4885
  898SOL     ow 3589   1.654   5.215   3.618  0.0425 -0.0000 -0.6108
  898SOL     hw 3590   1.570   5.207   3.664  0.2882 -1.5158 -0.3628
  898SOL     hw 3591   1.647   5.153   3.546  0.8231  0.1220 -0.7942
  898SOL     vw 3592   1.642   5.205   3.615  0.1779 -0.1838 -0.6022
  899SOL     ow 3593   6.302   5.731   1.747  0.0121  0.0247 -0.1240
  899SOL     hw 3594   6.305   5.764   1.657  0.5942 -2.6899 -1.1848
  899SOL     hw 3595   6.391   5.746   1.780  0.1005  0.0649 -0.3751
  899SOL     vw 3596   6.314   5.737   1.739  0.1006 -0.3283 -0.2971
  900SOL     ow 3597   1.408   0.880   5.738 -0.2222  0.0025  0.5149
  900SOL     hw 3598   1.460   0.924   5.805 -1.5010 -1.7698  2.7850
  900SOL     hw 3599   1.318   0.903   5.760 -0.6691 -0.5990 -0.6378
  900SOL     vw 3600   1.403   0.889   5.750 -0.4500 -0.3107  0.6623
  901SOL     ow 3601   7.561   1.393   1.436  0.4144  0.1815 -0.3831
  901SOL     hw 3602   7.654   1.375   1.426  0.6558  1.2147 -0.1806
  901SOL     hw 3603   7.529   1.402   1.346  0.7847  1.0239 -0.4484
  901SOL     vw 3604   7.569   1.392   1.422  0.4950  0.4289 -0.3650
  902SOL     ow 3605   7.242   1.580   2.584  0.1784 -0.4220  0.3840
  902SOL     hw 3606   7.290   1.607   2.506 -2.2405  0.3962 -0.9194
  902SOL     hw 3607   7.212   1.661   2.624  0.0065 -0.9025  1.2712
  902SOL     vw 3608   7.244   1.594   2.579 -0.1636 -0.3774  0.3293
  903SOL     ow 3609   6.317   7.015   6.094 -0.0960 -0.0063  0.1872
  903SOL     hw 3610   6.341   7.016   6.001  1.3345 -0.5856  0.5246
  903SOL     hw 3611   6.397   7.037   6.140 -0.8636  0.5920  1.2986
  903SOL     vw 3612   6.330   7.018   6.088 -0.0083 -0.0038  0.3786
  904SOL     ow 3613   0.284   3.448   0.583  0.4145 -0.1696 -0.4270
  904SOL     hw 3614   0.193   3.419   0.576  0.5175 -0.6007 -0.0282
  904SOL     hw 3615   0.291   3.486   0.670 -0.2417  2.9959 -1.6318
  904SOL     vw 3616   0.273   3.449   0.593  0.3415  0.1912 -0.5333
  905SOL     ow 3617   1.477   0.204   2.212 -0.0830 -0.3055  0.1853
  905SOL     hw 3618   1.539   0.267   2.248 -1.9785  0.0940  3.1066
  905SOL     hw 3619   1.491   0.125   2.265 -0.8366 -0.7781 -0.3074
  905SOL     vw 3620   1.487   0.202   2.224 -0.4325 -0.3152  0.5056
  906SOL     ow 3621   5.466   6.820   7.547  0.1030  0.2709 -0.6627
  906SOL     hw 3622   5.500   6.891   7.493  2.3886 -0.1287  0.1319
  906SOL     hw 3623   5.544   6.784   7.591 -1.4154 -0.5185  1.5546
  906SOL     vw 3624   5.481   6.825   7.546  0.2041  0.1142 -0.2654
  907SOL     ow 3625   4.873   4.805   7.233  0.4315  0.2547 -0.0312
  907SOL     hw 3626   4.847   4.890   7.198 -0.8416  0.0076  0.2747
  907SOL     hw 3627   4.926   4.827   7.311 -2.4158  0.8350  1.8908
  907SOL     vw 3628   4.877   4.819   7.239 -0.1123  0.2985  0.2627
  908SOL     ow 3629   5.990   1.018   1.986 -0.0614  0.2147  0.1186
  908SOL     hw 3630   5.990   1.099   2.037  2.9146 -0.0285  0.6816
  908SOL     hw 3631   5.982   0.949   2.051 -2.3020 -0.0605 -0.3411
  908SOL     vw 3632   5.989   1.020   2.001  0.0355  0.1463  0.1322
  909SOL     ow 3633   3.305   7.587   4.071 -0.9684 -0.3533  0.7327
  909SOL     hw 3634   3.233   7.649   4.062 -1.8909 -1.2997  1.3132
  909SOL     hw 3635   3.268   7.503   4.042 -0.1075 -0.8510  1.0482
  909SOL     vw 3636   3.290   7.584   4.066 -0.9766 -0.5436  0.8512
  910SOL     ow 3637   7.296   6.317   6.386 -0.4714  1.0023 -0.5627
  910SOL     hw 3638   7.383   6.277   6.381 -0.8553  0.3104 -2.5854
  910SOL     hw 3639   7.279   6.327   6.480  0.9637 -0.6656 -0.0829
  910SOL     vw 3640   7.305   6.313   6.398 -0.3328  0.6909 -0.7663
  911SOL     ow 3641   1.561   7.190   4.825 -0.3822  0.0993  0.4227
  911SOL     hw 3642   1.497   7.128   4.861 -0.0330 -0.4377  0.1241
  911SOL     hw 3643   1.645   7.144   4.830  0.7246  2.0416  4.2356
  911SOL     vw 3644   1.564   7.176   4.831 -0.1901  0.2847  0.8862
  912SOL     ow 3645   6.510   0.181   7.120  0.0258  0.2030 -0.4211
  912SOL     hw 3646   6.559   0.204   7.041  1.9611 -0.5308  0.5035
  912SOL     hw 3647   6.504   0.263   7.169 -0.3539  0.4629 -0.8996
  912SOL     vw 3648   6.516   0.194   7.116  0.2310  0.1405 -0.3619
  913SOL     ow 3649   4.733   3.033   3.029 -0.2697  0.1982  0.0170
  913SOL     hw 3650   4.704   3.083   2.953  3.0771  1.8517 -0.3657
  913SOL     hw 3651   4.763   3.099   3.091 -1.3244 -1.1939  2.1284
  913SOL     vw 3652   4.733   3.049   3.027  0.0327  0.2327  0.2451
  914SOL     ow 3653   7.530   1.226   3.637  0.2863  0.1614  0.1895
  914SOL     hw 3654   7.582   1.301   3.610 -1.5067  1.0203 -1.1128
  914SOL     hw 3655   7.520   1.174   3.557  2.9674 -2.5163  1.4014
  914SOL     vw 3656   7.535   1.229   3.623  0.4036 -0.0786  0.1774
  915SOL     ow 3657   5.658   4.715   4.749 -0.3547  0.4270 -0.1038
  915SOL     hw 3658   5.601   4.788   4.730 -0.9143 -0.3604 -1.5468
  915SOL     hw 3659   5.713   4.746   4.822 -0.4464  2.3149 -0.7934
  915SOL     vw 3660   5.658   4.728   4.756 -0.4406  0.5720 -0.3848
  916SOL     ow 3661   3.455   3.119   4.319  0.4408  0.9858  0.3690
  916SOL     hw 3662   3.450   3.166   4.236 -2.2528  0.4464  0.1216
  916SOL     hw 3663   3.377   3.063   4.319  1.4792 -0.5741  2.3613
  916SOL     vw 3664   3.444   3.118   4.308  0.2224  0.7089  0.5994
  917SOL     ow 3665   7.161   3.786   4.725 -0.2272 -0.5406  0.0490
  917SOL     hw 3666   7.215   3.858   4.695 -0.2988 -0.4536  0.1264
  917SOL     hw 3667   7.183   3.713   4.668  0.7209 -0.7972  0.7220
  917SOL     vw 3668   7.171   3.786   4.714 -0.1116 -0.5630  0.1483
  918SOL     ow 3669   2.660   3.326   4.439 -0.2101 -0.0687 -0.0918
  918SOL     hw 3670   2.641   3.285   4.523  1.0039 -0.0398  0.2120
  918SOL     hw 3671   2.609   3.407   4.439 -0.9024 -0.4963  0.2295
  918SOL     vw 3672   2.651   3.331   4.450 -0.1414 -0.1212 -0.0093
  919SOL     ow 3673   1.777   5.666   5.837  0.0327  0.2367  0.5573
  919SOL     hw 3674   1.762   5.678   5.931 -1.0015 -0.5183  0.4952
  919SOL     hw 3675   1.788   5.572   5.826 -3.5197 -0.1773 -0.5456
  919SOL     vw 3676   1.777   5.656   5.848 -0.5725  0.0827  0.4034
  920SOL     ow 3677   0.048   1.494   4.027  0.4898 -0.1760  0.1582
  920SOL     hw 3678   0.121   1.534   4.075  1.1540  0.5550 -1.4077
  920SOL     hw 3679   0.041   1.545   3.947 -2.5199  0.5047  0.7372
  920SOL     vw 3680   0.057   1.506   4.023  0.1802  0.0103  0.0281
  921SOL     ow 3681   7.015   1.759   3.118 -0.2341 -1.0412  0.6868
  921SOL     hw 3682   7.076   1.832   3.130 -0.9663 -0.1850 -0.5575
  921SOL     hw 3683   7.060   1.684   3.156  0.8320 -0.0813  1.3957
  921SOL     vw 3684   7.029   1.759   3.124 -0.1903 -0.8016  0.6161
  922SOL     ow 3685   4.843   0.027   7.093  0.1579 -0.2901 -0.4485
  922SOL     hw 3686   4.919   0.079   7.121 -0.5466  0.6578 -0.2724
  922SOL     hw 3687   4.853  -0.056   7.139 -0.0080  0.5724  1.2113
  922SOL     vw 3688   4.855   0.023   7.102  0.0432 -0.0513 -0.2062
  923SOL     ow 3689   3.038   7.443   4.227  0.5011 -0.9447 -0.6709
  923SOL     hw 3690   2.979   7.480   4.293 -0.7885  0.8471 -2.6923
  923SOL     hw 3691   3.120   7.427   4.274 -0.7447 -0.9524  1.6175
  923SOL     vw 3692   3.041   7.446   4.242  0.1665 -0.7093 -0.6359
  924SOL     ow 3693   1.957   5.259   3.627 -0.7383  0.7789  0.4616
  924SOL     hw 3694   2.015   5.333   3.645 -0.0111  0.3417 -0.0532
  924SOL     hw 3695   1.997   5.185   3.671 -0.1963  0.1988 -0.9535
  924SOL     vw 3696   1.970   5.259   3.635 -0.5709  0.6447  0.2069
  925SOL     ow 3697   4.889   4.238   6.111  0.2177  0.5965 -0.4356
  925SOL     hw 3698   4.885   4.152   6.154  3.3691 -0.4659 -1.9460
  925SOL     hw 3699   4.830   4.293   6.162  0.2234 -1.7479  2.3586
  925SOL     vw 3700   4.881   4.234   6.124  0.6342  0.1469 -0.2658
  926SOL     ow 3701   2.993   7.570   0.343 -0.4013  0.2215 -0.4429
  926SOL     hw 3702   3.052   7.555   0.418 -0.0737  2.0668 -0.2873
  926SOL     hw 3703   3.052   7.587   0.270 -0.7136 -1.8379 -1.2523
  926SOL     vw 3704   3.009   7.570   0.343 -0.3994  0.1934 -0.5291
  927SOL     ow 3705   2.498   2.218   4.527  1.0636 -0.1425 -0.5224
  927SOL     hw 3706   2.455   2.182   4.449  2.8864 -1.2009 -1.1138
  927SOL     hw 3707   2.453   2.175   4.600 -1.2971  1.5556 -0.8472
  927SOL     vw 3708   2.486   2.207   4.526  0.9927 -0.0581 -0.6437
  928SOL     ow 3709   1.066   2.034   4.219  0.9581  0.0888  0.2077
  928SOL     hw 3710   1.037   2.122   4.244  0.2653  0.3440 -1.3699
  928SOL     hw 3711   0.988   1.979   4.232  0.9057  0.0295 -0.3122
  928SOL     vw 3712   1.052   2.039   4.224  0.8598  0.1147 -0.0689
  929SOL     ow 3713   2.324   6.717   1.726 -0.7068 -0.1080  0.3189
  929SOL     hw 3714   2.363   6.790   1.678  3.4553 -1.6679  0.8580
  929SOL     hw 3715   2.300   6.754   1.811 -0.6850  1.0549 -0.1745
  929SOL     vw 3716   2.326   6.731   1.731 -0.1547 -0.1605  0.3250
  930SOL     ow 3717   1.031   6.678   3.688 -0.0556  0.2012  0.1350
  930SOL     hw 3718   1.124   6.657   3.678  0.1578  0.0784  2.0518
  930SOL     hw 3719   1.005   6.712   3.602  1.5508 -0.4904 -0.6666
  930SOL     vw 3720   1.040   6.680   3.675  0.1845  0.0937  0.2820
  931SOL     ow 3721   0.447   1.871   0.732  0.0757  0.0176  0.1779
  931SOL     hw 3722   0.416   1.962   0.730 -1.9280 -0.6029 -0.0523
  931SOL     hw 3723   0.382   1.823   0.680  0.8432 -1.6140  0.6587
  931SOL     vw 3724   0.434   1.876   0.725 -0.0874 -0.2795  0.2110
  932SOL     ow 3725   6.075   2.767   1.435  0.1533  0.0839 -0.1604
  932SOL     hw 3726   6.084   2.836   1.368 -0.4187  0.4952  0.1796
  932SOL     hw 3727   6.058   2.687   1.384  0.8510  0.1872 -0.5592
  932SOL     vw 3728   6.074   2.766   1.419  0.1698  0.1516 -0.1681
  933SOL     ow 3729   2.730   1.061   1.838 -0.0163  0.1454  0.4168
  933SOL     hw 3730   2.730   1.042   1.745 -1.4304  1.8141  0.0230
  933SOL     hw 3731   2.653   1.017   1.872  0.3045 -0.1726  0.7497
  933SOL     vw 3732   2.720   1.053   1.830 -0.1606  0.3236  0.4087
  934SOL     ow 3733   0.922   7.039   1.251 -0.3488  0.3452 -0.2762
  934SOL     hw 3734   0.837   7.084   1.246 -0.4626  0.3713  1.4196
  934SOL     hw 3735   0.913   6.979   1.325  1.0558  0.2274 -0.1782
  934SOL     vw 3736   0.909   7.037   1.260 -0.1785  0.3331 -0.0395
  935SOL     ow 3737   3.293   0.865   0.065  0.0640  0.7281  0.0052
  935SOL     hw 3738   3.326   0.942   0.111  0.8078  0.1922  0.3956
  935SOL     hw 3739   3.249   0.814   0.133 -3.5254  2.3590 -0.8082
  935SOL     vw 3740   3.291   0.869   0.080 -0.3115  0.8726 -0.0506
  936SOL     ow 3741   2.996   1.848   2.072  0.5663  0.1149  0.0269
  936SOL     hw 3742   2.945   1.822   1.996 -0.0686  3.8775 -1.0672
  936SOL     hw 3743   3.083   1.866   2.037  0.5830  0.7793  0.3954
  936SOL     vw 3744   3.001   1.847   2.057  0.4846  0.6990 -0.0688
  937SOL     ow 3745   5.885   7.575   0.354 -0.3740  0.3749  0.3593
  937SOL     hw 3746   5.907   7.496   0.403 -0.8969  0.6302  1.0339
  937SOL     hw 3747   5.955   7.637   0.374  1.6048 -0.7609 -2.3887
  937SOL     vw 3748   5.897   7.573   0.363 -0.1819  0.2589  0.0857
  938SOL     ow 3749   4.056   4.204   0.314  0.3987 -0.2615 -0.3109
  938SOL     hw 3750   4.143   4.206   0.274  0.2039  1.5634 -0.7364
  938SOL     hw 3751   4.012   4.129   0.272  2.0444 -1.8369  0.6326
  938SOL     vw 3752   4.061   4.194   0.303  0.5903 -0.2284 -0.2425
  939SOL     ow 3753   0.166   2.275   7.326  0.3053 -0.6226  0.0955
  939SOL     hw 3754   0.109   2.197   7.330  0.0259 -0.4081  0.4520
  939SOL     hw 3755   0.175   2.301   7.418 -1.8339  1.3569 -0.1531
  939SOL     vw 3756   0.160   2.268   7.339 -0.0138 -0.3331  0.1097
  940SOL     ow 3757   2.464   6.408   1.108 -0.1452 -0.0178  0.9320
  940SOL     hw 3758   2.399   6.397   1.177 -0.1835  3.0693  1.5355
  940SOL     hw 3759   2.533   6.462   1.147  0.7647  0.2488 -0.8942
  940SOL     vw 3760   2.465   6.413   1.122 -0.0303  0.4244  0.7707
  941SOL     ow 3761   7.031   6.481   1.504  0.0445 -0.7035  0.3183
  941SOL     hw 3762   6.966   6.516   1.566 -2.1157 -1.5687 -1.3465
  941SOL     hw 3763   6.989   6.404   1.466  1.3482 -0.3005 -2.1065
  941SOL     vw 3764   7.017   6.476   1.507 -0.0687 -0.7646 -0.2213
  942SOL     ow 3765   1.331   6.762   0.723  0.0601  0.6882  0.2150
  942SOL     hw 3766   1.266   6.693   0.726 -0.1319  0.8722  0.2989
  942SOL     hw 3767   1.393   6.741   0.793 -1.3813  1.9697  1.9715
  942SOL     vw 3768   1.331   6.750   0.732 -0.1554  0.8814  0.4578
  943SOL     ow 3769   5.145   1.621   5.731  0.1547 -0.5304 -0.2610
  943SOL     hw 3770   5.181   1.650   5.647  2.7176 -0.6053  0.7248
  943SOL     hw 3771   5.132   1.701   5.781 -0.4459 -0.5618 -0.3507
  943SOL     vw 3772   5.148   1.635   5.726  0.4137 -0.5444 -0.1426
  944SOL     ow 3773   3.996   4.628   6.242 -0.1583  0.0892 -0.5243
  944SOL     hw 3774   3.958   4.553   6.196 -1.2936  0.3186  0.0058
  944SOL     hw 3775   4.031   4.591   6.323 -2.1316  0.3221  0.4940
  944SOL     vw 3776   3.995   4.613   6.247 -0.5684  0.1504 -0.3202
  945SOL     ow 3777   2.894   3.046   2.102  0.1588  0.8772  0.3085
  945SOL     hw 3778   2.829   3.036   2.171  0.8363  1.5812  1.0640
  945SOL     hw 3779   2.976   3.013   2.141  0.9303  2.8401  0.4774
  945SOL     vw 3780   2.897   3.040   2.116  0.3500  1.2290  0.4305
  946SOL     ow 3781   7.152   7.242   0.920 -0.6412  0.2103  0.6786
  946SOL     hw 3782   7.117   7.173   0.976 -0.5097  0.6275  1.2896
  946SOL     hw 3783   7.112   7.323   0.953 -0.2596  0.5084  0.4309
  946SOL     vw 3784   7.142   7.244   0.932 -0.5734  0.3047  0.7265
  947SOL     ow 3785   5.277   0.016   4.772  0.3643  0.6463 -0.0888
  947SOL     hw 3786   5.277  -0.059   4.831 -0.3373 -2.3565 -3.5717
  947SOL     hw 3787   5.186   0.022   4.741  1.0321  0.9824 -2.1207
  947SOL     vw 3788   5.265   0.007   4.776  0.3603  0.2942 -0.8163
  948SOL     ow 3789   6.370   5.010   1.549  0.5729  0.1234 -0.4696
  948SOL     hw 3790   6.346   4.942   1.486  1.7992  0.2522 -1.0936
  948SOL     hw 3791   6.323   4.985   1.629 -0.5693 -0.3431 -1.2532
  948SOL     vw 3792   6.361   4.998   1.551  0.5841  0.0787 -0.6554
  949SOL     ow 3793   3.916   2.987   0.580 -0.1301 -1.3829 -0.2847
  949SOL     hw 3794   3.981   2.985   0.650 -1.3318 -2.2859  0.8448
  949SOL     hw 3795   3.928   2.904   0.533 -0.5655 -1.6223  0.0236
  949SOL     vw 3796   3.926   2.976   0.583 -0.3461 -1.5337 -0.0950
  950SOL     ow 3797   1.327   4.572   6.031 -0.4135 -0.0561  0.4526
  950SOL     hw 3798   1.369   4.516   6.097 -0.0390 -0.3712 -0.0517
  950SOL     hw 3799   1.364   4.658   6.046  1.5446 -0.5931 -0.9018
  950SOL     vw 3800   1.338   4.576   6.042 -0.1057 -0.1686  0.2074
  951SOL     ow 3801   0.532   4.630   5.961 -0.0110 -0.3114  0.2837
  951SOL     hw 3802   0.436   4.628   5.964 -0.0471  0.4763 -0.1468
  951SOL     hw 3803   0.554   4.723   5.968  0.7314 -0.5118  0.5909
  951SOL     vw 3804   0.522   4.642   5.962  0.0823 -0.2337  0.2675
  952SOL     ow 3805   1.873   2.004   2.072 -0.1487 -0.2670 -0.9838
  952SOL     hw 3806   1.961   1.965   2.072  1.1361  2.3040  1.1007
  952SOL     hw 3807   1.841   1.990   2.161 -0.5562  1.3672 -0.8473
  952SOL     vw 3808   1.881   1.997   2.084 -0.0330  0.2880 -0.6908
  953SOL     ow 3809   5.362   1.461   7.303  0.3151  0.0263 -0.1368
  953SOL     hw 3810   5.445   1.425   7.271  0.4729 -1.8215  2.1197
  953SOL     hw 3811   5.386   1.545   7.341  0.9128  0.0930 -0.6320
  953SOL     vw 3812   5.376   1.467   7.304  0.4148 -0.2086  0.0956
  954SOL     ow 3813   4.263   6.593   5.909 -0.3449  0.5019  0.1380
  954SOL     hw 3814   4.349   6.557   5.931 -0.0085  0.1177 -1.7000
  954SOL     hw 3815   4.249   6.661   5.975  0.4653 -0.7531  1.6716
  954SOL     vw 3816   4.273   6.597   5.921 -0.1934  0.2854  0.0978
  955SOL     ow 3817   6.612   3.024   6.420 -0.2918  0.2987  0.2523
  955SOL     hw 3818   6.625   2.936   6.454 -0.8335 -0.6008 -1.7181
  955SOL     hw 3819   6.525   3.022   6.380 -0.4453  1.8257  0.4583
  955SOL     vw 3820   6.602   3.012   6.419 -0.3834  0.3815  0.0196
  956SOL     ow 3821   1.708   6.460   2.157  0.2163 -0.7950  0.3321
  956SOL     hw 3822   1.615   6.458   2.133 -0.2758  0.2091  1.9978
  956SOL     hw 3823   1.737   6.548   2.135 -0.0121 -0.1492  2.3724
  956SOL     vw 3824   1.699   6.471   2.151  0.1213 -0.5772  0.8211
  957SOL     ow 3825   2.621   0.393   0.520  0.2565  0.8804  0.2235
  957SOL     hw 3826   2.657   0.459   0.579  0.0256 -0.1864  1.6024
  957SOL     hw 3827   2.533   0.376   0.554  0.4602 -0.4219  0.1408
  957SOL     vw 3828   2.614   0.399   0.532  0.2530  0.5678  0.3946
  958SOL     ow 3829   5.790   0.551   7.251  0.1570  0.1526 -0.0029
  958SOL     hw 3830   5.701   0.534   7.281  0.1519  1.3368  0.6896
  958SOL     hw 3831   5.796   0.646   7.243  1.4081  0.1045  0.1231
  958SOL     vw 3832   5.779   0.561   7.254  0.3216  0.3025  0.1051
  959SOL     ow 3833   3.651   5.431   2.726  0.0149  0.4844 -0.0106
  959SOL     hw 3834   3.718   5.462   2.665  1.6470 -0.6238  1.1171
  959SOL     hw 3835   3.677   5.466   2.811 -1.8883  1.5160  0.1906
  959SOL     vw 3836   3.663   5.439   2.729 -0.0206  0.4742  0.1647
  960SOL     ow 3837   5.949   4.222   1.466  0.3360 -0.2602  0.6057
  960SOL     hw 3838   6.009   4.158   1.504 -0.1587 -0.5928  0.8563
  960SOL     hw 3839   5.998   4.262   1.395 -0.2914 -3.0850 -1.6175
  960SOL     vw 3840   5.963   4.219   1.462  0.1876 -0.6769  0.3455
  961SOL     ow 3841   0.128   7.030   0.416  0.5198 -0.2367 -0.4250
  961SOL     hw 3842   0.159   6.939   0.408 -0.7623 -0.5518 -2.7876
  961SOL     hw 3843   0.198   7.082   0.378  0.1742 -0.5296 -1.5217
  961SOL     vw 3844   0.141   7.025   0.410  0.3050 -0.3171 -0.8814
  962SOL     ow 3845   3.407   2.416   0.722 -0.3227  0.2999 -0.3278
  962SOL     hw 3846   3.487   2.419   0.775  0.0477 -2.5295 -0.5446
  962SOL     hw 3847   3.369   2.503   0.731  1.6966  1.0985  1.4818
  962SOL     vw 3848   3.413   2.428   0.730 -0.0073  0.0319 -0.1177
  963SOL     ow 3849   5.057   0.951   4.002 -0.5727 -0.0458  0.6114
  963SOL     hw 3850   5.069   1.046   4.002 -0.7128 -0.0146  1.7912
  963SOL     hw 3851   4.964   0.939   4.019 -0.3857 -0.3995  1.4184
  963SOL     vw 3852   5.046   0.962   4.004 -0.5667 -0.0883  0.8736
  964SOL     ow 3853   4.257   5.871   5.200  0.5265  0.1200  0.2859
  964SOL     hw 3854   4.331   5.893   5.257  2.1072  1.3951 -2.0938
  964SOL     hw 3855   4.198   5.946   5.206  1.0223  0.5589 -0.2375
  964SOL     vw 3856   4.259   5.884   5.208  0.8004  0.3462 -0.0968
  965SOL     ow 3857   3.650   4.690   0.680  1.0421 -0.6208  0.5410
  965SOL     hw 3858   3.600   4.610   0.694  0.1093 -0.9332 -3.3022
  965SOL     hw 3859   3.583   4.759   0.678  1.5370 -0.1045  1.2546
  965SOL     vw 3860   3.635   4.689   0.682  0.9844 -0.5939  0.1281
  966SOL     ow 3861   3.610   5.216   6.056 -0.1039  0.2891  0.5712
  966SOL     hw 3862   3.522   5.252   6.044 -0.0717  0.7317  1.5446
  966SOL     hw 3863   3.608   5.177   6.144  0.2902 -0.8548  0.0927
  966SOL     vw 3864   3.598   5.216   6.066 -0.0478  0.1965  0.6366
  967SOL     ow 3865   0.604   6.630   4.230  0.0755 -0.1573 -0.1136
  967SOL     hw 3866   0.639   6.570   4.296  0.7012  1.1888  0.8079
  967SOL     hw 3867   0.524   6.586   4.199 -0.7508 -0.4293  2.1927
  967SOL     vw 3868   0.598   6.616   4.235  0.0490 -0.0155  0.3121
  968SOL     ow 3869   4.779   0.968   3.045  0.0238 -0.4449 -0.2634
  968SOL     hw 3870   4.862   0.921   3.044 -0.2621 -0.9734  0.3295
  968SOL     hw 3871   4.776   1.010   3.130  0.5159  1.1115 -0.9780
  968SOL     vw 3872   4.790   0.967   3.056  0.0508 -0.3092 -0.2794
  969SOL     ow 3873   4.318   0.262   5.528 -0.6484 -0.7458  0.4495
  969SOL     hw 3874   4.349   0.273   5.618  1.3950 -1.9887 -0.0298
  969SOL     hw 3875   4.287   0.171   5.524 -2.1160 -0.2575  0.2491
  969SOL     vw 3876   4.318   0.251   5.539 -0.5722 -0.8453  0.3598
  970SOL     ow 3877   6.860   3.187   0.597 -0.2311 -0.5040  0.1577
  970SOL     hw 3878   6.903   3.208   0.680  1.2416 -0.2871 -0.6412
  970SOL     hw 3879   6.921   3.217   0.530 -1.9793  0.5269 -1.0418
  970SOL     vw 3880   6.874   3.194   0.599 -0.2673 -0.3394 -0.1060
  971SOL     ow 3881   0.929   0.272   3.208 -0.4433  1.3460  0.0683
  971SOL     hw 3882   0.923   0.250   3.115 -0.0530  0.7942  0.1662
  971SOL     hw 3883   0.842   0.255   3.243  0.1499 -1.5113  0.4285
  971SOL     vw 3884   0.917   0.266   3.200 -0.3136  0.8962  0.1287
  972SOL     ow 3885   1.114   4.669   5.872  0.2920 -0.2060  0.1795
  972SOL     hw 3886   1.106   4.640   5.780 -0.8816 -3.4564  1.1534
  972SOL     hw 3887   1.204   4.646   5.896  0.2979 -0.2650  0.1032
  972SOL     vw 3888   1.125   4.662   5.863  0.1379 -0.6428  0.2978
  973SOL     ow 3889   5.488   1.635   2.191  0.2967  0.0916  0.1066
  973SOL     hw 3890   5.557   1.607   2.131  1.3150 -0.6516  1.5705
  973SOL     hw 3891   5.427   1.684   2.136  2.1229  1.0225 -1.1973
  973SOL     vw 3892   5.489   1.638   2.176  0.6719  0.1163  0.1278
  974SOL     ow 3893   6.737   4.331   0.717  0.2970 -0.2589  0.3626
  974SOL     hw 3894   6.709   4.275   0.790 -1.6146  2.4527  1.8974
  974SOL     hw 3895   6.656   4.369   0.684  1.5291  2.3783  0.1382
  974SOL     vw 3896   6.723   4.329   0.722  0.2074  0.4468  0.5355
  975SOL     ow 3897   1.580   2.338   1.521  0.3188  0.2065 -0.2462
  975SOL     hw 3898   1.662   2.291   1.532  0.8428  0.8370 -1.2802
  975SOL     hw 3899   1.542   2.342   1.609  1.4880  0.0902  0.2790
  975SOL     vw 3900   1.586   2.333   1.534  0.5422  0.2744 -0.3133
  976SOL     ow 3901   3.680   0.924   2.424  0.5337  0.4956  0.9982
  976SOL     hw 3902   3.689   0.940   2.330  1.3740  0.3776  1.0574
  976SOL     hw 3903   3.671   0.829   2.432  2.3854  0.3079  1.1725
  976SOL     vw 3904   3.680   0.913   2.413  0.8887  0.4553  1.0290
  977SOL     ow 3905   5.528   2.924   7.575 -0.1528 -0.1056  0.6834
  977SOL     hw 3906   5.451   2.893   7.623 -1.6180 -3.1547 -3.1095
  977SOL     hw 3907   5.602   2.889   7.624 -1.4115 -1.1572  1.9404
  977SOL     vw 3908   5.528   2.915   7.588 -0.5121 -0.6466  0.3488
  978SOL     ow 3909   0.163   0.243   4.519 -0.2636  0.3666 -1.1697
  978SOL     hw 3910   0.075   0.204   4.517 -0.2816  0.4104 -1.2435
  978SOL     hw 3911   0.175   0.279   4.431  0.3237 -0.7424 -1.5684
  978SOL     vw 3912   0.153   0.242   4.507 -0.1885  0.2261 -1.2319
  979SOL     ow 3913   6.391   1.059   5.513 -0.2416  0.3045 -0.0049
  979SOL     hw 3914   6.388   0.991   5.580 -0.0075 -0.4509 -0.7408
  979SOL     hw 3915   6.336   1.026   5.442 -2.9891  2.4078  0.9497
  979SOL     vw 3916   6.383   1.046   5.512 -0.5734  0.4824  0.0241
  980SOL     ow 3917   4.970   6.914   5.625  0.5782  0.3468 -0.0322
  980SOL     hw 3918   4.966   6.828   5.666  3.5823  0.3823  0.5789
  980SOL     hw 3919   4.953   6.976   5.696 -0.8022  0.3178 -0.3095
  980SOL     vw 3920   4.967   6.911   5.640  0.7925  0.3474  0.0122
  981SOL     ow 3921   6.859   2.182   6.775 -0.1949  0.4011  0.3549
  981SOL     hw 3922   6.842   2.247   6.707  2.6930  0.3553 -0.5532
  981SOL     hw 3923   6.906   2.231   6.843  1.5596 -0.5507 -0.1035
  981SOL     vw 3924   6.863   2.197   6.775  0.4177  0.2694  0.1748
  982SOL     ow 3925   1.246   0.950   0.268  0.1884  0.5285  0.3951
  982SOL     hw 3926   1.259   0.963   0.174  2.3210  2.3451  0.8504
  982SOL     hw 3927   1.288   1.026   0.308  0.6655 -0.9603  2.9021
  982SOL     vw 3928   1.253   0.962   0.261  0.5327  0.5718  0.7860
  983SOL     ow 3929   6.187   1.576   5.891  0.2644 -0.1090 -0.9014
  983SOL     hw 3930   6.227   1.615   5.968  0.7038  0.2465 -1.3095
  983SOL     hw 3931   6.236   1.495   5.876  0.7936  0.2975 -1.3672
  983SOL     vw 3932   6.198   1.570   5.899  0.3920 -0.0084 -1.0169
  984SOL     ow 3933   0.100   3.545   4.850 -0.1400 -0.6025  0.0304
  984SOL     hw 3934   0.129   3.575   4.764  0.4318 -0.7715  0.1590
  984SOL     hw 3935   0.011   3.578   4.858  1.1331  3.0368  1.0942
  984SOL     vw 3936   0.092   3.553   4.840  0.1034 -0.1446  0.1876
  985SOL     ow 3937   1.000   0.480   4.402 -0.2574  0.2293  0.3844
  985SOL     hw 3938   0.951   0.553   4.363 -1.1189 -0.5836 -0.0881
  985SOL     hw 3939   1.004   0.413   4.334  1.9030  0.4073  0.2595
  985SOL     vw 3940   0.994   0.481   4.388 -0.0860  0.1455  0.3054
  986SOL     ow 3941   2.391   6.192   7.211 -0.4295 -0.7023 -0.0712
  986SOL     hw 3942   2.307   6.233   7.188 -0.0172  0.4242  0.3914
  986SOL     hw 3943   2.402   6.212   7.304  0.8396  0.0534 -0.3682
  986SOL     vw 3944   2.381   6.200   7.220 -0.2077 -0.4537 -0.0494
  987SOL     ow 3945   1.569   1.158   0.572  0.0020 -1.0195  0.0861
  987SOL     hw 3946   1.500   1.153   0.638  0.3309 -0.4479  0.4819
  987SOL     hw 3947   1.525   1.139   0.489 -0.6819 -0.4252  0.3018
  987SOL     vw 3948   1.554   1.155   0.570 -0.0449 -0.8657  0.1667
  988SOL     ow 3949   6.151   7.609   2.480 -0.4722 -0.4046  0.0198
  988SOL     hw 3950   6.176   7.691   2.438 -0.9004 -0.8997 -1.2585
  988SOL     hw 3951   6.123   7.634   2.568 -0.2234  0.7577 -0.2182
  988SOL     vw 3952   6.151   7.623   2.486 -0.4957 -0.3165 -0.1802
  989SOL     ow 3953   5.531   1.578   2.503 -0.9595  0.2764  0.2879
  989SOL     hw 3954   5.613   1.626   2.496 -0.4994 -0.7200 -1.9074
  989SOL     hw 3955   5.558   1.488   2.522 -1.6757  0.3142  1.5939
  989SOL     vw 3956   5.546   1.573   2.505 -0.9937  0.1499  0.1705
  990SOL     ow 3957   1.899   2.308   1.797  0.7607  0.4308 -0.9340
  990SOL     hw 3958   1.909   2.283   1.706 -1.0649  2.3529 -1.7414
  990SOL     hw 3959   1.840   2.242   1.834 -1.6233  1.7101 -2.2445
  990SOL     vw 3960   1.892   2.296   1.790  0.2053  0.8532 -1.2135
  991SOL     ow 3961   3.474   4.572   4.442 -0.1852  0.0434 -0.3113
  991SOL     hw 3962   3.458   4.621   4.522  0.0923 -1.2859  0.5888
  991SOL     hw 3963   3.509   4.637   4.381 -0.1878  1.0333  0.7051
  991SOL     vw 3964   3.477   4.587   4.444 -0.1491 -0.0014 -0.0582
  992SOL     ow 3965   0.204   4.954   3.630  0.1612  0.3273  0.3703
  992SOL     hw 3966   0.226   5.012   3.558  2.5141  0.1219  0.8571
  992SOL     hw 3967   0.140   5.003   3.682  1.2070  1.9912  0.1293
  992SOL     vw 3968   0.198   4.968   3.628  0.6096  0.5198  0.4028
  993SOL     ow 3969   0.968   5.854   4.857 -0.0488 -0.5482  0.0138
  993SOL     hw 3970   1.020   5.907   4.917  2.4715  0.2954 -2.6947
  993SOL     hw 3971   0.953   5.772   4.905 -0.5746  1.0201  2.7679
  993SOL     vw 3972   0.973   5.850   4.871  0.2143 -0.2298  0.0198
  994SOL     ow 3973   0.110   4.711   6.862 -0.1161  0.3570  0.3105
  994SOL     hw 3974   0.052   4.719   6.786  0.8236  0.9634 -0.3667
  994SOL     hw 3975   0.057   4.739   6.936 -0.5553  1.3281 -0.3550
  994SOL     vw 3976   0.095   4.715   6.862 -0.0501  0.5653  0.1335
  995SOL     ow 3977   6.626   1.179   1.902  0.2256 -1.0208 -0.2181
  995SOL     hw 3978   6.538   1.194   1.934  0.9438  1.3572  0.8064
  995SOL     hw 3979   6.615   1.168   1.807 -1.0799  0.1570 -0.2328
  995SOL     vw 3980   6.613   1.179   1.893  0.1483 -0.5518 -0.0849
  996SOL     ow 3981   6.247   5.819   1.502 -0.2319  0.3712 -0.6171
  996SOL     hw 3982   6.162   5.788   1.472  0.0515  0.2676 -1.3367
  996SOL     hw 3983   6.230   5.907   1.536 -1.1348 -0.6824  1.9032
  996SOL     vw 3984   6.234   5.827   1.503 -0.3138  0.2186 -0.3796
  997SOL     ow 3985   6.472   1.698   3.189  1.0925 -0.2212  0.0161
  997SOL     hw 3986   6.476   1.664   3.099 -0.0876 -0.4950  0.0460
  997SOL     hw 3987   6.419   1.633   3.236 -0.1367  1.0048  0.3783
  997SOL     vw 3988   6.466   1.685   3.183  0.7744 -0.0955  0.0678
  998SOL     ow 3989   3.796   1.926   4.538 -0.1694 -0.5742  0.0703
  998SOL     hw 3990   3.854   1.977   4.594 -1.0276 -0.4487  0.8534
  998SOL     hw 3991   3.825   1.947   4.449  2.7472 -2.5456  0.4071
  998SOL     vw 3992   3.807   1.936   4.533  0.1023 -0.8177  0.2179
  999SOL     ow 3993   6.464   3.134   3.513  0.4423 -0.0069  0.5386
  999SOL     hw 3994   6.442   3.048   3.550 -0.4874  0.3115  0.7623
  999SOL     hw 3995   6.391   3.190   3.539  1.4627  1.0730  1.1618
  999SOL     vw 3996   6.451   3.130   3.522  0.4539  0.1775  0.6504
 1000SOL     ow 3997   5.203   6.771   7.420  0.1955  0.4477 -0.2888
 1000SOL     hw 3998   5.137   6.707   7.394  0.7460 -0.0170 -0.5651
 1000SOL     hw 3999   5.176   6.800   7.507  0.5858 -1.0618  0.3725
 1000SOL     vw 4000   5.191   6.766   7.428  0.3197  0.1874 -0.2379
 1001SOL     ow 4001   4.378   1.919   2.285 -0.4804 -0.0391  0.1734
 1001SOL     hw 4002   4.435   1.842   2.287  1.1517  1.1242  1.0910
 1001SOL     hw 4003   4.327   1.913   2.365  0.4255  0.3554  0.7999
 1001SOL     vw 4004   4.379   1.908   2.296 -0.1452  0.1664  0.3772
 1002SOL     ow 4005   6.823   1.240   2.146  0.3791 -0.3368 -0.2082
 1002SOL     hw 4006   6.767   1.184   2.200 -0.5439  0.2552 -0.5295
 1002SOL     hw 4007   6.837   1.318   2.199 -0.7368  0.3549 -0.8943
 1002SOL     vw 4008   6.818   1.243   2.160  0.1099 -0.1674 -0.3412
 1003SOL     ow 4009   1.970   1.367   1.537 -0.0872  0.3195 -0.0574
 1003SOL     hw 4010   2.022   1.333   1.465  0.1295 -1.0212  0.7030
 1003SOL     hw 4011   2.029   1.425   1.585  0.2298  0.0226 -0.0894
 1003SOL     vw 4012   1.984   1.370   1.534 -0.0167  0.1034  0.0387
 1004SOL     ow 4013   7.167   1.631   7.239 -0.2104  0.8135  0.1627
 1004SOL     hw 4014   7.131   1.700   7.295  1.3996  1.3465  0.5811
 1004SOL     hw 4015   7.169   1.669   7.152 -0.0338  1.0207  0.2575
 1004SOL     vw 4016   7.163   1.645   7.235  0.0250  0.9111  0.2306
 1005SOL     ow 4017   1.025   2.288   5.442 -0.2711 -0.8092 -0.2697
 1005SOL     hw 4018   0.976   2.266   5.363 -0.5305  1.7506 -0.9260
 1005SOL     hw 4019   0.961   2.326   5.502  0.5168  0.8713 -0.4144
 1005SOL     vw 4020   1.010   2.290   5.440 -0.2014 -0.2497 -0.3753
 1006SOL     ow 4021   4.305   5.778   6.741  0.5200 -0.2745 -0.5511
 1006SOL     hw 4022   4.376   5.736   6.788 -0.0405 -1.3055 -0.6026
 1006SOL     hw 4023   4.241   5.800   6.809 -1.1528 -3.4532 -0.9171
 1006SOL     vw 4024   4.306   5.776   6.757  0.2253 -0.8299 -0.6063
 1007SOL     ow 4025   4.511   3.748   0.327 -0.3239 -0.1578 -0.3194
 1007SOL     hw 4026   4.467   3.803   0.392 -0.0134  0.2707 -0.4662
 1007SOL     hw 4027   4.590   3.798   0.303 -0.4229 -0.3180 -1.0027
 1007SOL     vw 4028   4.516   3.762   0.332 -0.2959 -0.1223 -0.4289
 1008SOL     ow 4029   6.981   3.971   4.876 -0.0908 -0.3199  0.3884
 1008SOL     hw 4030   6.905   3.962   4.819 -0.4872  1.0642  0.6357
 1008SOL     hw 4031   6.946   4.014   4.955  0.2474 -2.9736  2.0922
 1008SOL     vw 4032   6.966   3.976   4.879 -0.0987 -0.4874  0.6461
 1009SOL     ow 4033   0.759   6.617   6.163  0.4233  0.2746  0.3038
 1009SOL     hw 4034   0.808   6.559   6.105  1.7821  3.2683 -1.7741
 1009SOL     hw 4035   0.800   6.607   6.249 -0.2809 -2.7013  0.4067
 1009SOL     vw 4036   0.771   6.608   6.167  0.5097  0.2768  0.0432
 1010SOL     ow 4037   0.252   0.947   1.166  0.2871  0.2447  0.1014
 1010SOL     hw 4038   0.159   0.953   1.146 -0.0734 -1.3062  1.1257
 1010SOL     hw 4039   0.256   0.957   1.262  1.4163  2.3763 -0.0990
 1010SOL     vw 4040   0.240   0.949   1.176  0.3885  0.3213  0.2101
 1011SOL     ow 4041   1.135   1.715   1.189 -0.2211 -0.1424 -0.4641
 1011SOL     hw 4042   1.040   1.705   1.201 -0.2863  1.6711  0.9942
 1011SOL     hw 4043   1.174   1.661   1.257 -0.2433  0.1226 -0.2409
 1011SOL     vw 4044   1.128   1.707   1.199 -0.2326  0.1319 -0.2423
 1012SOL     ow 4045   3.596   0.778   3.604  0.0978  0.1174 -0.8256
 1012SOL     hw 4046   3.671   0.734   3.646 -0.3003  0.0936 -0.1202
 1012SOL     hw 4047   3.623   0.788   3.513  1.0508  0.3010 -0.5401
 1012SOL     vw 4048   3.610   0.773   3.598  0.1711  0.1385 -0.6950
 1013SOL     ow 4049   2.285   4.799   5.458  0.1049  0.4048 -0.0425
 1013SOL     hw 4050   2.363   4.844   5.424  1.2621 -1.6337 -0.2647
 1013SOL     hw 4051   2.259   4.851   5.534  2.4736  0.4901  0.7906
 1013SOL     vw 4052   2.292   4.812   5.464  0.5699  0.1471  0.0381
 1014SOL     ow 4053   5.124   0.969   4.286 -0.0721  0.5412 -0.5327
 1014SOL     hw 4054   5.187   1.018   4.338 -0.1669 -1.4180  1.5921
 1014SOL     hw 4055   5.045   1.024   4.286  0.4389  1.2858  0.0909
 1014SOL     vw 4056   5.122   0.983   4.293 -0.0172  0.3810 -0.1702
 1015SOL     ow 4057   6.439   2.944   0.402  0.5682  0.3365  0.4504
 1015SOL     hw 4058   6.366   3.000   0.426 -0.0314 -1.1548  2.3760
 1015SOL     hw 4059   6.459   2.968   0.312 -2.6627  0.4427 -0.3608
 1015SOL     vw 4060   6.432   2.954   0.393  0.0629  0.1539  0.5974
 1016SOL     ow 4061   5.090   3.719   3.451 -0.1822 -0.5403 -0.7315
 1016SOL     hw 4062   5.162   3.777   3.475 -0.4261 -0.2503 -0.6917
 1016SOL     hw 4063   5.014   3.777   3.443 -1.0067 -1.1441  1.7792
 1016SOL     vw 4064   5.089   3.735   3.453 -0.3231 -0.5817 -0.3951
 1017SOL     ow 4065   6.862   2.880   6.298  0.0209 -0.0937 -0.0781
 1017SOL     hw 4066   6.792   2.945   6.306  0.9061  0.7393  1.2573
 1017SOL     hw 4067   6.925   2.904   6.366  0.9778 -1.6132 -0.3841
 1017SOL     vw 4068   6.861   2.892   6.308  0.2639 -0.1843  0.0577
 1018SOL     ow 4069   3.620   5.607   1.605 -0.0958 -0.1715 -0.3101
 1018SOL     hw 4070   3.594   5.601   1.513 -1.6692 -1.7390  0.1830
 1018SOL     hw 4071   3.538   5.622   1.652  0.4557 -1.0080  0.9620
 1018SOL     vw 4072   3.606   5.609   1.599 -0.2307 -0.4888 -0.0772
 1019SOL     ow 4073   6.654   3.579   1.653  0.3221 -0.3971 -0.2806
 1019SOL     hw 4074   6.589   3.537   1.710  2.1743 -2.7296  0.2710
 1019SOL     hw 4075   6.716   3.618   1.714  0.2346  0.5379 -0.7827
 1019SOL     vw 4076   6.653   3.578   1.669  0.5548 -0.5815 -0.2740
 1020SOL     ow 4077   0.949   6.307   3.568 -0.3503 -0.5054 -0.0719
 1020SOL     hw 4078   0.977   6.358   3.644 -0.0880 -1.7175  0.6774
 1020SOL     hw 4079   0.927   6.373   3.502  2.5273  0.5912 -0.1113
 1020SOL     vw 4080   0.950   6.322   3.570  0.0640 -0.5207  0.0218
 1021SOL     ow 4081   2.616   1.274   4.886  0.0433 -0.1770 -0.5911
 1021SOL     hw 4082   2.685   1.255   4.822 -1.7312 -0.5004 -2.5011
 1021SOL     hw 4083   2.602   1.192   4.931 -0.8268 -0.8423 -2.0018
 1021SOL     vw 4084   2.623   1.261   4.883 -0.3057 -0.3075 -1.0295
 1022SOL     ow 4085   4.618   3.411   0.749  0.1767  0.4352  0.7736
 1022SOL     hw 4086   4.628   3.390   0.842  0.6490 -0.1594  0.5978
 1022SOL     hw 4087   4.682   3.481   0.733  4.7114 -3.4217 -0.3696
 1022SOL     vw 4088   4.628   3.417   0.759  0.8371 -0.1522  0.5995
 1023SOL     ow 4089   4.739   2.054   3.375  0.7043 -0.6132 -0.7756
 1023SOL     hw 4090   4.744   2.146   3.347  2.6588 -0.7606 -1.0957
 1023SOL     hw 4091   4.656   2.023   3.340 -0.5512  1.3253  0.3353
 1023SOL     vw 4092   4.729   2.062   3.367  0.7966 -0.3769 -0.6711
 1024SOL     ow 4093   5.020   3.612   3.729 -0.3307  0.0543 -0.7348
 1024SOL     hw 4094   5.057   3.525   3.712  1.3832  1.2067 -3.5935
 1024SOL     hw 4095   5.014   3.652   3.643 -1.2557  2.7380  0.4897
 1024SOL     vw 4096   5.024   3.606   3.716 -0.2263  0.5606 -0.9505
 1025SOL     ow 4097   4.056   5.266   3.555 -0.5069 -0.2301  0.7121
 1025SOL     hw 4098   4.086   5.345   3.509  0.9826 -1.7402 -1.0662
 1025SOL     hw 4099   4.106   5.265   3.637 -1.7726  1.4747  1.5880
 1025SOL     vw 4100   4.066   5.277   3.560 -0.4778 -0.2046  0.5931
 1026SOL     ow 4101   7.290   0.174   0.120 -0.4807 -0.4092  1.2646
 1026SOL     hw 4102   7.297   0.192   0.027  0.6428  0.7531  1.5479
 1026SOL     hw 4103   7.357   0.108   0.138  1.4472  1.5888  1.7524
 1026SOL     vw 4104   7.300   0.168   0.110 -0.0780  0.0077  1.3664
 1027SOL     ow 4105   1.694   0.413   4.509 -0.1243 -0.2201 -0.0759
 1027SOL     hw 4106   1.768   0.474   4.507  0.7959 -1.3204 -0.7958
 1027SOL     hw 4107   1.632   0.454   4.570  1.4391  0.3355  1.2508
 1027SOL     vw 4108   1.696   0.427   4.517  0.2034 -0.2919  0.0043
 1028SOL     ow 4109   0.432   6.623   0.667  0.3203 -0.5470 -0.7374
 1028SOL     hw 4110   0.453   6.715   0.650  0.4389 -0.4877 -0.2971
 1028SOL     hw 4111   0.504   6.592   0.723 -0.2758 -0.6058  0.0142
 1028SOL     vw 4112   0.445   6.631   0.672  0.2573 -0.5469 -0.5802
 1029SOL     ow 4113   6.416   2.221   1.302 -0.2966 -0.6382  0.0368
 1029SOL     hw 4114   6.455   2.288   1.246  0.7921 -1.6823 -0.5056
 1029SOL     hw 4115   6.477   2.147   1.297 -1.5516 -1.7378  0.4662
 1029SOL     vw 4116   6.429   2.220   1.294 -0.3183 -0.9210  0.0219
 1030SOL     ow 4117   3.772   1.476   1.533  0.1836 -1.0334 -0.1926
 1030SOL     hw 4118   3.782   1.567   1.562  1.0911 -0.3496 -2.4035
 1030SOL     hw 4119   3.849   1.459   1.479 -0.7158 -2.5988 -1.0611
 1030SOL     vw 4120   3.783   1.486   1.530  0.1847 -1.1497 -0.5988
 1031SOL     ow 4121   5.360   0.076   6.401  0.0166  0.0186  0.2423
 1031SOL     hw 4122   5.403   0.031   6.473 -0.9082 -1.4732 -0.1099
 1031SOL     hw 4123   5.429   0.086   6.335  0.0909 -1.5477  0.0435
 1031SOL     vw 4124   5.375   0.072   6.402 -0.0956 -0.3848  0.1695
 1032SOL     ow 4125   1.435   3.615   0.574 -0.8819 -0.4680  0.4541
 1032SOL     hw 4126   1.405   3.562   0.500 -0.3627  0.8540 -0.7465
 1032SOL     hw 4127   1.395   3.574   0.651 -0.0512 -2.9228 -0.3434
 1032SOL     vw 4128   1.426   3.603   0.575 -0.7038 -0.6175  0.1905
 1033SOL     ow 4129   1.791   4.131   7.393  0.0897  0.6029 -0.2858
 1033SOL     hw 4130   1.799   4.216   7.438  0.6266  0.4955 -0.1656
 1033SOL     hw 4131   1.866   4.129   7.334  0.4533 -0.0720  0.1910
 1033SOL     vw 4132   1.802   4.142   7.392  0.2084  0.4995 -0.2069
 1034SOL     ow 4133   2.692   2.538   0.071 -0.0263 -0.3632 -0.2710
 1034SOL     hw 4134   2.683   2.478   0.145 -1.1171  1.9460  1.6151
 1034SOL     hw 4135   2.748   2.608   0.104  1.1928 -0.2461 -2.3852
 1034SOL     vw 4136   2.698   2.539   0.085 -0.0094 -0.0433 -0.3011
 1035SOL     ow 4137   3.881   0.408   5.965  0.2302 -0.3572 -0.8705
 1035SOL     hw 4138   3.887   0.329   6.018  1.5207 -0.4846 -1.1712
 1035SOL     hw 4139   3.797   0.448   5.990 -0.5651 -1.9337 -0.9038
 1035SOL     vw 4140   3.870   0.403   5.975  0.2955 -0.5820 -0.9146
 1036SOL     ow 4141   6.941   3.020   3.073 -0.0279 -0.3853  0.1891
 1036SOL     hw 4142   6.869   2.962   3.049 -1.9574  0.6055  2.9780
 1036SOL     hw 4143   6.997   2.968   3.130 -0.3448 -0.2721  0.6118
 1036SOL     vw 4144   6.939   3.006   3.077 -0.3242 -0.2395  0.6129
 1037SOL     ow 4145   2.655   1.140   7.616  0.7953  0.0453 -0.0418
 1037SOL     hw 4146   2.641   1.193   7.538 -0.0005 -0.0725  0.0086
 1037SOL     hw 4147   2.669   1.204   7.686 -0.9988  0.2376  0.1752
 1037SOL     vw 4148   2.655   1.156   7.615  0.4536  0.0551 -0.0064
 1038SOL     ow 4149   3.905   2.392   5.717  0.0174 -0.9125  0.1686
 1038SOL     hw 4150   3.949   2.316   5.678  0.0981 -0.9896  0.4091
 1038SOL     hw 4151   3.823   2.400   5.668  0.4043 -0.6283 -0.4410
 1038SOL     vw 4152   3.900   2.383   5.705  0.0792 -0.8851  0.1199
 1039SOL     ow 4153   4.857   3.885   3.468  0.2413  0.1935 -0.0499
 1039SOL     hw 4154   4.838   3.977   3.491 -1.8677 -0.6756  2.1637
 1039SOL     hw 4155   4.773   3.851   3.439  0.4766 -1.5385  1.1671
 1039SOL     vw 4156   4.843   3.893   3.467 -0.0060 -0.1496  0.4028
 1040SOL     ow 4157   4.515   6.466   1.642 -0.0354  0.0268  0.6363
 1040SOL     hw 4158   4.447   6.534   1.647 -0.7079 -0.5271 -0.6061
 1040SOL     hw 4159   4.575   6.488   1.713 -1.5943  0.4381  1.9059
 1040SOL     vw 4160   4.514   6.478   1.652 -0.3297  0.0083  0.6400
 1041SOL     ow 4161   5.606   2.427   0.547  0.0649  0.0252  0.2940
 1041SOL     hw 4162   5.619   2.474   0.464  0.9151  1.3057  1.1141
 1041SOL     hw 4163   5.695   2.400   0.573  0.1128  1.5454  1.8450
 1041SOL     vw 4164   5.620   2.429   0.539  0.1831  0.3947  0.6069
 1042SOL     ow 4165   1.383   0.285   7.457 -0.6926 -0.0855  0.6770
 1042SOL     hw 4166   1.324   0.333   7.514 -2.1588 -1.5251  0.4573
 1042SOL     hw 4167   1.327   0.251   7.387  1.0102  1.4765 -1.5764
 1042SOL     vw 4168   1.368   0.287   7.455 -0.6614 -0.0694  0.3505
 1043SOL     ow 4169   6.938   4.483   3.404  0.2649  0.1965  0.5706
 1043SOL     hw 4170   6.848   4.476   3.374  0.2111 -1.2651  0.9572
 1043SOL     hw 4171   6.943   4.567   3.450 -1.3997 -0.4824  2.1212
 1043SOL     vw 4172   6.927   4.493   3.406  0.0381 -0.0861  0.8262
 1044SOL     ow 4173   2.197   3.316   3.689  0.2326 -0.9080  0.3668
 1044SOL     hw 4174   2.266   3.358   3.639  1.1382  1.8865  3.5742
 1044SOL     hw 4175   2.116   3.358   3.660  0.0859 -2.3847 -1.5938
 1044SOL     vw 4176   2.195   3.327   3.679  0.3327 -0.7342  0.5312
 1045SOL     ow 4177   1.925   2.702   1.137  0.7500  0.3032  0.1484
 1045SOL     hw 4178   1.972   2.733   1.215 -0.9797 -1.3323  1.9769
 1045SOL     hw 4179   1.839   2.745   1.143 -0.7739 -2.6022  1.3559
 1045SOL     vw 4180   1.920   2.712   1.148  0.3208 -0.2960  0.5490
 1046SOL     ow 4181   0.769   7.370   2.512 -0.0930 -0.5047 -0.3251
 1046SOL     hw 4182   0.784   7.464   2.521 -2.0615 -0.2755  1.1931
 1046SOL     hw 4183   0.696   7.364   2.450 -0.2190 -1.0182 -0.1295
 1046SOL     vw 4184   0.761   7.382   2.505 -0.3693 -0.5422 -0.0991
 1047SOL     ow 4185   7.457   5.100   3.093 -0.2354  0.2988  0.6769
 1047SOL     hw 4186   7.401   5.023   3.104 -0.8217  0.7480  0.8749
 1047SOL     hw 4187   7.546   5.066   3.098 -0.4653 -0.6413 -1.1049
 1047SOL     vw 4188   7.461   5.086   3.095 -0.3428  0.2339  0.4679
 1048SOL     ow 4189   0.255   1.850   0.383 -0.4985  0.3255 -0.3119
 1048SOL     hw 4190   0.182   1.797   0.350 -0.6025  0.3743 -0.1592
 1048SOL     hw 4191   0.213   1.928   0.420 -0.5121 -0.4393  1.3867
 1048SOL     vw 4192   0.240   1.854   0.383 -0.5140  0.2310 -0.0677
 1049SOL     ow 4193   5.327   1.496   6.386 -0.4601 -0.3812 -0.1927
 1049SOL     hw 4194   5.278   1.578   6.376  0.7571  0.5820  1.1796
 1049SOL     hw 4195   5.372   1.506   6.470  2.7792 -0.7809 -1.7168
 1049SOL     vw 4196   5.327   1.508   6.396  0.1278 -0.3068 -0.2124
 1050SOL     ow 4197   2.215   0.267   4.893 -0.2432  0.3635  0.1587
 1050SOL     hw 4198   2.142   0.241   4.837  0.7155  0.8816 -1.3801
 1050SOL     hw 4199   2.233   0.358   4.870  1.9536 -0.2299 -0.7393
 1050SOL     vw 4200   2.208   0.275   4.883  0.1731  0.3536 -0.1628
 1051SOL     ow 4201   4.342   2.278   6.321  0.1139 -0.5127 -0.2896
 1051SOL     hw 4202   4.379   2.190   6.307 -0.6049 -0.7488 -0.7612
 1051SOL     hw 4203   4.372   2.328   6.245 -1.2180 -0.9429 -1.1318
 1051SOL     vw 4204   4.351   2.273   6.309 -0.1564 -0.6006 -0.4628
 1052SOL     ow 4205   1.076   0.557   0.226  0.4826  0.1172  0.4834
 1052SOL     hw 4206   1.014   0.614   0.182  0.1623 -0.3979  0.2540
 1052SOL     hw 4207   1.156   0.564   0.174  0.2362 -0.1596  0.0574
 1052SOL     vw 4208   1.078   0.565   0.214  0.4079  0.0127  0.3969
 1053SOL     ow 4209   2.235   1.138   5.952  0.2653 -0.5678  0.3491
 1053SOL     hw 4210   2.184   1.113   6.029 -1.7141 -1.7135 -1.2326
 1053SOL     hw 4211   2.308   1.077   5.949 -0.0808 -1.0087  0.8823
 1053SOL     vw 4212   2.238   1.127   5.961 -0.0416 -0.7772  0.2108
 1054SOL     ow 4213   0.895   0.632   1.167 -0.6691 -1.1261 -0.5519
 1054SOL     hw 4214   0.896   0.639   1.072  3.7315  2.3235 -0.5646
 1054SOL     hw 4215   0.834   0.701   1.195  0.3102 -0.0661 -0.9466
 1054SOL     vw 4216   0.887   0.642   1.158  0.0407 -0.5311 -0.6057
 1055SOL     ow 4217   7.641   0.689   6.826 -0.1535  0.8570  0.0952
 1055SOL     hw 4218   7.681   0.602   6.820  1.1361  1.4273 -0.0455
 1055SOL     hw 4219   7.604   0.704   6.739 -0.4288  0.4226  0.1373
 1055SOL     vw 4220   7.642   0.680   6.814 -0.0196  0.8749  0.0820
 1056SOL     ow 4221   5.888   2.440   7.356  0.1619 -0.6657  0.3547
 1056SOL     hw 4222   5.809   2.395   7.327 -1.3176  1.1397  1.3239
 1056SOL     hw 4223   5.953   2.371   7.367 -1.1048 -2.1433 -1.0192
 1056SOL     vw 4224   5.886   2.425   7.354 -0.2003 -0.6224  0.3014
 1057SOL     ow 4225   1.450   3.408   0.399  0.1249 -0.5099 -0.5185
 1057SOL     hw 4226   1.490   3.333   0.443  0.3552 -0.2731 -0.3214
 1057SOL     hw 4227   1.428   3.375   0.311  0.8374 -0.6249 -0.6597
 1057SOL     vw 4228   1.453   3.393   0.393  0.2493 -0.4938 -0.5111
 1058SOL     ow 4229   0.102   6.730   3.794  0.1229 -0.0791 -0.2392
 1058SOL     hw 4230   0.071   6.661   3.736 -0.7276 -0.3754  0.5486
 1058SOL     hw 4231   0.197   6.728   3.784  0.1684 -1.7906  0.2357
 1058SOL     vw 4232   0.110   6.721   3.785  0.0167 -0.3440 -0.0726
 1059SOL     ow 4233   2.733   3.858   2.127 -0.2040  0.2857 -0.4399
 1059SOL     hw 4234   2.658   3.799   2.118 -0.6349  0.5003  1.3373
 1059SOL     hw 4235   2.698   3.945   2.109 -0.3896  0.3836  0.3693
 1059SOL     vw 4236   2.719   3.861   2.123 -0.2853  0.3269 -0.0986
 1060SOL     ow 4237   5.511   0.678   1.302 -0.1060  0.0450 -0.4544
 1060SOL     hw 4238   5.536   0.607   1.243  1.9984 -0.4107  0.8821
 1060SOL     hw 4239   5.588   0.693   1.356 -1.6357  1.0390  1.6040
 1060SOL     vw 4240   5.524   0.670   1.301 -0.0303  0.1160 -0.0065
 1061SOL     ow 4241   0.332   5.135   6.483 -0.6404  0.4519  0.3423
 1061SOL     hw 4242   0.247   5.139   6.528 -1.9100 -1.5017 -1.7334
 1061SOL     hw 4243   0.310   5.132   6.390  1.7039 -0.5063 -0.2367
 1061SOL     vw 4244   0.318   5.135   6.477 -0.4986  0.0677 -0.0081
 1062SOL     ow 4245   7.528   5.902   7.509 -0.0253 -0.3671 -0.6619
 1062SOL     hw 4246   7.463   5.870   7.572  0.3417 -0.4553 -0.3226
 1062SOL     hw 4247   7.602   5.931   7.563  0.5272 -0.9694 -1.0731
 1062SOL     vw 4248   7.529   5.902   7.525  0.0958 -0.4585 -0.6711
 1063SOL     ow 4249   3.251   4.497   6.997 -0.4391 -0.3116 -0.2968
 1063SOL     hw 4250   3.228   4.417   6.950 -3.7882  0.4721 -0.2219
 1063SOL     hw 4251   3.213   4.485   7.084 -0.6100  1.1897 -0.1503
 1063SOL     vw 4252   3.243   4.485   7.002 -0.9037 -0.0103 -0.2673
 1064SOL     ow 4253   2.841   5.534   5.960 -0.0780  0.2607 -0.1403
 1064SOL     hw 4254   2.893   5.540   6.040  1.4761 -1.0749 -0.9956
 1064SOL     hw 4255   2.758   5.496   5.989  0.5367 -0.4018  0.8176
 1064SOL     vw 4256   2.837   5.530   5.974  0.2080 -0.0029 -0.1268
 1065SOL     ow 4257   1.490   0.137   0.802  0.5744  0.2072 -0.6629
 1065SOL     hw 4258   1.512   0.218   0.847  2.1486 -1.1570  1.1717
 1065SOL     hw 4259   1.551   0.133   0.728  0.8826  0.4072 -0.4187
 1065SOL     vw 4260   1.501   0.147   0.798  0.8227  0.0536 -0.3887
 1066SOL     ow 4261   4.398   0.058   4.057 -0.3589  0.7551  0.3859
 1066SOL     hw 4262   4.421  -0.034   4.072  0.6577  0.5315 -2.1189
 1066SOL     hw 4263   4.302   0.058   4.051 -0.2864 -0.5056 -1.4244
 1066SOL     vw 4264   4.388   0.046   4.058 -0.2151  0.5593 -0.1836
 1067SOL     ow 4265   4.769   2.841   0.008  0.5287  0.0998 -0.2820
 1067SOL     hw 4266   4.736   2.909  -0.051 -0.1023 -0.8242 -1.0473
 1067SOL     hw 4267   4.692   2.786   0.025  1.1049 -0.6330 -0.0024
 1067SOL     vw 4268   4.754   2.842   0.002  0.5212 -0.1187 -0.3459
 1068SOL     ow 4269   1.971   7.574   4.150 -0.1005  0.6909 -0.5378
 1068SOL     hw 4270   1.967   7.615   4.236  2.9997  1.5950 -0.7118
 1068SOL     hw 4271   2.008   7.641   4.093  0.2944 -0.6978 -1.9855
 1068SOL     vw 4272   1.975   7.588   4.154  0.3606  0.6266 -0.7517
 1069SOL     ow 4273   4.140   5.127   0.131  0.0233 -0.1868  0.8200
 1069SOL     hw 4274   4.049   5.100   0.125 -0.0331  0.0406  0.6169
 1069SOL     hw 4275   4.150   5.160   0.220  0.5433 -2.4532  1.6688
 1069SOL     vw 4276   4.129   5.128   0.142  0.0846 -0.4559  0.9052
 1070SOL     ow 4277   3.414   7.595   2.747  0.6753 -0.4964 -1.0046
 1070SOL     hw 4278   3.379   7.579   2.835 -0.6233 -2.5916 -1.8191
 1070SOL     hw 4279   3.471   7.671   2.757 -1.0864  0.6582  1.2180
 1070SOL     vw 4280   3.417   7.603   2.760  0.2716 -0.6205 -0.8188
 1071SOL     ow 4281   4.103   4.302   6.362 -0.8838 -0.1920 -0.5512
 1071SOL     hw 4282   4.176   4.248   6.332  0.0306 -0.0451  1.2708
 1071SOL     hw 4283   4.075   4.351   6.284  0.0399 -1.2691 -1.5891
 1071SOL     vw 4284   4.109   4.301   6.348 -0.6413 -0.3147 -0.4475
 1072SOL     ow 4285   7.257   5.667   4.323  0.2364 -0.6473 -0.3305
 1072SOL     hw 4286   7.273   5.637   4.233 -1.4140 -1.7668 -0.2846
 1072SOL     hw 4287   7.304   5.604   4.378 -0.3825 -1.1370 -0.3540
 1072SOL     vw 4288   7.265   5.655   4.318 -0.0627 -0.8595 -0.3273
 1073SOL     ow 4289   5.561   1.542   6.943 -0.1919  0.1981 -0.8106
 1073SOL     hw 4290   5.633   1.571   6.888 -0.7786 -0.1311 -1.7737
 1073SOL     hw 4291   5.603   1.501   7.019  0.6255  1.1427 -0.7397
 1073SOL     vw 4292   5.576   1.541   6.946 -0.1616  0.2793 -0.9284
 1074SOL     ow 4293   2.782   1.862   4.886  0.5274  1.0221  0.1837
 1074SOL     hw 4294   2.745   1.775   4.902  2.1927  0.3591  0.6014
 1074SOL     hw 4295   2.732   1.896   4.812  0.5093 -0.7087 -0.6447
 1074SOL     vw 4296   2.770   1.855   4.879  0.7447  0.7063  0.1295
 1075SOL     ow 4297   2.216   7.546   3.238  0.7457 -0.5555  0.2545
 1075SOL     hw 4298   2.263   7.499   3.306  1.7334 -1.4056 -0.9855
 1075SOL     hw 4299   2.283   7.577   3.178  0.2623  3.1477  1.3203
 1075SOL     vw 4300   2.231   7.544   3.239  0.8123 -0.1793  0.2315
 1076SOL     ow 4301   1.457   5.340   0.629  0.1103  0.2861 -0.0962
 1076SOL     hw 4302   1.511   5.386   0.564  0.2238 -2.1685 -1.8925
 1076SOL     hw 4303   1.368   5.370   0.611  0.0121 -1.0285 -2.1289
 1076SOL     vw 4304   1.452   5.350   0.618  0.1123 -0.2112 -0.6014
 1077SOL     ow 4305   1.679   5.007   1.569  0.4850 -0.3062  0.5706
 1077SOL     hw 4306   1.738   5.049   1.506 -0.0146 -2.2941 -1.3313
 1077SOL     hw 4307   1.606   4.975   1.516  0.0759 -2.1527  2.1440
 1077SOL     vw 4308   1.677   5.008   1.554  0.3651 -0.8121  0.5273
 1078SOL     ow 4309   3.363   0.089   2.477 -0.3105 -0.0330 -0.2466
 1078SOL     hw 4310   3.343   0.126   2.391 -2.2116 -1.0919 -0.3163
 1078SOL     hw 4311   3.411   0.158   2.523 -1.2241  1.3945 -1.3741
 1078SOL     vw 4312   3.367   0.103   2.472 -0.6820  0.0156 -0.4045
 1079SOL     ow 4313   6.844   4.936   5.843 -0.3393  0.0927  0.1079
 1079SOL     hw 4314   6.765   4.982   5.813 -0.9908  0.2477  1.8809
 1079SOL     hw 4315   6.887   5.000   5.900 -0.5037 -0.9746  1.4761
 1079SOL     vw 4316   6.839   4.951   5.847 -0.4470 -0.0277  0.5224
 1080SOL     ow 4317   7.171   2.799   5.732 -0.2695  0.5800  0.3118
 1080SOL     hw 4318   7.200   2.828   5.818 -0.3836  2.1416 -0.1536
 1080SOL     hw 4319   7.128   2.876   5.694  2.0658  0.7892 -2.1843
 1080SOL     vw 4320   7.169   2.813   5.738  0.0236  0.8136 -0.0789
 1081SOL     ow 4321   1.536   6.730   2.768 -0.0248 -0.3356  0.4508
 1081SOL     hw 4322   1.484   6.652   2.789 -1.8453  1.4280  3.3044
 1081SOL     hw 4323   1.477   6.785   2.717 -0.5991  1.0929  2.5245
 1081SOL     vw 4324   1.521   6.727   2.764 -0.3408  0.0854  1.1008
 1082SOL     ow 4325   5.005   7.494   4.044 -0.1785 -0.0902 -0.0944
 1082SOL     hw 4326   5.050   7.578   4.039 -0.6874  0.1158 -3.8462
 1082SOL     hw 4327   5.072   7.429   4.022 -0.2015 -0.5169  1.0351
 1082SOL     vw 4328   5.020   7.496   4.040 -0.2487 -0.1192 -0.4404
 1083SOL     ow 4329   4.769   5.799   2.980  1.0435 -0.4537 -0.0205
 1083SOL     hw 4330   4.797   5.836   3.064  0.0269 -0.0367  0.1530
 1083SOL     hw 4331   4.793   5.866   2.916 -0.2206  0.2767  0.2206
 1083SOL     vw 4332   4.776   5.813   2.983  0.7424 -0.3023  0.0343
 1084SOL     ow 4333   5.728   5.827   6.262  0.0457 -0.1861  0.5792
 1084SOL     hw 4334   5.803   5.769   6.258 -1.2510 -1.9151  0.1926
 1084SOL     hw 4335   5.686   5.807   6.346 -1.7708 -1.6762 -0.5970
 1084SOL     vw 4336   5.732   5.817   6.273 -0.3650 -0.6108  0.3731
 1085SOL     ow 4337   6.054   1.056   1.203  0.3930 -0.1769 -0.1202
 1085SOL     hw 4338   6.139   1.037   1.164  0.0942 -0.3881 -0.6704
 1085SOL     hw 4339   6.075   1.096   1.288  1.0292 -1.1848  0.2043
 1085SOL     vw 4340   6.068   1.059   1.209  0.4375 -0.3377 -0.1500
 1086SOL     ow 4341   0.882   1.289   5.477 -0.0803  0.3044 -0.1472
 1086SOL     hw 4342   0.857   1.339   5.554  0.7015  0.3442  0.0880
 1086SOL     hw 4343   0.854   1.344   5.403  1.0462  1.2684  0.1031
 1086SOL     vw 4344   0.875   1.303   5.477  0.1715  0.4368 -0.0830
 1087SOL     ow 4345   5.522   4.207   4.618 -0.3843 -0.2771  0.7673
 1087SOL     hw 4346   5.535   4.293   4.657  1.2572 -1.0263  1.9844
 1087SOL     hw 4347   5.463   4.223   4.544  1.9411  2.3356 -0.7063
 1087SOL     vw 4348   5.516   4.220   4.613  0.1390 -0.0315  0.7336
 1088SOL     ow 4349   1.831   4.468   0.726  0.2055  0.0241  0.1064
 1088SOL     hw 4350   1.797   4.381   0.741 -1.6706  0.9415  1.5682
 1088SOL     hw 4351   1.925   4.456   0.713 -0.0971 -2.2293 -0.2474
 1088SOL     vw 4352   1.839   4.455   0.726 -0.0819 -0.1523  0.2526
 1089SOL     ow 4353   1.458   3.265   0.142 -0.3544 -0.4864  0.2344
 1089SOL     hw 4354   1.409   3.210   0.082  2.1475 -0.4845 -1.9867
 1089SOL     hw 4355   1.497   3.333   0.087 -0.8971  1.7999  2.4444
 1089SOL     vw 4356   1.457   3.267   0.127 -0.0959 -0.1847  0.2329
 1090SOL     ow 4357   1.915   4.604   0.293  0.1124 -0.9344 -0.8437
 1090SOL     hw 4358   1.954   4.539   0.235  3.9890 -0.0462  0.4567
 1090SOL     hw 4359   1.911   4.561   0.378  0.0474 -0.3982 -0.5686
 1090SOL     vw 4360   1.920   4.590   0.296  0.6153 -0.7463 -0.6358
 1091SOL     ow 4361   5.377   5.712   5.507  0.0948 -0.4407  0.4160
 1091SOL     hw 4362   5.459   5.666   5.487  0.1192 -0.5011  0.6550
 1091SOL     hw 4363   5.366   5.701   5.602  0.1851  0.1822  0.4980
 1091SOL     vw 4364   5.386   5.704   5.517  0.1099 -0.3664  0.4582
 1092SOL     ow 4365   3.847   5.681   7.137 -0.4613  0.5038  0.5501
 1092SOL     hw 4366   3.780   5.642   7.081 -0.4327  1.3683 -0.1080
 1092SOL     hw 4367   3.850   5.773   7.111  2.2552  0.1483 -0.7353
 1092SOL     vw 4368   3.839   5.688   7.127 -0.0992  0.5710  0.2933
 1093SOL     ow 4369   1.444   1.773   3.086 -0.3128  0.5464 -0.0091
 1093SOL     hw 4370   1.488   1.697   3.125 -0.9703 -0.1919 -0.6598
 1093SOL     hw 4371   1.355   1.771   3.123 -0.7187  0.2567 -0.9664
 1093SOL     vw 4372   1.438   1.763   3.096 -0.4531  0.4107 -0.2213
 1094SOL     ow 4373   2.453   2.352   7.620 -0.6103 -0.4318  0.2489
 1094SOL     hw 4374   2.367   2.331   7.582 -0.3404 -3.5430  1.0830
 1094SOL     hw 4375   2.489   2.267   7.646  2.8631  0.7145 -0.2834
 1094SOL     vw 4376   2.446   2.338   7.618 -0.1165 -0.6911  0.2887
 1095SOL     ow 4377   3.875   4.189   7.455 -0.6281  0.3474 -0.6083
 1095SOL     hw 4378   3.790   4.230   7.471 -0.8741 -0.4579  0.1663
 1095SOL     hw 4379   3.854   4.099   7.430  0.0044  0.1061 -0.2811
 1095SOL     vw 4380   3.861   4.183   7.454 -0.5771  0.2093 -0.4630
 1096SOL     ow 4381   6.180   4.253   7.227  0.7622  0.0715  0.1444
 1096SOL     hw 4382   6.146   4.311   7.296 -0.5384 -1.1564  0.5919
 1096SOL     hw 4383   6.110   4.250   7.162  1.9013  1.0672 -1.1827
 1096SOL     vw 4384   6.166   4.260   7.228  0.7405  0.0410  0.0284
 1097SOL     ow 4385   3.231   6.789   7.204 -0.4053  0.8060 -1.0709
 1097SOL     hw 4386   3.243   6.820   7.294  1.2618  0.1910 -1.0520
 1097SOL     hw 4387   3.149   6.740   7.207  0.1917 -0.1714  0.3970
 1097SOL     vw 4388   3.222   6.787   7.217 -0.1066  0.5960 -0.8748
 1098SOL     ow 4389   5.377   0.483   4.447  0.1089  0.2081  0.0323
 1098SOL     hw 4390   5.330   0.567   4.447  0.0662  0.3107  2.8823
 1098SOL     hw 4391   5.356   0.443   4.363 -0.6878  2.6124 -0.9964
 1098SOL     vw 4392   5.368   0.489   4.436 -0.0019  0.5388  0.2725
 1099SOL     ow 4393   1.949   3.160   7.263  0.5714 -0.4459  0.3194
 1099SOL     hw 4394   1.905   3.102   7.202 -1.3252  0.0208  1.1748
 1099SOL     hw 4395   1.896   3.240   7.263  2.8421  1.1499 -0.4811
 1099SOL     vw 4396   1.936   3.163   7.255  0.6208 -0.1739  0.3266
 1100SOL     ow 4397   0.834   0.873   3.829  0.0528  0.0849 -0.1262
 1100SOL     hw 4398   0.782   0.944   3.866 -1.1217 -0.9007  0.1801
 1100SOL     hw 4399   0.772   0.800   3.819  1.0853 -0.7134 -0.9850
 1100SOL     vw 4400   0.819   0.873   3.832  0.0341 -0.1505 -0.1992
 1101SOL     ow 4401   6.114   1.815   6.098 -0.1869  0.7337 -0.2221
 1101SOL     hw 4402   6.184   1.863   6.054  1.3339 -1.8510 -0.8181
 1101SOL     hw 4403   6.157   1.738   6.135 -2.5872 -0.5580  0.0855
 1101SOL     vw 4404   6.129   1.811   6.097 -0.3030  0.2222 -0.2604
 1102SOL     ow 4405   5.242   7.340   5.710  0.4920  0.7000  0.5308
 1102SOL     hw 4406   5.293   7.313   5.634 -1.3265 -2.1792  0.1564
 1102SOL     hw 4407   5.190   7.414   5.680 -0.6465 -0.7600 -1.3541
 1102SOL     vw 4408   5.242   7.346   5.696  0.1020  0.1276  0.2327
 1103SOL     ow 4409   0.566   0.483   5.163  0.3461 -0.6020  0.0253
 1103SOL     hw 4410   0.638   0.420   5.159 -0.0294 -0.9642 -1.4654
 1103SOL     hw 4411   0.604   0.564   5.127 -0.1231 -0.9585 -1.3368
 1103SOL     vw 4412   0.581   0.485   5.158  0.2347 -0.6969 -0.3512
 1104SOL     ow 4413   7.257   1.430   2.194  0.5403  0.6595  0.8790
 1104SOL     hw 4414   7.290   1.487   2.263  1.2800  0.2388  0.8825
 1104SOL     hw 4415   7.317   1.355   2.194  0.9820  0.9696 -0.6751
 1104SOL     vw 4416   7.270   1.427   2.203  0.6967  0.6449  0.6745
 1105SOL     ow 4417   4.427   2.445   0.509  0.4488  0.5010 -0.2837
 1105SOL     hw 4418   4.393   2.469   0.422 -1.0333  1.1855  0.4526
 1105SOL     hw 4419   4.497   2.509   0.526  0.2893  0.7878 -0.6841
 1105SOL     vw 4420   4.432   2.457   0.500  0.2322  0.6291 -0.2394
 1106SOL     ow 4421   0.756   1.894   5.597 -0.1202  0.0844  0.0919
 1106SOL     hw 4422   0.812   1.841   5.540  2.3812  0.8106  1.7096
 1106SOL     hw 4423   0.672   1.848   5.598  1.0408 -2.2117 -0.8600
 1106SOL     vw 4424   0.752   1.881   5.590  0.3630 -0.1228  0.1795
 1107SOL     ow 4425   7.319   5.962   2.120  0.4591 -0.2316  0.0929
 1107SOL     hw 4426   7.293   6.055   2.121 -0.6286 -0.5096 -0.6958
 1107SOL     hw 4427   7.321   5.937   2.212 -0.2490  0.3089  0.2635
 1107SOL     vw 4428   7.316   5.971   2.132  0.2222 -0.1969  0.0114
 1108SOL     ow 4429   6.113   7.206   4.111  0.4370 -0.3544  0.3026
 1108SOL     hw 4430   6.123   7.300   4.097  1.0569 -0.6410 -1.3516
 1108SOL     hw 4431   6.023   7.187   4.083  0.7880 -0.4828 -0.7548
 1108SOL     vw 4432   6.102   7.216   4.106  0.5651 -0.4094 -0.0551
 1109SOL     ow 4433   5.597   0.825   0.738 -0.3744  0.0717 -0.2823
 1109SOL     hw 4434   5.594   0.750   0.679 -0.8097 -0.5068  0.4584
 1109SOL     hw 4435   5.627   0.897   0.683  2.4747 -1.1416 -0.4809
 1109SOL     vw 4436   5.601   0.825   0.723 -0.0560 -0.1647 -0.2108
 1110SOL     ow 4437   4.291   3.948   5.227 -0.3886 -0.1945 -0.2957
 1110SOL     hw 4438   4.333   3.912   5.148 -0.9317 -1.3326 -0.0950
 1110SOL     hw 4439   4.360   3.999   5.270  0.2754 -0.5905 -0.8694
 1110SOL     vw 4440   4.306   3.950   5.222 -0.3726 -0.3970 -0.3448
 1111SOL     ow 4441   6.015   0.518   2.732 -0.8371 -0.2640  0.2182
 1111SOL     hw 4442   6.044   0.476   2.813 -1.3847  0.5452  0.8519
 1111SOL     hw 4443   6.070   0.479   2.664 -2.0140 -2.7598  0.5978
 1111SOL     vw 4444   6.026   0.507   2.734 -1.0645 -0.4866  0.3520
 1112SOL     ow 4445   4.855   6.114   4.723 -0.3288  0.5907  0.2173
 1112SOL     hw 4446   4.903   6.190   4.689  0.9089  1.3825  3.3905
 1112SOL     hw 4447   4.903   6.038   4.689 -0.8110  1.1535 -1.9261
 1112SOL     vw 4448   4.868   6.114   4.714 -0.2294  0.7696  0.3529
 1113SOL     ow 4449   4.704   6.223   0.775  0.3371 -0.1000  0.1428
 1113SOL     hw 4450   4.739   6.241   0.688  2.7221 -1.2276  0.7891
 1113SOL     hw 4451   4.772   6.254   0.835  0.7526 -3.1731  1.4540
 1113SOL     vw 4452   4.718   6.229   0.771  0.7064 -0.6542  0.4011
 1114SOL     ow 4453   2.941   7.407   4.794 -0.1145 -0.2406  0.7610
 1114SOL     hw 4454   3.022   7.384   4.839 -0.3767 -3.4986 -0.1671
 1114SOL     hw 4455   2.969   7.468   4.725  1.4037 -0.5641  1.0448
 1114SOL     vw 4456   2.956   7.412   4.791  0.0513 -0.7131  0.6759
 1115SOL     ow 4457   6.001   0.238   1.179  0.0205 -0.1527 -0.0463
 1115SOL     hw 4458   5.926   0.243   1.238 -2.0632  0.8647 -2.5443
 1115SOL     hw 4459   6.008   0.145   1.157 -2.3740 -0.0285 -1.8035
 1115SOL     vw 4460   5.992   0.227   1.184 -0.5703 -0.0021 -0.6077
 1116SOL     ow 4461   7.069   0.890   4.534  0.9678 -0.1847  0.1490
 1116SOL     hw 4462   7.132   0.946   4.488  1.9204 -2.1149 -1.0164
 1116SOL     hw 4463   7.096   0.894   4.626  1.5283  0.6159 -0.0432
 1116SOL     vw 4464   7.081   0.898   4.540  1.1678 -0.3337 -0.0298
 1117SOL     ow 4465   0.318   0.828   6.939  0.0470 -0.0509  0.6201
 1117SOL     hw 4466   0.352   0.759   6.996  0.8227 -1.2344 -1.1858
 1117SOL     hw 4467   0.263   0.781   6.876 -0.1054  1.1058 -0.1336
 1117SOL     vw 4468   0.315   0.812   6.938  0.1292 -0.0544  0.2818
 1118SOL     ow 4469   4.055   5.497   1.352 -0.2435 -0.5215 -0.0619
 1118SOL     hw 4470   4.101   5.542   1.281 -1.8453  0.4118 -0.5709
 1118SOL     hw 4471   3.985   5.557   1.377 -0.7524 -1.5693  1.1557
 1118SOL     vw 4472   4.051   5.511   1.346 -0.5217 -0.5367  0.0317
 1119SOL     ow 4473   5.899   4.408   6.137 -0.2133  0.0464  1.1305
 1119SOL     hw 4474   5.989   4.417   6.107 -0.5442  0.3370  0.2036
 1119SOL     hw 4475   5.881   4.489   6.184  0.4748 -0.6231  2.6411
 1119SOL     vw 4476   5.908   4.420   6.139 -0.1662 -0.0033  1.2076
 1120SOL     ow 4477   6.072   3.469   4.449  0.0198 -0.1068  0.0775
 1120SOL     hw 4478   6.000   3.408   4.469 -0.1270 -0.0666 -0.3173
 1120SOL     hw 4479   6.033   3.555   4.462  0.7811 -0.0714  2.5996
 1120SOL     vw 4480   6.057   3.472   4.454  0.1011 -0.0968  0.3586
 1121SOL     ow 4481   5.566   4.476   5.159  0.2702  0.5512  0.1225
 1121SOL     hw 4482   5.533   4.521   5.236 -0.5444 -0.4166  0.3633
 1121SOL     hw 4483   5.500   4.493   5.091 -1.6841 -2.6190  1.0039
 1121SOL     vw 4484   5.553   4.484   5.160 -0.0954  0.0055  0.2704
 1122SOL     ow 4485   2.052   2.146   6.316 -0.3644 -0.4153 -0.2955
 1122SOL     hw 4486   2.089   2.232   6.334 -1.6661  0.1511 -0.1820
 1122SOL     hw 4487   2.111   2.106   6.253  1.5429 -0.3928  1.3653
 1122SOL     vw 4488   2.064   2.152   6.310 -0.2846 -0.3376 -0.0615
 1123SOL     ow 4489   2.588   6.104   5.677 -0.9631  0.4218 -0.4062
 1123SOL     hw 4490   2.603   6.127   5.769 -1.0089  0.4430 -0.4039
 1123SOL     hw 4491   2.670   6.063   5.648 -1.2991 -0.5094 -0.0719
 1123SOL     vw 4492   2.601   6.102   5.685 -1.0134  0.3018 -0.3617
 1124SOL     ow 4493   1.548   0.003   4.721  0.3072 -0.5488 -0.7568
 1124SOL     hw 4494   1.489   0.070   4.685  0.3735  0.9605  1.6869
 1124SOL     hw 4495   1.636   0.033   4.698  0.3904  0.8169  1.1309
 1124SOL     vw 4496   1.552   0.016   4.713  0.3269 -0.1695 -0.1853
 1125SOL     ow 4497   5.187   0.219   6.197  0.8027 -0.5280  0.6897
 1125SOL     hw 4498   5.110   0.185   6.153  0.4691  0.0082  0.8474
 1125SOL     hw 4499   5.189   0.312   6.173  0.5895 -0.2145  1.8337
 1125SOL     vw 4500   5.177   0.227   6.188  0.7305 -0.4159  0.8612
 1126SOL     ow 4501   5.652   7.273   4.383  0.4976 -1.1303  0.4092
 1126SOL     hw 4502   5.721   7.327   4.422  0.3927 -0.0336 -0.8550
 1126SOL     hw 4503   5.615   7.225   4.456  0.1455  1.0165  1.7243
 1126SOL     vw 4504   5.656   7.274   4.398  0.4375 -0.7024  0.4158
 1127SOL     ow 4505   7.161   6.236   0.062  0.0797  0.2818  0.7497
 1127SOL     hw 4506   7.243   6.195   0.032 -0.3481 -0.1365  0.1217
 1127SOL     hw 4507   7.183   6.329   0.070  0.1300  0.5192 -1.3575
 1127SOL     vw 4508   7.175   6.243   0.059  0.0298  0.2580  0.3888
 1128SOL     ow 4509   1.058   2.955   7.381  0.0087  0.3844  0.6290
 1128SOL     hw 4510   0.994   2.936   7.450 -0.0352  0.2458  0.5499
 1128SOL     hw 4511   1.103   2.872   7.367 -0.6670  0.1583 -0.2303
 1128SOL     vw 4512   1.056   2.942   7.389 -0.0863  0.3362  0.5052
 1129SOL     ow 4513   7.000   6.126   5.868  0.3926 -0.2989 -0.3221
 1129SOL     hw 4514   7.011   6.176   5.788  0.1173 -0.4435 -0.4500
 1129SOL     hw 4515   6.924   6.165   5.911  1.1148  0.4163  0.3505
 1129SOL     vw 4516   6.992   6.138   5.863  0.4513 -0.2236 -0.2506
 1130SOL     ow 4517   6.202   2.992   2.521 -0.4512 -0.1387 -0.4064
 1130SOL     hw 4518   6.231   2.949   2.441  0.2536 -1.3542  0.4604
 1130SOL     hw 4519   6.187   2.920   2.583 -0.7577  0.7774  0.6279
 1130SOL     vw 4520   6.204   2.976   2.519 -0.3984 -0.1781 -0.1556
 1131SOL     ow 4521   3.250   1.930   0.292  0.6361  0.2759 -0.1577
 1131SOL     hw 4522   3.336   1.888   0.295  1.0981  1.2060 -0.0080
 1131SOL     hw 4523   3.205   1.897   0.369  0.9668  0.0103 -0.0726
 1131SOL     vw 4524   3.256   1.920   0.302  0.7406  0.3635 -0.1268
 1132SOL     ow 4525   4.649   3.153   4.822 -0.2900 -0.1377 -0.1422
 1132SOL     hw 4526   4.643   3.197   4.907 -2.5896 -1.1464  0.2823
 1132SOL     hw 4527   4.584   3.197   4.768  0.6752  0.0380 -1.2031
 1132SOL     vw 4528   4.640   3.165   4.826 -0.4661 -0.2475 -0.2263
 1133SOL     ow 4529   2.804   3.283   3.328  0.3823  0.0794  0.5633
 1133SOL     hw 4530   2.849   3.337   3.263 -0.0526  1.0324  1.0325
 1133SOL     hw 4531   2.869   3.268   3.396  0.2424  0.7948  0.8657
 1133SOL     vw 4532   2.818   3.288   3.329  0.3064  0.2996  0.6651
 1134SOL     ow 4533   7.537   6.622   1.095  0.2009  0.6103 -0.7472
 1134SOL     hw 4534   7.575   6.704   1.064  0.4794  0.2037 -1.5065
 1134SOL     hw 4535   7.612   6.565   1.111  0.0986  0.9131  1.0633
 1134SOL     vw 4536   7.552   6.625   1.093  0.2244  0.5965 -0.6085
 1135SOL     ow 4537   4.726   2.598   6.228  0.9357 -0.0997 -0.5751
 1135SOL     hw 4538   4.797   2.553   6.274  2.1845  0.4062 -1.9355
 1135SOL     hw 4539   4.660   2.530   6.213  2.3702 -1.3050 -1.7498
 1135SOL     vw 4540   4.726   2.583   6.232  1.2894 -0.1920 -0.9096
 1136SOL     ow 4541   4.627   1.168   2.933  0.0071  0.2051 -0.1120
 1136SOL     hw 4542   4.649   1.090   2.985 -0.9025 -0.4627 -0.7009
 1136SOL     hw 4543   4.640   1.141   2.842  0.3976  0.9834 -0.2958
 1136SOL     vw 4544   4.631   1.154   2.928 -0.0613  0.2197 -0.2139
 1137SOL     ow 4545   6.707   1.469   0.679 -0.3482 -0.5627 -0.7126
 1137SOL     hw 4546   6.646   1.530   0.720  2.2535  0.6445  1.7078
 1137SOL     hw 4547   6.774   1.525   0.640  0.0511 -1.8665 -1.9976
 1137SOL     vw 4548   6.708   1.484   0.679  0.0477 -0.5755 -0.5628
 1138SOL     ow 4549   3.063   7.392   2.416  0.0649  0.3152 -0.9096
 1138SOL     hw 4550   3.075   7.450   2.340 -0.1053  1.0279 -0.4052
 1138SOL     hw 4551   3.002   7.325   2.386 -0.1002  0.6666 -1.3652
 1138SOL     vw 4552   3.056   7.391   2.402  0.0206  0.4554 -0.9032
 1139SOL     ow 4553   3.912   1.665   4.309  0.0482 -0.4016  1.0871
 1139SOL     hw 4554   3.989   1.622   4.273  0.6533  1.2260  0.3436
 1139SOL     hw 4555   3.920   1.756   4.281 -2.9734 -0.4751 -0.4421
 1139SOL     vw 4556   3.923   1.672   4.300 -0.2707 -0.1966  0.7870
 1140SOL     ow 4557   5.347   2.397   0.655 -0.3434  0.3745  0.0624
 1140SOL     hw 4558   5.387   2.340   0.589 -0.7348  1.6448 -1.3426
 1140SOL     hw 4559   5.257   2.367   0.662  0.4624 -1.8668  2.5191
 1140SOL     vw 4560   5.341   2.385   0.647 -0.2885  0.2464  0.2012
 1141SOL     ow 4561   2.033   2.499   1.971  0.3244  0.5103  0.2590
 1141SOL     hw 4562   2.011   2.451   1.892  2.1520  2.9504 -1.9116
 1141SOL     hw 4563   1.960   2.560   1.984  0.5414  0.9007 -0.2909
 1141SOL     vw 4564   2.021   2.501   1.962  0.5941  0.8838 -0.0998
 1142SOL     ow 4565   2.095   7.604   4.968  0.2310 -0.6232  0.4949
 1142SOL     hw 4566   2.015   7.652   4.949  1.5177  1.2786 -0.4402
 1142SOL     hw 4567   2.163   7.671   4.975  1.8134 -2.1807  0.9241
 1142SOL     vw 4568   2.093   7.619   4.966  0.6095 -0.5777  0.4284
 1143SOL     ow 4569   0.231   6.974   3.024  0.2164 -1.1225 -0.4782
 1143SOL     hw 4570   0.217   6.898   3.081  0.6043 -1.1317 -0.3894
 1143SOL     hw 4571   0.173   7.041   3.059  1.1442 -0.8128  0.5360
 1143SOL     vw 4572   0.221   6.973   3.036  0.3900 -1.0829 -0.3326
 1144SOL     ow 4573   4.587   3.815   6.554 -0.1932 -0.4144 -0.7268
 1144SOL     hw 4574   4.542   3.867   6.488 -0.3162 -2.1609 -2.1049
 1144SOL     hw 4575   4.528   3.743   6.573 -0.4315  0.3372  1.8201
 1144SOL     vw 4576   4.573   3.812   6.548 -0.2408 -0.5456 -0.5724
 1145SOL     ow 4577   0.316   6.187   1.944 -0.6693  0.8943 -0.4795
 1145SOL     hw 4578   0.402   6.224   1.963 -0.2917 -0.1995  0.0283
 1145SOL     hw 4579   0.254   6.248   1.984 -0.0072  0.2511  1.6138
 1145SOL     vw 4580   0.319   6.200   1.952 -0.5321  0.6652 -0.1363
 1146SOL     ow 4581   2.479   1.119   5.422  0.6500  0.2175  0.2606
 1146SOL     hw 4582   2.510   1.030   5.439  0.7694  0.4410  1.2851
 1146SOL     hw 4583   2.544   1.157   5.363  1.0415 -0.1036  0.4816
 1146SOL     vw 4584   2.491   1.112   5.416  0.7175  0.2046  0.4249
 1147SOL     ow 4585   7.407   0.648   0.050 -0.9235  0.2843  0.4681
 1147SOL     hw 4586   7.316   0.632   0.023 -1.2191  1.7419  0.5581
 1147SOL     hw 4587   7.448   0.561   0.044 -1.2353  0.2002 -3.6559
 1147SOL     vw 4588   7.400   0.634   0.045 -1.0037  0.4655 -0.0642
 1148SOL     ow 4589   5.426   6.771   7.226 -0.3565  0.3163  0.2206
 1148SOL     hw 4590   5.373   6.835   7.177  0.7987  1.0609 -0.0948
 1148SOL     hw 4591   5.439   6.699   7.164 -2.2686 -0.6051  0.8150
 1148SOL     vw 4592   5.421   6.770   7.211 -0.4563  0.2928  0.2575
 1149SOL     ow 4593   1.904   7.587   4.426  0.6021 -0.3458 -0.8051
 1149SOL     hw 4594   1.879   7.496   4.442 -1.9802  0.1828 -1.4210
 1149SOL     hw 4595   1.968   7.607   4.494 -1.0528 -1.7251  1.2685
 1149SOL     vw 4596   1.909   7.577   4.437  0.0430 -0.4580 -0.6127
 1150SOL     ow 4597   6.265   4.202   1.519 -0.1005  0.1850  0.6050
 1150SOL     hw 4598   6.274   4.271   1.453 -0.3452  0.8179  1.2252
 1150SOL     hw 4599   6.355   4.183   1.546  0.4362 -2.7389 -2.5475
 1150SOL     vw 4600   6.278   4.209   1.514 -0.0618 -0.1173  0.2709
 1151SOL     ow 4601   7.449   0.657   7.147  0.3455  0.2500 -0.5677
 1151SOL     hw 4602   7.358   0.676   7.170  1.1887  1.3467  2.2276
 1151SOL     hw 4603   7.456   0.562   7.155 -0.3126  0.2519  0.1287
 1151SOL     vw 4604   7.438   0.647   7.151  0.3700  0.3949 -0.1068
 1152SOL     ow 4605   6.234   4.628   6.070 -0.1767  0.0604 -0.3307
 1152SOL     hw 4606   6.287   4.648   6.147 -0.5286  0.1112 -0.0985
 1152SOL     hw 4607   6.191   4.711   6.049 -2.6209 -0.6579  1.3809
 1152SOL     vw 4608   6.235   4.642   6.077 -0.5457 -0.0279 -0.0741
 1153SOL     ow 4609   1.478   5.081   0.703  0.6277 -0.1742 -0.0129
 1153SOL     hw 4610   1.463   5.171   0.674  1.7438  0.5131  1.3735
 1153SOL     hw 4611   1.469   5.085   0.798  0.2440 -1.6352  0.0318
 1153SOL     vw 4612   1.475   5.094   0.712  0.7244 -0.2766  0.1759
 1154SOL     ow 4613   1.898   3.724   3.503  0.1229 -0.4387  0.1679
 1154SOL     hw 4614   1.930   3.800   3.454 -0.0590 -0.7470 -0.4434
 1154SOL     hw 4615   1.950   3.650   3.470 -0.1844 -0.6957  0.2483
 1154SOL     vw 4616   1.909   3.724   3.492  0.0584 -0.5133  0.0979
 1155SOL     ow 4617   5.690   4.606   7.069 -0.0238 -0.0550  0.0561
 1155SOL     hw 4618   5.677   4.517   7.102  1.1598  0.3633  1.7659
 1155SOL     hw 4619   5.666   4.600   6.976 -1.8742 -1.6878  0.5569
 1155SOL     vw 4620   5.685   4.593   7.061 -0.1118 -0.2153  0.3479
 1156SOL     ow 4621   5.675   4.696   2.962 -0.3455 -1.0896  0.6140
 1156SOL     hw 4622   5.680   4.697   3.057  0.2409 -1.9294  0.6073
 1156SOL     hw 4623   5.656   4.786   2.937  0.6621 -0.6249  1.4647
 1156SOL     vw 4624   5.673   4.708   2.971 -0.1352 -1.1392  0.7254
 1157SOL     ow 4625   1.402   5.420   3.478 -0.0705 -0.1250 -0.4837
 1157SOL     hw 4626   1.430   5.350   3.419  3.3103  0.2228  0.5141
 1157SOL     hw 4627   1.375   5.375   3.558  2.6862 -0.4234  0.3854
 1157SOL     vw 4628   1.402   5.405   3.481  0.7393 -0.1183 -0.2375
 1158SOL     ow 4629   2.619   2.522   2.102 -0.4346 -0.5764 -0.1283
 1158SOL     hw 4630   2.702   2.569   2.100 -0.2208 -0.9714 -1.3740
 1158SOL     hw 4631   2.624   2.469   2.182 -0.2043  0.6260  0.6853
 1158SOL     vw 4632   2.631   2.521   2.113 -0.3760 -0.4698 -0.1854
 1159SOL     ow 4633   4.070   6.473   1.981  0.3799 -0.3306  0.0975
 1159SOL     hw 4634   3.993   6.494   2.035 -0.1751 -1.1937 -0.3277
 1159SOL     hw 4635   4.125   6.551   1.986  0.0340 -0.1460  1.3816
 1159SOL     vw 4636   4.067   6.486   1.989  0.2611 -0.4199  0.2109
 1160SOL     ow 4637   7.389   2.185   4.744  0.4536 -0.1285  0.1652
 1160SOL     hw 4638   7.335   2.228   4.811 -0.4243 -1.9126  0.6616
 1160SOL     hw 4639   7.364   2.229   4.663 -1.3978 -0.5476  0.4632
 1160SOL     vw 4640   7.378   2.197   4.742  0.0937 -0.4193  0.2701
 1161SOL     ow 4641   4.583   5.530   1.516 -0.4496  0.1189 -0.0645
 1161SOL     hw 4642   4.632   5.508   1.437 -0.5918 -0.3327 -0.0286
 1161SOL     hw 4643   4.650   5.560   1.578 -0.2665 -0.1032 -0.1544
 1161SOL     vw 4644   4.598   5.531   1.514 -0.4442  0.0300 -0.0717
 1162SOL     ow 4645   4.620   7.203   6.096 -0.3597 -0.1504  1.8134
 1162SOL     hw 4646   4.591   7.123   6.139  0.6307  0.3120  3.4638
 1162SOL     hw 4647   4.599   7.272   6.159 -1.5385  0.9567  0.2612
 1162SOL     vw 4648   4.614   7.202   6.110 -0.3843  0.0565  1.8263
 1163SOL     ow 4649   5.061   7.161   5.810 -0.0411 -0.8948 -0.3865
 1163SOL     hw 4650   5.126   7.214   5.764 -1.2516  0.7684 -0.2853
 1163SOL     hw 4651   5.100   7.143   5.895  0.3632 -0.0601 -0.3850
 1163SOL     vw 4652   5.075   7.165   5.815 -0.1473 -0.5651 -0.3729
 1164SOL     ow 4653   5.859   5.200   5.231  0.3968  0.0707  0.7866
 1164SOL     hw 4654   5.937   5.180   5.179  1.0246  1.7259  1.0496
 1164SOL     hw 4655   5.861   5.134   5.301  1.5203  0.0457  0.7537
 1164SOL     vw 4656   5.870   5.188   5.234  0.6278  0.2859  0.8168
 1165SOL     ow 4657   3.024   7.562   6.920  0.6638 -0.1192 -0.2509
 1165SOL     hw 4658   3.046   7.565   6.827  2.5639 -1.8830  0.0706
 1165SOL     hw 4659   3.067   7.639   6.958  0.0404  0.4989 -0.7712
 1165SOL     vw 4660   3.033   7.573   6.913  0.8322 -0.2704 -0.2770
 1166SOL     ow 4661   0.580   6.595   0.402  0.0410 -0.1553  0.5336
 1166SOL     hw 4662   0.510   6.586   0.337 -2.6465  1.8219  2.8954
 1166SOL     hw 4663   0.557   6.532   0.470  0.2976  0.7926  1.5235
 1166SOL     vw 4664   0.568   6.585   0.402 -0.2798  0.2308  0.9758
 1167SOL     ow 4665   0.547   6.894   4.065  0.1555  0.1689  0.5839
 1167SOL     hw 4666   0.605   6.964   4.035 -2.3480  0.8951 -3.3354
 1167SOL     hw 4667   0.535   6.838   3.989 -1.4391 -1.9857  2.3004
 1167SOL     vw 4668   0.553   6.896   4.051 -0.3852 -0.0196  0.2933
 1168SOL     ow 4669   6.423   1.767   6.428  0.4478  0.0006 -0.2754
 1168SOL     hw 4670   6.499   1.709   6.419  0.6761  0.2565 -0.0411
 1168SOL     hw 4671   6.417   1.784   6.522  0.3115  0.2575 -0.3295
 1168SOL     vw 4672   6.432   1.762   6.439  0.4599  0.0682 -0.2515
 1169SOL     ow 4673   0.715   0.695   1.554  0.1181 -0.4657 -0.0235
 1169SOL     hw 4674   0.713   0.604   1.524  0.1491 -0.2366 -0.7493
 1169SOL     hw 4675   0.632   0.707   1.600 -1.1632 -0.1250 -2.2603
 1169SOL     vw 4676   0.704   0.685   1.556 -0.0468 -0.3906 -0.4144
 1170SOL     ow 4677   2.616   6.015   1.498 -0.6192 -0.1231 -0.6862
 1170SOL     hw 4678   2.618   5.967   1.416 -1.2291 -1.3505 -0.0161
 1170SOL     hw 4679   2.545   6.078   1.487 -0.0508  0.3973 -1.4425
 1170SOL     vw 4680   2.607   6.017   1.486 -0.6245 -0.2165 -0.6976
 1171SOL     ow 4681   1.822   1.432   3.871  0.0862  0.7805  0.0626
 1171SOL     hw 4682   1.851   1.506   3.817 -0.7669  0.3044 -1.1000
 1171SOL     hw 4683   1.771   1.377   3.811 -0.6508  0.0681  1.2874
 1171SOL     vw 4684   1.819   1.435   3.856 -0.1236  0.6238  0.0707
 1172SOL     ow 4685   6.210   3.521   6.349  0.1936 -0.6923 -0.1043
 1172SOL     hw 4686   6.215   3.611   6.381 -2.7038 -0.6825  0.5702
 1172SOL     hw 4687   6.117   3.506   6.333  0.9124 -2.4876 -3.5100
 1172SOL     vw 4688   6.198   3.531   6.351 -0.0942 -0.9279 -0.4649
 1173SOL     ow 4689   7.000   1.945   7.113 -0.7315  0.1487 -0.2269
 1173SOL     hw 4690   6.949   1.952   7.033  1.1011 -0.0952 -1.4715
 1173SOL     hw 4691   7.090   1.928   7.084  0.2561  1.3786  1.8099
 1173SOL     vw 4692   7.005   1.944   7.099 -0.3595  0.2788 -0.1223
 1174SOL     ow 4693   1.690   2.445   6.015  0.7614 -0.2979  0.5642
 1174SOL     hw 4694   1.741   2.417   6.091  0.6536  0.1863  0.8155
 1174SOL     hw 4695   1.665   2.535   6.034  0.1648 -0.3934  0.2577
 1174SOL     vw 4696   1.693   2.453   6.027  0.6684 -0.2466  0.5569
 1175SOL     ow 4697   7.300   2.471   0.174 -0.6413 -0.3424 -0.5057
 1175SOL     hw 4698   7.390   2.492   0.195 -0.5632 -1.2341  0.1085
 1175SOL     hw 4699   7.272   2.411   0.243 -1.4953 -0.5882 -1.0416
 1175SOL     vw 4700   7.308   2.466   0.186 -0.7439 -0.4926 -0.4953
 1176SOL     ow 4701   0.301   6.295   2.348 -0.6310 -0.5846 -0.0024
 1176SOL     hw 4702   0.363   6.252   2.407 -0.3324 -0.1512 -0.0041
 1176SOL     hw 4703   0.215   6.262   2.376 -0.5601  0.1689  1.1597
 1176SOL     vw 4704   0.298   6.285   2.360 -0.5823 -0.4282  0.1507
 1177SOL     ow 4705   5.449   3.849   2.108 -0.9537 -0.0349  0.5801
 1177SOL     hw 4706   5.477   3.901   2.183 -2.2236  1.7506 -0.1141
 1177SOL     hw 4707   5.375   3.798   2.140 -0.8063 -0.0991  0.8184
 1177SOL     vw 4708   5.443   3.849   2.122 -1.1017  0.1922  0.5199
 1178SOL     ow 4709   5.859   6.657   1.423  0.3375  0.0806  0.9035
 1178SOL     hw 4710   5.910   6.725   1.467 -1.7697  1.3540  1.5531
 1178SOL     hw 4711   5.819   6.607   1.494  1.6188 -1.7396  0.4318
 1178SOL     vw 4712   5.861   6.659   1.438  0.2286  0.0083  0.9269
 1179SOL     ow 4713   6.346   6.418   4.166 -0.3166 -0.1919  0.6938
 1179SOL     hw 4714   6.285   6.372   4.224  2.3904 -1.6434  2.6104
 1179SOL     hw 4715   6.382   6.349   4.110  1.5586  0.0707  1.5123
 1179SOL     vw 4716   6.342   6.403   4.166  0.2880 -0.3488  1.0548
 1180SOL     ow 4717   2.767   0.023   6.947  0.4735  0.7076 -0.0818
 1180SOL     hw 4718   2.747   0.020   6.854  2.6429  0.5533 -0.5940
 1180SOL     hw 4719   2.850  -0.025   6.956  0.6369  1.2466  1.8326
 1180SOL     vw 4720   2.775   0.016   6.936  0.7813  0.7584  0.1030
 1181SOL     ow 4721   3.659   0.581   3.835 -0.5676  0.0444  0.5658
 1181SOL     hw 4722   3.669   0.633   3.915 -1.7493 -0.0216  0.7714
 1181SOL     hw 4723   3.625   0.497   3.865  0.8152 -0.6795  0.1721
 1181SOL     vw 4724   3.655   0.577   3.850 -0.5412 -0.0598  0.5410
 1182SOL     ow 4725   5.827   7.159   4.082  0.3360 -0.0406  0.0003
 1182SOL     hw 4726   5.788   7.101   4.017  0.2822 -0.3842  0.3359
 1182SOL     hw 4727   5.848   7.102   4.156  1.6854  0.0948 -0.2542
 1182SOL     vw 4728   5.824   7.144   4.083  0.5071 -0.0679  0.0107
 1183SOL     ow 4729   3.706   3.363   5.642 -0.1238 -0.5327  0.2565
 1183SOL     hw 4730   3.636   3.413   5.682 -0.7904  0.2867 -1.8465
 1183SOL     hw 4731   3.761   3.336   5.716 -1.7404  0.1723  1.7809
 1183SOL     vw 4732   3.704   3.366   5.657 -0.4249 -0.3315  0.1800
 1184SOL     ow 4733   2.283   1.216   0.876 -0.2429 -0.5498  0.1907
 1184SOL     hw 4734   2.331   1.298   0.889  1.0422 -0.9446 -1.6645
 1184SOL     hw 4735   2.201   1.244   0.834 -0.5119 -0.1019  0.9870
 1184SOL     vw 4736   2.278   1.231   0.872 -0.1088 -0.5428  0.0511
 1185SOL     ow 4737   1.613   7.385   4.654  0.0632  0.1414 -0.5052
 1185SOL     hw 4738   1.565   7.468   4.655  0.6947  0.5195  1.0960
 1185SOL     hw 4739   1.569   7.332   4.720  1.8839  0.5624  1.1464
 1185SOL     vw 4740   1.601   7.389   4.663  0.3868  0.2468 -0.0763
 1186SOL     ow 4741   3.353   3.705   1.680 -0.7781 -0.0214  0.0402
 1186SOL     hw 4742   3.352   3.721   1.775 -2.3790  0.3526 -0.0085
 1186SOL     hw 4743   3.377   3.613   1.672  0.9763  0.3416  0.7096
 1186SOL     vw 4744   3.356   3.695   1.692 -0.7578  0.0758  0.1221
 1187SOL     ow 4745   2.651   3.713   1.805 -0.4572  0.3917  0.6827
 1187SOL     hw 4746   2.723   3.654   1.782  0.6329  0.8044  2.8497
 1187SOL     hw 4747   2.610   3.672   1.881 -4.3835 -1.2912 -2.0027
 1187SOL     vw 4748   2.655   3.700   1.812 -0.8314  0.2244  0.6143
 1188SOL     ow 4749   3.925   2.482   6.024  0.4001 -0.4956  0.5538
 1188SOL     hw 4750   3.932   2.413   6.090 -1.8490 -2.2745 -0.8831
 1188SOL     hw 4751   3.830   2.490   6.009  0.7656  0.9625 -1.3071
 1188SOL     vw 4752   3.913   2.474   6.031  0.1515 -0.5380  0.1187
 1189SOL     ow 4753   0.793   3.183   7.061 -0.1675  0.2552  0.0258
 1189SOL     hw 4754   0.756   3.111   7.011 -0.4006  0.4290 -0.0550
 1189SOL     hw 4755   0.745   3.260   7.030  0.0010  0.4269  0.1917
 1189SOL     vw 4756   0.782   3.184   7.050 -0.1760  0.3009  0.0370
 1190SOL     ow 4757   2.961   0.955   6.491 -0.3308 -0.2614 -0.0024
 1190SOL     hw 4758   2.967   0.919   6.580 -1.0677  0.6280  0.4232
 1190SOL     hw 4759   2.937   1.047   6.504 -0.3773 -0.1053 -1.1233
 1190SOL     vw 4760   2.958   0.962   6.505 -0.4343 -0.1234 -0.0939
 1191SOL     ow 4761   4.009   3.524   0.520  0.4564 -0.0645 -0.1811
 1191SOL     hw 4762   4.041   3.438   0.546  1.9496  0.2942 -0.7581
 1191SOL     hw 4763   3.932   3.504   0.466  1.3100 -1.0894 -1.0690
 1191SOL     vw 4764   4.003   3.510   0.516  0.7663 -0.1525 -0.3744
 1192SOL     ow 4765   5.249   1.716   5.491  0.0343  0.0652  0.2726
 1192SOL     hw 4766   5.194   1.707   5.412 -1.7692  0.5520  1.4146
 1192SOL     hw 4767   5.232   1.804   5.522 -1.1756 -0.8688  2.5064
 1192SOL     vw 4768   5.239   1.726   5.484 -0.3636  0.0063  0.7179
 1193SOL     ow 4769   5.782   6.080   3.261  0.0503  0.1737 -0.2187
 1193SOL     hw 4770   5.792   5.985   3.264  0.1772  0.1753  2.6993
 1193SOL     hw 4771   5.689   6.096   3.278  0.2941  0.5475  0.8773
 1193SOL     vw 4772   5.771   6.070   3.263  0.0992  0.2232  0.3108
 1194SOL     ow 4773   7.398   1.077   0.565  0.3895 -0.1838 -0.1106
 1194SOL     hw 4774   7.472   1.070   0.625 -1.0428 -1.3348  1.6488
 1194SOL     hw 4775   7.321   1.062   0.620 -1.1193  0.2393 -1.9881
 1194SOL     vw 4776   7.398   1.074   0.580  0.0014 -0.2798 -0.1262
 1195SOL     ow 4777   6.273   3.485   4.844  0.3873  0.0536 -0.3515
 1195SOL     hw 4778   6.306   3.507   4.931  0.2861  2.5632 -0.8864
 1195SOL     hw 4779   6.242   3.568   4.808  0.0905 -0.9831 -2.6549
 1195SOL     vw 4780   6.273   3.499   4.851  0.3345  0.2478 -0.7257
 1196SOL     ow 4781   1.251   1.458   4.170 -0.1777  0.1219  0.2595
 1196SOL     hw 4782   1.275   1.415   4.088  1.2367  1.8564 -0.3057
 1196SOL     hw 4783   1.174   1.510   4.148 -1.6526 -1.7138  0.8474
 1196SOL     vw 4784   1.244   1.459   4.156 -0.1857  0.1086  0.2625
 1197SOL     ow 4785   5.512   3.026   1.201  0.0550  0.6768 -0.0802
 1197SOL     hw 4786   5.587   2.968   1.211  0.9651  1.7515 -0.4858
 1197SOL     hw 4787   5.550   3.112   1.185 -1.2651  1.1891 -0.6071
 1197SOL     vw 4788   5.527   3.030   1.200  0.0010  0.8861 -0.2033
 1198SOL     ow 4789   6.517   2.187   7.494  0.0747  0.3350 -0.1989
 1198SOL     hw 4790   6.490   2.218   7.580  1.2908  1.9398 -0.3515
 1198SOL     hw 4791   6.563   2.261   7.455  1.5248 -1.0947 -1.3417
 1198SOL     vw 4792   6.519   2.201   7.500  0.4265  0.3582 -0.3698
 1199SOL     ow 4793   0.135   4.982   2.384 -0.1357 -0.5328  0.2032
 1199SOL     hw 4794   0.115   4.905   2.438 -1.8841  0.1871  0.6648
 1199SOL     hw 4795   0.223   5.008   2.412  0.1354 -1.8407  0.6607
 1199SOL     vw 4796   0.144   4.976   2.395 -0.3306 -0.6101  0.3244
 1200SOL     ow 4797   1.767   1.626   7.320  0.0641  0.1463  0.1966
 1200SOL     hw 4798   1.727   1.559   7.375  0.5236  1.1874  1.8727
 1200SOL     hw 4799   1.833   1.667   7.376 -0.4620  2.2593 -0.6217
 1200SOL     vw 4800   1.770   1.622   7.334  0.0553  0.5625  0.3097
 1201SOL     ow 4801   0.794   2.543   5.801  0.0532 -0.2472  0.1699
 1201SOL     hw 4802   0.805   2.637   5.785  0.1726 -0.2676  0.1349
 1201SOL     hw 4803   0.785   2.505   5.714  1.6838 -0.4885  0.0786
 1201SOL     vw 4804   0.794   2.550   5.788  0.2841 -0.2817  0.1531
 1202SOL     ow 4805   3.657   5.590   7.451 -0.4628  0.3862 -0.4248
 1202SOL     hw 4806   3.677   5.513   7.398  2.8832  1.3339 -0.7706
 1202SOL     hw 4807   3.610   5.555   7.527  0.2894 -1.8720 -0.9147
 1202SOL     vw 4808   3.653   5.575   7.454  0.0781  0.2131 -0.5348
 1203SOL     ow 4809   1.033   2.075   3.793  0.3121  0.3723  0.4514
 1203SOL     hw 4810   1.026   2.145   3.728 -0.7585 -0.0947  0.0311
 1203SOL     hw 4811   0.965   2.012   3.768  0.7048 -0.4187  1.3016
 1203SOL     vw 4812   1.023   2.076   3.781  0.2227  0.2064  0.5081
 1204SOL     ow 4813   4.228   4.571   1.896  0.3524  0.1219  0.1264
 1204SOL     hw 4814   4.319   4.544   1.896  0.8849  1.7891  0.4458
 1204SOL     hw 4815   4.226   4.646   1.837 -0.8401  0.0391  0.0393
 1204SOL     vw 4816   4.240   4.577   1.888  0.2656  0.3309  0.1571
 1205SOL     ow 4817   1.486   6.141   3.726  0.6276 -0.4569  0.6149
 1205SOL     hw 4818   1.396   6.146   3.760 -1.1745 -1.5744 -3.2871
 1205SOL     hw 4819   1.514   6.232   3.719 -0.6995  0.0011  0.8418
 1205SOL     vw 4820   1.478   6.153   3.730  0.2148 -0.5438  0.1299
 1206SOL     ow 4821   1.593   3.155   6.708  0.1336  0.6259 -0.9973
 1206SOL     hw 4822   1.592   3.225   6.773 -0.5675  0.1717 -0.4955
 1206SOL     hw 4823   1.535   3.187   6.638 -0.7791  0.2673 -0.4333
 1206SOL     vw 4824   1.585   3.168   6.707 -0.0793  0.5187 -0.8566
 1207SOL     ow 4825   1.955   6.839   2.646  0.3620  0.7604 -0.0742
 1207SOL     hw 4826   1.875   6.891   2.638 -0.5468 -0.5533  0.1448
 1207SOL     hw 4827   1.924   6.749   2.654  1.8704  0.2352  0.1353
 1207SOL     vw 4828   1.940   6.834   2.646  0.4412  0.5178 -0.0176
 1208SOL     ow 4829   1.997   7.193   4.527  1.0232  0.2560 -0.1039
 1208SOL     hw 4830   2.017   7.256   4.596 -0.7991 -0.8379  1.5046
 1208SOL     hw 4831   1.902   7.196   4.517  1.2116  0.3726 -2.6163
 1208SOL     vw 4832   1.987   7.202   4.535  0.8076  0.1271 -0.2234
 1209SOL     ow 4833   5.373   5.460   1.595  0.2204  0.6197 -0.5423
 1209SOL     hw 4834   5.351   5.551   1.615  1.6091  1.4006 -2.3276
 1209SOL     hw 4835   5.291   5.422   1.561  0.2772  2.0169 -2.3762
 1209SOL     vw 4836   5.359   5.467   1.593  0.4113  0.9074 -1.0198
 1210SOL     ow 4837   4.600   3.256   2.589  0.2833 -0.2872  0.2959
 1210SOL     hw 4838   4.644   3.191   2.534  0.7164  0.9003 -0.7902
 1210SOL     hw 4839   4.608   3.338   2.541 -1.4400  0.3397  0.9875
 1210SOL     vw 4840   4.607   3.258   2.575  0.1130 -0.0478  0.2438
 1211SOL     ow 4841   0.420   2.977   7.017  0.0612 -0.0194  0.8501
 1211SOL     hw 4842   0.355   2.914   6.985 -0.1157  0.2924  0.5962
 1211SOL     hw 4843   0.419   2.967   7.112  0.4213 -0.7878  0.7800
 1211SOL     vw 4844   0.412   2.967   7.025  0.0853 -0.0796  0.8075
 1212SOL     ow 4845   6.077   4.139   6.517  0.3608 -0.6888  0.0814
 1212SOL     hw 4846   6.012   4.192   6.562  0.6370  0.5224 -0.8786
 1212SOL     hw 4847   6.159   4.187   6.529  0.5470 -0.6552 -1.1373
 1212SOL     vw 4848   6.080   4.152   6.525  0.4218 -0.5248 -0.2060
 1213SOL     ow 4849   4.420   3.199   5.008  0.5352  0.2182 -0.5600
 1213SOL     hw 4850   4.347   3.261   5.003 -0.2796 -0.3277  2.4684
 1213SOL     hw 4851   4.498   3.254   5.011 -0.2512  1.5125  4.0798
 1213SOL     vw 4852   4.421   3.214   5.008  0.3240  0.3170  0.4518
 1214SOL     ow 4853   2.184   6.071   5.854 -0.6000  0.3165  0.2646
 1214SOL     hw 4854   2.225   6.007   5.913  0.2908  0.3223 -0.3219
 1214SOL     hw 4855   2.216   6.156   5.886 -0.5624  0.3581  0.1161
 1214SOL     vw 4856   2.194   6.074   5.866 -0.4776  0.3226  0.1676
 1215SOL     ow 4857   4.641   5.613   0.296 -0.0191 -0.1930 -0.2737
 1215SOL     hw 4858   4.642   5.572   0.383 -1.4992  0.7805  0.2467
 1215SOL     hw 4859   4.706   5.683   0.302 -0.7093  0.4168  0.3642
 1215SOL     vw 4860   4.650   5.617   0.308 -0.3052  0.0155 -0.1208
 1216SOL     ow 4861   6.460   0.460   7.248 -0.1095  0.1766  0.1134
 1216SOL     hw 4862   6.550   0.491   7.262  0.2525 -1.1036  0.7659
 1216SOL     hw 4863   6.426   0.443   7.336 -0.4623 -0.7654 -0.1925
 1216SOL     vw 4864   6.467   0.462   7.261 -0.1082 -0.1166  0.1593
 1217SOL     ow 4865   1.590   5.614   3.493 -0.2217  0.3656  0.4988
 1217SOL     hw 4866   1.553   5.702   3.489  0.8827  0.8118 -0.6232
 1217SOL     hw 4867   1.515   5.556   3.479 -0.6479  1.2162 -0.9944
 1217SOL     vw 4868   1.575   5.618   3.491 -0.1322  0.5367  0.1539
 1218SOL     ow 4869   5.684   6.252   0.756 -0.0166 -0.7386  0.3436
 1218SOL     hw 4870   5.640   6.217   0.678 -1.4235 -0.6466  1.0595
 1218SOL     hw 4871   5.773   6.272   0.727 -1.3425  2.3283 -2.1414
 1218SOL     vw 4872   5.690   6.250   0.742 -0.3769 -0.3219  0.1101
 1219SOL     ow 4873   0.148   3.688   7.430  0.1460 -0.1655  0.1167
 1219SOL     hw 4874   0.108   3.657   7.511 -1.5979  1.1495 -0.1826
 1219SOL     hw 4875   0.084   3.669   7.362  1.2677 -0.5719 -0.8698
 1219SOL     vw 4876   0.135   3.681   7.432  0.0639 -0.0457 -0.0527
 1220SOL     ow 4877   0.856   3.765   6.728  0.1845  0.3735  0.1389
 1220SOL     hw 4878   0.769   3.759   6.688 -0.4813  1.8324  1.2587
 1220SOL     hw 4879   0.845   3.731   6.816  1.3528 -1.6639 -0.4437
 1220SOL     vw 4880   0.843   3.760   6.734  0.2508  0.2972  0.2100
 1221SOL     ow 4881   2.628   4.089   6.806 -0.4042 -0.5128 -0.1855
 1221SOL     hw 4882   2.586   4.072   6.722  0.4597 -0.5595 -0.6174
 1221SOL     hw 4883   2.628   4.004   6.850  1.7121 -1.2051 -1.3431
 1221SOL     vw 4884   2.623   4.075   6.801 -0.0110 -0.6104 -0.3953
 1222SOL     ow 4885   3.244   0.483   3.923 -0.9729  0.3504 -0.6137
 1222SOL     hw 4886   3.335   0.468   3.896 -1.0722 -2.7780  0.4123
 1222SOL     hw 4887   3.197   0.495   3.841  0.4270  3.2264 -1.1360
 1222SOL     vw 4888   3.250   0.483   3.909 -0.8013  0.3171 -0.5473
 1223SOL     ow 4889   5.444   6.719   3.391  0.6298 -0.6569 -0.5216
 1223SOL     hw 4890   5.443   6.718   3.295  2.5486 -3.3347 -0.6657
 1223SOL     hw 4891   5.404   6.636   3.416 -0.4276  0.2853  1.0576
 1223SOL     vw 4892   5.439   6.708   3.381  0.7436 -0.8860 -0.3322
 1224SOL     ow 4893   2.126   3.047   3.641 -0.7011  0.0338 -0.3638
 1224SOL     hw 4894   2.133   3.135   3.679 -0.7650 -0.4677  0.8786
 1224SOL     hw 4895   2.214   3.010   3.651 -0.9029 -0.3637 -0.0377
 1224SOL     vw 4896   2.138   3.054   3.648 -0.7360 -0.0848 -0.1569
 1225SOL     ow 4897   6.512   2.012   7.230 -0.0506 -0.3082  0.1857
 1225SOL     hw 4898   6.454   1.946   7.192 -1.2846  2.2585 -2.8446
 1225SOL     hw 4899   6.583   2.020   7.166  0.6381  0.5707  1.0339
 1225SOL     vw 4900   6.514   2.004   7.216 -0.1225  0.1465 -0.1023
 1226SOL     ow 4901   7.513   1.932   4.317 -0.4899 -0.5235  0.0408
 1226SOL     hw 4902   7.520   1.991   4.242 -0.0561 -0.4725  0.1187
 1226SOL     hw 4903   7.441   1.873   4.295 -0.9914  0.1019  0.0089
 1226SOL     vw 4904   7.505   1.932   4.305 -0.4990 -0.4342  0.0467
 1227SOL     ow 4905   1.242   0.661   4.173  0.0498 -0.8197 -0.5609
 1227SOL     hw 4906   1.328   0.703   4.165 -0.2671 -0.2498 -1.0576
 1227SOL     hw 4907   1.198   0.682   4.091 -0.3022 -1.7238 -0.6127
 1227SOL     vw 4908   1.248   0.669   4.161 -0.0384 -0.8639 -0.6332
 1228SOL     ow 4909   1.481   4.344   1.865  0.3442  1.1441 -0.6432
 1228SOL     hw 4910   1.467   4.369   1.956  2.1020 -1.3850  0.4422
 1228SOL     hw 4911   1.447   4.254   1.859  0.4714  1.1676 -2.4183
 1228SOL     vw 4912   1.474   4.335   1.876  0.5928  0.8135 -0.7342
 1229SOL     ow 4913   2.661   6.922   3.875 -0.2712 -0.0690 -0.0494
 1229SOL     hw 4914   2.700   6.859   3.936  0.3837  2.1314  2.0010
 1229SOL     hw 4915   2.727   6.934   3.807 -0.6635 -1.9742 -0.8220
 1229SOL     vw 4916   2.675   6.915   3.874 -0.2366 -0.0300  0.1192
 1230SOL     ow 4917   5.699   1.911   6.029  0.4022 -0.3740  0.1185
 1230SOL     hw 4918   5.734   1.889   5.943 -1.0168 -1.0757 -0.2974
 1230SOL     hw 4919   5.673   2.003   6.022  2.0250  0.1387  0.4123
 1230SOL     vw 4920   5.700   1.920   6.017  0.4289 -0.3989  0.1025
 1231SOL     ow 4921   3.281   0.776   5.388 -0.0897 -0.0561 -0.2685
 1231SOL     hw 4922   3.363   0.791   5.435 -1.2141  1.8238  1.2404
 1231SOL     hw 4923   3.293   0.822   5.305  0.4063  0.1381 -0.0932
 1231SOL     vw 4924   3.293   0.784   5.383 -0.1725  0.2175 -0.0463
 1232SOL     ow 4925   6.237   5.488   0.295  0.1572  0.2697 -0.0962
 1232SOL     hw 4926   6.214   5.533   0.213  2.1450  1.9057  0.1618
 1232SOL     hw 4927   6.293   5.416   0.269 -1.7608 -1.2003 -0.3762
 1232SOL     vw 4928   6.241   5.485   0.281  0.1662  0.2913 -0.0992
 1233SOL     ow 4929   1.701   4.821   0.325  0.5391 -0.4631  0.1788
 1233SOL     hw 4930   1.730   4.797   0.413  0.1510 -0.0506  0.4177
 1233SOL     hw 4931   1.607   4.838   0.334  1.0214  2.7707  0.3977
 1233SOL     vw 4932   1.693   4.820   0.338  0.5515  0.0181  0.2392
 1234SOL     ow 4933   4.304   5.570   7.308 -0.4958 -0.6060 -0.3104
 1234SOL     hw 4934   4.223   5.534   7.271 -0.9181 -0.2143  0.2154
 1234SOL     hw 4935   4.328   5.642   7.249 -0.3706 -0.9006 -0.6236
 1234SOL     vw 4936   4.297   5.575   7.296 -0.5348 -0.5929 -0.2823
 1235SOL     ow 4937   0.345   5.511   5.298 -0.4853  0.0247  0.4927
 1235SOL     hw 4938   0.434   5.481   5.314 -1.8598 -3.5721  2.5641
 1235SOL     hw 4939   0.300   5.435   5.261 -3.7008  0.0564  3.7005
 1235SOL     vw 4940   0.351   5.497   5.295 -1.0909 -0.4454  1.1890
 1236SOL     ow 4941   1.094   0.684   3.936  0.1852 -0.1396 -0.4961
 1236SOL     hw 4942   1.095   0.598   3.894 -0.1325 -1.3088  1.7352
 1236SOL     hw 4943   1.002   0.710   3.935  0.3876  0.6148 -1.9277
 1236SOL     vw 4944   1.082   0.676   3.930  0.1699 -0.1943 -0.3906
 1237SOL     ow 4945   1.496   1.630   1.844  0.0490  0.4771 -0.6084
 1237SOL     hw 4946   1.419   1.645   1.790 -1.0190  0.3861  0.8384
 1237SOL     hw 4947   1.465   1.574   1.915  1.7662 -0.7101 -0.7232
 1237SOL     vw 4948   1.482   1.624   1.846  0.1347  0.3085 -0.4326
 1238SOL     ow 4949   5.959   6.034   1.167 -0.4337 -0.2667 -0.3567
 1238SOL     hw 4950   6.047   6.026   1.130  0.7545  1.9741  1.7310
 1238SOL     hw 4951   5.957   5.967   1.236  0.8453  1.6029  1.6042
 1238SOL     vw 4952   5.971   6.024   1.171 -0.1085  0.2756  0.1774
 1239SOL     ow 4953   4.915   6.980   0.963  0.3876  0.4373  0.0622
 1239SOL     hw 4954   4.916   6.963   0.869 -0.2937 -0.4303  0.2047
 1239SOL     hw 4955   4.905   7.075   0.970  0.1310  0.4747 -0.7365
 1239SOL     vw 4956   4.914   6.990   0.951  0.2639  0.3276 -0.0243
 1240SOL     ow 4957   2.315   6.907   6.931 -0.8414  0.0693 -0.3007
 1240SOL     hw 4958   2.292   6.998   6.951  2.0259  0.3903  2.2289
 1240SOL     hw 4959   2.358   6.911   6.846 -0.3292  1.1696 -0.0017
 1240SOL     vw 4960   2.317   6.920   6.922 -0.3955  0.2568  0.0727
 1241SOL     ow 4961   4.977   3.461   1.562 -0.9645 -0.0321  0.8532
 1241SOL     hw 4962   4.917   3.494   1.628 -3.2780 -0.9974 -0.6189
 1241SOL     hw 4963   4.921   3.440   1.487  1.2727 -0.7476 -0.7353
 1241SOL     vw 4964   4.962   3.462   1.561 -0.9747 -0.2538  0.4494
 1242SOL     ow 4965   3.608   2.078   2.653 -0.5584  0.6822 -0.2758
 1242SOL     hw 4966   3.568   2.147   2.600  0.7637 -0.5606 -3.0963
 1242SOL     hw 4967   3.536   2.019   2.673 -1.1094  1.2255 -0.6106
 1242SOL     vw 4968   3.593   2.079   2.649 -0.4566  0.5900 -0.6922
 1243SOL     ow 4969   6.830   1.616   2.948  0.9592 -0.5276 -0.7756
 1243SOL     hw 4970   6.902   1.653   2.999  1.0620 -2.2014  0.3868
 1243SOL     hw 4971   6.839   1.657   2.862  2.8635 -0.1397 -0.4522
 1243SOL     vw 4972   6.841   1.626   2.943  1.2238 -0.6972 -0.5797
 1244SOL     ow 4973   4.180   0.933   3.165 -0.5039  0.1842  0.1438
 1244SOL     hw 4974   4.153   0.849   3.127 -2.5712  0.4364  0.8956
 1244SOL     hw 4975   4.117   0.996   3.131 -0.8592  0.8670  1.9172
 1244SOL     vw 4976   4.168   0.930   3.156 -0.8235  0.3076  0.4771
 1245SOL     ow 4977   5.733   2.358   6.338 -0.7478 -0.2787  0.3486
 1245SOL     hw 4978   5.797   2.403   6.393 -4.4374  0.7328  4.4063
 1245SOL     hw 4979   5.699   2.426   6.279 -1.5481  0.5579  1.7304
 1245SOL     vw 4980   5.737   2.373   6.337 -1.3397 -0.0349  1.0662
 1246SOL     ow 4981   5.134   5.286   4.729  0.8360  0.1797 -0.7562
 1246SOL     hw 4982   5.041   5.312   4.730  0.0987 -2.1305  0.8913
 1246SOL     hw 4983   5.143   5.233   4.650  0.6027 -0.0607 -0.6228
 1246SOL     vw 4984   5.123   5.283   4.719  0.7079 -0.1569 -0.5209
 1247SOL     ow 4985   5.336   1.183   5.874 -0.6433 -0.1145 -0.6640
 1247SOL     hw 4986   5.307   1.114   5.815 -1.4099  1.9066 -2.8308
 1247SOL     hw 4987   5.426   1.200   5.849  0.5166 -2.0603  1.7396
 1247SOL     vw 4988   5.344   1.176   5.863 -0.5913 -0.1046 -0.6328
 1248SOL     ow 4989   4.203   1.360   5.786  0.1456  0.0967 -0.8320
 1248SOL     hw 4990   4.290   1.397   5.768 -0.9037  2.6018 -1.0686
 1248SOL     hw 4991   4.176   1.322   5.702  0.2105  1.0893 -1.3135
 1248SOL     vw 4992   4.211   1.360   5.772  0.0155  0.5583 -0.9267
 1249SOL     ow 4993   7.585   1.068   1.511 -0.1088 -0.3346  0.0714
 1249SOL     hw 4994   7.520   1.113   1.565  0.4079 -0.4379  0.7978
 1249SOL     hw 4995   7.541   1.052   1.428 -0.0591  2.2641 -0.5400
 1249SOL     vw 4996   7.571   1.072   1.507 -0.0341 -0.0054  0.0865
 1250SOL     ow 4997   4.745   1.331   6.727  0.1281  0.3245  0.1410
 1250SOL     hw 4998   4.729   1.425   6.718 -0.8586  0.0669 -1.0374
 1250SOL     hw 4999   4.666   1.290   6.692  0.6320 -0.9542  0.4506
 1250SOL     vw 5000   4.732   1.338   6.721  0.0644  0.1219  0.0265
 1251SOL     ow 5001   3.236   0.339   4.141 -0.3199  0.3605 -0.1659
 1251SOL     hw 5002   3.202   0.413   4.191 -0.2092  0.1566  0.2170
 1251SOL     hw 5003   3.231   0.367   4.050  2.4771  2.0460  0.0832
 1251SOL     vw 5004   3.231   0.353   4.135  0.0638  0.5560 -0.0825
 1252SOL     ow 5005   4.466   6.259   0.126  0.1067  0.0257  0.0286
 1252SOL     hw 5006   4.545   6.310   0.106  0.7304  0.2311  2.7049
 1252SOL     hw 5007   4.446   6.280   0.217 -3.3414  0.3011 -0.6657
 1252SOL     vw 5008   4.474   6.269   0.135 -0.2661  0.0894  0.2901
 1253SOL     ow 5009   4.025   4.314   1.235  0.5733  0.4451  0.7147
 1253SOL     hw 5010   3.949   4.308   1.177  1.5025  0.4895 -0.5542
 1253SOL     hw 5011   4.084   4.375   1.190  1.6204 -0.0712  1.3579
 1253SOL     vw 5012   4.023   4.321   1.221  0.8340  0.3829  0.6321
 1254SOL     ow 5013   0.948   0.734   5.699 -0.3950  0.0455  0.0941
 1254SOL     hw 5014   0.937   0.699   5.610  2.0608 -0.1466 -0.2032
 1254SOL     hw 5015   0.895   0.676   5.754  2.7847 -3.8173 -0.4873
 1254SOL     vw 5016   0.939   0.722   5.694  0.3485 -0.4895 -0.0217
 1255SOL     ow 5017   2.000   0.684   6.851  0.8795  0.1252 -0.2556
 1255SOL     hw 5018   1.956   0.768   6.866 -0.9476 -0.8213 -0.1175
 1255SOL     hw 5019   1.946   0.640   6.785  2.0440 -0.8037 -0.6231
 1255SOL     vw 5020   1.987   0.689   6.844  0.7921 -0.1222 -0.2861
 1256SOL     ow 5021   4.199   4.548   6.464  0.0190 -0.5747 -0.3659
 1256SOL     hw 5022   4.182   4.541   6.558 -0.4070  1.6157 -0.2305
 1256SOL     hw 5023   4.204   4.457   6.434 -2.8979 -1.4092  1.2346
 1256SOL     vw 5024   4.198   4.535   6.473 -0.4218 -0.3958 -0.1369
 1257SOL     ow 5025   7.490   0.968   7.174 -0.0956 -0.7402 -0.0269
 1257SOL     hw 5026   7.395   0.967   7.162 -0.1844  0.6491  0.4008
 1257SOL     hw 5027   7.525   1.005   7.093 -0.0809  0.4920  0.5104
 1257SOL     vw 5028   7.482   0.973   7.162 -0.1054 -0.3943  0.1004
 1258SOL     ow 5029   1.194   6.124   3.758 -0.1659  0.6121 -0.1419
 1258SOL     hw 5030   1.125   6.146   3.697  0.4305 -0.5963 -1.3027
 1258SOL     hw 5031   1.155   6.137   3.845 -0.6904  3.4217 -0.6847
 1258SOL     vw 5032   1.180   6.129   3.762 -0.1564  0.8235 -0.3666
 1259SOL     ow 5033   5.659   4.589   5.838  0.1234 -0.0204 -0.1639
 1259SOL     hw 5034   5.678   4.638   5.918 -0.7419  2.4930 -1.3902
 1259SOL     hw 5035   5.685   4.648   5.767 -3.1779 -0.2850 -1.7878
 1259SOL     vw 5036   5.665   4.603   5.839 -0.4265  0.2766 -0.5398
 1260SOL     ow 5037   4.734   7.200   5.564  0.5725  0.0008  0.0657
 1260SOL     hw 5038   4.709   7.146   5.490  3.8200  1.0575 -2.0232
 1260SOL     hw 5039   4.719   7.290   5.535  0.8133  0.4099  1.1502
 1260SOL     vw 5040   4.729   7.205   5.551  1.0326  0.1941 -0.0668
 1261SOL     ow 5041   0.848   6.821   4.927  0.4702 -0.4178 -0.5921
 1261SOL     hw 5042   0.911   6.867   4.983 -0.0679 -2.1773  1.6166
 1261SOL     hw 5043   0.767   6.871   4.935  0.6078 -0.2134 -0.4625
 1261SOL     vw 5044   0.846   6.834   4.936  0.4174 -0.6230 -0.2837
 1262SOL     ow 5045   4.013   0.900   5.922  1.0046  0.0744  0.0175
 1262SOL     hw 5046   3.973   0.986   5.907  1.4005  0.3543  0.5090
 1262SOL     hw 5047   4.072   0.914   5.996  0.4035 -0.8338  0.6927
 1262SOL     vw 5048   4.016   0.913   5.930  0.9775 -0.0085  0.1717
 1263SOL     ow 5049   2.128   7.311   4.024  0.2898 -0.2888  0.0590
 1263SOL     hw 5050   2.217   7.347   4.018  0.6309 -1.1649 -0.2833
 1263SOL     hw 5051   2.118   7.261   3.944 -0.1129 -1.0883  0.6038
 1263SOL     vw 5052   2.139   7.309   4.013  0.2817 -0.5100  0.0861
 1264SOL     ow 5053   0.784   2.371   0.359  0.0199 -0.0111  0.2689
 1264SOL     hw 5054   0.770   2.309   0.431  2.4158  0.7579  1.5218
 1264SOL     hw 5055   0.850   2.431   0.392  0.9373  0.6247 -2.4581
 1264SOL     vw 5056   0.791   2.371   0.373  0.4571  0.1743  0.0744
 1265SOL     ow 5057   1.202   4.143   4.500  0.5186 -0.5964 -0.2562
 1265SOL     hw 5058   1.154   4.197   4.437 -0.1250 -1.9313 -0.9554
 1265SOL     hw 5059   1.274   4.106   4.449  1.5757  0.3807  0.4748
 1265SOL     vw 5060   1.206   4.146   4.485  0.5732 -0.6437 -0.2520
 1266SOL     ow 5061   3.188   1.996   6.812 -0.3424  0.2082 -0.3732
 1266SOL     hw 5062   3.278   2.027   6.803  0.4781 -1.4992  1.3458
 1266SOL     hw 5063   3.195   1.901   6.816 -2.6068 -0.2667 -3.6660
 1266SOL     vw 5064   3.201   1.988   6.812 -0.5329 -0.0798 -0.5808
 1267SOL     ow 5065   3.341   5.645   1.711  0.4321  0.2938 -0.2476
 1267SOL     hw 5066   3.307   5.557   1.728  0.2833  0.5702  0.9548
 1267SOL     hw 5067   3.276   5.686   1.654 -1.2592  0.7664  1.9014
 1267SOL     vw 5068   3.328   5.639   1.705  0.1894  0.3924  0.1946
 1268SOL     ow 5069   6.911   4.144   6.886 -0.6439  0.2049 -0.6398
 1268SOL     hw 5070   6.922   4.054   6.857 -0.2005  0.0853 -0.1252
 1268SOL     hw 5071   6.949   4.197   6.817 -0.1302 -0.0464 -0.5571
 1268SOL     vw 5072   6.917   4.139   6.873 -0.5174  0.1562 -0.5610
 1269SOL     ow 5073   5.804   0.493   0.663 -0.7776 -0.1243 -0.6174
 1269SOL     hw 5074   5.728   0.543   0.636  0.4218  1.4044 -1.3488
 1269SOL     hw 5075   5.855   0.482   0.582  0.4278  0.0905  0.0810
 1269SOL     vw 5076   5.801   0.498   0.649 -0.4604  0.1057 -0.6218
 1270SOL     ow 5077   5.764   6.641   4.034  0.4258 -0.7683  0.3129
 1270SOL     hw 5078   5.696   6.574   4.024  0.7449 -1.4951  2.4891
 1270SOL     hw 5079   5.843   6.592   4.059  0.7489  0.3625  1.6249
 1270SOL     vw 5080   5.765   6.626   4.036  0.5102 -0.7150  0.7732
 1271SOL     ow 5081   6.650   0.908   6.291 -0.6009  0.8490  0.1219
 1271SOL     hw 5082   6.742   0.909   6.265 -0.4571 -0.2734  0.5488
 1271SOL     hw 5083   6.648   0.867   6.377 -1.6240 -0.3499 -0.4390
 1271SOL     vw 5084   6.662   0.903   6.299 -0.7167  0.5427  0.1044
 1272SOL     ow 5085   0.485   7.183   2.716  0.3332  0.0526 -0.6422
 1272SOL     hw 5086   0.579   7.163   2.718  0.5758  0.9624 -1.9963
 1272SOL     hw 5087   0.444   7.102   2.685  0.7916  0.0484 -1.2447
 1272SOL     vw 5088   0.492   7.169   2.712  0.4257  0.1719 -0.9005
 1273SOL     ow 5089   3.826   1.406   0.150 -0.0350 -0.8304  0.1712
 1273SOL     hw 5090   3.822   1.364   0.064 -0.3389 -0.6604  0.1011
 1273SOL     hw 5091   3.913   1.383   0.184  0.5192  0.0207 -0.6405
 1273SOL     vw 5092   3.837   1.397   0.143 -0.0021 -0.6956  0.0548
 1274SOL     ow 5093   0.800   1.181   6.254 -0.7178 -0.4151 -0.2362
 1274SOL     hw 5094   0.721   1.234   6.256  0.8021  2.1534 -2.2676
 1274SOL     hw 5095   0.791   1.127   6.176 -0.8427 -0.7459  0.0077
 1274SOL     vw 5096   0.789   1.181   6.244 -0.5337 -0.1199 -0.4718
 1275SOL     ow 5097   0.212   5.620   5.517 -0.0371 -1.0661 -0.7277
 1275SOL     hw 5098   0.157   5.543   5.524  2.4240 -2.9170 -0.3473
 1275SOL     hw 5099   0.261   5.623   5.600  0.4989  0.4318 -1.0540
 1275SOL     vw 5100   0.211   5.610   5.529  0.3583 -1.1129 -0.7203
 1276SOL     ow 5101   0.584   6.787   7.183 -0.4640 -0.1569 -0.4559
 1276SOL     hw 5102   0.580   6.701   7.139 -2.2696 -0.5359  0.3604
 1276SOL     hw 5103   0.558   6.769   7.273 -0.9777  1.2700 -0.2930
 1276SOL     vw 5104   0.580   6.773   7.189 -0.7700 -0.0184 -0.3266
 1277SOL     ow 5105   3.709   6.853   5.235  0.5272  0.0952 -0.2786
 1277SOL     hw 5106   3.753   6.914   5.176 -0.4527  0.8458 -0.2609
 1277SOL     hw 5107   3.753   6.866   5.319  1.4997 -0.5216 -0.6683
 1277SOL     vw 5108   3.721   6.863   5.239  0.5262  0.1130 -0.3276
 1278SOL     ow 5109   1.183   7.534   0.405 -0.3282  0.3947 -0.4928
 1278SOL     hw 5110   1.275   7.513   0.389 -0.5605 -0.6429 -0.5114
 1278SOL     hw 5111   1.148   7.458   0.452 -0.7316  1.5339  1.1642
 1278SOL     vw 5112   1.190   7.521   0.409 -0.4120  0.4084 -0.2767
 1279SOL     ow 5113   1.281   2.680   1.750  0.6275 -0.6269  0.4055
 1279SOL     hw 5114   1.189   2.697   1.726  0.7267 -2.4405 -1.6078
 1279SOL     hw 5115   1.329   2.755   1.717  0.1939 -1.0901 -1.3921
 1279SOL     vw 5116   1.275   2.692   1.742  0.5834 -0.9273 -0.0973
 1280SOL     ow 5117   3.130   0.529   5.190  0.5719  0.6179 -0.0229
 1280SOL     hw 5118   3.202   0.493   5.137  1.0276 -0.2021  1.1238
 1280SOL     hw 5119   3.058   0.468   5.177  0.6681  0.4438  0.2652
 1280SOL     vw 5120   3.130   0.516   5.181  0.6448  0.4867  0.1662
 1281SOL     ow 5121   3.929   3.250   5.373  0.1113 -0.2442  0.9125
 1281SOL     hw 5122   3.939   3.320   5.309 -0.3996  2.0409  3.1718
 1281SOL     hw 5123   3.988   3.181   5.343  0.9541  1.3039 -1.2062
 1281SOL     vw 5124   3.938   3.250   5.361  0.1551  0.2615  0.9310
 1282SOL     ow 5125   6.807   0.180   2.319  0.6214 -0.0563  0.4682
 1282SOL     hw 5126   6.749   0.192   2.244 -0.4483 -0.4998  1.1937
 1282SOL     hw 5127   6.750   0.189   2.395  1.5607 -0.2540  1.2154
 1282SOL     vw 5128   6.792   0.183   2.319  0.6044 -0.1409  0.6626
 1283SOL     ow 5129   1.011   1.096   5.922  0.1135 -0.7932  0.3673
 1283SOL     hw 5130   0.946   1.148   5.875  0.9312  2.2741  2.3570
 1283SOL     hw 5131   0.960   1.028   5.966 -1.1271 -1.2314 -1.6000
 1283SOL     vw 5132   0.996   1.094   5.921  0.0577 -0.4463  0.3703
 1284SOL     ow 5133   6.599   2.948   0.643 -0.3772  0.0043  0.0656
 1284SOL     hw 5134   6.536   2.877   0.632 -3.7973  2.5503  1.1170
 1284SOL     hw 5135   6.622   2.945   0.736 -0.0206 -0.1194 -0.0274
 1284SOL     vw 5136   6.593   2.938   0.654 -0.7811  0.3239  0.1921
 1285SOL     ow 5137   2.523   0.090   0.157  0.2782  0.4583  0.1913
 1285SOL     hw 5138   2.431   0.100   0.180  0.4179  3.0432 -0.1147
 1285SOL     hw 5139   2.524   0.093   0.062  0.7789  1.9373  0.2230
 1285SOL     vw 5140   2.511   0.092   0.148  0.3628  0.9945  0.1551
 1286SOL     ow 5141   0.987   4.357   3.633 -0.1017 -0.1505  0.1837
 1286SOL     hw 5142   0.996   4.439   3.682  1.6018 -1.9695  3.1740
 1286SOL     hw 5143   1.011   4.381   3.543  2.7974  2.2291  1.4052
 1286SOL     vw 5144   0.991   4.371   3.628  0.5056 -0.0763  0.7392
 1287SOL     ow 5145   5.848   0.634   2.521 -0.3696 -0.3160 -1.1808
 1287SOL     hw 5146   5.836   0.729   2.509 -0.6264 -0.0898  0.5833
 1287SOL     hw 5147   5.934   0.616   2.484  0.6767  1.0556  0.4206
 1287SOL     vw 5148   5.858   0.644   2.515 -0.2654 -0.1052 -0.7366
 1288SOL     ow 5149   5.814   0.809   7.262  0.0495  0.4461 -0.4246
 1288SOL     hw 5150   5.742   0.870   7.246 -0.0292  0.8647  1.2968
 1288SOL     hw 5151   5.855   0.842   7.342  0.2455 -1.5255  0.3454
 1288SOL     vw 5152   5.810   0.822   7.271  0.0651  0.2412 -0.0961
 1289SOL     ow 5153   4.112   3.919   0.172  0.0211 -0.1807  0.1355
 1289SOL     hw 5154   4.109   3.901   0.079  0.4358 -0.5325  0.1866
 1289SOL     hw 5155   4.135   3.834   0.212 -2.1679 -0.5476  0.7261
 1289SOL     vw 5156   4.115   3.905   0.165 -0.2127 -0.2755  0.2202
 1290SOL     ow 5157   2.084   4.819   1.686  0.7724  0.6902 -0.0969
 1290SOL     hw 5158   1.989   4.822   1.698  1.0327  1.0614  2.7168
 1290SOL     hw 5159   2.105   4.726   1.679  0.1560  0.6458 -1.7005
 1290SOL     vw 5160   2.074   4.807   1.687  0.7254  0.7334  0.0627
 1291SOL     ow 5161   4.848   5.774   0.585  0.7345 -0.8221 -0.1101
 1291SOL     hw 5162   4.829   5.790   0.492  0.1145  0.9559  0.2880
 1291SOL     hw 5163   4.943   5.786   0.592  0.4010  2.7144  0.0657
 1291SOL     vw 5164   4.858   5.778   0.573  0.6089 -0.1211 -0.0344
 1292SOL     ow 5165   1.104   0.435   3.810 -1.0059 -0.4090  0.1211
 1292SOL     hw 5166   1.183   0.424   3.757 -2.0635 -1.4190 -1.3130
 1292SOL     hw 5167   1.033   0.443   3.747 -1.9900  1.3305  1.3573
 1292SOL     vw 5168   1.105   0.435   3.795 -1.2753 -0.3128  0.0950
 1293SOL     ow 5169   5.911   2.376   0.257 -0.1924  0.2518  0.6288
 1293SOL     hw 5170   5.969   2.335   0.320  1.9118  1.2038 -0.5790
 1293SOL     hw 5171   5.875   2.452   0.303  0.7724  0.5455  0.9244
 1293SOL     vw 5172   5.914   2.380   0.271  0.2127  0.4162  0.5085
 1294SOL     ow 5173   1.308   6.790   6.445  0.1295 -0.1393 -0.0351
 1294SOL     hw 5174   1.259   6.835   6.376 -0.3788 -1.1347 -0.3487
 1294SOL     hw 5175   1.255   6.804   6.524 -0.3963 -0.7477 -0.2662
 1294SOL     vw 5176   1.294   6.798   6.446 -0.0069 -0.3507 -0.1068
 1295SOL     ow 5177   5.287   1.157   7.348 -0.0428 -1.0428 -0.5783
 1295SOL     hw 5178   5.335   1.127   7.424 -1.5254 -2.5994 -0.1786
 1295SOL     hw 5179   5.246   1.078   7.312  0.6757 -0.3894 -3.0610
 1295SOL     vw 5180   5.288   1.143   7.353 -0.1433 -1.1619 -0.8528
 1296SOL     ow 5181   0.509   1.088   2.071 -0.1327  0.5656 -0.3381
 1296SOL     hw 5182   0.414   1.078   2.068 -0.1735  1.1346 -1.7732
 1296SOL     hw 5183   0.528   1.154   2.004  1.3338 -0.0582 -0.5704
 1296SOL     vw 5184   0.499   1.096   2.062  0.0554  0.5584 -0.5581
 1297SOL     ow 5185   5.950   7.609   1.546 -0.0528 -0.1531  0.2200
 1297SOL     hw 5186   5.973   7.516   1.538 -0.7701 -0.2462 -1.0993
 1297SOL     hw 5187   5.976   7.647   1.462 -2.3428  0.2215 -0.4006
 1297SOL     vw 5188   5.957   7.602   1.533 -0.4494 -0.1159 -0.0360
 1298SOL     ow 5189   7.599   4.867   1.672 -0.0643 -0.1090  0.1083
 1298SOL     hw 5190   7.518   4.817   1.661 -0.7022  0.4920  1.7833
 1298SOL     hw 5191   7.623   4.893   1.583 -2.0366  0.2129 -0.3778
 1298SOL     vw 5192   7.591   4.864   1.659 -0.4086  0.0129  0.2651
 1299SOL     ow 5193   2.918   6.534   2.912  0.0423 -0.4137  0.0531
 1299SOL     hw 5194   3.010   6.559   2.907 -0.2601  0.7049 -0.4517
 1299SOL     hw 5195   2.915   6.462   2.974  1.0924  0.3632  1.0430
 1299SOL     vw 5196   2.930   6.528   2.919  0.1409 -0.1638  0.1172
 1300SOL     ow 5197   2.912   7.424   3.365  0.0664 -0.2858  0.7652
 1300SOL     hw 5198   2.896   7.511   3.403 -0.1383  0.2208 -0.4431
 1300SOL     hw 5199   2.864   7.364   3.423  0.0998  0.4164  1.5399
 1300SOL     vw 5200   2.903   7.428   3.378  0.0439 -0.1259  0.7080
 1301SOL     ow 5201   5.191   4.098   7.329  0.0550  0.1195  0.2520
 1301SOL     hw 5202   5.196   4.110   7.234  1.4697  0.9769  0.4007
 1301SOL     hw 5203   5.127   4.028   7.341 -0.1799  0.0229 -1.3290
 1301SOL     vw 5204   5.183   4.091   7.318  0.2105  0.2201  0.0632
 1302SOL     ow 5205   2.537   5.025   1.817 -0.2578 -0.1855  0.6014
 1302SOL     hw 5206   2.586   5.063   1.889  0.7806  1.2207 -0.7697
 1302SOL     hw 5207   2.604   4.997   1.754 -1.1124 -1.6111  0.2706
 1302SOL     vw 5208   2.552   5.026   1.818 -0.2335 -0.1879  0.3769
 1303SOL     ow 5209   0.122   2.094   3.411  0.2126 -0.3025  0.6768
 1303SOL     hw 5210   0.119   2.077   3.317 -2.1592 -0.5921  0.7449
 1303SOL     hw 5211   0.152   2.185   3.417  0.2350 -0.2223 -0.3715
 1303SOL     vw 5212   0.125   2.104   3.399 -0.0974 -0.3303  0.5476
 1304SOL     ow 5213   0.671   0.853   1.305  0.1303 -0.4019 -0.0869
 1304SOL     hw 5214   0.604   0.921   1.300  1.3035  0.8863  1.1715
 1304SOL     hw 5215   0.751   0.899   1.330  0.8777 -2.2951  1.1945
 1304SOL     vw 5216   0.672   0.868   1.307  0.3837 -0.4818  0.2482
 1305SOL     ow 5217   6.889   0.316   6.122 -0.0363  0.0820 -0.2481
 1305SOL     hw 5218   6.852   0.319   6.034 -2.6992 -3.1731  0.5086
 1305SOL     hw 5219   6.882   0.406   6.154  2.4628  1.7418 -3.6939
 1305SOL     vw 5220   6.883   0.328   6.115 -0.0579 -0.1284 -0.6027
 1306SOL     ow 5221   0.555   4.939   0.890 -0.1430 -0.3398 -0.1908
 1306SOL     hw 5222   0.526   4.873   0.826  2.7880 -2.5378  0.5124
 1306SOL     hw 5223   0.562   4.891   0.972  0.7385  1.2195  0.6945
 1306SOL     vw 5224   0.552   4.924   0.892  0.3600 -0.4239  0.0188
 1307SOL     ow 5225   5.702   3.216   7.606  0.1535 -0.3975  0.5429
 1307SOL     hw 5226   5.719   3.217   7.701  1.5914 -1.1290  0.3201
 1307SOL     hw 5227   5.773   3.270   7.570 -1.8914  2.1528  0.0537
 1307SOL     vw 5228   5.714   3.223   7.614  0.0734 -0.1576  0.4489
 1308SOL     ow 5229   6.341   6.996   4.856 -0.1064  0.3434 -0.3333
 1308SOL     hw 5230   6.310   7.087   4.858  0.4615  0.6005 -1.7523
 1308SOL     hw 5231   6.354   6.977   4.763  2.2200 -0.3346  0.0681
 1308SOL     vw 5232   6.339   7.006   4.844  0.2759  0.2878 -0.4675
 1309SOL     ow 5233   6.298   3.686   5.139  0.2428  0.4230 -0.2802
 1309SOL     hw 5234   6.224   3.706   5.196  0.8895  1.5893  0.1956
 1309SOL     hw 5235   6.334   3.604   5.173  0.7156  1.1834  1.1250
 1309SOL     vw 5236   6.293   3.678   5.151  0.3903  0.6771 -0.0319
 1310SOL     ow 5237   0.876   4.734   1.087 -0.1737  0.0465 -0.6800
 1310SOL     hw 5238   0.877   4.694   1.000  1.6503 -1.9043  0.1336
 1310SOL     hw 5239   0.965   4.722   1.120 -0.6075  1.4164  1.1842
 1310SOL     vw 5240   0.888   4.727   1.080  0.0097 -0.0303 -0.3268
 1311SOL     ow 5241   3.807   1.744   5.285 -0.2349 -0.2959 -0.0830
 1311SOL     hw 5242   3.820   1.829   5.327 -0.3328  1.6583 -3.5807
 1311SOL     hw 5243   3.888   1.696   5.302 -0.1506  0.4726  1.9266
 1311SOL     vw 5244   3.819   1.749   5.293 -0.2367  0.0634 -0.2792
 1312SOL     ow 5245   3.597   0.326   0.001 -0.7535  0.9202 -0.0924
 1312SOL     hw 5246   3.616   0.279  -0.081  1.8238  0.2098  0.7952
 1312SOL     hw 5247   3.652   0.282   0.066 -0.5350  3.2636  1.4175
 1312SOL     vw 5248   3.607   0.314  -0.001 -0.3847  1.1357  0.2239
 1313SOL     ow 5249   6.617   2.104   0.716  0.3880  0.2357 -0.2824
 1313SOL     hw 5250   6.584   2.032   0.768  1.7597 -1.2356 -1.3466
 1313SOL     hw 5251   6.557   2.109   0.641  0.1841  0.3302 -0.1134
 1313SOL     vw 5252   6.605   2.095   0.713  0.5419  0.0540 -0.4005
 1314SOL     ow 5253   1.744   3.813   3.936  0.1199  0.5983 -0.4331
 1314SOL     hw 5254   1.818   3.857   3.978 -0.2761 -1.1607  2.3899
 1314SOL     hw 5255   1.783   3.764   3.863  1.4522  1.1163 -0.0978
 1314SOL     vw 5256   1.759   3.812   3.932  0.2435  0.4345 -0.0163
 1315SOL     ow 5257   5.544   0.466   7.329  0.8083  0.2188 -0.3665
 1315SOL     hw 5258   5.533   0.371   7.327 -1.9300  0.4101  1.2257
 1315SOL     hw 5259   5.510   0.495   7.244  1.9688 -0.1997 -0.9987
 1315SOL     vw 5260   5.538   0.457   7.317  0.5999  0.1888 -0.2398
 1316SOL     ow 5261   1.600   6.192   1.735  0.0482 -0.1640 -0.0988
 1316SOL     hw 5262   1.659   6.170   1.807  0.5979  0.6152 -0.2992
 1316SOL     hw 5263   1.571   6.281   1.755 -0.3758 -0.2153 -0.4649
 1316SOL     vw 5264   1.604   6.201   1.747  0.0648 -0.0679 -0.1735
 1317SOL     ow 5265   1.675   5.257   2.881  0.1801  0.2243 -0.0757
 1317SOL     hw 5266   1.739   5.325   2.862 -0.3013  1.4031  2.1320
 1317SOL     hw 5267   1.687   5.191   2.812  2.2446  1.4389 -0.9404
 1317SOL     vw 5268   1.685   5.257   2.870  0.3890  0.5400  0.1014
 1318SOL     ow 5269   6.808   1.737   6.608  0.3614  0.3067  0.8665
 1318SOL     hw 5270   6.886   1.695   6.643  0.4567  0.8117  1.2829
 1318SOL     hw 5271   6.841   1.812   6.559  0.1598  0.3295  0.7660
 1318SOL     vw 5272   6.822   1.742   6.606  0.3471  0.3763  0.9084
 1319SOL     ow 5273   4.820   3.022   4.615  0.6260  0.0842  0.5934
 1319SOL     hw 5274   4.759   2.957   4.580  1.6106  0.3976 -1.8859
 1319SOL     hw 5275   4.764   3.085   4.661 -0.9010  0.1411 -1.2312
 1319SOL     vw 5276   4.805   3.022   4.617  0.5543  0.1329  0.0257
 1320SOL     ow 5277   6.371   0.815   0.248  0.1131 -0.4102  0.2577
 1320SOL     hw 5278   6.303   0.762   0.207 -1.1909 -0.6924  2.6450
 1320SOL     hw 5279   6.330   0.900   0.263  0.7969 -0.0818  0.3447
 1320SOL     vw 5280   6.357   0.819   0.244  0.0312 -0.4041  0.5842
 1321SOL     ow 5281   5.636   0.354   5.108  0.0495  0.5489 -0.6054
 1321SOL     hw 5282   5.584   0.279   5.136 -1.7398  1.8780 -0.2052
 1321SOL     hw 5283   5.586   0.393   5.037  0.5745  1.7835 -0.3235
 1321SOL     vw 5284   5.622   0.349   5.102 -0.1173  0.8872 -0.5152
 1322SOL     ow 5285   2.040   4.795   3.746 -0.1998  0.4405  0.1520
 1322SOL     hw 5286   1.980   4.763   3.679  3.6150 -1.6886 -2.6708
 1322SOL     hw 5287   2.050   4.888   3.727 -0.9072  0.3367 -0.8051
 1322SOL     vw 5288   2.033   4.803   3.734  0.2102  0.1462 -0.3468
 1323SOL     ow 5289   4.710   3.558   2.699 -0.3160  0.3158 -0.1392
 1323SOL     hw 5290   4.661   3.551   2.780  2.5973  1.4970  1.9017
 1323SOL     hw 5291   4.759   3.640   2.707  1.7967 -0.6408 -2.0514
 1323SOL     vw 5292   4.710   3.568   2.710  0.3471  0.3455 -0.1221
 1324SOL     ow 5293   3.212   0.584   4.442 -0.8517 -0.4886 -0.3621
 1324SOL     hw 5294   3.207   0.608   4.350  0.5911 -0.2589 -0.4018
 1324SOL     hw 5295   3.184   0.662   4.489  0.4799  0.1344 -0.5737
 1324SOL     vw 5296   3.207   0.597   4.436 -0.4857 -0.3761 -0.3953
 1325SOL     ow 5297   5.228   6.081   7.000 -0.6849 -1.0709 -0.1070
 1325SOL     hw 5298   5.139   6.077   7.035 -2.1904 -2.8781 -3.5621
 1325SOL     hw 5299   5.272   6.004   7.036 -0.5686 -0.3694  1.3268
 1325SOL     vw 5300   5.222   6.070   7.009 -0.8681 -1.2166 -0.3738
 1326SOL     ow 5301   0.729   6.493   4.454 -0.9084  0.3363  0.0427
 1326SOL     hw 5302   0.781   6.417   4.478 -1.7406 -0.5214 -0.7430
 1326SOL     hw 5303   0.751   6.560   4.518 -0.3035 -0.6383  0.8715
 1326SOL     vw 5304   0.738   6.492   4.465 -0.9384  0.0942  0.0484
 1327SOL     ow 5305   1.013   4.215   0.470 -0.0906  0.5264  0.2598
 1327SOL     hw 5306   1.028   4.292   0.524 -0.2243  0.1360  0.8634
 1327SOL     hw 5307   1.100   4.186   0.444  0.5150 -2.2305  4.4496
 1327SOL     vw 5308   1.026   4.221   0.474 -0.0283  0.1109  0.8923
 1328SOL     ow 5309   7.444   1.140   3.397 -0.1732  0.1593 -0.0967
 1328SOL     hw 5310   7.358   1.181   3.401 -0.6112 -0.6210 -1.1149
 1328SOL     hw 5311   7.427   1.046   3.405  0.6600  0.0399  0.4809
 1328SOL     vw 5312   7.430   1.133   3.399 -0.1211  0.0406 -0.1547
 1329SOL     ow 5313   3.439   5.356   1.339 -0.1649  0.1723 -0.1230
 1329SOL     hw 5314   3.457   5.447   1.315 -2.1269  1.5162  2.8511
 1329SOL     hw 5315   3.463   5.352   1.432 -0.7263 -2.1951 -0.0370
 1329SOL     vw 5316   3.445   5.368   1.348 -0.4978  0.0374  0.2807
 1330SOL     ow 5317   2.897   7.309   4.030  0.1049 -0.1429 -0.3479
 1330SOL     hw 5318   2.953   7.232   4.023 -0.9832 -1.2727  2.1131
 1330SOL     hw 5319   2.939   7.363   4.098  0.6779  1.3673 -1.8114
 1330SOL     vw 5320   2.910   7.306   4.038  0.0370 -0.0930 -0.2162
 1331SOL     ow 5321   2.737   4.791   1.748 -0.3361  0.4105 -0.6511
 1331SOL     hw 5322   2.796   4.744   1.688 -0.5898  0.2345 -0.7632
 1331SOL     hw 5323   2.789   4.803   1.827  0.5143  1.9189 -1.3956
 1331SOL     vw 5324   2.752   4.786   1.750 -0.2575  0.5865 -0.7641
 1332SOL     ow 5325   5.135   1.195   6.157 -0.6745  0.9449 -0.1199
 1332SOL     hw 5326   5.045   1.184   6.127 -0.5244 -1.1249 -0.0045
 1332SOL     hw 5327   5.128   1.194   6.252 -0.5714  1.2505 -0.1094
 1332SOL     vw 5328   5.122   1.193   6.166 -0.6409  0.7122 -0.1032
 1333SOL     ow 5329   1.537   4.731   1.834 -0.3159 -0.2826 -0.0520
 1333SOL     hw 5330   1.574   4.643   1.830  0.3277 -0.0693  0.8792
 1333SOL     hw 5331   1.491   4.741   1.751  2.3169 -0.3078 -1.6425
 1333SOL     vw 5332   1.536   4.721   1.823  0.1163 -0.2580 -0.1391
 1334SOL     ow 5333   6.877   0.605   2.916 -0.2934  0.1019  0.6479
 1334SOL     hw 5334   6.869   0.518   2.955 -0.2251 -1.9733 -3.4028
 1334SOL     hw 5335   6.788   0.642   2.922 -1.6494 -2.4003 -1.6900
 1334SOL     vw 5336   6.864   0.599   2.922 -0.4635 -0.5020 -0.1949
 1335SOL     ow 5337   4.109   0.771   1.834  0.2466 -0.6244 -0.4928
 1335SOL     hw 5338   4.034   0.828   1.812 -2.0241 -3.9316 -2.1615
 1335SOL     hw 5339   4.087   0.736   1.920  1.4401  0.6257  0.3519
 1335SOL     vw 5340   4.096   0.774   1.842  0.1044 -0.8958 -0.6016
 1336SOL     ow 5341   5.514   5.093   3.189  0.3660 -0.1722 -0.7033
 1336SOL     hw 5342   5.587   5.032   3.204 -0.0645 -0.1618  2.0182
 1336SOL     hw 5343   5.553   5.180   3.200  0.1982 -0.1295 -0.4160
 1336SOL     vw 5344   5.529   5.096   3.192  0.2871 -0.1657 -0.3062
 1337SOL     ow 5345   3.199   2.034   2.287  0.7425  0.2516 -0.2173
 1337SOL     hw 5346   3.152   2.006   2.365  1.3524 -1.6768 -0.4985
 1337SOL     hw 5347   3.291   2.021   2.309  0.8984 -4.2101 -2.4818
 1337SOL     vw 5348   3.205   2.029   2.300  0.8436 -0.5915 -0.5531
 1338SOL     ow 5349   6.735   4.508   1.759  0.4249 -0.3174 -0.2860
 1338SOL     hw 5350   6.702   4.586   1.804  3.1497  2.8232 -3.1713
 1338SOL     hw 5351   6.815   4.486   1.807  1.3935  0.7889 -1.3268
 1338SOL     vw 5352   6.741   4.516   1.771  0.9122  0.2429 -0.8040
 1339SOL     ow 5353   2.617   0.795   4.804  0.6000 -0.0307  0.6946
 1339SOL     hw 5354   2.641   0.728   4.739 -1.4757  0.0712 -0.2363
 1339SOL     hw 5355   2.570   0.862   4.753 -1.3922 -0.1157  2.3222
 1339SOL     vw 5356   2.614   0.795   4.788  0.0633 -0.0285  0.7863
 1340SOL     ow 5357   5.262   6.351   6.893 -0.0475 -0.0806 -0.6730
 1340SOL     hw 5358   5.245   6.263   6.928  0.7869  0.0042 -0.0078
 1340SOL     hw 5359   5.326   6.337   6.823 -1.5838 -0.2297 -2.0825
 1340SOL     vw 5360   5.268   6.337   6.888 -0.1400 -0.0889 -0.7713
 1341SOL     ow 5361   0.512   2.264   7.294 -0.4922  0.2671  0.1451
 1341SOL     hw 5362   0.436   2.231   7.246  0.6846 -2.5499  0.0718
 1341SOL     hw 5363   0.531   2.197   7.359  1.0119  1.6602  1.2113
 1341SOL     vw 5364   0.504   2.251   7.296 -0.1385  0.0793  0.2761
 1342SOL     ow 5365   6.260   7.151   1.161  0.6839  0.7105 -0.6937
 1342SOL     hw 5366   6.289   7.228   1.112  0.6634  0.4946 -1.0559
 1342SOL     hw 5367   6.245   7.085   1.093  0.2254  0.5404 -0.4282
 1342SOL     vw 5368   6.262   7.152   1.146  0.6206  0.6597 -0.7066
 1343SOL     ow 5369   3.763   1.236   7.554  0.4905 -0.1763 -0.7403
 1343SOL     hw 5370   3.724   1.200   7.475  1.1761  0.4855 -1.3872
 1343SOL     hw 5371   3.856   1.247   7.533  0.3059  1.9856 -0.5925
 1343SOL     vw 5372   3.770   1.232   7.541  0.5567  0.1962 -0.8061
 1344SOL     ow 5373   0.319   4.545   7.038  0.3423 -0.3194 -0.3841
 1344SOL     hw 5374   0.300   4.580   6.951 -0.7336 -1.1202 -0.4989
 1344SOL     hw 5375   0.366   4.463   7.021  0.5095 -0.2609 -0.2001
 1344SOL     vw 5376   0.323   4.539   7.024  0.2224 -0.4170 -0.3750
 1345SOL     ow 5377   6.930   2.131   0.657 -0.2072 -0.1232  0.2553
 1345SOL     hw 5378   6.961   2.117   0.568 -2.6922 -2.5959 -0.3886
 1345SOL     hw 5379   6.981   2.069   0.710 -0.7971 -0.8386  0.0009
 1345SOL     vw 5380   6.941   2.121   0.652 -0.6130 -0.5437  0.1368
 1346SOL     ow 5381   6.930   3.905   0.123  0.6734 -0.4390 -0.0714
 1346SOL     hw 5382   6.907   3.970   0.056  1.1498 -1.0668 -0.8684
 1346SOL     hw 5383   6.998   3.948   0.175 -1.4025  1.0010  1.6080
 1346SOL     vw 5384   6.936   3.919   0.121  0.4625 -0.3318  0.0451
 1347SOL     ow 5385   3.377   6.288   0.875  0.5006 -0.1831  0.0619
 1347SOL     hw 5386   3.385   6.376   0.911  4.7540 -0.7754  1.0583
 1347SOL     hw 5387   3.364   6.231   0.951  0.6604 -0.6601 -0.2583
 1347SOL     vw 5388   3.376   6.292   0.890  1.0828 -0.3242  0.1511
 1348SOL     ow 5389   5.311   7.381   4.850 -0.7062 -0.1474  0.3808
 1348SOL     hw 5390   5.244   7.322   4.883 -0.6004 -0.7894 -0.5229
 1348SOL     hw 5391   5.299   7.382   4.755  1.4988 -1.5128  0.0103
 1348SOL     vw 5392   5.301   7.373   4.842 -0.4013 -0.4117  0.2127
 1349SOL     ow 5393   1.906   6.210   3.232  0.0375  0.8431 -0.2892
 1349SOL     hw 5394   1.962   6.244   3.162  0.3093 -0.7773 -0.9017
 1349SOL     hw 5395   1.858   6.138   3.191 -0.9575  0.8562  0.7930
 1349SOL     vw 5396   1.907   6.205   3.217 -0.0579  0.6309 -0.2272
 1350SOL     ow 5397   4.843   1.236   2.644 -0.3087  0.0744  0.3051
 1350SOL     hw 5398   4.770   1.179   2.619  0.9389 -1.5059  0.0936
 1350SOL     hw 5399   4.872   1.274   2.561  0.7260 -1.3523 -0.0294
 1350SOL     vw 5400   4.837   1.234   2.629 -0.0079 -0.3223  0.2331
 1351SOL     ow 5401   4.245   6.634   7.278 -0.3971  0.1989 -0.1709
 1351SOL     hw 5402   4.152   6.645   7.256 -0.3434  0.5299 -0.2393
 1351SOL     hw 5403   4.286   6.715   7.248 -0.2275  0.4186  0.6300
 1351SOL     vw 5404   4.238   6.646   7.271 -0.3676  0.2716 -0.0744
 1352SOL     ow 5405   1.480   5.596   4.050  0.2712  0.4020 -0.0337
 1352SOL     hw 5406   1.393   5.636   4.054  0.1226  0.0089  1.2480
 1352SOL     hw 5407   1.540   5.669   4.066  0.1246  0.5208 -0.0195
 1352SOL     vw 5408   1.476   5.611   4.053  0.2323  0.3657  0.1373
 1353SOL     ow 5409   1.332   0.037   0.595  0.1251 -0.4162 -0.1129
 1353SOL     hw 5410   1.383   0.100   0.647 -0.7147 -0.4799  0.8022
 1353SOL     hw 5411   1.398  -0.019   0.555  0.9402  1.3955 -1.4392
 1353SOL     vw 5412   1.348   0.038   0.597  0.1218 -0.1856 -0.1672
 1354SOL     ow 5413   7.562   1.881   4.796 -0.3347  0.2035  0.0817
 1354SOL     hw 5414   7.531   1.792   4.812 -0.5718  0.5204  1.5282
 1354SOL     hw 5415   7.652   1.882   4.828 -1.1066  1.0900  2.4385
 1354SOL     vw 5416   7.570   1.869   4.802 -0.4678  0.3622  0.5834
 1355SOL     ow 5417   0.356   0.494   6.388 -0.3909 -0.8922  1.2380
 1355SOL     hw 5418   0.389   0.584   6.386 -2.1122 -0.2532  0.3522
 1355SOL     hw 5419   0.295   0.493   6.462 -1.1926 -1.0202  0.5826
 1355SOL     vw 5420   0.353   0.506   6.398 -0.7238 -0.8248  1.0347
 1356SOL     ow 5421   6.239   1.952   6.440 -0.9738 -0.3244 -0.3514
 1356SOL     hw 5422   6.151   1.932   6.471 -0.7220 -0.4274  0.3149
 1356SOL     hw 5423   6.282   1.867   6.432 -0.2946 -0.1693  1.3002
 1356SOL     vw 5424   6.233   1.938   6.443 -0.8509 -0.3175 -0.0455
 1357SOL     ow 5425   7.457   4.068   3.896  0.1585  0.5837  0.0736
 1357SOL     hw 5426   7.414   4.089   3.979  1.3426 -1.9571  1.4529
 1357SOL     hw 5427   7.406   3.995   3.861  0.2106  1.0590 -1.0420
 1357SOL     vw 5428   7.444   4.061   3.902  0.3216  0.3111  0.1084
 1358SOL     ow 5429   6.398   7.095   5.778 -0.4750  0.1100 -0.5070
 1358SOL     hw 5430   6.494   7.096   5.787 -0.4183 -1.5060 -0.7138
 1358SOL     hw 5431   6.378   7.180   5.738  0.5705  1.6983  2.0923
 1358SOL     vw 5432   6.408   7.107   5.774 -0.3295  0.1063 -0.1912
 1359SOL     ow 5433   3.600   4.559   5.525  0.2497 -0.8180  0.2938
 1359SOL     hw 5434   3.651   4.478   5.528  0.7303 -0.5042  1.0636
 1359SOL     hw 5435   3.532   4.546   5.592 -1.1152 -1.4798 -1.1321
 1359SOL     vw 5436   3.598   4.546   5.534  0.1330 -0.8643  0.2074
 1360SOL     ow 5437   6.651   6.758   2.625 -0.5646 -0.3095 -0.1124
 1360SOL     hw 5438   6.620   6.673   2.656 -0.9384  0.1487  0.8033
 1360SOL     hw 5439   6.663   6.810   2.704 -0.1789  0.4413 -0.6492
 1360SOL     vw 5440   6.649   6.754   2.639 -0.5631 -0.1502 -0.0622
 1361SOL     ow 5441   4.988   4.906   3.420 -0.4450  0.1849 -0.0270
 1361SOL     hw 5442   4.962   4.954   3.499  0.3650 -0.2494  0.5086
 1361SOL     hw 5443   5.035   4.829   3.452 -0.7733 -0.4050 -0.9152
 1361SOL     vw 5444   4.990   4.902   3.435 -0.3817  0.0496 -0.0736
 1362SOL     ow 5445   0.965   1.781   5.443 -0.4363 -0.1471  0.0842
 1362SOL     hw 5446   0.994   1.860   5.398 -2.7701  1.0257  0.4529
 1362SOL     hw 5447   0.911   1.735   5.379 -0.3120 -0.6738  0.3506
 1362SOL     vw 5448   0.962   1.786   5.429 -0.7279 -0.0619  0.1678
 1363SOL     ow 5449   4.242   0.323   2.302  0.0930 -0.3715  0.5320
 1363SOL     hw 5450   4.308   0.281   2.246 -0.0916  0.0435 -0.0119
 1363SOL     hw 5451   4.159   0.296   2.264 -0.0317  0.9182 -0.1905
 1363SOL     vw 5452   4.240   0.314   2.290  0.0525 -0.1466  0.3649
 1364SOL     ow 5453   4.804   5.434   1.898  0.1991  0.6303 -0.5873
 1364SOL     hw 5454   4.864   5.482   1.955  0.8739 -2.5553  1.6761
 1364SOL     hw 5455   4.815   5.474   1.812  1.2843  3.8296  0.8696
 1364SOL     vw 5456   4.813   5.446   1.894  0.4311  0.6320 -0.0964
 1365SOL     ow 5457   1.842   2.679   1.989  0.0225  0.0074  0.0709
 1365SOL     hw 5458   1.788   2.649   1.916  0.1808 -1.6403  0.6015
 1365SOL     hw 5459   1.879   2.762   1.958  1.1366 -1.2707 -2.2859
 1365SOL     vw 5460   1.840   2.686   1.975  0.1904 -0.3786 -0.1701
 1366SOL     ow 5461   0.385   0.500   4.736 -0.1707 -0.4322  0.1641
 1366SOL     hw 5462   0.404   0.578   4.685  0.2380  0.3542  1.4529
 1366SOL     hw 5463   0.462   0.444   4.725  0.2226  0.0407  0.4552
 1366SOL     vw 5464   0.398   0.503   4.728 -0.0649 -0.2660  0.3726
 1367SOL     ow 5465   0.765   0.381   7.586 -0.1946  0.6784  0.4227
 1367SOL     hw 5466   0.817   0.329   7.525  2.5213  0.4551  2.7090
 1367SOL     hw 5467   0.692   0.324   7.610  0.0560 -0.1607 -0.7210
 1367SOL     vw 5468   0.762   0.367   7.581  0.1968  0.5382  0.5736
 1368SOL     ow 5469   0.920   6.350   6.065  0.3548  0.0845  0.2693
 1368SOL     hw 5470   0.963   6.268   6.044  0.9616  0.4473  0.0623
 1368SOL     hw 5471   0.871   6.332   6.146 -0.4381 -0.7859 -0.3874
 1368SOL     vw 5472   0.919   6.337   6.073  0.3302  0.0176  0.1552
 1369SOL     ow 5473   6.002   1.750   7.262 -0.2324 -0.2982  0.0274
 1369SOL     hw 5474   6.074   1.746   7.199 -2.2777  1.8491 -2.6739
 1369SOL     hw 5475   5.983   1.658   7.282  1.5685 -0.9957 -1.2347
 1369SOL     vw 5476   6.009   1.737   7.256 -0.2646 -0.1069 -0.4957
 1370SOL     ow 5477   5.201   1.958   5.570  0.0966 -0.1749 -0.9095
 1370SOL     hw 5478   5.267   2.016   5.530  1.0543  1.1756  2.2458
 1370SOL     hw 5479   5.121   1.976   5.521  1.7543 -1.1802 -4.2938
 1370SOL     vw 5480   5.200   1.968   5.559  0.4416 -0.1293 -0.9398
 1371SOL     ow 5481   5.968   5.041   1.390  0.0462 -0.6433  0.4202
 1371SOL     hw 5482   6.016   5.101   1.332  0.3180  0.2661  1.5408
 1371SOL     hw 5483   6.003   4.954   1.370  0.5822 -0.2625 -0.3192
 1371SOL     vw 5484   5.979   5.038   1.380  0.1526 -0.4730  0.4705
 1372SOL     ow 5485   5.084   1.747   2.622  0.0584  0.2782  0.4585
 1372SOL     hw 5486   5.041   1.665   2.599  0.2751  0.4989 -0.7869
 1372SOL     hw 5487   5.023   1.815   2.594  1.0466  0.5876 -1.0791
 1372SOL     vw 5488   5.070   1.745   2.615  0.2174  0.3482  0.0912
 1373SOL     ow 5489   3.923   2.409   6.853  0.1489 -0.1540  0.5869
 1373SOL     hw 5490   3.899   2.325   6.812  1.1110  0.4579 -1.3268
 1373SOL     hw 5491   3.972   2.383   6.931 -1.2188 -1.3647  1.1004
 1373SOL     vw 5492   3.926   2.394   6.858  0.0955 -0.2329  0.4022
 1374SOL     ow 5493   4.988   1.151   1.705 -0.0917 -0.5348 -0.7306
 1374SOL     hw 5494   4.927   1.218   1.674  0.6996  0.4747 -0.1883
 1374SOL     hw 5495   4.932   1.077   1.729 -1.0498  0.1428 -0.8035
 1374SOL     vw 5496   4.973   1.150   1.704 -0.1137 -0.3122 -0.6686
 1375SOL     ow 5497   3.933   1.013   3.743 -0.2506 -0.0322  0.5388
 1375SOL     hw 5498   3.857   1.046   3.693  0.8139  0.2350 -0.9802
 1375SOL     hw 5499   3.904   1.017   3.834 -2.3935 -0.8038 -0.0309
 1375SOL     vw 5500   3.919   1.018   3.748 -0.3929 -0.0988  0.2632
 1376SOL     ow 5501   2.199   6.055   4.463  0.7023  0.2958 -0.3314
 1376SOL     hw 5502   2.185   6.140   4.420 -0.9660  1.0167  1.4916
 1376SOL     hw 5503   2.132   5.998   4.425  1.4205 -0.0705 -1.0951
 1376SOL     vw 5504   2.189   6.059   4.452  0.5770  0.3424 -0.1917
 1377SOL     ow 5505   1.370   2.319   4.104  0.0376  0.4040  0.2277
 1377SOL     hw 5506   1.371   2.357   4.192  0.4537  0.9424 -0.0085
 1377SOL     hw 5507   1.456   2.277   4.096  0.7586  1.9835 -0.6248
 1377SOL     vw 5508   1.382   2.318   4.115  0.1876  0.6835  0.0842
 1378SOL     ow 5509   3.757   6.632   0.078  0.3146 -0.0763  0.3974
 1378SOL     hw 5510   3.679   6.644   0.024  1.3413  1.7555 -0.7838
 1378SOL     hw 5511   3.738   6.681   0.158  0.6643  1.3854 -0.3788
 1378SOL     vw 5512   3.745   6.640   0.082  0.4963  0.3581  0.1392
 1379SOL     ow 5513   3.051   4.067   0.258  0.6591  0.3409 -0.5921
 1379SOL     hw 5514   3.135   4.109   0.238  2.2865 -2.7861 -1.1247
 1379SOL     hw 5515   3.066   4.025   0.343  0.3948 -1.8393 -1.5540
 1379SOL     vw 5516   3.064   4.067   0.267  0.8389 -0.3595 -0.7893
 1380SOL     ow 5517   0.124   5.448   2.054 -0.3282  0.4764 -0.3405
 1380SOL     hw 5518   0.050   5.508   2.043  0.8458  1.7548 -1.7133
 1380SOL     hw 5519   0.118   5.389   1.979  0.6271  1.2857 -1.0826
 1380SOL     vw 5520   0.113   5.448   2.043 -0.0473  0.7522 -0.6195
 1381SOL     ow 5521   7.554   1.483   0.948  0.4192 -0.1910  0.0589
 1381SOL     hw 5522   7.514   1.570   0.945  1.7198  0.4179 -0.2583
 1381SOL     hw 5523   7.590   1.470   0.860  2.5489  0.1014  0.8307
 1381SOL     vw 5524   7.554   1.493   0.936  0.8719 -0.0721  0.1189
 1382SOL     ow 5525   0.680   5.036   1.941 -0.3184 -0.0920 -0.1400
 1382SOL     hw 5526   0.693   5.104   2.007  0.0144 -0.6801  0.4053
 1382SOL     hw 5527   0.742   5.058   1.871  0.7971 -0.6091  0.6598
 1382SOL     vw 5528   0.690   5.048   1.940 -0.1273 -0.2382  0.0374
 1383SOL     ow 5529   4.381   2.642   5.235 -0.4618  0.3392 -0.0241
 1383SOL     hw 5530   4.329   2.647   5.154 -0.9762  0.7001  0.3249
 1383SOL     hw 5531   4.362   2.723   5.281  1.1799  0.9484 -0.3346
 1383SOL     vw 5532   4.372   2.653   5.230 -0.3128  0.4672 -0.0188
 1384SOL     ow 5533   7.375   5.504   4.525  1.1176  0.1557 -0.3558
 1384SOL     hw 5534   7.415   5.484   4.610 -0.5206  3.1597  1.2805
 1384SOL     hw 5535   7.430   5.458   4.462  3.4625 -0.8187  2.1611
 1384SOL     vw 5536   7.388   5.495   4.528  1.2109  0.4234  0.1922
 1385SOL     ow 5537   6.771   2.830   1.597  0.1339 -0.2530 -0.6705
 1385SOL     hw 5538   6.788   2.775   1.673  2.4305  2.7933  1.2683
 1385SOL     hw 5539   6.835   2.801   1.532  0.8779 -0.3274  0.0791
 1385SOL     vw 5540   6.782   2.819   1.598  0.5352  0.1391 -0.3158
 1386SOL     ow 5541   5.136   1.296   7.150 -0.3572  0.0473  0.5104
 1386SOL     hw 5542   5.046   1.276   7.126 -0.1624  0.7589 -0.8893
 1386SOL     hw 5543   5.180   1.317   7.068  1.8032 -2.8962  0.7429
 1386SOL     vw 5544   5.130   1.296   7.136 -0.0465 -0.2472  0.3564
 1387SOL     ow 5545   7.256   0.509   6.988  1.1185  0.0167 -0.7951
 1387SOL     hw 5546   7.340   0.550   6.972  1.2467  0.4204  0.7778
 1387SOL     hw 5547   7.277   0.418   7.012  1.3483  0.6531  1.7484
 1387SOL     vw 5548   7.270   0.502   6.989  1.1656  0.1539 -0.2522
 1388SOL     ow 5549   6.369   1.954   0.136  0.6977 -0.5409  0.1621
 1388SOL     hw 5550   6.383   1.877   0.190  3.6803  0.5745  1.1758
 1388SOL     hw 5551   6.377   2.028   0.197  1.8501  0.6707 -1.3695
 1388SOL     vw 5552   6.372   1.954   0.151  1.2431 -0.2339  0.0938
 1389SOL     ow 5553   0.516   0.673   1.766 -0.8846  0.3122 -0.4717
 1389SOL     hw 5554   0.461   0.614   1.713 -2.0093  0.1276  0.8286
 1389SOL     hw 5555   0.593   0.620   1.786 -0.2741  0.4962 -2.1469
 1389SOL     vw 5556   0.519   0.658   1.761 -0.9524  0.3121 -0.5212
 1390SOL     ow 5557   0.451   7.259   6.822 -0.2933  0.0852 -0.1158
 1390SOL     hw 5558   0.542   7.235   6.809 -0.4753 -0.4008 -0.5181
 1390SOL     hw 5559   0.438   7.337   6.767 -0.1272  0.1499 -0.0635
 1390SOL     vw 5560   0.461   7.266   6.813 -0.2954  0.0296 -0.1619
 1391SOL     ow 5561   7.607   0.245   0.852 -0.6599 -0.6362  0.5342
 1391SOL     hw 5562   7.637   0.271   0.764 -0.1516 -2.0831  0.2381
 1391SOL     hw 5563   7.621   0.150   0.854 -2.0291 -0.8428  1.6715
 1391SOL     vw 5564   7.613   0.236   0.840 -0.7735 -0.8543  0.6452
 1392SOL     ow 5565   5.635   0.406   0.910 -0.5563 -0.2492 -0.2558
 1392SOL     hw 5566   5.572   0.346   0.870  1.1360 -2.0976 -0.3126
 1392SOL     hw 5567   5.610   0.410   1.002 -1.2394 -0.2851 -0.4346
 1392SOL     vw 5568   5.624   0.399   0.917 -0.4234 -0.4978 -0.2869
 1393SOL     ow 5569   4.347   3.959   3.286  1.0102  1.1589 -0.4360
 1393SOL     hw 5570   4.330   3.990   3.197 -0.5823  0.3874 -0.4345
 1393SOL     hw 5571   4.398   3.879   3.274 -3.5010 -1.9917 -1.1034
 1393SOL     vw 5572   4.352   3.953   3.272  0.2050  0.6413 -0.5239
 1394SOL     ow 5573   1.158   7.512   7.553  0.2532 -0.1360  0.1594
 1394SOL     hw 5574   1.063   7.504   7.566 -0.1755 -1.9127 -2.9401
 1394SOL     hw 5575   1.168   7.586   7.494  1.1744  1.8785  2.6899
 1394SOL     vw 5576   1.146   7.520   7.547  0.3182 -0.1047  0.0844
 1395SOL     ow 5577   7.113   6.338   6.132  0.0373 -0.3395 -0.4496
 1395SOL     hw 5578   7.040   6.318   6.074  0.8044 -0.1823 -1.4971
 1395SOL     hw 5579   7.075   6.395   6.199 -1.3339 -2.1636  0.4365
 1395SOL     vw 5580   7.098   6.343   6.133 -0.0424 -0.5593 -0.4709
 1396SOL     ow 5581   6.366   0.375   1.532  0.4992  0.2723  0.2070
 1396SOL     hw 5582   6.315   0.367   1.452  2.2408  0.0838 -0.9380
 1396SOL     hw 5583   6.373   0.285   1.565 -0.8442  0.4395  1.0199
 1396SOL     vw 5584   6.360   0.362   1.526  0.5519  0.2695  0.1633
 1397SOL     ow 5585   2.361   7.357   4.078 -0.7231  0.1222  0.3188
 1397SOL     hw 5586   2.380   7.272   4.117 -1.1552  0.3041  0.9433
 1397SOL     hw 5587   2.410   7.419   4.132 -2.0432  0.4663  1.1664
 1397SOL     vw 5588   2.370   7.354   4.090 -0.9542  0.1915  0.5131
 1398SOL     ow 5589   0.713   1.752   2.793 -0.2038 -0.1551 -0.5460
 1398SOL     hw 5590   0.716   1.842   2.760 -1.8079  0.7355  1.4437
 1398SOL     hw 5591   0.797   1.714   2.769  0.4049  1.7891 -1.6933
 1398SOL     vw 5592   0.724   1.759   2.786 -0.3351  0.2189 -0.4349
 1399SOL     ow 5593   0.203   3.408   4.425  0.0823  0.4984  0.8729
 1399SOL     hw 5594   0.236   3.344   4.363  0.7285 -0.0472  1.7626
 1399SOL     hw 5595   0.178   3.484   4.371  3.0783  1.0866  0.1553
 1399SOL     vw 5596   0.204   3.410   4.410  0.5628  0.5041  0.8957
 1400SOL     ow 5597   3.545   6.596   7.583 -0.8084 -0.7740  0.0228
 1400SOL     hw 5598   3.522   6.515   7.538 -2.0067 -0.2720 -0.2964
 1400SOL     hw 5599   3.468   6.617   7.635 -0.5737  0.2503 -0.0265
 1400SOL     vw 5600   3.532   6.588   7.584 -0.9354 -0.5724 -0.0260
 1401SOL     ow 5601   6.313   1.337   5.839  0.3853  0.4933 -0.8914
 1401SOL     hw 5602   6.241   1.288   5.878 -1.0124  0.9109 -2.7991
 1401SOL     hw 5603   6.358   1.377   5.913 -1.1554 -0.0428  0.3800
 1401SOL     vw 5604   6.310   1.336   5.854 -0.0024  0.4776 -0.9751
 1402SOL     ow 5605   4.027   7.220   7.019  0.0226  0.1865 -0.5008
 1402SOL     hw 5606   4.070   7.166   7.085 -3.6674 -0.5288  1.5697
 1402SOL     hw 5607   4.042   7.174   6.936  0.4404 -1.7814  0.6132
 1402SOL     vw 5608   4.035   7.207   7.017 -0.4091 -0.1674 -0.0806
 1403SOL     ow 5609   1.441   7.225   0.536 -0.2599 -0.0656 -0.5001
 1403SOL     hw 5610   1.470   7.228   0.627  0.7960  0.5749 -0.8443
 1403SOL     hw 5611   1.430   7.132   0.517 -0.3982 -0.2090  0.2415
 1403SOL     vw 5612   1.443   7.213   0.546 -0.1389  0.0000 -0.4477
 1404SOL     ow 5613   7.396   3.992   2.301  0.1315  0.0677 -0.8460
 1404SOL     hw 5614   7.335   4.001   2.228 -1.3537 -0.8662  0.2295
 1404SOL     hw 5615   7.405   4.081   2.336  0.8525  0.5203 -2.1222
 1404SOL     vw 5616   7.389   4.005   2.296  0.0308  0.0043 -0.8726
 1405SOL     ow 5617   1.729   2.423   2.376  0.5652 -1.5714  0.0766
 1405SOL     hw 5618   1.721   2.329   2.392 -2.6593 -1.4187  0.0431
 1405SOL     hw 5619   1.733   2.462   2.464  0.0325 -1.6508  0.1384
 1405SOL     vw 5620   1.729   2.416   2.390  0.0694 -1.5618  0.0803
 1406SOL     ow 5621   6.452   4.621   4.066  0.1300 -0.3846 -0.0672
 1406SOL     hw 5622   6.509   4.675   4.121  0.0452  1.0065 -1.2863
 1406SOL     hw 5623   6.512   4.581   4.003 -0.2812  2.1206 -2.1965
 1406SOL     vw 5624   6.467   4.622   4.065  0.0646  0.1297 -0.5090
 1407SOL     ow 5625   0.213   6.996   5.734 -0.3308 -0.8145  0.2706
 1407SOL     hw 5626   0.169   7.071   5.774  2.7639  1.0655  0.5507
 1407SOL     hw 5627   0.258   7.032   5.658  0.9952 -2.4453  0.2141
 1407SOL     vw 5628   0.213   7.011   5.730  0.2525 -0.7815  0.3002
 1408SOL     ow 5629   1.080   1.030   5.529 -0.1443 -0.2909 -0.4105
 1408SOL     hw 5630   1.149   0.999   5.471 -0.3843  1.2622 -1.5939
 1408SOL     hw 5631   1.086   0.974   5.606  0.8720 -1.7323 -1.4806
 1408SOL     vw 5632   1.090   1.018   5.531 -0.0418 -0.2762 -0.7076
 1409SOL     ow 5633   0.609   4.783   1.909 -0.3555  0.0176  0.7043
 1409SOL     hw 5634   0.616   4.870   1.947  1.7722  1.8814 -3.3650
 1409SOL     hw 5635   0.582   4.798   1.819  0.0450 -3.5575 -0.1547
 1409SOL     vw 5636   0.606   4.796   1.902 -0.0219 -0.2079  0.0541
 1410SOL     ow 5637   6.556   2.894   1.461  0.3011  0.3196 -0.1428
 1410SOL     hw 5638   6.630   2.889   1.522  0.7089  0.7768 -0.5933
 1410SOL     hw 5639   6.597   2.898   1.375 -0.2788 -1.5002 -0.5472
 1410SOL     vw 5640   6.571   2.894   1.458  0.2785  0.1398 -0.2556
 1411SOL     ow 5641   4.090   2.441   7.072 -0.3502 -0.7212 -0.1903
 1411SOL     hw 5642   4.165   2.485   7.111  0.3922  0.5808 -2.8453
 1411SOL     hw 5643   4.019   2.454   7.135  0.8653  0.8558  0.9177
 1411SOL     vw 5644   4.090   2.449   7.085 -0.0918 -0.3412 -0.3946
 1412SOL     ow 5645   3.876   2.518   1.914  0.5990 -0.6807 -0.4941
 1412SOL     hw 5646   3.942   2.541   1.849  1.3120 -0.6872  0.2111
 1412SOL     hw 5647   3.863   2.599   1.964 -2.5979  0.4801 -2.8150
 1412SOL     vw 5648   3.883   2.532   1.912  0.2712 -0.5282 -0.7073
 1413SOL     ow 5649   1.814   1.011   1.380  0.0882 -0.3339  0.2894
 1413SOL     hw 5650   1.894   0.985   1.335 -0.2204 -1.1104  0.1914
 1413SOL     hw 5651   1.820   0.970   1.466 -1.3809 -2.5839 -0.5834
 1413SOL     vw 5652   1.825   1.003   1.385 -0.1464 -0.7333  0.1613
 1414SOL     ow 5653   5.882   4.713   2.717 -0.2027 -0.5577  0.4925
 1414SOL     hw 5654   5.843   4.669   2.642 -0.1125  0.8259 -0.4074
 1414SOL     hw 5655   5.841   4.800   2.718 -0.1029 -0.4909  1.9697
 1414SOL     vw 5656   5.871   4.719   2.708 -0.1776 -0.3664  0.5686
 1415SOL     ow 5657   4.300   6.380   1.790  0.5506  0.8903 -0.2237
 1415SOL     hw 5658   4.325   6.451   1.849  1.5424  0.7489 -0.4532
 1415SOL     hw 5659   4.369   6.379   1.723 -0.2790  0.7191 -1.0960
 1415SOL     vw 5660   4.312   6.389   1.789  0.5720  0.8495 -0.3691
 1416SOL     ow 5661   3.842   1.997   2.722 -0.4129 -0.8898 -0.7898
 1416SOL     hw 5662   3.762   2.028   2.681 -0.7674 -2.5406 -1.4101
 1416SOL     hw 5663   3.885   1.944   2.656  1.0761 -0.2889 -0.3675
 1416SOL     vw 5664   3.837   1.994   2.708 -0.2632 -1.0283 -0.8160
 1417SOL     ow 5665   6.682   0.670   5.499  0.1716 -0.1848  0.1486
 1417SOL     hw 5666   6.620   0.730   5.540 -0.6737 -0.6735 -0.3675
 1417SOL     hw 5667   6.645   0.583   5.515 -0.5135 -0.3662 -2.1071
 1417SOL     vw 5668   6.669   0.666   5.507 -0.0300 -0.2732 -0.2172
 1418SOL     ow 5669   2.596   0.664   7.386  0.1678 -1.0046 -0.4938
 1418SOL     hw 5670   2.527   0.697   7.329 -0.4382 -3.3299 -1.2069
 1418SOL     hw 5671   2.678   0.682   7.339 -0.1360 -0.6207 -0.8787
 1418SOL     vw 5672   2.598   0.671   7.372  0.0477 -1.2607 -0.6387
 1419SOL     ow 5673   0.955   2.450   3.889  0.6533  0.4449 -0.9947
 1419SOL     hw 5674   0.896   2.460   3.963  2.3888 -1.6678  0.8365
 1419SOL     hw 5675   0.898   2.427   3.816 -0.9108 -0.2242  0.3736
 1419SOL     vw 5676   0.940   2.448   3.889  0.6759  0.0778 -0.5727
 1420SOL     ow 5677   3.366   3.074   7.372 -0.4177 -0.9555 -0.0587
 1420SOL     hw 5678   3.380   3.084   7.467 -1.5890  0.4423 -0.0039
 1420SOL     hw 5679   3.273   3.051   7.364 -0.9738  1.3453 -0.9589
 1420SOL     vw 5680   3.356   3.072   7.384 -0.6456 -0.4674 -0.1702
 1421SOL     ow 5681   0.139   2.996   4.023  0.1675 -0.0583 -0.1580
 1421SOL     hw 5682   0.213   2.938   4.042 -0.1779 -0.3531  0.2936
 1421SOL     hw 5683   0.180   3.077   3.992  0.6537 -0.9822 -2.1337
 1421SOL     vw 5684   0.154   2.999   4.021  0.1861 -0.2192 -0.3591
 1422SOL     ow 5685   3.126   2.934   2.310  0.2668 -0.3577 -0.6840
 1422SOL     hw 5686   3.161   2.896   2.390 -0.3736 -0.2114 -0.3220
 1422SOL     hw 5687   3.141   3.028   2.321 -1.7536 -0.0900  0.2846
 1422SOL     vw 5688   3.133   2.942   2.322 -0.0843 -0.3030 -0.5083
 1423SOL     ow 5689   1.612   4.789   6.223  0.3144  0.7506  0.3378
 1423SOL     hw 5690   1.681   4.749   6.170  0.7251  1.2363  0.5003
 1423SOL     hw 5691   1.649   4.872   6.253 -0.3474  1.0258  0.4166
 1423SOL     vw 5692   1.626   4.794   6.220  0.2813  0.8509  0.3698
 1424SOL     ow 5693   6.813   2.506   3.662 -0.0098  0.2200 -0.0111
 1424SOL     hw 5694   6.760   2.581   3.635  0.0311  0.4277  0.4685
 1424SOL     hw 5695   6.896   2.518   3.616 -0.2818  0.0311 -0.5661
 1424SOL     vw 5696   6.817   2.518   3.652 -0.0403  0.2224 -0.0210
 1425SOL     ow 5697   4.176   3.583   0.819 -0.3714 -0.0817  0.1908
 1425SOL     hw 5698   4.217   3.628   0.894 -2.0818  1.7811  0.1018
 1425SOL     hw 5699   4.151   3.498   0.854 -3.2586  1.5318  2.6582
 1425SOL     vw 5700   4.178   3.578   0.834 -0.9780  0.3771  0.5046
 1426SOL     ow 5701   5.942   0.629   3.783  0.2030  0.6760  0.5490
 1426SOL     hw 5702   5.900   0.544   3.796 -0.2293  0.7199 -0.4401
 1426SOL     hw 5703   6.027   0.607   3.745  1.0862  0.5924  2.4560
 1426SOL     vw 5704   5.947   0.615   3.779  0.2623  0.6708  0.6702
 1427SOL     ow 5705   2.933   1.693   5.601 -0.0536  0.2880 -0.9229
 1427SOL     hw 5706   2.903   1.741   5.678  0.7060  0.2794 -0.6088
 1427SOL     hw 5707   2.911   1.601   5.621  1.9638  0.0031  0.2266
 1427SOL     vw 5708   2.926   1.687   5.614  0.3128  0.2493 -0.7300
 1428SOL     ow 5709   6.387   7.163   2.405 -0.5686 -0.1676 -0.2669
 1428SOL     hw 5710   6.329   7.122   2.340  1.8420 -2.8027 -0.9184
 1428SOL     hw 5711   6.430   7.233   2.356  0.0245 -1.0776 -1.0861
 1428SOL     vw 5712   6.385   7.167   2.390 -0.1724 -0.6354 -0.4607
 1429SOL     ow 5713   2.485   3.580   4.007 -0.5436  0.4608  0.0386
 1429SOL     hw 5714   2.463   3.673   3.999 -0.1260  0.4231 -2.0307
 1429SOL     hw 5715   2.421   3.535   3.953  0.7435 -0.2109 -0.9918
 1429SOL     vw 5716   2.474   3.587   3.999 -0.3186  0.3672 -0.3705
 1430SOL     ow 5717   0.418   0.761   3.344  0.3248 -0.4396 -0.3345
 1430SOL     hw 5718   0.424   0.693   3.412 -0.6218 -0.2529 -0.0480
 1430SOL     hw 5719   0.399   0.712   3.264  2.7504 -0.7974 -0.7807
 1430SOL     vw 5720   0.416   0.745   3.343  0.5199 -0.4622 -0.3555
 1431SOL     ow 5721   6.844   5.023   3.490  0.0525  0.3124 -0.7313
 1431SOL     hw 5722   6.790   4.944   3.485  0.4625  0.0164 -0.4952
 1431SOL     hw 5723   6.933   4.991   3.500  0.2771  0.7995 -1.0870
 1431SOL     vw 5724   6.849   5.008   3.490  0.1364  0.3376 -0.7470
 1432SOL     ow 5725   6.071   4.199   5.713 -0.2556 -0.4043 -0.0079
 1432SOL     hw 5726   5.999   4.166   5.658  0.1069  2.4970 -2.5156
 1432SOL     hw 5727   6.143   4.137   5.699 -1.1536 -1.4154 -0.2887
 1432SOL     vw 5728   6.071   4.187   5.704 -0.3264 -0.1547 -0.3760
 1433SOL     ow 5729   0.197   2.359   3.526  0.0679  0.0417  0.1656
 1433SOL     hw 5730   0.239   2.440   3.499  0.7456 -0.5232 -0.5355
 1433SOL     hw 5731   0.241   2.335   3.607 -0.9450  0.9740  1.0077
 1433SOL     vw 5732   0.209   2.366   3.533  0.0236  0.0901  0.1843
 1434SOL     ow 5733   5.310   7.519   2.608 -0.4099 -0.5200  0.0151
 1434SOL     hw 5734   5.238   7.579   2.629  0.7133  0.5669  0.8517
 1434SOL     hw 5735   5.306   7.451   2.676 -1.0165 -0.8218 -0.3105
 1434SOL     vw 5736   5.300   7.518   2.620 -0.3417 -0.4163  0.0825
 1435SOL     ow 5737   5.714   3.105   7.372  0.5150  0.0213  0.0430
 1435SOL     hw 5738   5.795   3.058   7.392 -0.1415 -0.2381  2.3061
 1435SOL     hw 5739   5.729   3.140   7.284  2.1676 -1.9265 -0.5299
 1435SOL     vw 5740   5.727   3.104   7.363  0.6464 -0.2698  0.2658
 1436SOL     ow 5741   4.075   4.804   5.237 -0.5817  0.0587 -0.3617
 1436SOL     hw 5742   4.143   4.868   5.215 -0.3228 -0.2741 -0.5477
 1436SOL     hw 5743   4.073   4.801   5.332 -1.6798  1.4869 -0.3069
 1436SOL     vw 5744   4.084   4.812   5.246 -0.6924  0.2031 -0.3791
 1437SOL     ow 5745   3.698   0.865   6.600  0.3572 -0.3093 -0.0135
 1437SOL     hw 5746   3.766   0.904   6.544 -1.0313  3.8631  0.8082
 1437SOL     hw 5747   3.642   0.816   6.540  2.1807 -1.0123 -1.2237
 1437SOL     vw 5748   3.700   0.864   6.585  0.4145  0.1484 -0.0648
 1438SOL     ow 5749   1.554   5.397   3.871 -0.8357 -0.4204  0.3927
 1438SOL     hw 5750   1.519   5.485   3.887 -0.4541 -0.4606  1.5953
 1438SOL     hw 5751   1.500   5.362   3.801  0.2196  1.4751 -1.4879
 1438SOL     vw 5752   1.542   5.404   3.864 -0.6461 -0.1755  0.3034
 1439SOL     ow 5753   1.754   5.894   3.651 -0.2765  0.3465 -0.0313
 1439SOL     hw 5754   1.827   5.843   3.615  1.5109 -0.3051  3.9924
 1439SOL     hw 5755   1.786   5.984   3.653 -0.5693  0.4643 -0.4629
 1439SOL     vw 5756   1.768   5.899   3.647 -0.0793  0.2761  0.4427
 1440SOL     ow 5757   3.132   7.294   6.901 -0.3569  0.0932  0.8009
 1440SOL     hw 5758   3.088   7.211   6.920 -1.9766  0.5889 -0.4826
 1440SOL     hw 5759   3.082   7.360   6.950 -0.0872  0.4895  0.5526
 1440SOL     vw 5760   3.120   7.292   6.910 -0.5350  0.2108  0.5989
 1441SOL     ow 5761   5.502   7.411   2.363 -0.7131  0.0344 -0.1873
 1441SOL     hw 5762   5.551   7.480   2.408 -2.3771  1.7271 -0.8126
 1441SOL     hw 5763   5.564   7.340   2.353  0.4503  0.5506  2.5181
 1441SOL     vw 5764   5.517   7.411   2.368 -0.7792  0.3259  0.0871
 1442SOL     ow 5765   1.018   3.208   7.282  0.4293  0.1178  0.0253
 1442SOL     hw 5766   1.038   3.124   7.323 -0.6277 -0.2675 -0.2086
 1442SOL     hw 5767   1.050   3.274   7.344  0.6275 -0.4574  0.5357
 1442SOL     vw 5768   1.025   3.206   7.296  0.3160 -0.0089  0.0620
 1443SOL     ow 5769   5.958   6.653   5.481  0.6259  0.3519 -0.2221
 1443SOL     hw 5770   5.971   6.688   5.570  1.9852  0.3938 -0.4060
 1443SOL     hw 5771   5.994   6.721   5.424 -1.0257  0.7063 -0.8844
 1443SOL     vw 5772   5.965   6.667   5.485  0.5872  0.4041 -0.3335
 1444SOL     ow 5773   2.944   1.593   2.110 -0.0802 -0.0826  0.5136
 1444SOL     hw 5774   2.975   1.684   2.105 -2.0011  0.5581 -0.7934
 1444SOL     hw 5775   2.865   1.598   2.164 -2.1468 -0.3323 -2.3145
 1444SOL     vw 5776   2.938   1.606   2.117 -0.6063 -0.0311 -0.0319
 1445SOL     ow 5777   5.042   4.887   1.001 -0.1913  0.0288  0.7854
 1445SOL     hw 5778   5.102   4.874   0.928  3.6892  2.0717  3.2941
 1445SOL     hw 5779   4.977   4.949   0.968  1.0251  0.3845 -1.1049
 1445SOL     vw 5780   5.041   4.893   0.987  0.4811  0.3452  0.8670
 1446SOL     ow 5781   6.803   7.189   2.862  0.3859 -0.4725  0.6890
 1446SOL     hw 5782   6.709   7.205   2.867  0.0327 -1.8656 -0.5860
 1446SOL     hw 5783   6.838   7.261   2.810  0.1587  0.4024  1.7090
 1446SOL     vw 5784   6.795   7.200   2.856  0.3095 -0.5407  0.6554
 1447SOL     ow 5785   4.952   7.424   1.885 -0.0276 -0.6643 -0.0425
 1447SOL     hw 5786   4.963   7.456   1.795 -0.0433  0.7734  0.4389
 1447SOL     hw 5787   4.864   7.453   1.910  0.6206  0.4859  1.0112
 1447SOL     vw 5788   4.942   7.432   1.876  0.0560 -0.3231  0.1600
 1448SOL     ow 5789   7.636   7.261   4.065  0.4086 -0.2979  1.0120
 1448SOL     hw 5790   7.704   7.327   4.081 -2.4853  3.4973 -0.7176
 1448SOL     hw 5791   7.648   7.235   3.974 -0.3383  0.3499  0.7140
 1448SOL     vw 5792   7.647   7.266   4.055 -0.0720  0.2880  0.7446
 1449SOL     ow 5793   4.927   5.071   3.619  0.2490  0.5413 -0.2733
 1449SOL     hw 5794   4.930   5.147   3.561 -0.7843 -0.7084 -2.0462
 1449SOL     hw 5795   4.836   5.066   3.649  0.4589  0.3817  0.3510
 1449SOL     vw 5796   4.916   5.080   3.615  0.1404  0.3555 -0.4247
 1450SOL     ow 5797   3.438   3.265   7.137  0.5808  0.6538 -0.6465
 1450SOL     hw 5798   3.428   3.297   7.047 -0.0864  0.3598 -0.6893
 1450SOL     hw 5799   3.376   3.318   7.188  0.7380  0.6160 -0.4152
 1450SOL     vw 5800   3.428   3.277   7.132  0.5134  0.6100 -0.6216
 1451SOL     ow 5801   6.854   7.038   0.813  0.2471  0.7897  0.1764
 1451SOL     hw 5802   6.942   7.038   0.775 -0.2927 -0.6609 -1.2089
 1451SOL     hw 5803   6.810   7.113   0.773  0.0718 -0.0066 -1.1850
 1451SOL     vw 5804   6.859   7.048   0.802  0.1526  0.4930 -0.1860
 1452SOL     ow 5805   6.118   3.092   4.125 -0.6783 -0.1109  0.7071
 1452SOL     hw 5806   6.198   3.066   4.078 -1.3268 -0.9880  0.0563
 1452SOL     hw 5807   6.059   3.124   4.056 -0.8664  0.6045  1.1942
 1452SOL     vw 5808   6.121   3.092   4.109 -0.7887 -0.1322  0.6855
 1453SOL     ow 5809   4.907   4.615   5.251  0.0700  0.8472  0.8541
 1453SOL     hw 5810   4.874   4.528   5.229 -0.5720  0.8701  1.6948
 1453SOL     hw 5811   5.001   4.601   5.265  0.0097  0.3322  0.7813
 1453SOL     vw 5812   4.915   4.602   5.250 -0.0226  0.7820  0.9553
 1454SOL     ow 5813   4.116   5.594   6.896  0.3600  0.0088 -1.0083
 1454SOL     hw 5814   4.056   5.521   6.880  1.0354 -0.6401 -0.6359
 1454SOL     hw 5815   4.195   5.553   6.932  0.0510  1.0894  1.0743
 1454SOL     vw 5816   4.118   5.579   6.899  0.4084  0.0656 -0.6845
 1455SOL     ow 5817   2.550   0.080   0.712  1.0098 -0.1790 -1.0392
 1455SOL     hw 5818   2.593   0.065   0.796  0.5543 -1.2055 -0.9845
 1455SOL     hw 5819   2.458   0.062   0.728  0.9301 -0.4616 -1.7823
 1455SOL     vw 5820   2.544   0.076   0.725  0.9391 -0.3519 -1.1300
 1456SOL     ow 5821   1.552   1.366   3.479 -0.6514 -0.1320  0.5921
 1456SOL     hw 5822   1.637   1.406   3.461 -0.5267 -1.3512 -1.9773
 1456SOL     hw 5823   1.490   1.439   3.475  0.0740  0.5229  0.9287
 1456SOL     vw 5824   1.555   1.381   3.476 -0.5392 -0.2064  0.2975
 1457SOL     ow 5825   4.996   6.116   4.984  0.6874  0.0257  0.4836
 1457SOL     hw 5826   5.021   6.057   5.055  1.1057  0.6144  0.8384
 1457SOL     hw 5827   5.037   6.199   5.006 -1.9564  1.2154  1.3470
 1457SOL     vw 5828   5.005   6.119   4.996  0.3939  0.2604  0.6442
 1458SOL     ow 5829   1.671   6.216   2.397  0.0470  0.0228  0.1532
 1458SOL     hw 5830   1.719   6.149   2.447  1.6740  1.5738  0.8240
 1458SOL     hw 5831   1.597   6.239   2.453  0.8465  0.4538  1.0804
 1458SOL     vw 5832   1.668   6.210   2.411  0.3672  0.2844  0.3642
 1459SOL     ow 5833   2.466   4.709   5.871  0.0308  0.1870 -0.1327
 1459SOL     hw 5834   2.524   4.645   5.913 -0.9773 -0.4361  0.3404
 1459SOL     hw 5835   2.524   4.762   5.816  1.1435 -0.0247  0.8012
 1459SOL     vw 5836   2.481   4.708   5.869  0.0446  0.0770  0.0529
 1460SOL     ow 5837   6.912   5.527   0.921  0.2721  0.0464  0.1466
 1460SOL     hw 5838   6.976   5.469   0.881  0.4786  1.1430 -1.1886
 1460SOL     hw 5839   6.905   5.601   0.861  0.5621  1.7888  2.1195
 1460SOL     vw 5840   6.920   5.529   0.908  0.3376  0.4213  0.2307
 1461SOL     ow 5841   2.113   6.499   4.604  0.1297 -0.0620  0.2908
 1461SOL     hw 5842   2.131   6.464   4.517  1.5903 -0.5689  0.7662
 1461SOL     hw 5843   2.108   6.593   4.592  0.1868 -0.1361 -0.3586
 1461SOL     vw 5844   2.115   6.507   4.591  0.3299 -0.1388  0.2677
 1462SOL     ow 5845   1.972   4.082   6.578  0.3000  0.4907  0.2324
 1462SOL     hw 5846   1.991   4.157   6.635 -0.7055 -0.8168  2.4140
 1462SOL     hw 5847   1.878   4.087   6.563  0.0190 -0.9392  1.3702
 1462SOL     vw 5848   1.962   4.093   6.584  0.1303  0.1292  0.6704
 1463SOL     ow 5849   5.518   7.614   4.444  0.3683  0.8287 -0.1814
 1463SOL     hw 5850   5.557   7.666   4.375 -0.9329  1.4516 -0.4896
 1463SOL     hw 5851   5.502   7.528   4.404  2.4486  0.1790  0.3063
 1463SOL     vw 5852   5.521   7.610   4.430  0.4711  0.8254 -0.1574
 1464SOL     ow 5853   3.435   0.899   1.831 -0.0269 -0.1900  0.2480
 1464SOL     hw 5854   3.426   0.914   1.737 -1.5040 -2.7061 -0.1065
 1464SOL     hw 5855   3.529   0.891   1.846  0.2600  0.7879 -0.8831
 1464SOL     vw 5856   3.446   0.900   1.821 -0.1839 -0.3929  0.0520
 1465SOL     ow 5857   5.689   6.837   3.482  0.2402  0.8316  0.1029
 1465SOL     hw 5858   5.692   6.932   3.479 -1.9562  1.0009  1.0638
 1465SOL     hw 5859   5.605   6.814   3.443  0.8372 -0.7322 -0.3272
 1465SOL     vw 5860   5.678   6.846   3.477  0.0288  0.6478  0.1729
 1466SOL     ow 5861   1.239   0.370   1.558 -0.1959 -0.4987 -0.0073
 1466SOL     hw 5862   1.206   0.280   1.561 -2.5490  0.3024  0.2447
 1466SOL     hw 5863   1.169   0.422   1.596  1.0675  1.4776 -0.2629
 1466SOL     vw 5864   1.225   0.365   1.563 -0.3397 -0.1323 -0.0078
 1467SOL     ow 5865   7.081   1.261   0.552  0.0192  0.9276  0.2295
 1467SOL     hw 5866   7.116   1.194   0.611 -1.5984 -0.5335 -0.3741
 1467SOL     hw 5867   7.157   1.289   0.501  0.5402 -1.5675 -0.5353
 1467SOL     vw 5868   7.096   1.256   0.553 -0.1256  0.4057  0.0490
 1468SOL     ow 5869   6.653   5.489   6.107 -0.2150 -0.2491 -0.1459
 1468SOL     hw 5870   6.730   5.455   6.061  0.6600  1.8785 -0.3752
 1468SOL     hw 5871   6.688   5.521   6.190 -0.7228  1.2666 -0.4916
 1468SOL     vw 5872   6.668   5.489   6.112 -0.1667  0.2315 -0.2215
 1469SOL     ow 5873   1.222   2.099   4.905  0.7724  0.6682  0.4583
 1469SOL     hw 5874   1.296   2.038   4.897  0.1775 -0.1970  1.3790
 1469SOL     hw 5875   1.246   2.157   4.977  0.3617  0.0921  1.0665
 1469SOL     vw 5876   1.235   2.098   4.913  0.6397  0.4780  0.6597
 1470SOL     ow 5877   7.472   3.680   4.315 -0.8364  0.6507 -0.1628
 1470SOL     hw 5878   7.456   3.771   4.341 -0.6402  0.4193  0.8126
 1470SOL     hw 5879   7.385   3.639   4.316 -1.0538  1.0640 -1.5703
 1470SOL     vw 5880   7.458   3.686   4.319 -0.8390  0.6747 -0.2196
 1471SOL     ow 5881   0.549   0.624   1.283  0.1849  0.1090 -0.3223
 1471SOL     hw 5882   0.610   0.697   1.290  0.1520  0.4800 -2.9473
 1471SOL     hw 5883   0.551   0.599   1.191 -1.7987 -1.4785 -0.0243
 1471SOL     vw 5884   0.557   0.630   1.272 -0.0811 -0.0515 -0.6293
 1472SOL     ow 5885   4.101   5.319   0.873 -0.0141 -0.3266 -0.0897
 1472SOL     hw 5886   4.024   5.262   0.867 -0.6537  0.5782 -0.7926
 1472SOL     hw 5887   4.140   5.299   0.958 -1.9674  0.3537  1.0245
 1472SOL     vw 5888   4.096   5.309   0.883 -0.3562 -0.1175 -0.0354
 1473SOL     ow 5889   2.263   0.283   7.515  0.2009  0.0746  0.4319
 1473SOL     hw 5890   2.176   0.254   7.486  1.2223 -1.5428 -1.2499
 1473SOL     hw 5891   2.263   0.267   7.609 -1.1136 -0.4597  0.3739
 1473SOL     vw 5892   2.251   0.277   7.523  0.1622 -0.2093  0.2022
 1474SOL     ow 5893   0.191   1.228   4.071 -0.3960  1.0594  0.7553
 1474SOL     hw 5894   0.228   1.144   4.099 -1.5479  0.0376 -0.6290
 1474SOL     hw 5895   0.267   1.282   4.050  0.3580 -0.1237  0.3491
 1474SOL     vw 5896   0.206   1.224   4.072 -0.4485  0.7685  0.5190
 1475SOL     ow 5897   0.389   3.329   6.366 -0.0196  0.3856 -0.1205
 1475SOL     hw 5898   0.298   3.316   6.339 -0.3646 -0.7066  1.4773
 1475SOL     hw 5899   0.433   3.247   6.346  0.7973  1.0964 -1.4141
 1475SOL     vw 5900   0.383   3.317   6.359  0.0427  0.3353 -0.0801
 1476SOL     ow 5901   0.143   6.925   4.014 -0.4862 -0.3032 -0.2062
 1476SOL     hw 5902   0.225   6.946   3.969 -0.8473 -1.3925 -1.4282
 1476SOL     hw 5903   0.145   6.978   4.094  1.6230 -0.6432  0.0236
 1476SOL     vw 5904   0.154   6.935   4.019 -0.2556 -0.4919 -0.3369
 1477SOL     ow 5905   5.158   5.878   0.624  0.1048  0.4002  0.1579
 1477SOL     hw 5906   5.135   5.963   0.663 -1.3441  0.8099 -1.4292
 1477SOL     hw 5907   5.165   5.897   0.530  2.7822 -0.6578  0.0607
 1477SOL     vw 5908   5.156   5.892   0.616  0.2666  0.3150 -0.0643
 1478SOL     ow 5909   6.473   0.495   4.712  0.5198  0.0596  0.2467
 1478SOL     hw 5910   6.507   0.412   4.678 -1.5962 -0.3033 -1.1767
 1478SOL     hw 5911   6.404   0.470   4.773 -0.2410  0.7507 -0.3085
 1478SOL     vw 5912   6.468   0.481   4.715  0.1402  0.1029 -0.0141
 1479SOL     ow 5913   5.813   2.120   6.614 -0.0699 -0.3058  0.6542
 1479SOL     hw 5914   5.863   2.076   6.546 -0.9884 -0.2576 -0.0666
 1479SOL     hw 5915   5.872   2.122   6.690  0.9620 -0.3466 -0.1326
 1479SOL     vw 5916   5.827   2.114   6.615 -0.0548 -0.3049  0.4554
 1480SOL     ow 5917   5.224   3.414   4.545 -0.6929 -0.0661  0.0602
 1480SOL     hw 5918   5.295   3.411   4.481  0.9052  0.2103  1.7355
 1480SOL     hw 5919   5.267   3.436   4.627 -2.7463  0.1216  1.1445
 1480SOL     vw 5920   5.239   3.416   4.547 -0.7527 -0.0048  0.4241
 1481SOL     ow 5921   2.326   7.307   0.985 -0.1432 -0.1158  0.1946
 1481SOL     hw 5922   2.341   7.381   1.044  0.1672  1.3778 -1.6619
 1481SOL     hw 5923   2.295   7.347   0.903 -1.2973 -2.1549 -0.4470
 1481SOL     vw 5924   2.324   7.322   0.982 -0.2545 -0.1881 -0.1350
 1482SOL     ow 5925   6.395   0.543   6.977 -0.5292 -0.3580  0.3346
 1482SOL     hw 5926   6.393   0.536   7.073  0.8466 -3.4286  0.2484
 1482SOL     hw 5927   6.450   0.618   6.960  2.7352 -2.1361  2.0724
 1482SOL     vw 5928   6.402   0.552   6.988  0.0830 -0.9977  0.5527
 1483SOL     ow 5929   3.778   4.051   6.642  0.2726  0.4080  0.1546
 1483SOL     hw 5930   3.749   3.980   6.698  0.5176 -1.2579 -1.7010
 1483SOL     hw 5931   3.869   4.066   6.666 -0.1004  0.8700  1.3037
 1483SOL     vw 5932   3.786   4.044   6.652  0.2557  0.2491  0.0613
 1484SOL     ow 5933   0.321   3.157   6.785 -0.7140 -0.0132 -0.2011
 1484SOL     hw 5934   0.241   3.155   6.838 -0.1819 -2.8939  0.6962
 1484SOL     hw 5935   0.295   3.118   6.701 -0.5123  0.2598 -0.3940
 1484SOL     vw 5936   0.307   3.152   6.781 -0.6171 -0.3574 -0.1085
 1485SOL     ow 5937   4.911   1.336   2.041 -0.5581 -0.1426  0.2415
 1485SOL     hw 5938   4.994   1.299   2.011 -0.6926 -0.1988 -0.0615
 1485SOL     hw 5939   4.845   1.302   1.980 -0.8315 -0.2452  0.5894
 1485SOL     vw 5940   4.913   1.326   2.029 -0.6118 -0.1636  0.2474
 1486SOL     ow 5941   4.674   5.435   0.098  0.5863 -0.4469 -0.0616
 1486SOL     hw 5942   4.696   5.358   0.150  3.5793  1.1171  1.2836
 1486SOL     hw 5943   4.670   5.507   0.162  3.5167  1.4055 -1.7250
 1486SOL     vw 5944   4.676   5.435   0.113  1.3680  0.0036 -0.1036
 1487SOL     ow 5945   7.367   6.105   1.471  0.6829  0.4170 -0.2882
 1487SOL     hw 5946   7.292   6.096   1.412  1.1300 -1.4014 -0.6488
 1487SOL     hw 5947   7.427   6.035   1.445  0.3458 -1.3623  3.1060
 1487SOL     vw 5948   7.365   6.094   1.460  0.6976 -0.0577  0.1121
 1488SOL     ow 5949   6.521   3.697   0.475  1.0688 -0.3653  0.0690
 1488SOL     hw 5950   6.462   3.680   0.401  1.0397  0.2147 -0.0443
 1488SOL     hw 5951   6.564   3.613   0.491  1.0774 -0.4984 -0.6114
 1488SOL     vw 5952   6.519   3.683   0.467  1.0660 -0.3062 -0.0357
 1489SOL     ow 5953   1.883   6.044   0.760 -0.3641  0.2461  0.5426
 1489SOL     hw 5954   1.864   5.956   0.727 -1.7054  1.1393 -1.2340
 1489SOL     hw 5955   1.813   6.062   0.823  0.7353 -0.4514  2.0508
 1489SOL     vw 5956   1.871   6.035   0.764 -0.3960  0.2720  0.5072
 1490SOL     ow 5957   1.789   7.072   2.252  0.1478 -0.3357  0.3398
 1490SOL     hw 5958   1.733   7.034   2.184  0.4296  1.1140 -0.7369
 1490SOL     hw 5959   1.865   7.013   2.256 -0.7001 -1.4518  0.7301
 1490SOL     vw 5960   1.792   7.059   2.244  0.0731 -0.2916  0.2493
 1491SOL     ow 5961   5.845   6.731   5.101 -0.0855 -0.2168 -0.5912
 1491SOL     hw 5962   5.804   6.652   5.138  0.4497 -0.5130 -0.6206
 1491SOL     hw 5963   5.797   6.746   5.019 -2.2932  1.3253  0.8962
 1491SOL     vw 5964   5.833   6.722   5.095 -0.3064 -0.0527 -0.3989
 1492SOL     ow 5965   2.629   2.147   0.104  0.4669 -0.5126 -0.3848
 1492SOL     hw 5966   2.651   2.211   0.171  2.3935 -1.1267 -0.3713
 1492SOL     hw 5967   2.589   2.074   0.153 -0.6766  0.1696 -0.2691
 1492SOL     vw 5968   2.627   2.146   0.119  0.5702 -0.5037 -0.3677
 1493SOL     ow 5969   6.296   6.813   7.245  0.1217 -0.6417  0.6588
 1493SOL     hw 5970   6.242   6.825   7.324  0.7718  0.5319  0.9488
 1493SOL     hw 5971   6.242   6.846   7.174  0.3445  0.3161  0.9173
 1493SOL     vw 5972   6.282   6.819   7.246  0.2367 -0.3605  0.7315
 1494SOL     ow 5973   6.975   5.432   5.021 -0.2142  0.0208 -0.6642
 1494SOL     hw 5974   6.965   5.514   5.069  0.9554  0.7021 -1.5275
 1494SOL     hw 5975   7.069   5.417   5.018 -0.2184  0.0663 -2.7843
 1494SOL     vw 5976   6.986   5.441   5.027 -0.0603  0.1168 -1.0579
 1495SOL     ow 5977   4.912   0.383   1.610 -0.6673 -1.4970 -0.3281
 1495SOL     hw 5978   4.912   0.443   1.536 -2.1148 -1.3025 -0.2146
 1495SOL     hw 5979   4.999   0.344   1.610  0.5101  0.9839 -0.0514
 1495SOL     vw 5980   4.923   0.385   1.600 -0.7031 -1.1440 -0.2767
 1496SOL     ow 5981   6.013   3.518   3.911 -1.3763 -0.2835  0.0916
 1496SOL     hw 5982   6.023   3.610   3.887  1.7250 -0.5499 -0.0339
 1496SOL     hw 5983   5.991   3.520   4.004 -0.9321  0.6132  0.1894
 1496SOL     vw 5984   6.012   3.530   3.920 -0.9089 -0.2004  0.0879
 1497SOL     ow 5985   4.737   4.143   3.472 -0.4544 -0.0308 -0.3336
 1497SOL     hw 5986   4.738   4.205   3.400 -1.6992 -1.6310 -1.7972
 1497SOL     hw 5987   4.645   4.133   3.494 -0.0725  0.9781  2.0592
 1497SOL     vw 5988   4.725   4.150   3.466 -0.5684 -0.1087 -0.2110
 1498SOL     ow 5989   3.087   3.904   2.091  0.4714  0.2026  0.0302
 1498SOL     hw 5990   3.015   3.922   2.032  0.6339 -0.6812 -0.4624
 1498SOL     hw 5991   3.166   3.920   2.038  0.6202  0.0185  0.1942
 1498SOL     vw 5992   3.088   3.908   2.076  0.5122  0.0616 -0.0131
 1499SOL     ow 5993   2.058   5.987   5.024  0.4728  0.0181  0.6439
 1499SOL     hw 5994   2.145   6.011   5.055  0.4318  1.3502 -0.1696
 1499SOL     hw 5995   2.007   6.068   5.031 -0.2330 -0.3111 -0.4148
 1499SOL     vw 5996   2.063   6.001   5.029  0.3743  0.1504  0.3970
 1500SOL     ow 5997   1.428   5.065   4.847 -0.3189 -0.3924 -0.5140
 1500SOL     hw 5998   1.335   5.069   4.867 -0.0585 -0.5587  0.8603
 1500SOL     hw 5999   1.433   5.060   4.751 -1.6812  0.2660 -0.6373
 1500SOL     vw 6000   1.417   5.065   4.837 -0.4643 -0.3273 -0.3486
 1501SOL     ow 6001   5.226   0.171   4.529  0.0006  0.0555 -0.3619
 1501SOL     hw 6002   5.266   0.228   4.463  0.2065  1.1314  0.6721
 1501SOL     hw 6003   5.301   0.131   4.574 -0.1079  0.5744  0.2878
 1501SOL     vw 6004   5.242   0.173   4.526  0.0136  0.2659 -0.1397
 1502SOL     ow 6005   7.381   3.293   6.653  0.1966  0.0630 -0.3282
 1502SOL     hw 6006   7.361   3.313   6.745 -2.0794 -1.1720 -0.4872
 1502SOL     hw 6007   7.476   3.289   6.650  0.4867  2.6832  1.3936
 1502SOL     vw 6008   7.391   3.295   6.665 -0.0656  0.2458 -0.1221
 1503SOL     ow 6009   5.473   4.277   0.821  0.2165 -0.4452 -0.0932
 1503SOL     hw 6010   5.452   4.301   0.911  0.8044 -0.0829 -0.0480
 1503SOL     hw 6011   5.388   4.261   0.780 -0.1448  0.7287  0.1587
 1503SOL     vw 6012   5.459   4.278   0.828  0.2465 -0.2425 -0.0540
 1504SOL     ow 6013   7.454   5.087   6.510 -0.4471  0.0772  0.1432
 1504SOL     hw 6014   7.433   4.994   6.504  3.0840 -0.9701  1.5430
 1504SOL     hw 6015   7.480   5.112   6.421 -2.4121  0.1044 -0.4732
 1504SOL     vw 6016   7.455   5.078   6.498 -0.2403 -0.0572  0.2465
 1505SOL     ow 6017   5.980   1.925   6.469 -0.6906 -0.5691  0.0494
 1505SOL     hw 6018   5.983   1.932   6.374 -0.4615  0.5981  0.1290
 1505SOL     hw 6019   5.945   1.837   6.486 -0.3310 -0.9483 -1.1003
 1505SOL     vw 6020   5.976   1.914   6.459 -0.6130 -0.4652 -0.0918
 1506SOL     ow 6021   5.707   6.080   1.095 -0.1104 -0.2980  0.1877
 1506SOL     hw 6022   5.673   6.039   1.016 -3.1952  2.3239 -0.0511
 1506SOL     hw 6023   5.779   6.023   1.122  0.2893 -2.0021 -3.7401
 1506SOL     vw 6024   5.712   6.067   1.088 -0.4644 -0.1769 -0.3620
 1507SOL     ow 6025   5.481   1.683   0.363  0.0501 -0.2695 -0.3122
 1507SOL     hw 6026   5.529   1.610   0.402 -1.2057 -0.6079  0.6746
 1507SOL     hw 6027   5.542   1.720   0.300  2.4134  0.5968  2.2567
 1507SOL     vw 6028   5.495   1.678   0.360  0.1962 -0.1998  0.1569
 1508SOL     ow 6029   4.707   3.141   0.722 -0.0536 -0.5284 -0.3941
 1508SOL     hw 6030   4.685   3.234   0.721  0.1096 -0.4667  0.6999
 1508SOL     hw 6031   4.635   3.100   0.771  0.0552 -0.9294 -0.5625
 1508SOL     vw 6032   4.694   3.148   0.728 -0.0176 -0.5730 -0.2720
 1509SOL     ow 6033   0.409   7.122   2.356  0.2459 -0.2177 -0.4590
 1509SOL     hw 6034   0.479   7.072   2.313  0.5857  0.6921 -0.9830
 1509SOL     hw 6035   0.445   7.210   2.366 -0.8819  0.3152 -0.8886
 1509SOL     vw 6036   0.423   7.127   2.352  0.1419 -0.0274 -0.5847
 1510SOL     ow 6037   5.895   0.565   0.974 -0.0772  0.6466 -0.0408
 1510SOL     hw 6038   5.867   0.656   0.986  1.2985  1.0566  0.2959
 1510SOL     hw 6039   5.988   0.572   0.950 -0.6209 -0.5306 -2.9323
 1510SOL     vw 6040   5.904   0.578   0.973  0.0324  0.5454 -0.3779
 1511SOL     ow 6041   6.111   1.427   6.433  0.6905  0.9103  0.3657
 1511SOL     hw 6042   6.016   1.425   6.447  0.5616  2.0764 -0.1626
 1511SOL     hw 6043   6.148   1.399   6.516 -0.1151  1.9312  1.0988
 1511SOL     vw 6044   6.104   1.423   6.445  0.5672  1.1988  0.3927
 1512SOL     ow 6045   5.502   0.077   7.574  0.2232  0.5488  0.0776
 1512SOL     hw 6046   5.453   0.055   7.494  0.5923  0.0960 -0.0285
 1512SOL     hw 6047   5.435   0.084   7.642 -0.2261  2.0357 -0.4827
 1512SOL     vw 6048   5.486   0.075   7.572  0.2129  0.6852 -0.0105
 1513SOL     ow 6049   4.674   7.341   0.786  0.5166  0.1429 -0.6261
 1513SOL     hw 6050   4.701   7.264   0.736 -2.1939 -0.3840 -1.4374
 1513SOL     hw 6051   4.622   7.393   0.725  1.7416  2.3614  0.0935
 1513SOL     vw 6052   4.671   7.338   0.771  0.3204  0.3662 -0.6382
 1514SOL     ow 6053   1.454   3.930   0.475  0.1319 -0.1006  0.2828
 1514SOL     hw 6054   1.443   3.992   0.402  1.0197 -0.3748 -0.1014
 1514SOL     hw 6055   1.413   3.974   0.550 -2.3086 -0.5305 -0.7095
 1514SOL     vw 6056   1.447   3.944   0.475 -0.0730 -0.1935  0.1012
 1515SOL     ow 6057   7.408   1.342   1.181 -0.5079  0.0746 -0.3263
 1515SOL     hw 6058   7.435   1.308   1.095 -0.5761  1.5302 -0.9424
 1515SOL     hw 6059   7.373   1.429   1.163 -0.8310  0.2764  1.1510
 1515SOL     vw 6060   7.407   1.349   1.167 -0.5596  0.2933 -0.2126
 1516SOL     ow 6061   6.942   0.659   1.987  0.2103 -0.3128 -0.2336
 1516SOL     hw 6062   6.897   0.729   1.941  0.2198 -0.2037 -0.0764
 1516SOL     hw 6063   6.888   0.582   1.972  0.1563 -0.2540 -0.3368
 1516SOL     vw 6064   6.929   0.658   1.979  0.2043 -0.2906 -0.2265
 1517SOL     ow 6065   3.700   6.416   5.545  0.2000 -0.9549 -0.4970
 1517SOL     hw 6066   3.669   6.356   5.613  1.2399  3.3596  4.3964
 1517SOL     hw 6067   3.795   6.411   5.550  0.3329 -1.0124 -2.2825
 1517SOL     vw 6068   3.708   6.407   5.554  0.3546 -0.3932 -0.0870
 1518SOL     ow 6069   6.220   4.430   4.541  0.2730 -0.1934  0.2051
 1518SOL     hw 6070   6.181   4.510   4.577  2.6210  0.7233  0.8625
 1518SOL     hw 6071   6.180   4.359   4.591 -1.9772  0.4897 -0.4976
 1518SOL     vw 6072   6.209   4.431   4.552  0.2859  0.0176  0.1993
 1519SOL     ow 6073   2.992   5.948   2.438  0.0226  0.5712 -0.0146
 1519SOL     hw 6074   2.975   5.955   2.532  1.6088  3.9239  0.1876
 1519SOL     hw 6075   2.907   5.929   2.399 -0.5790 -1.3610  2.0856
 1519SOL     vw 6076   2.979   5.947   2.445  0.1525  0.7584  0.2893
 1520SOL     ow 6077   2.663   2.359   0.289 -0.2488 -0.0810 -0.4773
 1520SOL     hw 6078   2.582   2.334   0.334 -0.0651 -0.7884 -0.5317
 1520SOL     hw 6079   2.733   2.322   0.343 -0.0751 -3.1782 -2.6084
 1520SOL     vw 6080   2.661   2.351   0.302 -0.2015 -0.5829 -0.7656
 1521SOL     ow 6081   2.037   4.384   2.169 -0.3321 -0.4798 -0.0018
 1521SOL     hw 6082   2.088   4.455   2.209 -1.6482  1.6164 -1.7694
 1521SOL     hw 6083   2.094   4.308   2.173  1.7287  1.0154  0.7920
 1521SOL     vw 6084   2.051   4.384   2.175 -0.2339 -0.0060 -0.1301
 1522SOL     ow 6085   7.279   5.518   2.223 -0.2334 -0.3425 -0.3538
 1522SOL     hw 6086   7.358   5.569   2.243  0.2600 -1.1914 -0.0694
 1522SOL     hw 6087   7.207   5.575   2.250  0.2508  0.6901 -1.1719
 1522SOL     vw 6088   7.280   5.532   2.229 -0.1044 -0.3181 -0.4240
 1523SOL     ow 6089   3.989   5.616   7.414  0.4896  0.3151 -0.8185
 1523SOL     hw 6090   3.969   5.658   7.497 -1.0100  0.7407 -1.3490
 1523SOL     hw 6091   3.914   5.638   7.358  1.0141 -0.7367 -1.9824
 1523SOL     vw 6092   3.976   5.624   7.417  0.3608  0.2325 -1.0419
 1524SOL     ow 6093   1.938   7.159   3.413  0.3657 -0.1372  0.2493
 1524SOL     hw 6094   1.986   7.084   3.449  0.6232 -0.4097 -0.6151
 1524SOL     hw 6095   1.861   7.120   3.371  1.5716 -0.2049 -2.0690
 1524SOL     vw 6096   1.934   7.144   3.412  0.5587 -0.1822 -0.1706
 1525SOL     ow 6097   6.044   0.354   3.587  0.4719  0.4418 -0.0449
 1525SOL     hw 6098   6.037   0.320   3.676 -0.2666  0.1367 -0.2043
 1525SOL     hw 6099   5.961   0.327   3.546  1.2626 -0.3846 -1.1475
 1525SOL     vw 6100   6.032   0.346   3.593  0.4787  0.2925 -0.2114
 1526SOL     ow 6101   6.906   6.083   2.954  0.0515  0.0616 -0.4305
 1526SOL     hw 6102   6.935   5.993   2.940  0.6673  0.4455 -1.8451
 1526SOL     hw 6103   6.985   6.136   2.944 -0.3571  0.7935  0.0805
 1526SOL     vw 6104   6.920   6.078   2.951  0.0789  0.2089 -0.5498
 1527SOL     ow 6105   6.323   1.089   2.323  0.1454 -0.0508 -0.1694
 1527SOL     hw 6106   6.271   1.022   2.278 -0.4576  1.0209 -1.1267
 1527SOL     hw 6107   6.334   1.055   2.412 -2.8128 -0.0339  0.3068
 1527SOL     vw 6108   6.318   1.075   2.328 -0.3245  0.0928 -0.2329
 1528SOL     ow 6109   2.127   3.649   3.366  0.1056  0.2265 -0.8497
 1528SOL     hw 6110   2.112   3.696   3.284 -3.0826  1.3498  0.1950
 1528SOL     hw 6111   2.169   3.713   3.424  0.7798 -0.0043 -1.0828
 1528SOL     vw 6112   2.130   3.664   3.363 -0.2260  0.3444 -0.7427
 1529SOL     ow 6113   2.962   4.047   1.280  0.1256 -0.1555  0.1210
 1529SOL     hw 6114   2.903   3.982   1.317 -1.5057  1.1806 -0.0039
 1529SOL     hw 6115   2.952   4.037   1.186 -0.5932  0.6236  0.0980
 1529SOL     vw 6116   2.953   4.037   1.273 -0.1845  0.1233  0.1014
 1530SOL     ow 6117   6.916   0.897   2.581 -0.2036 -0.0009  0.1365
 1530SOL     hw 6118   6.902   0.952   2.504  0.9548  0.1777  0.0429
 1530SOL     hw 6119   6.950   0.956   2.648  1.8038 -0.6925 -0.2045
 1530SOL     vw 6120   6.918   0.912   2.580  0.2141 -0.0685  0.0790
 1531SOL     ow 6121   2.895   2.070   6.978 -0.3164  0.1549  0.5367
 1531SOL     hw 6122   2.881   2.164   6.990  1.2951  0.5156 -0.1216
 1531SOL     hw 6123   2.848   2.049   6.897 -0.1718  0.5253  0.3534
 1531SOL     vw 6124   2.887   2.080   6.969 -0.0848  0.2514  0.4256
 1532SOL     ow 6125   4.424   1.798   0.858  0.3233  0.2473 -0.6384
 1532SOL     hw 6126   4.473   1.875   0.827  1.5529  0.3797  1.4557
 1532SOL     hw 6127   4.400   1.819   0.948  0.9286 -1.9077  0.0845
 1532SOL     vw 6128   4.427   1.811   0.866  0.5653 -0.0196 -0.2667
 1533SOL     ow 6129   6.813   7.242   7.008 -0.2462  0.0104 -0.2962
 1533SOL     hw 6130   6.810   7.295   7.088 -2.3633  0.6316 -0.7394
 1533SOL     hw 6131   6.744   7.177   7.020 -0.2428 -0.2053 -1.4132
 1533SOL     vw 6132   6.804   7.241   7.020 -0.5252  0.0641 -0.5019
 1534SOL     ow 6133   7.105   2.795   3.713  0.3077 -0.0045 -0.0619
 1534SOL     hw 6134   7.190   2.757   3.689 -0.8219 -1.5413 -1.8676
 1534SOL     hw 6135   7.071   2.736   3.781 -0.7215 -1.3869 -1.7025
 1534SOL     vw 6136   7.112   2.782   3.719  0.0231 -0.3897 -0.5167
 1535SOL     ow 6137   3.851   5.102   0.105 -0.2724  0.0524 -0.6717
 1535SOL     hw 6138   3.852   5.013   0.141 -0.8945  0.3113  0.0116
 1535SOL     hw 6139   3.857   5.159   0.182 -0.1408  0.6114 -1.0880
 1535SOL     vw 6140   3.852   5.098   0.120 -0.3371  0.1607 -0.6364
 1536SOL     ow 6141   6.839   7.428   7.211 -0.2663 -0.0178 -0.3618
 1536SOL     hw 6142   6.768   7.492   7.209 -0.0874  0.1740 -0.6062
 1536SOL     hw 6143   6.899   7.456   7.142  0.7720  0.6447  0.7716
 1536SOL     vw 6144   6.838   7.440   7.202 -0.1054  0.0947 -0.2449
 1537SOL     ow 6145   2.434   2.355   4.216  0.2841  1.2032  0.2899
 1537SOL     hw 6146   2.423   2.361   4.121  1.4689  1.3245  0.1447
 1537SOL     hw 6147   2.371   2.289   4.243  1.8115 -0.9154 -0.9881
 1537SOL     vw 6148   2.424   2.347   4.207  0.6417  0.9397  0.1020
 1538SOL     ow 6149   0.264   6.370   4.269 -0.7648  0.3592 -0.4425
 1538SOL     hw 6150   0.187   6.313   4.272 -0.5122  0.0340  0.5221
 1538SOL     hw 6151   0.257   6.423   4.349  1.1927 -1.3071  0.9479
 1538SOL     vw 6152   0.253   6.369   4.280 -0.4732  0.0961 -0.1314
 1539SOL     ow 6153   3.833   6.116   0.933  0.4721 -0.1701  0.3228
 1539SOL     hw 6154   3.848   6.023   0.913  0.4363 -0.1234  0.0837
 1539SOL     hw 6155   3.898   6.136   1.001  2.5865  0.4432 -1.7582
 1539SOL     vw 6156   3.844   6.106   0.939  0.7464 -0.0834  0.0167
 1540SOL     ow 6157   6.120   4.793   2.028 -0.7726 -0.6258  0.2475
 1540SOL     hw 6158   6.072   4.722   2.071 -1.2064 -0.5381 -0.0898
 1540SOL     hw 6159   6.053   4.857   2.003 -0.5196 -0.6111 -0.4381
 1540SOL     vw 6160   6.105   4.792   2.030 -0.7966 -0.6125  0.1125
 1541SOL     ow 6161   0.199   1.083   1.728 -0.4426  0.4011 -0.0275
 1541SOL     hw 6162   0.265   1.024   1.765 -0.5692  2.2968  3.6330
 1541SOL     hw 6163   0.241   1.168   1.725 -2.2582  1.4205  1.2226
 1541SOL     vw 6164   0.213   1.086   1.733 -0.6988  0.7858  0.6204
 1542SOL     ow 6165   0.987   6.003   1.212 -0.1231 -0.2233 -0.2062
 1542SOL     hw 6166   0.935   6.083   1.219 -0.1248 -0.1875 -0.5646
 1542SOL     hw 6167   0.922   5.934   1.193  0.0606  0.0216 -1.8917
 1542SOL     vw 6168   0.972   6.004   1.210 -0.0991 -0.1864 -0.4758
 1543SOL     ow 6169   3.019   3.456   5.298 -0.2424 -0.1003  0.0053
 1543SOL     hw 6170   3.044   3.491   5.212 -2.2287  0.2418 -0.4904
 1543SOL     hw 6171   2.944   3.509   5.324 -1.0029 -1.5755  0.9738
 1543SOL     vw 6172   3.012   3.468   5.290 -0.6046 -0.2499  0.0677
 1544SOL     ow 6173   1.467   3.524   5.765  0.1760  0.2443 -0.7477
 1544SOL     hw 6174   1.511   3.592   5.817 -0.7650  0.8957 -0.7883
 1544SOL     hw 6175   1.473   3.445   5.819 -0.6236  0.8661  0.2984
 1544SOL     vw 6176   1.474   3.522   5.779 -0.0537  0.4122 -0.6149
 1545SOL     ow 6177   4.911   6.449   3.930 -0.4192 -0.1815 -0.7948
 1545SOL     hw 6178   4.906   6.401   3.847 -0.8712  1.0876 -1.5335
 1545SOL     hw 6179   4.894   6.540   3.906  1.2686  0.5103  0.4175
 1545SOL     vw 6180   4.908   6.455   3.916 -0.2561  0.0772 -0.7324
 1546SOL     ow 6181   6.901   4.306   5.519  0.7472  0.2224  0.1039
 1546SOL     hw 6182   6.960   4.247   5.472 -1.8299  0.4986 -4.0363
 1546SOL     hw 6183   6.863   4.253   5.588  1.8142 -1.5795 -0.6364
 1546SOL     vw 6184   6.904   4.292   5.522  0.5479  0.0210 -0.5400
 1547SOL     ow 6185   5.137   2.577   6.541  0.6620 -0.4388 -0.0380
 1547SOL     hw 6186   5.231   2.569   6.526  0.5980  0.5705 -1.1660
 1547SOL     hw 6187   5.130   2.635   6.617  0.9653  0.2509 -0.5209
 1547SOL     vw 6188   5.149   2.584   6.549  0.6936 -0.2147 -0.2508
 1548SOL     ow 6189   0.506   1.646   5.762  0.1915 -0.7719 -0.0461
 1548SOL     hw 6190   0.423   1.599   5.771 -1.0437  1.1354 -0.7556
 1548SOL     hw 6191   0.522   1.651   5.668  0.8817 -0.7444  0.0660
 1548SOL     vw 6192   0.497   1.641   5.751  0.1196 -0.5166 -0.1249
 1549SOL     ow 6193   6.375   3.556   2.715 -0.2580  0.4948  0.8205
 1549SOL     hw 6194   6.460   3.521   2.691 -0.4454 -0.5821  1.6588
 1549SOL     hw 6195   6.372   3.551   2.810 -2.1760 -1.8726  0.7413
 1549SOL     vw 6196   6.386   3.551   2.724 -0.5357  0.0404  0.9208
 1550SOL     ow 6197   5.843   4.392   5.743 -0.7682 -0.1908 -0.0976
 1550SOL     hw 6198   5.783   4.449   5.792  0.5161  2.8503 -1.7824
 1550SOL     hw 6199   5.815   4.401   5.652  0.8011 -0.5808 -0.6469
 1550SOL     vw 6200   5.831   4.401   5.738 -0.3922  0.1588 -0.3924
 1551SOL     ow 6201   3.176   1.454   2.147 -0.0822 -0.5573  0.3979
 1551SOL     hw 6202   3.106   1.509   2.111 -1.5777 -3.2097 -1.1022
 1551SOL     hw 6203   3.210   1.504   2.222 -0.9758  2.5233 -1.0860
 1551SOL     vw 6204   3.171   1.468   2.152 -0.3974 -0.5008  0.0042
 1552SOL     ow 6205   1.921   0.834   7.302  0.7153 -0.8086 -0.0127
 1552SOL     hw 6206   1.947   0.903   7.364  0.5368 -0.0999 -0.7171
 1552SOL     hw 6207   1.942   0.870   7.216 -2.0159 -0.4529 -0.6012
 1552SOL     vw 6208   1.927   0.848   7.299  0.3315 -0.6682 -0.1829
 1553SOL     ow 6209   2.832   5.284   4.058 -0.0890  0.5324 -0.6940
 1553SOL     hw 6210   2.754   5.290   4.004 -0.8657 -2.9693 -0.1836
 1553SOL     hw 6211   2.811   5.335   4.136 -1.7352  0.0175 -0.7565
 1553SOL     vw 6212   2.819   5.291   4.061 -0.4088  0.0024 -0.6351
 1554SOL     ow 6213   3.801   1.346   6.527  0.4438  0.2775  0.0057
 1554SOL     hw 6214   3.773   1.416   6.468 -0.8905  2.3543  2.8760
 1554SOL     hw 6215   3.894   1.363   6.543 -0.2131  2.4858  1.8940
 1554SOL     vw 6216   3.809   1.357   6.522  0.1811  0.8429  0.6337
 1555SOL     ow 6217   2.132   2.053   4.551  0.3116 -0.0187 -0.5283
 1555SOL     hw 6218   2.201   2.095   4.602  0.8256 -0.6421 -0.6985
 1555SOL     hw 6219   2.074   2.013   4.616  0.9617 -0.8050 -0.4223
 1555SOL     vw 6220   2.133   2.053   4.566  0.4653 -0.2047 -0.5369
 1556SOL     ow 6221   0.225   3.638   4.605 -0.0243 -0.5187 -0.2239
 1556SOL     hw 6222   0.235   3.555   4.558 -1.0407 -0.2610 -0.9348
 1556SOL     hw 6223   0.147   3.678   4.566  0.3726  0.7132  0.2004
 1556SOL     vw 6224   0.216   3.633   4.593 -0.1060 -0.3221 -0.2620
 1557SOL     ow 6225   1.783   4.220   5.582  0.2880  0.1038 -0.1760
 1557SOL     hw 6226   1.863   4.176   5.553 -0.8281 -0.7327 -2.2201
 1557SOL     hw 6227   1.812   4.286   5.645  2.7089  0.5228 -1.6231
 1557SOL     vw 6228   1.797   4.223   5.586  0.4602  0.0486 -0.6368
 1558SOL     ow 6229   3.981   7.619   2.146  0.6268 -0.0462 -0.2437
 1558SOL     hw 6230   4.003   7.589   2.235  1.1794  0.9297 -0.0358
 1558SOL     hw 6231   4.066   7.632   2.104  0.3979  1.0613 -0.3737
 1558SOL     vw 6232   3.995   7.616   2.152  0.6695  0.2287 -0.2334
 1559SOL     ow 6233   1.372   0.396   4.151  0.3013 -0.3101  0.3726
 1559SOL     hw 6234   1.323   0.322   4.115  0.8813  0.0766 -1.2890
 1559SOL     hw 6235   1.317   0.473   4.133  1.4127  0.1130 -1.4110
 1559SOL     vw 6236   1.358   0.396   4.144  0.5244 -0.2033 -0.0820
 1560SOL     ow 6237   7.321   1.292   0.401  0.7608 -0.4904 -0.0015
 1560SOL     hw 6238   7.367   1.340   0.470  0.1710  0.5009 -0.2728
 1560SOL     hw 6239   7.338   1.200   0.420  2.0230 -0.1719  0.4645
 1560SOL     vw 6240   7.329   1.286   0.413  0.8495 -0.3176  0.0241
 1561SOL     ow 6241   1.762   5.473   3.704  0.5684 -0.3818 -0.1502
 1561SOL     hw 6242   1.721   5.545   3.656  0.0417 -2.3272 -2.8645
 1561SOL     hw 6243   1.691   5.437   3.758  0.4740  0.2514  0.1565
 1561SOL     vw 6244   1.747   5.478   3.705  0.4864 -0.5548 -0.4679
 1562SOL     ow 6245   4.362   6.146   7.370 -0.1014  0.8247  0.1343
 1562SOL     hw 6246   4.341   6.239   7.374 -0.1508  0.7739  1.4553
 1562SOL     hw 6247   4.454   6.141   7.395 -0.5017  0.4089  1.6468
 1562SOL     vw 6248   4.371   6.158   7.374 -0.1607  0.7632  0.5081
 1563SOL     ow 6249   2.958   2.096   5.327  0.0525 -0.0950  0.1819
 1563SOL     hw 6250   2.931   2.187   5.312 -0.3867 -0.3683 -0.7765
 1563SOL     hw 6251   3.040   2.087   5.278  1.1413  0.3016  1.8472
 1563SOL     vw 6252   2.965   2.107   5.318  0.1384 -0.0786  0.2754
 1564SOL     ow 6253   5.101   5.770   4.922  0.1102 -0.2301  0.0093
 1564SOL     hw 6254   5.017   5.789   4.966 -0.5386 -1.4704 -0.6588
 1564SOL     hw 6255   5.101   5.675   4.911  1.7094 -0.2657  0.1634
 1564SOL     vw 6256   5.090   5.760   4.926  0.2358 -0.3986 -0.0587
 1565SOL     ow 6257   4.861   2.155   7.519  0.1606  0.2875 -0.0130
 1565SOL     hw 6258   4.805   2.077   7.523 -1.2907  1.2091 -1.1995
 1565SOL     hw 6259   4.931   2.137   7.581 -1.5612 -0.8468  1.7238
 1565SOL     vw 6260   4.862   2.142   7.528 -0.2582  0.2595  0.0591
 1566SOL     ow 6261   2.202   3.967   6.094 -0.1940 -0.2275  0.1818
 1566SOL     hw 6262   2.228   3.875   6.088 -0.1509 -0.2068  0.0551
 1566SOL     hw 6263   2.128   3.975   6.034 -0.4915 -0.2823  0.5297
 1566SOL     vw 6264   2.196   3.956   6.085 -0.2276 -0.2320  0.2110
 1567SOL     ow 6265   3.755   5.766   2.657  0.4734 -0.0391  0.3415
 1567SOL     hw 6266   3.675   5.793   2.611  1.7080  1.9064 -0.7813
 1567SOL     hw 6267   3.774   5.679   2.622 -0.0493  0.3154 -0.8976
 1567SOL     vw 6268   3.747   5.758   2.647  0.5672  0.2644  0.0299
 1568SOL     ow 6269   4.077   4.327   4.607 -0.4799  0.2743 -0.7129
 1568SOL     hw 6270   4.109   4.406   4.563 -0.0556 -0.0813 -1.0420
 1568SOL     hw 6271   4.112   4.254   4.556  0.6739 -0.1622  0.6546
 1568SOL     vw 6272   4.086   4.328   4.594 -0.2718  0.1700 -0.5760
 1569SOL     ow 6273   6.198   6.921   5.665 -0.9611 -0.0586 -0.4739
 1569SOL     hw 6274   6.275   6.969   5.697 -0.9442  0.0433 -0.6667
 1569SOL     hw 6275   6.201   6.932   5.570 -0.5963 -0.9839 -0.5878
 1569SOL     vw 6276   6.209   6.929   5.657 -0.9105 -0.1674 -0.5143
 1570SOL     ow 6277   1.171   4.575   4.339 -0.0996 -0.3781  0.1988
 1570SOL     hw 6278   1.260   4.580   4.304 -0.1035  0.2284  0.2783
 1570SOL     hw 6279   1.129   4.656   4.311 -1.1591 -1.3862 -1.2694
 1570SOL     vw 6280   1.178   4.586   4.330 -0.2399 -0.4313  0.0160
 1571SOL     ow 6281   7.132   2.339   2.910  0.3036  0.5980  0.2948
 1571SOL     hw 6282   7.220   2.356   2.874  1.0845 -0.2086  1.7304
 1571SOL     hw 6283   7.109   2.421   2.955  0.6380  0.5787  0.5107
 1571SOL     vw 6284   7.141   2.352   2.911  0.4508  0.4889  0.5128
 1572SOL     ow 6285   2.585   4.613   1.562 -0.9896  0.1750  0.1274
 1572SOL     hw 6286   2.582   4.570   1.648 -0.1290  1.4028  0.8048
 1572SOL     hw 6287   2.670   4.657   1.560 -0.2830 -1.1531 -2.0388
 1572SOL     vw 6288   2.596   4.613   1.573 -0.7828  0.1619 -0.0691
 1573SOL     ow 6289   4.207   2.097   3.914 -0.4900 -0.5629  0.8074
 1573SOL     hw 6290   4.242   2.023   3.864  0.0899  1.8864 -2.8212
 1573SOL     hw 6291   4.284   2.143   3.947 -0.6656  0.1723  0.2181
 1573SOL     vw 6292   4.222   2.093   3.912 -0.4368 -0.1426  0.2511
 1574SOL     ow 6293   1.554   7.552   5.233  0.3555 -0.1006 -0.0413
 1574SOL     hw 6294   1.562   7.528   5.325  0.0408 -2.6599 -0.6241
 1574SOL     hw 6295   1.523   7.643   5.235  1.9869  0.5131  2.3255
 1574SOL     vw 6296   1.551   7.561   5.245  0.5292 -0.3574  0.1943
 1575SOL     ow 6297   0.334   0.667   5.200  0.7720  0.0378 -0.4182
 1575SOL     hw 6298   0.327   0.745   5.255 -0.5853 -1.1404  1.1873
 1575SOL     hw 6299   0.364   0.700   5.115  2.0808  2.0482  0.7429
 1575SOL     vw 6300   0.337   0.682   5.196  0.7656  0.1476 -0.0534
 1576SOL     ow 6301   5.899   2.107   5.661  0.1443 -0.0150 -0.3473
 1576SOL     hw 6302   5.976   2.163   5.656  0.4732 -0.6118 -3.0729
 1576SOL     hw 6303   5.932   2.018   5.653 -0.6082 -0.5072  1.4677
 1576SOL     vw 6304   5.913   2.103   5.659  0.0887 -0.1587 -0.4673
 1577SOL     ow 6305   2.836   2.882   5.330  0.0357  0.2015 -0.6840
 1577SOL     hw 6306   2.823   2.931   5.411  0.5749  1.1698 -1.1715
 1577SOL     hw 6307   2.766   2.912   5.272  0.1656  0.1456 -0.8707
 1577SOL     vw 6308   2.825   2.892   5.333  0.1239  0.3219 -0.7727
 1578SOL     ow 6309   1.184   2.698   3.893  0.2300  0.0395 -0.0849
 1578SOL     hw 6310   1.181   2.767   3.959 -1.0864  0.4222 -0.5134
 1578SOL     hw 6311   1.129   2.731   3.821  0.1351 -1.1535 -0.5849
 1578SOL     vw 6312   1.176   2.711   3.892  0.0439 -0.0675 -0.2077
 1579SOL     ow 6313   0.738   3.463   0.259  0.2173  0.0284 -0.8792
 1579SOL     hw 6314   0.788   3.496   0.184  1.7268 -1.5132 -0.6083
 1579SOL     hw 6315   0.724   3.370   0.240  0.8953 -0.4722  0.8524
 1579SOL     vw 6316   0.742   3.455   0.247  0.5059 -0.2410 -0.6150
 1580SOL     ow 6317   7.486   2.672   7.250 -0.2786 -0.3161  0.5872
 1580SOL     hw 6318   7.439   2.755   7.240  1.6949  0.7178 -0.7031
 1580SOL     hw 6319   7.446   2.631   7.326 -1.2272  1.8743  1.3411
 1580SOL     vw 6320   7.475   2.677   7.258 -0.1435  0.1093  0.5164
 1581SOL     ow 6321   2.082   1.732   0.790  0.0991 -0.1464  0.1032
 1581SOL     hw 6322   2.162   1.762   0.748  0.1067  1.1888  1.0331
 1581SOL     hw 6323   2.101   1.731   0.883 -1.2682  1.2558  0.4439
 1581SOL     vw 6324   2.095   1.736   0.796 -0.0803  0.2148  0.2708
 1582SOL     ow 6325   4.277   6.551   2.292  0.4705  0.0425  0.0336
 1582SOL     hw 6326   4.285   6.518   2.382 -1.7627  1.4334  0.8254
 1582SOL     hw 6327   4.272   6.646   2.301  0.2465  0.2141 -1.5705
 1582SOL     vw 6328   4.277   6.559   2.305  0.1464  0.2487 -0.0737
 1583SOL     ow 6329   5.763   0.071   0.832  0.2113  0.2754  0.1013
 1583SOL     hw 6330   5.782   0.069   0.739  0.8670  0.4674  0.2230
 1583SOL     hw 6331   5.814   0.145   0.865  0.7789 -0.3927  0.7728
 1583SOL     vw 6332   5.772   0.081   0.824  0.3726  0.2126  0.2060
 1584SOL     ow 6333   1.735   5.388   2.554 -0.2365 -0.5992  0.3172
 1584SOL     hw 6334   1.825   5.359   2.571 -0.5986 -0.3480  3.3377
 1584SOL     hw 6335   1.683   5.308   2.559 -0.1247 -1.0130 -3.1026
 1584SOL     vw 6336   1.740   5.374   2.557 -0.2695 -0.6206  0.2645
 1585SOL     ow 6337   4.851   4.960   2.180 -0.5764  0.3631 -0.1314
 1585SOL     hw 6338   4.914   4.970   2.251  0.3090  1.4994 -1.0304
 1585SOL     hw 6339   4.873   4.877   2.139  0.1777  0.6284 -0.2725
 1585SOL     vw 6340   4.862   4.951   2.184 -0.3603  0.5481 -0.2687
 1586SOL     ow 6341   2.824   5.035   0.456 -0.4339 -0.5580  0.4757
 1586SOL     hw 6342   2.776   4.998   0.531 -1.3753 -2.1654 -0.8276
 1586SOL     hw 6343   2.778   4.999   0.379  0.0300  1.6126 -0.8999
 1586SOL     vw 6344   2.811   5.025   0.455 -0.4967 -0.4840  0.1223
 1587SOL     ow 6345   4.209   2.352   0.753 -0.6831  0.0945 -0.3180
 1587SOL     hw 6346   4.267   2.409   0.803  0.6407 -0.0148 -1.6719
 1587SOL     hw 6347   4.154   2.310   0.819 -0.7701  1.8959  0.8267
 1587SOL     vw 6348   4.209   2.354   0.769 -0.5200  0.3178 -0.3456
 1588SOL     ow 6349   1.216   2.241   5.163 -0.0989  0.2536 -0.1571
 1588SOL     hw 6350   1.175   2.172   5.215  0.7555 -0.0013  0.1987
 1588SOL     hw 6351   1.144   2.298   5.137 -0.9991 -1.3399 -1.3590
 1588SOL     vw 6352   1.201   2.240   5.166 -0.1048  0.0095 -0.2687
 1589SOL     ow 6353   2.664   0.150   0.453  0.2385  0.4640  0.5067
 1589SOL     hw 6354   2.636   0.118   0.539 -0.5087  0.5656  0.3125
 1589SOL     hw 6355   2.659   0.246   0.461  1.9005  0.5440  0.9038
 1589SOL     vw 6356   2.660   0.159   0.466  0.3593  0.4880  0.5334
 1590SOL     ow 6357   1.569   5.311   4.844  0.1737 -0.2853 -0.4948
 1590SOL     hw 6358   1.474   5.312   4.829  0.2955  0.8307 -1.3377
 1590SOL     hw 6359   1.585   5.228   4.889 -0.9272 -1.5149 -2.2320
 1590SOL     vw 6360   1.558   5.300   4.848  0.0445 -0.3002 -0.8354
 1591SOL     ow 6361   2.826   6.582   2.623  0.2163 -0.3177 -0.3474
 1591SOL     hw 6362   2.771   6.604   2.548 -1.9422 -2.8508  0.3276
 1591SOL     hw 6363   2.914   6.571   2.586 -1.2099 -4.2767 -3.2493
 1591SOL     vw 6364   2.830   6.583   2.608 -0.2565 -1.1742 -0.6411
 1592SOL     ow 6365   6.411   1.266   5.001 -0.0339  0.0227  0.0247
 1592SOL     hw 6366   6.323   1.285   5.033  0.0856 -0.4399  0.6478
 1592SOL     hw 6367   6.413   1.171   4.989 -0.7538  0.3154 -3.4224
 1592SOL     vw 6368   6.400   1.256   5.003 -0.1130  0.0004 -0.3479
 1593SOL     ow 6369   6.296   7.532   4.129  0.2728 -0.4021  0.3327
 1593SOL     hw 6370   6.231   7.575   4.185  0.3748  3.3652 -2.0636
 1593SOL     hw 6371   6.378   7.538   4.178  0.0703  1.3212  0.5145
 1593SOL     vw 6372   6.298   7.539   4.143  0.2596  0.3223  0.0408
 1594SOL     ow 6373   2.340   7.484   1.615 -0.4800  0.6747  0.0882
 1594SOL     hw 6374   2.389   7.506   1.535  0.0022  1.3392  0.5595
 1594SOL     hw 6375   2.305   7.396   1.598  1.7895 -0.3147  0.1459
 1594SOL     vw 6376   2.342   7.475   1.602 -0.1169  0.6316  0.1580
 1595SOL     ow 6377   3.816   3.343   0.933  0.4191 -0.2709  1.1300
 1595SOL     hw 6378   3.864   3.414   0.976 -1.2723  1.5289  0.1949
 1595SOL     hw 6379   3.729   3.345   0.974 -1.7673  2.4224 -2.9872
 1595SOL     vw 6380   3.810   3.353   0.944 -0.0925  0.3220  0.4634
 1596SOL     ow 6381   6.057   7.287   3.106 -0.6478  0.3316 -0.2855
 1596SOL     hw 6382   5.964   7.303   3.093 -0.5521  1.5117  0.3950
 1596SOL     hw 6383   6.099   7.372   3.095 -0.1103  0.6900  3.3326
 1596SOL     vw 6384   6.051   7.300   3.103 -0.5643  0.5345  0.2817
 1597SOL     ow 6385   4.740   5.508   2.875  0.3470 -0.8609 -0.3535
 1597SOL     hw 6386   4.726   5.437   2.813 -1.9123 -1.5467  0.8436
 1597SOL     hw 6387   4.731   5.467   2.961  0.1676  0.6547  0.3845
 1597SOL     vw 6388   4.737   5.493   2.879  0.0253 -0.7515 -0.0981
 1598SOL     ow 6389   1.130   6.080   4.729 -0.1983 -0.1759  0.1535
 1598SOL     hw 6390   1.076   6.018   4.680 -1.4643  1.2890 -0.4074
 1598SOL     hw 6391   1.190   6.116   4.663  0.5717 -0.8342  0.4888
 1598SOL     vw 6392   1.131   6.077   4.713 -0.2638 -0.0691  0.1235
 1599SOL     ow 6393   2.165   6.349   1.320  0.5944 -0.8475 -0.7106
 1599SOL     hw 6394   2.143   6.412   1.251 -1.0472 -1.5045 -0.8367
 1599SOL     hw 6395   2.085   6.344   1.373  1.2696 -1.5931  0.2613
 1599SOL     vw 6396   2.151   6.357   1.318  0.4668 -1.0324 -0.5990
 1600SOL     ow 6397   7.533   2.548   5.598 -0.4174 -0.3357  0.0393
 1600SOL     hw 6398   7.504   2.462   5.628 -1.3113  0.5633  1.9178
 1600SOL     hw 6399   7.452   2.598   5.585  0.0383  1.3828  2.7897
 1600SOL     vw 6400   7.519   2.543   5.600 -0.4752  0.0097  0.6504
 1601SOL     ow 6401   5.160   4.554   5.317 -1.1348  0.3249 -0.1046
 1601SOL     hw 6402   5.197   4.580   5.401 -0.3187 -0.1977 -0.2904
 1601SOL     hw 6403   5.146   4.459   5.325 -2.1072  0.4539 -0.1687
 1601SOL     vw 6404   5.163   4.545   5.329 -1.1554  0.2730 -0.1378
 1602SOL     ow 6405   1.861   4.612   2.096  0.5126 -0.2299 -0.2587
 1602SOL     hw 6406   1.771   4.643   2.109  0.7861 -0.2979  2.2197
 1602SOL     hw 6407   1.916   4.677   2.140  1.7042 -0.3376 -1.5033
 1602SOL     vw 6408   1.856   4.625   2.103  0.7058 -0.2530 -0.0960
 1603SOL     ow 6409   4.031   1.830   2.865 -0.0021  0.2694  0.1716
 1603SOL     hw 6410   4.025   1.852   2.958 -1.6807 -1.2670  0.4768
 1603SOL     hw 6411   3.941   1.822   2.837  0.4745 -1.9542 -0.9147
 1603SOL     vw 6412   4.019   1.832   2.874 -0.1607 -0.2267  0.0685
 1604SOL     ow 6413   5.945   0.840   2.171  0.2936  0.1356  0.1235
 1604SOL     hw 6414   5.877   0.845   2.238 -0.5259 -1.1119 -0.5759
 1604SOL     hw 6415   5.989   0.757   2.188 -0.0778 -0.3154 -0.9938
 1604SOL     vw 6416   5.942   0.830   2.182  0.1366 -0.0885 -0.1162
 1605SOL     ow 6417   2.880   5.845   7.594  0.6407  0.3169  0.0445
 1605SOL     hw 6418   2.927   5.803   7.521 -0.9852  1.3736 -1.6979
 1605SOL     hw 6419   2.914   5.802   7.672  2.3572 -0.9846 -1.3342
 1605SOL     vw 6420   2.891   5.834   7.595  0.6527  0.2847 -0.3674
 1606SOL     ow 6421   2.846   2.010   4.394 -0.3683 -0.4128 -0.6599
 1606SOL     hw 6422   2.836   2.021   4.299  0.1746 -0.2473 -0.7012
 1606SOL     hw 6423   2.935   1.976   4.405 -0.2425  0.0690 -0.1719
 1606SOL     vw 6424   2.857   2.007   4.383 -0.2800 -0.3272 -0.6013
 1607SOL     ow 6425   5.531   3.360   1.004  0.0730  0.1520 -0.4369
 1607SOL     hw 6426   5.540   3.446   1.044  0.6636 -0.5052  0.8890
 1607SOL     hw 6427   5.611   3.350   0.952  0.8763 -0.3073  0.8451
 1607SOL     vw 6428   5.543   3.370   1.002  0.2568  0.0048 -0.0928
 1608SOL     ow 6429   1.164   4.435   4.584  0.5329  0.2605  0.2109
 1608SOL     hw 6430   1.193   4.498   4.519  0.0368 -1.5116 -1.8591
 1608SOL     hw 6431   1.077   4.466   4.610  0.3655  0.5364 -0.6438
 1608SOL     vw 6432   1.156   4.447   4.579  0.4453  0.0629 -0.1750
 1609SOL     ow 6433   0.299   2.017   4.954 -0.3799  1.1083 -0.3716
 1609SOL     hw 6434   0.210   2.046   4.974 -0.4876 -0.4914  1.8996
 1609SOL     hw 6435   0.286   1.939   4.899 -0.2351  2.2613 -2.1373
 1609SOL     vw 6436   0.285   2.010   4.949 -0.3750  1.0494 -0.3049
 1610SOL     ow 6437   4.205   4.261   5.118 -0.3694  0.3497  0.0288
 1610SOL     hw 6438   4.209   4.166   5.130  1.5896  0.1067 -1.7733
 1610SOL     hw 6439   4.238   4.297   5.200  4.5113 -0.8577 -1.0376
 1610SOL     vw 6440   4.210   4.253   5.130  0.5331  0.1585 -0.3500
 1611SOL     ow 6441   2.567   1.115   2.478  0.2823  0.7303  0.4351
 1611SOL     hw 6442   2.605   1.047   2.533 -1.3746  0.6792  1.6055
 1611SOL     hw 6443   2.535   1.181   2.540 -1.4298  0.7886 -0.4541
 1611SOL     vw 6444   2.568   1.115   2.493 -0.1621  0.7312  0.4722
 1612SOL     ow 6445   6.115   0.533   6.585 -0.2883 -1.0385  0.1831
 1612SOL     hw 6446   6.193   0.499   6.542  0.0334 -1.4512  1.0691
 1612SOL     hw 6447   6.086   0.606   6.529  2.0467  0.6260  0.9890
 1612SOL     vw 6448   6.121   0.538   6.572  0.0622 -0.8733  0.4065
 1613SOL     ow 6449   0.652   4.348   2.036 -0.3114  0.1119 -0.1909
 1613SOL     hw 6450   0.697   4.298   1.967 -2.1965 -0.3493 -1.1760
 1613SOL     hw 6451   0.720   4.401   2.076  1.1404 -0.7525 -1.3934
 1613SOL     vw 6452   0.667   4.348   2.032 -0.3685 -0.0629 -0.4796
 1614SOL     ow 6453   6.457   3.550   5.880 -0.0470  0.1259 -0.8073
 1614SOL     hw 6454   6.426   3.600   5.956 -0.6322 -2.4175  0.7244
 1614SOL     hw 6455   6.447   3.611   5.807  0.7539  2.7951  1.1020
 1614SOL     vw 6456   6.452   3.565   5.881 -0.0184  0.1425 -0.3533
 1615SOL     ow 6457   3.844   5.008   1.087 -0.0184  0.4490  0.1165
 1615SOL     hw 6458   3.876   5.070   1.151 -2.3790  2.1904 -0.2546
 1615SOL     hw 6459   3.894   5.027   1.007  1.3392 -0.2023  0.7847
 1615SOL     vw 6460   3.855   5.018   1.085 -0.1509  0.5929  0.1557
 1616SOL     ow 6461   1.805   0.149   0.673  0.2916 -0.4442 -0.7763
 1616SOL     hw 6462   1.881   0.206   0.664  1.1686 -1.7061 -1.7020
 1616SOL     hw 6463   1.812   0.114   0.762  0.7463 -0.4691 -0.8203
 1616SOL     vw 6464   1.816   0.152   0.684  0.4672 -0.6140 -0.9042
 1617SOL     ow 6465   3.163   5.075   5.452  0.0473 -0.5761 -0.1113
 1617SOL     hw 6466   3.117   5.153   5.484  1.6265 -0.4471  2.1220
 1617SOL     hw 6467   3.098   5.005   5.457 -0.3110 -0.1583  1.7595
 1617SOL     vw 6468   3.149   5.076   5.457  0.2084 -0.5038  0.4303
 1618SOL     ow 6469   1.027   2.731   0.690 -0.0264 -0.1825  0.2228
 1618SOL     hw 6470   1.021   2.807   0.633 -0.2810  1.4955  2.3758
 1618SOL     hw 6471   0.943   2.728   0.736 -0.5303 -2.5560 -0.6776
 1618SOL     vw 6472   1.015   2.740   0.689 -0.1264 -0.2743  0.3881
 1619SOL     ow 6473   0.398   7.018   5.940  0.3582  0.4807  0.3203
 1619SOL     hw 6474   0.332   7.015   5.870  0.6431  0.7660  0.0383
 1619SOL     hw 6475   0.355   6.977   6.015  0.3930 -0.7713 -0.3176
 1619SOL     vw 6476   0.384   7.012   5.940  0.4004  0.3531  0.1988
 1620SOL     ow 6477   3.778   4.338   0.233 -0.3303 -0.1549 -0.2216
 1620SOL     hw 6478   3.815   4.342   0.145 -0.5352  2.2720 -0.2630
 1620SOL     hw 6479   3.683   4.340   0.219 -0.3847 -0.6059  0.0494
 1620SOL     vw 6480   3.770   4.339   0.220 -0.3645  0.1056 -0.1913
 1621SOL     ow 6481   3.217   1.495   4.256  0.1335 -0.7799  0.4009
 1621SOL     hw 6482   3.191   1.512   4.347  1.4467  0.3003  0.5975
 1621SOL     hw 6483   3.295   1.439   4.264  0.2828 -0.6378 -0.0617
 1621SOL     vw 6484   3.224   1.490   4.269  0.3264 -0.6186  0.3657
 1622SOL     ow 6485   1.261   5.660   4.841  0.0468 -0.2328 -0.4378
 1622SOL     hw 6486   1.270   5.565   4.844 -0.5959 -0.2896  1.6007
 1622SOL     hw 6487   1.167   5.676   4.852 -0.0167  0.6421 -1.9956
 1622SOL     vw 6488   1.250   5.650   4.843 -0.0464 -0.1247 -0.3743
 1623SOL     ow 6489   0.459   1.376   1.007  0.1442  0.1243 -0.0489
 1623SOL     hw 6490   0.463   1.322   1.087 -1.1541 -0.1477 -0.1467
 1623SOL     hw 6491   0.411   1.322   0.944  1.8458 -0.0071 -1.3181
 1623SOL     vw 6492   0.454   1.361   1.009  0.1974  0.0710 -0.2292
 1624SOL     ow 6493   0.083   5.028   1.463 -0.0043  0.2223 -0.4407
 1624SOL     hw 6494   0.083   4.981   1.379 -2.3947 -0.2168 -0.2757
 1624SOL     hw 6495   0.029   5.105   1.446 -1.5438 -0.4921  0.9669
 1624SOL     vw 6496   0.076   5.032   1.450 -0.5228  0.0703 -0.2332
 1625SOL     ow 6497   6.404   6.884   2.550  0.5848 -0.8560  0.1349
 1625SOL     hw 6498   6.475   6.831   2.585  1.0596 -1.1342 -1.1816
 1625SOL     hw 6499   6.358   6.825   2.489  0.0758 -0.2695 -0.0597
 1625SOL     vw 6500   6.407   6.869   2.546  0.5805 -0.8154 -0.0643
 1626SOL     ow 6501   3.065   3.414   2.700  0.0309 -0.4015  0.0108
 1626SOL     hw 6502   3.024   3.497   2.678 -0.6954 -0.5498  0.7136
 1626SOL     hw 6503   3.049   3.404   2.794  0.7770 -0.9712  0.0866
 1626SOL     vw 6504   3.057   3.423   2.710  0.0334 -0.4961  0.1135
 1627SOL     ow 6505   7.197   1.402   2.856  0.2192 -0.4781  0.3610
 1627SOL     hw 6506   7.213   1.495   2.870 -1.2585 -0.1059 -0.2900
 1627SOL     hw 6507   7.109   1.387   2.891  0.0268 -1.4032 -0.4921
 1627SOL     vw 6508   7.188   1.412   2.863 -0.0012 -0.5511  0.1626
 1628SOL     ow 6509   5.532   6.099   3.211  0.1278  0.5012 -0.5537
 1628SOL     hw 6510   5.550   6.159   3.139 -0.1077  1.2790  0.0269
 1628SOL     hw 6511   5.452   6.133   3.251  1.5155  1.4986  1.5513
 1628SOL     vw 6512   5.524   6.111   3.207  0.2799  0.7353 -0.1996
 1629SOL     ow 6513   3.948   2.699   2.120 -0.0127  0.3833 -0.0998
 1629SOL     hw 6514   4.000   2.619   2.115 -0.0074  0.3837 -0.0491
 1629SOL     hw 6515   4.001   2.759   2.172 -1.1776 -0.4930  2.2212
 1629SOL     vw 6516   3.961   2.697   2.126 -0.1657  0.2677  0.2133
 1630SOL     ow 6517   4.268   0.084   0.305 -0.1391 -0.3215  0.7830
 1630SOL     hw 6518   4.343   0.135   0.274 -1.6496  1.7895  0.4006
 1630SOL     hw 6519   4.299   0.044   0.387  1.4518  0.3397  0.5494
 1630SOL     vw 6520   4.282   0.085   0.312 -0.1285  0.0442  0.7018
 1631SOL     ow 6521   3.699   6.537   7.027 -0.2162 -1.1116  0.0267
 1631SOL     hw 6522   3.612   6.568   7.003  0.0436 -0.5228 -0.1565
 1631SOL     hw 6523   3.754   6.558   6.952  0.6334  0.8361  1.1061
 1631SOL     vw 6524   3.695   6.544   7.014 -0.0699 -0.7768  0.1452
 1632SOL     ow 6525   2.782   7.394   5.642 -0.1721 -0.3303  0.7011
 1632SOL     hw 6526   2.746   7.481   5.659  0.2800  0.3804 -1.6051
 1632SOL     hw 6527   2.734   7.336   5.701 -1.9922  1.1685  0.7823
 1632SOL     vw 6528   2.771   7.398   5.652 -0.3526 -0.0391  0.4077
 1633SOL     ow 6529   3.428   6.099   6.178  1.4575 -0.1255  0.6085
 1633SOL     hw 6530   3.475   6.088   6.261  3.3517  1.0249 -0.2360
 1633SOL     hw 6531   3.494   6.134   6.118 -0.2277  0.4392 -1.0026
 1633SOL     vw 6532   3.443   6.102   6.181  1.4851  0.1009  0.2847
 1634SOL     ow 6533   0.690   1.107   1.544  0.1079  0.1014  0.2571
 1634SOL     hw 6534   0.765   1.048   1.536 -0.7230 -0.7506 -2.5341
 1634SOL     hw 6535   0.655   1.090   1.631  2.1398 -0.6947  0.9826
 1634SOL     vw 6536   0.695   1.097   1.554  0.2663 -0.1161 -0.0154
 1635SOL     ow 6537   5.036   5.443   4.020 -0.1431 -0.4595  0.0346
 1635SOL     hw 6538   5.078   5.492   4.091 -0.9986 -0.4942  0.5850
 1635SOL     hw 6539   4.953   5.413   4.058 -0.1846 -1.2958 -0.6820
 1635SOL     vw 6540   5.030   5.445   4.035 -0.2613 -0.5744  0.0126
 1636SOL     ow 6541   0.778   7.065   3.639 -0.3757  0.3971 -0.6496
 1636SOL     hw 6542   0.783   7.130   3.710 -0.6913  0.0520 -0.3107
 1636SOL     hw 6543   0.775   7.118   3.559 -0.4448  0.8006 -0.3856
 1636SOL     vw 6544   0.778   7.081   3.638 -0.4264  0.4046 -0.5701
 1637SOL     ow 6545   5.799   0.159   7.451 -0.4368 -0.3830 -0.1047
 1637SOL     hw 6546   5.743   0.154   7.373 -2.0093 -0.7751  1.0071
 1637SOL     hw 6547   5.822   0.252   7.457 -0.0344 -0.3918 -1.1872
 1637SOL     vw 6548   5.795   0.171   7.441 -0.5910 -0.4359 -0.1009
 1638SOL     ow 6549   7.087   1.216   4.373  0.1715 -0.4332 -0.3753
 1638SOL     hw 6550   7.109   1.309   4.372  0.9886 -0.6153 -0.1661
 1638SOL     hw 6551   6.997   1.212   4.339 -0.4166  0.5598  0.9958
 1638SOL     vw 6552   7.078   1.227   4.368  0.2017 -0.3262 -0.1669
 1639SOL     ow 6553   5.307   5.355   3.904 -0.2622 -0.1067  0.1870
 1639SOL     hw 6554   5.316   5.260   3.899 -1.6635 -0.2294 -0.5329
 1639SOL     hw 6555   5.380   5.383   3.959  0.3210 -1.5674  0.2111
 1639SOL     vw 6556   5.318   5.346   3.910 -0.3700 -0.3159  0.0950
 1640SOL     ow 6557   5.912   6.506   7.085  0.2786 -1.1742 -0.4330
 1640SOL     hw 6558   5.824   6.490   7.049  0.9409 -1.8102 -1.8359
 1640SOL     hw 6559   5.896   6.553   7.167 -1.5318 -3.7147  0.8152
 1640SOL     vw 6560   5.898   6.510   7.091  0.1271 -1.5931 -0.4537
 1641SOL     ow 6561   5.296   2.112   6.023  0.6714  0.8529 -0.5714
 1641SOL     hw 6562   5.282   2.206   6.035  0.5874  0.6994  0.6981
 1641SOL     hw 6563   5.238   2.087   5.952 -0.4365  1.4824  0.0943
 1641SOL     vw 6564   5.287   2.121   6.015  0.5143  0.9158 -0.3159
 1642SOL     ow 6565   6.898   4.062   7.180 -0.0598  0.2158  0.0467
 1642SOL     hw 6566   6.914   4.091   7.090  1.8596  0.7251  0.5182
 1642SOL     hw 6567   6.905   4.142   7.233 -1.1064 -0.0882  0.6874
 1642SOL     vw 6568   6.901   4.076   7.175  0.0553  0.2425  0.1936
 1643SOL     ow 6569   0.164   1.314   1.992 -0.1304 -0.0807 -0.4371
 1643SOL     hw 6570   0.174   1.397   1.944  1.5634 -0.7236 -1.2706
 1643SOL     hw 6571   0.176   1.338   2.083 -1.1479  0.8069 -0.5104
 1643SOL     vw 6572   0.167   1.328   1.997 -0.0411 -0.0484 -0.5567
 1644SOL     ow 6573   6.265   0.468   1.787  0.4207  0.1954 -0.3068
 1644SOL     hw 6574   6.334   0.441   1.848  0.8335 -0.0738 -0.8795
 1644SOL     hw 6575   6.184   0.443   1.830  0.4286  3.3041  1.8088
 1644SOL     vw 6576   6.263   0.461   1.801  0.4759  0.5700 -0.1032
 1645SOL     ow 6577   1.240   5.139   5.876 -0.5913  0.1826 -0.3235
 1645SOL     hw 6578   1.213   5.060   5.923 -1.1544  0.4334 -0.2250
 1645SOL     hw 6579   1.233   5.115   5.783  1.3202 -0.5918 -0.3244
 1645SOL     vw 6580   1.236   5.125   5.870 -0.4135  0.1137 -0.3109
 1646SOL     ow 6581   5.711   2.816   3.340  0.0975 -0.1562  0.3086
 1646SOL     hw 6582   5.667   2.821   3.254 -0.3530 -2.0454  0.3850
 1646SOL     hw 6583   5.777   2.886   3.337 -0.9754  0.8769 -0.9383
 1646SOL     vw 6584   5.714   2.826   3.328 -0.1035 -0.2692  0.1541
 1647SOL     ow 6585   6.497   1.098   0.636  0.3429  0.0366  1.0740
 1647SOL     hw 6586   6.512   1.004   0.647 -0.5541 -0.0942  1.2957
 1647SOL     hw 6587   6.415   1.103   0.587  1.5270  0.6883 -0.9545
 1647SOL     vw 6588   6.488   1.086   0.631  0.3810  0.1053  0.8356
 1648SOL     ow 6589   3.875   6.287   6.849  0.1413 -0.4242 -0.5219
 1648SOL     hw 6590   3.860   6.381   6.843  1.6724 -0.1727 -0.6065
 1648SOL     hw 6591   3.837   6.263   6.933  5.0633  1.4342  2.6283
 1648SOL     vw 6592   3.868   6.296   6.859  0.9927 -0.1459 -0.1175
 1649SOL     ow 6593   5.215   2.464   5.639 -0.4632  0.6426 -0.0050
 1649SOL     hw 6594   5.258   2.465   5.554 -0.1638 -2.6602 -0.0502
 1649SOL     hw 6595   5.150   2.394   5.632 -0.6897  0.5415  2.3453
 1649SOL     vw 6596   5.212   2.455   5.627 -0.4537  0.1935  0.2990
 1650SOL     ow 6597   2.855   4.274   5.627 -0.1275 -0.8590  0.2876
 1650SOL     hw 6598   2.803   4.212   5.679 -1.5552 -0.2268 -0.3290
 1650SOL     hw 6599   2.823   4.262   5.537 -0.1089  0.4425  0.0953
 1650SOL     vw 6600   2.844   4.264   5.622 -0.3134 -0.6037  0.1807
 1651SOL     ow 6601   1.814   5.392   3.400  0.9892 -0.3060 -0.2210
 1651SOL     hw 6602   1.899   5.413   3.362 -0.0303  0.9374 -1.9467
 1651SOL     hw 6603   1.752   5.399   3.328 -0.7997  0.2443  1.2751
 1651SOL     vw 6604   1.817   5.395   3.386  0.6187 -0.0694 -0.2513
 1652SOL     ow 6605   3.322   6.698   0.140  0.0774  0.0680 -0.4746
 1652SOL     hw 6606   3.249   6.759   0.140 -1.1593 -1.3292  0.8461
 1652SOL     hw 6607   3.378   6.728   0.211 -1.3277 -1.1677  1.2269
 1652SOL     vw 6608   3.320   6.710   0.149 -0.2711 -0.2792 -0.0759
 1653SOL     ow 6609   3.002   6.992   2.102 -0.1985  0.4889 -0.1644
 1653SOL     hw 6610   3.072   7.004   2.166 -0.2250  0.6813 -0.1698
 1653SOL     hw 6611   2.963   7.079   2.093  0.9958  0.8952 -1.8327
 1653SOL     vw 6612   3.006   7.005   2.109 -0.0443  0.5679 -0.3853
 1654SOL     ow 6613   3.742   1.576   3.366 -0.2757 -0.5465 -0.2589
 1654SOL     hw 6614   3.684   1.617   3.303  2.0506  0.5587 -1.8321
 1654SOL     hw 6615   3.804   1.526   3.312 -0.0365 -2.0943  1.3508
 1654SOL     vw 6616   3.743   1.575   3.350  0.0628 -0.6049 -0.2542
 1655SOL     ow 6617   0.343   3.176   5.010  0.1575  0.3583  0.1920
 1655SOL     hw 6618   0.413   3.146   5.068  0.8660  2.8910  0.7636
 1655SOL     hw 6619   0.262   3.156   5.059  0.7230  2.0977  1.9783
 1655SOL     vw 6620   0.341   3.169   5.024  0.3256  0.9220  0.5031
 1656SOL     ow 6621   7.107   2.517   0.018  0.5793 -0.7305 -0.2157
 1656SOL     hw 6622   7.030   2.461   0.025  0.3676 -0.4581 -0.3625
 1656SOL     hw 6623   7.171   2.476   0.075 -0.9547  1.1957  3.1801
 1656SOL     vw 6624   7.105   2.505   0.026  0.3488 -0.4405  0.2129
 1657SOL     ow 6625   1.403   2.000   5.656  0.4677 -0.1594  0.1744
 1657SOL     hw 6626   1.436   2.084   5.687  0.8053 -0.0307 -0.5171
 1657SOL     hw 6627   1.361   1.961   5.733  2.2143 -0.3231  1.1150
 1657SOL     vw 6628   1.402   2.006   5.670  0.7426 -0.1640  0.2072
 1658SOL     ow 6629   6.898   7.342   7.487  0.3271  0.3117 -0.4792
 1658SOL     hw 6630   6.882   7.359   7.394 -1.8354 -1.2610 -0.4679
 1658SOL     hw 6631   6.973   7.396   7.508  1.1872  0.3612 -3.2566
 1658SOL     vw 6632   6.905   7.352   7.478  0.1552  0.1109 -0.8442
 1659SOL     ow 6633   0.482   1.066   1.339  0.4362 -0.1263 -0.0641
 1659SOL     hw 6634   0.552   1.110   1.388  0.4422 -0.9379  0.6773
 1659SOL     hw 6635   0.492   1.098   1.250 -0.0638  1.9785  0.5897
 1659SOL     vw 6636   0.493   1.076   1.334  0.3710  0.0443  0.1199
 1660SOL     ow 6637   5.439   7.587   0.325 -0.1402 -0.1354  0.1280
 1660SOL     hw 6638   5.408   7.647   0.257 -0.5731 -0.7468 -0.2289
 1660SOL     hw 6639   5.442   7.501   0.281 -0.8732 -0.6281  1.0057
 1660SOL     vw 6640   5.435   7.583   0.310 -0.2940 -0.2811  0.1967
 1661SOL     ow 6641   1.982   2.763   2.683  0.1638 -0.3423 -0.3752
 1661SOL     hw 6642   1.932   2.695   2.639 -0.4447 -0.5697  0.6221
 1661SOL     hw 6643   2.065   2.721   2.705 -0.5125 -1.0629  0.9567
 1661SOL     vw 6644   1.986   2.748   2.680 -0.0058 -0.4673 -0.0679
 1662SOL     ow 6645   4.547   3.743   7.366 -0.4074  0.3725 -0.2450
 1662SOL     hw 6646   4.531   3.763   7.458 -1.2513  0.3791 -0.3840
 1662SOL     hw 6647   4.517   3.820   7.319 -1.0430 -0.0818 -0.5936
 1662SOL     vw 6648   4.541   3.755   7.372 -0.6027  0.3134 -0.3095
 1663SOL     ow 6649   3.326   3.411   7.346 -0.8349 -0.1158  0.3097
 1663SOL     hw 6650   3.334   3.496   7.389 -0.8086  0.3035 -0.4913
 1663SOL     hw 6651   3.408   3.366   7.366 -0.1186  0.7174 -0.6316
 1663SOL     vw 6652   3.338   3.416   7.354 -0.7370  0.0494  0.0799
 1664SOL     ow 6653   4.695   3.259   0.458  0.0206 -0.1192  0.4710
 1664SOL     hw 6654   4.788   3.277   0.473  0.0868 -0.4965  0.5347
 1664SOL     hw 6655   4.678   3.179   0.509  0.0151 -0.8673 -0.6636
 1664SOL     vw 6656   4.705   3.251   0.467  0.0286 -0.2676  0.3297
 1665SOL     ow 6657   4.065   1.272   3.337 -0.0763 -0.2791  1.1279
 1665SOL     hw 6658   4.155   1.284   3.307 -0.2898  0.0113  0.5921
 1665SOL     hw 6659   4.018   1.347   3.302 -0.8890 -1.2956 -0.0588
 1665SOL     vw 6660   4.071   1.283   3.328 -0.2115 -0.3749  0.9007
 1666SOL     ow 6661   6.571   5.131   1.358 -0.3763 -0.2566  0.7712
 1666SOL     hw 6662   6.574   5.223   1.384 -0.3580 -0.1997  0.5748
 1666SOL     hw 6663   6.511   5.090   1.420 -1.7785  0.2457 -0.2117
 1666SOL     vw 6664   6.564   5.138   1.369 -0.5591 -0.1829  0.6157
 1667SOL     ow 6665   2.275   4.379   1.070 -0.5134 -0.2423  0.6246
 1667SOL     hw 6666   2.218   4.440   1.117 -0.3445 -0.5547  1.2329
 1667SOL     hw 6667   2.216   4.334   1.009 -0.9623 -0.7009  1.3878
 1667SOL     vw 6668   2.260   4.381   1.068 -0.5504 -0.3440  0.8055
 1668SOL     ow 6669   0.212   2.940   0.977  0.4730  0.5835  0.5774
 1668SOL     hw 6670   0.185   2.924   1.067 -0.9234 -0.2787  0.0317
 1668SOL     hw 6671   0.131   2.946   0.927  1.1827 -2.1390 -1.1275
 1668SOL     vw 6672   0.198   2.939   0.982  0.3824  0.1105  0.2804
 1669SOL     ow 6673   2.168   0.608   3.668 -0.1246 -0.8804  0.0119
 1669SOL     hw 6674   2.102   0.619   3.737  0.6579  0.9717  0.5347
 1669SOL     hw 6675   2.222   0.535   3.698 -0.3666 -0.7127  0.8920
 1669SOL     vw 6676   2.166   0.600   3.681 -0.0533 -0.6139  0.1971
 1670SOL     ow 6677   5.303   4.617   5.547  0.2566  0.7644 -0.4122
 1670SOL     hw 6678   5.372   4.591   5.487 -0.4105 -2.3000 -0.0215
 1670SOL     hw 6679   5.316   4.562   5.624 -1.2277  1.7928  0.6305
 1670SOL     vw 6680   5.314   4.606   5.549 -0.0272  0.4957 -0.2229
 1671SOL     ow 6681   2.737   7.264   4.581  0.7755 -0.0638 -0.0836
 1671SOL     hw 6682   2.697   7.178   4.565 -0.9211  0.5077  0.8723
 1671SOL     hw 6683   2.742   7.304   4.494  3.2649 -1.7506 -0.8390
 1671SOL     vw 6684   2.732   7.258   4.567  0.8800 -0.2108 -0.0572
 1672SOL     ow 6685   0.277   3.854   0.023 -0.4197 -0.4909 -1.0965
 1672SOL     hw 6686   0.222   3.822   0.094  0.9706 -1.4538 -0.4016
 1672SOL     hw 6687   0.344   3.907   0.067  1.6397 -2.6819 -1.3571
 1672SOL     vw 6688   0.278   3.857   0.038  0.0354 -0.9069 -1.0392
 1673SOL     ow 6689   6.864   2.378   2.647  0.3388  0.9075  0.9722
 1673SOL     hw 6690   6.775   2.414   2.640  0.8405  2.1458  0.6226
 1673SOL     hw 6691   6.882   2.344   2.559 -0.4355 -1.0192  1.5088
 1673SOL     vw 6692   6.854   2.379   2.634  0.3030  0.8167  0.9969
 1674SOL     ow 6693   5.289   6.132   3.356  0.0892  0.0543 -0.2079
 1674SOL     hw 6694   5.300   6.041   3.383  0.3065 -0.8084 -2.9372
 1674SOL     hw 6695   5.236   6.171   3.426  0.3306 -2.0306  1.2368
 1674SOL     vw 6696   5.283   6.125   3.369  0.1495 -0.3347 -0.3773
 1675SOL     ow 6697   6.979   1.197   0.314 -0.1556 -0.1876 -0.0870
 1675SOL     hw 6698   7.036   1.125   0.290 -1.3953 -1.5925  0.9424
 1675SOL     hw 6699   6.988   1.204   0.409 -0.1901  0.8987 -0.1552
 1675SOL     vw 6700   6.987   1.188   0.323 -0.3235 -0.2296  0.0399
 1676SOL     ow 6701   0.079   6.672   4.128 -0.0355 -0.0638 -0.1382
 1676SOL     hw 6702   0.026   6.599   4.095 -1.2065  0.4243  0.5936
 1676SOL     hw 6703   0.169   6.647   4.107 -0.3623 -1.9286  0.4692
 1676SOL     vw 6704   0.084   6.659   4.121 -0.2331 -0.2456  0.0384
 1677SOL     ow 6705   6.689   6.503   7.085  0.2777  0.1466 -0.2379
 1677SOL     hw 6706   6.754   6.490   7.154 -0.7201 -0.4193  0.6457
 1677SOL     hw 6707   6.723   6.456   7.009 -0.4269 -2.7538  1.0898
 1677SOL     vw 6708   6.702   6.495   7.084  0.0529 -0.3109  0.0536
 1678SOL     ow 6709   4.370   2.311   2.114 -0.4581  0.0194 -0.6652
 1678SOL     hw 6710   4.328   2.397   2.118  0.1679  0.5849 -3.8180
 1678SOL     hw 6711   4.463   2.330   2.121 -0.3479 -0.4806 -0.7671
 1678SOL     vw 6712   4.377   2.325   2.115 -0.3610  0.0281 -1.0945
 1679SOL     ow 6713   2.226   0.796   3.144  0.4161 -0.0289  0.0822
 1679SOL     hw 6714   2.214   0.867   3.207 -1.4252  0.2848 -0.5737
 1679SOL     hw 6715   2.212   0.837   3.059  2.8146 -0.4587 -0.5882
 1679SOL     vw 6716   2.223   0.810   3.141  0.4896 -0.0442 -0.0927
 1680SOL     ow 6717   6.646   1.922   6.701  0.1495  0.0683  0.3671
 1680SOL     hw 6718   6.565   1.872   6.718  1.0972 -0.8801  2.4411
 1680SOL     hw 6719   6.707   1.856   6.668  0.0053  0.8734 -1.6530
 1680SOL     vw 6720   6.643   1.906   6.699  0.2556  0.0494  0.3743
 1681SOL     ow 6721   2.587   7.444   0.546  0.1747 -0.1854 -0.0092
 1681SOL     hw 6722   2.552   7.531   0.563  2.5544  1.0614 -1.0110
 1681SOL     hw 6723   2.638   7.423   0.625  0.4248 -0.2251 -0.1800
 1681SOL     vw 6724   2.590   7.453   0.559  0.5218 -0.0260 -0.1639
 1682SOL     ow 6725   0.165   5.340   5.826  0.8058  0.1914  0.2137
 1682SOL     hw 6726   0.099   5.409   5.825  3.8445  3.3755  1.2915
 1682SOL     hw 6727   0.213   5.352   5.744  2.0295  0.0921  0.8996
 1682SOL     vw 6728   0.162   5.351   5.815  1.3682  0.5984  0.4463
 1683SOL     ow 6729   6.011   5.515   6.853  0.0794  0.6993  0.1497
 1683SOL     hw 6730   5.980   5.578   6.918  1.1969  0.2878  1.1190
 1683SOL     hw 6731   6.079   5.465   6.898  0.4978  0.0206 -1.1652
 1683SOL     vw 6732   6.016   5.517   6.867  0.2820  0.5555  0.1040
 1684SOL     ow 6733   5.363   6.392   5.238 -1.0131 -0.6914  0.5444
 1684SOL     hw 6734   5.439   6.430   5.283 -0.8782 -0.4070  0.0789
 1684SOL     hw 6735   5.316   6.344   5.307  0.4329 -2.2266  0.5282
 1684SOL     vw 6736   5.366   6.391   5.253 -0.8049 -0.8559  0.4807
 1685SOL     ow 6737   7.020   0.644   3.856 -0.6410 -0.2708  0.0993
 1685SOL     hw 6738   6.932   0.609   3.841 -0.7872 -0.3979  1.1909
 1685SOL     hw 6739   7.057   0.586   3.923 -0.4258  0.8942  1.0166
 1685SOL     vw 6740   7.013   0.632   3.863 -0.6320 -0.1338  0.3643
 1686SOL     ow 6741   6.810   5.056   0.286 -0.1966  0.3603 -0.8028
 1686SOL     hw 6742   6.871   5.039   0.357  0.7654  1.0733 -1.4510
 1686SOL     hw 6743   6.773   4.969   0.265  0.4824 -0.0497 -0.3197
 1686SOL     vw 6744   6.813   5.042   0.292  0.0200  0.4008 -0.8246
 1687SOL     ow 6745   2.659   0.940   2.631 -0.2979  0.0786 -0.6744
 1687SOL     hw 6746   2.651   0.855   2.588 -1.3644 -0.0801 -0.1869
 1687SOL     hw 6747   2.597   0.936   2.704  2.8049 -0.4604  2.2128
 1687SOL     vw 6748   2.650   0.928   2.635 -0.0293 -0.0134 -0.2292
 1688SOL     ow 6749   5.014   3.148   1.558 -0.4839  0.0368 -0.2997
 1688SOL     hw 6750   5.010   3.076   1.494  0.8323  0.9597 -1.4695
 1688SOL     hw 6751   4.922   3.167   1.577 -0.9860 -3.8815  2.4063
 1688SOL     vw 6752   5.001   3.141   1.552 -0.3767 -0.3585 -0.0970
 1689SOL     ow 6753   4.175   0.528   5.881 -1.2892 -1.0516 -0.0477
 1689SOL     hw 6754   4.220   0.603   5.920 -2.9683  0.3919 -0.7509
 1689SOL     hw 6755   4.182   0.458   5.946  0.0251 -0.1979  0.7659
 1689SOL     vw 6756   4.182   0.528   5.895 -1.3373 -0.7486 -0.0331
 1690SOL     ow 6757   0.890   1.296   1.847  0.1725  0.6601 -0.0256
 1690SOL     hw 6758   0.927   1.306   1.760 -0.8679 -2.3404 -0.9307
 1690SOL     hw 6759   0.964   1.274   1.903  0.4089 -1.2210 -0.9947
 1690SOL     vw 6760   0.905   1.295   1.843  0.0664  0.0160 -0.2729
 1691SOL     ow 6761   5.309   2.382   2.350 -0.3484  0.2748  0.2869
 1691SOL     hw 6762   5.333   2.439   2.424 -1.6045  0.6595  0.4203
 1691SOL     hw 6763   5.225   2.345   2.374 -0.3072 -0.3804 -0.5296
 1691SOL     vw 6764   5.301   2.385   2.363 -0.5085  0.2393  0.1969
 1692SOL     ow 6765   7.249   6.633   1.292  0.5742  0.1503 -0.1181
 1692SOL     hw 6766   7.263   6.678   1.375 -1.2791  0.9116 -0.1832
 1692SOL     hw 6767   7.190   6.560   1.313  0.6372 -0.0638 -0.6582
 1692SOL     vw 6768   7.243   6.629   1.305  0.3378  0.2227 -0.1980
 1693SOL     ow 6769   4.071   1.363   6.629  0.0557  0.0162 -0.2019
 1693SOL     hw 6770   4.127   1.286   6.625 -0.6349 -0.6304  1.7061
 1693SOL     hw 6771   4.132   1.437   6.632  0.8487 -0.6559  1.5709
 1693SOL     vw 6772   4.086   1.363   6.629  0.0691 -0.1577  0.2835
 1694SOL     ow 6773   6.076   4.949   5.498  0.7176  0.2130  0.2714
 1694SOL     hw 6774   6.144   4.906   5.550  1.4273 -0.3797 -1.1261
 1694SOL     hw 6775   6.116   4.965   5.413 -1.4768 -2.0673 -1.3526
 1694SOL     vw 6776   6.090   4.945   5.494  0.5217 -0.1657 -0.1273
 1695SOL     ow 6777   6.589   7.181   5.186  0.1735 -0.6032 -0.0860
 1695SOL     hw 6778   6.567   7.114   5.121 -0.7982  1.2482 -1.7489
 1695SOL     hw 6779   6.540   7.154   5.265 -1.9876 -0.7275 -1.3819
 1695SOL     vw 6780   6.580   7.168   5.188 -0.2401 -0.3755 -0.4766
 1696SOL     ow 6781   2.437   6.093   4.611 -0.1017  0.1957  0.4637
 1696SOL     hw 6782   2.410   6.168   4.665 -1.6657  0.2687 -0.3647
 1696SOL     hw 6783   2.359   6.072   4.559  1.3814  0.3070 -1.9701
 1696SOL     vw 6784   2.423   6.100   4.611 -0.1123  0.2198  0.0334
 1697SOL     ow 6785   1.151   0.200   2.188  0.6451 -0.7608 -0.1136
 1697SOL     hw 6786   1.136   0.210   2.282 -0.6967  2.0771 -0.5453
 1697SOL     hw 6787   1.108   0.117   2.166 -0.4758 -0.6502  1.4817
 1697SOL     vw 6788   1.143   0.190   2.198  0.3201 -0.3718  0.0399
 1698SOL     ow 6789   5.038   0.169   0.123 -0.2206  0.4942  0.2982
 1698SOL     hw 6790   5.005   0.239   0.180 -1.4610  0.1131  0.0873
 1698SOL     hw 6791   4.975   0.166   0.051  1.7475  1.5011 -1.5740
 1698SOL     vw 6792   5.025   0.178   0.121 -0.1245  0.5768  0.0234
 1699SOL     ow 6793   6.385   2.152   0.284  0.4271  0.1892 -0.0968
 1699SOL     hw 6794   6.300   2.152   0.326  0.0454 -0.9215 -0.8324
 1699SOL     hw 6795   6.372   2.201   0.203  0.5519  0.2306 -0.0925
 1699SOL     vw 6796   6.372   2.158   0.279  0.3932  0.0482 -0.1933
 1700SOL     ow 6797   0.308   6.425   1.656 -0.1637 -0.8823  0.0867
 1700SOL     hw 6798   0.239   6.481   1.621 -1.0835 -2.4002 -0.6138
 1700SOL     hw 6799   0.389   6.475   1.643 -0.7567 -0.3618 -1.9831
 1700SOL     vw 6800   0.310   6.439   1.650 -0.3633 -1.0140 -0.2789
 1701SOL     ow 6801   0.428   5.370   2.805  0.1950 -0.0507  0.4695
 1701SOL     hw 6802   0.511   5.416   2.797  0.9839 -0.8165  3.1151
 1701SOL     hw 6803   0.452   5.277   2.804 -0.9872 -0.3923 -1.4333
 1701SOL     vw 6804   0.442   5.364   2.804  0.1431 -0.1967  0.5674
 1702SOL     ow 6805   0.217   1.105   1.416  0.0895  0.4705 -0.6729
 1702SOL     hw 6806   0.311   1.098   1.400  1.1396 -1.3840  4.2847
 1702SOL     hw 6807   0.198   1.198   1.409  2.8267  1.1879  0.0119
 1702SOL     vw 6808   0.227   1.116   1.413  0.5892  0.3206  0.0716
 1703SOL     ow 6809   6.090   2.660   1.686 -0.3275  0.1690 -0.1247
 1703SOL     hw 6810   6.024   2.602   1.723 -1.4619  2.2482  1.3606
 1703SOL     hw 6811   6.042   2.711   1.620 -0.7814  2.7386  1.9853
 1703SOL     vw 6812   6.075   2.659   1.682 -0.5372  0.7825  0.3497
 1704SOL     ow 6813   5.588   7.036   7.400  0.1849  0.1754  0.7922
 1704SOL     hw 6814   5.613   7.128   7.402 -0.5297  0.6071 -2.6815
 1704SOL     hw 6815   5.671   6.988   7.401  0.7002  1.0238  0.1548
 1704SOL     vw 6816   5.602   7.042   7.400  0.1583  0.3443  0.2499
 1705SOL     ow 6817   4.660   2.841   3.258  0.1228 -0.0012  0.3141
 1705SOL     hw 6818   4.606   2.875   3.329 -0.2867  1.0639 -0.4731
 1705SOL     hw 6819   4.749   2.868   3.280  0.8700 -3.7523  2.8274
 1705SOL     vw 6820   4.665   2.849   3.270  0.1671 -0.3556  0.5418
 1706SOL     ow 6821   4.820   4.615   5.734 -0.6068  1.0202  0.1461
 1706SOL     hw 6822   4.891   4.559   5.764 -1.1179  1.0881  1.5390
 1706SOL     hw 6823   4.780   4.567   5.661  0.3390  0.6146 -0.1240
 1706SOL     vw 6824   4.824   4.602   5.728 -0.5496  0.9754  0.2944
 1707SOL     ow 6825   5.559   5.262   1.687 -0.0087  0.4147 -0.3071
 1707SOL     hw 6826   5.509   5.252   1.768 -0.3826  0.9474 -0.4693
 1707SOL     hw 6827   5.502   5.312   1.629  0.9305  1.5550 -0.2921
 1707SOL     vw 6828   5.545   5.267   1.690  0.0658  0.6354 -0.3266
 1708SOL     ow 6829   2.400   3.834   3.993 -0.0771 -0.8369  0.7988
 1708SOL     hw 6830   2.323   3.849   4.048  1.0859  1.5717  1.9140
 1708SOL     hw 6831   2.405   3.910   3.936  1.4569 -0.9486  0.7336
 1708SOL     vw 6832   2.391   3.846   3.993  0.2787 -0.5339  0.9371
 1709SOL     ow 6833   2.606   2.772   4.420  0.4060  0.0105 -0.0067
 1709SOL     hw 6834   2.700   2.774   4.439  0.1298 -1.0334  1.6270
 1709SOL     hw 6835   2.590   2.854   4.373  2.0901  0.2957 -0.1514
 1709SOL     vw 6836   2.617   2.783   4.417  0.5916 -0.0896  0.1898
 1710SOL     ow 6837   0.005   2.700   3.885 -0.1040  0.0230  0.5007
 1710SOL     hw 6838  -0.058   2.633   3.859  2.3802 -1.3876 -2.5731
 1710SOL     hw 6839   0.035   2.672   3.972  2.3277 -4.3956 -1.3984
 1710SOL     vw 6840   0.001   2.687   3.893  0.5446 -0.7461 -0.1554
 1711SOL     ow 6841   6.161   0.595   3.402  0.1347 -0.4647  0.1516
 1711SOL     hw 6842   6.191   0.615   3.313 -2.2666  1.0836 -0.3916
 1711SOL     hw 6843   6.197   0.666   3.456  0.6444 -0.7673  0.2110
 1711SOL     vw 6844   6.170   0.607   3.398 -0.1149 -0.3004  0.0877
 1712SOL     ow 6845   7.469   5.368   6.826  0.3472  0.1409  0.0369
 1712SOL     hw 6846   7.382   5.337   6.849 -0.2038 -2.9549 -4.7441
 1712SOL     hw 6847   7.463   5.388   6.733  4.3474  1.5479 -0.1001
 1712SOL     vw 6848   7.457   5.366   6.817  0.8023 -0.0820 -0.6118
 1713SOL     ow 6849   1.568   2.169   1.178 -0.1325  0.7380 -0.5425
 1713SOL     hw 6850   1.587   2.182   1.085  1.2673 -1.9422 -0.7351
 1713SOL     hw 6851   1.647   2.200   1.223 -0.1448  0.5397 -0.3850
 1713SOL     vw 6852   1.581   2.175   1.172  0.0507  0.3581 -0.5471
 1714SOL     ow 6853   4.626   1.030   6.089  0.2419 -0.7336  0.0099
 1714SOL     hw 6854   4.715   1.005   6.115 -0.1464 -0.1692  2.0840
 1714SOL     hw 6855   4.572   0.956   6.118 -0.0882 -0.6594 -0.4092
 1714SOL     vw 6856   4.631   1.017   6.096  0.1471 -0.6493  0.2282
 1715SOL     ow 6857   6.691   6.046   3.508  0.2683  0.7726  0.8822
 1715SOL     hw 6858   6.690   6.070   3.601 -1.7511 -0.0189  1.1177
 1715SOL     hw 6859   6.616   5.987   3.498  1.3299 -0.3334 -0.9610
 1715SOL     vw 6860   6.681   6.042   3.519  0.1419  0.5224  0.6700
 1716SOL     ow 6861   0.712   5.136   0.761  0.1428  0.4227 -0.2333
 1716SOL     hw 6862   0.671   5.221   0.778 -1.5370  0.0962 -2.1576
 1716SOL     hw 6863   0.644   5.073   0.782  0.2373 -0.2478 -1.8148
 1716SOL     vw 6864   0.697   5.139   0.766 -0.0664  0.2913 -0.6958
 1717SOL     ow 6865   1.874   5.922   7.009 -0.5903 -0.1158  0.4911
 1717SOL     hw 6866   1.800   5.867   6.986 -1.2650  1.2180 -0.7513
 1717SOL     hw 6867   1.874   5.925   7.105 -2.9888  0.8752  0.5347
 1717SOL     vw 6868   1.865   5.915   7.018 -0.9959  0.1907  0.3331
 1718SOL     ow 6869   2.657   0.992   7.150 -0.7386 -0.6831  0.4805
 1718SOL     hw 6870   2.621   1.025   7.233 -3.0684  2.1468 -1.4394
 1718SOL     hw 6871   2.704   0.912   7.174 -2.9442 -1.0803  4.2432
 1718SOL     vw 6872   2.658   0.985   7.164 -1.3369 -0.3622  0.7238
 1719SOL     ow 6873   5.430   6.680   1.158  0.5490 -0.2168 -0.0754
 1719SOL     hw 6874   5.374   6.696   1.082  0.7776 -1.1080 -0.4402
 1719SOL     hw 6875   5.395   6.600   1.197  1.9888 -1.1774 -0.7118
 1719SOL     vw 6876   5.418   6.672   1.153  0.7691 -0.4609 -0.2075
 1720SOL     ow 6877   1.795   6.331   0.746 -0.5902  0.4949  0.1817
 1720SOL     hw 6878   1.862   6.398   0.757 -0.7028  0.6605 -0.1163
 1720SOL     hw 6879   1.712   6.376   0.765 -0.6781  0.4750 -0.1515
 1720SOL     vw 6880   1.793   6.346   0.750 -0.6166  0.5140  0.0984
 1721SOL     ow 6881   3.880   4.014   0.208  0.2349  0.0213 -0.6493
 1721SOL     hw 6882   3.961   3.977   0.172 -0.2129 -0.2233 -1.4155
 1721SOL     hw 6883   3.810   3.962   0.169 -0.2722 -0.3963  0.7340
 1721SOL     vw 6884   3.881   4.002   0.198  0.1090 -0.0660 -0.5679
 1722SOL     ow 6885   3.964   1.283   3.776  0.3636 -0.6570  0.1929
 1722SOL     hw 6886   3.950   1.199   3.730 -3.3157 -0.4856  0.7170
 1722SOL     hw 6887   4.014   1.336   3.714  1.3897 -2.6647 -0.8010
 1722SOL     vw 6888   3.969   1.279   3.762  0.0136 -0.8993  0.1309
 1723SOL     ow 6889   5.646   5.010   1.246  0.4432  0.4473 -0.0265
 1723SOL     hw 6890   5.648   5.082   1.182 -0.4983  0.1237 -0.4434
 1723SOL     hw 6891   5.554   5.004   1.272  0.4968 -0.6482 -0.0482
 1723SOL     vw 6892   5.634   5.019   1.241  0.3259  0.2601 -0.0843
 1724SOL     ow 6893   5.395   2.114   5.480  0.4656  0.0014 -0.2896
 1724SOL     hw 6894   5.441   2.163   5.548  1.7294 -1.4257 -0.0666
 1724SOL     hw 6895   5.409   2.165   5.400  0.0404  1.0324  0.2812
 1724SOL     vw 6896   5.403   2.127   5.478  0.5760 -0.0509 -0.1848
 1725SOL     ow 6897   6.014   1.188   0.850 -0.1612 -0.2904 -0.4990
 1725SOL     hw 6898   6.044   1.100   0.830 -0.0351  0.0754 -2.0241
 1725SOL     hw 6899   5.925   1.192   0.814 -0.1416  0.2274 -0.4991
 1725SOL     vw 6900   6.006   1.177   0.843 -0.1419 -0.1738 -0.7003
 1726SOL     ow 6901   2.214   5.509   1.721 -0.2504  0.5609 -0.3407
 1726SOL     hw 6902   2.169   5.590   1.747 -0.1833  0.3387  0.5276
 1726SOL     hw 6903   2.154   5.468   1.659 -1.0105  0.5407  0.3776
 1726SOL     vw 6904   2.200   5.514   1.717 -0.3418  0.5291 -0.1314
 1727SOL     ow 6905   4.083   4.924   6.219  0.3120 -1.4418  0.2501
 1727SOL     hw 6906   4.162   4.936   6.272 -0.4231 -0.0660  1.0780
 1727SOL     hw 6907   4.056   5.012   6.195 -2.1083 -1.6870  1.7217
 1727SOL     vw 6908   4.090   4.937   6.223 -0.1044 -1.2925  0.5538
 1728SOL     ow 6909   5.363   3.703   1.662 -0.2679  0.0612 -0.7067
 1728SOL     hw 6910   5.435   3.647   1.690 -1.2628 -0.8891  0.0584
 1728SOL     hw 6911   5.289   3.675   1.716 -1.9852 -0.9998 -3.4294
 1728SOL     vw 6912   5.362   3.692   1.673 -0.6256 -0.2040 -0.9650
 1729SOL     ow 6913   7.530   2.476   3.817 -0.5869 -0.1781  0.0914
 1729SOL     hw 6914   7.512   2.411   3.884 -1.5091  0.7848  0.8161
 1729SOL     hw 6915   7.457   2.467   3.755 -0.5487 -0.0523  0.0274
 1729SOL     vw 6916   7.518   2.467   3.818 -0.7033 -0.0345  0.1786
 1730SOL     ow 6917   2.090   7.128   3.837 -0.4305  0.9441 -0.6323
 1730SOL     hw 6918   2.042   7.114   3.755  0.2597 -0.4447 -0.8288
 1730SOL     hw 6919   2.162   7.065   3.834 -0.0964  1.2180  0.8215
 1730SOL     vw 6920   2.093   7.118   3.825 -0.2954  0.7968 -0.4665
 1731SOL     ow 6921   6.086   1.188   5.984  0.0968 -0.1978  0.1888
 1731SOL     hw 6922   6.106   1.193   6.078  1.6445 -1.1940 -0.0524
 1731SOL     hw 6923   6.037   1.106   5.975  1.2650 -0.8886 -0.0586
 1731SOL     vw 6924   6.082   1.178   5.996  0.4554 -0.4203  0.1240
 1732SOL     ow 6925   1.843   1.911   3.682 -0.1556  0.3391 -1.2527
 1732SOL     hw 6926   1.902   1.941   3.613  0.8759 -0.1604 -0.6085
 1732SOL     hw 6927   1.830   1.988   3.737  1.8145 -0.1166 -0.0721
 1732SOL     vw 6928   1.849   1.925   3.680  0.2404  0.2130 -1.0121
 1733SOL     ow 6929   0.670   2.768   3.871 -0.4934  0.1142 -0.1235
 1733SOL     hw 6930   0.654   2.729   3.957 -1.1651 -0.4449 -0.4871
 1733SOL     hw 6931   0.698   2.694   3.816 -0.4877  0.3898 -0.4936
 1733SOL     vw 6932   0.672   2.753   3.875 -0.5813  0.0768 -0.2204
 1734SOL     ow 6933   3.156   3.808   2.452 -0.5276 -0.0786  1.0304
 1734SOL     hw 6934   3.181   3.742   2.387 -0.9349 -0.4375  1.2316
 1734SOL     hw 6935   3.205   3.886   2.426 -0.7771 -0.1779  0.2149
 1734SOL     vw 6936   3.166   3.809   2.440 -0.6143 -0.1391  0.9494
 1735SOL     ow 6937   3.592   6.464   3.386  0.0392  0.0768 -0.3075
 1735SOL     hw 6938   3.514   6.423   3.424  0.7422  1.0778  2.4586
 1735SOL     hw 6939   3.653   6.392   3.373 -1.2972 -0.7447 -2.6555
 1735SOL     vw 6940   3.590   6.449   3.389 -0.0443  0.1006 -0.2522
 1736SOL     ow 6941   0.248   0.176   4.816 -0.8686 -0.8687  0.3518
 1736SOL     hw 6942   0.292   0.145   4.896 -2.0427  0.2427  1.4769
 1736SOL     hw 6943   0.178   0.233   4.848 -0.2214  1.1238 -1.5333
 1736SOL     vw 6944   0.245   0.179   4.831 -0.9381 -0.4592  0.2515
 1737SOL     ow 6945   1.056   7.085   0.311 -0.0259  0.2036  0.1731
 1737SOL     hw 6946   1.058   7.000   0.356  0.6437 -0.5345 -1.1885
 1737SOL     hw 6947   1.140   7.090   0.265 -0.6426  0.9655 -0.9162
 1737SOL     vw 6948   1.068   7.074   0.311 -0.0189  0.2067 -0.1502
 1738SOL     ow 6949   6.171   1.612   1.186  0.1245 -0.2493  0.3747
 1738SOL     hw 6950   6.094   1.663   1.210  0.4793  1.5086 -1.8091
 1738SOL     hw 6951   6.234   1.678   1.153  2.0882 -1.7425  0.9284
 1738SOL     vw 6952   6.169   1.628   1.185  0.4301 -0.2144  0.1596
 1739SOL     ow 6953   6.922   1.344   2.971  0.9938  0.3293  0.9236
 1739SOL     hw 6954   6.866   1.422   2.963 -0.1942 -0.5947 -0.1815
 1739SOL     hw 6955   6.941   1.338   3.065 -0.8061  0.6588  1.3464
 1739SOL     vw 6956   6.917   1.354   2.982  0.5994  0.2509  0.8336
 1740SOL     ow 6957   6.662   6.861   4.693 -0.4315  0.4523  1.1022
 1740SOL     hw 6958   6.630   6.950   4.685 -1.6917 -0.0404  0.2977
 1740SOL     hw 6959   6.749   6.862   4.653 -0.1568  1.4481  1.7133
 1740SOL     vw 6960   6.670   6.873   4.687 -0.5617  0.5188  1.0767
 1741SOL     ow 6961   4.701   6.475   1.811  0.3942  0.1794  0.6892
 1741SOL     hw 6962   4.779   6.421   1.804 -1.8217 -3.1602 -0.8896
 1741SOL     hw 6963   4.656   6.444   1.889 -0.4327  0.4561  0.3409
 1741SOL     vw 6964   4.705   6.464   1.820 -0.0072 -0.2246  0.4350
 1742SOL     ow 6965   0.080   3.958   2.237  0.5866 -0.0041 -0.7570
 1742SOL     hw 6966   0.068   4.004   2.154  2.3158 -1.0811 -1.6527
 1742SOL     hw 6967   0.171   3.930   2.236  0.3037 -1.1055  0.9595
 1742SOL     vw 6968   0.090   3.960   2.226  0.7774 -0.2915 -0.6486
 1743SOL     ow 6969   7.580   5.673   2.004 -0.3704 -0.1074  0.0729
 1743SOL     hw 6970   7.608   5.760   1.974 -0.5341 -0.5036 -1.2920
 1743SOL     hw 6971   7.487   5.668   1.980 -0.5809 -0.3543  0.8973
 1743SOL     vw 6972   7.571   5.684   1.997 -0.4196 -0.1922  0.0016
 1744SOL     ow 6973   2.431   0.490   3.408 -0.2439 -0.0179  0.2575
 1744SOL     hw 6974   2.397   0.549   3.475 -1.7491 -0.4009 -0.1396
 1744SOL     hw 6975   2.504   0.445   3.450 -1.5257 -0.6881  1.8645
 1744SOL     vw 6976   2.436   0.492   3.422 -0.6115 -0.1569  0.4171
 1745SOL     ow 6977   2.473   0.160   5.541 -0.6869  0.0371  0.1312
 1745SOL     hw 6978   2.518   0.212   5.476  0.4240 -1.6040 -0.4834
 1745SOL     hw 6979   2.418   0.222   5.589 -0.1755  1.5585 -1.1921
 1745SOL     vw 6980   2.471   0.175   5.539 -0.4729  0.0213 -0.1247
 1746SOL     ow 6981   5.310   3.705   1.345 -0.4540  0.6769  1.0826
 1746SOL     hw 6982   5.367   3.685   1.270 -1.8637  1.9271 -0.3726
 1746SOL     hw 6983   5.223   3.715   1.307 -1.5887 -0.5350  3.1717
 1746SOL     vw 6984   5.306   3.703   1.330 -0.7899  0.6820  1.1662
 1747SOL     ow 6985   4.314   6.390   6.280  0.2035  0.0552  0.7947
 1747SOL     hw 6986   4.259   6.383   6.202  1.0899 -2.7662  0.3258
 1747SOL     hw 6987   4.401   6.411   6.246  0.2374  0.6123  1.2083
 1747SOL     vw 6988   4.318   6.392   6.265  0.3247 -0.2434  0.7873
 1748SOL     ow 6989   7.441   1.315   5.218  0.3490 -0.0627  0.3195
 1748SOL     hw 6990   7.433   1.396   5.269 -1.7819  1.6645 -2.5098
 1748SOL     hw 6991   7.493   1.339   5.142 -0.0696 -1.4258 -0.4378
 1748SOL     vw 6992   7.447   1.328   5.215  0.0126 -0.0146 -0.1538
 1749SOL     ow 6993   0.827   7.378   1.881 -0.3449 -0.0360  0.4166
 1749SOL     hw 6994   0.880   7.370   1.961  0.7739  0.2506 -0.2656
 1749SOL     hw 6995   0.857   7.305   1.827 -0.1970  0.4966 -0.2248
 1749SOL     vw 6996   0.838   7.368   1.885 -0.1777  0.0720  0.2419
 1750SOL     ow 6997   2.668   1.949   2.923 -0.0273  0.7446 -0.2371
 1750SOL     hw 6998   2.672   1.861   2.961  0.1938  1.9425  2.8030
 1750SOL     hw 6999   2.594   1.946   2.863  1.7001 -2.2453 -2.5049
 1750SOL     vw 7000   2.659   1.937   2.920  0.2298  0.5081 -0.1352
 1751SOL     ow 7001   0.124   5.991   2.457 -0.2457  0.4931  0.0631
 1751SOL     hw 7002   0.108   6.084   2.475  3.1650  1.2904 -0.3447
 1751SOL     hw 7003   0.210   5.974   2.495  0.8447 -1.5285 -2.9811
 1751SOL     vw 7004   0.133   6.001   2.465  0.3482  0.3314 -0.3923
 1752SOL     ow 7005   4.695   3.404   5.286 -0.0626  0.8509  1.3181
 1752SOL     hw 7006   4.665   3.322   5.325  0.4955  0.4710  0.9662
 1752SOL     hw 7007   4.787   3.410   5.311  0.3500  0.5291 -0.0322
 1752SOL     vw 7008   4.703   3.394   5.294  0.0651  0.7583  1.0934
 1753SOL     ow 7009   6.313   0.652   4.580 -0.8939 -0.8751  0.1988
 1753SOL     hw 7010   6.379   0.586   4.599  1.7247  1.1055 -1.1835
 1753SOL     hw 7011   6.346   0.731   4.624 -0.9832  0.7594 -2.4566
 1753SOL     vw 7012   6.326   0.654   4.588 -0.5600 -0.3981 -0.3340
 1754SOL     ow 7013   2.504   4.082   4.621  0.5821 -0.7639  0.2350
 1754SOL     hw 7014   2.474   4.081   4.712 -1.1131  1.7800 -0.1961
 1754SOL     hw 7015   2.537   4.171   4.608 -1.2762 -0.3469 -2.1962
 1754SOL     vw 7016   2.504   4.093   4.632  0.1131 -0.3731 -0.1428
 1755SOL     ow 7017   4.542   2.986   5.108  0.3302 -0.2658  0.1232
 1755SOL     hw 7018   4.563   3.020   5.195  0.2184  0.3376 -0.0832
 1755SOL     hw 7019   4.494   3.057   5.065  0.0272 -0.7140 -0.2845
 1755SOL     vw 7020   4.539   3.000   5.114  0.2754 -0.2453  0.0424
 1756SOL     ow 7021   6.887   1.471   2.264 -0.5950 -1.0569  0.1823
 1756SOL     hw 7022   6.890   1.550   2.318  0.0875 -1.9165  1.4484
 1756SOL     hw 7023   6.947   1.490   2.191  1.0715 -1.0925  1.4866
 1756SOL     vw 7024   6.896   1.484   2.261 -0.2851 -1.1750  0.5214
 1757SOL     ow 7025   5.828   4.882   5.855  0.4384  0.8957  0.1866
 1757SOL     hw 7026   5.895   4.823   5.820  1.1738  1.0432  1.2946
 1757SOL     hw 7027   5.853   4.895   5.946 -1.5083  0.3733  0.8503
 1757SOL     vw 7028   5.840   4.876   5.862  0.2785  0.8461  0.4203
 1758SOL     ow 7029   2.446   6.793   3.804  0.2033 -0.0943 -0.1766
 1758SOL     hw 7030   2.527   6.842   3.823  0.8421 -1.8097  1.9459
 1758SOL     hw 7031   2.475   6.703   3.789 -1.1849 -0.3903 -1.3017
 1758SOL     vw 7032   2.461   6.788   3.805  0.1043 -0.3595 -0.0452
 1759SOL     ow 7033   2.355   7.321   6.404  0.1112  0.1119 -0.0079
 1759SOL     hw 7034   2.425   7.367   6.451 -0.8518  0.5254  1.0727
 1759SOL     hw 7035   2.338   7.375   6.327 -0.0964  0.8643  0.5565
 1759SOL     vw 7036   2.362   7.334   6.400 -0.0433  0.2656  0.2096
 1760SOL     ow 7037   6.009   5.805   5.454 -0.3809 -0.4314 -0.2838
 1760SOL     hw 7038   5.999   5.711   5.468  0.3312 -0.6300 -1.0078
 1760SOL     hw 7039   5.927   5.843   5.484 -0.4529 -1.2175  0.5725
 1760SOL     vw 7040   5.997   5.798   5.460 -0.2966 -0.5612 -0.2666
 1761SOL     ow 7041   3.330   3.711   1.936 -0.7605 -0.7279  0.0594
 1761SOL     hw 7042   3.320   3.783   1.998 -0.0376 -0.7523  0.2037
 1761SOL     hw 7043   3.347   3.634   1.990  0.6870 -0.6061 -0.1874
 1761SOL     vw 7044   3.331   3.711   1.951 -0.4742 -0.7151  0.0459
 1762SOL     ow 7045   4.307   4.998   6.360  0.1897  0.6344  0.0034
 1762SOL     hw 7046   4.368   4.926   6.372  0.9110  1.3760  0.9316
 1762SOL     hw 7047   4.316   5.051   6.439  0.0188  2.0000 -0.8537
 1762SOL     vw 7048   4.316   4.996   6.372  0.2625  0.9122  0.0126
 1763SOL     ow 7049   4.425   1.026   3.196  0.5034 -0.3694  0.4390
 1763SOL     hw 7050   4.336   0.991   3.202  0.2821  0.3453  1.8067
 1763SOL     hw 7051   4.414   1.121   3.207  1.4308 -0.2783  0.6732
 1763SOL     vw 7052   4.412   1.034   3.198  0.5965 -0.2632  0.6503
 1764SOL     ow 7053   1.669   6.114   3.911 -0.0331  0.6149 -0.8109
 1764SOL     hw 7054   1.596   6.101   3.851 -0.1279  1.0289 -0.7859
 1764SOL     hw 7055   1.644   6.190   3.964  0.1905  0.4499 -0.4611
 1764SOL     vw 7056   1.656   6.122   3.910 -0.0161  0.6478 -0.7616
 1765SOL     ow 7057   0.983   0.304   0.113 -0.4782 -0.5013  0.3067
 1765SOL     hw 7058   1.000   0.381   0.168  0.0254 -1.0476  0.9369
 1765SOL     hw 7059   0.908   0.329   0.060  1.1244  1.3609 -1.2778
 1765SOL     vw 7060   0.976   0.318   0.113 -0.2003 -0.3277  0.1808
 1766SOL     ow 7061   4.763   6.995   5.905 -0.3518  1.0522  0.2585
 1766SOL     hw 7062   4.707   6.953   5.840 -1.7889 -0.0693  2.1087
 1766SOL     hw 7063   4.794   6.923   5.959 -0.2029  2.0470  1.5434
 1766SOL     vw 7064   4.760   6.980   5.903 -0.5219  1.0355  0.6721
 1767SOL     ow 7065   0.340   7.322   2.156  0.4414 -0.1442  0.2027
 1767SOL     hw 7066   0.255   7.366   2.161 -0.2480 -0.6256 -4.1082
 1767SOL     hw 7067   0.326   7.238   2.200 -2.0981 -1.1220 -2.2181
 1767SOL     vw 7068   0.327   7.316   2.163  0.0154 -0.3366 -0.6855
 1768SOL     ow 7069   6.629   2.500   4.498 -0.4206  0.2233  0.1823
 1768SOL     hw 7070   6.571   2.560   4.544 -0.2267 -1.3367  2.6363
 1768SOL     hw 7071   6.702   2.486   4.558  0.5982 -0.8292 -1.2256
 1768SOL     vw 7072   6.631   2.506   4.512 -0.2606 -0.1215  0.3202
 1769SOL     ow 7073   3.548   3.400   5.378  0.6514 -0.2004  0.3245
 1769SOL     hw 7074   3.611   3.420   5.309 -0.1916  0.2673 -0.3387
 1769SOL     hw 7075   3.462   3.406   5.335  0.1602 -1.1635  1.1158
 1769SOL     vw 7076   3.545   3.404   5.364  0.4753 -0.2657  0.3414
 1770SOL     ow 7077   5.784   3.012   3.909  0.4591  0.8009 -0.2334
 1770SOL     hw 7078   5.737   3.043   3.987 -1.4400  0.6335 -1.2482
 1770SOL     hw 7079   5.867   3.060   3.910 -0.8802  3.2369  0.1690
 1770SOL     vw 7080   5.789   3.022   3.920  0.0319  1.1002 -0.3142
 1771SOL     ow 7081   1.643   0.850   5.597 -0.2773  0.6831 -0.5706
 1771SOL     hw 7082   1.559   0.851   5.643  1.3421 -0.1995  2.7361
 1771SOL     hw 7083   1.621   0.829   5.506 -3.4942 -1.4775  0.5401
 1771SOL     vw 7084   1.629   0.848   5.591 -0.4881  0.2816  0.0122
 1772SOL     ow 7085   1.226   1.203   6.700  0.0112  0.0244 -0.0712
 1772SOL     hw 7086   1.286   1.272   6.670  1.4151 -0.8580  0.6001
 1772SOL     hw 7087   1.247   1.193   6.793  0.0362 -1.4912 -0.2262
 1772SOL     vw 7088   1.237   1.211   6.708  0.1998 -0.2920 -0.0029
 1773SOL     ow 7089   7.031   2.282   4.868 -1.2181 -0.3803  0.4004
 1773SOL     hw 7090   7.059   2.296   4.959 -3.1186 -0.4887  1.0297
 1773SOL     hw 7091   6.985   2.363   4.844  0.8432  0.4376 -1.1558
 1773SOL     vw 7092   7.029   2.295   4.877 -1.1969 -0.2866  0.2785
 1774SOL     ow 7093   2.519   0.854   3.768 -0.3173 -0.1664  0.4863
 1774SOL     hw 7094   2.583   0.925   3.776 -1.3239  0.5203  4.0568
 1774SOL     hw 7095   2.569   0.775   3.789  0.0868 -0.1179 -0.2544
 1774SOL     vw 7096   2.534   0.853   3.772 -0.3970 -0.0694  0.8597
 1775SOL     ow 7097   4.636   4.674   7.223  0.3073  0.1673  0.5621
 1775SOL     hw 7098   4.706   4.737   7.210 -0.1081  0.3091 -1.2808
 1775SOL     hw 7099   4.576   4.689   7.149 -1.3546 -0.3455  1.7467
 1775SOL     vw 7100   4.637   4.684   7.211  0.0331  0.1180  0.4754
 1776SOL     ow 7101   1.203   1.822   3.884  0.8834  0.4683 -0.2372
 1776SOL     hw 7102   1.167   1.784   3.964  1.1992 -0.7290 -0.6486
 1776SOL     hw 7103   1.197   1.753   3.819  0.7672  1.3740 -1.2284
 1776SOL     vw 7104   1.198   1.808   3.886  0.9097  0.4298 -0.4224
 1777SOL     ow 7105   3.728   6.068   5.527 -0.0264 -0.0920 -0.3404
 1777SOL     hw 7106   3.695   5.994   5.578 -0.1826  0.5699  0.5443
 1777SOL     hw 7107   3.654   6.094   5.472 -0.0695 -0.3890 -0.4261
 1777SOL     vw 7108   3.714   6.061   5.526 -0.0528 -0.0436 -0.2351
 1778SOL     ow 7109   5.052   1.715   1.495  0.0160  0.0331  0.4707
 1778SOL     hw 7110   5.079   1.787   1.553 -1.6422  0.1256  1.1740
 1778SOL     hw 7111   5.082   1.636   1.539  3.4423  0.2280 -1.1415
 1778SOL     vw 7112   5.060   1.714   1.508  0.2491  0.0710  0.3508
 1779SOL     ow 7113   0.143   7.068   4.222 -0.4612 -0.3426  0.4964
 1779SOL     hw 7114   0.073   7.124   4.190 -0.0574 -0.7378 -1.1762
 1779SOL     hw 7115   0.224   7.117   4.207  0.1595 -2.1394 -3.2926
 1779SOL     vw 7116   0.145   7.082   4.216 -0.3260 -0.6316 -0.2239
 1780SOL     ow 7117   3.429   0.987   7.475  0.6434  0.3599  0.0320
 1780SOL     hw 7118   3.376   0.974   7.396  0.6614 -0.2587  0.1164
 1780SOL     hw 7119   3.366   0.980   7.547  0.3251  2.5456  0.0383
 1780SOL     vw 7120   3.413   0.984   7.474  0.6038  0.5666  0.0436
 1781SOL     ow 7121   6.934   0.711   2.290  0.1347  0.5638  0.0868
 1781SOL     hw 7122   6.866   0.779   2.292 -0.3234  0.0966  0.9071
 1781SOL     hw 7123   6.934   0.680   2.200 -2.4848 -1.1087  0.5193
 1781SOL     vw 7124   6.925   0.716   2.279 -0.2711  0.2815  0.2520
 1782SOL     ow 7125   1.299   3.356   5.566  0.8896 -0.5077  0.4319
 1782SOL     hw 7126   1.274   3.276   5.612 -2.4183  0.3021  0.2802
 1782SOL     hw 7127   1.283   3.336   5.473 -1.3828  0.7074  0.5091
 1782SOL     vw 7128   1.294   3.343   5.560  0.1534 -0.2404  0.4220
 1783SOL     ow 7129   2.684   2.251   6.117 -0.5698  0.3596 -0.1341
 1783SOL     hw 7130   2.711   2.170   6.073  0.3110  0.0318  0.9674
 1783SOL     hw 7131   2.621   2.221   6.183  0.2167  0.4845  0.6823
 1783SOL     vw 7132   2.679   2.236   6.120 -0.3498  0.3327  0.1190
 1784SOL     ow 7133   1.698   4.905   1.072 -0.2852  0.0727  0.8820
 1784SOL     hw 7134   1.637   4.856   1.126 -1.1179 -0.9350 -0.8714
 1784SOL     hw 7135   1.771   4.845   1.058 -0.1751  0.2423  0.7261
 1784SOL     vw 7136   1.700   4.891   1.077 -0.3806 -0.0379  0.6301
 1785SOL     ow 7137   4.084   7.511   5.748  0.0425 -0.3130  0.0241
 1785SOL     hw 7138   4.107   7.447   5.815 -0.7058  0.5930  1.2025
 1785SOL     hw 7139   4.046   7.459   5.677 -0.7096 -1.1752  1.0226
 1785SOL     vw 7140   4.082   7.496   5.748 -0.1554 -0.3071  0.3114
 1786SOL     ow 7141   7.267   5.981   5.912 -0.2708 -0.1608  0.2154
 1786SOL     hw 7142   7.331   6.037   5.869 -1.5230 -1.0100 -3.1160
 1786SOL     hw 7143   7.295   5.892   5.891 -0.7071 -0.6631  1.6473
 1786SOL     vw 7144   7.279   5.977   5.904 -0.4933 -0.3390 -0.0350
 1787SOL     ow 7145   1.136   0.930   5.762 -0.1969 -0.7670 -0.0204
 1787SOL     hw 7146   1.095   0.848   5.787 -0.6292 -0.7124 -0.5216
 1787SOL     hw 7147   1.093   0.996   5.816  1.1948 -1.0099  1.4938
 1787SOL     vw 7148   1.125   0.928   5.772 -0.0703 -0.7918  0.1132
 1788SOL     ow 7149   4.317   7.204   0.216  0.1948 -0.3899 -0.1964
 1788SOL     hw 7150   4.407   7.230   0.233 -0.2220  0.3642  0.9831
 1788SOL     hw 7151   4.300   7.134   0.279 -0.5744  0.6827  0.8319
 1788SOL     vw 7152   4.326   7.198   0.227  0.0384 -0.1490  0.0949
 1789SOL     ow 7153   1.529   5.267   4.109 -0.5021  0.3432 -0.1101
 1789SOL     hw 7154   1.531   5.298   4.018 -2.7569 -1.7435 -0.9891
 1789SOL     hw 7155   1.437   5.269   4.133  0.0903  1.1903  2.3256
 1789SOL     vw 7156   1.517   5.271   4.100 -0.7214  0.1795  0.0956
 1790SOL     ow 7157   6.769   0.519   7.313 -0.2843 -0.8053  0.3842
 1790SOL     hw 7158   6.816   0.459   7.371  0.7270  0.9843  1.5178
 1790SOL     hw 7159   6.806   0.503   7.226  0.2492 -1.5302  0.7367
 1790SOL     vw 7160   6.780   0.509   7.309 -0.0803 -0.6648  0.5803
 1791SOL     ow 7161   1.044   4.313   4.323 -0.1473 -0.1557  0.2761
 1791SOL     hw 7162   1.086   4.399   4.325  1.1793 -0.7625 -0.2776
 1791SOL     hw 7163   1.059   4.281   4.233  2.9654 -2.6388  1.4739
 1791SOL     vw 7164   1.052   4.320   4.311  0.4384 -0.5631  0.3610
 1792SOL     ow 7165   3.091   7.468   3.124 -0.0677 -0.8926  0.0366
 1792SOL     hw 7166   3.047   7.441   3.043  0.8704 -2.0231 -0.1341
 1792SOL     hw 7167   3.036   7.537   3.160 -0.0785  0.2470 -2.0048
 1792SOL     vw 7168   3.078   7.474   3.118  0.0547 -0.8910 -0.2553
 1793SOL     ow 7169   0.960   2.046   6.160  0.5163 -0.4105  0.5210
 1793SOL     hw 7170   1.054   2.039   6.147  0.2235 -1.7187 -1.2363
 1793SOL     hw 7171   0.933   1.959   6.189 -0.3061 -0.4658 -0.3330
 1793SOL     vw 7172   0.969   2.034   6.162  0.3692 -0.5904  0.1764
 1794SOL     ow 7173   6.702   4.872   7.156 -0.5208  0.7727  0.6962
 1794SOL     hw 7174   6.617   4.863   7.199 -2.5807  1.1859 -2.8996
 1794SOL     hw 7175   6.747   4.790   7.176 -3.1078 -0.9169  0.1532
 1794SOL     vw 7176   6.697   4.860   7.164 -1.1339  0.6044  0.1504
 1795SOL     ow 7177   1.722   0.531   4.077 -0.6119 -1.0747  0.2075
 1795SOL     hw 7178   1.689   0.466   4.139 -2.4681 -0.6467 -0.2578
 1795SOL     hw 7179   1.764   0.479   4.008 -2.3988 -1.8464 -0.3463
 1795SOL     vw 7180   1.723   0.515   4.076 -1.0926 -1.1200  0.0730
 1796SOL     ow 7181   7.632   5.082   2.593  0.7115 -0.5781 -0.2907
 1796SOL     hw 7182   7.670   5.000   2.626  3.2683  1.5608  2.7336
 1796SOL     hw 7183   7.708   5.138   2.575 -0.9192  1.8885 -0.0137
 1796SOL     vw 7184   7.647   5.079   2.595  0.8337  0.0293  0.1448
 1797SOL     ow 7185   4.021   6.233   7.620 -0.4921  0.3816  0.0512
 1797SOL     hw 7186   3.994   6.166   7.557  1.3841  0.1022 -0.5104
 1797SOL     hw 7187   4.010   6.192   7.706 -0.5807 -0.1708 -0.2209
 1797SOL     vw 7188   4.016   6.219   7.623 -0.2561  0.2720 -0.0591
 1798SOL     ow 7189   4.473   3.485   0.450 -0.0879 -0.1320  0.8943
 1798SOL     hw 7190   4.503   3.574   0.431 -3.8078  1.2934  0.8085
 1798SOL     hw 7191   4.425   3.493   0.533 -0.6207 -2.0566  0.8325
 1798SOL     vw 7192   4.471   3.498   0.459 -0.6487 -0.1979  0.8748
 1799SOL     ow 7193   1.394   4.825   6.038 -0.5000  0.7214  0.4280
 1799SOL     hw 7194   1.423   4.864   5.956 -0.7128  2.9237  1.3352
 1799SOL     hw 7195   1.472   4.822   6.093 -1.1783  3.7552  1.7653
 1799SOL     vw 7196   1.408   4.829   6.035 -0.6176  1.4119  0.7241
 1800SOL     ow 7197   1.402   1.803   2.164  0.9443 -0.6368  0.0255
 1800SOL     hw 7198   1.429   1.738   2.229  2.9042 -0.2727 -0.3516
 1800SOL     hw 7199   1.443   1.885   2.193 -1.4768  0.5039  0.4969
 1800SOL     vw 7200   1.411   1.806   2.177  0.8835 -0.4383  0.0379
 1801SOL     ow 7201   2.601   6.141   4.401  0.2803 -1.0009 -0.7214
 1801SOL     hw 7202   2.552   6.090   4.336 -2.6952  1.4746 -0.6377
 1801SOL     hw 7203   2.553   6.128   4.483  0.9493 -0.0353 -0.1565
 1801SOL     vw 7204   2.588   6.132   4.403 -0.0238 -0.5469 -0.6356
 1802SOL     ow 7205   1.160   4.534   3.261 -0.0885 -0.0520 -0.3898
 1802SOL     hw 7206   1.163   4.442   3.235 -0.1315 -0.7736  1.9359
 1802SOL     hw 7207   1.215   4.538   3.339 -0.4278  1.8267 -0.2133
 1802SOL     vw 7208   1.167   4.522   3.268 -0.1390  0.1004 -0.0597
 1803SOL     ow 7209   6.148   0.408   1.371 -0.4402 -0.0335  0.6108
 1803SOL     hw 7210   6.078   0.425   1.434 -1.0698 -0.8251  0.1540
 1803SOL     hw 7211   6.124   0.324   1.331 -1.0915  1.2694 -2.0030
 1803SOL     vw 7212   6.136   0.399   1.374 -0.6092  0.0339  0.2058
 1804SOL     ow 7213   5.165   3.473   6.823 -0.4581 -1.0118 -0.2926
 1804SOL     hw 7214   5.170   3.549   6.881 -5.3539 -1.2986  0.9719
 1804SOL     hw 7215   5.190   3.506   6.737  1.2515  0.9680  0.8654
 1804SOL     vw 7216   5.169   3.487   6.819 -0.8783 -0.7883  0.0269
 1805SOL     ow 7217   5.492   4.464   1.134  0.3543  0.0088  0.3376
 1805SOL     hw 7218   5.570   4.495   1.089  0.0025 -0.0202 -0.3146
 1805SOL     hw 7219   5.518   4.381   1.175  0.5044 -0.3204 -0.4065
 1805SOL     vw 7220   5.505   4.457   1.133  0.3273 -0.0386  0.1534
 1806SOL     ow 7221   2.865   7.608   4.393  0.1332  0.1310 -0.5685
 1806SOL     hw 7222   2.883   7.701   4.409  0.3828  0.1786 -1.0886
 1806SOL     hw 7223   2.772   7.606   4.370 -0.3140  0.0153  1.1322
 1806SOL     vw 7224   2.855   7.620   4.392  0.1070  0.1221 -0.4127
 1807SOL     ow 7225   0.521   6.858   3.771 -0.2077 -0.0986  0.0485
 1807SOL     hw 7226   0.564   6.898   3.695 -1.6665 -0.5915 -1.0895
 1807SOL     hw 7227   0.442   6.911   3.783 -1.2998 -1.5782 -0.4195
 1807SOL     vw 7228   0.516   6.871   3.762 -0.5443 -0.3591 -0.1633
 1808SOL     ow 7229   0.433   4.989   5.049  0.4744  0.1282  0.5497
 1808SOL     hw 7230   0.487   4.974   5.127  0.6634  1.2949  0.6599
 1808SOL     hw 7231   0.343   4.975   5.078  0.6229 -0.6776  0.6518
 1808SOL     vw 7232   0.429   4.985   5.063  0.5189  0.1757  0.5777
 1809SOL     ow 7233   1.195   4.696   2.064 -0.2439 -0.4192  0.2040
 1809SOL     hw 7234   1.274   4.749   2.058 -1.2447  1.0447 -0.8661
 1809SOL     hw 7235   1.197   4.641   1.985 -0.0299 -0.7642  0.4502
 1809SOL     vw 7236   1.206   4.696   2.053 -0.3477 -0.2716  0.0954
 1810SOL     ow 7237   2.293   7.540   4.343 -0.7385  1.0305 -0.0205
 1810SOL     hw 7238   2.375   7.534   4.392 -0.4053  3.0157 -0.2327
 1810SOL     hw 7239   2.319   7.580   4.260 -1.7109  0.2627 -0.7103
 1810SOL     vw 7240   2.307   7.544   4.338 -0.8230  1.1914 -0.1392
 1811SOL     ow 7241   4.761   3.548   7.510  0.0531 -0.0693  0.7045
 1811SOL     hw 7242   4.836   3.597   7.543 -1.4255  2.0226  1.1854
 1811SOL     hw 7243   4.688   3.576   7.566 -1.8069  0.8005 -1.9425
 1811SOL     vw 7244   4.761   3.558   7.522 -0.3877  0.3215  0.4187
 1812SOL     ow 7245   2.193   7.075   4.125 -0.3923 -0.3318 -0.4363
 1812SOL     hw 7246   2.145   7.148   4.085 -0.6088 -0.4444 -0.3834
 1812SOL     hw 7247   2.234   7.031   4.051  0.6261  0.4666 -0.3788
 1812SOL     vw 7248   2.192   7.079   4.110 -0.2863 -0.2413 -0.4215
 1813SOL     ow 7249   1.976   1.503   5.436 -0.0740 -0.3802  0.0094
 1813SOL     hw 7250   1.907   1.564   5.410 -1.6333 -2.0946 -0.1287
 1813SOL     hw 7251   2.040   1.506   5.365 -0.0348  1.1608  0.0843
 1813SOL     vw 7252   1.975   1.511   5.423 -0.2746 -0.4031  0.0012
 1814SOL     ow 7253   2.189   6.314   4.375 -0.2156  0.1712  0.3417
 1814SOL     hw 7254   2.282   6.319   4.353 -0.3258 -0.4868 -0.3087
 1814SOL     hw 7255   2.145   6.366   4.307 -0.3265  0.5010  0.6617
 1814SOL     vw 7256   2.195   6.322   4.363 -0.2447  0.1278  0.2980
 1815SOL     ow 7257   6.606   0.418   6.669 -0.1833 -0.4887  0.9103
 1815SOL     hw 7258   6.517   0.404   6.637  0.2195 -0.6779 -0.1994
 1815SOL     hw 7259   6.619   0.513   6.663 -0.0852 -0.5304  0.4168
 1815SOL     vw 7260   6.596   0.429   6.664 -0.1173 -0.5192  0.6986
 1816SOL     ow 7261   0.826   5.066   1.104  0.0728 -0.3424 -0.4290
 1816SOL     hw 7262   0.886   5.043   1.175 -0.9860  1.6251  1.2112
 1816SOL     hw 7263   0.739   5.039   1.136 -0.2347 -0.9497 -1.7191
 1816SOL     vw 7264   0.822   5.059   1.118 -0.1074 -0.1631 -0.3828
 1817SOL     ow 7265   6.965   3.736   7.579 -0.3906 -0.2296  0.2264
 1817SOL     hw 7266   6.886   3.716   7.529  0.1542  2.9282 -2.2037
 1817SOL     hw 7267   6.933   3.763   7.665 -1.7686 -0.8791 -0.0499
 1817SOL     vw 7268   6.951   3.737   7.583 -0.5004  0.1014 -0.1307
 1818SOL     ow 7269   6.410   7.392   3.064  0.3423  0.1778 -0.0490
 1818SOL     hw 7270   6.337   7.440   3.025 -0.1129  0.7791  1.4665
 1818SOL     hw 7271   6.392   7.393   3.158  0.5432 -2.5997  0.1045
 1818SOL     vw 7272   6.398   7.398   3.071  0.3088 -0.1094  0.1712
 1819SOL     ow 7273   3.775   6.699   0.743 -0.1154 -0.8814  0.0516
 1819SOL     hw 7274   3.827   6.625   0.777 -1.1725 -1.7770 -0.2041
 1819SOL     hw 7275   3.693   6.694   0.792 -2.3617 -3.1521 -3.4730
 1819SOL     vw 7276   3.771   6.688   0.754 -0.5513 -1.2991 -0.4471
 1820SOL     ow 7277   5.663   6.729   6.869 -0.0348 -0.6102  0.2758
 1820SOL     hw 7278   5.582   6.727   6.818  0.7875  0.4745 -1.1846
 1820SOL     hw 7279   5.673   6.640   6.902 -0.9407 -1.2039 -0.9630
 1820SOL     vw 7280   5.654   6.717   6.866 -0.0458 -0.5455 -0.0801
 1821SOL     ow 7281   7.202   6.890   0.905 -0.3582 -0.4284 -0.4332
 1821SOL     hw 7282   7.262   6.962   0.924  2.4063 -2.5760 -0.4321
 1821SOL     hw 7283   7.160   6.870   0.989 -0.2464  0.3603 -0.1796
 1821SOL     vw 7284   7.204   6.897   0.919  0.0212 -0.6075 -0.3996
 1822SOL     ow 7285   1.737   5.519   2.817 -0.0690  1.1966 -0.1478
 1822SOL     hw 7286   1.789   5.597   2.803 -0.7500  1.4013 -1.8635
 1822SOL     hw 7287   1.724   5.483   2.729 -1.9479  0.6106  0.3093
 1822SOL     vw 7288   1.742   5.524   2.803 -0.4067  1.1466 -0.3139
 1823SOL     ow 7289   1.749   2.555   2.637  0.3942 -0.0147 -0.0115
 1823SOL     hw 7290   1.799   2.517   2.710 -0.0771  1.1238  0.9376
 1823SOL     hw 7291   1.662   2.517   2.645 -0.0840  1.2443  0.9531
 1823SOL     vw 7292   1.744   2.545   2.648  0.2689  0.3016  0.2409
 1824SOL     ow 7293   4.382   5.668   0.358 -0.0775  0.0293  0.6897
 1824SOL     hw 7294   4.363   5.762   0.358  1.1255  0.3793 -2.1113
 1824SOL     hw 7295   4.476   5.663   0.340  0.0746 -1.7366  1.7912
 1824SOL     vw 7296   4.392   5.680   0.356  0.1013 -0.1574  0.4655
 1825SOL     ow 7297   6.089   2.097   4.135 -0.2383 -0.3606 -1.2441
 1825SOL     hw 7298   6.036   2.045   4.074 -0.7286 -0.7460 -0.5024
 1825SOL     hw 7299   6.125   2.033   4.196 -0.1028  0.0726 -0.8709
 1825SOL     vw 7300   6.087   2.082   4.135 -0.2851 -0.3544 -1.0974
 1826SOL     ow 7301   0.578   2.692   7.020 -1.1809  0.3570  0.3827
 1826SOL     hw 7302   0.600   2.716   7.110 -0.8898  0.2570  0.3412
 1826SOL     hw 7303   0.485   2.712   7.012 -1.3913 -0.3463  0.9388
 1826SOL     vw 7304   0.569   2.698   7.031 -1.1702  0.2511  0.4504
 1827SOL     ow 7305   2.264   0.884   0.868 -0.1039  0.4389 -0.4077
 1827SOL     hw 7306   2.174   0.878   0.898 -0.2918 -0.7341 -1.1793
 1827SOL     hw 7307   2.297   0.794   0.869  0.6347  0.6735 -1.4001
 1827SOL     vw 7308   2.257   0.871   0.872 -0.0314  0.3151 -0.6404
 1828SOL     ow 7309   5.933   5.811   4.526 -0.0067 -0.5764 -0.0444
 1828SOL     hw 7310   5.997   5.882   4.524 -0.9222  0.5422  3.7346
 1828SOL     hw 7311   5.984   5.733   4.547  0.5084 -0.3084 -0.2768
 1828SOL     vw 7312   5.948   5.810   4.528 -0.0596 -0.3936  0.4234
 1829SOL     ow 7313   1.455   0.184   5.853  0.5059 -0.8755  0.0610
 1829SOL     hw 7314   1.502   0.103   5.835  0.8313 -0.3371 -1.6939
 1829SOL     hw 7315   1.379   0.181   5.794 -0.3122 -0.5902  1.0736
 1829SOL     vw 7316   1.451   0.173   5.843  0.4410 -0.7668 -0.0370
 1830SOL     ow 7317   1.857   4.058   5.038 -0.5957  0.4703  0.3237
 1830SOL     hw 7318   1.892   4.028   4.954 -0.1972  0.1886  0.5851
 1830SOL     hw 7319   1.905   4.139   5.056 -0.3259  0.2691  0.5145
 1830SOL     vw 7320   1.868   4.064   5.029 -0.5075  0.4065  0.3834
 1831SOL     ow 7321   4.786   4.799   4.741  0.2882 -0.7117 -0.1501
 1831SOL     hw 7322   4.734   4.762   4.669  0.6482 -1.5375  0.0158
 1831SOL     hw 7323   4.876   4.798   4.709  0.1991  0.9570 -0.5370
 1831SOL     vw 7324   4.791   4.794   4.727  0.3240 -0.6003 -0.1793
 1832SOL     ow 7325   0.768   4.596   1.414  0.6467  0.3195 -0.4173
 1832SOL     hw 7326   0.810   4.512   1.394  0.7276  0.3518 -0.3844
 1832SOL     hw 7327   0.810   4.625   1.495  2.0914  1.3682 -1.4792
 1832SOL     vw 7328   0.779   4.589   1.422  0.8480  0.4623 -0.5531
 1833SOL     ow 7329   0.142   2.939   4.886  0.3333 -0.4178 -0.2865
 1833SOL     hw 7330   0.118   2.849   4.910 -0.6272 -0.4178 -1.1732
 1833SOL     hw 7331   0.234   2.933   4.860  0.7443 -0.8296  1.1616
 1833SOL     vw 7332   0.151   2.926   4.886  0.2608 -0.4721 -0.2122
 1834SOL     ow 7333   4.309   3.515   5.122 -0.2106 -0.0900  0.0384
 1834SOL     hw 7334   4.390   3.529   5.172 -1.3990 -0.3943  2.1688
 1834SOL     hw 7335   4.314   3.578   5.050  0.0292  3.0294  2.5436
 1834SOL     vw 7336   4.321   3.526   5.119 -0.3355  0.2815  0.6499
 1835SOL     ow 7337   3.158   6.462   0.122  0.7625 -0.1943 -1.0666
 1835SOL     hw 7338   3.178   6.549   0.159 -2.8328  0.6522 -0.7609
 1835SOL     hw 7339   3.152   6.405   0.198 -0.3952  0.1295 -0.9002
 1835SOL     vw 7340   3.160   6.466   0.137  0.1354 -0.0396 -1.0043
 1836SOL     ow 7341   2.294   3.651   4.313 -0.2191  0.5898 -0.6559
 1836SOL     hw 7342   2.299   3.679   4.221 -1.4776 -0.1268 -0.9724
 1836SOL     hw 7343   2.243   3.570   4.310  0.9337 -0.2055  0.5361
 1836SOL     vw 7344   2.288   3.644   4.300 -0.2332  0.3903 -0.5403
 1837SOL     ow 7345   5.642   5.079   5.584  0.0059  0.0559 -0.1977
 1837SOL     hw 7346   5.646   4.997   5.632  0.0425  0.5100  0.5871
 1837SOL     hw 7347   5.655   5.147   5.650 -2.9486  0.8806 -0.3130
 1837SOL     vw 7348   5.645   5.077   5.599 -0.3791  0.2246 -0.1094
 1838SOL     ow 7349   1.836   3.603   4.981 -0.0713  0.2325  0.8435
 1838SOL     hw 7350   1.772   3.620   5.050 -0.5364 -0.0813  0.4886
 1838SOL     hw 7351   1.797   3.534   4.928  0.5534  0.0508  0.6151
 1838SOL     vw 7352   1.823   3.596   4.984 -0.0502  0.1671  0.7665
 1839SOL     ow 7353   1.400   7.473   4.127  0.0740  0.2516  0.5137
 1839SOL     hw 7354   1.367   7.394   4.084 -1.7602  0.2504  1.8215
 1839SOL     hw 7355   1.426   7.531   4.055  2.3405 -1.8214 -0.4693
 1839SOL     vw 7356   1.399   7.471   4.112  0.1311 -0.0222  0.5567
 1840SOL     ow 7357   6.961   6.149   2.387 -0.2086  0.0490 -0.3815
 1840SOL     hw 7358   6.915   6.197   2.319 -0.4582  0.1399 -0.1524
 1840SOL     hw 7359   6.951   6.057   2.363 -2.3237 -0.0770  0.7588
 1840SOL     vw 7360   6.954   6.143   2.375 -0.5205  0.0443 -0.2009
 1841SOL     ow 7361   0.198   2.360   6.740  0.0776 -0.0739  0.2783
 1841SOL     hw 7362   0.148   2.281   6.719  0.9442 -1.4115  2.8130
 1841SOL     hw 7363   0.289   2.336   6.722  0.3861  0.1968  1.3711
 1841SOL     vw 7364   0.204   2.346   6.735  0.2327 -0.2148  0.7565
 1842SOL     ow 7365   2.668   1.634   0.704  0.5320  0.0726  0.2261
 1842SOL     hw 7366   2.627   1.651   0.619 -0.4955 -0.0489  0.6775
 1842SOL     hw 7367   2.670   1.720   0.747  0.2255 -0.0184  0.4252
 1842SOL     vw 7368   2.662   1.648   0.699  0.3560  0.0446  0.3119
 1843SOL     ow 7369   1.185   0.412   6.870 -0.0418  0.8366 -0.2774
 1843SOL     hw 7370   1.155   0.364   6.793 -0.8498  2.2956 -0.9111
 1843SOL     hw 7371   1.104   0.440   6.914  0.4027  1.6471  0.0481
 1843SOL     vw 7372   1.170   0.409   6.866 -0.0897  1.1360 -0.3183
 1844SOL     ow 7373   2.351   6.946   1.582  0.1915 -0.1052  0.2364
 1844SOL     hw 7374   2.272   6.957   1.530  0.6647 -0.9549 -0.7015
 1844SOL     hw 7375   2.419   6.994   1.535  0.3692  0.1421  0.7283
 1844SOL     vw 7376   2.350   6.953   1.569  0.2774 -0.1848  0.1775
 1845SOL     ow 7377   2.170   7.022   1.007  0.1270  0.5705 -0.1794
 1845SOL     hw 7378   2.076   7.029   1.024  0.0477  0.4512 -0.5697
 1845SOL     hw 7379   2.211   7.074   1.076 -0.2152  0.4371  0.1270
 1845SOL     vw 7380   2.163   7.029   1.019  0.0715  0.5372 -0.1904
 1846SOL     ow 7381   4.053   1.188   7.553 -0.0944 -0.0210 -0.1938
 1846SOL     hw 7382   4.052   1.197   7.648 -2.2313  1.0608 -0.2625
 1846SOL     hw 7383   4.080   1.098   7.537  0.1450 -0.2607  1.4342
 1846SOL     vw 7384   4.056   1.177   7.563 -0.3445  0.0901  0.0119
 1847SOL     ow 7385   6.850   0.684   4.407  0.8283 -0.2196  0.6709
 1847SOL     hw 7386   6.785   0.651   4.346  1.0967  0.2439  0.1301
 1847SOL     hw 7387   6.816   0.660   4.493 -0.2261  0.3387  0.4182
 1847SOL     vw 7388   6.837   0.676   4.410  0.7248 -0.0848  0.5665
 1848SOL     ow 7389   3.656   1.116   4.913 -0.6007 -0.0484 -0.1710
 1848SOL     hw 7390   3.599   1.115   4.989  1.4291 -0.8082  1.4258
 1848SOL     hw 7391   3.641   1.031   4.870 -2.3854  0.7299 -1.1940
 1848SOL     vw 7392   3.647   1.104   4.917 -0.5684 -0.0460 -0.0951
 1849SOL     ow 7393   0.469   1.072   1.074  0.3106 -0.4581  0.1452
 1849SOL     hw 7394   0.400   1.013   1.105 -0.5783  0.5438  0.1380
 1849SOL     hw 7395   0.482   1.046   0.982 -0.6811 -0.1063 -0.1146
 1849SOL     vw 7396   0.461   1.060   1.066  0.0625 -0.2795  0.1099
 1850SOL     ow 7397   7.585   4.875   3.590  0.4544 -0.0530 -0.3810
 1850SOL     hw 7398   7.676   4.899   3.573  0.6191 -0.8540 -0.6497
 1850SOL     hw 7399   7.550   4.848   3.505  0.0676 -0.0893 -0.2148
 1850SOL     vw 7400   7.592   4.875   3.577  0.4249 -0.1638 -0.3946
 1851SOL     ow 7401   5.380   0.126   0.536 -0.0220  0.5468 -0.3957
 1851SOL     hw 7402   5.377   0.217   0.506  1.8580  0.7657 -0.0460
 1851SOL     hw 7403   5.433   0.130   0.616 -1.5044 -0.6019  0.6879
 1851SOL     vw 7404   5.387   0.139   0.543  0.0308  0.4241 -0.2066
 1852SOL     ow 7405   4.152   5.664   4.949  0.6264  0.0934 -0.5424
 1852SOL     hw 7406   4.061   5.681   4.925 -0.4472 -0.2857  2.7590
 1852SOL     hw 7407   4.180   5.593   4.892 -0.4307  1.4773 -2.9370
 1852SOL     vw 7408   4.144   5.657   4.938  0.3452  0.2260 -0.4227
 1853SOL     ow 7409   6.114   2.837   6.087  0.3642 -0.2451 -0.0310
 1853SOL     hw 7410   6.093   2.749   6.116 -1.6569 -0.1334 -1.0340
 1853SOL     hw 7411   6.165   2.825   6.007 -0.8328 -0.5186 -0.7659
 1853SOL     vw 7412   6.118   2.824   6.080 -0.0601 -0.2664 -0.2604
 1854SOL     ow 7413   5.694   5.792   2.396 -0.3436  0.0012  0.1247
 1854SOL     hw 7414   5.787   5.767   2.398 -0.2156  0.2299 -1.4932
 1854SOL     hw 7415   5.654   5.730   2.335 -0.9147  0.9422 -0.4742
 1854SOL     vw 7416   5.701   5.780   2.388 -0.4020  0.1554 -0.1678
 1855SOL     ow 7417   3.959   4.060   6.369  0.5343  0.2136 -0.1936
 1855SOL     hw 7418   3.987   4.151   6.364 -0.1500  0.3814 -1.2357
 1855SOL     hw 7419   4.038   4.009   6.350  1.0374  0.5526  0.8921
 1855SOL     vw 7420   3.973   4.065   6.366  0.5102  0.2804 -0.1876
 1856SOL     ow 7421   4.046   6.663   6.917 -0.4947 -0.3986 -0.4466
 1856SOL     hw 7422   4.128   6.614   6.915 -1.6027 -2.3621 -0.1286
 1856SOL     hw 7423   4.054   6.726   6.845  1.3492 -0.3941 -0.2863
 1856SOL     vw 7424   4.058   6.665   6.907 -0.3977 -0.6571 -0.3834
 1857SOL     ow 7425   4.660   0.066   3.537 -0.2281 -0.1427  0.3529
 1857SOL     hw 7426   4.681   0.070   3.444 -1.5342 -1.8419 -0.0642
 1857SOL     hw 7427   4.597  -0.006   3.545 -0.6139  0.3477  2.4694
 1857SOL     vw 7428   4.655   0.057   3.526 -0.4513 -0.3022  0.5771
 1858SOL     ow 7429   5.776   4.440   2.819 -0.4964 -0.0995 -0.0499
 1858SOL     hw 7430   5.687   4.420   2.792 -0.5322  0.3309 -0.2587
 1858SOL     hw 7431   5.830   4.377   2.772 -0.6628 -0.1306 -0.2003
 1858SOL     vw 7432   5.772   4.429   2.809 -0.5233 -0.0467 -0.0972
 1859SOL     ow 7433   3.534   4.633   7.016  0.7706  0.5173  0.0284
 1859SOL     hw 7434   3.561   4.592   7.099  1.0864 -0.2199 -0.4290
 1859SOL     hw 7435   3.558   4.725   7.026  4.5890 -0.2190 -0.7584
 1859SOL     vw 7436   3.541   4.639   7.029  1.3161  0.3231 -0.1357
 1860SOL     ow 7437   4.006   0.755   3.756 -0.2208  0.3895 -0.2165
 1860SOL     hw 7438   4.051   0.740   3.839 -1.4540 -0.1756  0.3745
 1860SOL     hw 7439   3.970   0.843   3.764  0.6735  0.8103 -0.6576
 1860SOL     vw 7440   4.007   0.765   3.768 -0.2656  0.3704 -0.1967
 1861SOL     ow 7441   6.246   2.798   4.526 -0.2300 -0.4332 -0.2171
 1861SOL     hw 7442   6.338   2.797   4.552 -0.3007  1.0998  0.1637
 1861SOL     hw 7443   6.228   2.889   4.504 -1.9449 -0.4780  0.8184
 1861SOL     vw 7444   6.256   2.810   4.527 -0.4656 -0.2366 -0.0300
 1862SOL     ow 7445   6.372   3.419   4.540  0.2202  0.1760  0.4412
 1862SOL     hw 7446   6.358   3.414   4.635  1.7934  0.5634  0.7276
 1862SOL     hw 7447   6.454   3.371   4.526  0.2293  0.4995 -0.6592
 1862SOL     vw 7448   6.381   3.412   4.551  0.4289  0.2699  0.3338
 1863SOL     ow 7449   0.683   7.217   4.250  0.6022  0.3427 -0.2632
 1863SOL     hw 7450   0.703   7.228   4.343 -0.6148 -1.0392  0.2149
 1863SOL     hw 7451   0.615   7.282   4.233  1.2063  0.9693 -0.3516
 1863SOL     vw 7452   0.677   7.227   4.260  0.5213  0.2427 -0.2117
 1864SOL     ow 7453   4.851   6.397   4.213  0.9715 -0.6077 -0.1215
 1864SOL     hw 7454   4.928   6.443   4.246  0.5561 -0.2261  0.3325
 1864SOL     hw 7455   4.837   6.434   4.125  2.7025 -2.3701 -1.2208
 1864SOL     vw 7456   4.859   6.408   4.205  1.1451 -0.7899 -0.2065
 1865SOL     ow 7457   7.430   5.242   2.847 -0.9189  0.0399 -0.1209
 1865SOL     hw 7458   7.438   5.193   2.929 -0.2071 -3.2688 -1.9623
 1865SOL     hw 7459   7.353   5.298   2.859 -1.0963 -0.6452  2.5929
 1865SOL     vw 7460   7.421   5.243   2.859 -0.8485 -0.4869 -0.0058
 1866SOL     ow 7461   6.365   7.310   4.788  0.4013  0.1668  0.6859
 1866SOL     hw 7462   6.452   7.270   4.781  0.0292 -0.8510  1.5645
 1866SOL     hw 7463   6.376   7.397   4.750  1.3081 -0.6475 -1.0075
 1866SOL     vw 7464   6.378   7.316   4.782  0.4718 -0.0751  0.5784
 1867SOL     ow 7465   5.037   0.201   4.961 -0.0597  0.0179  0.0081
 1867SOL     hw 7466   5.004   0.117   4.992  0.3239 -0.8165 -1.7156
 1867SOL     hw 7467   4.962   0.242   4.917  0.4206 -0.6835 -1.5483
 1867SOL     vw 7468   5.023   0.195   4.959  0.0541 -0.1847 -0.4246
 1868SOL     ow 7469   0.820   3.775   2.577  0.7170 -0.2790 -0.4052
 1868SOL     hw 7470   0.780   3.716   2.514  2.2774 -0.5831 -1.1444
 1868SOL     hw 7471   0.865   3.841   2.524  1.1734  0.0709  0.3955
 1868SOL     vw 7472   0.821   3.776   2.562  0.9831 -0.2730 -0.3971
 1869SOL     ow 7473   1.373   5.705   2.754  0.2089 -0.1084 -0.5866
 1869SOL     hw 7474   1.381   5.800   2.761 -0.3532 -0.0972 -0.0555
 1869SOL     hw 7475   1.287   5.685   2.791 -0.7303 -0.5898 -2.8702
 1869SOL     vw 7476   1.363   5.715   2.760  0.0108 -0.1705 -0.8178
 1870SOL     ow 7477   3.498   1.947   5.495 -0.5728  0.1399  0.2102
 1870SOL     hw 7478   3.419   1.919   5.542  0.5373 -3.0503  0.4250
 1870SOL     hw 7479   3.546   1.866   5.479  1.7058  1.7431 -1.7286
 1870SOL     vw 7480   3.494   1.932   5.499 -0.1258 -0.0694 -0.0172
 1871SOL     ow 7481   3.216   6.742   3.274  0.1633 -0.0479  0.1972
 1871SOL     hw 7482   3.138   6.760   3.221  0.0229  1.3872  0.8538
 1871SOL     hw 7483   3.204   6.652   3.303 -0.3182 -0.4914 -1.2519
 1871SOL     vw 7484   3.204   6.733   3.271  0.0811  0.0830  0.0925
 1872SOL     ow 7485   7.589   4.254   3.751 -0.4808 -0.2697  0.6421
 1872SOL     hw 7486   7.563   4.235   3.661 -1.5333  0.4497  0.7828
 1872SOL     hw 7487   7.565   4.176   3.800 -0.9975 -0.2010  0.5009
 1872SOL     vw 7488   7.582   4.241   3.746 -0.6878 -0.1659  0.6419
 1873SOL     ow 7489   5.301   6.194   5.070 -0.2017  0.2657  0.2636
 1873SOL     hw 7490   5.377   6.165   5.019 -0.9675  0.6085 -1.1125
 1873SOL     hw 7491   5.329   6.276   5.111  0.8686 -0.6844  1.5122
 1873SOL     vw 7492   5.315   6.201   5.069 -0.1612  0.1855  0.2465
 1874SOL     ow 7493   2.260   0.016   2.187  0.4371  0.5433 -0.0742
 1874SOL     hw 7494   2.212   0.096   2.211 -2.3048 -1.6416  2.4213
 1874SOL     hw 7495   2.193  -0.046   2.161  2.0646 -2.0774  1.5048
 1874SOL     vw 7496   2.245   0.019   2.187  0.2900 -0.0908  0.4634
 1875SOL     ow 7497   0.854   7.496   0.751 -0.4808 -0.4930 -0.5574
 1875SOL     hw 7498   0.830   7.497   0.844 -0.4445  0.7453 -0.5493
 1875SOL     hw 7499   0.780   7.453   0.708  0.8255 -4.0017  0.3446
 1875SOL     vw 7500   0.841   7.490   0.757 -0.3037 -0.7925 -0.4373
 1876SOL     ow 7501   4.269   2.902   2.953  0.2921 -0.6293  0.3221
 1876SOL     hw 7502   4.178   2.912   2.980  0.2028 -0.2147 -0.1130
 1876SOL     hw 7503   4.296   2.818   2.990  0.1019 -0.2159  1.4457
 1876SOL     vw 7504   4.261   2.892   2.961  0.2549 -0.5200  0.4129
 1877SOL     ow 7505   3.387   2.975   3.553 -0.4464  0.4653  0.1561
 1877SOL     hw 7506   3.421   2.994   3.465  0.5383  0.4844  0.5300
 1877SOL     hw 7507   3.370   2.881   3.552  0.0098  0.3779  0.0826
 1877SOL     vw 7508   3.389   2.965   3.541 -0.2563  0.4563  0.1959
 1878SOL     ow 7509   2.118   1.139   5.713 -0.0172 -0.0011  0.5201
 1878SOL     hw 7510   2.100   1.233   5.705 -0.7051 -0.0502  1.3193
 1878SOL     hw 7511   2.167   1.132   5.795  2.9169  0.0076 -1.0727
 1878SOL     vw 7512   2.122   1.151   5.723  0.2793 -0.0064  0.4156
 1879SOL     ow 7513   1.516   3.799   3.783 -0.4256  0.0549  0.1662
 1879SOL     hw 7514   1.580   3.833   3.845 -0.8548  1.2218 -0.0045
 1879SOL     hw 7515   1.436   3.789   3.835  0.3267 -3.3194  0.8899
 1879SOL     vw 7516   1.514   3.802   3.798 -0.3830 -0.2364  0.2391
 1880SOL     ow 7517   2.209   2.381   4.886 -0.0403 -0.4716  0.1299
 1880SOL     hw 7518   2.178   2.466   4.917 -0.9604  0.8444 -3.8195
 1880SOL     hw 7519   2.150   2.318   4.928 -1.3923  1.1236  0.7636
 1880SOL     vw 7520   2.197   2.384   4.896 -0.3400 -0.0876 -0.3073
 1881SOL     ow 7521   1.076   6.875   7.201  0.2081  0.4130  0.3590
 1881SOL     hw 7522   1.037   6.811   7.261 -0.7420  0.7524  0.1169
 1881SOL     hw 7523   1.155   6.904   7.245  1.1022 -1.5023  0.1398
 1881SOL     vw 7524   1.081   6.870   7.214  0.2007  0.2055  0.2983
 1882SOL     ow 7525   3.408   3.425   2.755 -0.3167  0.3418 -0.0245
 1882SOL     hw 7526   3.395   3.336   2.722 -1.9299  0.7261 -0.5539
 1882SOL     hw 7527   3.334   3.440   2.814  1.2739  0.4986  2.0466
 1882SOL     vw 7528   3.396   3.415   2.758 -0.3196  0.4133  0.1789
 1883SOL     ow 7529   6.168   6.519   7.001  0.3658  0.1833  1.1312
 1883SOL     hw 7530   6.181   6.444   6.943 -0.9568  1.9646 -1.6979
 1883SOL     hw 7531   6.080   6.509   7.035 -0.2444  0.8903 -0.1289
 1883SOL     vw 7532   6.158   6.508   6.998  0.1109  0.5116  0.5920
 1884SOL     ow 7533   1.212   5.518   7.559  1.1863 -0.7761  0.1984
 1884SOL     hw 7534   1.247   5.549   7.643  3.3211 -3.7330  0.5310
 1884SOL     hw 7535   1.119   5.500   7.577  0.7929  1.5396  0.9578
 1884SOL     vw 7536   1.204   5.520   7.572  1.4160 -0.8607  0.3425
 1885SOL     ow 7537   7.156   1.819   6.785 -0.1696 -0.6169  0.8559
 1885SOL     hw 7538   7.246   1.850   6.773 -0.5332  0.7017  1.3606
 1885SOL     hw 7539   7.127   1.794   6.697  1.7936 -4.4063  1.0943
 1885SOL     vw 7540   7.164   1.820   6.772  0.0412 -0.9429  0.9539
 1886SOL     ow 7541   4.936   3.439   6.670  0.0396  0.1032  0.7622
 1886SOL     hw 7542   5.012   3.438   6.728 -1.5335 -1.8999  2.9941
 1886SOL     hw 7543   4.943   3.357   6.621 -0.4187  0.1511  0.6171
 1886SOL     vw 7544   4.947   3.428   6.672 -0.2286 -0.1547  1.0376
 1887SOL     ow 7545   1.886   3.676   3.755  0.4259 -0.2718  0.1207
 1887SOL     hw 7546   1.899   3.705   3.665  0.7748  1.3849  0.6592
 1887SOL     hw 7547   1.973   3.679   3.794  0.5602 -2.5988  0.1061
 1887SOL     vw 7548   1.899   3.680   3.748  0.4897 -0.3600  0.1898
 1888SOL     ow 7549   4.838   1.368   0.166  0.1252  0.0290  0.1079
 1888SOL     hw 7550   4.849   1.409   0.081  3.1829  0.8584  0.7772
 1888SOL     hw 7551   4.901   1.413   0.223  0.2213 -2.3701  2.0982
 1888SOL     vw 7552   4.848   1.380   0.163  0.5412 -0.1782  0.4588
 1889SOL     ow 7553   4.097   0.107   5.547  0.1236  0.3742  0.4645
 1889SOL     hw 7554   4.059   0.171   5.607  0.1436 -0.1000  0.9881
 1889SOL     hw 7555   4.080   0.022   5.588 -0.0074  0.0345 -0.2849
 1889SOL     vw 7556   4.090   0.104   5.560  0.1087  0.2668  0.4349
 1890SOL     ow 7557   7.046   1.677   5.172  0.2815 -0.2816 -0.3009
 1890SOL     hw 7558   6.987   1.628   5.229 -0.7732 -0.3384 -1.3959
 1890SOL     hw 7559   7.132   1.637   5.187  0.0380 -0.3385  1.1707
 1890SOL     vw 7560   7.050   1.665   5.182  0.1104 -0.2966 -0.2515
 1891SOL     ow 7561   6.658   6.801   5.725  0.4809  0.0875 -0.2153
 1891SOL     hw 7562   6.738   6.762   5.758 -0.7280 -2.5988 -0.1564
 1891SOL     hw 7563   6.665   6.894   5.746  2.1026 -0.6141  2.7768
 1891SOL     vw 7564   6.669   6.808   5.732  0.5352 -0.3598  0.1874
 1892SOL     ow 7565   7.478   2.027   3.062  0.4006 -0.3022  0.4641
 1892SOL     hw 7566   7.488   1.971   2.985 -2.2478  1.9942 -1.7682
 1892SOL     hw 7567   7.531   2.104   3.042  0.2259  0.0352  1.2770
 1892SOL     vw 7568   7.486   2.030   3.049  0.0279  0.0453  0.2769
 1893SOL     ow 7569   1.403   1.165   0.349 -0.1377 -0.1124 -0.3404
 1893SOL     hw 7570   1.359   1.230   0.403  0.0354 -1.7681  1.9647
 1893SOL     hw 7571   1.434   1.214   0.273 -2.3995  1.8918 -0.0945
 1893SOL     vw 7572   1.401   1.180   0.346 -0.4133 -0.0665 -0.0038
 1894SOL     ow 7573   6.450   3.841   2.626 -0.0528  0.1415 -0.9549
 1894SOL     hw 7574   6.443   3.922   2.577  0.6819  0.5963 -0.3135
 1894SOL     hw 7575   6.490   3.865   2.709  0.0807 -0.8553 -0.7083
 1894SOL     vw 7576   6.454   3.855   2.630  0.0615  0.0701 -0.8378
 1895SOL     ow 7577   2.719   5.339   0.565  0.4143  0.6441 -0.9076
 1895SOL     hw 7578   2.659   5.413   0.574 -0.1823 -0.0050  1.0937
 1895SOL     hw 7579   2.793   5.360   0.622 -0.0287 -0.5057  0.1474
 1895SOL     vw 7580   2.721   5.351   0.574  0.2773  0.4067 -0.5043
 1896SOL     ow 7581   4.345   5.274   6.174  0.1663  0.2258  0.3092
 1896SOL     hw 7582   4.274   5.338   6.172  0.3065  0.4600  1.9451
 1896SOL     hw 7583   4.313   5.205   6.232  0.6475 -0.4487 -0.2074
 1896SOL     vw 7584   4.331   5.273   6.181  0.2482  0.1674  0.4570
 1897SOL     ow 7585   6.626   2.547   6.731  0.0699 -0.3699 -0.1089
 1897SOL     hw 7586   6.658   2.531   6.820 -0.8132  3.2936  1.0276
 1897SOL     hw 7587   6.538   2.510   6.730 -0.1690  0.1412  0.8141
 1897SOL     vw 7588   6.618   2.540   6.742 -0.0780  0.1808  0.1628
 1898SOL     ow 7589   1.133   3.013   3.586 -0.3718  0.3345 -0.0202
 1898SOL     hw 7590   1.180   3.073   3.644  2.3077 -1.8053  0.2403
 1898SOL     hw 7591   1.176   3.024   3.501  1.5949 -2.4524  0.4762
 1898SOL     vw 7592   1.145   3.022   3.583  0.2412 -0.3155  0.0798
 1899SOL     ow 7593   0.171   6.609   0.575  0.4276  0.1718 -0.0643
 1899SOL     hw 7594   0.257   6.606   0.617  0.2404  0.4938  0.3543
 1899SOL     hw 7595   0.119   6.665   0.633 -1.1019 -2.7514  1.6398
 1899SOL     vw 7596   0.176   6.616   0.588  0.2011 -0.1714  0.2158
 1900SOL     ow 7597   2.929   6.083   5.880  0.2861 -0.3769 -0.1551
 1900SOL     hw 7598   2.837   6.069   5.904  0.3858 -2.2276 -0.6698
 1900SOL     hw 7599   2.928   6.159   5.822 -0.9027 -0.2832 -0.0315
 1900SOL     vw 7600   2.917   6.091   5.876  0.1422 -0.6087 -0.2069
 1901SOL     ow 7601   6.007   1.182   1.438 -0.2274  0.1470  0.7764
 1901SOL     hw 7602   5.999   1.184   1.533  0.1160  0.1162  0.8051
 1901SOL     hw 7603   5.921   1.211   1.406 -1.1497 -2.0617  1.0657
 1901SOL     vw 7604   5.995   1.186   1.446 -0.3037 -0.1484  0.8184
 1902SOL     ow 7605   6.529   5.520   1.222  0.4179 -0.8112  0.5443
 1902SOL     hw 7606   6.456   5.458   1.224  1.2602 -1.8171  2.5041
 1902SOL     hw 7607   6.599   5.474   1.176  0.5936 -0.7738  0.7749
 1902SOL     vw 7608   6.528   5.506   1.216  0.5522 -0.9389  0.8333
 1903SOL     ow 7609   0.602   4.818   1.183  0.5605  0.1267 -0.4522
 1903SOL     hw 7610   0.627   4.788   1.271  0.3009  2.8481  0.6540
 1903SOL     hw 7611   0.679   4.800   1.130  1.7026  0.6808  0.9388
 1903SOL     vw 7612   0.616   4.812   1.188  0.6769  0.5589 -0.1227
 1904SOL     ow 7613   1.433   2.188   7.542 -0.4863  0.2283  0.3093
 1904SOL     hw 7614   1.416   2.280   7.521 -1.2238  0.4734  1.8862
 1904SOL     hw 7615   1.356   2.142   7.509 -1.5505  0.5908  2.1324
 1904SOL     vw 7616   1.421   2.194   7.535 -0.7241  0.3085  0.7582
 1905SOL     ow 7617   1.255   5.266   4.128 -0.2110  0.1186  0.9445
 1905SOL     hw 7618   1.219   5.198   4.185  0.6373 -0.7702  0.4626
 1905SOL     hw 7619   1.214   5.251   4.043 -0.3176  0.4649  0.9339
 1905SOL     vw 7620   1.245   5.255   4.124 -0.1131  0.0470  0.8793
 1906SOL     ow 7621   5.806   3.484   4.683  0.6086  0.6447 -0.0697
 1906SOL     hw 7622   5.851   3.457   4.763 -0.1272  1.0171  0.4829
 1906SOL     hw 7623   5.778   3.402   4.643  1.1666  0.4446 -0.0685
 1906SOL     vw 7624   5.808   3.470   4.689  0.5851  0.6673  0.0029
 1907SOL     ow 7625   7.154   0.929   4.796  0.0872  0.0622  0.2990
 1907SOL     hw 7626   7.240   0.955   4.829  0.1870 -2.3370  2.1983
 1907SOL     hw 7627   7.093   0.990   4.838  0.4461 -1.5370  3.4674
 1907SOL     vw 7628   7.157   0.941   4.806  0.1478 -0.4654  0.9675
 1908SOL     ow 7629   0.306   1.072   6.278 -0.0812  0.4213 -0.1315
 1908SOL     hw 7630   0.378   1.085   6.339  2.4111 -0.1568 -2.7193
 1908SOL     hw 7631   0.312   1.146   6.218 -0.6874 -0.4103 -1.2523
 1908SOL     vw 7632   0.316   1.083   6.278  0.1677  0.2353 -0.6206
 1909SOL     ow 7633   5.381   6.538   7.061 -0.0416  0.3198  0.0416
 1909SOL     hw 7634   5.333   6.520   7.141 -1.1071  1.3860 -0.3316
 1909SOL     hw 7635   5.337   6.486   6.994  1.9510 -2.0213  0.3830
 1909SOL     vw 7636   5.369   6.529   7.063  0.0806  0.1516  0.0372
 1910SOL     ow 7637   6.794   1.681   6.978  0.0801 -0.0269 -0.1118
 1910SOL     hw 7638   6.788   1.591   6.945  0.0822 -0.2089  0.3808
 1910SOL     hw 7639   6.703   1.706   6.993  0.1099 -0.1555  0.3011
 1910SOL     vw 7640   6.781   1.672   6.976  0.0842 -0.0679  0.0076
 1911SOL     ow 7641   1.219   2.091   4.027 -0.8285 -0.6081 -0.2643
 1911SOL     hw 7642   1.163   2.064   4.100 -0.0259 -0.2452  0.5208
 1911SOL     hw 7643   1.276   2.158   4.066 -0.1872 -0.6262 -1.1586
 1911SOL     vw 7644   1.219   2.096   4.042 -0.6381 -0.5625 -0.2787
 1912SOL     ow 7645   4.370   4.311   0.248 -0.3724  0.4521  0.3408
 1912SOL     hw 7646   4.443   4.249   0.256  0.1640  0.6854 -1.9641
 1912SOL     hw 7647   4.362   4.350   0.335  4.4081  2.7239  0.1274
 1912SOL     vw 7648   4.379   4.308   0.260  0.3290  0.7830  0.0085
 1913SOL     ow 7649   6.454   6.650   5.178 -0.1161 -0.0945 -0.4824
 1913SOL     hw 7650   6.511   6.652   5.101 -0.4168 -2.0117 -0.7895
 1913SOL     hw 7651   6.367   6.672   5.144 -0.0666  0.0807 -0.4983
 1913SOL     vw 7652   6.450   6.653   5.163 -0.1493 -0.3242 -0.5252
 1914SOL     ow 7653   1.302   5.033   6.262 -0.2967 -0.3588 -0.7683
 1914SOL     hw 7654   1.303   5.033   6.358  2.5556 -1.2553 -0.7223
 1914SOL     hw 7655   1.297   5.126   6.239  0.9022  0.0084  0.3092
 1914SOL     vw 7656   1.301   5.045   6.272  0.2379 -0.4284 -0.6201
 1915SOL     ow 7657   6.623   7.134   2.545 -0.3261 -0.0046 -0.5140
 1915SOL     hw 7658   6.711   7.095   2.546  0.6376  2.0198  0.2605
 1915SOL     hw 7659   6.637   7.224   2.514 -2.2546  0.1353 -1.0912
 1915SOL     vw 7660   6.637   7.141   2.541 -0.4535  0.2809 -0.4879
 1916SOL     ow 7661   6.667   1.453   1.982 -0.2359  0.2462  0.4687
 1916SOL     hw 7662   6.619   1.463   2.064 -0.5831  1.0069  0.1846
 1916SOL     hw 7663   6.662   1.539   1.941 -0.4953 -0.2518 -0.5766
 1916SOL     vw 7664   6.660   1.466   1.987 -0.3159  0.2809  0.2933
 1917SOL     ow 7665   5.748   6.312   1.222  0.1389 -0.4507 -0.1318
 1917SOL     hw 7666   5.779   6.302   1.311  1.3684 -1.9125 -0.6837
 1917SOL     hw 7667   5.724   6.224   1.194 -0.6906  0.0533 -1.1005
 1917SOL     vw 7668   5.749   6.299   1.230  0.1915 -0.5770 -0.3325
 1918SOL     ow 7669   0.665   4.211   1.294  0.6205  0.6208 -0.5059
 1918SOL     hw 7670   0.624   4.242   1.374  1.0425 -0.7284  0.2682
 1918SOL     hw 7671   0.635   4.120   1.285 -0.3503  1.0798 -2.5217
 1918SOL     vw 7672   0.656   4.203   1.303  0.5482  0.5033 -0.6698
 1919SOL     ow 7673   6.498   6.654   5.520 -0.1953  0.0835  0.3368
 1919SOL     hw 7674   6.531   6.675   5.607 -1.2289 -2.3906  1.4125
 1919SOL     hw 7675   6.532   6.566   5.502  0.6847  0.8498 -2.1640
 1919SOL     vw 7676   6.507   6.645   5.529 -0.2155 -0.1419  0.1485
 1920SOL     ow 7677   5.263   0.684   0.933 -0.1681 -0.2161  0.3720
 1920SOL     hw 7678   5.248   0.649   0.845 -1.0814  1.0341  0.0022
 1920SOL     hw 7679   5.192   0.747   0.947 -0.3734 -0.7818  2.2395
 1920SOL     vw 7680   5.252   0.688   0.923 -0.3157 -0.1257  0.5696
 1921SOL     ow 7681   5.033   1.108   6.404  0.1580  0.1585 -0.4468
 1921SOL     hw 7682   4.972   1.075   6.338 -0.3527 -0.4063  0.2910
 1921SOL     hw 7683   4.995   1.191   6.432  1.4528  1.4664 -2.3155
 1921SOL     vw 7684   5.020   1.115   6.399  0.2615  0.2564 -0.5958
 1922SOL     ow 7685   1.524   2.221   5.757  0.2689 -0.2388  0.1661
 1922SOL     hw 7686   1.606   2.214   5.707  0.3428 -3.4762  0.5551
 1922SOL     hw 7687   1.552   2.222   5.848 -0.0908  0.4760  0.2748
 1922SOL     vw 7688   1.539   2.220   5.762  0.2312 -0.5716  0.2317
 1923SOL     ow 7689   6.425   6.390   2.081  1.0944 -0.1339 -0.0470
 1923SOL     hw 7690   6.433   6.485   2.095 -0.2513  0.2622 -1.6512
 1923SOL     hw 7691   6.366   6.382   2.006  3.1640 -2.1798 -1.5896
 1923SOL     vw 7692   6.418   6.402   2.073  1.1899 -0.3517 -0.4621
 1924SOL     ow 7693   1.651   1.564   7.063  0.3559  0.1322  0.3335
 1924SOL     hw 7694   1.584   1.598   7.003  0.2694  0.6958  0.7425
 1924SOL     hw 7695   1.607   1.495   7.112  0.1293  0.3625  0.4562
 1924SOL     vw 7696   1.636   1.559   7.061  0.3145  0.2370  0.4036
 1925SOL     ow 7697   1.969   4.790   0.720 -0.2151  0.3549  0.2358
 1925SOL     hw 7698   1.982   4.880   0.751  1.7004  0.6314 -1.1893
 1925SOL     hw 7699   1.992   4.736   0.795 -0.2263  1.0318  0.7433
 1925SOL     vw 7700   1.974   4.795   0.734  0.0362  0.4807  0.1147
 1926SOL     ow 7701   6.798   1.657   7.243 -0.3794 -0.6899  0.2395
 1926SOL     hw 7702   6.787   1.562   7.240 -1.4990 -0.5645 -0.5360
 1926SOL     hw 7703   6.801   1.683   7.151 -1.2596  0.1238  0.4236
 1926SOL     vw 7704   6.797   1.648   7.231 -0.6430 -0.5659  0.1614
 1927SOL     ow 7705   4.195   7.036   0.011 -0.4247 -0.3675 -0.5192
 1927SOL     hw 7706   4.134   6.995   0.072  0.9632 -0.7113  0.7027
 1927SOL     hw 7707   4.247   6.964  -0.024  1.3333  0.1552  0.8502
 1927SOL     vw 7708   4.194   7.021   0.015 -0.0098 -0.3436 -0.1773
 1928SOL     ow 7709   5.380   5.138   5.471 -0.5787  0.5000 -0.0743
 1928SOL     hw 7710   5.440   5.083   5.523  0.1792  1.4593  0.1030
 1928SOL     hw 7711   5.355   5.209   5.531 -0.7288  0.9062 -0.6101
 1928SOL     vw 7712   5.385   5.140   5.486 -0.4988  0.6802 -0.1218
 1929SOL     ow 7713   6.297   1.408   2.120  0.3961  0.0222 -0.4413
 1929SOL     hw 7714   6.272   1.497   2.095  0.9964  0.4526  0.4407
 1929SOL     hw 7715   6.214   1.362   2.133  0.0083  1.2506  1.8537
 1929SOL     vw 7716   6.283   1.414   2.118  0.4241  0.2411 -0.0219
 1930SOL     ow 7717   2.281   3.226   3.282 -0.2896 -0.4470 -0.0062
 1930SOL     hw 7718   2.227   3.147   3.273 -0.9643  0.1471 -1.2705
 1930SOL     hw 7719   2.221   3.294   3.311  0.0345 -0.0965 -0.1424
 1930SOL     vw 7720   2.266   3.224   3.285 -0.3359 -0.3223 -0.1910
 1931SOL     ow 7721   2.885   2.792   7.381  0.3165 -0.3377 -0.2893
 1931SOL     hw 7722   2.906   2.716   7.435  0.6807 -0.7391 -0.9978
 1931SOL     hw 7723   2.958   2.852   7.395  0.6411 -0.6388 -0.7087
 1931SOL     vw 7724   2.897   2.790   7.390  0.4073 -0.4303 -0.4382
 1932SOL     ow 7725   0.971   2.811   0.387 -0.9703 -0.3003 -0.0150
 1932SOL     hw 7726   1.063   2.837   0.385 -1.0946  0.4065  1.7112
 1932SOL     hw 7727   0.928   2.869   0.324 -0.9449  2.6583  2.5027
 1932SOL     vw 7728   0.977   2.822   0.378 -0.9834  0.1833  0.5450
 1933SOL     ow 7729   3.625   3.604   2.991  0.2328  0.4666 -0.3179
 1933SOL     hw 7730   3.571   3.663   3.044 -1.6860 -1.1140 -0.3590
 1933SOL     hw 7731   3.698   3.658   2.962 -1.4276  2.8637 -0.4264
 1933SOL     vw 7732   3.627   3.619   2.994 -0.2394  0.5742 -0.3375
 1934SOL     ow 7733   3.172   2.202   4.533  0.2123  1.0920 -0.3482
 1934SOL     hw 7734   3.170   2.108   4.549  1.6704  0.9839 -0.6117
 1934SOL     hw 7735   3.242   2.234   4.590 -0.9336  2.1830  0.4729
 1934SOL     vw 7736   3.181   2.194   4.543  0.2536  1.2215 -0.2747
 1935SOL     ow 7737   6.843   7.374   5.274 -0.5613 -0.5381 -0.5407
 1935SOL     hw 7738   6.900   7.441   5.237 -0.3024  0.0027  0.7879
 1935SOL     hw 7739   6.902   7.309   5.311 -0.7974 -0.4338  0.0364
 1935SOL     vw 7740   6.858   7.374   5.274 -0.5584 -0.4528 -0.2892
 1936SOL     ow 7741   2.465   4.293   5.665 -0.4976  0.1263 -0.5044
 1936SOL     hw 7742   2.521   4.370   5.671 -0.3010 -0.0911  3.7652
 1936SOL     hw 7743   2.524   4.219   5.681 -1.4104 -0.4021  0.5815
 1936SOL     vw 7744   2.480   4.293   5.668 -0.5921  0.0279  0.2024
 1937SOL     ow 7745   5.053   0.029   4.382 -0.2086  0.3144 -0.0902
 1937SOL     hw 7746   5.111   0.035   4.305 -1.0674 -1.8813 -0.9777
 1937SOL     hw 7747   5.104   0.068   4.453  0.3338  3.1557 -1.8658
 1937SOL     vw 7748   5.068   0.035   4.381 -0.2508  0.3996 -0.4416
 1938SOL     ow 7749   7.205   3.577   7.405 -0.0763  0.1641 -0.1870
 1938SOL     hw 7750   7.277   3.568   7.342 -1.1508 -2.4389 -1.1816
 1938SOL     hw 7751   7.157   3.495   7.399 -2.9304  1.6196  0.7535
 1938SOL     vw 7752   7.208   3.565   7.396 -0.5949  0.0128 -0.1938
 1939SOL     ow 7753   0.641   1.287   1.235  0.0209  0.0464 -0.3236
 1939SOL     hw 7754   0.687   1.299   1.317 -0.5425 -0.1078  0.0217
 1939SOL     hw 7755   0.710   1.284   1.168  0.6311 -1.6747  0.3267
 1939SOL     vw 7756   0.656   1.288   1.237  0.0271 -0.2010 -0.1923
 1940SOL     ow 7757   4.532   4.244   5.767 -0.3050 -0.1769  0.2954
 1940SOL     hw 7758   4.529   4.310   5.836 -0.9695  1.7583 -1.4856
 1940SOL     hw 7759   4.455   4.262   5.713 -0.3292 -2.2366 -0.4570
 1940SOL     vw 7760   4.522   4.255   5.769 -0.3958 -0.1934 -0.0391
 1941SOL     ow 7761   7.376   1.001   5.483  0.1463 -0.3520  0.3395
 1941SOL     hw 7762   7.411   0.993   5.571  2.5388  0.9334 -0.3939
 1941SOL     hw 7763   7.340   1.089   5.479 -0.6140 -0.6615  0.2283
 1941SOL     vw 7764   7.376   1.011   5.494  0.3617 -0.2233  0.2279
 1942SOL     ow 7765   6.430   1.493   6.106  0.2672  0.4226  0.5062
 1942SOL     hw 7766   6.487   1.570   6.111  0.6909  0.5243 -3.2526
 1942SOL     hw 7767   6.479   1.425   6.151  1.2715  1.6059  1.2782
 1942SOL     vw 7768   6.444   1.495   6.113  0.4556  0.5922  0.1121
 1943SOL     ow 7769   4.780   1.016   3.324  0.4983 -0.3765 -0.3680
 1943SOL     hw 7770   4.704   0.977   3.366 -0.1434  1.8085  0.6653
 1943SOL     hw 7771   4.755   1.107   3.309  2.3456  0.0083 -1.4782
 1943SOL     vw 7772   4.767   1.023   3.327  0.6573 -0.0376 -0.3784
 1944SOL     ow 7773   4.911   2.887   3.352 -0.7439 -0.7658 -0.0915
 1944SOL     hw 7774   4.888   2.821   3.417 -0.4740  0.4448  1.2949
 1944SOL     hw 7775   4.873   2.969   3.385 -0.3590 -0.0523 -1.3172
 1944SOL     vw 7776   4.903   2.889   3.365 -0.6576 -0.5119 -0.0703
 1945SOL     ow 7777   1.169   1.529   6.452  0.3168 -0.0176  0.0644
 1945SOL     hw 7778   1.092   1.539   6.509  1.0733 -0.9070  1.2840
 1945SOL     hw 7779   1.221   1.608   6.467 -0.7009  1.0102 -1.4063
 1945SOL     vw 7780   1.165   1.541   6.461  0.2823  0.0007  0.0315
 1946SOL     ow 7781   2.395   6.018   4.266  0.3595 -0.1896  0.3402
 1946SOL     hw 7782   2.351   6.011   4.181 -1.4201  0.2684  1.1843
 1946SOL     hw 7783   2.324   6.018   4.330  1.6256  0.1798  1.7997
 1946SOL     vw 7784   2.380   6.017   4.263  0.2916 -0.0806  0.6440
 1947SOL     ow 7785   7.523   5.760   3.125  0.4028  0.4405 -0.1601
 1947SOL     hw 7786   7.429   5.740   3.118  1.1600 -3.3031 -2.5967
 1947SOL     hw 7787   7.526   5.856   3.133 -3.6182  0.6139  2.6185
 1947SOL     vw 7788   7.511   5.770   3.126 -0.0279 -0.0303 -0.1150
 1948SOL     ow 7789   4.263   5.384   7.046  0.9931 -0.1447 -0.6561
 1948SOL     hw 7790   4.272   5.336   7.129 -0.2636  1.8470  0.7093
 1948SOL     hw 7791   4.192   5.338   7.001 -0.9879  0.9593  1.1391
 1948SOL     vw 7792   4.255   5.371   7.051  0.5655  0.2637 -0.2394
 1949SOL     ow 7793   0.502   2.734   3.640 -1.2840 -0.1147 -0.1049
 1949SOL     hw 7794   0.556   2.655   3.634  0.3028  1.0039 -2.7701
 1949SOL     hw 7795   0.534   2.778   3.718 -1.0102 -1.2859  0.4719
 1949SOL     vw 7796   0.514   2.729   3.649 -1.0385 -0.1217 -0.3803
 1950SOL     ow 7797   3.489   2.285   2.510  0.1831 -0.5672 -0.1505
 1950SOL     hw 7798   3.495   2.374   2.476 -0.6784 -0.0359  1.0368
 1950SOL     hw 7799   3.503   2.229   2.434  0.1620  0.5768 -1.0145
 1950SOL     vw 7800   3.492   2.289   2.495  0.0666 -0.3462 -0.1079
 1951SOL     ow 7801   2.547   5.910   4.817 -0.4587 -0.0653  0.1623
 1951SOL     hw 7802   2.509   5.990   4.780 -0.7573  0.0257  0.6584
 1951SOL     hw 7803   2.473   5.865   4.858 -0.0007  0.2120  1.3297
 1951SOL     vw 7804   2.532   5.915   4.818 -0.4376 -0.0172  0.3819
 1952SOL     ow 7805   2.486   5.718   2.928  0.0826  0.2100 -0.7220
 1952SOL     hw 7806   2.449   5.751   2.846  0.6297  0.9782 -0.6743
 1952SOL     hw 7807   2.534   5.793   2.964  1.8134 -0.8005 -0.8568
 1952SOL     vw 7808   2.487   5.732   2.922  0.3833  0.1781 -0.7334
 1953SOL     ow 7809   3.179   0.605   4.172 -0.0491 -0.3962 -0.3718
 1953SOL     hw 7810   3.159   0.695   4.148  0.7488 -0.3977 -1.1019
 1953SOL     hw 7811   3.226   0.570   4.096 -1.8218 -1.9625 -0.8515
 1953SOL     vw 7812   3.182   0.612   4.159 -0.1777 -0.6031 -0.5314
 1954SOL     ow 7813   1.433   6.178   3.231 -0.2727 -0.6065  0.0577
 1954SOL     hw 7814   1.364   6.182   3.297 -0.5112 -1.2674 -0.1464
 1954SOL     hw 7815   1.388   6.189   3.148 -0.2576 -1.8678 -0.1372
 1954SOL     vw 7816   1.418   6.180   3.229 -0.3021 -0.8602  0.0050
 1955SOL     ow 7817   7.209   6.985   2.910  0.1312  0.0962 -0.1203
 1955SOL     hw 7818   7.167   7.033   2.838  1.7910 -2.4622 -3.0564
 1955SOL     hw 7819   7.291   7.032   2.926  0.5084 -0.2065 -1.0952
 1955SOL     vw 7820   7.214   6.997   2.902  0.4003 -0.2811 -0.6363
 1956SOL     ow 7821   7.044   1.477   2.044  0.3035  0.4316 -0.0719
 1956SOL     hw 7822   7.085   1.532   1.978 -0.3957 -0.5171 -1.3250
 1956SOL     hw 7823   7.118   1.444   2.096  1.1972 -1.0618 -2.1374
 1956SOL     vw 7824   7.059   1.480   2.042  0.3290  0.1094 -0.5099
 1957SOL     ow 7825   2.745   2.799   4.863 -0.6912  0.4826 -0.1881
 1957SOL     hw 7826   2.805   2.805   4.789 -0.0522  0.1719  0.2862
 1957SOL     hw 7827   2.689   2.876   4.856  0.2992  1.2230 -0.1844
 1957SOL     vw 7828   2.746   2.810   4.853 -0.4762  0.5392 -0.1247
 1958SOL     ow 7829   6.409   2.143   6.907  0.1594  0.1836 -0.3849
 1958SOL     hw 7830   6.345   2.072   6.908 -1.0690  1.2275  1.7652
 1958SOL     hw 7831   6.355   2.223   6.905  1.4372  1.0779  0.0362
 1958SOL     vw 7832   6.393   2.144   6.907  0.1657  0.4393 -0.0455
 1959SOL     ow 7833   3.007   5.022   4.048 -0.3751 -0.1097  0.1863
 1959SOL     hw 7834   2.946   4.952   4.072 -0.6691  0.1457  0.1846
 1959SOL     hw 7835   3.093   4.984   4.064 -0.5547  0.1447  1.8974
 1959SOL     vw 7836   3.010   5.008   4.053 -0.4375 -0.0424  0.4120
 1960SOL     ow 7837   3.597   3.027   2.150 -0.2501  1.1272 -0.1229
 1960SOL     hw 7838   3.537   2.956   2.125  1.3263 -0.5120  0.5619
 1960SOL     hw 7839   3.539   3.102   2.167 -1.8946  0.3844 -1.9618
 1960SOL     vw 7840   3.581   3.027   2.149 -0.2592  0.8130 -0.2751
 1961SOL     ow 7841   5.037   5.992   6.860 -0.6026 -0.1263  0.3360
 1961SOL     hw 7842   5.031   5.897   6.869 -0.0585 -0.0545  1.7445
 1961SOL     hw 7843   5.120   6.015   6.902 -1.2728  1.0897  1.0739
 1961SOL     vw 7844   5.047   5.983   6.867 -0.6192  0.0439  0.6189
 1962SOL     ow 7845   2.006   7.289   1.911  0.5031  0.3324  0.2590
 1962SOL     hw 7846   1.954   7.293   1.992 -0.2193 -0.6238 -0.1354
 1962SOL     hw 7847   2.090   7.254   1.938 -0.1304 -1.1315  0.4489
 1962SOL     vw 7848   2.010   7.285   1.925  0.3244  0.0131  0.2320
 1963SOL     ow 7849   6.365   7.332   3.926 -0.5018  0.4327 -0.6413
 1963SOL     hw 7850   6.381   7.298   3.839  0.1719 -1.0857  0.0483
 1963SOL     hw 7851   6.290   7.282   3.958  0.9314 -1.0018  0.6511
 1963SOL     vw 7852   6.357   7.321   3.919 -0.2239  0.0429 -0.3798
 1964SOL     ow 7853   5.125   2.749   2.254  0.4581  0.1388 -0.1454
 1964SOL     hw 7854   5.093   2.839   2.263  0.5924 -0.0233  3.4788
 1964SOL     hw 7855   5.051   2.694   2.279  0.8734 -0.6981 -0.7001
 1964SOL     vw 7856   5.111   2.754   2.259  0.5305  0.0069  0.2596
 1965SOL     ow 7857   4.708   1.173   5.296  1.2765 -0.1599 -0.4107
 1965SOL     hw 7858   4.742   1.202   5.381  2.2846 -0.8251 -0.5727
 1965SOL     hw 7859   4.634   1.116   5.318 -2.5391  4.2445 -0.0706
 1965SOL     vw 7860   4.703   1.169   5.310  0.9060  0.3334 -0.3874
 1966SOL     ow 7861   7.478   4.797   3.369  0.4552 -0.4634 -0.3975
 1966SOL     hw 7862   7.418   4.804   3.295 -1.9130 -0.6675  1.4000
 1966SOL     hw 7863   7.499   4.704   3.375 -1.8013 -0.9472  0.9444
 1966SOL     vw 7864   7.473   4.786   3.360 -0.1550 -0.5543  0.0167
 1967SOL     ow 7865   7.256   6.204   3.433 -0.3882  0.1063 -0.0173
 1967SOL     hw 7866   7.259   6.183   3.340  0.9424  3.6059 -0.9281
 1967SOL     hw 7867   7.337   6.254   3.449 -2.2707  2.7956  2.0784
 1967SOL     vw 7868   7.267   6.208   3.423 -0.4611  0.9232  0.1391
 1968SOL     ow 7869   3.643   1.479   0.553  0.5457 -0.0053  0.7927
 1968SOL     hw 7870   3.736   1.499   0.550  0.0937  2.4640  1.1122
 1968SOL     hw 7871   3.621   1.481   0.646  0.3633 -1.8065  0.8232
 1968SOL     vw 7872   3.652   1.482   0.565  0.4621  0.0829  0.8389
 1969SOL     ow 7873   1.436   5.015   3.991  0.2002 -0.3203 -0.3442
 1969SOL     hw 7874   1.440   4.960   4.069  2.7150  0.8950  0.5213
 1969SOL     hw 7875   1.445   5.104   4.024 -4.9153  0.9712 -1.5782
 1969SOL     vw 7876   1.438   5.020   4.006 -0.1429  0.0100 -0.3929
 1970SOL     ow 7877   3.527   7.421   4.263  0.3112 -0.8282  0.0105
 1970SOL     hw 7878   3.616   7.431   4.296  0.3800  2.7122 -0.8269
 1970SOL     hw 7879   3.538   7.398   4.170  0.3510 -0.6752 -0.0230
 1970SOL     vw 7880   3.540   7.420   4.255  0.3256 -0.3409 -0.1042
 1971SOL     ow 7881   3.340   3.284   4.495 -1.3392 -0.3885  0.2700
 1971SOL     hw 7882   3.385   3.220   4.440 -0.4933  1.5893 -1.4236
 1971SOL     hw 7883   3.297   3.343   4.433 -1.1459  1.3617  1.7450
 1971SOL     vw 7884   3.340   3.283   4.480 -1.2020  0.1035  0.2415
 1972SOL     ow 7885   0.075   3.719   5.110  0.3874  1.1963 -0.0418
 1972SOL     hw 7886   0.040   3.806   5.092  1.7154  1.7694  0.0180
 1972SOL     hw 7887   0.089   3.718   5.205  2.7237  1.8918 -0.3193
 1972SOL     vw 7888   0.072   3.730   5.120  0.8709  1.3639 -0.0706
 1973SOL     ow 7889   5.716   5.988   0.834 -0.2813  0.2466 -0.0297
 1973SOL     hw 7890   5.806   5.966   0.856 -1.4459 -1.9070  3.3598
 1973SOL     hw 7891   5.719   6.080   0.808  2.8533  0.1986 -0.1534
 1973SOL     vw 7892   5.728   5.997   0.833 -0.0212 -0.0436  0.4011
 1974SOL     ow 7893   1.054   3.808   2.777  0.5343  0.6867  0.0651
 1974SOL     hw 7894   1.075   3.816   2.870 -0.5184  2.0500  0.2192
 1974SOL     hw 7895   1.049   3.898   2.745 -1.1953  0.3380 -0.7879
 1974SOL     vw 7896   1.056   3.821   2.785  0.1671  0.8206 -0.0272
 1975SOL     ow 7897   4.072   6.838   2.452 -0.5564  0.4328 -0.0001
 1975SOL     hw 7898   4.054   6.758   2.402 -0.7647  0.0692  0.6559
 1975SOL     hw 7899   3.992   6.854   2.501  0.6772 -1.0096  2.6841
 1975SOL     vw 7900   4.059   6.830   2.452 -0.4208  0.1945  0.4406
 1976SOL     ow 7901   1.940   1.927   6.516 -0.2403 -0.2023 -0.3828
 1976SOL     hw 7902   2.033   1.936   6.535 -0.7447  1.6460  1.5823
 1976SOL     hw 7903   1.927   1.976   6.434 -0.1579  3.9719  1.8296
 1976SOL     vw 7904   1.950   1.935   6.507 -0.2959  0.5924  0.1686
 1977SOL     ow 7905   5.704   4.932   3.252 -0.0317  0.6509  0.0271
 1977SOL     hw 7906   5.688   4.893   3.338 -2.4430 -0.2471 -0.7437
 1977SOL     hw 7907   5.784   4.890   3.221 -1.7027 -2.7461 -0.1291
 1977SOL     vw 7908   5.712   4.921   3.259 -0.5703  0.0842 -0.0952
 1978SOL     ow 7909   5.359   5.787   4.972  0.3399 -0.0631 -1.0024
 1978SOL     hw 7910   5.266   5.791   4.950 -0.4680 -0.8411  1.8823
 1978SOL     hw 7911   5.400   5.850   4.912 -2.0600  0.5310 -2.1546
 1978SOL     vw 7912   5.352   5.796   4.961 -0.0830 -0.0875 -0.7739
 1979SOL     ow 7913   4.976   6.153   4.400  0.3618  0.9368  0.1661
 1979SOL     hw 7914   5.042   6.182   4.464 -1.6960  0.7547  2.5337
 1979SOL     hw 7915   4.980   6.057   4.404 -0.1152  0.9230  0.4495
 1979SOL     vw 7916   4.986   6.144   4.409  0.0274  0.9110  0.5159
 1980SOL     ow 7917   6.161   0.607   6.846  0.2809 -0.2025 -0.6547
 1980SOL     hw 7918   6.152   0.576   6.756  2.6492 -0.0956 -0.9909
 1980SOL     hw 7919   6.254   0.594   6.867  0.5823  3.0686  0.5277
 1980SOL     vw 7920   6.172   0.601   6.837  0.6330  0.2432 -0.5429
 1981SOL     ow 7921   3.784   1.089   6.779 -0.1201  0.4633  0.1208
 1981SOL     hw 7922   3.815   1.107   6.868 -1.0347 -0.6292  0.6692
 1981SOL     hw 7923   3.864   1.086   6.726  0.3660  2.1888  0.6774
 1981SOL     vw 7924   3.799   1.091   6.784 -0.1765  0.5468  0.2663
 1982SOL     ow 7925   0.397   5.828   5.348  0.2844 -0.0226 -0.0835
 1982SOL     hw 7926   0.415   5.920   5.328  0.0203 -0.3094 -1.7469
 1982SOL     hw 7927   0.473   5.800   5.398 -0.1115  1.3629  1.3890
 1982SOL     vw 7928   0.410   5.837   5.352  0.1974  0.1225 -0.1085
 1983SOL     ow 7929   3.983   4.406   0.514 -0.2471  0.4009 -0.3366
 1983SOL     hw 7930   4.077   4.417   0.505 -0.0720  0.0424  0.8117
 1983SOL     hw 7931   3.955   4.480   0.568 -0.2284 -0.7019  1.2542
 1983SOL     vw 7932   3.992   4.417   0.520 -0.2216  0.2081  0.0248
 1984SOL     ow 7933   2.020   2.733   1.666  0.3689  0.1694 -0.0994
 1984SOL     hw 7934   2.112   2.716   1.683  0.2505 -0.9991 -0.5213
 1984SOL     hw 7935   2.009   2.712   1.573 -0.2094  0.7942 -0.1749
 1984SOL     vw 7936   2.030   2.728   1.656  0.2769  0.0976 -0.1650
 1985SOL     ow 7937   6.358   2.980   6.299  0.0788 -0.2821  0.7148
 1985SOL     hw 7938   6.371   2.925   6.376  0.1200  1.3683  1.9154
 1985SOL     hw 7939   6.408   2.936   6.230  0.0007 -1.8108  1.5967
 1985SOL     vw 7940   6.366   2.967   6.300  0.0739 -0.2660  0.9897
 1986SOL     ow 7941   2.412   3.411   3.579  0.2699  0.4238 -0.3990
 1986SOL     hw 7942   2.465   3.484   3.611 -0.2041  0.1421  1.1093
 1986SOL     hw 7943   2.466   3.369   3.513  1.7796  0.3778  0.8197
 1986SOL     vw 7944   2.426   3.415   3.575  0.4066  0.3806 -0.0392
 1987SOL     ow 7945   2.829   1.797   5.381 -0.0435  0.0359 -0.5470
 1987SOL     hw 7946   2.852   1.745   5.458  0.3663 -0.4087 -0.9608
 1987SOL     hw 7947   2.746   1.760   5.352 -0.5105  0.6104  0.0352
 1987SOL     vw 7948   2.821   1.785   5.387 -0.0510  0.0530 -0.5248
 1988SOL     ow 7949   6.310   4.582   4.284  0.7059  0.0694  0.3860
 1988SOL     hw 7950   6.229   4.628   4.261  1.0887 -0.2496 -1.8201
 1988SOL     hw 7951   6.366   4.592   4.207  1.0342 -3.4786 -0.0275
 1988SOL     vw 7952   6.306   4.589   4.271  0.7997 -0.4408  0.0403
 1989SOL     ow 7953   6.361   0.505   4.312  0.1163 -0.5979  1.4726
 1989SOL     hw 7954   6.433   0.461   4.356  1.0187 -1.1981 -0.4809
 1989SOL     hw 7955   6.293   0.438   4.304  0.3181 -0.7656  1.1436
 1989SOL     vw 7956   6.362   0.490   4.317  0.2620 -0.6992  1.1714
 1990SOL     ow 7957   5.570   0.633   4.574  0.0626 -0.0437  0.0807
 1990SOL     hw 7958   5.489   0.592   4.543 -0.1925 -1.6768  2.6737
 1990SOL     hw 7959   5.578   0.712   4.520 -4.1140  1.0626  0.6998
 1990SOL     vw 7960   5.560   0.638   4.562 -0.5221 -0.1132  0.5047
 1991SOL     ow 7961   1.740   5.406   5.752  0.3476 -0.2253 -0.2250
 1991SOL     hw 7962   1.757   5.344   5.823 -2.7694  0.9699  1.7930
 1991SOL     hw 7963   1.664   5.369   5.707 -0.6523  1.3519  0.1132
 1991SOL     vw 7964   1.732   5.393   5.756 -0.1956  0.1404  0.0858
 1992SOL     ow 7965   2.233   3.197   7.039 -0.8886  0.0443 -0.1100
 1992SOL     hw 7966   2.240   3.109   7.002 -0.7136 -1.4590  3.1388
 1992SOL     hw 7967   2.140   3.209   7.054 -1.0958  1.1601 -1.9812
 1992SOL     vw 7968   2.222   3.187   7.036 -0.8929 -0.0069  0.0718
 1993SOL     ow 7969   4.924   6.655   3.581  0.4091  0.1926 -0.1257
 1993SOL     hw 7970   4.865   6.660   3.657  1.1981  0.6087  0.4678
 1993SOL     hw 7971   4.906   6.569   3.543  1.0706 -0.6673  1.4285
 1993SOL     vw 7972   4.914   6.644   3.586  0.6006  0.1340  0.1576
 1994SOL     ow 7973   0.091   1.421   1.139 -0.2385 -0.7303 -0.4232
 1994SOL     hw 7974   0.009   1.452   1.102 -0.4023  0.7502  1.0722
 1994SOL     hw 7975   0.106   1.337   1.096 -1.0559  0.2557 -2.7975
 1994SOL     vw 7976   0.082   1.414   1.128 -0.3680 -0.4049 -0.5391
 1995SOL     ow 7977   3.735   5.391   7.281  0.0845  0.2816  0.1038
 1995SOL     hw 7978   3.716   5.373   7.189  0.0667 -0.2396  0.2108
 1995SOL     hw 7979   3.826   5.420   7.281  0.5480 -1.1262  0.0977
 1995SOL     vw 7980   3.744   5.393   7.269  0.1434  0.0269  0.1171
 1996SOL     ow 7981   6.513   7.457   7.477  0.0643  0.7618  0.1719
 1996SOL     hw 7982   6.418   7.445   7.479  0.0205  1.1290  0.6716
 1996SOL     hw 7983   6.530   7.520   7.548  0.6672  0.7722  0.0203
 1996SOL     vw 7984   6.503   7.464   7.487  0.1383  0.8118  0.2177
 1997SOL     ow 7985   4.368   3.441   0.688 -0.0839 -0.0588  0.0624
 1997SOL     hw 7986   4.342   3.521   0.733 -0.5135  0.7179 -1.4840
 1997SOL     hw 7987   4.446   3.412   0.735  0.1172  1.3046  0.6304
 1997SOL     vw 7988   4.375   3.448   0.700 -0.1142  0.2236 -0.0667
 1998SOL     ow 7989   7.225   1.499   5.134 -0.2722 -0.3421 -0.1542
 1998SOL     hw 7990   7.272   1.416   5.139  0.2710 -0.0189  0.1616
 1998SOL     hw 7991   7.197   1.505   5.043 -2.1488 -1.8649  0.2580
 1998SOL     vw 7992   7.227   1.489   5.123 -0.4480 -0.5004 -0.0582
 1999SOL     ow 7993   4.598   6.267   6.656  0.4176 -0.6262 -1.2664
 1999SOL     hw 7994   4.525   6.213   6.685  1.7850 -1.2720  1.2889
 1999SOL     hw 7995   4.671   6.206   6.645  1.2899  0.3216 -0.9973
 1999SOL     vw 7996   4.598   6.252   6.659  0.7133 -0.5867 -0.8936
 2000SOL     ow 7997   1.865   5.090   1.333  0.3747 -0.0449 -1.0425
 2000SOL     hw 7998   1.939   5.063   1.387 -0.1226 -0.1013 -0.3879
 2000SOL     hw 7999   1.835   5.009   1.291 -0.2125 -0.2800 -0.1929
 2000SOL     vw 8000   1.871   5.076   1.334  0.2316 -0.0834 -0.8441
 2001SOL     ow 8001   3.391   3.739   3.125  0.5544 -0.2856 -0.6129
 2001SOL     hw 8002   3.340   3.658   3.130  1.7883 -1.1166 -1.0579
 2001SOL     hw 8003   3.383   3.778   3.212  0.2256 -1.0547 -0.2897
 2001SOL     vw 8004   3.383   3.733   3.137  0.6739 -0.4967 -0.6289
 2002SOL     ow 8005   4.218   5.272   1.480  0.1835  0.2577  0.8946
 2002SOL     hw 8006   4.168   5.211   1.535  0.6210  0.0317  1.0474
 2002SOL     hw 8007   4.309   5.245   1.491  0.1290 -1.2890 -1.7341
 2002SOL     vw 8008   4.223   5.260   1.489  0.2339  0.0236  0.5679
 2003SOL     ow 8009   3.761   7.488   4.381  0.1123  0.6797  0.2197
 2003SOL     hw 8010   3.807   7.407   4.401  2.2949  1.2159 -2.0862
 2003SOL     hw 8011   3.810   7.555   4.429 -0.8302  0.8467  0.9930
 2003SOL     vw 8012   3.774   7.486   4.390  0.2759  0.7725  0.0176
 2004SOL     ow 8013   0.396   3.245   0.312  0.7107 -0.6820 -0.0600
 2004SOL     hw 8014   0.314   3.222   0.268 -0.0180  0.9974  0.3490
 2004SOL     hw 8015   0.380   3.225   0.404  0.6525 -0.1069  0.0597
 2004SOL     vw 8016   0.383   3.239   0.319  0.6069 -0.3846  0.0097
 2005SOL     ow 8017   0.413   3.521   7.214 -0.0801  0.9075 -0.0191
 2005SOL     hw 8018   0.470   3.503   7.139 -0.2109  0.3747  0.0092
 2005SOL     hw 8019   0.332   3.554   7.175 -1.1268 -1.7436 -0.3072
 2005SOL     vw 8020   0.410   3.523   7.199 -0.2355  0.4873 -0.0534
 2006SOL     ow 8021   0.151   1.675   0.956 -0.3615  0.2442  0.5437
 2006SOL     hw 8022   0.105   1.634   0.883  0.9233 -2.2117  0.9786
 2006SOL     hw 8023   0.159   1.605   1.021  0.6141  1.6622  2.0409
 2006SOL     vw 8024   0.146   1.660   0.955 -0.0633  0.1072  0.7986
 2007SOL     ow 8025   7.462   0.525   3.297  0.0827  0.6939  0.1486
 2007SOL     hw 8026   7.552   0.502   3.274 -0.5754 -0.9755 -0.9549
 2007SOL     hw 8027   7.460   0.519   3.393  0.6247 -1.4347  0.0747
 2007SOL     vw 8028   7.474   0.521   3.307  0.0675  0.1927 -0.0067
 2008SOL     ow 8029   2.932   2.948   6.552 -0.4667 -0.1042  0.5617
 2008SOL     hw 8030   3.025   2.955   6.573 -0.9822  1.4071  2.7329
 2008SOL     hw 8031   2.917   3.017   6.487 -0.0596 -0.4504  0.0952
 2008SOL     vw 8032   2.942   2.958   6.547 -0.4809  0.0496  0.7868
 2009SOL     ow 8033   2.504   3.221   3.407 -0.2247  0.1179  0.5470
 2009SOL     hw 8034   2.419   3.250   3.374 -0.3137 -0.7098  0.0470
 2009SOL     hw 8035   2.491   3.130   3.432  0.6031 -0.1154  0.1516
 2009SOL     vw 8036   2.491   3.213   3.406 -0.1271 -0.0221  0.4288
 2010SOL     ow 8037   1.567   6.394   7.271 -0.4313 -0.6039  0.3654
 2010SOL     hw 8038   1.579   6.449   7.349  1.3466 -1.6736  0.9116
 2010SOL     hw 8039   1.624   6.319   7.286 -0.6101 -1.2037 -1.6554
 2010SOL     vw 8040   1.576   6.391   7.283 -0.2203 -0.8242  0.1705
 2011SOL     ow 8041   6.933   5.605   0.046 -0.2543  0.1813 -0.2524
 2011SOL     hw 8042   6.984   5.533   0.010 -1.6377 -0.8306 -0.2971
 2011SOL     hw 8043   6.994   5.653   0.101  0.3621 -1.9916  1.0938
 2011SOL     vw 8044   6.948   5.602   0.049 -0.3555 -0.2391 -0.0807
 2012SOL     ow 8045   5.456   5.961   5.487 -0.3533 -0.3278  0.5578
 2012SOL     hw 8046   5.550   5.954   5.468  0.0550 -1.4912  2.6792
 2012SOL     hw 8047   5.423   5.872   5.480 -1.5970  0.2176 -1.2394
 2012SOL     vw 8048   5.464   5.949   5.484 -0.4635 -0.4096  0.6008
 2013SOL     ow 8049   1.364   4.259   4.794 -0.2044 -0.3250 -0.0100
 2013SOL     hw 8050   1.379   4.183   4.851  2.7613  0.1116 -0.0641
 2013SOL     hw 8051   1.419   4.328   4.831 -2.3135  1.6504 -0.3730
 2013SOL     vw 8052   1.373   4.258   4.806 -0.0914 -0.0067 -0.0648
 2014SOL     ow 8053   7.605   5.079   0.620 -0.4508  0.2831 -0.4614
 2014SOL     hw 8054   7.687   5.068   0.669  0.0058  3.0767 -0.4106
 2014SOL     hw 8055   7.621   5.033   0.537  1.8858  2.0965 -1.1249
 2014SOL     vw 8056   7.618   5.071   0.616 -0.0823  0.8907 -0.5423
 2015SOL     ow 8057   3.863   7.194   5.512  0.8926  0.1706  0.1436
 2015SOL     hw 8058   3.899   7.140   5.441  0.3760  1.2953 -1.0160
 2015SOL     hw 8059   3.776   7.158   5.528  0.2144  1.0967 -1.2037
 2015SOL     vw 8060   3.857   7.182   5.505  0.7349  0.4413 -0.1872
 2016SOL     ow 8061   5.504   2.200   2.438  0.1369 -0.2018  0.4879
 2016SOL     hw 8062   5.584   2.251   2.431  1.1598 -1.9086 -1.5458
 2016SOL     hw 8063   5.434   2.265   2.448  1.4553  1.5476 -1.0096
 2016SOL     vw 8064   5.505   2.215   2.438  0.4458 -0.1962  0.0221
 2017SOL     ow 8065   5.159   1.888   1.697 -0.2193 -0.8823  0.9138
 2017SOL     hw 8066   5.201   1.846   1.772  0.1822  0.4647  1.4604
 2017SOL     hw 8067   5.176   1.981   1.708 -0.2907 -0.6287 -0.7681
 2017SOL     vw 8068   5.167   1.894   1.708 -0.1757 -0.6711  0.7640
 2018SOL     ow 8069   3.964   1.614   0.220 -0.0085  0.1775 -0.0874
 2018SOL     hw 8070   3.882   1.567   0.208  0.4589 -1.1786  1.6176
 2018SOL     hw 8071   4.014   1.598   0.140 -1.5004  1.3093 -1.2923
 2018SOL     vw 8072   3.960   1.606   0.208 -0.1436  0.1480 -0.0214
 2019SOL     ow 8073   0.995   0.299   4.216  0.2856 -0.3732 -0.3058
 2019SOL     hw 8074   0.925   0.295   4.151  0.0841 -0.8008 -0.0684
 2019SOL     hw 8075   1.074   0.271   4.169  1.4465  4.6698 -2.0022
 2019SOL     vw 8076   0.996   0.295   4.202  0.4122  0.2357 -0.4983
 2020SOL     ow 8077   4.912   5.179   4.476  0.0562 -0.2711  0.0275
 2020SOL     hw 8078   4.982   5.114   4.482  0.4855  0.1900 -0.0277
 2020SOL     hw 8079   4.881   5.173   4.386 -0.2381 -0.7464  0.1566
 2020SOL     vw 8080   4.917   5.169   4.465  0.0741 -0.2730  0.0372
 2021SOL     ow 8081   1.318   5.337   4.765 -0.5892 -0.4175  0.6617
 2021SOL     hw 8082   1.323   5.249   4.727 -2.1238 -0.9026  1.4942
 2021SOL     hw 8083   1.372   5.391   4.708  0.2169 -1.8602  0.0104
 2021SOL     vw 8084   1.326   5.332   4.752 -0.6853 -0.6719  0.6852
 2022SOL     ow 8085   1.520   2.291   0.926  0.5415 -0.7173 -0.0440
 2022SOL     hw 8086   1.601   2.337   0.903  2.1211 -2.2444  2.0804
 2022SOL     hw 8087   1.479   2.346   0.993 -1.7693  1.4755 -2.9975
 2022SOL     vw 8088   1.525   2.304   0.932  0.4450 -0.6294 -0.1534
 2023SOL     ow 8089   4.691   1.608   2.677 -0.1464 -0.5614 -0.4158
 2023SOL     hw 8090   4.642   1.570   2.604 -0.5337 -1.8830  0.4970
 2023SOL     hw 8091   4.623   1.645   2.735 -0.1856 -2.7024  1.0244
 2023SOL     vw 8092   4.675   1.608   2.675 -0.2027 -1.0183 -0.1054
 2024SOL     ow 8093   2.877   1.022   6.953  0.4579  0.7232 -0.1641
 2024SOL     hw 8094   2.853   1.041   6.862 -2.1075  0.9229  0.4738
 2024SOL     hw 8095   2.878   0.927   6.958  2.1449  0.6788 -0.7171
 2024SOL     vw 8096   2.874   1.012   6.942  0.3420  0.7436 -0.1531
 2025SOL     ow 8097   2.281   6.696   0.787  0.3779 -0.1627  0.2888
 2025SOL     hw 8098   2.256   6.774   0.739 -2.3775 -1.3882 -0.4851
 2025SOL     hw 8099   2.232   6.701   0.870  2.0769  0.0536  1.3356
 2025SOL     vw 8100   2.271   6.707   0.792  0.2385 -0.2959  0.3248
 2026SOL     ow 8101   4.886   7.441   4.282 -0.6402  0.2091  0.1554
 2026SOL     hw 8102   4.822   7.373   4.261 -0.2634 -0.1831  0.2578
 2026SOL     hw 8103   4.944   7.443   4.206  0.4987 -0.9469  0.9569
 2026SOL     vw 8104   4.885   7.432   4.269 -0.4399  0.0050  0.2749
 2027SOL     ow 8105   6.860   0.608   6.168 -0.5966  0.7085  0.5547
 2027SOL     hw 8106   6.912   0.614   6.088  1.3306 -3.0587  1.2418
 2027SOL     hw 8107   6.770   0.595   6.138  0.1118 -0.8671 -1.1197
 2027SOL     vw 8108   6.855   0.607   6.153 -0.2491  0.0036  0.4244
 2028SOL     ow 8109   2.328   6.925   4.519 -0.5134 -0.2529  0.1610
 2028SOL     hw 8110   2.258   6.962   4.466 -1.0221 -0.7414  0.4919
 2028SOL     hw 8111   2.286   6.857   4.571  0.4084 -1.3551 -0.4764
 2028SOL     vw 8112   2.314   6.921   4.519 -0.4590 -0.4628  0.1209
 2029SOL     ow 8113   2.235   0.258   0.140 -0.1906 -0.3438 -0.1552
 2029SOL     hw 8114   2.305   0.293   0.196  1.9921  0.4893 -3.1468
 2029SOL     hw 8115   2.161   0.316   0.156  0.9863  1.0765  0.4342
 2029SOL     vw 8116   2.234   0.270   0.150  0.2527 -0.0465 -0.4722
 2030SOL     ow 8117   4.358   5.403   5.932  0.0202 -0.2280  0.2787
 2030SOL     hw 8118   4.267   5.372   5.928  0.1297 -0.5214  0.0652
 2030SOL     hw 8119   4.350   5.498   5.931 -0.3264 -0.2432  1.1570
 2030SOL     vw 8120   4.345   5.412   5.931 -0.0110 -0.2689  0.3664
 2031SOL     ow 8121   6.407   5.637   0.986  0.7072 -0.0266 -0.8673
 2031SOL     hw 8122   6.451   5.588   0.917  2.6641  0.2999  0.0874
 2031SOL     hw 8123   6.388   5.722   0.946 -1.2040 -0.9178 -1.9996
 2031SOL     vw 8124   6.410   5.642   0.972  0.7133 -0.1013 -0.8907
 2032SOL     ow 8125   6.318   1.685   5.432 -0.1393  0.0430 -0.2555
 2032SOL     hw 8126   6.315   1.722   5.521 -0.5256 -1.2223  0.2743
 2032SOL     hw 8127   6.337   1.761   5.376 -0.2637  0.9320  0.8557
 2032SOL     vw 8128   6.320   1.700   5.437 -0.2065 -0.0066 -0.0389
 2033SOL     ow 8129   3.278   6.418   7.336 -0.4517  0.3726  0.7053
 2033SOL     hw 8130   3.265   6.331   7.298 -0.4474  0.4805  0.4580
 2033SOL     hw 8131   3.281   6.402   7.431  3.2665 -0.3934  0.6015
 2033SOL     vw 8132   3.277   6.404   7.344  0.0396  0.2854  0.6590
 2034SOL     ow 8133   7.609   1.040   2.099  0.1927 -0.2601  0.5724
 2034SOL     hw 8134   7.601   1.075   2.010 -2.8696 -1.4077  0.2686
 2034SOL     hw 8135   7.549   1.095   2.150 -0.6507 -1.6774  1.1596
 2034SOL     vw 8136   7.600   1.052   2.094 -0.3226 -0.5984  0.6098
 2035SOL     ow 8137   0.377   7.186   4.196 -0.5716 -0.6508  0.4573
 2035SOL     hw 8138   0.433   7.246   4.245  0.0873 -0.9964  0.1400
 2035SOL     hw 8139   0.430   7.160   4.121 -2.0195  0.9254 -1.2247
 2035SOL     vw 8140   0.391   7.190   4.192 -0.6757 -0.4885  0.1938
 2036SOL     ow 8141   3.819   4.153   0.476  0.4563  0.1886  0.0292
 2036SOL     hw 8142   3.763   4.156   0.553 -0.5150  0.1092 -0.6652
 2036SOL     hw 8143   3.855   4.064   0.476 -0.5297 -0.2180 -0.2998
 2036SOL     vw 8144   3.817   4.142   0.486  0.1980  0.1245 -0.1058
 2037SOL     ow 8145   1.448   5.169   5.184 -0.4932  0.2020  0.1619
 2037SOL     hw 8146   1.463   5.093   5.127 -0.7290  0.2979 -0.0359
 2037SOL     hw 8147   1.360   5.198   5.160 -0.2423  0.7882 -0.0605
 2037SOL     vw 8148   1.438   5.163   5.173 -0.4911  0.2923  0.1063
 2038SOL     ow 8149   7.152   0.975   0.281 -0.0346 -0.3805 -0.7072
 2038SOL     hw 8150   7.241   0.939   0.292 -0.2060 -0.4241  0.8455
 2038SOL     hw 8151   7.101   0.901   0.248  0.5572 -0.2631 -1.9472
 2038SOL     vw 8152   7.157   0.960   0.278  0.0210 -0.3707 -0.6660
 2039SOL     ow 8153   2.711   5.549   4.547  0.3262 -0.4925 -0.8204
 2039SOL     hw 8154   2.629   5.501   4.536 -0.2671 -0.5076  2.5601
 2039SOL     hw 8155   2.778   5.482   4.547 -0.3274 -1.3016  2.0482
 2039SOL     vw 8156   2.709   5.534   4.546  0.1616 -0.6015  0.0041
 2040SOL     ow 8157   1.074   4.407   2.168 -0.4114 -0.2774 -0.4933
 2040SOL     hw 8158   1.111   4.439   2.250  1.9719  1.9166 -2.2639
 2040SOL     hw 8159   1.001   4.467   2.150 -0.5183 -0.3525 -0.3150
 2040SOL     vw 8160   1.069   4.419   2.176 -0.1110  0.0019 -0.7033
 2041SOL     ow 8161   0.262   3.660   6.506  0.7286  0.3545  0.2333
 2041SOL     hw 8162   0.193   3.594   6.508 -0.0874  1.1324 -0.8302
 2041SOL     hw 8163   0.215   3.744   6.504  1.7216  1.0685  2.6898
 2041SOL     vw 8164   0.247   3.663   6.506  0.7519  0.5513  0.4172
 2042SOL     ow 8165   2.157   4.572   5.938  0.0044 -0.3966 -0.3476
 2042SOL     hw 8166   2.146   4.576   6.033  0.8750  0.1465 -0.2601
 2042SOL     hw 8167   2.069   4.585   5.903 -0.1300  0.6877  0.3598
 2042SOL     vw 8168   2.144   4.574   5.946  0.1017 -0.1819 -0.2429
 2043SOL     ow 8169   0.373   4.303   2.180 -0.1090 -0.3243  0.3994
 2043SOL     hw 8170   0.396   4.210   2.185  0.4944 -0.2911 -1.1864
 2043SOL     hw 8171   0.344   4.325   2.268  1.1179 -1.6615  1.1831
 2043SOL     vw 8172   0.372   4.293   2.192  0.1325 -0.4964  0.2936
 2044SOL     ow 8173   6.974   7.131   3.055 -0.6609 -0.6503 -0.1116
 2044SOL     hw 8174   6.909   7.157   2.990 -0.4344 -0.0302 -0.1065
 2044SOL     hw 8175   6.954   7.185   3.131  1.0596  1.0745 -0.7747
 2044SOL     vw 8176   6.963   7.142   3.056 -0.4041 -0.3409 -0.1982
 2045SOL     ow 8177   7.250   5.665   3.137  0.0407  0.0723 -0.4083
 2045SOL     hw 8178   7.207   5.585   3.166 -0.4322  0.2015 -0.7303
 2045SOL     hw 8179   7.178   5.722   3.111  0.4305 -0.3031 -2.5098
 2045SOL     vw 8180   7.235   5.662   3.137  0.0298  0.0396 -0.7280
 2046SOL     ow 8181   1.267   0.504   4.574 -0.3940  0.4219  0.1403
 2046SOL     hw 8182   1.353   0.490   4.615  0.0826 -1.4605 -1.3803
 2046SOL     hw 8183   1.284   0.567   4.504  0.0150 -0.7828 -0.8735
 2046SOL     vw 8184   1.281   0.510   4.570 -0.2772  0.0146 -0.1941
 2047SOL     ow 8185   4.103   5.416   6.198  0.2982 -0.2332 -0.0658
 2047SOL     hw 8186   4.083   5.503   6.233 -2.3045  0.0190 -1.8867
 2047SOL     hw 8187   4.038   5.359   6.238 -1.8815 -0.1711 -3.1864
 2047SOL     vw 8188   4.092   5.420   6.208 -0.3326 -0.1915 -0.7176
 2048SOL     ow 8189   0.305   4.502   3.859  0.3567  0.2060  0.2682
 2048SOL     hw 8190   0.318   4.585   3.812 -0.1213  0.3036  0.3039
 2048SOL     hw 8191   0.210   4.495   3.868  0.3373 -0.8170 -0.5930
 2048SOL     vw 8192   0.294   4.512   3.854  0.2911  0.0837  0.1593
 2049SOL     ow 8193   2.709   3.390   0.493 -0.1997  0.6993 -0.2445
 2049SOL     hw 8194   2.682   3.351   0.410 -2.4037 -0.0897  0.7662
 2049SOL     hw 8195   2.642   3.456   0.511  1.3128  2.2345  0.0233
 2049SOL     vw 8196   2.697   3.394   0.484 -0.2909  0.7976 -0.0758
 2050SOL     ow 8197   7.082   3.373   2.254 -0.2378  0.2052 -0.1556
 2050SOL     hw 8198   7.091   3.435   2.182 -1.2109  1.8131  1.0220
 2050SOL     hw 8199   7.050   3.426   2.327  0.5254 -1.3847  1.4169
 2050SOL     vw 8200   7.079   3.388   2.254 -0.2656  0.2075  0.2071
 2051SOL     ow 8201   1.810   5.378   4.238  0.1408 -0.3336  0.2143
 2051SOL     hw 8202   1.882   5.439   4.252  0.6604 -0.5060 -1.5101
 2051SOL     hw 8203   1.850   5.292   4.242 -0.3374 -0.5272  1.1850
 2051SOL     vw 8204   1.825   5.375   4.240  0.1463 -0.3819  0.1149
 2052SOL     ow 8205   2.676   0.659   5.800 -0.1713 -0.2369  0.0707
 2052SOL     hw 8206   2.630   0.654   5.884 -2.2431 -2.1068 -1.0791
 2052SOL     hw 8207   2.615   0.621   5.737  1.8612 -0.1293 -2.0806
 2052SOL     vw 8208   2.662   0.653   5.803 -0.1765 -0.4694 -0.3650
 2053SOL     ow 8209   6.834   0.262   6.651 -0.1637 -0.5588 -0.0279
 2053SOL     hw 8210   6.907   0.279   6.709 -0.0429  0.7345 -0.5416
 2053SOL     hw 8211   6.759   0.303   6.693 -0.0491  0.5028 -0.8324
 2053SOL     vw 8212   6.833   0.269   6.664 -0.1326 -0.2481 -0.2017
 2054SOL     ow 8213   4.777   1.249   5.915  0.2491 -0.2452 -0.0424
 2054SOL     hw 8214   4.846   1.315   5.908  1.1877 -1.1997 -0.0851
 2054SOL     hw 8215   4.814   1.171   5.871  0.8449 -2.0822  3.3447
 2054SOL     vw 8216   4.791   1.247   5.908  0.4518 -0.6135  0.3986
 2055SOL     ow 8217   5.922   6.615   7.330 -0.6313 -0.2744  0.2442
 2055SOL     hw 8218   6.006   6.656   7.347 -0.0917 -0.7616 -1.0913
 2055SOL     hw 8219   5.938   6.521   7.342 -0.9916 -0.3648  0.0450
 2055SOL     vw 8220   5.935   6.608   7.334 -0.6075 -0.3505  0.0417
 2056SOL     ow 8221   3.531   3.309   1.123 -0.1359  0.2620  0.1706
 2056SOL     hw 8222   3.463   3.335   1.060  0.4052 -0.9802 -0.9742
 2056SOL     hw 8223   3.540   3.215   1.110 -0.1385 -0.0679  2.2766
 2056SOL     vw 8224   3.523   3.300   1.113 -0.0648  0.0546  0.2974
 2057SOL     ow 8225   3.256   4.239   3.846 -0.6300  0.6750 -0.1732
 2057SOL     hw 8226   3.300   4.321   3.824  0.4658 -0.0461 -0.7226
 2057SOL     hw 8227   3.244   4.244   3.941  1.9450  0.3129  0.2542
 2057SOL     vw 8228   3.260   4.251   3.856 -0.1457  0.5324 -0.1893
 2058SOL     ow 8229   6.735   0.804   5.787 -0.3116 -0.1901 -0.4492
 2058SOL     hw 8230   6.651   0.816   5.832 -0.8906  1.0304 -1.7953
 2058SOL     hw 8231   6.778   0.735   5.837 -2.2044 -1.0218  0.1556
 2058SOL     vw 8232   6.729   0.797   5.800 -0.6378 -0.1388 -0.5467
 2059SOL     ow 8233   3.074   2.046   1.744 -0.2391 -0.5013  0.2764
 2059SOL     hw 8234   3.147   1.985   1.733  0.8359  0.8905 -0.6628
 2059SOL     hw 8235   3.020   2.032   1.666  0.9021  0.8514 -0.8176
 2059SOL     vw 8236   3.076   2.036   1.732  0.0534 -0.1391  0.0082
 2060SOL     ow 8237   4.973   3.938   7.377  0.6222  0.0839 -0.7735
 2060SOL     hw 8238   4.937   3.998   7.442 -1.2340  1.3301 -2.8239
 2060SOL     hw 8239   5.003   3.863   7.428 -1.3494  0.6889  1.4560
 2060SOL     vw 8240   4.972   3.936   7.392  0.1171  0.3281 -0.7498
 2061SOL     ow 8241   6.936   2.127   3.070  0.3144  0.0444 -0.0917
 2061SOL     hw 8242   6.992   2.129   3.147 -0.4890  0.1317  0.4963
 2061SOL     hw 8243   6.866   2.189   3.089 -1.1147 -1.5488  0.0540
 2061SOL     vw 8244   6.934   2.135   3.082  0.0196 -0.1544  0.0051
 2062SOL     ow 8245   0.812   3.992   0.558  0.5219  0.0634 -0.0858
 2062SOL     hw 8246   0.756   4.043   0.617 -0.7674  1.2439 -2.2258
 2062SOL     hw 8247   0.871   3.944   0.617  0.6130  2.6279  2.1146
 2062SOL     vw 8248   0.813   3.992   0.574  0.3638  0.5575 -0.0778
 2063SOL     ow 8249   1.655   1.834   5.167 -0.6986 -0.5641  0.2621
 2063SOL     hw 8250   1.727   1.783   5.203 -0.6222 -0.8908 -0.3500
 2063SOL     hw 8251   1.622   1.782   5.093  0.7476  1.1914 -1.7480
 2063SOL     vw 8252   1.660   1.821   5.162 -0.4977 -0.3756 -0.0839
 2064SOL     ow 8253   1.122   2.486   4.108  0.2643 -0.2001 -0.2970
 2064SOL     hw 8254   1.085   2.546   4.172 -0.4806 -1.4276  0.4723
 2064SOL     hw 8255   1.193   2.441   4.154 -2.6093 -3.8030  1.0998
 2064SOL     vw 8256   1.126   2.488   4.122 -0.2131 -0.8374 -0.0110
 2065SOL     ow 8257   0.296   6.625   5.487 -0.3567 -0.1734 -0.0230
 2065SOL     hw 8258   0.376   6.602   5.441 -0.5718  0.1935 -0.5911
 2065SOL     hw 8259   0.311   6.596   5.577  0.8675  0.9064  0.1508
 2065SOL     vw 8260   0.308   6.618   5.493 -0.2236  0.0174 -0.0751
 2066SOL     ow 8261   2.774   6.177   0.161  0.3142  0.3668 -0.1217
 2066SOL     hw 8262   2.692   6.225   0.151  0.1787 -0.1634 -1.8264
 2066SOL     hw 8263   2.747   6.086   0.172  0.6356 -0.0485 -2.2355
 2066SOL     vw 8264   2.760   6.171   0.161  0.3387  0.2422 -0.6255
 2067SOL     ow 8265   0.910   7.029   5.101 -0.2250 -0.2431  0.3470
 2067SOL     hw 8266   0.834   7.052   5.154 -2.4069 -2.6299 -1.4642
 2067SOL     hw 8267   0.892   7.066   5.015 -1.1980 -3.6466 -1.0788
 2067SOL     vw 8268   0.898   7.037   5.097 -0.6413 -1.0071 -0.0799
 2068SOL     ow 8269   6.537   2.094   3.903 -0.0225  0.0958 -0.0165
 2068SOL     hw 8270   6.498   2.017   3.862  1.3207 -0.9736  0.6399
 2068SOL     hw 8271   6.464   2.137   3.947 -0.4393 -2.2113  1.7673
 2068SOL     vw 8272   6.522   2.089   3.903  0.0999 -0.3496  0.3054
 2069SOL     ow 8273   6.306   3.295   2.525 -0.1252  0.5423  0.0956
 2069SOL     hw 8274   6.313   3.372   2.469 -1.0330  0.9334  0.4874
 2069SOL     hw 8275   6.242   3.320   2.592  0.9086  0.0914  1.2990
 2069SOL     vw 8276   6.298   3.308   2.527 -0.1087  0.5344  0.3060
 2070SOL     ow 8277   0.313   2.220   7.121  0.2612 -0.4831 -0.4271
 2070SOL     hw 8278   0.258   2.240   7.197  0.0353 -0.3400 -0.6241
 2070SOL     hw 8279   0.270   2.145   7.080  0.5771 -0.7739 -0.2169
 2070SOL     vw 8280   0.300   2.213   7.126  0.2730 -0.5027 -0.4253
 2071SOL     ow 8281   2.738   1.575   6.096 -0.5724  0.2162  0.2855
 2071SOL     hw 8282   2.717   1.643   6.161 -0.5233 -0.3524  0.9020
 2071SOL     hw 8283   2.831   1.585   6.080 -0.6650  0.6259 -0.0072
 2071SOL     vw 8284   2.747   1.586   6.103 -0.5783  0.1953  0.3283
 2072SOL     ow 8285   6.397   0.775   5.678 -0.2180  0.2583  0.0217
 2072SOL     hw 8286   6.306   0.757   5.655 -1.0461  2.3880  1.3376
 2072SOL     hw 8287   6.425   0.697   5.727 -1.0460 -0.7449 -1.0299
 2072SOL     vw 8288   6.389   0.762   5.681 -0.4363  0.4070  0.0565
 2073SOL     ow 8289   2.752   2.600   5.288 -0.0161  0.6848  0.2469
 2073SOL     hw 8290   2.702   2.567   5.213  0.3057 -0.4198  0.4985
 2073SOL     hw 8291   2.692   2.590   5.363 -0.0492  1.0337  0.2686
 2073SOL     vw 8292   2.737   2.595   5.288  0.0218  0.5850  0.2828
 2074SOL     ow 8293   5.859   3.290   4.459 -0.2254  0.2766  0.5911
 2074SOL     hw 8294   5.809   3.296   4.378  0.5603 -2.3674 -0.2070
 2074SOL     hw 8295   5.802   3.244   4.520  0.1136 -0.0277  0.6828
 2074SOL     vw 8296   5.845   3.285   4.456 -0.0768 -0.1125  0.4981
 2075SOL     ow 8297   0.121   6.413   6.599  0.5752 -0.1390 -0.8113
 2075SOL     hw 8298   0.172   6.465   6.536 -0.9858  1.5134 -0.7894
 2075SOL     hw 8299   0.030   6.435   6.580 -0.0303 -1.1300  0.7414
 2075SOL     vw 8300   0.116   6.423   6.588  0.2894 -0.0515 -0.6034
 2076SOL     ow 8301   2.921   2.064   6.023  0.2380 -0.0807  0.1556
 2076SOL     hw 8302   2.966   2.025   5.948 -1.2342 -2.7509  0.5148
 2076SOL     hw 8303   2.989   2.112   6.070  2.0679 -1.5352 -0.8631
 2076SOL     vw 8304   2.936   2.065   6.020  0.2851 -0.6249  0.0687
 2077SOL     ow 8305   2.406   3.441   1.155  0.4397 -0.5628 -0.1717
 2077SOL     hw 8306   2.459   3.393   1.219  1.0350 -1.5580 -1.3767
 2077SOL     hw 8307   2.316   3.419   1.178  0.3852  1.6726  2.3208
 2077SOL     vw 8308   2.401   3.432   1.167  0.5111 -0.3991 -0.0018
 2078SOL     ow 8309   1.372   2.426   1.130 -0.5014  0.3205  0.0039
 2078SOL     hw 8310   1.301   2.469   1.178 -0.9135  0.8180 -1.0305
 2078SOL     hw 8311   1.410   2.365   1.193 -1.9959 -0.1202  0.5180
 2078SOL     vw 8312   1.368   2.424   1.145 -0.7529  0.3279 -0.0648
 2079SOL     ow 8313   0.046   1.651   3.789 -0.5555  0.2946 -0.0734
 2079SOL     hw 8314   0.078   1.724   3.736 -0.1351 -0.3497 -0.7397
 2079SOL     hw 8315  -0.047   1.670   3.803  0.2022  2.5985  2.5566
 2079SOL     vw 8316   0.038   1.663   3.784 -0.4001  0.5137  0.1856
 2080SOL     ow 8317   1.502   0.196   0.068  0.6275  0.2924  0.2433
 2080SOL     hw 8318   1.520   0.196   0.162 -0.6971  1.1497  0.5274
 2080SOL     hw 8319   1.410   0.170   0.061  0.3979  1.3020 -0.7407
 2080SOL     vw 8320   1.492   0.192   0.079  0.4224  0.5387  0.1510
 2081SOL     ow 8321   2.298   4.243   6.424  0.1353 -0.2908  0.2441
 2081SOL     hw 8322   2.366   4.199   6.476 -0.2435 -1.1226  0.0573
 2081SOL     hw 8323   2.235   4.274   6.489 -0.6943 -1.9431  0.2634
 2081SOL     vw 8324   2.299   4.241   6.440 -0.0241 -0.6185  0.2220
 2082SOL     ow 8325   0.297   0.874   7.382  0.1639  1.2063  0.9472
 2082SOL     hw 8326   0.323   0.925   7.459  2.2806  0.3139  0.8875
 2082SOL     hw 8327   0.334   0.787   7.397 -2.1974  0.0223  0.4104
 2082SOL     vw 8328   0.305   0.870   7.394  0.1316  0.9323  0.8686
 2083SOL     ow 8329   6.246   4.159   6.053 -0.7665  0.3848 -0.2782
 2083SOL     hw 8330   6.285   4.079   6.017  0.5546  0.8414  0.0735
 2083SOL     hw 8331   6.319   4.203   6.097 -1.9220  0.7539  1.3588
 2083SOL     vw 8332   6.261   4.154   6.054 -0.7448  0.4940 -0.0162
 2084SOL     ow 8333   0.251   6.782   0.377  0.8283 -0.6235 -0.2010
 2084SOL     hw 8334   0.233   6.718   0.447 -2.3472  0.2276 -0.0895
 2084SOL     hw 8335   0.229   6.735   0.296 -1.2304  0.1484 -0.1381
 2084SOL     vw 8336   0.245   6.767   0.376  0.1377 -0.4094 -0.1780
 2085SOL     ow 8337   6.998   4.581   2.696  0.6154 -0.2467 -0.3441
 2085SOL     hw 8338   7.074   4.595   2.639 -0.5655 -0.5545 -2.0633
 2085SOL     hw 8339   6.964   4.669   2.713  1.7947 -0.0315  1.1375
 2085SOL     vw 8340   7.004   4.595   2.691  0.6151 -0.2589 -0.3755
 2086SOL     ow 8341   3.768   7.508   4.989 -0.1477  0.0219  0.4808
 2086SOL     hw 8342   3.750   7.543   5.076 -1.2110  0.7138  0.0019
 2086SOL     hw 8343   3.682   7.496   4.950  0.3233  1.4434 -1.1345
 2086SOL     vw 8344   3.754   7.511   4.995 -0.2259  0.3009  0.2046
 2087SOL     ow 8345   6.205   6.535   1.184 -0.4507  0.0811  0.1869
 2087SOL     hw 8346   6.231   6.448   1.155  0.6132 -0.1480  1.6883
 2087SOL     hw 8347   6.220   6.534   1.279 -3.5232  0.8483  0.7821
 2087SOL     vw 8348   6.211   6.524   1.193 -0.7157  0.1521  0.4635
 2088SOL     ow 8349   1.073   4.201   4.754 -0.3990  0.1083  0.5310
 2088SOL     hw 8350   1.075   4.171   4.845  2.5807 -0.1785  0.4855
 2088SOL     hw 8351   1.003   4.266   4.752 -4.1168 -3.3956  1.7156
 2088SOL     vw 8352   1.064   4.206   4.766 -0.4963 -0.3917  0.6812
 2089SOL     ow 8353   3.301   6.571   0.662 -0.1770 -0.3469  0.1351
 2089SOL     hw 8354   3.325   6.661   0.683 -2.4523  0.2244  0.5154
 2089SOL     hw 8355   3.252   6.541   0.738 -2.2080 -0.7753 -1.2755
 2089SOL     vw 8356   3.298   6.579   0.674 -0.7452 -0.3281 -0.0009
 2090SOL     ow 8357   1.232   1.788   1.893  0.2274 -0.3965 -0.7907
 2090SOL     hw 8358   1.171   1.726   1.854  0.4446 -0.5098 -0.9532
 2090SOL     hw 8359   1.219   1.869   1.843 -0.7709  0.0002  0.0689
 2090SOL     vw 8360   1.222   1.791   1.881  0.1244 -0.3591 -0.6987
 2091SOL     ow 8361   4.472   6.273   6.036 -0.4537  0.3526 -0.1442
 2091SOL     hw 8362   4.515   6.335   5.977  1.1682 -1.5483 -1.0946
 2091SOL     hw 8363   4.378   6.289   6.025 -0.1004  1.8392 -1.2020
 2091SOL     vw 8364   4.465   6.283   6.027 -0.1929  0.2980 -0.4091
 2092SOL     ow 8365   4.441   0.324   3.383 -0.3728 -0.3072 -0.3362
 2092SOL     hw 8366   4.473   0.377   3.309 -1.2119  3.9864  2.0222
 2092SOL     hw 8367   4.346   0.321   3.371 -0.4056 -0.5619 -0.0201
 2092SOL     vw 8368   4.433   0.331   3.372 -0.4876  0.2257  0.0167
 2093SOL     ow 8369   1.405   2.880   3.240 -0.2188  0.3116  0.5319
 2093SOL     hw 8370   1.347   2.946   3.277 -0.3997 -0.4545  1.6757
 2093SOL     hw 8371   1.348   2.807   3.218 -0.1734  0.8586 -1.6610
 2093SOL     vw 8372   1.390   2.879   3.242 -0.2367  0.2828  0.3934
 2094SOL     ow 8373   0.409   5.113   1.990 -0.2198  0.0139 -0.8805
 2094SOL     hw 8374   0.486   5.078   1.944  1.1305  0.5369  0.8490
 2094SOL     hw 8375   0.441   5.130   2.079 -2.9433 -1.8933  0.5830
 2094SOL     vw 8376   0.424   5.111   1.996 -0.4010 -0.1688 -0.4593
 2095SOL     ow 8377   4.166   0.418   5.382 -0.0362 -0.1975  0.2531
 2095SOL     hw 8378   4.137   0.370   5.305  0.8385  0.0173 -0.2219
 2095SOL     hw 8379   4.209   0.353   5.437 -1.1478 -0.4673  0.8479
 2095SOL     vw 8380   4.168   0.403   5.379 -0.0675 -0.2048  0.2689
 2096SOL     ow 8381   3.931   5.092   0.862  0.0353 -0.1717  0.1868
 2096SOL     hw 8382   3.966   5.043   0.787 -1.4294 -2.0398  0.6626
 2096SOL     hw 8383   3.841   5.112   0.837 -0.1396  0.0958  1.0260
 2096SOL     vw 8384   3.924   5.088   0.849 -0.1810 -0.3827  0.3603
 2097SOL     ow 8385   5.150   1.488   1.669 -0.0205 -0.5981  0.6321
 2097SOL     hw 8386   5.236   1.515   1.702  1.1716 -1.7806 -1.3454
 2097SOL     hw 8387   5.112   1.436   1.740  1.4403 -1.0947  1.0820
 2097SOL     vw 8388   5.156   1.485   1.683  0.3293 -0.8197  0.4305
 2098SOL     ow 8389   5.009   7.325   0.416 -0.2683 -0.6057 -0.5794
 2098SOL     hw 8390   4.930   7.376   0.399 -0.1281  0.3715  1.3517
 2098SOL     hw 8391   4.994   7.284   0.501  0.9065 -1.1948 -0.6299
 2098SOL     vw 8392   4.997   7.326   0.425 -0.0947 -0.5546 -0.3313
 2099SOL     ow 8393   0.962   5.003   0.861  0.4014 -0.3979 -0.3271
 2099SOL     hw 8394   1.042   4.964   0.896  0.5341 -0.3744 -0.6030
 2099SOL     hw 8395   0.903   5.009   0.937  1.0965  0.7472  0.1437
 2099SOL     vw 8396   0.965   4.998   0.876  0.5106 -0.2437 -0.3014
 2100SOL     ow 8397   7.507   6.539   1.450  0.0344  0.5225 -0.7716
 2100SOL     hw 8398   7.598   6.528   1.478  0.1926 -2.6122 -2.1070
 2100SOL     hw 8399   7.461   6.467   1.492 -0.9668 -0.4188 -3.3393
 2100SOL     vw 8400   7.513   6.528   1.460 -0.0768 -0.0155 -1.2865
 2101SOL     ow 8401   5.701   4.902   6.959 -0.3884  0.3010 -0.3619
 2101SOL     hw 8402   5.745   4.941   6.883  0.1208 -3.3688 -2.2048
 2101SOL     hw 8403   5.608   4.918   6.943 -0.3916 -1.3423 -2.5350
 2101SOL     vw 8404   5.694   4.909   6.947 -0.3214 -0.4001 -0.8919
 2102SOL     ow 8405   0.177   2.324   5.205  0.4516 -0.0277 -0.1205
 2102SOL     hw 8406   0.143   2.387   5.141 -1.1109 -1.8195 -1.1745
 2102SOL     hw 8407   0.150   2.359   5.290 -2.5353 -0.3702 -0.8009
 2102SOL     vw 8408   0.169   2.337   5.208 -0.1487 -0.3093 -0.3493
 2103SOL     ow 8409   6.381   1.184   1.970  0.5237  0.2753  0.6312
 2103SOL     hw 8410   6.339   1.244   2.031 -0.4489  0.9717 -0.6715
 2103SOL     hw 8411   6.345   1.098   1.992 -1.5419  0.8274 -0.3292
 2103SOL     vw 8412   6.371   1.180   1.981  0.1230  0.4401  0.3326
 2104SOL     ow 8413   6.809   5.159   1.152  0.1357 -0.1728 -0.2117
 2104SOL     hw 8414   6.800   5.100   1.077  0.9402  0.1006 -0.5317
 2104SOL     hw 8415   6.883   5.215   1.130  1.6312 -1.2885  1.5828
 2104SOL     vw 8416   6.817   5.158   1.139  0.4389 -0.2837 -0.0171
 2105SOL     ow 8417   0.602   7.547   2.041 -0.7766 -0.2445  0.3654
 2105SOL     hw 8418   0.551   7.625   2.062 -2.4682 -1.1117 -0.3294
 2105SOL     hw 8419   0.647   7.525   2.122  0.3617  1.8659  0.3786
 2105SOL     vw 8420   0.601   7.554   2.054 -0.8496 -0.0803  0.2755
 2106SOL     ow 8421   5.578   7.242   5.797 -0.0858 -0.3674  0.2859
 2106SOL     hw 8422   5.625   7.320   5.767 -0.7669 -0.9313 -2.5506
 2106SOL     hw 8423   5.494   7.277   5.830  1.2561  0.4081  3.2328
 2106SOL     vw 8424   5.573   7.257   5.797  0.0017 -0.3395  0.3004
 2107SOL     ow 8425   6.854   0.459   7.061 -0.2243  0.1159 -0.3549
 2107SOL     hw 8426   6.934   0.461   7.007 -0.7112  2.1387 -1.0770
 2107SOL     hw 8427   6.789   0.418   7.005 -0.0902 -0.1152 -0.3448
 2107SOL     vw 8428   6.856   0.453   7.047 -0.2711  0.3523 -0.4489
 2108SOL     ow 8429   1.564   7.318   5.068 -0.9101  0.8585 -0.2898
 2108SOL     hw 8430   1.561   7.290   4.976 -1.6447  0.1037 -0.0505
 2108SOL     hw 8431   1.530   7.243   5.117 -0.5741  1.2722  0.5982
 2108SOL     vw 8432   1.559   7.304   5.062 -0.9627  0.8135 -0.1411
 2109SOL     ow 8433   3.283   6.950   7.464  1.0896  0.2854  0.1439
 2109SOL     hw 8434   3.266   7.042   7.447 -0.4112  0.3554  1.8134
 2109SOL     hw 8435   3.239   6.931   7.546  1.1350 -1.9986 -0.2708
 2109SOL     vw 8436   3.275   6.959   7.472  0.8976 -0.0067  0.3092
 2110SOL     ow 8437   4.341   6.547   2.018 -0.2262  0.3592 -0.2243
 2110SOL     hw 8438   4.318   6.541   2.111  0.3011  0.9779 -0.0450
 2110SOL     hw 8439   4.379   6.634   2.008 -0.2975  0.3075 -1.0306
 2110SOL     vw 8440   4.343   6.558   2.029 -0.1662  0.4339 -0.3068
 2111SOL     ow 8441   4.893   0.912   1.730 -0.3741 -0.0861  0.2534
 2111SOL     hw 8442   4.983   0.888   1.707 -0.3274 -0.7021  1.0422
 2111SOL     hw 8443   4.849   0.926   1.646 -0.1056 -1.8758 -0.2212
 2111SOL     vw 8444   4.899   0.910   1.716 -0.3326 -0.4035  0.2948
 2112SOL     ow 8445   1.583   0.050   7.446 -0.5221  0.2725 -0.4260
 2112SOL     hw 8446   1.518  -0.000   7.396  0.1208 -1.9613  0.8329
 2112SOL     hw 8447   1.667   0.019   7.413 -0.1112  0.3409  0.5300
 2112SOL     vw 8448   1.585   0.039   7.435 -0.3830 -0.0132 -0.1335
 2113SOL     ow 8449   0.760   7.309   3.801  0.8159 -0.1187 -0.9877
 2113SOL     hw 8450   0.818   7.325   3.727 -0.9288  0.5872 -2.2955
 2113SOL     hw 8451   0.676   7.346   3.773  0.2049  0.6249  1.5571
 2113SOL     vw 8452   0.756   7.316   3.787  0.5051  0.0725 -0.8245
 2114SOL     ow 8453   7.606   5.481   3.407 -0.9391  0.1759 -0.1498
 2114SOL     hw 8454   7.664   5.529   3.348  1.5612 -0.0376  1.9898
 2114SOL     hw 8455   7.597   5.394   3.366  2.1572 -0.5531  0.4792
 2114SOL     vw 8456   7.612   5.476   3.394 -0.2010  0.0515  0.2154
 2115SOL     ow 8457   6.348   6.917   4.555  0.6760 -0.3100  0.0142
 2115SOL     hw 8458   6.432   6.944   4.519  0.5319 -1.4576 -1.2564
 2115SOL     hw 8459   6.285   6.979   4.519  0.9970  0.8960  1.4059
 2115SOL     vw 8460   6.351   6.929   4.546  0.6990 -0.3026  0.0303
 2116SOL     ow 8461   0.326   2.492   6.209 -0.1094  0.0646 -0.3092
 2116SOL     hw 8462   0.261   2.475   6.278  1.1950  0.4289  1.0696
 2116SOL     hw 8463   0.307   2.581   6.180  0.9965  0.9930  1.5789
 2116SOL     vw 8464   0.315   2.501   6.214  0.2086  0.2350  0.1218
 2117SOL     ow 8465   5.229   3.695   6.952  0.5214 -0.3205 -0.9234
 2117SOL     hw 8466   5.210   3.788   6.938  1.0812 -0.2954 -1.5277
 2117SOL     hw 8467   5.324   3.689   6.956  0.5317 -0.2789  3.2900
 2117SOL     vw 8468   5.239   3.706   6.951  0.5965 -0.3117 -0.4473
 2118SOL     ow 8469   3.214   7.379   3.381  0.6065 -0.2865 -0.8483
 2118SOL     hw 8470   3.266   7.442   3.330  0.9386 -1.6705 -2.3130
 2118SOL     hw 8471   3.276   7.342   3.443  0.1149  1.6778  0.9222
 2118SOL     vw 8472   3.229   7.382   3.382  0.5854 -0.2098 -0.8079
 2119SOL     ow 8473   6.836   3.408   4.011  0.1894 -0.1605  0.2297
 2119SOL     hw 8474   6.910   3.406   3.951  0.1114 -3.2690  0.0921
 2119SOL     hw 8475   6.873   3.384   4.096 -0.3372  0.4188  0.6336
 2119SOL     vw 8476   6.851   3.405   4.015  0.1097 -0.4941  0.2649
 2120SOL     ow 8477   2.857   1.116   5.441 -0.1262  0.3878  0.1383
 2120SOL     hw 8478   2.943   1.091   5.408 -0.3345  0.4144 -0.4239
 2120SOL     hw 8479   2.801   1.119   5.364 -1.4316 -2.7838  0.8104
 2120SOL     vw 8480   2.861   1.113   5.427 -0.3259 -0.0271  0.1528
 2121SOL     ow 8481   6.701   4.640   3.064 -0.6243 -0.0608 -0.5766
 2121SOL     hw 8482   6.716   4.583   3.140  0.4109 -1.2569 -1.6510
 2121SOL     hw 8483   6.760   4.714   3.078  0.4704 -0.8652 -0.7830
 2121SOL     vw 8484   6.710   4.643   3.076 -0.3433 -0.3250 -0.7455
 2122SOL     ow 8485   0.943   1.462   5.714 -0.7579  0.7940  0.2665
 2122SOL     hw 8486   1.037   1.467   5.696 -0.9295  2.0920 -0.4419
 2122SOL     hw 8487   0.922   1.548   5.750 -2.4803  2.4656 -4.0533
 2122SOL     vw 8488   0.953   1.474   5.716 -1.0078  1.1858 -0.3970
 2123SOL     ow 8489   2.420   4.714   6.263  0.2897 -0.0017 -0.2465
 2123SOL     hw 8490   2.458   4.737   6.178 -1.8884  1.9538 -0.7647
 2123SOL     hw 8491   2.326   4.723   6.251 -0.1669 -0.9937  2.0500
 2123SOL     vw 8492   2.413   4.718   6.250 -0.0581  0.1259 -0.0122
 2124SOL     ow 8493   5.226   6.077   3.099  0.5310 -0.3064  0.2559
 2124SOL     hw 8494   5.230   6.123   3.183  0.7412  0.5784 -0.2275
 2124SOL     hw 8495   5.136   6.090   3.069  0.3513 -0.9373  0.5151
 2124SOL     vw 8496   5.215   6.085   3.106  0.5352 -0.2730  0.2264
 2125SOL     ow 8497   1.949   3.737   4.754  0.5568  0.2292 -0.0712
 2125SOL     hw 8498   1.953   3.674   4.826 -0.2851  0.3231  0.0634
 2125SOL     hw 8499   2.040   3.763   4.741  0.8965 -0.9019 -0.0414
 2125SOL     vw 8500   1.962   3.732   4.762  0.4905  0.0924 -0.0494
 2126SOL     ow 8501   4.611   2.430   2.141 -0.1463  0.2908 -0.4635
 2126SOL     hw 8502   4.618   2.509   2.086  0.8857  2.7817  2.8821
 2126SOL     hw 8503   4.700   2.395   2.144 -0.6277 -1.2368 -2.0545
 2126SOL     vw 8504   4.624   2.436   2.134 -0.0734  0.4179 -0.2320
 2127SOL     ow 8505   4.345   6.777   2.534  0.8829  0.3412 -0.0870
 2127SOL     hw 8506   4.416   6.724   2.570 -0.1206 -1.4441 -0.6003
 2127SOL     hw 8507   4.360   6.779   2.440 -1.3595 -2.8789 -0.7041
 2127SOL     vw 8508   4.356   6.770   2.527  0.4549 -0.3192 -0.2360
 2128SOL     ow 8509   1.244   1.935   7.513 -0.2124  0.4801 -0.1680
 2128SOL     hw 8510   1.204   1.938   7.426 -0.0948  0.5641 -0.2203
 2128SOL     hw 8511   1.317   1.873   7.503  1.2287  2.1684 -0.7447
 2128SOL     vw 8512   1.249   1.927   7.500 -0.0067  0.7139 -0.2511
 2129SOL     ow 8513   2.618   3.905   1.544 -0.1498 -0.6077 -0.3711
 2129SOL     hw 8514   2.670   3.898   1.464  1.0270  0.0149  0.3110
 2129SOL     hw 8515   2.595   3.998   1.550  1.2591 -0.3014  0.8857
 2129SOL     vw 8516   2.622   3.917   1.534  0.1915 -0.4852 -0.1153
 2130SOL     ow 8517   7.234   6.144   2.445 -0.0173 -0.1055 -0.2890
 2130SOL     hw 8518   7.224   6.154   2.539  1.6220  1.2071 -0.2036
 2130SOL     hw 8519   7.146   6.154   2.409 -0.2868  2.2306  0.8862
 2130SOL     vw 8520   7.221   6.147   2.453  0.1636  0.3760 -0.1229
 2131SOL     ow 8521   7.306   1.434   1.627  0.3665  0.1086 -0.4181
 2131SOL     hw 8522   7.218   1.467   1.647  0.6091  0.3571  0.2894
 2131SOL     hw 8523   7.303   1.341   1.650  0.5874  0.3515  0.6448
 2131SOL     vw 8524   7.294   1.426   1.633  0.4280  0.1734 -0.1845
 2132SOL     ow 8525   6.358   5.043   6.259  0.2443  0.8794 -1.0671
 2132SOL     hw 8526   6.274   4.998   6.251  1.1515 -0.5945 -3.1183
 2132SOL     hw 8527   6.346   5.124   6.209 -1.0749  2.6275  1.8153
 2132SOL     vw 8528   6.345   5.048   6.251  0.1903  0.9155 -0.9575
 2133SOL     ow 8529   4.062   5.372   5.917  0.2238 -0.0738 -0.2365
 2133SOL     hw 8530   4.043   5.409   6.003 -3.4884  0.0582 -0.9759
 2133SOL     hw 8531   4.074   5.448   5.861  0.1859 -0.1295 -0.3200
 2133SOL     vw 8532   4.061   5.387   5.921 -0.2711 -0.0637 -0.3450
 2134SOL     ow 8533   5.361   3.319   6.891 -0.4329  0.5443 -0.3217
 2134SOL     hw 8534   5.360   3.237   6.842 -2.2461  0.4290 -0.1702
 2134SOL     hw 8535   5.287   3.368   6.857 -1.5066  0.6342  1.9733
 2134SOL     vw 8536   5.351   3.315   6.880 -0.8137  0.5411  0.0010
 2135SOL     ow 8537   1.328   6.196   3.498  0.2609 -0.4766  0.0879
 2135SOL     hw 8538   1.351   6.129   3.561 -1.6936  0.2985  1.7367
 2135SOL     hw 8539   1.344   6.279   3.543  0.6179  0.1522 -1.1313
 2135SOL     vw 8540   1.333   6.198   3.512  0.0501 -0.2913  0.1445
 2136SOL     ow 8541   3.913   6.697   5.557  0.2999 -0.4900  0.1510
 2136SOL     hw 8542   3.982   6.752   5.593  0.5747  0.3333 -1.5611
 2136SOL     hw 8543   3.833   6.729   5.598  0.7652 -0.6143  1.1831
 2136SOL     vw 8544   3.911   6.708   5.567  0.3976 -0.3977  0.0613
 2137SOL     ow 8545   5.807   4.981   5.019  0.1751 -0.0856 -0.1420
 2137SOL     hw 8546   5.803   5.055   5.080 -2.7909 -0.6287  0.4685
 2137SOL     hw 8547   5.835   5.020   4.936  1.7301  1.1242  0.9006
 2137SOL     vw 8548   5.810   4.996   5.016 -0.0112  0.0024  0.0763
 2138SOL     ow 8549   5.601   6.578   3.627  0.4996 -1.2106 -0.0393
 2138SOL     hw 8550   5.522   6.529   3.604  2.0214 -3.7357 -0.3726
 2138SOL     hw 8551   5.625   6.544   3.713  1.2521 -0.5406  0.0198
 2138SOL     vw 8552   5.594   6.567   3.635  0.7999 -1.4551 -0.0755
 2139SOL     ow 8553   5.957   3.472   4.911  0.1205 -0.4241 -0.4669
 2139SOL     hw 8554   6.051   3.466   4.894 -0.1668 -1.1276 -1.9308
 2139SOL     hw 8555   5.950   3.470   5.006  1.5975 -0.1111 -0.3286
 2139SOL     vw 8556   5.969   3.471   4.921  0.2778 -0.4756 -0.6418
 2140SOL     ow 8557   2.518   2.898   0.798 -0.7801  0.1357  0.5361
 2140SOL     hw 8558   2.426   2.919   0.808 -0.6394  0.7147  0.6562
 2140SOL     hw 8559   2.563   2.954   0.862 -0.3546 -0.1789  0.5168
 2140SOL     vw 8560   2.512   2.908   0.808 -0.7054  0.1706  0.5494
 2141SOL     ow 8561   0.428   2.954   4.787 -0.2400  0.3984  0.5881
 2141SOL     hw 8562   0.435   2.872   4.834 -2.9525  0.9263  2.1145
 2141SOL     hw 8563   0.512   2.999   4.804  1.1130 -1.7815  0.0598
 2141SOL     vw 8564   0.440   2.949   4.795 -0.4194  0.1804  0.7198
 2142SOL     ow 8565   4.249   4.775   6.035 -0.3642  0.3414  0.0730
 2142SOL     hw 8566   4.344   4.780   6.048 -0.5762  1.9039  1.4087
 2142SOL     hw 8567   4.239   4.749   5.943  1.4053  2.3693 -0.8036
 2142SOL     vw 8568   4.260   4.772   6.024 -0.1585  0.8154  0.1335
 2143SOL     ow 8569   5.993   3.157   3.883  0.1126  0.1446  0.1099
 2143SOL     hw 8570   5.984   3.244   3.845  1.4243 -0.4821 -1.7951
 2143SOL     hw 8571   6.084   3.132   3.866  0.7759 -0.3368  3.5464
 2143SOL     vw 8572   6.004   3.165   3.876  0.3731 -0.0015  0.3120
 2144SOL     ow 8573   3.821   2.942   2.018 -0.7790 -0.3227  0.5329
 2144SOL     hw 8574   3.861   2.860   2.046 -0.4357 -0.1350  0.6040
 2144SOL     hw 8575   3.766   2.969   2.091 -1.2103 -0.6970  0.3459
 2144SOL     vw 8576   3.819   2.935   2.031 -0.7907 -0.3471  0.5175
 2145SOL     ow 8577   5.573   4.637   3.203  0.2263  0.3011  0.4956
 2145SOL     hw 8578   5.518   4.563   3.179 -0.4048  0.8400  0.2239
 2145SOL     hw 8579   5.644   4.599   3.255  1.0970 -0.7702 -1.4015
 2145SOL     vw 8580   5.575   4.623   3.207  0.2580  0.2308  0.2096
 2146SOL     ow 8581   4.291   4.016   3.020  0.1482 -0.0261 -0.0279
 2146SOL     hw 8582   4.246   4.091   3.058  0.9413  0.1089  0.6724
 2146SOL     hw 8583   4.222   3.964   2.978 -0.2474  1.8037 -1.7896
 2146SOL     vw 8584   4.276   4.019   3.019  0.2005  0.2332 -0.1678
 2147SOL     ow 8585   2.242   7.615   0.165 -0.2034 -0.6239  0.7063
 2147SOL     hw 8586   2.257   7.564   0.085 -0.5474 -1.0755  0.9262
 2147SOL     hw 8587   2.179   7.681   0.139  0.9266  0.2770  0.1862
 2147SOL     vw 8588   2.236   7.617   0.151 -0.0997 -0.5646  0.6667
 2148SOL     ow 8589   4.938   1.339   6.511 -0.1565 -0.4024 -0.5681
 2148SOL     hw 8590   4.870   1.348   6.577  0.1101  0.3659 -0.3901
 2148SOL     hw 8591   5.020   1.347   6.560  0.0921 -1.8534 -0.6935
 2148SOL     vw 8592   4.940   1.341   6.526 -0.0885 -0.4925 -0.5612
 2149SOL     ow 8593   4.830   2.124   6.499  0.7407  0.2175  0.0791
 2149SOL     hw 8594   4.813   2.121   6.593  0.8279 -1.8305  0.0646
 2149SOL     hw 8595   4.780   2.051   6.463 -0.5809  1.9041 -1.7215
 2149SOL     vw 8596   4.821   2.114   6.506  0.5779  0.1698 -0.1605
 2150SOL     ow 8597   6.380   1.317   2.610 -0.0561 -0.0243 -0.2365
 2150SOL     hw 8598   6.376   1.221   2.605  1.3510 -0.1257  0.3116
 2150SOL     hw 8599   6.300   1.342   2.656 -0.0271 -0.9902  0.3552
 2150SOL     vw 8600   6.369   1.308   2.615  0.1333 -0.1651 -0.0862
 2151SOL     ow 8601   2.448   2.443   4.724  0.6368  0.0223 -0.0615
 2151SOL     hw 8602   2.354   2.442   4.745  0.6264  0.3508 -0.0937
 2151SOL     hw 8603   2.489   2.398   4.797  0.4268 -0.3522 -0.1710
 2151SOL     vw 8604   2.441   2.437   4.737  0.6078  0.0163 -0.0803
 2152SOL     ow 8605   3.392   1.652   0.882  0.4829 -0.2322 -0.8124
 2152SOL     hw 8606   3.390   1.561   0.855  1.3459 -0.8899  1.1142
 2152SOL     hw 8607   3.303   1.670   0.914  0.2265 -0.2962 -1.4880
 2152SOL     vw 8608   3.380   1.642   0.883  0.5629 -0.3275 -0.6474
 2153SOL     ow 8609   3.425   2.967   7.073  0.2797  0.1114  0.2652
 2153SOL     hw 8610   3.463   2.989   6.987  0.1294 -0.3000  0.0904
 2153SOL     hw 8611   3.366   2.894   7.055  1.1425 -0.7767  0.9038
 2153SOL     vw 8612   3.422   2.960   7.059  0.3735 -0.0601  0.3264
 2154SOL     ow 8613   2.241   6.011   6.545  0.1904  0.0594 -0.1738
 2154SOL     hw 8614   2.210   5.954   6.475  0.7663 -1.9458  1.1017
 2154SOL     hw 8615   2.332   6.029   6.522  0.4358 -0.7525  0.1145
 2154SOL     vw 8616   2.249   6.006   6.533  0.2987 -0.3121  0.0324
 2155SOL     ow 8617   6.030   4.335   3.015 -0.3401  0.1588 -0.5249
 2155SOL     hw 8618   5.998   4.269   3.076 -0.4836  2.4272  2.0872
 2155SOL     hw 8619   6.125   4.334   3.025 -0.4260  1.3211  0.7468
 2155SOL     vw 8620   6.038   4.326   3.024 -0.3700  0.6113 -0.0125
 2156SOL     ow 8621   2.694   1.389   5.859 -0.3157  0.0262 -0.6839
 2156SOL     hw 8622   2.747   1.399   5.780 -1.8026  0.7650 -1.6221
 2156SOL     hw 8623   2.640   1.312   5.842  1.6999 -1.9426  1.0677
 2156SOL     vw 8624   2.694   1.380   5.846 -0.2459 -0.1361 -0.5767
 2157SOL     ow 8625   6.075   5.924   1.795  0.5783  0.0437 -0.0878
 2157SOL     hw 8626   6.082   5.997   1.857  0.2201 -1.0910  1.3597
 2157SOL     hw 8627   6.019   5.957   1.725 -0.4463  0.8354  1.0676
 2157SOL     vw 8628   6.069   5.938   1.794  0.3958 -0.0017  0.2556
 2158SOL     ow 8629   0.062   2.099   5.073  0.2781  0.6503 -0.2040
 2158SOL     hw 8630   0.042   2.034   5.141  2.2576  1.3227  1.1027
 2158SOL     hw 8631   0.079   2.179   5.122  0.6585  1.4402 -1.5982
 2158SOL     vw 8632   0.062   2.101   5.089  0.5894  0.8432 -0.2155
 2159SOL     ow 8633   0.806   5.796   4.289  0.3039 -0.4584 -0.1971
 2159SOL     hw 8634   0.784   5.875   4.336 -0.7387  0.1977 -1.6982
 2159SOL     hw 8635   0.897   5.779   4.311  0.4510  0.9843  0.3942
 2159SOL     vw 8636   0.815   5.804   4.298  0.1857 -0.1814 -0.3173
 2160SOL     ow 8637   0.702   6.466   5.558  0.5604  0.8348 -0.4213
 2160SOL     hw 8638   0.656   6.547   5.536 -1.0840  0.6715  2.0742
 2160SOL     hw 8639   0.654   6.398   5.511  0.5187  1.0403 -0.6816
 2160SOL     vw 8640   0.690   6.468   5.549  0.3379  0.8404 -0.1261
 2161SOL     ow 8641   1.473   0.745   2.613 -0.0999 -0.1092  0.5057
 2161SOL     hw 8642   1.420   0.673   2.648 -3.2063  1.4541 -0.5706
 2161SOL     hw 8643   1.482   0.807   2.685 -0.4679 -0.0330  0.4898
 2161SOL     vw 8644   1.467   0.744   2.627 -0.5583  0.1071  0.3616
 2162SOL     ow 8645   6.514   0.951   5.874 -0.1300 -0.3993 -0.8437
 2162SOL     hw 8646   6.457   0.880   5.844 -1.3257 -0.0046  0.3841
 2162SOL     hw 8647   6.488   0.965   5.965  0.0250  1.6590 -1.0834
 2162SOL     vw 8648   6.503   0.943   5.882 -0.2670 -0.0757 -0.7136
 2163SOL     ow 8649   4.571   1.222   0.096 -0.4739  0.3122  0.1239
 2163SOL     hw 8650   4.510   1.171   0.043  0.2881 -0.1369 -0.3432
 2163SOL     hw 8651   4.570   1.309   0.057 -0.3314  0.1332 -0.2815
 2163SOL     vw 8652   4.563   1.227   0.084 -0.3545  0.2294  0.0088
 2164SOL     ow 8653   4.142   2.811   6.547  0.0710  0.2454  0.3280
 2164SOL     hw 8654   4.213   2.762   6.507 -0.3116  2.7804 -4.0671
 2164SOL     hw 8655   4.080   2.827   6.475 -2.0370  3.1653  2.5332
 2164SOL     vw 8656   4.143   2.807   6.532 -0.2573  0.9651  0.0389
 2165SOL     ow 8657   5.758   0.052   5.106 -0.1929 -0.3473  0.2177
 2165SOL     hw 8658   5.681   0.038   5.050  0.1103  0.1808 -0.3398
 2165SOL     hw 8659   5.806  -0.030   5.101 -0.3567 -0.4317 -0.0137
 2165SOL     vw 8660   5.754   0.040   5.098 -0.1748 -0.2888  0.1135
 2166SOL     ow 8661   1.147   5.397   1.910  0.7514 -0.0851  0.3602
 2166SOL     hw 8662   1.218   5.369   1.852  2.5236  2.1837  1.3144
 2166SOL     hw 8663   1.141   5.491   1.897 -0.9423  0.0158  1.6130
 2166SOL     vw 8664   1.155   5.405   1.900  0.7617  0.2275  0.6514
 2167SOL     ow 8665   5.069   1.966   4.346 -0.0039  0.3691 -0.1099
 2167SOL     hw 8666   5.086   1.986   4.254 -0.5045  2.1960  0.1428
 2167SOL     hw 8667   4.998   2.025   4.371 -2.2088 -2.3843  0.6167
 2167SOL     vw 8668   5.062   1.977   4.337 -0.3607  0.2468  0.0193
 2168SOL     ow 8669   2.514   1.039   0.980  0.0169 -0.4179  0.5586
 2168SOL     hw 8670   2.481   1.006   1.063 -1.1102 -0.0917  0.2717
 2168SOL     hw 8671   2.609   1.035   0.987 -0.0777 -1.1065  1.5625
 2168SOL     vw 8672   2.522   1.034   0.992 -0.1442 -0.4657  0.6532
 2169SOL     ow 8673   2.120   1.266   4.523 -0.1575 -0.0053  0.2336
 2169SOL     hw 8674   2.211   1.238   4.527 -0.1660  0.0414  0.9416
 2169SOL     hw 8675   2.122   1.357   4.550 -0.2498  0.4277 -1.1365
 2169SOL     vw 8676   2.132   1.274   4.527 -0.1707  0.0579  0.1464
 2170SOL     ow 8677   1.289   0.386   0.491  0.2610 -0.4167 -0.3545
 2170SOL     hw 8678   1.273   0.404   0.584  0.1769 -0.6709 -0.3192
 2170SOL     hw 8679   1.326   0.468   0.457 -0.4719 -0.0463 -0.2846
 2170SOL     vw 8680   1.292   0.399   0.499  0.1531 -0.4014 -0.3407
 2171SOL     ow 8681   0.258   6.779   2.745 -0.5419 -0.3462 -0.0917
 2171SOL     hw 8682   0.300   6.839   2.684 -0.1826 -0.8756 -0.3762
 2171SOL     hw 8683   0.178   6.751   2.700 -0.4903 -0.4128 -0.1420
 2171SOL     vw 8684   0.253   6.783   2.731 -0.4877 -0.4249 -0.1360
 2172SOL     ow 8685   1.600   0.013   4.376  0.3205 -0.2974  0.2793
 2172SOL     hw 8686   1.593  -0.074   4.336  1.7206 -0.4605  0.3166
 2172SOL     hw 8687   1.511   0.034   4.404 -0.2930 -1.1262 -0.9451
 2172SOL     vw 8688   1.588   0.004   4.375  0.4243 -0.4282  0.1225
 2173SOL     ow 8689   7.107   1.980   0.222  0.4475 -0.5142 -0.6306
 2173SOL     hw 8690   7.191   1.978   0.267 -0.5060 -0.1813  1.3028
 2173SOL     hw 8691   7.123   1.939   0.138  2.2521 -1.6068  0.1984
 2173SOL     vw 8692   7.120   1.975   0.217  0.5598 -0.6145 -0.2662
 2174SOL     ow 8693   7.141   1.216   2.624  0.2809  0.0470  0.2443
 2174SOL     hw 8694   7.077   1.174   2.681 -2.5354  2.9211 -0.5152
 2174SOL     hw 8695   7.114   1.191   2.536  0.5783  0.7825 -0.0621
 2174SOL     vw 8696   7.129   1.207   2.620 -0.0515  0.5233  0.1036
 2175SOL     ow 8697   1.779   3.456   4.644 -0.0249 -0.0212 -0.1120
 2175SOL     hw 8698   1.863   3.457   4.689 -0.2845 -0.7271  0.4100
 2175SOL     hw 8699   1.784   3.380   4.586 -0.2446  0.0324 -0.2015
 2175SOL     vw 8700   1.791   3.446   4.642 -0.0881 -0.1073 -0.0548
 2176SOL     ow 8701   3.769   3.655   1.296  0.4764 -0.5560 -0.3674
 2176SOL     hw 8702   3.805   3.647   1.208 -2.7951  2.4025 -2.2078
 2176SOL     hw 8703   3.816   3.728   1.335  1.3961 -1.3796  0.1101
 2176SOL     vw 8704   3.780   3.663   1.290  0.1663 -0.2744 -0.5473
 2177SOL     ow 8705   1.568   2.848   2.113 -0.6601  0.2004 -1.1171
 2177SOL     hw 8706   1.546   2.940   2.101  0.2243  0.6710  0.5395
 2177SOL     hw 8707   1.664   2.846   2.116 -0.6021 -0.9788 -2.4272
 2177SOL     vw 8708   1.578   2.860   2.112 -0.5358  0.1069 -1.0715
 2178SOL     ow 8709   2.594   5.330   3.905 -0.4539 -0.2730  0.2577
 2178SOL     hw 8710   2.525   5.353   3.966 -0.6909 -0.1252 -0.0591
 2178SOL     hw 8711   2.548   5.307   3.824 -0.1940 -1.3163  0.3909
 2178SOL     vw 8712   2.579   5.330   3.902 -0.4507 -0.3910  0.2337
 2179SOL     ow 8713   2.867   1.532   0.908  0.4080 -0.1544  0.5538
 2179SOL     hw 8714   2.853   1.509   0.999 -1.7231  2.1356  0.8950
 2179SOL     hw 8715   2.942   1.591   0.909  0.5684 -0.3573  0.7538
 2179SOL     vw 8716   2.875   1.536   0.920  0.1479  0.1210  0.6252
 2180SOL     ow 8717   6.123   5.474   1.521  0.6528  0.8275  0.7023
 2180SOL     hw 8718   6.158   5.386   1.538  0.4213  0.0787 -2.2710
 2180SOL     hw 8719   6.176   5.508   1.449 -2.9372  0.6085 -2.3379
 2180SOL     vw 8720   6.135   5.467   1.514  0.1488  0.6998 -0.0911
 2181SOL     ow 8721   5.320   6.378   0.407 -0.4978  0.0477  0.2297
 2181SOL     hw 8722   5.336   6.456   0.461  2.7006 -1.1006  1.1872
 2181SOL     hw 8723   5.392   6.319   0.428 -0.9693 -1.8832 -2.8793
 2181SOL     vw 8724   5.332   6.380   0.417 -0.1378 -0.3586 -0.0542
 2182SOL     ow 8725   4.108   3.959   0.791 -0.0917 -0.4047 -0.1545
 2182SOL     hw 8726   4.050   3.905   0.845 -1.8693  0.1935 -1.3596
 2182SOL     hw 8727   4.194   3.947   0.829 -0.3514 -4.1486 -0.3730
 2182SOL     vw 8728   4.111   3.950   0.803 -0.3607 -0.8198 -0.3423
 2183SOL     ow 8729   5.198   0.522   5.009 -0.6251  0.7606  0.5592
 2183SOL     hw 8730   5.114   0.564   4.992 -0.4046  0.5372 -1.1961
 2183SOL     hw 8731   5.263   0.590   4.991 -0.3932  1.4511  3.4529
 2183SOL     vw 8732   5.196   0.536   5.005 -0.5655  0.8222  0.7095
 2184SOL     ow 8733   4.462   7.009   1.336  0.3620  0.3220  0.0516
 2184SOL     hw 8734   4.534   6.952   1.311  0.2561 -1.0754  2.5977
 2184SOL     hw 8735   4.402   7.007   1.261 -0.3371 -4.2037  0.4528
 2184SOL     vw 8736   4.463   7.001   1.323  0.2558 -0.4594  0.4405
 2185SOL     ow 8737   6.059   2.578   4.072  0.5685  0.1780  0.1115
 2185SOL     hw 8738   5.978   2.541   4.038  0.9014 -0.0788 -0.4162
 2185SOL     hw 8739   6.084   2.644   4.007  2.9128 -2.4987 -1.9754
 2185SOL     vw 8740   6.052   2.582   4.059  0.9215 -0.2092 -0.2332
 2186SOL     ow 8741   0.369   6.588   3.828 -0.0283  0.3264 -0.1622
 2186SOL     hw 8742   0.320   6.512   3.798  1.5114 -0.6965 -0.1829
 2186SOL     hw 8743   0.414   6.619   3.749  1.5581 -0.4724  0.3890
 2186SOL     vw 8744   0.368   6.582   3.813  0.3842  0.0858 -0.0923
 2187SOL     ow 8745   1.290   0.428   7.156  0.1378  0.0936 -0.5839
 2187SOL     hw 8746   1.232   0.487   7.204  2.0617  2.3019 -0.7802
 2187SOL     hw 8747   1.371   0.428   7.208  0.9563 -0.5049 -1.8249
 2187SOL     vw 8748   1.293   0.436   7.170  0.4997  0.3060 -0.7734
 2188SOL     ow 8749   3.788   6.308   7.389 -0.5786 -0.6609 -0.1333
 2188SOL     hw 8750   3.696   6.331   7.374  0.2500  3.1797 -0.4246
 2188SOL     hw 8751   3.797   6.308   7.485 -0.1990  3.4014  0.0372
 2188SOL     vw 8752   3.777   6.311   7.400 -0.4193  0.3819 -0.1490
 2189SOL     ow 8753   6.615   2.458   4.223  0.0123 -0.9410 -0.0806
 2189SOL     hw 8754   6.600   2.549   4.197 -2.9919 -1.4965 -0.6311
 2189SOL     hw 8755   6.642   2.464   4.315 -0.8561  0.4663  0.1082
 2189SOL     vw 8756   6.617   2.471   4.232 -0.4988 -0.8286 -0.1285
 2190SOL     ow 8757   5.213   7.548   0.912  0.0144  0.7156 -0.2217
 2190SOL     hw 8758   5.244   7.499   0.836  1.9585  1.0411  0.3073
 2190SOL     hw 8759   5.206   7.483   0.982  3.1518  1.1346  0.6398
 2190SOL     vw 8760   5.216   7.533   0.911  0.6850  0.8135 -0.0382
 2191SOL     ow 8761   0.995   2.356   6.249 -0.0158  0.5193  0.4079
 2191SOL     hw 8762   0.954   2.443   6.243  2.0315  1.4853 -0.5486
 2191SOL     hw 8763   1.084   2.374   6.278 -0.0991 -1.4722  2.0792
 2191SOL     vw 8764   1.001   2.370   6.252  0.2433  0.3840  0.5021
 2192SOL     ow 8765   0.236   4.780   7.143  0.7317  1.0998 -0.3630
 2192SOL     hw 8766   0.270   4.696   7.112 -1.9573 -0.3920  0.4627
 2192SOL     hw 8767   0.263   4.843   7.076  0.2912 -0.9209 -2.5676
 2192SOL     vw 8768   0.244   4.777   7.130  0.3188  0.6366 -0.5448
 2193SOL     ow 8769   3.688   3.487   5.147  0.4536  0.2060 -0.6004
 2193SOL     hw 8770   3.666   3.580   5.154  0.4664  0.1520  0.4014
 2193SOL     hw 8771   3.781   3.482   5.171  0.5601 -0.0131 -1.0621
 2193SOL     vw 8772   3.697   3.498   5.151  0.4693  0.1699 -0.5293
 2194SOL     ow 8773   0.040   1.133   0.276 -0.3796 -0.3943 -0.2009
 2194SOL     hw 8774   0.131   1.118   0.251  0.2789  1.3635  0.9491
 2194SOL     hw 8775   0.030   1.228   0.275 -2.6878 -0.5622 -1.8092
 2194SOL     vw 8776   0.050   1.144   0.272 -0.5973 -0.1845 -0.2614
 2195SOL     ow 8777   4.024   1.840   5.958 -0.4079 -0.4915  0.2217
 2195SOL     hw 8778   4.052   1.749   5.946  2.2159  0.3073 -0.4083
 2195SOL     hw 8779   4.010   1.848   6.053 -2.4554 -1.9451  0.1119
 2195SOL     vw 8780   4.026   1.829   5.969 -0.3321 -0.5779  0.1242
 2196SOL     ow 8781   6.234   7.611   3.851 -0.3756 -0.1193 -0.3182
 2196SOL     hw 8782   6.174   7.601   3.777 -0.7179  0.1780 -0.0826
 2196SOL     hw 8783   6.244   7.705   3.862  0.6871 -0.1665 -0.7931
 2196SOL     vw 8784   6.227   7.622   3.843 -0.2806 -0.0865 -0.3498
 2197SOL     ow 8785   4.994   6.029   0.167 -0.2708  0.1134  0.7248
 2197SOL     hw 8786   4.919   6.026   0.108 -0.9100 -0.1779  1.5370
 2197SOL     hw 8787   5.070   6.017   0.109 -0.9375 -1.3434  0.1036
 2197SOL     vw 8788   4.994   6.027   0.151 -0.4432 -0.1171  0.7500
 2198SOL     ow 8789   2.799   5.947   1.795  0.5291  0.0507 -0.3703
 2198SOL     hw 8790   2.806   5.987   1.882  1.2534 -0.4363 -0.2027
 2198SOL     hw 8791   2.880   5.972   1.750  0.3478 -0.0555 -0.7628
 2198SOL     vw 8792   2.811   5.956   1.801  0.6008 -0.0274 -0.4000
 2199SOL     ow 8793   1.984   4.804   4.066  0.2140 -0.8878 -0.0063
 2199SOL     hw 8794   1.920   4.872   4.043  0.8270 -0.7464 -1.3992
 2199SOL     hw 8795   2.041   4.846   4.129  1.0458  0.1999 -1.4132
 2199SOL     vw 8796   1.983   4.819   4.071  0.4046 -0.7255 -0.3755
 2200SOL     ow 8797   0.808   2.976   3.962  0.4737  0.1992 -0.0893
 2200SOL     hw 8798   0.745   2.910   3.934  0.3353  0.1320  0.3615
 2200SOL     hw 8799   0.763   3.059   3.947  0.0063  0.1280  0.8517
 2200SOL     vw 8800   0.794   2.978   3.956  0.3937  0.1811  0.0945
 2201SOL     ow 8801   0.845   0.672   0.130  0.1903 -0.2105  0.4977
 2201SOL     hw 8802   0.845   0.758   0.086 -2.1604 -0.1393  0.5253
 2201SOL     hw 8803   0.778   0.622   0.084  0.1957 -1.3756  1.7168
 2201SOL     vw 8804   0.836   0.677   0.118 -0.1191 -0.3549  0.6621
 2202SOL     ow 8805   1.009   4.656   0.870  0.1617 -0.4738  0.7254
 2202SOL     hw 8806   0.928   4.697   0.841 -0.1305 -1.6857 -0.2288
 2202SOL     hw 8807   0.985   4.565   0.888  0.9586 -0.4465  2.0511
 2202SOL     vw 8808   0.995   4.649   0.869  0.2283 -0.6301  0.7745
 2203SOL     ow 8809   2.935   3.312   5.564 -0.7006 -0.0371  0.7070
 2203SOL     hw 8810   2.871   3.383   5.563 -0.5061  0.1411  0.7466
 2203SOL     hw 8811   2.883   3.232   5.558 -0.8333  0.1599 -1.3637
 2203SOL     vw 8812   2.920   3.311   5.563 -0.6924  0.0124  0.4392
 2204SOL     ow 8813   7.285   2.802   7.588  0.2791  0.4711  0.1835
 2204SOL     hw 8814   7.330   2.785   7.671  0.6294  0.4317 -0.0137
 2204SOL     hw 8815   7.307   2.892   7.566  1.2807  0.0649 -0.5359
 2204SOL     vw 8816   7.293   2.811   7.596  0.4578  0.4122  0.0625
 2205SOL     ow 8817   5.067   1.237   6.745 -0.6105  0.0650 -0.6589
 2205SOL     hw 8818   4.975   1.215   6.729 -0.5366 -0.3623 -0.5206
 2205SOL     hw 8819   5.071   1.256   6.838 -0.1497 -2.1390 -0.1622
 2205SOL     vw 8820   5.055   1.236   6.755 -0.5403 -0.2822 -0.5751
 2206SOL     ow 8821   3.725   3.487   2.740  0.2587  0.9573 -0.5415
 2206SOL     hw 8822   3.717   3.392   2.741  0.6746  0.8834  1.3639
 2206SOL     hw 8823   3.749   3.509   2.651  0.5787 -0.7697 -0.9094
 2206SOL     vw 8824   3.727   3.478   2.729  0.3557  0.7197 -0.3386
 2207SOL     ow 8825   6.185   5.214   1.545 -0.5495 -0.4591  0.0502
 2207SOL     hw 8826   6.261   5.155   1.537 -0.0586  0.2208 -0.3888
 2207SOL     hw 8827   6.121   5.177   1.485  1.0294  1.3668 -2.9895
 2207SOL     vw 8828   6.187   5.201   1.536 -0.2766 -0.1287 -0.4088
 2208SOL     ow 8829   5.071   1.072   3.047  0.8040 -0.2330 -0.2973
 2208SOL     hw 8830   5.030   1.040   2.966  0.3273  1.9083 -0.9660
 2208SOL     hw 8831   5.159   1.098   3.021  0.7442  0.1967 -0.0810
 2208SOL     vw 8832   5.077   1.071   3.032  0.7331  0.1062 -0.3569
 2209SOL     ow 8833   4.263   6.522   7.009 -0.2189  0.4300  0.7412
 2209SOL     hw 8834   4.264   6.566   7.094  1.2045 -1.3130  1.6806
 2209SOL     hw 8835   4.351   6.534   6.974 -0.6159  0.6253 -0.2442
 2209SOL     vw 8836   4.275   6.529   7.015 -0.0834  0.2258  0.7350
 2210SOL     ow 8837   6.281   1.982   5.869 -0.0328  0.5530 -0.4928
 2210SOL     hw 8838   6.280   1.921   5.795  0.4382  0.5493 -0.4966
 2210SOL     hw 8839   6.363   1.964   5.915 -1.0768 -0.6035  1.0023
 2210SOL     vw 8840   6.292   1.972   5.865 -0.1085  0.3999 -0.2961
 2211SOL     ow 8841   6.400   6.586   7.125 -0.1487 -0.6583 -0.2014
 2211SOL     hw 8842   6.308   6.559   7.129 -0.5840  0.5289 -1.4500
 2211SOL     hw 8843   6.401   6.674   7.163  0.5330 -0.8031  0.1284
 2211SOL     vw 8844   6.388   6.594   7.130 -0.1161 -0.5207 -0.3228
 2212SOL     ow 8845   0.493   7.420   4.258 -0.0653  0.1267 -0.8295
 2212SOL     hw 8846   0.516   7.448   4.346  0.7141 -1.5440 -0.4717
 2212SOL     hw 8847   0.435   7.489   4.225  2.9324  2.9888 -0.6275
 2212SOL     vw 8848   0.489   7.433   4.265  0.4330  0.2842 -0.7555
 2213SOL     ow 8849   2.902   3.593   2.570 -0.0971 -0.5317  0.3408
 2213SOL     hw 8850   2.871   3.529   2.507 -1.0054 -0.9092  1.1509
 2213SOL     hw 8851   2.823   3.624   2.614  0.5898 -1.0788  2.0528
 2213SOL     vw 8852   2.888   3.589   2.567 -0.1262 -0.6537  0.6737
 2214SOL     ow 8853   4.234   2.171   7.133 -0.3909  0.4315  0.4594
 2214SOL     hw 8854   4.189   2.249   7.102 -0.1198  0.1578 -0.6747
 2214SOL     hw 8855   4.327   2.193   7.126 -0.2565 -0.6120 -1.6367
 2214SOL     vw 8856   4.241   2.184   7.128 -0.3376  0.2576  0.0334
 2215SOL     ow 8857   5.743   5.227   1.085  0.6336  0.1948  0.9685
 2215SOL     hw 8858   5.748   5.170   1.008 -0.5526  0.1285  0.9126
 2215SOL     hw 8859   5.821   5.282   1.080  0.8682 -0.2018  0.0376
 2215SOL     vw 8860   5.754   5.227   1.074  0.5083  0.1338  0.8383
 2216SOL     ow 8861   5.250   7.283   0.832  0.0123 -0.0626  0.8331
 2216SOL     hw 8862   5.338   7.321   0.827  0.0340 -0.2385 -0.4823
 2216SOL     hw 8863   5.264   7.196   0.871  0.6455 -0.6707 -0.6713
 2216SOL     vw 8864   5.263   7.277   0.836  0.0987 -0.1659  0.4611
 2217SOL     ow 8865   1.426   7.580   7.171  0.3482 -0.1196  0.0149
 2217SOL     hw 8866   1.422   7.488   7.195 -2.5321  0.0857  0.6381
 2217SOL     hw 8867   1.390   7.584   7.082 -0.1717  0.4651  0.2429
 2217SOL     vw 8868   1.421   7.569   7.162 -0.1004 -0.0155  0.1271
 2218SOL     ow 8869   1.345   1.084   5.934 -0.0723  0.1152  0.2020
 2218SOL     hw 8870   1.293   1.023   5.987 -0.2732 -0.7494 -0.9452
 2218SOL     hw 8871   1.288   1.104   5.859  0.5137  0.6758 -0.1006
 2218SOL     vw 8872   1.330   1.079   5.931 -0.0216  0.0750  0.0110
 2219SOL     ow 8873   5.996   6.747   3.462  0.0247  0.1984 -0.1236
 2219SOL     hw 8874   6.038   6.732   3.547  0.9771 -0.8108 -0.7524
 2219SOL     hw 8875   5.913   6.789   3.484  1.3276  2.2943  1.1726
 2219SOL     vw 8876   5.991   6.751   3.476  0.3223  0.3419 -0.0355
 2220SOL     ow 8877   0.548   2.054   5.807  0.3779  0.3118 -0.0677
 2220SOL     hw 8878   0.628   2.024   5.850  0.2947  0.9830  0.5664
 2220SOL     hw 8879   0.529   1.986   5.742 -0.1944 -1.4173  1.7958
 2220SOL     vw 8880   0.556   2.041   5.804  0.2914  0.1723  0.2623
 2221SOL     ow 8881   1.271   2.794   4.372  0.5593 -0.4901 -0.0950
 2221SOL     hw 8882   1.319   2.864   4.329  0.2963 -0.7922 -0.9020
 2221SOL     hw 8883   1.285   2.808   4.466 -0.7173  1.5365 -0.1549
 2221SOL     vw 8884   1.279   2.805   4.379  0.3563 -0.2626 -0.2096
 2222SOL     ow 8885   6.194   1.562   6.197 -0.6923 -0.2653  0.2880
 2222SOL     hw 8886   6.166   1.549   6.288 -0.4767 -1.3932  0.2110
 2222SOL     hw 8887   6.286   1.535   6.196 -0.7278 -0.3772 -0.2811
 2222SOL     vw 8888   6.202   1.556   6.209 -0.6683 -0.4289  0.2029
 2223SOL     ow 8889   1.141   2.004   5.347  0.2237  0.1183  0.1633
 2223SOL     hw 8890   1.181   2.025   5.432 -1.0020  0.3975  0.6868
 2223SOL     hw 8891   1.064   2.061   5.342 -0.2070 -0.5294 -0.7490
 2223SOL     vw 8892   1.136   2.014   5.357  0.0052  0.0697  0.1118
 2224SOL     ow 8893   0.376   5.667   2.498  0.3052 -0.6568 -0.2133
 2224SOL     hw 8894   0.463   5.627   2.488  1.0938  1.1236 -0.9443
 2224SOL     hw 8895   0.394   5.761   2.497 -1.4484 -0.2555  1.4841
 2224SOL     vw 8896   0.390   5.674   2.497  0.1779 -0.3688 -0.0857
 2225SOL     ow 8897   1.304   2.440   6.736  0.3790 -0.4044  0.3751
 2225SOL     hw 8898   1.384   2.401   6.700  0.8356  1.3215 -0.5867
 2225SOL     hw 8899   1.300   2.408   6.826  2.1976 -0.4897  0.4576
 2225SOL     vw 8900   1.314   2.430   6.743  0.6792 -0.1880  0.2592
 2226SOL     ow 8901   0.765   4.435   1.082 -0.3479 -0.0991 -0.2071
 2226SOL     hw 8902   0.765   4.515   1.030  2.1173  0.9660  1.2604
 2226SOL     hw 8903   0.845   4.389   1.055  1.3106  0.7428  2.8572
 2226SOL     vw 8904   0.775   4.439   1.071  0.1961  0.1523  0.3908
 2227SOL     ow 8905   0.086   7.291   2.945 -0.4285 -0.9435  0.1245
 2227SOL     hw 8906   0.018   7.312   3.010 -1.6806 -2.4561 -0.6285
 2227SOL     hw 8907   0.164   7.274   2.998 -1.7084 -3.3436  1.4475
 2227SOL     vw 8908   0.087   7.292   2.961 -0.7625 -1.4598  0.1998
 2228SOL     ow 8909   6.756   6.833   4.949  0.1171  0.4565 -0.8537
 2228SOL     hw 8910   6.846   6.803   4.934  0.1235  0.4607 -0.8232
 2228SOL     hw 8911   6.725   6.862   4.863 -0.3014 -0.7662 -1.1455
 2228SOL     vw 8912   6.764   6.833   4.936  0.0627  0.2956 -0.8883
 2229SOL     ow 8913   4.598   2.685   5.453 -0.2924 -0.3346  0.2459
 2229SOL     hw 8914   4.674   2.651   5.499  0.7697  1.0080 -0.4667
 2229SOL     hw 8915   4.589   2.775   5.483 -0.8734 -0.1094 -0.5684
 2229SOL     vw 8916   4.607   2.692   5.463 -0.2291 -0.1278  0.0441
 2230SOL     ow 8917   7.425   0.981   1.281 -0.5700  0.5672  0.5130
 2230SOL     hw 8918   7.379   0.900   1.305 -1.5573  0.4777 -1.4457
 2230SOL     hw 8919   7.359   1.050   1.292 -0.4685  0.7678 -0.1167
 2230SOL     vw 8920   7.410   0.979   1.286 -0.6869  0.5818  0.1715
 2231SOL     ow 8921   1.704   6.338   5.676 -0.0711  1.1759 -0.0816
 2231SOL     hw 8922   1.692   6.387   5.758 -0.5178  0.9172  0.0147
 2231SOL     hw 8923   1.633   6.369   5.619 -1.0905 -0.1889  0.3920
 2231SOL     vw 8924   1.693   6.348   5.679 -0.2646  0.9618 -0.0060
 2232SOL     ow 8925   5.842   6.886   3.983 -0.0378 -0.5099  0.0411
 2232SOL     hw 8926   5.935   6.884   4.006 -0.3955  3.0508  2.7091
 2232SOL     hw 8927   5.808   6.802   4.012  2.0863 -1.3413  0.2777
 2232SOL     vw 8928   5.850   6.875   3.990  0.1953 -0.1497  0.4243
 2233SOL     ow 8929   4.419   6.946   5.801 -0.6591 -0.2615  0.1771
 2233SOL     hw 8930   4.328   6.926   5.780 -0.4995 -0.7748 -0.0439
 2233SOL     hw 8931   4.433   6.907   5.887 -0.8914  0.5713  0.6067
 2233SOL     vw 8932   4.409   6.938   5.810 -0.6688 -0.2193  0.2046
 2234SOL     ow 8933   0.360   7.099   5.538  0.6211  0.0656  0.3405
 2234SOL     hw 8934   0.319   7.185   5.536 -1.5757 -0.5332 -6.3945
 2234SOL     hw 8935   0.451   7.115   5.516 -0.4889  1.0095 -4.9155
 2234SOL     vw 8936   0.366   7.112   5.534  0.1848  0.1113 -1.2417
 2235SOL     ow 8937   5.568   3.002   5.670 -0.5145 -0.1145 -0.5433
 2235SOL     hw 8938   5.495   3.034   5.722 -0.4924 -1.4566  0.3709
 2235SOL     hw 8939   5.534   2.923   5.628 -0.3140  0.5637 -2.0455
 2235SOL     vw 8940   5.554   2.995   5.671 -0.4849 -0.2021 -0.6208
 2236SOL     ow 8941   0.784   2.217   7.149 -0.5453 -0.0179 -1.2816
 2236SOL     hw 8942   0.873   2.203   7.117  1.2462  0.2177  2.9232
 2236SOL     hw 8943   0.740   2.134   7.136  1.9891 -1.8952  0.8975
 2236SOL     vw 8944   0.790   2.204   7.143  0.0255 -0.2346 -0.4392
 2237SOL     ow 8945   1.214   4.753   6.290  0.2802 -0.6414 -0.3742
 2237SOL     hw 8946   1.176   4.744   6.378  3.1346  0.1253  1.0509
 2237SOL     hw 8947   1.271   4.678   6.281 -0.1407 -0.8196 -1.7065
 2237SOL     vw 8948   1.216   4.742   6.300  0.6012 -0.5636 -0.3617
 2238SOL     ow 8949   7.201   3.333   6.216  0.0582  0.2630  0.0935
 2238SOL     hw 8950   7.267   3.372   6.158 -0.8278  0.5025 -0.7729
 2238SOL     hw 8951   7.217   3.374   6.301  1.8829 -0.6688  0.2460
 2238SOL     vw 8952   7.212   3.344   6.219  0.1819  0.1715 -0.0010
 2239SOL     ow 8953   4.966   1.237   3.222  0.1568 -0.5747  0.1424
 2239SOL     hw 8954   5.034   1.291   3.263  0.1042  0.3407 -0.9071
 2239SOL     hw 8955   5.015   1.175   3.168  0.2036 -1.3144  1.0136
 2239SOL     vw 8956   4.981   1.236   3.220  0.1559 -0.5515  0.1190
 2240SOL     ow 8957   1.273   5.249   7.463 -0.1375 -0.0155 -0.7316
 2240SOL     hw 8958   1.356   5.263   7.418 -0.0058  0.2754 -0.4043
 2240SOL     hw 8959   1.257   5.332   7.509  1.6901 -1.4821  2.9682
 2240SOL     vw 8960   1.282   5.262   7.463  0.1210 -0.1707 -0.1998
 2241SOL     ow 8961   1.655   6.863   6.391 -0.6192  0.4487 -1.7033
 2241SOL     hw 8962   1.637   6.954   6.415 -1.0094 -0.1700  0.7064
 2241SOL     hw 8963   1.745   6.848   6.420 -0.5952  0.0528 -1.9796
 2241SOL     vw 8964   1.664   6.873   6.398 -0.6676  0.3150 -1.4217
 2242SOL     ow 8965   1.090   6.608   0.749  0.6248  0.6791  0.4188
 2242SOL     hw 8966   1.081   6.544   0.679  2.2371  1.7587 -0.8401
 2242SOL     hw 8967   0.999   6.631   0.772  0.0219 -1.6010  0.5472
 2242SOL     vw 8968   1.077   6.603   0.743  0.7580  0.5207  0.2697
 2243SOL     ow 8969   3.146   3.202   2.315 -0.2987 -0.4251 -0.1872
 2243SOL     hw 8970   3.238   3.205   2.343  0.3177 -0.8616 -2.0122
 2243SOL     hw 8971   3.131   3.288   2.275 -0.0848 -1.0274 -1.5939
 2243SOL     vw 8972   3.156   3.214   2.313 -0.1889 -0.5622 -0.6136
 2244SOL     ow 8973   2.658   3.028   3.208  0.0039 -0.0801  0.0051
 2244SOL     hw 8974   2.615   2.945   3.189  2.0639 -1.2186  0.1094
 2244SOL     hw 8975   2.712   3.046   3.132 -1.0416  1.6637 -0.4052
 2244SOL     vw 8976   2.659   3.020   3.196  0.1378 -0.0004 -0.0352
 2245SOL     ow 8977   3.411   4.527   5.293  0.0127  0.0429 -0.2803
 2245SOL     hw 8978   3.393   4.535   5.387 -0.9966  2.2484 -0.5944
 2245SOL     hw 8979   3.507   4.523   5.287  0.2676  2.6269  0.7661
 2245SOL     vw 8980   3.422   4.528   5.304 -0.0868  0.6747 -0.1836
 2246SOL     ow 8981   0.378   2.696   3.321 -0.0618  0.3371  0.0341
 2246SOL     hw 8982   0.391   2.758   3.250 -2.6069  1.5654  0.5025
 2246SOL     hw 8983   0.365   2.611   3.277 -2.1079  1.1541 -1.1051
 2246SOL     vw 8984   0.378   2.693   3.306 -0.6676  0.6071 -0.0545
 2247SOL     ow 8985   7.282   6.582   3.876  0.5783 -0.6796 -0.1027
 2247SOL     hw 8986   7.322   6.549   3.956  1.8965 -1.2366 -0.9629
 2247SOL     hw 8987   7.342   6.556   3.806  0.2671  1.1538 -1.1173
 2247SOL     vw 8988   7.295   6.574   3.878  0.7112 -0.5112 -0.3500
 2248SOL     ow 8989   1.485   5.793   3.178  0.1561 -0.9703  0.7344
 2248SOL     hw 8990   1.538   5.727   3.133  0.2807  0.0162 -0.6264
 2248SOL     hw 8991   1.396   5.779   3.146  0.3509  0.1516 -0.3877
 2248SOL     vw 8992   1.480   5.782   3.168  0.1982 -0.6921  0.4067
 2249SOL     ow 8993   1.815   1.690   5.347  0.3457  0.3924  0.1981
 2249SOL     hw 8994   1.870   1.768   5.345 -1.6830  1.8911 -0.1695
 2249SOL     hw 8995   1.758   1.703   5.423 -0.4126 -0.4498 -0.2103
 2249SOL     vw 8996   1.815   1.702   5.357 -0.0219  0.4789  0.0958
 2250SOL     ow 8997   1.789   1.818   7.020 -0.5442  0.1940 -0.1685
 2250SOL     hw 8998   1.748   1.891   7.066  1.8562  2.8147 -1.8653
 2250SOL     hw 8999   1.777   1.839   6.927  0.4027 -1.4364 -0.6953
 2250SOL     vw 9000   1.782   1.831   7.014 -0.1025  0.3246 -0.4618
 2251SOL     ow 9001   5.317   4.989   5.253 -0.2567  0.1664  0.0526
 2251SOL     hw 9002   5.354   5.044   5.321 -0.9200  0.0126  0.5505
 2251SOL     hw 9003   5.274   5.050   5.193 -1.8668  0.1640  1.1400
 2251SOL     vw 9004   5.316   5.004   5.254 -0.5565  0.1454  0.2618
 2252SOL     ow 9005   7.370   1.992   2.662 -0.3446 -0.5579  0.1983
 2252SOL     hw 9006   7.312   1.949   2.599 -0.7598  0.1323  0.0856
 2252SOL     hw 9007   7.456   1.955   2.645  0.1717  1.6342 -2.8120
 2252SOL     vw 9008   7.374   1.982   2.651 -0.3316 -0.1777 -0.2139
 2253SOL     ow 9009   0.604   3.174   0.179 -0.4650 -0.2003 -0.5472
 2253SOL     hw 9010   0.566   3.118   0.111 -0.0908 -0.8482 -0.2307
 2253SOL     hw 9011   0.529   3.197   0.235 -1.0871  1.6338 -2.0221
 2253SOL     vw 9012   0.589   3.169   0.178 -0.4977 -0.0437 -0.7000
 2254SOL     ow 9013   2.197   2.235   0.566  0.3530 -0.0860 -0.3252
 2254SOL     hw 9014   2.147   2.310   0.598 -1.6467 -1.9425  1.2195
 2254SOL     hw 9015   2.286   2.269   0.554 -0.4671  2.5128  0.2126
 2254SOL     vw 9016   2.202   2.249   0.569 -0.0188  0.0119 -0.0505
 2255SOL     ow 9017   3.513   1.228   7.383  0.0525 -0.3523 -0.3652
 2255SOL     hw 9018   3.530   1.139   7.415 -1.4409  0.4292  3.1198
 2255SOL     hw 9019   3.422   1.245   7.408 -0.1487  1.7450 -2.1646
 2255SOL     vw 9020   3.503   1.218   7.390 -0.1711  0.0275 -0.1428
 2256SOL     ow 9021   5.939   6.218   0.694  0.5388  0.3738 -1.0565
 2256SOL     hw 9022   5.954   6.196   0.602 -1.2043  1.0626 -1.5479
 2256SOL     hw 9023   5.997   6.292   0.711 -0.6567  1.6377 -2.2687
 2256SOL     vw 9024   5.948   6.225   0.684  0.1512  0.6316 -1.2813
 2257SOL     ow 9025   0.912   1.690   5.850  0.0576 -0.3372  0.5496
 2257SOL     hw 9026   0.820   1.705   5.869 -0.0155 -0.7704  0.5458
 2257SOL     hw 9027   0.937   1.763   5.794 -0.0448  0.2764  1.2929
 2257SOL     vw 9028   0.903   1.701   5.845  0.0345 -0.3133  0.6471
 2258SOL     ow 9029   7.194   7.640   3.912 -0.0175 -0.3972  0.6148
 2258SOL     hw 9030   7.204   7.621   3.819  0.8314 -1.3065  0.8793
 2258SOL     hw 9031   7.279   7.674   3.939 -0.4149  0.3469  0.9583
 2258SOL     vw 9032   7.206   7.642   3.904  0.0417 -0.4190  0.6951
 2259SOL     ow 9033   0.773   4.500   7.569  0.1905 -0.0070 -0.1161
 2259SOL     hw 9034   0.826   4.429   7.605  2.5161  1.6127 -0.1039
 2259SOL     hw 9035   0.695   4.457   7.535  0.9220 -2.3872  0.9803
 2259SOL     vw 9036   0.770   4.485   7.570  0.5939 -0.1075  0.0300
 2260SOL     ow 9037   6.890   4.990   7.571  0.3310 -0.1543  0.6128
 2260SOL     hw 9038   6.830   5.042   7.625  1.9356  0.7316  1.6211
 2260SOL     hw 9039   6.869   5.016   7.481 -2.2604 -1.5256  0.7160
 2260SOL     vw 9040   6.879   5.001   7.566  0.2007 -0.2184  0.7594
 2261SOL     ow 9041   3.994   6.045   6.903 -0.1556 -0.3280  0.0669
 2261SOL     hw 9042   3.948   6.015   6.825 -1.0289  0.5286  0.2279
 2261SOL     hw 9043   4.049   5.971   6.929 -1.5903 -1.4608 -0.0126
 2261SOL     vw 9044   3.995   6.032   6.896 -0.4601 -0.3645  0.0775
 2262SOL     ow 9045   3.992   6.542   0.890  0.1950 -0.5279  0.3370
 2262SOL     hw 9046   3.957   6.453   0.895  1.2949 -0.9544  1.1014
 2262SOL     hw 9047   3.999   6.570   0.982 -1.1074  0.7606  0.0688
 2262SOL     vw 9048   3.989   6.534   0.903  0.1682 -0.4139  0.4025
 2263SOL     ow 9049   7.177   6.358   1.128  0.3519  0.0181  0.3364
 2263SOL     hw 9050   7.166   6.264   1.143 -0.1753 -0.1348 -0.8841
 2263SOL     hw 9051   7.268   6.368   1.100  0.9663  0.1421  2.2404
 2263SOL     vw 9052   7.187   6.347   1.126  0.3633  0.0143  0.4266
 2264SOL     ow 9053   5.568   2.189   6.433 -0.1778  0.3558 -0.1320
 2264SOL     hw 9054   5.522   2.133   6.370 -2.4622  0.8698  1.0092
 2264SOL     hw 9055   5.618   2.250   6.378  0.0646 -0.9128 -1.3939
 2264SOL     vw 9056   5.569   2.189   6.417 -0.4475  0.2562 -0.1478
 2265SOL     ow 9057   0.301   5.271   1.244  0.2768  0.3178 -0.1759
 2265SOL     hw 9058   0.380   5.229   1.212  1.4150  1.2764  1.2209
 2265SOL     hw 9059   0.231   5.208   1.227  1.5300 -1.0690 -0.3647
 2265SOL     vw 9060   0.302   5.257   1.238  0.5924  0.2611 -0.0166
 2266SOL     ow 9061   3.668   2.900   4.361 -0.5366  0.6622 -0.4205
 2266SOL     hw 9062   3.596   2.951   4.323 -2.0092  1.6394  3.2278
 2266SOL     hw 9063   3.627   2.818   4.389  0.1963  0.4488  0.0469
 2266SOL     vw 9064   3.653   2.896   4.359 -0.6343  0.7629  0.1225
 2267SOL     ow 9065   0.058   1.308   0.754  1.3839  0.3306  0.7004
 2267SOL     hw 9066   0.053   1.274   0.843 -1.3212  0.3248  0.6322
 2267SOL     hw 9067   0.043   1.232   0.698  0.2003  0.7814  0.3729
 2267SOL     vw 9068   0.056   1.294   0.758  0.8707  0.3893  0.6482
 2268SOL     ow 9069   5.171   4.106   5.965  0.0727 -0.0263 -0.1343
 2268SOL     hw 9070   5.133   4.186   5.929 -1.6225 -0.2917  0.9676
 2268SOL     hw 9071   5.101   4.066   6.016  1.3438 -1.4353  0.6086
 2268SOL     vw 9072   5.157   4.111   5.967  0.0169 -0.2472  0.1090
 2269SOL     ow 9073   6.954   2.793   7.641  0.1429 -0.8055 -0.1158
 2269SOL     hw 9074   6.916   2.836   7.718  2.7017  1.6038 -0.0517
 2269SOL     hw 9075   6.911   2.835   7.567 -0.2281 -1.0440 -0.0407
 2269SOL     vw 9076   6.943   2.804   7.641  0.4318 -0.5193 -0.0973
 2270SOL     ow 9077   1.668   2.795   3.273 -0.1343 -0.9386 -0.2113
 2270SOL     hw 9078   1.701   2.720   3.223  0.5465 -1.1351  0.5097
 2270SOL     hw 9079   1.578   2.806   3.243 -0.1802 -1.9249 -0.4657
 2270SOL     vw 9080   1.660   2.787   3.262 -0.0505 -1.0947 -0.1496
 2271SOL     ow 9081   4.198   6.142   2.546  0.0651  0.1023  0.0732
 2271SOL     hw 9082   4.238   6.229   2.542 -1.2275  0.7127  0.0938
 2271SOL     hw 9083   4.272   6.081   2.543  1.0690  1.2157  1.3486
 2271SOL     vw 9084   4.213   6.145   2.545  0.0272  0.3297  0.2440
 2272SOL     ow 9085   0.306   0.364   5.304 -0.4008 -0.0221 -0.1074
 2272SOL     hw 9086   0.217   0.330   5.313 -0.2748 -0.2931  0.1291
 2272SOL     hw 9087   0.361   0.298   5.347 -0.1101  0.2556 -0.0533
 2272SOL     vw 9088   0.302   0.351   5.311 -0.3458 -0.0212 -0.0691
 2273SOL     ow 9089   4.811   6.025   2.815 -0.2985 -0.0830 -0.0620
 2273SOL     hw 9090   4.736   6.071   2.853 -1.6975 -1.8139 -0.5862
 2273SOL     hw 9091   4.796   6.027   2.720  0.3575 -0.3847 -0.1844
 2273SOL     vw 9092   4.799   6.031   2.807 -0.3965 -0.3512 -0.1473
 2274SOL     ow 9093   3.988   2.088   1.859 -0.2740 -1.0636  0.2571
 2274SOL     hw 9094   3.892   2.090   1.866 -0.2997  1.1611  0.0419
 2274SOL     hw 9095   4.013   2.180   1.861  1.6168 -1.3706 -3.1463
 2274SOL     vw 9096   3.978   2.100   1.861 -0.0280 -0.8105 -0.2204
 2275SOL     ow 9097   3.030   3.463   2.269 -0.1460  0.8142  0.2677
 2275SOL     hw 9098   2.995   3.552   2.269  0.7458  1.2176 -1.5810
 2275SOL     hw 9099   3.120   3.472   2.298  0.1355  0.6292 -0.5121
 2275SOL     vw 9100   3.037   3.476   2.273  0.0087  0.8429 -0.0790
 2276SOL     ow 9101   7.631   4.929   0.968 -0.2059  1.0107 -0.5759
 2276SOL     hw 9102   7.547   4.934   0.923 -1.8613  1.2711  2.3379
 2276SOL     hw 9103   7.640   4.837   0.992 -0.3646  1.2170  0.3141
 2276SOL     vw 9104   7.621   4.918   0.965 -0.4452  1.0722 -0.0740
 2277SOL     ow 9105   0.902   4.835   2.119 -0.2624 -0.6929  0.6536
 2277SOL     hw 9106   0.978   4.858   2.172  0.8970 -3.6444  0.4831
 2277SOL     hw 9107   0.903   4.897   2.046  2.0632 -0.7080  0.6175
 2277SOL     vw 9108   0.912   4.846   2.116  0.1975 -1.0843  0.6263
 2278SOL     ow 9109   0.970   5.341   2.152 -0.1365 -0.0552  0.2380
 2278SOL     hw 9110   0.887   5.293   2.151  0.0331 -0.3484 -0.6912
 2278SOL     hw 9111   0.976   5.377   2.240 -0.8517 -0.7272  0.5667
 2278SOL     vw 9112   0.959   5.340   2.163 -0.2085 -0.1824  0.1589
 2279SOL     ow 9113   5.229   1.724   0.427  0.4986  0.1157 -0.2571
 2279SOL     hw 9114   5.317   1.738   0.392 -0.7425  2.3247 -2.8537
 2279SOL     hw 9115   5.244   1.696   0.518  3.8808 -2.7068 -1.4297
 2279SOL     vw 9116   5.243   1.722   0.435  0.7811  0.0347 -0.7544
 2280SOL     ow 9117   5.316   1.098   4.375  0.1631  0.3081 -0.2772
 2280SOL     hw 9118   5.310   1.090   4.470  1.5170  1.5846 -0.0404
 2280SOL     hw 9119   5.329   1.192   4.360  0.3729  0.0736 -1.7034
 2280SOL     vw 9120   5.317   1.110   4.385  0.3695  0.4455 -0.4342
 2281SOL     ow 9121   3.998   7.374   6.504  0.0788 -0.1143  0.7748
 2281SOL     hw 9122   3.937   7.439   6.470 -0.0929  0.4748  2.1451
 2281SOL     hw 9123   3.998   7.304   6.439  2.4290  2.4131 -2.3052
 2281SOL     vw 9124   3.990   7.373   6.491  0.3662  0.2968  0.5493
 2282SOL     ow 9125   7.178   2.460   2.563  0.2280 -0.4891  0.1500
 2282SOL     hw 9126   7.107   2.427   2.618 -0.0395 -0.9749 -0.4683
 2282SOL     hw 9127   7.251   2.400   2.578  0.4722 -0.0651  0.6882
 2282SOL     vw 9128   7.178   2.448   2.572  0.2248 -0.4972  0.1394
 2283SOL     ow 9129   2.942   6.365   7.608 -0.1657  0.1587  0.1017
 2283SOL     hw 9130   2.999   6.424   7.658 -0.8279  0.5204  0.4511
 2283SOL     hw 9131   2.980   6.362   7.520  0.6928 -0.0345  0.4694
 2283SOL     vw 9132   2.955   6.372   7.603 -0.1398  0.1810  0.1963
 2284SOL     ow 9133   2.994   2.440   5.028 -0.0941 -0.4008  0.6175
 2284SOL     hw 9134   2.922   2.426   4.966 -0.9854 -1.5393  1.8579
 2284SOL     hw 9135   2.954   2.429   5.114  1.4963 -0.6787  1.3487
 2284SOL     vw 9136   2.979   2.437   5.031 -0.0019 -0.5877  0.8776
 2285SOL     ow 9137   2.589   7.595   5.655  0.0844  0.2281  0.1120
 2285SOL     hw 9138   2.544   7.671   5.619  2.1232  1.3761 -0.1628
 2285SOL     hw 9139   2.547   7.580   5.739 -0.7815  1.2560 -0.1177
 2285SOL     vw 9140   2.578   7.603   5.661  0.2390  0.5150  0.0453
 2286SOL     ow 9141   4.834   1.812   1.325 -0.1613 -0.0062 -0.0267
 2286SOL     hw 9142   4.761   1.750   1.334 -0.5286  0.3500 -0.5141
 2286SOL     hw 9143   4.897   1.783   1.390  0.4130 -1.9498 -1.3535
 2286SOL     vw 9144   4.832   1.800   1.335 -0.1340 -0.2157 -0.2661
 2287SOL     ow 9145   4.197   5.298   0.337 -0.4887  0.8082  0.2873
 2287SOL     hw 9146   4.185   5.352   0.259  2.1607 -1.4563 -1.8851
 2287SOL     hw 9147   4.281   5.326   0.373 -0.1561 -0.3304  0.4231
 2287SOL     vw 9148   4.206   5.309   0.331 -0.0954  0.3593  0.0186
 2288SOL     ow 9149   1.001   5.868   4.587  0.3467 -0.1020  0.1288
 2288SOL     hw 9150   0.993   5.859   4.682  1.3165  4.7211  0.9432
 2288SOL     hw 9151   0.914   5.895   4.558  0.1000 -1.3867 -0.3742
 2288SOL     vw 9152   0.988   5.871   4.596  0.4421  0.3648  0.1702
 2289SOL     ow 9153   6.441   6.881   0.574 -0.0848  0.1935 -0.1214
 2289SOL     hw 9154   6.381   6.941   0.529 -2.8010 -1.7582  0.6920
 2289SOL     hw 9155   6.516   6.875   0.515 -0.9602  2.1908 -1.5659
 2289SOL     vw 9156   6.443   6.888   0.560 -0.5586  0.1993 -0.2047
 2290SOL     ow 9157   5.741   4.745   5.391  0.4300 -0.4753 -0.4321
 2290SOL     hw 9158   5.800   4.689   5.341  0.8548 -0.0203 -0.4488
 2290SOL     hw 9159   5.761   4.833   5.362  1.3979 -0.1031  1.2444
 2290SOL     vw 9160   5.751   4.749   5.381  0.6139 -0.3662 -0.2131
 2291SOL     ow 9161   0.737   2.542   3.692  0.1124 -0.4810  0.0386
 2291SOL     hw 9162   0.813   2.541   3.634  0.2575 -1.8590  0.2219
 2291SOL     hw 9163   0.689   2.462   3.670 -1.9191  0.9144 -0.8688
 2291SOL     vw 9164   0.740   2.531   3.682 -0.1365 -0.4787 -0.0570
 2292SOL     ow 9165   1.011   6.737   6.175  0.6303  0.3321 -0.6097
 2292SOL     hw 9166   0.926   6.711   6.138  0.5740  0.5822 -0.6611
 2292SOL     hw 9167   1.011   6.701   6.264  0.7992 -0.3443 -0.8793
 2292SOL     vw 9168   0.999   6.729   6.182  0.6451  0.2759 -0.6521
 2293SOL     ow 9169   3.828   4.387   6.593  0.2713 -0.1063 -0.3319
 2293SOL     hw 9170   3.903   4.340   6.629 -0.6607 -1.1224  0.3579
 2293SOL     hw 9171   3.839   4.477   6.624  0.6637 -0.4732  0.6483
 2293SOL     vw 9172   3.839   4.393   6.602  0.2002 -0.2885 -0.1113
 2294SOL     ow 9173   3.433   2.091   0.128  0.1924 -0.2414 -0.1226
 2294SOL     hw 9174   3.451   2.108   0.220 -1.7860  0.3531  0.2051
 2294SOL     hw 9175   3.507   2.129   0.081  1.0673 -0.2724  1.1848
 2294SOL     vw 9176   3.445   2.098   0.134  0.0466 -0.1671  0.0931
 2295SOL     ow 9177   0.154   1.609   2.955 -0.4038 -0.0404 -0.0116
 2295SOL     hw 9178   0.083   1.668   2.976 -1.4330 -1.5079  0.8043
 2295SOL     hw 9179   0.115   1.544   2.897  0.9039  0.4884 -1.5672
 2295SOL     vw 9180   0.140   1.608   2.950 -0.3671 -0.1642 -0.1092
 2296SOL     ow 9181   3.057   1.478   5.815  0.6059  0.2232 -0.1441
 2296SOL     hw 9182   3.124   1.516   5.759  0.1597 -0.8912 -1.4790
 2296SOL     hw 9183   3.105   1.421   5.875  1.1772  2.0621  1.2484
 2296SOL     vw 9184   3.072   1.476   5.816  0.6223  0.3188 -0.1369
 2297SOL     ow 9185   5.810   0.420   2.325  0.7377 -0.0867 -0.0397
 2297SOL     hw 9186   5.823   0.413   2.231 -2.3158  0.5587 -0.6456
 2297SOL     hw 9187   5.802   0.515   2.341 -3.8542 -0.1951 -0.2183
 2297SOL     vw 9188   5.810   0.432   2.315 -0.2708 -0.0158 -0.1432
 2298SOL     ow 9189   5.334   6.253   5.787 -0.2318 -0.5495  0.0751
 2298SOL     hw 9190   5.279   6.254   5.866 -1.4518  0.8529 -0.7333
 2298SOL     hw 9191   5.423   6.265   5.819 -0.6205 -0.8378  1.3046
 2298SOL     vw 9192   5.338   6.255   5.802 -0.4439 -0.4025  0.1304
 2299SOL     ow 9193   5.501   2.956   0.759  0.0330  0.3561 -0.9321
 2299SOL     hw 9194   5.576   2.993   0.711  0.2859  0.7305 -0.2510
 2299SOL     hw 9195   5.466   3.029   0.810  0.6436 -0.3585  0.5586
 2299SOL     vw 9196   5.506   2.970   0.759  0.1469  0.3114 -0.6455
 2300SOL     ow 9197   5.923   1.993   6.182 -0.0761 -0.3220 -0.2642
 2300SOL     hw 9198   5.836   1.979   6.146  0.4959 -0.8880 -1.4889
 2300SOL     hw 9199   5.974   1.917   6.152  1.4985  1.2446 -1.7545
 2300SOL     vw 9200   5.919   1.981   6.173  0.2072 -0.1900 -0.6225
 2301SOL     ow 9201   3.430   7.309   6.864 -0.6050  0.0147 -0.1834
 2301SOL     hw 9202   3.485   7.334   6.939 -2.0089  2.0914  0.2550
 2301SOL     hw 9203   3.466   7.226   6.834  2.9617  1.3832 -0.1311
 2301SOL     vw 9204   3.442   7.301   6.870 -0.3195  0.4692 -0.1187
 2302SOL     ow 9205   4.899   7.226   1.026 -0.5243 -0.8517  0.2426
 2302SOL     hw 9206   4.968   7.276   1.069 -2.1121  0.0591  1.8500
 2302SOL     hw 9207   4.849   7.187   1.098 -2.2549 -0.6968 -0.8135
 2302SOL     vw 9208   4.901   7.227   1.041 -0.9625 -0.7112  0.3154
 2303SOL     ow 9209   2.540   0.167   2.590 -0.0721 -0.2752  0.1817
 2303SOL     hw 9210   2.568   0.258   2.574  3.2245 -1.1254  0.2427
 2303SOL     hw 9211   2.523   0.164   2.684 -0.5755  0.3467  0.1203
 2303SOL     vw 9212   2.542   0.179   2.600  0.2965 -0.3053  0.1816
 2304SOL     ow 9213   6.545   1.521   5.515 -0.7803  0.2045 -0.4090
 2304SOL     hw 9214   6.509   1.454   5.572 -1.0013  1.2115  0.6670
 2304SOL     hw 9215   6.473   1.581   5.499 -0.0017  1.5058  0.6670
 2304SOL     vw 9216   6.531   1.520   5.520 -0.7064  0.5090 -0.1249
 2305SOL     ow 9217   6.844   6.953   2.527  0.1850 -0.0438 -0.5752
 2305SOL     hw 9218   6.795   6.875   2.555  0.1247  0.8479  2.0814
 2305SOL     hw 9219   6.911   6.918   2.469 -0.9120 -1.8429 -0.8790
 2305SOL     vw 9220   6.846   6.938   2.523  0.0322 -0.1633 -0.2648
 2306SOL     ow 9221   4.225   5.854   0.087  0.5774  0.7803  0.6207
 2306SOL     hw 9222   4.257   5.937   0.050 -0.0634  1.2143  1.0106
 2306SOL     hw 9223   4.219   5.871   0.181  1.9398 -0.2249  0.9206
 2306SOL     vw 9224   4.229   5.867   0.095  0.6728  0.7050  0.7117
 2307SOL     ow 9225   5.512   0.606   5.692  0.7415  0.5008  0.4945
 2307SOL     hw 9226   5.570   0.619   5.767 -1.8800 -1.6785  3.1187
 2307SOL     hw 9227   5.491   0.513   5.693 -0.8754  0.7416 -1.8460
 2307SOL     vw 9228   5.517   0.596   5.702  0.1822  0.2450  0.5317
 2308SOL     ow 9229   5.894   1.365   2.269  0.2833 -0.2897 -0.2063
 2308SOL     hw 9230   5.823   1.303   2.286  0.7905 -2.4769 -4.6626
 2308SOL     hw 9231   5.850   1.440   2.228  0.1695  0.3905  1.0989
 2308SOL     vw 9232   5.879   1.367   2.266  0.3350 -0.4886 -0.6222
 2309SOL     ow 9233   0.233   5.039   0.850 -0.1534 -0.4596 -0.8122
 2309SOL     hw 9234   0.273   5.007   0.770  1.2677 -0.7166 -0.0215
 2309SOL     hw 9235   0.151   4.990   0.857 -0.6116  0.0204 -2.4105
 2309SOL     vw 9236   0.227   5.028   0.840 -0.0263 -0.4301 -0.9187
 2310SOL     ow 9237   5.704   2.127   4.532 -0.7641  0.0589  0.0496
 2310SOL     hw 9238   5.633   2.166   4.482 -0.6540  0.6855  0.3695
 2310SOL     hw 9239   5.770   2.103   4.467 -1.1213 -0.2118 -0.2134
 2310SOL     vw 9240   5.704   2.129   4.517 -0.7968  0.1059  0.0575
 2311SOL     ow 9241   2.416   5.369   0.596  0.1815  0.1087  0.1246
 2311SOL     hw 9242   2.420   5.444   0.538  2.1370 -1.3854 -1.8291
 2311SOL     hw 9243   2.333   5.326   0.575  0.8593 -0.4167 -1.6723
 2311SOL     vw 9244   2.406   5.373   0.586  0.5289 -0.1578 -0.3702
 2312SOL     ow 9245   3.514   3.519   1.309  0.1403  0.2534 -0.3394
 2312SOL     hw 9246   3.519   3.443   1.250 -1.3336  0.1917 -0.4232
 2312SOL     hw 9247   3.421   3.525   1.332  0.7009  0.1530  2.1537
 2312SOL     vw 9248   3.502   3.510   1.304  0.0198  0.2320 -0.0216
 2313SOL     ow 9249   4.428   6.002   2.546  0.0956 -0.1286  0.2015
 2313SOL     hw 9250   4.398   5.945   2.616  2.4360 -1.1360  0.4808
 2313SOL     hw 9251   4.519   6.021   2.568 -0.0133  2.0940 -0.9568
 2313SOL     vw 9252   4.436   5.997   2.558  0.3903  0.0317  0.0856
 2314SOL     ow 9253   4.869   2.314   2.128  0.6881 -0.4925 -0.7093
 2314SOL     hw 9254   4.878   2.268   2.045 -1.8851 -0.1528 -1.2883
 2314SOL     hw 9255   4.851   2.245   2.192  0.4196 -0.5934 -0.8896
 2314SOL     vw 9256   4.868   2.299   2.125  0.3130 -0.4610 -0.8097
 2315SOL     ow 9257   6.754   2.998   0.368  0.3411 -0.3166  0.1058
 2315SOL     hw 9258   6.758   2.908   0.334 -2.0297  0.9722 -4.4332
 2315SOL     hw 9259   6.831   3.041   0.332 -1.3582  0.6778 -2.5647
 2315SOL     vw 9260   6.764   2.992   0.359 -0.1960 -0.0153 -0.8454
 2316SOL     ow 9261   5.446   2.712   2.459  0.4787  0.7151 -0.5472
 2316SOL     hw 9262   5.515   2.770   2.489  0.7212  0.6403 -0.9504
 2316SOL     hw 9263   5.455   2.712   2.364 -1.7505  2.7908 -0.8488
 2316SOL     vw 9264   5.456   2.719   2.450  0.2165  0.9791 -0.6403
 2317SOL     ow 9265   6.917   7.102   0.010 -0.0558 -0.6635 -0.1148
 2317SOL     hw 9266   6.967   7.070  -0.065 -0.2254  0.5953 -0.8023
 2317SOL     hw 9267   6.851   7.034   0.026 -0.9059 -0.3571 -2.0163
 2317SOL     vw 9268   6.915   7.089   0.002 -0.1905 -0.4568 -0.4566
 2318SOL     ow 9269   2.904   4.732   1.548  0.7503 -0.1055 -0.1009
 2318SOL     hw 9270   2.980   4.676   1.562  0.0686 -1.2500 -0.8900
 2318SOL     hw 9271   2.940   4.810   1.505  1.5746 -0.3341  0.1532
 2318SOL     vw 9272   2.919   4.735   1.544  0.7691 -0.2863 -0.1715
 2319SOL     ow 9273   4.361   3.892   4.957  0.1398  0.1009 -0.3491
 2319SOL     hw 9274   4.328   3.980   4.941  2.1628  1.1421  0.7282
 2319SOL     hw 9275   4.335   3.841   4.880 -2.1696  1.2761 -0.4172
 2319SOL     vw 9276   4.353   3.897   4.945  0.1020  0.3934 -0.2155
 2320SOL     ow 9277   3.192   2.646   2.220 -0.1252  0.3034 -0.8003
 2320SOL     hw 9278   3.178   2.738   2.242  0.0478 -0.1286  1.4008
 2320SOL     hw 9279   3.283   2.642   2.188  0.7952  0.5870  1.5712
 2320SOL     vw 9280   3.202   2.657   2.219  0.0191  0.2838 -0.1969
 2321SOL     ow 9281   4.238   4.391   7.268 -0.3010  0.4158  0.0415
 2321SOL     hw 9282   4.215   4.460   7.207  0.7193 -0.2490 -1.1537
 2321SOL     hw 9283   4.180   4.318   7.245 -1.2107  0.7755  1.1371
 2321SOL     vw 9284   4.227   4.390   7.257 -0.2866  0.3755  0.0284
 2322SOL     ow 9285   5.086   3.023   2.253 -0.2079  0.1814 -0.5618
 2322SOL     hw 9286   5.145   3.071   2.195 -1.0090 -0.2421 -1.7625
 2322SOL     hw 9287   5.014   2.996   2.196  0.1952 -2.4508  0.0284
 2322SOL     vw 9288   5.084   3.025   2.238 -0.2606 -0.2218 -0.6423
 2323SOL     ow 9289   4.325   5.738   2.652 -0.4477  0.3489  0.1983
 2323SOL     hw 9290   4.292   5.714   2.566 -0.5287  1.3205 -0.0548
 2323SOL     hw 9291   4.345   5.655   2.695  1.3188 -0.1356 -1.4313
 2323SOL     vw 9292   4.324   5.724   2.646 -0.2251  0.4132 -0.0502
 2324SOL     ow 9293   1.412   4.343   6.170  0.3448  0.2951 -0.3032
 2324SOL     hw 9294   1.414   4.341   6.265  1.9435  1.7017 -0.2681
 2324SOL     hw 9295   1.472   4.274   6.143  0.6987  0.5852 -0.2646
 2324SOL     vw 9296   1.420   4.334   6.179  0.6024  0.5190 -0.2935
 2325SOL     ow 9297   0.121   5.080   1.946 -0.3760 -0.2137  0.0091
 2325SOL     hw 9298   0.065   5.140   1.897  0.1582  0.5843  0.3704
 2325SOL     hw 9299   0.203   5.127   1.957 -0.2038 -0.7209  0.9351
 2325SOL     vw 9300   0.124   5.094   1.941 -0.2828 -0.1755  0.1790
 2326SOL     ow 9301   1.214   0.456   7.576  0.3891  0.3245 -0.6287
 2326SOL     hw 9302   1.129   0.412   7.574  0.4718 -0.2956  2.8663
 2326SOL     hw 9303   1.203   0.531   7.518 -2.6498  0.3657 -0.1883
 2326SOL     vw 9304   1.201   0.460   7.568 -0.0008  0.2481 -0.1094
 2327SOL     ow 9305   1.041   0.419   4.730  0.5309 -0.6528 -0.3593
 2327SOL     hw 9306   1.083   0.352   4.785  0.0257  0.0650  0.9323
 2327SOL     hw 9307   0.993   0.474   4.791 -1.9211 -1.1282 -1.7398
 2327SOL     vw 9308   1.040   0.417   4.745  0.1407 -0.6208 -0.3710
 2328SOL     ow 9309   2.002   2.797   3.006  1.0609 -0.1074 -0.1714
 2328SOL     hw 9310   1.954   2.728   3.051 -2.0963  1.6555 -0.4962
 2328SOL     hw 9311   2.071   2.822   3.067 -0.3541 -0.7403  1.7926
 2328SOL     vw 9312   2.005   2.791   3.020  0.4578  0.0416  0.0451
 2329SOL     ow 9313   3.807   5.310   1.514 -0.1384  0.1307  0.1530
 2329SOL     hw 9314   3.840   5.301   1.424 -0.2009  1.0054  0.0303
 2329SOL     hw 9315   3.878   5.277   1.569  0.1011  0.0533 -0.1924
 2329SOL     vw 9316   3.821   5.304   1.509 -0.1152  0.2356  0.0913
 2330SOL     ow 9317   5.310   2.041   2.128  0.8284  0.5824 -1.0317
 2330SOL     hw 9318   5.385   2.069   2.180 -1.8823  1.6104  2.6934
 2330SOL     hw 9319   5.264   1.978   2.183 -0.2166 -1.3891 -3.9168
 2330SOL     vw 9320   5.314   2.036   2.142  0.3328  0.4579 -0.9210
 2331SOL     ow 9321   2.692   3.301   0.803  0.3924 -0.1732 -0.5299
 2331SOL     hw 9322   2.700   3.250   0.884  0.6665  3.9065  2.3541
 2331SOL     hw 9323   2.607   3.345   0.811  0.5519  0.5443 -2.3628
 2331SOL     vw 9324   2.682   3.300   0.815  0.4495  0.4598 -0.3912
 2332SOL     ow 9325   3.426   4.831   0.671 -0.2930 -0.8430  0.6641
 2332SOL     hw 9326   3.360   4.898   0.685 -0.6768 -1.1732  0.4514
 2332SOL     hw 9327   3.420   4.809   0.579  1.8595  0.9250  0.0016
 2332SOL     vw 9328   3.417   4.837   0.661 -0.0596 -0.6533  0.5486
 2333SOL     ow 9329   0.336   1.309   3.139 -0.0947  0.0532 -0.3104
 2333SOL     hw 9330   0.247   1.321   3.108  0.1230 -1.0704 -1.4650
 2333SOL     hw 9331   0.377   1.394   3.128 -0.7042  0.2779 -0.8802
 2333SOL     vw 9332   0.330   1.321   3.134 -0.1464 -0.0654 -0.5380
 2334SOL     ow 9333   7.077   4.860   0.293 -0.1311 -0.5368 -0.4782
 2334SOL     hw 9334   7.171   4.877   0.295 -0.2088 -0.0538 -0.8270
 2334SOL     hw 9335   7.039   4.931   0.345 -0.2300 -1.2826  0.4984
 2334SOL     vw 9336   7.084   4.872   0.300 -0.1543 -0.5715 -0.3953
 2335SOL     ow 9337   2.120   7.003   4.375  0.6980 -0.0150 -0.2628
 2335SOL     hw 9338   2.096   7.089   4.409  0.6141 -0.3535  0.5638
 2335SOL     hw 9339   2.160   7.021   4.291  0.2915  0.8021 -0.2932
 2335SOL     vw 9340   2.122   7.017   4.369  0.6334  0.0482 -0.1576
 2336SOL     ow 9341   0.090   2.385   1.708  0.4782  1.2540  0.2882
 2336SOL     hw 9342   0.140   2.354   1.632 -1.3786 -2.7640  0.4393
 2336SOL     hw 9343   0.018   2.436   1.670  0.1846  0.2075 -0.6137
 2336SOL     vw 9344   0.087   2.388   1.693  0.1945  0.5858  0.1891
 2337SOL     ow 9345   1.542   2.798   1.665  0.7476 -0.4050 -0.4463
 2337SOL     hw 9346   1.561   2.819   1.574 -2.9070 -3.4015 -2.2112
 2337SOL     hw 9347   1.599   2.723   1.685 -0.9226 -2.1238 -1.7279
 2337SOL     vw 9348   1.552   2.791   1.656  0.0451 -1.0271 -0.8483
 2338SOL     ow 9349   5.498   2.103   4.837  0.6551 -0.4293 -0.2785
 2338SOL     hw 9350   5.436   2.075   4.904 -0.6180  0.5050 -1.0014
 2338SOL     hw 9351   5.463   2.066   4.756  0.5459  0.7791 -0.8175
 2338SOL     vw 9352   5.485   2.095   4.835  0.4728 -0.1465 -0.4454
 2339SOL     ow 9353   5.555   0.438   4.838  0.3728 -0.0237 -0.0113
 2339SOL     hw 9354   5.571   0.520   4.791  2.9338  0.6779  1.8400
 2339SOL     hw 9355   5.629   0.382   4.813  0.5517 -0.4454  1.3790
 2339SOL     vw 9356   5.567   0.441   4.829  0.7343  0.0132  0.4165
 2340SOL     ow 9357   5.712   7.526   7.539  0.4940 -0.0034  0.5110
 2340SOL     hw 9358   5.653   7.454   7.516 -0.8302  1.0197  0.5866
 2340SOL     hw 9359   5.798   7.484   7.551  0.3022 -1.2303 -1.8131
 2340SOL     vw 9360   5.716   7.511   7.537  0.2937 -0.0303  0.2143
 2341SOL     ow 9361   5.014   2.362   6.630 -0.2093 -0.1915 -0.2315
 2341SOL     hw 9362   5.072   2.436   6.616 -2.0837  1.2362 -0.8092
 2341SOL     hw 9363   5.039   2.328   6.716  0.5353  1.2630  0.1612
 2341SOL     vw 9364   5.025   2.367   6.640 -0.3583  0.1887 -0.2558
 2342SOL     ow 9365   1.092   1.217   6.206  0.2591  1.2266 -0.2209
 2342SOL     hw 9366   1.105   1.190   6.115  1.2971 -0.6760  0.4344
 2342SOL     hw 9367   1.181   1.228   6.241 -0.0890  0.9907  0.7915
 2342SOL     vw 9368   1.105   1.215   6.199  0.3501  0.9444 -0.0010
 2343SOL     ow 9369   2.152   0.189   2.577 -0.6943 -0.7844  0.1813
 2343SOL     hw 9370   2.056   0.189   2.575 -0.7342 -0.2331  1.4110
 2343SOL     hw 9371   2.175   0.261   2.635  0.4711 -1.0905  0.1244
 2343SOL     vw 9372   2.143   0.199   2.584 -0.5457 -0.7521  0.3362
 2344SOL     ow 9373   5.936   4.804   7.128 -0.3677  0.1415  0.2961
 2344SOL     hw 9374   6.005   4.758   7.080 -0.0871  1.1001 -0.2509
 2344SOL     hw 9375   5.974   4.821   7.214  0.8784  2.3949 -0.6204
 2344SOL     vw 9376   5.950   4.800   7.133 -0.1664  0.5653  0.1030
 2345SOL     ow 9377   5.390   3.058   2.674 -0.4575  0.3834  0.4097
 2345SOL     hw 9378   5.374   3.061   2.768 -0.3630 -0.6545  0.4678
 2345SOL     hw 9379   5.450   2.984   2.662 -1.3226 -0.1779 -0.5820
 2345SOL     vw 9380   5.396   3.048   2.685 -0.5591  0.1725  0.2865
 2346SOL     ow 9381   6.568   6.669   1.319  0.0522  0.6143 -0.2979
 2346SOL     hw 9382   6.556   6.590   1.266 -0.5486  0.1301  0.5477
 2346SOL     hw 9383   6.654   6.658   1.359 -0.4747 -0.1493  0.6744
 2346SOL     vw 9384   6.578   6.657   1.317 -0.0966  0.4494 -0.0581
 2347SOL     ow 9385   5.121   1.725   1.236 -0.7749  0.2746  0.1289
 2347SOL     hw 9386   5.120   1.689   1.325  1.8342 -0.3335 -0.0077
 2347SOL     hw 9387   5.198   1.781   1.234 -0.1977 -0.5245 -2.0515
 2347SOL     vw 9388   5.131   1.728   1.247 -0.3548  0.0889 -0.1768
 2348SOL     ow 9389   4.525   0.138   3.795  0.1180 -0.1473 -0.1386
 2348SOL     hw 9390   4.440   0.099   3.770  1.1595 -2.0165 -0.9821
 2348SOL     hw 9391   4.561   0.170   3.712  0.5237  0.0494  0.1141
 2348SOL     vw 9392   4.518   0.137   3.780  0.3090 -0.3680 -0.2166
 2349SOL     ow 9393   3.997   6.195   1.160  0.1851 -0.3144 -0.2294
 2349SOL     hw 9394   4.002   6.280   1.203  0.5704 -0.7486  0.6160
 2349SOL     hw 9395   4.023   6.132   1.227 -0.2533 -1.1224 -0.7893
 2349SOL     vw 9396   4.001   6.198   1.174  0.1781 -0.4783 -0.1918
 2350SOL     ow 9397   2.957   3.735   2.230 -0.1675  0.7524  0.1731
 2350SOL     hw 9398   3.005   3.791   2.169  1.8869 -1.6865 -0.6021
 2350SOL     hw 9399   2.866   3.764   2.222  0.4093  2.2243 -2.1029
 2350SOL     vw 9400   2.951   3.746   2.221  0.1795  0.6248 -0.2295
 2351SOL     ow 9401   3.488   1.898   4.541  0.5496 -0.8039 -0.5363
 2351SOL     hw 9402   3.399   1.880   4.572 -0.3692 -1.0168 -3.0571
 2351SOL     hw 9403   3.488   1.991   4.520  1.2996 -0.5559  0.5026
 2351SOL     vw 9404   3.476   1.908   4.542  0.5273 -0.7993 -0.7317
 2352SOL     ow 9405   7.586   6.420   7.604  0.4553 -0.7547 -0.0994
 2352SOL     hw 9406   7.674   6.455   7.599 -0.4980  1.8290  0.0146
 2352SOL     hw 9407   7.534   6.476   7.547 -1.4352 -1.1503  1.1283
 2352SOL     vw 9408   7.591   6.432   7.596  0.0801 -0.4659  0.0775
 2353SOL     ow 9409   0.330   3.228   6.011  0.5024 -0.2571 -0.0154
 2353SOL     hw 9410   0.255   3.255   6.065  0.1470 -0.0954 -0.5829
 2353SOL     hw 9411   0.350   3.140   6.042 -0.8718 -0.8920 -0.8540
 2353SOL     vw 9412   0.323   3.220   6.022  0.2742 -0.3194 -0.2007
 2354SOL     ow 9413   1.296   5.745   7.455 -0.4344  0.2049  0.0754
 2354SOL     hw 9414   1.378   5.706   7.424  1.7516  0.9612  4.1128
 2354SOL     hw 9415   1.235   5.672   7.461  0.6244 -0.8229 -1.0002
 2354SOL     vw 9416   1.299   5.730   7.452 -0.0063  0.1695  0.4661
 2355SOL     ow 9417   6.844   7.315   6.718 -0.6573  0.3019  0.7544
 2355SOL     hw 9418   6.848   7.276   6.631  0.1897  0.5812  0.6538
 2355SOL     hw 9419   6.776   7.383   6.710  0.3099  1.2276 -0.0929
 2355SOL     vw 9420   6.836   7.319   6.705 -0.4177  0.4609  0.6292
 2356SOL     ow 9421   0.072   6.789   5.605  0.3649 -0.0840  0.4256
 2356SOL     hw 9422   0.108   6.850   5.670  1.2020  1.1267 -1.0934
 2356SOL     hw 9423  -0.023   6.790   5.621  0.1962  2.5970 -0.2796
 2356SOL     vw 9424   0.064   6.797   5.616  0.4531  0.4296  0.1318
 2357SOL     ow 9425   3.102   0.988   2.834 -0.6715 -0.1221  0.1318
 2357SOL     hw 9426   3.160   1.063   2.821  1.0024 -1.5114 -0.9083
 2357SOL     hw 9427   3.146   0.935   2.901 -0.4148 -1.4778 -1.0697
 2357SOL     vw 9428   3.116   0.991   2.841 -0.4168 -0.4843 -0.1640
 2358SOL     ow 9429   3.785   6.542   5.082  0.2104  0.5430 -0.3400
 2358SOL     hw 9430   3.722   6.485   5.039  0.1629  1.3831 -1.4041
 2358SOL     hw 9431   3.870   6.503   5.063  0.0637 -0.6560  1.1918
 2358SOL     vw 9432   3.788   6.529   5.074  0.1848  0.4957 -0.2785
 2359SOL     ow 9433   3.610   6.245   0.367 -0.0224  0.0016  0.2256
 2359SOL     hw 9434   3.616   6.150   0.380 -0.5094 -0.1259 -0.4413
 2359SOL     hw 9435   3.697   6.270   0.336  0.1147 -0.2242  0.4280
 2359SOL     vw 9436   3.622   6.236   0.364 -0.0687 -0.0451  0.1643
 2360SOL     ow 9437   3.307   7.548   6.925 -0.5385  0.6782  0.1918
 2360SOL     hw 9438   3.245   7.591   6.984 -1.3602 -1.3290  0.8919
 2360SOL     hw 9439   3.393   7.584   6.950 -1.1910  2.0522  0.5410
 2360SOL     vw 9440   3.310   7.558   6.936 -0.7331  0.5946  0.3302
 2361SOL     ow 9441   5.913   0.295   0.897  0.0427 -0.2699  0.0744
 2361SOL     hw 9442   5.918   0.304   0.992  1.3685 -0.7266  0.0616
 2361SOL     hw 9443   6.000   0.317   0.865 -1.4670  4.5513 -1.5229
 2361SOL     vw 9444   5.925   0.299   0.905  0.0184  0.3060 -0.1380
 2362SOL     ow 9445   1.351   3.696   6.736  0.3868 -0.3274 -0.4780
 2362SOL     hw 9446   1.438   3.723   6.764 -0.4743 -0.0914  2.3606
 2362SOL     hw 9447   1.334   3.616   6.786 -0.6379 -0.9284 -1.7481
 2362SOL     vw 9448   1.360   3.689   6.746  0.1380 -0.3756 -0.2711
 2363SOL     ow 9449   2.447   2.657   7.538 -0.6412  0.4731  0.2680
 2363SOL     hw 9450   2.497   2.738   7.527 -1.8406  1.3971  1.3809
 2363SOL     hw 9451   2.371   2.668   7.482  0.5524 -1.1496 -1.8171
 2363SOL     vw 9452   2.444   2.669   7.529 -0.6419  0.3810  0.1397
 2364SOL     ow 9453   6.168   0.652   1.529 -0.8283  0.5612 -0.5535
 2364SOL     hw 9454   6.210   0.732   1.560 -2.9298  2.3454 -2.0084
 2364SOL     hw 9455   6.187   0.650   1.435 -2.2425  0.2994 -0.8457
 2364SOL     vw 9456   6.176   0.662   1.521 -1.2922  0.7620 -0.7840
 2365SOL     ow 9457   4.195   2.955   5.056  0.4034 -0.4773  0.0828
 2365SOL     hw 9458   4.184   2.988   5.145 -2.7222  0.4778 -0.5373
 2365SOL     hw 9459   4.254   3.019   5.014  0.4298  0.0982  0.9781
 2365SOL     vw 9460   4.202   2.968   5.062 -0.0055 -0.2753  0.1190
 2366SOL     ow 9461   0.354   5.229   6.062 -0.3861  0.0588 -0.2167
 2366SOL     hw 9462   0.443   5.238   6.028  0.2229 -0.4640  1.1426
 2366SOL     hw 9463   0.358   5.151   6.118 -2.0052 -0.6664 -1.0426
 2366SOL     vw 9464   0.366   5.220   6.065 -0.5194 -0.1059 -0.1464
 2367SOL     ow 9465   7.134   0.407   0.132 -0.2651  0.3237  0.4944
 2367SOL     hw 9466   7.149   0.416   0.226  2.4451 -0.0339  0.1880
 2367SOL     hw 9467   7.177   0.324   0.109  2.9852  2.3781 -1.6502
 2367SOL     vw 9468   7.142   0.397   0.142  0.5214  0.5476  0.1710
 2368SOL     ow 9469   7.177   2.025   2.872 -0.3024  0.1012  0.2525
 2368SOL     hw 9470   7.207   1.986   2.954  1.6903  1.1179  0.0860
 2368SOL     hw 9471   7.256   2.028   2.817 -1.5043 -0.2192 -1.5801
 2368SOL     vw 9472   7.192   2.020   2.875 -0.1979  0.1930 -0.0112
 2369SOL     ow 9473   1.599   4.011   5.577 -0.3402 -0.2310  0.4928
 2369SOL     hw 9474   1.652   3.974   5.648 -1.6492 -1.4471  0.8886
 2369SOL     hw 9475   1.527   4.056   5.621  1.2178  3.0506  0.0314
 2369SOL     vw 9476   1.597   4.012   5.592 -0.3073  0.0412  0.4840
 2370SOL     ow 9477   0.038   6.821   0.699 -0.6750 -0.5964  0.7725
 2370SOL     hw 9478   0.105   6.889   0.698  2.0872 -3.0942 -0.8149
 2370SOL     hw 9479   0.053   6.773   0.780  1.2479 -2.6226 -0.6660
 2370SOL     vw 9480   0.048   6.823   0.709 -0.0569 -1.1930  0.3733
 2371SOL     ow 9481   3.785   1.522   3.648  0.1106 -0.5074 -0.5401
 2371SOL     hw 9482   3.702   1.566   3.667 -0.8943 -1.2814 -2.8715
 2371SOL     hw 9483   3.788   1.515   3.553  1.2947 -3.4224 -0.3862
 2371SOL     vw 9484   3.775   1.527   3.638  0.1342 -0.9942 -0.8274
 2372SOL     ow 9485   3.139   2.017   7.131  0.7644  0.2151 -0.1007
 2372SOL     hw 9486   3.222   2.059   7.153  0.0610  0.5643  2.1114
 2372SOL     hw 9487   3.144   1.931   7.172 -0.8207  1.1009  2.1499
 2372SOL     vw 9488   3.151   2.011   7.139  0.4624  0.3780  0.4883
 2373SOL     ow 9489   6.437   4.057   2.492 -0.7332 -0.0369  0.2909
 2373SOL     hw 9490   6.507   4.024   2.436 -1.5320 -1.4493  0.0940
 2373SOL     hw 9491   6.483   4.093   2.568  0.2800  0.5602 -0.5603
 2373SOL     vw 9492   6.453   4.057   2.494 -0.7050 -0.1445  0.1527
 2374SOL     ow 9493   3.864   4.917   5.787 -0.0299 -0.5589  0.3198
 2374SOL     hw 9494   3.918   4.996   5.781 -1.9932  0.8334  0.0175
 2374SOL     hw 9495   3.782   4.947   5.825 -1.8520 -1.8616 -2.2762
 2374SOL     vw 9496   3.860   4.931   5.791 -0.5294 -0.5469 -0.0627
 2375SOL     ow 9497   4.912   7.612   5.082  0.1535 -0.0671 -0.0379
 2375SOL     hw 9498   4.840   7.633   5.141 -0.1750 -1.7218  0.2172
 2375SOL     hw 9499   4.960   7.543   5.128 -0.6405 -2.0652 -2.0311
 2375SOL     vw 9500   4.909   7.605   5.096  0.0055 -0.5490 -0.2673
 2376SOL     ow 9501   1.690   6.481   7.016  0.6127 -0.0152  0.4392
 2376SOL     hw 9502   1.758   6.436   7.065  1.1245  0.0241 -0.2136
 2376SOL     hw 9503   1.733   6.508   6.935 -0.2541 -0.2429 -0.1137
 2376SOL     vw 9504   1.705   6.479   7.011  0.5658 -0.0401  0.2804
 2377SOL     ow 9505   7.574   6.812   4.645  1.0251  0.5355  0.5750
 2377SOL     hw 9506   7.507   6.745   4.630  1.9487 -0.3493  0.2992
 2377SOL     hw 9507   7.612   6.790   4.730  0.9100  1.0848  0.7729
 2377SOL     vw 9508   7.570   6.800   4.654  1.1315  0.4911  0.5648
 2378SOL     ow 9509   5.283   6.170   5.398  0.0107  0.5651  0.2419
 2378SOL     hw 9510   5.246   6.229   5.463  1.3830 -0.0962  1.6730
 2378SOL     hw 9511   5.347   6.117   5.446 -0.0705 -1.0472 -1.2999
 2378SOL     vw 9512   5.286   6.171   5.413  0.1810  0.2651  0.2272
 2379SOL     ow 9513   0.707   3.865   4.927 -0.8138 -0.2676  0.0833
 2379SOL     hw 9514   0.743   3.824   5.006  0.9889  0.0273 -0.5384
 2379SOL     hw 9515   0.716   3.959   4.943 -1.8950 -0.1704  0.1602
 2379SOL     vw 9516   0.713   3.872   4.940 -0.7186 -0.2160  0.0114
 2380SOL     ow 9517   1.627   6.019   3.247  0.2130 -0.2703  0.4227
 2380SOL     hw 9518   1.613   5.932   3.210 -0.2134  0.1291 -0.3849
 2380SOL     hw 9519   1.551   6.070   3.219  0.4819  0.3753  0.8417
 2380SOL     vw 9520   1.615   6.014   3.238  0.1922 -0.1326  0.3712
 2381SOL     ow 9521   0.976   2.558   0.439 -0.2567 -0.0987 -0.0124
 2381SOL     hw 9522   0.953   2.645   0.406  0.4605  0.0927 -0.0292
 2381SOL     hw 9523   1.058   2.536   0.395  0.5429  0.0118  1.3547
 2381SOL     vw 9524   0.984   2.567   0.429 -0.0566 -0.0588  0.1657
 2382SOL     ow 9525   4.634   5.483   0.528 -0.0828  0.3135  0.8614
 2382SOL     hw 9526   4.690   5.519   0.597  0.0950 -0.4157  1.1025
 2382SOL     hw 9527   4.662   5.392   0.519 -0.6742  0.1709  0.4109
 2382SOL     vw 9528   4.645   5.476   0.536 -0.1373  0.1984  0.8337
 2383SOL     ow 9529   2.009   2.606   4.190  0.2282  0.3280 -0.2285
 2383SOL     hw 9530   2.036   2.686   4.145  1.6642 -0.5534 -1.0505
 2383SOL     hw 9531   1.957   2.559   4.125 -3.6515  2.0379  1.3720
 2383SOL     vw 9532   2.006   2.610   4.175 -0.0942  0.4373 -0.1256
 2384SOL     ow 9533   1.019   2.558   3.602 -0.1305  0.4147 -0.0227
 2384SOL     hw 9534   1.024   2.638   3.654 -1.4782 -0.4411  1.5323
 2384SOL     hw 9535   1.068   2.577   3.522  0.4607  2.4100  0.7740
 2384SOL     vw 9536   1.026   2.571   3.598 -0.2303  0.5649  0.2875
 2385SOL     ow 9537   4.548   0.942   3.421 -0.3700 -0.6786 -0.2850
 2385SOL     hw 9538   4.493   0.971   3.493  1.3802 -0.4053  0.9902
 2385SOL     hw 9539   4.510   0.984   3.343 -1.1572  0.5476  0.7329
 2385SOL     vw 9540   4.536   0.951   3.420 -0.2432 -0.4807  0.0174
 2386SOL     ow 9541   0.375   6.547   4.120 -0.1767  0.1018 -0.3640
 2386SOL     hw 9542   0.393   6.513   4.032  0.7859 -1.4671  0.3883
 2386SOL     hw 9543   0.344   6.471   4.168 -1.6400  1.1609  0.4209
 2386SOL     vw 9544   0.373   6.533   4.114 -0.2428  0.0346 -0.1609
 2387SOL     ow 9545   6.826   0.870   1.859 -0.2064 -0.2666  0.1352
 2387SOL     hw 9546   6.854   0.942   1.914  0.0055 -0.3757  0.1727
 2387SOL     hw 9547   6.853   0.896   1.770 -0.3550 -0.1878  0.1124
 2387SOL     vw 9548   6.833   0.883   1.854 -0.1981 -0.2706  0.1372
 2388SOL     ow 9549   2.696   2.457   7.439  0.9779  0.4332  0.0782
 2388SOL     hw 9550   2.686   2.363   7.422  0.4061  0.2090  1.5468
 2388SOL     hw 9551   2.787   2.467   7.467  1.3383  0.5014 -1.0454
 2388SOL     vw 9552   2.706   2.446   7.440  0.9500  0.4126  0.1237
 2389SOL     ow 9553   0.354   0.729   1.429  0.5354 -0.1587  0.7000
 2389SOL     hw 9554   0.434   0.696   1.386  1.6873  4.0214 -0.8938
 2389SOL     hw 9555   0.285   0.715   1.364  1.4264  2.1247 -0.9001
 2389SOL     vw 9556   0.356   0.723   1.415  0.8050  0.6941  0.2786
 2390SOL     ow 9557   6.714   4.748   1.063  0.1653 -0.2611 -0.4844
 2390SOL     hw 9558   6.722   4.843   1.075 -0.0249 -0.3488  0.3851
 2390SOL     hw 9559   6.645   4.738   0.998 -1.7262  0.1572  1.3343
 2390SOL     vw 9560   6.706   4.759   1.056 -0.1094 -0.2177 -0.1297
 2391SOL     ow 9561   5.369   6.916   4.697 -0.1242  0.0410 -0.2395
 2391SOL     hw 9562   5.323   6.904   4.780 -0.4127 -0.1328 -0.4233
 2391SOL     hw 9563   5.381   6.827   4.663  1.3113 -0.0104  0.3221
 2391SOL     vw 9564   5.365   6.903   4.703  0.0272  0.0117 -0.1898
 2392SOL     ow 9565   2.204   3.221   7.347 -0.2032  0.0180  0.4051
 2392SOL     hw 9566   2.113   3.208   7.321  0.1481 -0.9814 -0.4231
 2392SOL     hw 9567   2.209   3.188   7.437 -0.9306  1.3431  0.9636
 2392SOL     vw 9568   2.193   3.215   7.355 -0.2530  0.0610  0.3695
 2393SOL     ow 9569   4.000   4.011   2.899 -0.0653 -0.3333 -0.0373
 2393SOL     hw 9570   3.980   4.080   2.963  0.5530 -2.1988  2.3339
 2393SOL     hw 9571   3.977   4.049   2.815 -0.5807  2.4331  1.2343
 2393SOL     vw 9572   3.994   4.025   2.897 -0.0519 -0.2143  0.4435
 2394SOL     ow 9573   6.713   3.890   1.810  0.2391  0.6251 -0.1037
 2394SOL     hw 9574   6.738   3.880   1.718  1.5240 -0.8009  0.3491
 2394SOL     hw 9575   6.785   3.849   1.858 -1.3348 -0.4261  1.4677
 2394SOL     vw 9576   6.726   3.884   1.804  0.2010  0.2983  0.1633
 2395SOL     ow 9577   0.925   6.259   5.677  0.2106 -0.3172 -0.2092
 2395SOL     hw 9578   0.969   6.250   5.592 -1.1945 -2.3091 -0.7987
 2395SOL     hw 9579   0.862   6.187   5.679  1.9050 -1.9862  3.6242
 2395SOL     vw 9580   0.923   6.248   5.666  0.2487 -0.8004  0.2189
 2396SOL     ow 9581   3.854   1.085   6.469  0.1651 -0.2387 -0.6973
 2396SOL     hw 9582   3.836   1.174   6.497 -0.8661 -0.5442 -0.3276
 2396SOL     hw 9583   3.926   1.093   6.406  1.9225  0.5835  1.2783
 2396SOL     vw 9584   3.861   1.097   6.464  0.2608 -0.1705 -0.3881
 2397SOL     ow 9585   0.739   0.816   1.033  0.0158  0.0001  0.1009
 2397SOL     hw 9586   0.659   0.808   0.979  1.5144 -0.5994 -2.1842
 2397SOL     hw 9587   0.706   0.838   1.120 -2.7396 -1.6822 -0.3673
 2397SOL     vw 9588   0.724   0.818   1.037 -0.1500 -0.3009 -0.2624
 2398SOL     ow 9589   6.531   5.176   3.670 -0.0696 -0.1779 -0.0134
 2398SOL     hw 9590   6.548   5.123   3.749 -0.9346 -0.8267 -0.2431
 2398SOL     hw 9591   6.442   5.209   3.683 -0.4035 -0.6925 -0.9346
 2398SOL     vw 9592   6.522   5.173   3.682 -0.2279 -0.3314 -0.1652
 2399SOL     ow 9593   1.339   4.117   1.868 -0.5747 -0.1420 -0.3077
 2399SOL     hw 9594   1.383   4.042   1.827  1.0724  0.8728 -0.4465
 2399SOL     hw 9595   1.283   4.152   1.799 -0.2347 -0.3555 -0.6982
 2399SOL     vw 9596   1.337   4.111   1.854 -0.3126 -0.0360 -0.3775
 2400SOL     ow 9597   2.854   3.573   1.725  0.3288  0.6186 -0.2137
 2400SOL     hw 9598   2.923   3.639   1.722  2.2225 -0.7835  3.8892
 2400SOL     hw 9599   2.899   3.490   1.710 -0.8041 -0.1841  0.5917
 2400SOL     vw 9600   2.869   3.571   1.723  0.4293  0.3275  0.4340
 2401SOL     ow 9601   4.724   6.288   4.903 -0.4861  0.1277  0.2892
 2401SOL     hw 9602   4.759   6.357   4.959  0.9099  0.5637 -1.0366
 2401SOL     hw 9603   4.721   6.328   4.816 -0.1088 -1.3437 -0.4262
 2401SOL     vw 9604   4.728   6.302   4.899 -0.2520 -0.0088  0.0198
 2402SOL     ow 9605   5.736   4.599   1.018  0.6004 -0.4797 -0.8256
 2402SOL     hw 9606   5.771   4.513   0.993 -0.5168 -1.1982 -0.0025
 2402SOL     hw 9607   5.791   4.627   1.091  0.7367 -0.6620 -0.8576
 2402SOL     vw 9608   5.748   4.591   1.024  0.4711 -0.5987 -0.7213
 2403SOL     ow 9609   6.349   3.889   4.934 -0.4286 -1.0240  0.3034
 2403SOL     hw 9610   6.274   3.877   4.876 -0.6944 -4.2215  1.1513
 2403SOL     hw 9611   6.424   3.894   4.875 -1.1815  2.8301 -0.6022
 2403SOL     vw 9612   6.349   3.888   4.919 -0.5631 -0.9372  0.2954
 2404SOL     ow 9613   0.539   4.632   4.469 -0.3446  0.4037 -0.1130
 2404SOL     hw 9614   0.453   4.591   4.465  0.3874 -1.3640  0.9107
 2404SOL     hw 9615   0.575   4.605   4.553 -0.0077  3.7442  0.9539
 2404SOL     vw 9616   0.533   4.623   4.479 -0.2036  0.6113  0.1631
 2405SOL     ow 9617   0.025   0.827   7.361 -0.1981 -0.1247  0.1765
 2405SOL     hw 9618  -0.004   0.860   7.447  0.8626 -0.1787  0.5652
 2405SOL     hw 9619   0.120   0.822   7.368 -0.1850 -1.3020 -0.5937
 2405SOL     vw 9620   0.033   0.831   7.373 -0.0564 -0.2871  0.1261
 2406SOL     ow 9621   7.375   1.090   4.907  0.2125  0.3394  0.0670
 2406SOL     hw 9622   7.305   1.152   4.931  1.3462  2.4268 -1.6887
 2406SOL     hw 9623   7.407   1.057   4.991 -3.2786 -1.2964  0.9486
 2406SOL     vw 9624   7.370   1.094   4.921 -0.0987  0.3990 -0.0482
 2407SOL     ow 9625   2.284   7.388   5.097 -0.2781  0.5356 -0.2326
 2407SOL     hw 9626   2.188   7.389   5.094 -0.2467  0.4720 -2.7762
 2407SOL     hw 9627   2.310   7.473   5.061  0.6772  1.1101  1.6484
 2407SOL     vw 9628   2.275   7.399   5.092 -0.1478  0.6030 -0.3200
 2408SOL     ow 9629   2.079   1.405   5.692 -0.0452 -0.2260 -0.5377
 2408SOL     hw 9630   2.030   1.444   5.620 -0.0098  4.2181  1.5489
 2408SOL     hw 9631   2.014   1.386   5.758  0.4646  1.7214  0.6024
 2408SOL     vw 9632   2.064   1.408   5.691  0.0267  0.6173 -0.1121
 2409SOL     ow 9633   5.963   5.881   2.207 -0.8579 -0.1480  0.0814
 2409SOL     hw 9634   5.885   5.916   2.250 -3.6859 -1.9849 -3.0031
 2409SOL     hw 9635   5.987   5.948   2.143 -1.8688 -0.7665 -0.9951
 2409SOL     vw 9636   5.956   5.894   2.204 -1.3642 -0.4723 -0.4675
 2410SOL     ow 9637   0.407   1.028   3.226 -0.5449 -0.2581  0.1012
 2410SOL     hw 9638   0.453   0.982   3.156  1.6975  0.5883  0.9348
 2410SOL     hw 9639   0.392   1.116   3.191  1.6635  0.5541  1.0082
 2410SOL     vw 9640   0.411   1.033   3.212  0.0423 -0.0392  0.3309
 2411SOL     ow 9641   2.205   7.502   1.908 -0.1408  0.5697 -0.3909
 2411SOL     hw 9642   2.272   7.465   1.966  0.8502 -2.1149 -2.9768
 2411SOL     hw 9643   2.135   7.436   1.907 -0.4113  0.8488 -1.6958
 2411SOL     vw 9644   2.205   7.488   1.915 -0.0455  0.2522 -0.9043
 2412SOL     ow 9645   7.226   7.528   0.517  0.3688  0.0192 -0.0851
 2412SOL     hw 9646   7.213   7.445   0.564  0.6405  0.4283  0.7333
 2412SOL     hw 9647   7.230   7.503   0.425 -0.9871 -0.7058  0.0309
 2412SOL     vw 9648   7.225   7.513   0.511  0.2258 -0.0226  0.0382
 2413SOL     ow 9649   1.296   1.329   6.333 -1.0277 -0.0733 -0.2856
 2413SOL     hw 9650   1.263   1.410   6.373 -0.5806 -0.3445  0.6804
 2413SOL     hw 9651   1.375   1.309   6.384 -1.0245 -1.0108 -0.6465
 2413SOL     vw 9652   1.302   1.337   6.345 -0.9684 -0.2328 -0.2060
 2414SOL     ow 9653   3.560   5.925   2.536 -0.4231  0.0792 -0.3476
 2414SOL     hw 9654   3.512   5.936   2.619  0.8277  0.3339  0.3748
 2414SOL     hw 9655   3.492   5.903   2.472 -1.8082  2.3344  0.1991
 2414SOL     vw 9656   3.545   5.924   2.539 -0.4408  0.4106 -0.1801
 2415SOL     ow 9657   4.338   5.323   7.503  0.0094 -0.4918 -0.4517
 2415SOL     hw 9658   4.317   5.305   7.411 -0.5300 -1.7847 -0.1036
 2415SOL     hw 9659   4.359   5.237   7.540  1.9719  0.2207  0.2221
 2415SOL     vw 9660   4.338   5.309   7.496  0.1969 -0.5682 -0.3169
 2416SOL     ow 9661   5.008   5.080   5.395  0.6798  1.1094 -0.2719
 2416SOL     hw 9662   4.976   5.170   5.403 -4.7415 -0.2848 -1.7031
 2416SOL     hw 9663   5.052   5.078   5.309  2.2939  2.5989  0.4659
 2416SOL     vw 9664   5.009   5.092   5.385  0.1771  1.1218 -0.3636
 2417SOL     ow 9665   3.647   1.685   0.798 -0.3349  0.1757  0.1335
 2417SOL     hw 9666   3.560   1.683   0.838 -0.1722  0.0454  0.4956
 2417SOL     hw 9667   3.701   1.633   0.858  0.0919  0.6390  0.1511
 2417SOL     vw 9668   3.643   1.678   0.812 -0.2571  0.2195  0.1836
 2418SOL     ow 9669   6.586   7.018   1.247 -0.0534 -0.1619  0.0173
 2418SOL     hw 9670   6.672   7.012   1.289  0.7977 -0.5337 -1.6957
 2418SOL     hw 9671   6.566   7.112   1.248  1.3542  0.1954 -1.3766
 2418SOL     vw 9672   6.594   7.030   1.252  0.2446 -0.1638 -0.3927
 2419SOL     ow 9673   1.144   3.854   6.806  0.1034  0.0503  0.2332
 2419SOL     hw 9674   1.173   3.944   6.792 -0.0772  0.2985  1.3631
 2419SOL     hw 9675   1.225   3.804   6.812  0.2079  0.1593 -0.2625
 2419SOL     vw 9676   1.158   3.859   6.805  0.0933  0.0976  0.3166
 2420SOL     ow 9677   7.221   6.345   1.810 -0.3586  0.1488 -0.0832
 2420SOL     hw 9678   7.170   6.425   1.822  0.5764  0.7323  0.1622
 2420SOL     hw 9679   7.261   6.354   1.724  1.0416  0.7438  0.5805
 2420SOL     vw 9680   7.220   6.357   1.800 -0.0508  0.3040  0.0368
 2421SOL     ow 9681   0.312   5.476   6.357 -0.1106 -0.6546 -0.2843
 2421SOL     hw 9682   0.351   5.563   6.362 -1.4316 -0.1095  1.4629
 2421SOL     hw 9683   0.357   5.425   6.425 -1.0176 -0.5952  0.3797
 2421SOL     vw 9684   0.323   5.481   6.367 -0.4046 -0.5751  0.0336
 2422SOL     ow 9685   6.086   0.885   5.614 -0.3480  0.2744 -0.1638
 2422SOL     hw 9686   6.056   0.923   5.531  0.0230 -0.2156 -0.5307
 2422SOL     hw 9687   6.126   0.801   5.588 -0.8134 -0.1841  0.5800
 2422SOL     vw 9688   6.087   0.879   5.599 -0.3605  0.1493 -0.1140
 2423SOL     ow 9689   0.696   1.523   6.121 -0.6003  0.1650 -0.3446
 2423SOL     hw 9690   0.704   1.504   6.215 -1.3049  1.2893 -0.0316
 2423SOL     hw 9691   0.689   1.437   6.080  4.7977 -0.7581 -0.0037
 2423SOL     vw 9692   0.696   1.509   6.128  0.0189  0.1915 -0.2584
 2424SOL     ow 9693   0.215   4.333   5.622  0.0537  0.6781 -0.0445
 2424SOL     hw 9694   0.141   4.391   5.645  0.4887  0.8955  0.8642
 2424SOL     hw 9695   0.253   4.309   5.707  0.1422 -0.6093 -0.4323
 2424SOL     vw 9696   0.210   4.337   5.636  0.1227  0.5369  0.0241
 2425SOL     ow 9697   6.936   2.148   2.784 -0.5595 -0.0578  0.0181
 2425SOL     hw 9698   6.885   2.230   2.787 -0.8051 -0.2388  1.2401
 2425SOL     hw 9699   6.896   2.099   2.712 -1.7406  0.0629  0.5542
 2425SOL     vw 9700   6.924   2.152   2.775 -0.7474 -0.0658  0.2501
 2426SOL     ow 9701   6.663   2.088   6.992  0.1820  0.2531 -0.2401
 2426SOL     hw 9702   6.579   2.119   6.957 -0.2234  0.0379  0.5117
 2426SOL     hw 9703   6.709   2.168   7.018  0.0969  0.3586 -0.4164
 2426SOL     vw 9704   6.658   2.103   6.991  0.1173  0.2387 -0.1643
 2427SOL     ow 9705   6.632   6.589   4.975 -0.4779  0.3682 -0.7590
 2427SOL     hw 9706   6.668   6.512   5.019 -2.3464  0.4720  1.1125
 2427SOL     hw 9707   6.704   6.651   4.971 -0.7524  1.6263  5.2062
 2427SOL     vw 9708   6.646   6.587   4.980 -0.7606  0.5479  0.2751
 2428SOL     ow 9709   0.011   2.165   4.830 -0.0887  0.4607 -0.1742
 2428SOL     hw 9710   0.034   2.131   4.917  0.2384 -1.3542 -0.9374
 2428SOL     hw 9711   0.015   2.260   4.840 -1.1196  0.3214  2.0749
 2428SOL     vw 9712   0.015   2.173   4.843 -0.1816  0.2028  0.0217
 2429SOL     ow 9713   5.866   1.355   2.821 -0.2612 -0.2327  0.1562
 2429SOL     hw 9714   5.800   1.292   2.790 -0.1447 -0.4532  0.3592
 2429SOL     hw 9715   5.943   1.336   2.768 -0.4793  0.2925 -0.3646
 2429SOL     vw 9716   5.867   1.344   2.810 -0.2747 -0.1925  0.1142
 2430SOL     ow 9717   4.218   5.516   0.636 -0.4352 -0.3594 -0.6359
 2430SOL     hw 9718   4.193   5.561   0.555  1.4174  0.5148 -0.7880
 2430SOL     hw 9719   4.181   5.568   0.706 -0.4457 -0.0291 -0.8868
 2430SOL     vw 9720   4.210   5.529   0.634 -0.1922 -0.2007 -0.6891
 2431SOL     ow 9721   3.798   6.871   6.943 -0.0010  0.3247 -0.0976
 2431SOL     hw 9722   3.714   6.829   6.961 -0.1529  0.8856  0.5259
 2431SOL     hw 9723   3.774   6.960   6.915  0.4360  1.2332  2.2020
 2431SOL     vw 9724   3.783   6.878   6.941  0.0366  0.5186  0.2880
 2432SOL     ow 9725   6.880   1.895   6.865 -0.3394  0.6576  0.2873
 2432SOL     hw 9726   6.962   1.871   6.823 -1.1589 -0.3126 -0.8687
 2432SOL     hw 9727   6.856   1.817   6.916 -0.8116  0.7075  0.1465
 2432SOL     vw 9728   6.887   1.881   6.866 -0.5100  0.5361  0.1163
 2433SOL     ow 9729   1.125   6.681   4.748 -0.0932  0.6748 -0.0257
 2433SOL     hw 9730   1.183   6.644   4.682  0.0070 -0.4404  0.6737
 2433SOL     hw 9731   1.174   6.754   4.786  1.8189 -1.5600  2.0808
 2433SOL     vw 9732   1.139   6.686   4.744  0.1723  0.2329  0.3445
 2434SOL     ow 9733   4.525   5.894   6.557  0.3767 -0.4531 -0.3146
 2434SOL     hw 9734   4.448   5.855   6.597  0.5478 -1.2249 -0.7105
 2434SOL     hw 9735   4.498   5.916   6.467 -0.5301  2.8342  0.6163
 2434SOL     vw 9736   4.511   5.892   6.550  0.2799 -0.1209 -0.2441
 2435SOL     ow 9737   1.936   3.781   2.558  0.1949 -0.1762  0.1549
 2435SOL     hw 9738   1.927   3.876   2.554  0.0659 -0.2119 -0.3935
 2435SOL     hw 9739   2.024   3.767   2.593  0.9151  0.1483 -1.4610
 2435SOL     vw 9740   1.947   3.792   2.562  0.2729 -0.1379 -0.1307
 2436SOL     ow 9741   2.882   0.794   2.246  0.7264 -0.1243 -0.7542
 2436SOL     hw 9742   2.831   0.809   2.166  3.0869 -1.5164 -2.6390
 2436SOL     hw 9743   2.821   0.749   2.305 -0.7946  0.0584 -2.1120
 2436SOL     vw 9744   2.867   0.790   2.243  0.8372 -0.2838 -1.1820
 2437SOL     ow 9745   7.493   0.788   3.292  0.1289 -0.4341 -0.0298
 2437SOL     hw 9746   7.511   0.798   3.199  0.5089  0.1506  0.1013
 2437SOL     hw 9747   7.493   0.693   3.306  0.2619 -0.5203 -0.5815
 2437SOL     vw 9748   7.495   0.777   3.282  0.1965 -0.3684 -0.0855
 2438SOL     ow 9749   0.132   1.116   0.551 -0.0564 -0.5808 -0.8465
 2438SOL     hw 9750   0.226   1.126   0.535  0.1284  0.6833  0.6961
 2438SOL     hw 9751   0.093   1.108   0.464  1.7384 -4.5986 -1.5103
 2438SOL     vw 9752   0.139   1.116   0.538  0.2048 -0.9441 -0.7305
 2439SOL     ow 9753   1.152   2.234   4.611  0.2738  0.1218 -0.0013
 2439SOL     hw 9754   1.197   2.319   4.615  1.0406 -0.1602 -1.6903
 2439SOL     hw 9755   1.121   2.228   4.521  0.1591 -1.3509  0.1173
 2439SOL     vw 9756   1.154   2.244   4.599  0.3599 -0.1097 -0.2086
 2440SOL     ow 9757   4.910   0.114   1.749  0.4648  0.6636  0.0420
 2440SOL     hw 9758   4.949   0.147   1.830 -0.8648  0.7660  0.6773
 2440SOL     hw 9759   4.974   0.053   1.714  1.3396  1.0994  0.8319
 2440SOL     vw 9760   4.923   0.111   1.755  0.4046  0.7346  0.2301
 2441SOL     ow 9761   6.017   7.264   1.167 -0.2063 -0.3380 -0.5685
 2441SOL     hw 9762   6.004   7.260   1.072 -1.8316  1.6635 -0.5096
 2441SOL     hw 9763   6.106   7.233   1.181  0.2403 -0.1993 -2.7941
 2441SOL     vw 9764   6.027   7.259   1.156 -0.3619 -0.0556 -0.8544
 2442SOL     ow 9765   6.947   4.839   6.081  0.3136  0.7833  0.6242
 2442SOL     hw 9766   6.919   4.764   6.133  4.3374  0.4295  2.7141
 2442SOL     hw 9767   7.041   4.824   6.067  0.7351  4.1581 -1.1256
 2442SOL     vw 9768   6.956   4.827   6.086  0.9000  1.1818  0.6692
 2443SOL     ow 9769   5.639   2.962   3.698 -0.1923 -0.1819  0.3113
 2443SOL     hw 9770   5.656   3.024   3.628  0.1755 -0.3996  0.2038
 2443SOL     hw 9771   5.691   2.993   3.772  0.6875 -0.8434 -0.0142
 2443SOL     vw 9772   5.648   2.974   3.699 -0.0279 -0.2979  0.2543
 2444SOL     ow 9773   6.309   5.894   5.213 -0.1778 -1.1152 -0.2373
 2444SOL     hw 9774   6.284   5.982   5.187 -0.8543 -0.7905  1.3443
 2444SOL     hw 9775   6.259   5.836   5.155  0.0503 -0.4702 -1.0897
 2444SOL     vw 9776   6.299   5.898   5.202 -0.2370 -0.9873 -0.1409
 2445SOL     ow 9777   1.573   3.023   1.816 -0.1369  0.3013 -0.2300
 2445SOL     hw 9778   1.527   2.974   1.748  0.0930 -0.2479 -0.0048
 2445SOL     hw 9779   1.658   3.045   1.777 -0.5493  1.2461 -0.6179
 2445SOL     vw 9780   1.578   3.019   1.802 -0.1610  0.3533 -0.2515
 2446SOL     ow 9781   4.554   3.344   0.179  0.1640  0.3210  0.2856
 2446SOL     hw 9782   4.547   3.285   0.104  0.3589 -0.7346  1.0675
 2446SOL     hw 9783   4.489   3.412   0.162  1.2094  0.9526 -1.5575
 2446SOL     vw 9784   4.545   3.345   0.167  0.3276  0.2649  0.1456
 2447SOL     ow 9785   5.654   5.212   4.134  0.1821 -1.2096  0.8360
 2447SOL     hw 9786   5.655   5.213   4.039 -1.1818 -1.9619  0.7856
 2447SOL     hw 9787   5.705   5.134   4.157 -0.7435 -1.8984  0.6430
 2447SOL     vw 9788   5.661   5.202   4.125 -0.1199 -1.4000  0.8039
 2448SOL     ow 9789   1.740   2.543   1.439 -0.0000  0.2969  0.3159
 2448SOL     hw 9790   1.713   2.592   1.362 -1.5216  1.5911  1.6014
 2448SOL     hw 9791   1.668   2.483   1.456 -0.1008  0.6691  1.2525
 2448SOL     vw 9792   1.727   2.541   1.431 -0.2141  0.5167  0.6090
 2449SOL     ow 9793   6.509   5.206   6.087 -0.5610  0.4485  0.1859
 2449SOL     hw 9794   6.581   5.147   6.107  1.2158  1.1424 -3.2521
 2449SOL     hw 9795   6.456   5.158   6.024 -0.0896  1.7576 -1.2854
 2449SOL     vw 9796   6.511   5.192   6.081 -0.2644  0.7126 -0.4618
 2450SOL     ow 9797   0.119   0.466   4.768  0.1949  0.5881  0.2924
 2450SOL     hw 9798   0.214   0.451   4.764 -0.0657 -1.4538  0.5133
 2450SOL     hw 9799   0.093   0.485   4.678  0.9226  2.1400  0.3808
 2450SOL     vw 9800   0.128   0.466   4.756  0.2565  0.5234  0.3331
 2451SOL     ow 9801   0.474   3.971   4.864  0.4878 -0.4370  0.0325
 2451SOL     hw 9802   0.551   3.919   4.886  1.0927  0.8361  1.0516
 2451SOL     hw 9803   0.503   4.062   4.869 -0.8953  0.0612 -0.2926
 2451SOL     vw 9804   0.488   3.976   4.868  0.3851 -0.2034  0.1242
 2452SOL     ow 9805   3.998   0.615   5.513 -0.2486  0.0826 -0.2098
 2452SOL     hw 9806   4.057   0.567   5.454 -0.7673 -0.0356 -0.6381
 2452SOL     hw 9807   3.976   0.695   5.465 -2.2223 -0.8873 -1.0605
 2452SOL     vw 9808   4.003   0.620   5.499 -0.5774 -0.0610 -0.3786
 2453SOL     ow 9809   1.880   1.037   5.519  0.1024  1.2185  0.4525
 2453SOL     hw 9810   1.835   1.107   5.472 -0.5903  1.2816  1.1940
 2453SOL     hw 9811   1.972   1.047   5.494 -0.1730  1.5430 -0.5079
 2453SOL     vw 9812   1.886   1.048   5.509 -0.0253  1.2696  0.4234
 2454SOL     ow 9813   2.889   5.952   4.210 -0.0419 -0.3238 -0.3508
 2454SOL     hw 9814   2.905   5.893   4.136 -1.5377  1.1622 -1.9466
 2454SOL     hw 9815   2.973   5.997   4.223  0.9634 -2.3439  0.5458
 2454SOL     vw 9816   2.902   5.950   4.202 -0.1066 -0.3941 -0.4432
 2455SOL     ow 9817   1.486   2.278   6.345  0.3752  0.2015  0.0515
 2455SOL     hw 9818   1.557   2.325   6.389  0.2181  0.4478  0.0407
 2455SOL     hw 9819   1.510   2.185   6.354  1.5889  0.3334 -1.4530
 2455SOL     vw 9820   1.499   2.272   6.352  0.5147  0.2514 -0.1483
 2456SOL     ow 9821   6.143   6.383   0.548 -0.9285  0.3744 -0.4647
 2456SOL     hw 9822   6.055   6.376   0.513 -1.0481  1.8494 -0.5231
 2456SOL     hw 9823   6.199   6.340   0.483 -1.4379  0.7496 -1.1537
 2456SOL     vw 9824   6.139   6.376   0.535 -1.0114  0.6187 -0.5633
 2457SOL     ow 9825   1.503   0.205   0.339  0.0013 -0.5705  0.4176
 2457SOL     hw 9826   1.434   0.261   0.374 -0.3457 -0.5627 -0.2587
 2457SOL     hw 9827   1.536   0.156   0.414 -1.2648 -1.1318  0.6205
 2457SOL     vw 9828   1.499   0.206   0.353 -0.2115 -0.6435  0.3552
 2458SOL     ow 9829   7.437   1.815   1.267 -0.5174 -0.0654  0.1341
 2458SOL     hw 9830   7.515   1.829   1.214  0.2150 -1.7065  0.7163
 2458SOL     hw 9831   7.403   1.903   1.283 -0.9796  0.5292 -3.2704
 2458SOL     vw 9832   7.442   1.829   1.262 -0.4816 -0.2035 -0.2382
 2459SOL     ow 9833   0.490   3.604   6.374  0.0479  0.0795 -0.0490
 2459SOL     hw 9834   0.404   3.636   6.400  0.5981  0.9940  0.7385
 2459SOL     hw 9835   0.545   3.683   6.371  0.9985 -0.5569  0.0849
 2459SOL     vw 9836   0.486   3.619   6.377  0.2459  0.1161  0.0727
 2460SOL     ow 9837   3.481   0.125   3.932  0.7010  0.0263  0.3938
 2460SOL     hw 9838   3.503   0.067   3.859  1.8093  1.3472 -0.3644
 2460SOL     hw 9839   3.397   0.092   3.964  0.8038 -1.3579 -0.6570
 2460SOL     vw 9840   3.472   0.113   3.927  0.8608  0.0179  0.1551
 2461SOL     ow 9841   5.716   5.476   5.130 -0.4196  0.0918 -0.4495
 2461SOL     hw 9842   5.699   5.568   5.149 -1.1048 -0.2774  0.8127
 2461SOL     hw 9843   5.748   5.476   5.039 -1.0020  1.5008 -0.6784
 2461SOL     vw 9844   5.718   5.488   5.120 -0.5870  0.2289 -0.3130
 2462SOL     ow 9845   4.094   1.429   2.925  0.3099  0.4082  0.7284
 2462SOL     hw 9846   4.173   1.402   2.971  0.5638 -1.3023 -0.5781
 2462SOL     hw 9847   4.117   1.425   2.832 -1.5633 -1.2180  0.2495
 2462SOL     vw 9848   4.107   1.425   2.918  0.0961 -0.0320  0.4929
 2463SOL     ow 9849   1.722   6.935   1.608 -0.2967  0.0882 -0.0728
 2463SOL     hw 9850   1.665   7.000   1.566  1.6004  1.3448 -0.8332
 2463SOL     hw 9851   1.772   6.985   1.673  1.6907 -0.4105 -1.1471
 2463SOL     vw 9852   1.721   6.950   1.611  0.2159  0.1884 -0.3149
 2464SOL     ow 9853   2.567   4.481   1.060 -0.2068  0.5443 -0.4905
 2464SOL     hw 9854   2.653   4.479   1.017 -1.5908  1.6846 -3.6549
 2464SOL     hw 9855   2.581   4.533   1.139  2.7175 -2.4426  1.2097
 2464SOL     vw 9856   2.581   4.487   1.065 -0.0036  0.3004 -0.6837
 2465SOL     ow 9857   6.395   7.557   4.709 -0.4694 -0.4700  0.9800
 2465SOL     hw 9858   6.475   7.534   4.757 -0.8814 -2.4206  0.8171
 2465SOL     hw 9859   6.423   7.562   4.618 -0.5878 -1.5589  0.8729
 2465SOL     vw 9860   6.409   7.555   4.704 -0.5398 -0.8709  0.9444
 2466SOL     ow 9861   3.706   3.878   2.726 -0.0521  0.4091 -0.1321
 2466SOL     hw 9862   3.691   3.945   2.792  0.2447  1.0357 -0.6873
 2466SOL     hw 9863   3.779   3.912   2.674 -0.0607 -0.2331 -0.5711
 2466SOL     vw 9864   3.714   3.892   2.728 -0.0141  0.4070 -0.2632
 2467SOL     ow 9865   6.753   5.551   6.355 -0.3990 -0.3681 -0.1730
 2467SOL     hw 9866   6.733   5.644   6.346  1.4084  0.0280 -0.3872
 2467SOL     hw 9867   6.847   5.547   6.368 -0.5007 -2.1527  0.3133
 2467SOL     vw 9868   6.762   5.563   6.355 -0.1738 -0.5515 -0.1371
 2468SOL     ow 9869   4.426   3.715   3.274 -0.7171  0.6756  0.0798
 2468SOL     hw 9870   4.345   3.680   3.311 -0.6897  0.8415  0.2914
 2468SOL     hw 9871   4.458   3.644   3.217 -0.2308  0.0285  1.1424
 2468SOL     vw 9872   4.419   3.701   3.271 -0.6495  0.6120  0.2480
 2469SOL     ow 9873   0.993   7.254   5.994 -0.9744  0.8159  0.5305
 2469SOL     hw 9874   1.063   7.212   6.043 -2.0372  0.1502  1.5475
 2469SOL     hw 9875   1.019   7.246   5.902  0.3457  0.7434  0.8977
 2469SOL     vw 9876   1.005   7.247   5.988 -0.9405  0.7184  0.7131
 2470SOL     ow 9877   0.863   3.448   4.596 -0.1830 -0.5010 -0.4385
 2470SOL     hw 9878   0.914   3.510   4.544  1.4588 -2.0009 -0.7169
 2470SOL     hw 9879   0.819   3.393   4.531  1.2596 -1.8855 -0.3042
 2470SOL     vw 9880   0.864   3.449   4.580  0.2239 -0.8816 -0.4575
 2471SOL     ow 9881   0.653   3.922   3.439  0.7728  0.2020 -0.0995
 2471SOL     hw 9882   0.592   3.923   3.512  0.8058 -0.3193 -0.0572
 2471SOL     hw 9883   0.605   3.880   3.367  0.9059  0.2544 -0.2215
 2471SOL     vw 9884   0.639   3.917   3.439  0.7947  0.1401 -0.1100
 2472SOL     ow 9885   2.979   1.697   4.221  0.3307 -1.0944 -1.4145
 2472SOL     hw 9886   3.023   1.772   4.260 -1.0734 -1.2917  0.7304
 2472SOL     hw 9887   2.896   1.733   4.188 -0.2753 -1.6270 -0.5219
 2472SOL     vw 9888   2.974   1.712   4.222  0.0656 -1.1907 -1.0138
 2473SOL     ow 9889   2.084   6.080   4.719 -0.1919 -0.0162 -0.2190
 2473SOL     hw 9890   2.017   6.147   4.707  1.0824  1.8356  2.1069
 2473SOL     hw 9891   2.135   6.082   4.638 -1.8969 -0.2936 -1.3494
 2473SOL     vw 9892   2.082   6.089   4.707 -0.2487  0.1915 -0.0613
 2474SOL     ow 9893   4.493   3.483   6.653  0.5371  0.2392  0.3604
 2474SOL     hw 9894   4.405   3.446   6.646 -1.1406  3.7529  0.7361
 2474SOL     hw 9895   4.493   3.531   6.736  1.8379  2.5213 -0.8551
 2474SOL     vw 9896   4.481   3.484   6.663  0.4873  1.0040  0.2496
 2475SOL     ow 9897   5.458   5.004   1.586  0.0169 -0.7332  0.3214
 2475SOL     hw 9898   5.434   5.015   1.494 -2.8463 -0.1566  1.0256
 2475SOL     hw 9899   5.490   5.090   1.613  0.2995 -0.7414  0.0198
 2475SOL     vw 9900   5.459   5.017   1.577 -0.3233 -0.6580  0.3745
 2476SOL     ow 9901   6.950   4.711   1.334 -0.1662  0.4595  0.1357
 2476SOL     hw 9902   6.986   4.657   1.405  0.0381  1.2624  0.6472
 2476SOL     hw 9903   6.998   4.682   1.256  3.2657  2.9687  1.1106
 2476SOL     vw 9904   6.961   4.700   1.333  0.3138  0.8967  0.3318
 2477SOL     ow 9905   3.573   7.455   1.598 -0.1047 -0.0155 -0.6010
 2477SOL     hw 9906   3.514   7.504   1.655  0.9430 -1.3634  1.7934
 2477SOL     hw 9907   3.531   7.370   1.587  0.0099  0.0172 -1.3210
 2477SOL     vw 9908   3.560   7.450   1.604  0.0488 -0.1888 -0.3800
 2478SOL     ow 9909   7.156   4.961   7.218  0.2149  0.2436  0.3295
 2478SOL     hw 9910   7.137   4.897   7.149 -1.8206  0.2372  0.8162
 2478SOL     hw 9911   7.085   5.025   7.211 -0.6202 -0.2556  2.9705
 2478SOL     vw 9912   7.144   4.961   7.208 -0.1643  0.1769  0.7420
 2479SOL     ow 9913   4.495   3.632   6.863  0.2122  0.0535  0.3784
 2479SOL     hw 9914   4.429   3.570   6.892 -0.1830 -0.0908 -0.8087
 2479SOL     hw 9915   4.447   3.712   6.842  0.7371  0.8839  2.1079
 2479SOL     vw 9916   4.480   3.634   6.864  0.2294  0.1440  0.4499
 2480SOL     ow 9917   0.854   5.637   4.057  0.3156 -0.0344 -0.0298
 2480SOL     hw 9918   0.864   5.557   4.005  1.3006  0.0674 -0.0199
 2480SOL     hw 9919   0.838   5.706   3.993 -1.2142 -0.3263  0.0066
 2480SOL     vw 9920   0.854   5.635   4.042  0.2437 -0.0596 -0.0236
 2481SOL     ow 9921   4.119   3.022   2.535 -0.2548 -0.1339  0.0112
 2481SOL     hw 9922   4.078   3.015   2.448  0.9827  2.6390 -0.8893
 2481SOL     hw 9923   4.046   3.039   2.594 -0.9942 -0.9301 -0.6423
 2481SOL     vw 9924   4.104   3.023   2.531 -0.1893  0.1270 -0.1937
 2482SOL     ow 9925   0.918   1.435   6.357 -0.0617  0.5297  0.8707
 2482SOL     hw 9926   1.011   1.457   6.350 -0.1532  0.3863 -1.6142
 2482SOL     hw 9927   0.878   1.514   6.394  0.9336  0.9187  1.1586
 2482SOL     vw 9928   0.925   1.449   6.361  0.0575  0.5622  0.5808
 2483SOL     ow 9929   7.186   4.957   7.490 -0.4869 -0.3313  0.3076
 2483SOL     hw 9930   7.202   4.934   7.399 -0.0232 -0.8629  0.5138
 2483SOL     hw 9931   7.273   4.957   7.531 -0.6357  0.3673  0.6482
 2483SOL     vw 9932   7.200   4.954   7.484 -0.4451 -0.3092  0.3796
 2484SOL     ow 9933   5.781   7.393   1.204  0.1361 -0.2595 -0.0103
 2484SOL     hw 9934   5.832   7.313   1.189 -0.7847 -0.8903  0.0963
 2484SOL     hw 9935   5.789   7.442   1.122 -1.2888 -1.6343 -1.0383
 2484SOL     vw 9936   5.789   7.389   1.191 -0.1738 -0.5240 -0.1319
 2485SOL     ow 9937   4.517   1.691   2.872 -0.1925 -0.0471 -0.0528
 2485SOL     hw 9938   4.433   1.657   2.841 -0.4065 -0.6279  1.1184
 2485SOL     hw 9939   4.493   1.756   2.939  0.2911 -0.0096  0.0882
 2485SOL     vw 9940   4.503   1.695   2.877 -0.1571 -0.1187  0.1204
 2486SOL     ow 9941   5.295   6.994   6.793 -0.1781 -0.4298 -0.5006
 2486SOL     hw 9942   5.206   6.960   6.787 -0.2884 -0.3568  0.4637
 2486SOL     hw 9943   5.291   7.079   6.749 -0.0759 -1.2938 -2.2624
 2486SOL     vw 9944   5.283   7.001   6.786 -0.1793 -0.5343 -0.6058
 2487SOL     ow 9945   0.664   6.839   4.613 -0.6719 -0.5001 -0.0275
 2487SOL     hw 9946   0.666   6.909   4.547 -1.5641 -0.5243 -0.0879
 2487SOL     hw 9947   0.676   6.885   4.697  1.5172 -0.5701 -0.2422
 2487SOL     vw 9948   0.666   6.854   4.616 -0.5008 -0.5124 -0.0639
 2488SOL     ow 9949   6.647   5.480   6.598  0.1926 -0.4737 -0.2355
 2488SOL     hw 9950   6.692   5.492   6.514 -0.2737  0.4847 -0.3578
 2488SOL     hw 9951   6.717   5.482   6.663  0.6928 -2.3049 -0.6466
 2488SOL     vw 9952   6.662   5.482   6.596  0.1972 -0.5889 -0.3061
 2489SOL     ow 9953   3.885   5.514   0.287  0.2916  0.1783  0.1072
 2489SOL     hw 9954   3.837   5.575   0.344 -0.4733  0.4210 -0.7713
 2489SOL     hw 9955   3.974   5.513   0.323  0.2688  1.6541  0.2889
 2489SOL     vw 9956   3.891   5.522   0.299  0.1876  0.4053  0.0153
 2490SOL     ow 9957   0.922   1.510   1.129 -0.7050 -0.2545  0.5867
 2490SOL     hw 9958   0.959   1.485   1.044 -2.0275  1.1320 -0.4657
 2490SOL     hw 9959   0.956   1.445   1.190  1.1400 -0.6871 -0.7939
 2490SOL     vw 9960   0.931   1.498   1.126 -0.6360 -0.1286  0.2657
 2491SOL     ow 9961   3.997   0.249   2.235  0.1643 -0.0111 -0.0378
 2491SOL     hw 9962   3.996   0.165   2.190 -0.4327 -0.3859  0.6368
 2491SOL     hw 9963   3.904   0.272   2.245  0.1034 -1.0835  2.9924
 2491SOL     vw 9964   3.984   0.241   2.231  0.0775 -0.2021  0.4508
 2492SOL     ow 9965   5.775   1.186   5.477 -0.2200  0.2856  0.5451
 2492SOL     hw 9966   5.764   1.229   5.392  0.1964  0.2631  0.4783
 2492SOL     hw 9967   5.870   1.185   5.491  0.0086 -2.7306 -0.5428
 2492SOL     vw 9968   5.786   1.192   5.467 -0.1347 -0.1153  0.3927
 2493SOL     ow 9969   2.310   6.407   0.870 -0.3080  0.3649  0.7631
 2493SOL     hw 9970   2.268   6.321   0.877 -0.9158  0.7351  2.0055
 2493SOL     hw 9971   2.372   6.409   0.943 -0.8253  1.2497  1.1930
 2493SOL     vw 9972   2.313   6.396   0.880 -0.4562  0.5305  0.9837
 2494SOL     ow 9973   5.574   6.957   7.020 -0.5379 -0.1127 -0.2576
 2494SOL     hw 9974   5.544   6.867   7.037 -1.4993 -0.2992 -2.5705
 2494SOL     hw 9975   5.509   7.012   7.063 -2.1299 -0.5580 -1.9451
 2494SOL     vw 9976   5.561   6.952   7.028 -0.8748 -0.1957 -0.7856
 2495SOL     ow 9977   5.676   3.906   4.535  0.2457  0.1636 -0.1748
 2495SOL     hw 9978   5.681   3.927   4.442  1.0294 -0.5251 -0.2939
 2495SOL     hw 9979   5.765   3.880   4.559  0.1488  0.7200  0.8630
 2495SOL     vw 9980   5.689   3.905   4.526  0.3362  0.1463 -0.0536
 2496SOL     ow 9981   5.836   0.427   7.483  0.0801  0.3366  0.0224
 2496SOL     hw 9982   5.806   0.492   7.419  0.1184  1.8372  1.4705
 2496SOL     hw 9983   5.881   0.478   7.550  1.4683 -1.3614  0.4624
 2496SOL     vw 9984   5.838   0.442   7.484  0.2685  0.3105  0.2713
 2497SOL     ow 9985   3.540   4.776   2.662  0.3959 -0.4181  0.6085
 2497SOL     hw 9986   3.465   4.747   2.714 -0.4349  0.5171 -0.0358
 2497SOL     hw 9987   3.504   4.844   2.604  1.6343 -0.3153 -0.0640
 2497SOL     vw 9988   3.525   4.781   2.661  0.4497 -0.2813  0.4349
 2498SOL     ow 9989   3.426   6.618   7.180 -0.1163 -0.4165 -0.4511
 2498SOL     hw 9990   3.377   6.537   7.194 -0.0361 -0.0906  2.1168
 2498SOL     hw 9991   3.361   6.687   7.187 -0.0783 -0.1691 -2.0426
 2498SOL     vw 9992   3.411   6.616   7.183 -0.1007 -0.3407 -0.3223
 2499SOL     ow 9993   2.110   6.025   3.488 -0.0304  0.5282 -0.8622
 2499SOL     hw 9994   2.201   6.035   3.460  0.1737 -2.3650 -1.6161
 2499SOL     hw 9995   2.065   5.990   3.411 -0.9410 -1.4376  0.4674
 2499SOL     vw 9996   2.116   6.021   3.474 -0.1235 -0.1130 -0.7862
 2500SOL     ow 9997   2.585   7.007   4.461 -0.2370 -0.2010  0.7399
 2500SOL     hw 9998   2.644   6.932   4.462 -0.6512 -0.5334  1.0233
 2500SOL     hw 9999   2.497   6.968   4.460 -0.4830  0.2625 -1.8034
 2500SOL     vw10000   2.581   6.992   4.461 -0.3241 -0.1838  0.4416
 2501SOL     ow10001   3.110   4.559   1.626  0.7840  0.5434 -0.9044
 2501SOL     hw10002   3.084   4.479   1.672  0.4496  0.5376 -1.0949
 2501SOL     hw10003   3.195   4.582   1.663  0.8118  0.1843 -0.7384
 2501SOL     vw10004   3.118   4.551   1.637  0.7435  0.4954 -0.9075
 2502SOL     ow10005   4.403   0.492   2.425  0.0409 -0.3295  0.2959
 2502SOL     hw10006   4.345   0.417   2.415  2.2225 -1.8882 -1.9651
 2502SOL     hw10007   4.382   0.548   2.350 -0.1946  0.3321  0.8478
 2502SOL     vw10008   4.393   0.490   2.414  0.2975 -0.4478  0.0706
 2503SOL     ow10009   6.565   1.412   2.227 -0.3944 -0.2384 -0.5594
 2503SOL     hw10010   6.565   1.317   2.240  0.8905 -0.3213 -1.0310
 2503SOL     hw10011   6.475   1.433   2.202 -0.3313 -1.5938 -2.1132
 2503SOL     vw10012   6.553   1.402   2.225 -0.2165 -0.4283 -0.8267
 2504SOL     ow10013   1.788   7.343   4.457 -0.2784 -1.0345 -0.0815
 2504SOL     hw10014   1.738   7.352   4.538  1.5949 -3.9658  1.6354
 2504SOL     hw10015   1.725   7.359   4.387 -2.1864  0.8277  1.9224
 2504SOL     vw10016   1.773   7.346   4.459 -0.2830 -1.1754  0.4096
 2505SOL     ow10017   7.432   1.204   2.236 -0.7611 -0.9574 -0.0044
 2505SOL     hw10018   7.503   1.233   2.293 -0.6120  0.3247 -0.8196
 2505SOL     hw10019   7.374   1.155   2.294 -0.5235  0.1556  1.2071
 2505SOL     vw10020   7.434   1.201   2.251 -0.7098 -0.6414  0.0478
 2506SOL     ow10021   2.078   6.146   6.362 -0.1242 -0.1572  0.5241
 2506SOL     hw10022   2.021   6.111   6.431  1.2228 -0.3736  1.5776
 2506SOL     hw10023   2.020   6.200   6.309 -1.8646 -2.4050 -0.0153
 2506SOL     vw10024   2.063   6.148   6.364 -0.1762 -0.4823  0.5922
 2507SOL     ow10025   6.049   0.826   1.766  0.4429  0.0635 -0.2743
 2507SOL     hw10026   6.011   0.742   1.792 -1.5160  1.1167  0.4567
 2507SOL     hw10027   6.050   0.878   1.846 -0.8783  1.6254 -1.2192
 2507SOL     vw10028   6.044   0.822   1.780  0.0103  0.4085 -0.3024
 2508SOL     ow10029   5.322   0.902   4.127  0.3314 -0.2972  0.3145
 2508SOL     hw10030   5.251   0.951   4.170  1.3345  0.8806  0.6912
 2508SOL     hw10031   5.401   0.950   4.150  1.5303 -2.6866  1.5386
 2508SOL     vw10032   5.323   0.915   4.136  0.6218 -0.4571  0.5255
 2509SOL     ow10033   1.774   3.701   2.732  0.0703 -0.0216 -0.0790
 2509SOL     hw10034   1.691   3.741   2.706 -0.5856 -1.8980 -1.0991
 2509SOL     hw10035   1.833   3.719   2.659 -0.4817 -1.5726 -0.9465
 2509SOL     vw10036   1.771   3.709   2.719 -0.0891 -0.4737 -0.3281
 2510SOL     ow10037   3.131   1.574   3.954 -0.0428 -0.3126 -0.3862
 2510SOL     hw10038   3.223   1.596   3.966 -0.2681  1.5756 -1.6275
 2510SOL     hw10039   3.103   1.628   3.879 -2.8583  1.3782  1.6845
 2510SOL     vw10040   3.140   1.584   3.946 -0.4441  0.1596 -0.2768
 2511SOL     ow10041   5.165   4.979   7.443  0.1309  0.3998  0.6964
 2511SOL     hw10042   5.228   5.032   7.393 -1.3713  2.0219  0.4031
 2511SOL     hw10043   5.126   5.041   7.505 -1.5677 -0.3734  0.4657
 2511SOL     vw10044   5.168   4.994   7.444 -0.2916  0.5116  0.6273
 2512SOL     ow10045   7.228   0.997   7.209  0.9194  0.4400 -0.2161
 2512SOL     hw10046   7.193   1.086   7.211  0.2360  0.1672  1.0126
 2512SOL     hw10047   7.237   0.973   7.301  0.8029 -0.8729 -0.5269
 2512SOL     vw10048   7.224   1.006   7.222  0.8137  0.2308 -0.0949
 2513SOL     ow10049   7.023   6.595   1.824 -0.2193  0.1492  0.5653
 2513SOL     hw10050   7.028   6.654   1.900 -1.7631  2.0913 -0.7364
 2513SOL     hw10051   6.930   6.585   1.808  0.0757 -0.1948 -1.0989
 2513SOL     vw10052   7.012   6.601   1.832 -0.3843  0.3600  0.1740
 2514SOL     ow10053   5.496   1.920   2.508 -0.0328 -0.4448  1.3542
 2514SOL     hw10054   5.467   1.917   2.599  1.3786 -2.2151  1.8099
 2514SOL     hw10055   5.496   2.013   2.485 -0.7094  0.0001  3.0533
 2514SOL     vw10056   5.492   1.932   2.517  0.0639 -0.6196  1.6385
 2515SOL     ow10057   4.253   2.067   2.067  0.1296 -0.6263 -0.1886
 2515SOL     hw10058   4.270   2.159   2.087  1.5150 -1.0351  0.7286
 2515SOL     hw10059   4.313   2.019   2.125  0.8463 -2.0529 -2.0120
 2515SOL     vw10060   4.263   2.073   2.077  0.4067 -0.8684 -0.3082
 2516SOL     ow10061   0.445   3.726   7.411 -0.1056  0.0771 -0.5752
 2516SOL     hw10062   0.529   3.720   7.458 -1.3341 -2.0632  1.5338
 2516SOL     hw10063   0.438   3.643   7.364 -0.4499  0.8368 -1.9301
 2516SOL     vw10064   0.455   3.714   7.411 -0.3131 -0.1051 -0.4754
 2517SOL     ow10065   4.463   5.852   2.316 -0.1515  0.3206 -0.0301
 2517SOL     hw10066   4.549   5.810   2.318 -1.2554 -2.1638  2.3181
 2517SOL     hw10067   4.464   5.912   2.391  0.3740  2.3850 -1.6026
 2517SOL     vw10068   4.475   5.855   2.326 -0.2279  0.2654  0.0721
 2518SOL     ow10069   2.698   1.137   5.235  0.0771  0.5416  0.4775
 2518SOL     hw10070   2.709   1.083   5.156  1.1402  0.1471  0.8803
 2518SOL     hw10071   2.662   1.220   5.203  1.6955  0.8682 -0.5956
 2518SOL     vw10072   2.694   1.141   5.220  0.4309  0.5327  0.3891
 2519SOL     ow10073   6.816   5.203   7.045 -0.5132  0.0564  0.1679
 2519SOL     hw10074   6.810   5.198   7.140  0.9280  2.2150  0.4584
 2519SOL     hw10075   6.840   5.294   7.027 -0.9046 -0.2383 -2.2851
 2519SOL     vw10076   6.818   5.214   7.055 -0.3743  0.3026 -0.1173
 2520SOL     ow10077   4.062   5.698   4.079  0.4030  0.0144  0.3180
 2520SOL     hw10078   4.106   5.614   4.066  1.8165  0.2642  2.8295
 2520SOL     hw10079   4.051   5.734   3.991 -0.0707 -2.6617 -0.8253
 2520SOL     vw10080   4.066   5.691   4.066  0.5271 -0.3059  0.4985
 2521SOL     ow10081   5.838   1.685   6.438  0.0761  0.4275  0.3631
 2521SOL     hw10082   5.873   1.596   6.445 -1.8865 -0.4809 -0.7027
 2521SOL     hw10083   5.786   1.697   6.517  0.5662  0.7656  0.6435
 2521SOL     vw10084   5.836   1.675   6.449 -0.1185  0.3523  0.2594
 2522SOL     ow10085   1.907   1.911   6.182  0.2481 -0.2435 -0.1024
 2522SOL     hw10086   1.860   1.995   6.186  3.1544  1.5680 -0.7688
 2522SOL     hw10087   1.979   1.927   6.121  1.4619 -2.9667  0.4680
 2522SOL     vw10088   1.911   1.924   6.175  0.7917 -0.3638 -0.1154
 2523SOL     ow10089   1.900   5.810   4.845  0.6916  0.0969  0.5283
 2523SOL     hw10090   1.900   5.728   4.895  0.2379 -1.4095 -1.8066
 2523SOL     hw10091   1.846   5.792   4.768  0.9881  2.4450 -0.3254
 2523SOL     vw10092   1.893   5.797   4.842  0.6709  0.2079  0.1075
 2524SOL     ow10093   5.454   2.006   4.586 -0.0311 -0.2489  0.2526
 2524SOL     hw10094   5.548   2.018   4.599 -0.4363 -0.2506  4.3760
 2524SOL     hw10095   5.426   2.084   4.537  2.1100 -0.6110 -1.7521
 2524SOL     vw10096   5.463   2.018   4.581  0.1981 -0.2970  0.5319
 2525SOL     ow10097   5.741   2.348   2.266 -0.3549  0.3930 -0.6645
 2525SOL     hw10098   5.788   2.412   2.319 -1.7538  0.0634  1.0840
 2525SOL     hw10099   5.796   2.269   2.269 -0.8445  0.0710  1.1780
 2525SOL     vw10100   5.754   2.346   2.273 -0.6042  0.3071 -0.1907
 2526SOL     ow10101   0.852   4.073   3.273  0.6808 -0.5359 -0.2249
 2526SOL     hw10102   0.831   4.166   3.262  0.4474 -0.4019  1.1976
 2526SOL     hw10103   0.866   4.042   3.184  1.0256  0.9190 -0.7196
 2526SOL     vw10104   0.851   4.082   3.260  0.6955 -0.3262 -0.1024
 2527SOL     ow10105   1.235   4.810   3.155 -0.6425 -0.4886 -0.8018
 2527SOL     hw10106   1.321   4.818   3.112  0.9202 -2.0565  1.7847
 2527SOL     hw10107   1.206   4.901   3.166  0.4824  0.0636 -2.0656
 2527SOL     vw10108   1.243   4.823   3.150 -0.2879 -0.6225 -0.6273
 2528SOL     ow10109   1.129   1.281   4.357  0.4146 -0.0964  0.1395
 2528SOL     hw10110   1.152   1.192   4.386  2.5629 -0.1148 -1.4233
 2528SOL     hw10111   1.074   1.267   4.280 -0.8285 -0.0352  0.9889
 2528SOL     vw10112   1.125   1.267   4.351  0.5340 -0.0907  0.0453
 2529SOL     ow10113   1.245   2.434   6.283  0.3285  0.4415  0.5540
 2529SOL     hw10114   1.255   2.503   6.349  1.2349 -0.0500  0.9453
 2529SOL     hw10115   1.329   2.390   6.281 -0.3181 -0.8326  0.4863
 2529SOL     vw10116   1.257   2.437   6.291  0.3628  0.2086  0.5970
 2530SOL     ow10117   0.566   7.500   4.535  0.4128 -0.0540  0.1158
 2530SOL     hw10118   0.558   7.429   4.598 -2.6227  0.2837  0.2933
 2530SOL     hw10119   0.659   7.520   4.532  1.0317 -2.2205  2.0517
 2530SOL     vw10120   0.577   7.493   4.543  0.0939 -0.2954  0.3943
 2531SOL     ow10121   0.652   1.617   1.061  0.1372 -0.2351  0.5252
 2531SOL     hw10122   0.652   1.696   1.116  2.4555 -0.6587  1.2525
 2531SOL     hw10123   0.737   1.577   1.078 -1.1366 -3.1492  0.5031
 2531SOL     vw10124   0.663   1.622   1.070  0.2750 -0.6755  0.6183
 2532SOL     ow10125   2.865   1.432   0.594 -0.3371  0.5423  0.5370
 2532SOL     hw10126   2.880   1.492   0.520 -1.1305  0.9177  0.6770
 2532SOL     hw10127   2.917   1.355   0.572  1.4797  1.6160  0.8008
 2532SOL     vw10128   2.874   1.430   0.581 -0.2021  0.7334  0.5902
 2533SOL     ow10129   3.113   2.253   6.909 -0.1364  0.6506  0.5077
 2533SOL     hw10130   3.182   2.313   6.882  0.0339  0.8833  1.4232
 2533SOL     hw10131   3.049   2.308   6.954  0.3591  0.0690  1.9807
 2533SOL     vw10132   3.113   2.268   6.911 -0.0485  0.6045  0.8228
 2534SOL     ow10133   4.030   4.650   4.986 -0.0965 -1.0185  0.8065
 2534SOL     hw10134   3.957   4.708   4.963  1.4425  0.7931  0.2646
 2534SOL     hw10135   4.049   4.671   5.077  0.0919 -1.1156  0.7897
 2534SOL     vw10136   4.023   4.660   4.995  0.1311 -0.7923  0.7327
 2535SOL     ow10137   6.835   0.967   4.291 -0.5607 -0.4145 -0.2614
 2535SOL     hw10138   6.780   1.003   4.361  0.0436 -2.7393  1.4861
 2535SOL     hw10139   6.785   0.985   4.211 -2.1106  0.7565  0.9072
 2535SOL     vw10140   6.821   0.974   4.289 -0.6857 -0.5667  0.1233
 2536SOL     ow10141   0.417   5.230   3.224  0.3881 -0.1669 -0.5866
 2536SOL     hw10142   0.447   5.164   3.161 -2.2346 -2.4171  0.3307
 2536SOL     hw10143   0.475   5.220   3.299 -0.6900 -2.4309  0.0342
 2536SOL     vw10144   0.428   5.220   3.226 -0.1002 -0.7625 -0.3837
 2537SOL     ow10145   2.904   2.331   5.284  0.1649  0.6159  0.2149
 2537SOL     hw10146   2.940   2.384   5.354  0.8315 -0.8339  1.0236
 2537SOL     hw10147   2.812   2.319   5.309  0.1715  0.8571  0.3622
 2537SOL     vw10148   2.896   2.336   5.297  0.2537  0.4565  0.3412
 2538SOL     ow10149   1.463   1.004   6.701 -0.1933 -0.1124  0.7150
 2538SOL     hw10150   1.368   1.017   6.701 -0.1003  0.6483  1.3294
 2538SOL     hw10151   1.482   0.961   6.784  0.0705  0.2890  0.8643
 2538SOL     vw10152   1.453   1.000   6.712 -0.1463  0.0409  0.8159
 2539SOL     ow10153   6.923   0.473   6.432  0.5497 -0.5095 -0.5345
 2539SOL     hw10154   6.894   0.528   6.359 -0.5348 -0.7144 -0.2786
 2539SOL     hw10155   7.012   0.503   6.451  0.5819  0.0320 -1.4650
 2539SOL     vw10156   6.931   0.484   6.425  0.4108 -0.4651 -0.6235
 2540SOL     ow10157   0.803   1.375   1.448 -0.0589  0.4055  0.1965
 2540SOL     hw10158   0.763   1.312   1.509 -0.9189  0.2352 -0.5183
 2540SOL     hw10159   0.742   1.448   1.447  0.5146  0.8897  0.3800
 2540SOL     vw10160   0.789   1.376   1.456 -0.0966  0.4469  0.1263
 2541SOL     ow10161   5.989   2.224   3.198 -0.4350  0.2827  0.2134
 2541SOL     hw10162   5.997   2.248   3.106 -1.3525  1.6077  0.4627
 2541SOL     hw10163   5.919   2.159   3.200 -2.5086  2.3939  0.2717
 2541SOL     vw10164   5.981   2.218   3.186 -0.8297  0.7360  0.2539
 2542SOL     ow10165   6.361   0.382   3.517 -0.3927  0.6728  0.2310
 2542SOL     hw10166   6.370   0.288   3.530  1.4096  0.1549 -3.4635
 2542SOL     hw10167   6.428   0.421   3.575 -0.6863 -0.3078  1.2679
 2542SOL     vw10168   6.371   0.375   3.527 -0.1934  0.4751 -0.1196
 2543SOL     ow10169   7.511   5.204   1.260  0.0950 -0.3041  0.5381
 2543SOL     hw10170   7.453   5.189   1.335 -0.2455 -0.2943  0.2810
 2543SOL     hw10171   7.500   5.297   1.239 -1.4962 -0.7542 -0.8807
 2543SOL     vw10172   7.502   5.214   1.267 -0.1597 -0.3622  0.3170
 2544SOL     ow10173   3.286   2.738   3.622 -0.3112  0.3779 -0.2218
 2544SOL     hw10174   3.296   2.671   3.555  2.5124  0.0207  0.4517
 2544SOL     hw10175   3.194   2.765   3.615 -0.1466  0.4682 -4.2542
 2544SOL     vw10176   3.275   2.733   3.612  0.0831  0.3426 -0.6648
 2545SOL     ow10177   4.773   7.493   1.087 -0.3450 -0.1537  0.9900
 2545SOL     hw10178   4.686   7.506   1.125 -0.3289  0.2409  0.9019
 2545SOL     hw10179   4.824   7.568   1.118 -0.2593  0.0358  0.4054
 2545SOL     vw10180   4.768   7.505   1.096 -0.3319 -0.0768  0.9013
 2546SOL     ow10181   5.071   1.320   7.452  0.2187  0.0670  0.5267
 2546SOL     hw10182   5.104   1.274   7.529 -0.7018 -2.7659 -0.6617
 2546SOL     hw10183   5.012   1.387   7.487 -1.0265 -1.8565  2.3037
 2546SOL     vw10184   5.067   1.323   7.467 -0.0670 -0.5606  0.6042
 2547SOL     ow10185   7.191   1.594   0.490 -0.0729 -1.0398 -0.0397
 2547SOL     hw10186   7.176   1.636   0.406  0.1276 -1.0345 -0.0754
 2547SOL     hw10187   7.287   1.583   0.494 -0.1197 -1.4470 -0.0109
 2547SOL     vw10188   7.202   1.598   0.480 -0.0527 -1.0928 -0.0406
 2548SOL     ow10189   2.556   4.132   4.115 -0.0975  0.3672 -0.2542
 2548SOL     hw10190   2.585   4.046   4.145 -1.8615 -0.3468 -0.4997
 2548SOL     hw10191   2.523   4.117   4.027  2.0072  1.8410 -1.3916
 2548SOL     vw10192   2.556   4.118   4.107 -0.0526  0.4675 -0.4363
 2549SOL     ow10193   1.102   0.207   0.407  0.4005 -0.2845  0.7072
 2549SOL     hw10194   1.156   0.286   0.412 -1.1123  0.7479  1.3252
 2549SOL     hw10195   1.117   0.174   0.318  0.7016  0.9654  0.2711
 2549SOL     vw10196   1.111   0.213   0.396  0.2406  0.0167  0.7312
 2550SOL     ow10197   4.634   5.605   7.136  0.7477  0.9489 -0.5560
 2550SOL     hw10198   4.708   5.649   7.179  0.7946 -1.6976  2.4624
 2550SOL     hw10199   4.674   5.531   7.090  0.2059  1.0996 -1.2902
 2550SOL     vw10200   4.649   5.601   7.136  0.6821  0.6196 -0.2549
 2551SOL     ow10201   0.360   1.741   2.830 -0.0470  0.0266 -0.0181
 2551SOL     hw10202   0.341   1.834   2.835 -2.0014 -0.2313 -1.4313
 2551SOL     hw10203   0.287   1.699   2.876 -0.0518 -0.8526 -0.7945
 2551SOL     vw10204   0.348   1.748   2.837 -0.3055 -0.1234 -0.3071
 2552SOL     ow10205   6.990   4.045   3.771 -0.3785 -0.1438 -0.1235
 2552SOL     hw10206   7.055   3.991   3.817  0.3640 -0.2481 -1.2706
 2552SOL     hw10207   6.905   4.006   3.795  0.0249 -0.5575  0.6690
 2552SOL     vw10208   6.987   4.033   3.780 -0.2272 -0.2122 -0.1704
 2553SOL     ow10209   4.209   6.520   0.737  0.0636 -0.0346 -0.0740
 2553SOL     hw10210   4.132   6.530   0.793 -0.8124  0.9571 -1.4029
 2553SOL     hw10211   4.220   6.605   0.695  2.7414  0.2902  1.0955
 2553SOL     vw10212   4.200   6.533   0.739  0.3016  0.1392 -0.0951
 2554SOL     ow10213   1.794   4.973   2.988  0.3814  0.2212  0.2414
 2554SOL     hw10214   1.839   4.967   3.072  0.9551  0.5486 -0.0403
 2554SOL     hw10215   1.863   4.962   2.923  0.2739  2.0116 -0.2125
 2554SOL     vw10216   1.809   4.971   2.991  0.4429  0.5007  0.1442
 2555SOL     ow10217   2.414   2.272   0.381  0.3370 -0.3027  0.1195
 2555SOL     hw10218   2.455   2.207   0.437  0.3859 -1.5937 -1.3662
 2555SOL     hw10219   2.324   2.242   0.370 -0.8630  1.9509  2.4981
 2555SOL     vw10220   2.407   2.260   0.387  0.1850 -0.1757  0.2373
 2556SOL     ow10221   2.023   5.949   3.740  0.1132  1.2984  0.0264
 2556SOL     hw10222   2.037   5.973   3.648 -2.0301 -0.1301 -0.7594
 2556SOL     hw10223   2.022   6.032   3.786  2.1617  1.9923 -1.0596
 2556SOL     vw10224   2.025   5.963   3.734  0.1006  1.2016 -0.2207
 2557SOL     ow10225   3.357   6.607   3.762 -0.6769  0.7532 -0.8877
 2557SOL     hw10226   3.420   6.536   3.752 -0.3759  1.0148 -0.8663
 2557SOL     hw10227   3.327   6.601   3.853  0.0051  1.1902 -0.6276
 2557SOL     vw10228   3.361   6.597   3.773 -0.5473  0.8457 -0.8506
 2558SOL     ow10229   0.438   1.978   5.348 -0.2451  0.6395 -0.3929
 2558SOL     hw10230   0.444   2.035   5.271 -1.1769 -0.0898 -1.0187
 2558SOL     hw10231   0.353   1.936   5.341  0.2720 -0.5732  0.2437
 2558SOL     vw10232   0.428   1.980   5.337 -0.2998  0.3832 -0.3917
 2559SOL     ow10233   1.242   2.162   1.873  0.8487  0.7401 -0.0616
 2559SOL     hw10234   1.158   2.165   1.826  0.8222  0.1119 -0.0650
 2559SOL     hw10235   1.277   2.251   1.865  2.5042 -0.0361 -4.3218
 2559SOL     vw10236   1.235   2.174   1.866  1.0636  0.5548 -0.6242
 2560SOL     ow10237   5.420   1.993   6.296 -0.2840 -0.2301  0.0881
 2560SOL     hw10238   5.371   1.990   6.214 -1.0653 -0.7719  0.5692
 2560SOL     hw10239   5.494   1.933   6.281 -1.2493 -1.5087  0.2901
 2560SOL     vw10240   5.424   1.984   6.283 -0.5145 -0.4702  0.1781
 2561SOL     ow10241   7.217   6.085   1.205 -0.0174 -0.1654  0.6138
 2561SOL     hw10242   7.226   6.059   1.114  0.1143  0.0310  0.5706
 2561SOL     hw10243   7.125   6.067   1.226  0.4103 -2.1072  1.0347
 2561SOL     vw10244   7.206   6.079   1.196  0.0565 -0.3955  0.6636
 2562SOL     ow10245   1.642   5.519   4.988  0.0471  0.0627 -0.0786
 2562SOL     hw10246   1.729   5.490   5.016  0.8042  1.1181 -1.2711
 2562SOL     hw10247   1.608   5.445   4.938  0.1421 -0.4607  0.6164
 2562SOL     vw10248   1.649   5.505   4.985  0.1594  0.1328 -0.1442
 2563SOL     ow10249   4.469   0.664   3.431 -0.9923  0.3941  0.0848
 2563SOL     hw10250   4.505   0.747   3.400 -1.1925  0.2389 -0.5828
 2563SOL     hw10251   4.506   0.599   3.371 -0.4733 -0.0579  0.8787
 2563SOL     vw10252   4.479   0.666   3.419 -0.9506  0.3140  0.1016
 2564SOL     ow10253   1.609   1.390   6.435 -0.2422 -0.1083  0.4888
 2564SOL     hw10254   1.600   1.479   6.469  2.1228  0.9763 -1.4299
 2564SOL     hw10255   1.632   1.338   6.512 -1.0567  1.0371  1.5571
 2564SOL     vw10256   1.611   1.395   6.450 -0.0376  0.1860  0.3767
 2565SOL     ow10257   5.482   3.719   1.097  0.3694  0.2853 -0.0265
 2565SOL     hw10258   5.516   3.693   1.011  0.2423 -0.2033  0.0654
 2565SOL     hw10259   5.559   3.718   1.154  0.4977  0.8410 -0.1784
 2565SOL     vw10260   5.497   3.715   1.093  0.3698  0.2943 -0.0344
 2566SOL     ow10261   0.920   2.125   0.209 -0.2922 -0.8659 -0.5635
 2566SOL     hw10262   0.970   2.100   0.132  0.6192 -0.6481 -0.0627
 2566SOL     hw10263   0.915   2.044   0.262  3.1016 -0.0410  1.3008
 2566SOL     vw10264   0.926   2.111   0.206  0.2758 -0.7284 -0.2515
 2567SOL     ow10265   3.981   5.230   6.344 -0.1307  0.1902 -0.4036
 2567SOL     hw10266   3.922   5.298   6.377  0.2384  0.2642  0.1295
 2567SOL     hw10267   3.931   5.183   6.278 -0.5786  0.6314 -0.3799
 2567SOL     vw10268   3.967   5.233   6.340 -0.1411  0.2582 -0.3300
 2568SOL     ow10269   0.218   0.508   0.578 -0.6874 -0.1734  0.2999
 2568SOL     hw10270   0.263   0.572   0.633  0.8923  0.2368 -1.3713
 2568SOL     hw10271   0.221   0.546   0.490 -0.6665 -2.0619 -0.5496
 2568SOL     vw10272   0.224   0.522   0.574 -0.4762 -0.3684 -0.0327
 2569SOL     ow10273   5.739   3.778   2.012 -0.1156  0.2973  0.0243
 2569SOL     hw10274   5.670   3.784   2.079 -1.6987  2.2371 -1.6150
 2569SOL     hw10275   5.809   3.834   2.045 -2.3737  4.3337 -1.3852
 2569SOL     vw10276   5.739   3.786   2.026 -0.6227  1.0858 -0.3780
 2570SOL     ow10277   0.202   5.083   3.361  0.4246 -0.2653  0.2690
 2570SOL     hw10278   0.280   5.132   3.332  0.7364 -1.2752 -0.6593
 2570SOL     hw10279   0.212   4.997   3.322 -2.9138  0.5512 -2.9180
 2570SOL     vw10280   0.214   5.078   3.352  0.0253 -0.2911 -0.2739
 2571SOL     ow10281   6.701   6.586   2.841  0.3521  0.3166 -1.0261
 2571SOL     hw10282   6.785   6.567   2.800 -0.5099  1.8255 -3.7571
 2571SOL     hw10283   6.715   6.666   2.891  1.0739 -0.7701  0.5843
 2571SOL     vw10284   6.714   6.594   2.842  0.3338  0.3722 -1.1740
 2572SOL     ow10285   2.178   0.003   0.649 -0.0684  0.3165  0.3134
 2572SOL     hw10286   2.102  -0.018   0.595 -0.7013 -1.5786  1.8253
 2572SOL     hw10287   2.158   0.089   0.686 -0.4607  0.8053 -0.9921
 2572SOL     vw10288   2.165   0.012   0.647 -0.2035  0.1311  0.3406
 2573SOL     ow10289   0.630   1.214   1.819 -0.0905 -0.4518 -0.3343
 2573SOL     hw10290   0.611   1.304   1.792  1.4566  0.4897  1.4626
 2573SOL     hw10291   0.718   1.218   1.855 -0.6670 -2.3077  1.4803
 2573SOL     vw10292   0.639   1.226   1.820  0.0376 -0.5724  0.1422
 2574SOL     ow10293   7.183   2.480   2.301 -0.1205 -0.2075  0.3819
 2574SOL     hw10294   7.112   2.427   2.266  0.9836 -1.1977 -0.4154
 2574SOL     hw10295   7.172   2.476   2.396 -2.2063  1.2013  0.2775
 2574SOL     vw10296   7.173   2.473   2.309 -0.2501 -0.1522  0.2630
 2575SOL     ow10297   6.920   1.997   4.510  0.0657  0.7148  0.6418
 2575SOL     hw10298   6.878   1.999   4.424  0.7248 -2.1991  0.1456
 2575SOL     hw10299   7.012   1.977   4.492  0.2649  0.2998  1.9891
 2575SOL     vw10300   6.927   1.995   4.496  0.1788  0.2756  0.7544
 2576SOL     ow10301   6.585   1.181   0.388 -0.0092 -0.2414 -0.6417
 2576SOL     hw10302   6.558   1.183   0.479  1.0395 -1.1325 -0.2830
 2576SOL     hw10303   6.637   1.101   0.380  2.3745  1.2661 -1.2949
 2576SOL     vw10304   6.588   1.170   0.399  0.4432 -0.1601 -0.6806
 2577SOL     ow10305   3.821   3.788   2.937 -0.4652  0.2693  0.0365
 2577SOL     hw10306   3.871   3.868   2.953 -0.0945 -0.3378  2.2679
 2577SOL     hw10307   3.806   3.787   2.843  1.3370  1.8889 -0.3206
 2577SOL     vw10308   3.826   3.798   2.927 -0.1785  0.4029  0.2838
 2578SOL     ow10309   3.894   7.415   6.819 -0.2650  0.5998 -0.8603
 2578SOL     hw10310   3.888   7.379   6.731  0.2586 -1.6658 -0.0501
 2578SOL     hw10311   3.867   7.342   6.876  0.9006  1.4938  0.9222
 2578SOL     vw10312   3.890   7.400   6.815 -0.0421  0.4189 -0.5178
 2579SOL     ow10313   4.686   2.828   2.407 -0.5211 -0.2482 -0.0327
 2579SOL     hw10314   4.671   2.843   2.314  0.5655  0.1328 -0.1496
 2579SOL     hw10315   4.706   2.734   2.413 -0.0326 -0.1601 -0.2592
 2579SOL     vw10316   4.686   2.817   2.396 -0.3130 -0.1863 -0.0781
 2580SOL     ow10317   4.350   1.955   6.949 -0.2146  0.7963 -0.4165
 2580SOL     hw10318   4.430   1.968   6.898  0.0052  0.6645 -0.1094
 2580SOL     hw10319   4.332   2.040   6.988 -0.4838  0.9447 -0.8510
 2580SOL     vw10320   4.358   1.968   6.948 -0.2210  0.7985 -0.4332
 2581SOL     ow10321   7.517   4.646   3.697  0.0656  0.3011 -0.2491
 2581SOL     hw10322   7.539   4.595   3.619 -1.4851 -0.5809 -0.1415
 2581SOL     hw10323   7.562   4.730   3.684 -0.6580  0.4117 -2.3877
 2581SOL     vw10324   7.526   4.651   3.685 -0.2344  0.1993 -0.5170
 2582SOL     ow10325   4.176   5.301   3.297  0.3085  0.4422  0.0341
 2582SOL     hw10326   4.216   5.308   3.210  0.5138 -1.8437 -0.1221
 2582SOL     hw10327   4.147   5.390   3.317  1.6297  1.3350 -1.6980
 2582SOL     vw10328   4.177   5.313   3.288  0.5102  0.2584 -0.2149
 2583SOL     ow10329   3.863   5.232   0.343  0.5422  0.3504  0.0658
 2583SOL     hw10330   3.805   5.213   0.416 -2.3857 -0.2143 -2.2382
 2583SOL     hw10331   3.859   5.327   0.333 -0.6392  0.2487 -0.5396
 2583SOL     vw10332   3.855   5.242   0.351  0.0000  0.2625 -0.3181
 2584SOL     ow10333   2.339   0.042   5.023  0.2674 -0.3540  0.7580
 2584SOL     hw10334   2.420   0.046   5.074  1.5078 -1.7976 -0.9802
 2584SOL     hw10335   2.326   0.132   4.993  0.0231  0.3299  2.7595
 2584SOL     vw10336   2.348   0.055   5.026  0.3989 -0.4542  0.7927
 2585SOL     ow10337   6.217   6.733   0.575 -0.0289  0.0235 -0.6706
 2585SOL     hw10338   6.174   6.807   0.531 -0.3619  0.0457 -0.3095
 2585SOL     hw10339   6.309   6.759   0.583 -0.3962  0.9868  0.6845
 2585SOL     vw10340   6.223   6.746   0.570 -0.1214  0.1533 -0.4441
 2586SOL     ow10341   5.589   7.425   4.819 -0.4512 -0.2034  0.3560
 2586SOL     hw10342   5.610   7.444   4.727  1.1753 -0.9237  0.5316
 2586SOL     hw10343   5.505   7.379   4.816  0.0492 -1.1025 -0.8784
 2586SOL     vw10344   5.581   7.422   4.806 -0.1705 -0.4170  0.2162
 2587SOL     ow10345   1.322   7.412   0.122 -0.0131  0.0527 -0.3433
 2587SOL     hw10346   1.391   7.348   0.106 -1.0537 -1.1106 -0.3913
 2587SOL     hw10347   1.280   7.424   0.037  0.8627  1.6974 -0.5918
 2587SOL     vw10348   1.325   7.405   0.109 -0.0349  0.1163 -0.3824
 2588SOL     ow10349   3.738   5.710   0.046 -0.7541  0.3244  0.2013
 2588SOL     hw10350   3.739   5.630  -0.007 -1.7717 -0.1453  0.8566
 2588SOL     hw10351   3.830   5.731   0.059 -0.4761 -0.5979 -0.1953
 2588SOL     vw10352   3.750   5.702   0.041 -0.8518  0.1409  0.2355
 2589SOL     ow10353   6.522   5.700   1.967 -0.2608  0.0836 -0.2976
 2589SOL     hw10354   6.534   5.616   2.011 -1.1847 -0.3872 -0.9192
 2589SOL     hw10355   6.609   5.740   1.968 -0.0980 -0.2408  1.2617
 2589SOL     vw10356   6.535   5.695   1.973 -0.3612 -0.0212 -0.1739
 2590SOL     ow10357   2.619   5.535   6.237  0.3794  0.1128  0.2588
 2590SOL     hw10358   2.587   5.460   6.187 -0.1584 -0.1244  0.9418
 2590SOL     hw10359   2.571   5.610   6.202  0.9399  0.1564 -0.4458
 2590SOL     vw10360   2.609   5.535   6.226  0.3825  0.0873  0.2561
 2591SOL     ow10361   4.145   6.491   4.864  0.7566  0.6385 -0.1993
 2591SOL     hw10362   4.057   6.511   4.832  0.6593  0.1439 -0.2437
 2591SOL     hw10363   4.135   6.480   4.958  1.1882  2.9323  0.1846
 2591SOL     vw10364   4.132   6.492   4.872  0.8008  0.8757 -0.1545
 2592SOL     ow10365   5.958   1.522   7.388 -0.3713  0.0400  0.2772
 2592SOL     hw10366   5.965   1.431   7.360  0.5081  0.5306 -1.1899
 2592SOL     hw10367   5.949   1.517   7.483  0.0868 -1.5554  0.2654
 2592SOL     vw10368   5.958   1.509   7.397 -0.1948 -0.1057  0.0823
 2593SOL     ow10369   0.829   1.241   5.803  0.3563  0.2222  0.0460
 2593SOL     hw10370   0.737   1.258   5.824 -0.1758 -1.7615 -0.4214
 2593SOL     hw10371   0.864   1.326   5.778 -1.8605  0.7519 -1.5947
 2593SOL     vw10372   0.821   1.254   5.802 -0.0064  0.0304 -0.2322
 2594SOL     ow10373   1.378   6.973   0.485  0.2533  0.9246 -0.2819
 2594SOL     hw10374   1.356   6.895   0.535  0.9542  1.5488  1.0457
 2594SOL     hw10375   1.381   6.943   0.394 -4.3498  0.4204 -0.5143
 2594SOL     vw10376   1.376   6.959   0.479 -0.2615  0.9401 -0.1374
 2595SOL     ow10377   2.656   6.321   4.753  0.6556 -0.2340 -0.6696
 2595SOL     hw10378   2.619   6.314   4.841  0.9509 -1.0630 -0.6036
 2595SOL     hw10379   2.583   6.304   4.695  0.8377 -1.6112 -0.5417
 2595SOL     vw10380   2.642   6.318   4.757  0.7187 -0.5250 -0.6442
 2596SOL     ow10381   4.118   5.585   0.388 -0.2312  0.3903 -0.5159
 2596SOL     hw10382   4.205   5.615   0.360  0.0253 -0.6276 -0.8663
 2596SOL     hw10383   4.079   5.661   0.432 -0.0870  1.6244 -2.3829
 2596SOL     vw10384   4.124   5.599   0.390 -0.1783  0.4189 -0.8085
 2597SOL     ow10385   5.047   7.415   4.534 -0.7817  1.1181 -0.0540
 2597SOL     hw10386   5.061   7.326   4.502  0.1652  1.5744 -1.0177
 2597SOL     hw10387   5.016   7.405   4.624  1.4802 -0.1749  0.6668
 2597SOL     vw10388   5.045   7.402   4.542 -0.3583  1.0076 -0.0863
 2598SOL     ow10389   1.912   7.571   0.549  0.0286 -0.1494  0.3191
 2598SOL     hw10390   1.847   7.619   0.601  1.2051  3.8305 -1.4521
 2598SOL     hw10391   1.869   7.489   0.525 -2.5305  0.2651  2.9637
 2598SOL     vw10392   1.898   7.567   0.553 -0.1538  0.4301  0.4343
 2599SOL     ow10393   4.976   7.518   4.772 -1.0581 -0.6271  0.0059
 2599SOL     hw10394   4.904   7.566   4.731  0.4185  1.4068 -0.3804
 2599SOL     hw10395   4.933   7.457   4.832 -3.1748 -1.6356 -2.3622
 2599SOL     vw10396   4.961   7.517   4.775 -1.1427 -0.4916 -0.3574
 2600SOL     ow10397   0.858   5.016   4.182 -0.4159  0.1209 -0.4048
 2600SOL     hw10398   0.863   5.056   4.095 -1.2366  0.3690 -0.3444
 2600SOL     hw10399   0.928   4.950   4.182  0.4055  0.9822 -0.7905
 2600SOL     vw10400   0.868   5.012   4.170 -0.4158  0.2675 -0.4478
 2601SOL     ow10401   0.271   7.567   6.878 -0.0580  0.8833 -0.3861
 2601SOL     hw10402   0.276   7.655   6.915 -1.0029  0.3776  1.0571
 2601SOL     hw10403   0.328   7.569   6.801  1.4330  2.2130  0.7034
 2601SOL     vw10404   0.279   7.579   6.873  0.0140  0.9921 -0.0520
 2602SOL     ow10405   0.836   4.652   5.972  0.1599 -0.4095 -0.5110
 2602SOL     hw10406   0.848   4.746   5.959  0.4863 -0.2836  0.6504
 2602SOL     hw10407   0.925   4.617   5.977  0.0449 -0.8519 -1.3425
 2602SOL     vw10408   0.849   4.660   5.971  0.1878 -0.4511 -0.4675
 2603SOL     ow10409   3.595   6.637   0.949 -0.4267 -0.0390 -0.4456
 2603SOL     hw10410   3.515   6.585   0.955 -0.4314  0.0371  0.2189
 2603SOL     hw10411   3.570   6.724   0.978 -0.0564 -0.0747  0.0027
 2603SOL     vw10412   3.581   6.641   0.954 -0.3786 -0.0339 -0.2987
 2604SOL     ow10413   3.664   6.689   5.686  0.2876 -0.2576 -0.0377
 2604SOL     hw10414   3.695   6.675   5.775  0.1773 -0.5102 -0.0386
 2604SOL     hw10415   3.682   6.606   5.641 -1.1975 -0.7242  0.1884
 2604SOL     vw10416   3.670   6.676   5.692  0.0771 -0.3524 -0.0079
 2605SOL     ow10417   0.447   3.693   1.270 -0.5726  0.0133 -0.4183
 2605SOL     hw10418   0.382   3.647   1.324 -0.5123  0.9972  0.5270
 2605SOL     hw10419   0.531   3.664   1.304 -0.4140 -2.0526 -2.3025
 2605SOL     vw10420   0.450   3.683   1.282 -0.5437 -0.1295 -0.5422
 2606SOL     ow10421   4.509   5.617   3.044  0.0742 -0.6605 -0.1396
 2606SOL     hw10422   4.516   5.612   3.140 -0.9567  0.7743  0.0251
 2606SOL     hw10423   4.418   5.639   3.027  0.1812 -1.1629 -1.4813
 2606SOL     vw10424   4.498   5.619   3.055 -0.0474 -0.5376 -0.2949
 2607SOL     ow10425   4.041   7.301   3.255 -0.0125 -0.6042  0.7566
 2607SOL     hw10426   4.097   7.376   3.235  0.4026 -0.6190  1.8111
 2607SOL     hw10427   3.952   7.335   3.246  0.0435 -0.9837 -2.5377
 2607SOL     vw10428   4.037   7.315   3.251  0.0498 -0.6561  0.4610
 2608SOL     ow10429   0.702   7.163   6.816 -0.2921  0.1939 -0.0999
 2608SOL     hw10430   0.726   7.243   6.770 -2.1378  0.4410 -0.6927
 2608SOL     hw10431   0.748   7.094   6.767 -1.6290  0.5259 -1.9489
 2608SOL     vw10432   0.712   7.164   6.803 -0.7120  0.2701 -0.4220
 2609SOL     ow10433   5.196   7.143   4.607 -0.1040 -0.3138  0.0227
 2609SOL     hw10434   5.254   7.142   4.531  2.1132 -0.7314  1.6073
 2609SOL     hw10435   5.192   7.052   4.635 -2.5984 -0.5121 -0.7228
 2609SOL     vw10436   5.203   7.131   4.601 -0.1407 -0.3953  0.1335
 2610SOL     ow10437   1.956   4.426   1.855 -0.1739 -0.7267  0.1014
 2610SOL     hw10438   1.885   4.457   1.799  0.7749 -0.6740 -1.1179
 2610SOL     hw10439   2.032   4.476   1.826  0.5940 -1.5636  0.6357
 2610SOL     vw10440   1.957   4.437   1.844  0.0526 -0.8302  0.0110
 2611SOL     ow10441   2.463   4.097   5.974  0.1168 -0.4643  0.0014
 2611SOL     hw10442   2.368   4.105   5.976  0.0158 -0.8843 -1.7023
 2611SOL     hw10443   2.480   4.006   5.998  0.2228  0.0146  1.9124
 2611SOL     vw10444   2.453   4.086   5.978  0.1175 -0.4563  0.0288
 2612SOL     ow10445   0.016   5.158   3.859  0.0360 -0.6566 -0.1515
 2612SOL     hw10446  -0.037   5.201   3.926 -1.4531 -0.2194 -1.5371
 2612SOL     hw10447   0.106   5.175   3.885 -0.5028  0.2502  1.2568
 2612SOL     vw10448   0.021   5.166   3.871 -0.2316 -0.4792 -0.1485
 2613SOL     ow10449   2.470   1.551   5.963 -0.4772 -0.2154 -0.0710
 2613SOL     hw10450   2.424   1.506   5.893 -2.2108  2.8467 -1.1289
 2613SOL     hw10451   2.430   1.518   6.043 -0.2386 -1.9337 -0.6174
 2613SOL     vw10452   2.459   1.541   5.964 -0.6745 -0.0381 -0.2828
 2614SOL     ow10453   0.143   0.976   3.376  0.1276 -0.2813 -0.1383
 2614SOL     hw10454   0.079   0.915   3.339 -1.2905  0.3847  1.0948
 2614SOL     hw10455   0.124   1.060   3.334 -0.5822  0.1659  1.0283
 2614SOL     vw10456   0.132   0.979   3.366 -0.1532 -0.1344  0.1783
 2615SOL     ow10457   2.113   5.030   1.519  0.1491 -0.0728 -0.5972
 2615SOL     hw10458   2.194   5.028   1.468  1.5855  0.9059  1.4904
 2615SOL     hw10459   2.116   4.951   1.573 -0.6422 -0.3804 -0.9866
 2615SOL     vw10460   2.124   5.019   1.520  0.2344  0.0160 -0.3732
 2616SOL     ow10461   5.306   0.748   4.466  0.0384  0.3307 -0.3144
 2616SOL     hw10462   5.400   0.762   4.468  0.4125 -1.8116 -0.7399
 2616SOL     hw10463   5.280   0.769   4.376  0.1288  0.7449 -0.2466
 2616SOL     vw10464   5.315   0.752   4.455  0.0997  0.1027 -0.3617
 2617SOL     ow10465   4.409   7.283   7.569  0.0915  0.3375 -0.2006
 2617SOL     hw10466   4.495   7.245   7.590  0.2871  1.1522  0.5316
 2617SOL     hw10467   4.419   7.319   7.481  1.1460  2.1696  0.6025
 2617SOL     vw10468   4.422   7.283   7.560  0.2565  0.6866  0.0019
 2618SOL     ow10469   3.017   7.188   2.717  0.2323 -0.3970 -0.4605
 2618SOL     hw10470   2.948   7.122   2.729  0.2293 -0.6690 -1.7909
 2618SOL     hw10471   3.095   7.147   2.753 -0.2933 -0.0186  1.2281
 2618SOL     vw10472   3.018   7.174   2.723  0.1626 -0.3827 -0.4132
 2619SOL     ow10473   2.277   5.240   1.694  0.0701  0.0267 -0.5984
 2619SOL     hw10474   2.362   5.199   1.675 -0.9414 -1.1749 -2.9645
 2619SOL     hw10475   2.215   5.191   1.641 -2.5114 -0.5231  2.6119
 2619SOL     vw10476   2.280   5.228   1.685 -0.4039 -0.2043 -0.4870
 2620SOL     ow10477   5.752   1.809   3.093  0.5632  0.0244  0.1682
 2620SOL     hw10478   5.844   1.789   3.079  0.6423 -0.1841  0.9491
 2620SOL     hw10479   5.734   1.881   3.033  1.1672 -0.0928 -0.1646
 2620SOL     vw10480   5.762   1.816   3.083  0.6535 -0.0186  0.2273
 2621SOL     ow10481   4.110   1.580   7.626  0.0583  0.2376  0.1599
 2621SOL     hw10482   4.104   1.537   7.541  1.3826 -0.6746  0.4956
 2621SOL     hw10483   4.197   1.619   7.627  0.4344 -0.5880  1.4683
 2621SOL     vw10484   4.121   1.580   7.615  0.2828  0.0083  0.3769
 2622SOL     ow10485   1.340   0.454   0.810 -1.0899 -0.3863  0.0839
 2622SOL     hw10486   1.430   0.430   0.787 -1.4810 -2.2342  0.3495
 2622SOL     hw10487   1.349   0.507   0.889 -0.3597 -3.1130  1.9540
 2622SOL     vw10488   1.353   0.458   0.817 -1.0452 -0.9898  0.3657
 2623SOL     ow10489   5.041   0.925   5.101 -0.4556  0.2055  0.1118
 2623SOL     hw10490   5.088   0.882   5.029 -1.6452  1.4626 -1.4920
 2623SOL     hw10491   5.069   0.878   5.179  0.9735 -1.1579 -1.1477
 2623SOL     vw10492   5.051   0.913   5.102 -0.4241  0.1915 -0.2661
 2624SOL     ow10493   2.309   3.461   7.138  0.1272  0.0100 -1.0809
 2624SOL     hw10494   2.321   3.501   7.052  1.8488  1.1497 -0.3751
 2624SOL     hw10495   2.225   3.494   7.168  1.4818  3.3235 -0.5120
 2624SOL     vw10496   2.300   3.471   7.130  0.5330  0.5976 -0.9131
 2625SOL     ow10497   5.199   0.623   1.383  0.3650  0.4772 -0.3521
 2625SOL     hw10498   5.106   0.606   1.396  0.0950  0.3030 -2.2616
 2625SOL     hw10499   5.221   0.577   1.302  1.2047  3.5571 -2.0382
 2625SOL     vw10500   5.190   0.615   1.374  0.4401  0.8606 -0.8265
 2626SOL     ow10501   5.488   3.568   6.927  0.1599 -0.5121 -0.1381
 2626SOL     hw10502   5.548   3.599   6.859 -0.0575  1.0241  0.3297
 2626SOL     hw10503   5.454   3.485   6.893 -0.4777  0.5401 -2.2681
 2626SOL     vw10504   5.491   3.561   6.913  0.0472 -0.1706 -0.3574
 2627SOL     ow10505   7.240   4.845   4.298 -0.2242  0.1835  0.2407
 2627SOL     hw10506   7.148   4.837   4.323  0.2524  3.4246  3.9763
 2627SOL     hw10507   7.279   4.761   4.323 -1.6558 -0.1187  1.6342
 2627SOL     vw10508   7.233   4.833   4.305 -0.3500  0.5710  0.9174
 2628SOL     ow10509   7.576   7.516   2.805  0.3206 -0.2252 -0.1263
 2628SOL     hw10510   7.510   7.511   2.735  1.6917 -0.4479 -1.4373
 2628SOL     hw10511   7.525   7.535   2.883 -1.4777 -1.7527 -0.8482
 2628SOL     vw10512   7.560   7.518   2.806  0.2642 -0.4561 -0.3946
 2629SOL     ow10513   6.964   1.035   2.051  0.3246  0.2147 -0.0091
 2629SOL     hw10514   6.935   1.118   2.088 -2.3104 -0.6781  0.1401
 2629SOL     hw10515   7.033   1.005   2.110  0.6044  1.7845  0.5061
 2629SOL     vw10516   6.970   1.042   2.064  0.0138  0.3040  0.0786
 2630SOL     ow10517   3.230   7.055   5.732 -0.9450  0.5625  0.3329
 2630SOL     hw10518   3.202   6.977   5.779  1.7617 -0.6592  0.0807
 2630SOL     hw10519   3.214   7.035   5.640  0.9473 -0.2981  0.1545
 2630SOL     vw10520   3.224   7.042   5.726 -0.3382  0.2875  0.2761
 2631SOL     ow10521   4.960   5.106   3.996 -0.6305 -0.6988  0.0254
 2631SOL     hw10522   5.036   5.055   4.024 -1.6998 -1.7798  1.0571
 2631SOL     hw10523   4.898   5.041   3.963 -1.4614  0.0732  0.0139
 2631SOL     vw10524   4.962   5.091   3.995 -0.8812 -0.7396  0.1600
 2632SOL     ow10525   0.487   1.102   6.465 -0.6357  0.0107  0.4712
 2632SOL     hw10526   0.574   1.065   6.479 -0.5355  0.9890  3.0726
 2632SOL     hw10527   0.436   1.073   6.541 -1.6962  1.8446  0.5208
 2632SOL     vw10528   0.492   1.093   6.477 -0.7624  0.3817  0.8211
 2633SOL     ow10529   6.758   2.194   5.220  0.2165  1.1783 -1.1843
 2633SOL     hw10530   6.734   2.263   5.283 -0.4774  0.0019 -0.1111
 2633SOL     hw10531   6.695   2.205   5.149 -2.5329 -0.6560  0.7291
 2633SOL     vw10532   6.746   2.205   5.219 -0.2377  0.7811 -0.7904
 2634SOL     ow10533   4.554   1.478   0.062 -0.2339  0.5647 -0.4650
 2634SOL     hw10534   4.482   1.537   0.038  0.4617  1.0340 -1.4462
 2634SOL     hw10535   4.570   1.496   0.155 -0.8365  1.0330 -0.4434
 2634SOL     vw10536   4.546   1.488   0.071 -0.2215  0.6884 -0.5916
 2635SOL     ow10537   0.014   0.299   0.591  0.1031  0.1448 -0.6219
 2635SOL     hw10538  -0.044   0.334   0.523 -0.2318  0.4944 -0.1580
 2635SOL     hw10539   0.100   0.336   0.570  0.3128 -0.8507 -1.6638
 2635SOL     vw10540   0.018   0.308   0.579  0.0865  0.0596 -0.6981
 2636SOL     ow10541   2.030   0.244   7.176 -0.5825  0.5583  0.1409
 2636SOL     hw10542   2.050   0.163   7.130 -1.1623  0.9667 -0.8735
 2636SOL     hw10543   2.033   0.221   7.269 -0.0758 -0.4533 -0.1140
 2636SOL     vw10544   2.033   0.231   7.182 -0.5921  0.4788 -0.0265
 2637SOL     ow10545   1.260   1.927   5.849  0.2279 -0.0404 -0.1710
 2637SOL     hw10546   1.227   1.841   5.874  0.9239  0.3601  2.4455
 2637SOL     hw10547   1.272   1.973   5.932  3.3855  1.2893 -1.2144
 2637SOL     vw10548   1.257   1.922   5.864  0.7363  0.1879  0.0367
 2638SOL     ow10549   4.844   5.798   0.296  0.5059  0.1998 -0.2150
 2638SOL     hw10550   4.872   5.884   0.267 -2.4368  0.7170 -1.9087
 2638SOL     hw10551   4.913   5.739   0.267  1.1061  1.6169 -1.8072
 2638SOL     vw10552   4.856   5.801   0.288  0.1967  0.4549 -0.6485
 2639SOL     ow10553   2.645   1.633   4.325 -0.4725  0.7469 -0.1717
 2639SOL     hw10554   2.675   1.662   4.239  0.9024 -1.4543 -0.5314
 2639SOL     hw10555   2.553   1.609   4.311 -0.2177  0.2498 -1.0967
 2639SOL     vw10556   2.637   1.633   4.312 -0.2576  0.3910 -0.3409
 2640SOL     ow10557   4.084   1.940   6.697  0.1439 -0.0850 -0.7636
 2640SOL     hw10558   4.100   1.883   6.621 -2.5982  1.0524 -2.3288
 2640SOL     hw10559   4.150   2.009   6.689  1.4514 -1.2666 -0.6521
 2640SOL     vw10560   4.095   1.942   6.686 -0.0453 -0.0908 -0.9553
 2641SOL     ow10561   3.530   6.700   5.029  0.0538  0.6566  0.5415
 2641SOL     hw10562   3.574   6.729   4.950  0.1842 -0.1526  0.3056
 2641SOL     hw10563   3.480   6.623   5.002 -1.3696  1.4367  0.8382
 2641SOL     vw10564   3.529   6.694   5.015 -0.1169  0.6528  0.5498
 2642SOL     ow10565   7.330   2.717   5.520  0.8782  0.1131  0.4620
 2642SOL     hw10566   7.281   2.754   5.593  0.7062  0.0507  0.3787
 2642SOL     hw10567   7.292   2.629   5.508  0.7406  0.2122  0.1436
 2642SOL     vw10568   7.318   2.710   5.528  0.8373  0.1180  0.4089
 2643SOL     ow10569   6.637   6.299   2.841  0.0235 -0.8031  0.7619
 2643SOL     hw10570   6.642   6.394   2.838 -1.5806 -0.6563  1.4380
 2643SOL     hw10571   6.711   6.268   2.789 -0.2460  0.8222 -0.6396
 2643SOL     vw10572   6.647   6.307   2.834 -0.2236 -0.5689  0.6661
 2644SOL     ow10573   1.690   4.483   1.765 -0.6703 -0.2933 -0.0791
 2644SOL     hw10574   1.619   4.423   1.787 -2.1038  0.3428 -2.5466
 2644SOL     hw10575   1.692   4.483   1.669  1.2673  1.3422 -0.1052
 2644SOL     vw10576   1.681   4.475   1.755 -0.6038  0.0064 -0.4081
 2645SOL     ow10577   6.563   1.254   6.256 -0.4197  0.3645  0.7712
 2645SOL     hw10578   6.648   1.211   6.243 -1.0146 -0.1534 -2.0439
 2645SOL     hw10579   6.501   1.181   6.264 -0.7347  0.7388  1.7975
 2645SOL     vw10580   6.566   1.238   6.255 -0.5398  0.3456  0.5355
 2646SOL     ow10581   6.166   6.439   4.996 -0.8289 -0.6928  0.1470
 2646SOL     hw10582   6.085   6.431   4.945  0.7220  1.2474 -2.9662
 2646SOL     hw10583   6.181   6.352   5.031 -2.2534 -2.1311 -2.5257
 2646SOL     vw10584   6.157   6.427   4.994 -0.8123 -0.6266 -0.6166
 2647SOL     ow10585   6.743   0.243   6.370  0.0582 -0.3576  0.3952
 2647SOL     hw10586   6.649   0.241   6.351 -0.0950  2.0268  0.6315
 2647SOL     hw10587   6.785   0.239   6.285 -0.4335  2.7075 -0.1025
 2647SOL     vw10588   6.736   0.242   6.356 -0.0267  0.3614  0.3607
 2648SOL     ow10589   1.698   1.932   7.246 -0.3226  0.4495  0.0476
 2648SOL     hw10590   1.613   1.950   7.206  0.6196 -0.3867 -2.5582
 2648SOL     hw10591   1.747   2.014   7.237  0.5258 -0.2457 -2.4413
 2648SOL     vw10592   1.693   1.946   7.239 -0.0863  0.2475 -0.6244
 2649SOL     ow10593   6.640   1.035   5.311  0.4129  0.5614 -0.4647
 2649SOL     hw10594   6.561   0.995   5.348  0.4200  1.9183  1.1178
 2649SOL     hw10595   6.646   0.998   5.223 -2.7994  1.4689 -1.1991
 2649SOL     vw10596   6.630   1.025   5.304 -0.0098  0.8602 -0.3531
 2650SOL     ow10597   1.995   7.258   0.734 -0.1699 -0.3349 -0.1975
 2650SOL     hw10598   1.907   7.293   0.717 -0.3623 -0.5203  0.3790
 2650SOL     hw10599   2.017   7.292   0.821 -0.2421 -1.4160  0.2529
 2650SOL     vw10600   1.986   7.267   0.744 -0.2048 -0.5021 -0.0620
 2651SOL     ow10601   2.650   7.322   5.418  0.4206  0.3640  0.1758
 2651SOL     hw10602   2.590   7.393   5.396  0.6659  0.3136 -0.6531
 2651SOL     hw10603   2.697   7.354   5.495 -0.1534  0.6979  0.3933
 2651SOL     vw10604   2.648   7.335   5.426  0.3772  0.4015  0.0951
 2652SOL     ow10605   4.936   6.537   5.659 -0.2534  0.1145 -0.1521
 2652SOL     hw10606   4.931   6.463   5.721  0.5448  0.5013  0.3917
 2652SOL     hw10607   4.847   6.547   5.627 -1.2255  1.2464  2.5580
 2652SOL     vw10608   4.924   6.528   5.663 -0.2763  0.3147  0.2773
 2653SOL     ow10609   6.644   1.948   0.108 -0.4912  0.0054  0.1860
 2653SOL     hw10610   6.550   1.966   0.101 -0.5492 -0.4027 -0.1538
 2653SOL     hw10611   6.650   1.853   0.096  0.1493  0.2562 -2.0418
 2653SOL     vw10612   6.632   1.938   0.105 -0.4141 -0.0154 -0.1528
 2654SOL     ow10613   4.272   5.953   2.170  0.1687  0.0246  0.3340
 2654SOL     hw10614   4.346   5.922   2.223 -0.1243  0.5969  1.1080
 2654SOL     hw10615   4.212   5.991   2.234  0.0424  1.2104 -0.4661
 2654SOL     vw10616   4.274   5.954   2.185  0.1135  0.2565  0.3307
 2655SOL     ow10617   5.107   6.952   5.398  0.2801  1.8770  0.0400
 2655SOL     hw10618   5.050   6.944   5.475 -0.4749  1.8917 -0.5003
 2655SOL     hw10619   5.189   6.988   5.432  0.1778  1.2973  0.9292
 2655SOL     vw10620   5.110   6.956   5.413  0.1671  1.8024  0.0861
 2656SOL     ow10621   5.598   4.410   6.396  0.1477  0.5479  0.0150
 2656SOL     hw10622   5.567   4.499   6.379 -0.9791  0.4743  1.5226
 2656SOL     hw10623   5.518   4.359   6.408  0.8108 -0.4250  0.3956
 2656SOL     vw10624   5.583   4.415   6.395  0.0863  0.4101  0.2642
 2657SOL     ow10625   5.440   2.820   3.838 -0.1950  0.3244 -0.2609
 2657SOL     hw10626   5.348   2.803   3.819 -0.5656 -0.1122  1.7256
 2657SOL     hw10627   5.441   2.903   3.885  0.3612  0.0978  0.1500
 2657SOL     vw10628   5.428   2.829   3.842 -0.1705  0.2369  0.0556
 2658SOL     ow10629   0.995   5.588   4.903  0.7345  0.0228 -0.5024
 2658SOL     hw10630   0.966   5.562   4.990  1.9578 -1.8393 -0.5858
 2658SOL     hw10631   0.937   5.540   4.843  0.6346  0.3947 -0.7051
 2658SOL     vw10632   0.983   5.578   4.906  0.8827 -0.1743 -0.5400
 2659SOL     ow10633   3.719   5.294   7.569 -0.4231  0.2990 -0.0264
 2659SOL     hw10634   3.657   5.289   7.642 -0.5325 -0.2514 -0.1549
 2659SOL     hw10635   3.664   5.294   7.491 -0.2324 -1.9595 -0.2176
 2659SOL     vw10636   3.703   5.293   7.569 -0.4125 -0.0713 -0.0684
 2660SOL     ow10637   7.591   0.828   7.606 -0.1163  0.1040  0.5672
 2660SOL     hw10638   7.525   0.765   7.634  0.2432  0.3681  2.1369
 2660SOL     hw10639   7.584   0.899   7.670  0.5125  0.9560 -0.2770
 2660SOL     vw10640   7.581   0.829   7.618  0.0141  0.2513  0.6628
 2661SOL     ow10641   3.258   5.387   1.778  1.0832  0.6741  0.5595
 2661SOL     hw10642   3.232   5.380   1.870  4.5908 -0.9182  1.6184
 2661SOL     hw10643   3.315   5.311   1.764 -1.6944 -0.9681 -3.9232
 2661SOL     vw10644   3.262   5.376   1.789  1.1793  0.2472  0.1078
 2662SOL     ow10645   6.617   6.793   1.080 -0.5194  0.3478 -0.1569
 2662SOL     hw10646   6.708   6.763   1.080 -0.7052 -0.2518  0.5782
 2662SOL     hw10647   6.606   6.837   0.996 -0.3018 -1.9053 -1.4485
 2662SOL     vw10648   6.628   6.795   1.069 -0.5150 -0.0284 -0.2303
 2663SOL     ow10649   6.622   1.707   6.130 -0.6594  0.3160  0.0633
 2663SOL     hw10650   6.689   1.647   6.096 -1.4658 -0.4000 -0.2767
 2663SOL     hw10651   6.624   1.693   6.225 -2.3939 -1.9589 -0.1547
 2663SOL     vw10652   6.631   1.697   6.138 -0.9944 -0.0786 -0.0103
 2664SOL     ow10653   2.568   3.086   4.181 -0.1675 -0.7353  0.6389
 2664SOL     hw10654   2.489   3.104   4.131 -0.0645 -2.3453 -0.1828
 2664SOL     hw10655   2.629   3.049   4.117  0.6699 -1.0311  1.5742
 2664SOL     vw10656   2.566   3.083   4.166 -0.0435 -0.9867  0.6540
 2665SOL     ow10657   0.308   1.087   6.938  0.4582  0.0365  0.1477
 2665SOL     hw10658   0.226   1.111   6.893  1.0288  0.2229 -0.8267
 2665SOL     hw10659   0.298   0.993   6.956  0.2107 -0.0481 -0.3898
 2665SOL     vw10660   0.296   1.077   6.934  0.5008  0.0499 -0.0517
 2666SOL     ow10661   3.092   3.724   1.786 -0.8726  0.3724  0.3067
 2666SOL     hw10662   3.163   3.741   1.724 -1.3049 -1.9834 -0.9347
 2666SOL     hw10663   3.132   3.672   1.855 -1.0415  0.4182  0.4399
 2666SOL     vw10664   3.107   3.719   1.787 -0.9519  0.0676  0.1605
 2667SOL     ow10665   1.327   2.189   2.298  0.0521 -0.4300 -0.5634
 2667SOL     hw10666   1.397   2.213   2.359  0.6458  1.7167 -1.9966
 2667SOL     hw10667   1.264   2.261   2.304 -1.9917 -2.1836  0.4845
 2667SOL     vw10668   1.328   2.202   2.307 -0.1392 -0.3781 -0.6142
 2668SOL     ow10669   5.198   2.109   5.785 -0.0903 -0.1318  0.6864
 2668SOL     hw10670   5.197   2.056   5.705  3.6113 -0.8881  0.9512
 2668SOL     hw10671   5.139   2.182   5.766 -0.3008 -0.9286 -2.2502
 2668SOL     vw10672   5.190   2.112   5.772  0.3703 -0.3366  0.3338
 2669SOL     ow10673   4.753   3.216   6.376  0.1121 -0.3373 -0.9263
 2669SOL     hw10674   4.733   3.303   6.411 -1.1419 -0.5201 -1.1178
 2669SOL     hw10675   4.836   3.192   6.417 -0.0940  0.4670  0.0165
 2669SOL     vw10676   4.761   3.225   6.386 -0.0806 -0.2552 -0.8273
 2670SOL     ow10677   7.048   3.239   0.409 -0.7199  0.5769  0.0796
 2670SOL     hw10678   7.095   3.315   0.375 -0.0286 -0.2836 -0.9413
 2670SOL     hw10679   7.105   3.206   0.479 -1.5908  1.6706  1.3449
 2670SOL     vw10680   7.062   3.245   0.414 -0.7434  0.6077  0.1118
 2671SOL     ow10681   4.520   5.700   6.863  0.0443 -0.6832 -0.6824
 2671SOL     hw10682   4.563   5.730   6.944  0.0945 -0.5096 -0.7740
 2671SOL     hw10683   4.489   5.612   6.885 -1.8808  0.1670  0.2708
 2671SOL     vw10684   4.522   5.692   6.877 -0.2031 -0.5481 -0.5686
 2672SOL     ow10685   1.409   5.182   0.324  0.3751  0.1478  0.3219
 2672SOL     hw10686   1.340   5.161   0.261  1.2243 -1.7989 -0.0341
 2672SOL     hw10687   1.458   5.254   0.284  0.6718 -0.8099 -1.0848
 2672SOL     vw10688   1.406   5.189   0.311  0.5263 -0.2351  0.0893
 2673SOL     ow10689   5.472   7.147   4.539  0.3050  0.4617  0.6755
 2673SOL     hw10690   5.409   7.149   4.612 -1.7820 -0.7182 -0.9749
 2673SOL     hw10691   5.494   7.054   4.530  0.6312  0.6169 -0.1289
 2673SOL     vw10692   5.467   7.135   4.548  0.0730  0.3266  0.3517
 2674SOL     ow10693   6.809   0.915   5.495 -0.4961 -0.1063 -0.0925
 2674SOL     hw10694   6.778   0.824   5.490 -0.0780 -0.2174 -0.8291
 2674SOL     hw10695   6.780   0.955   5.413 -0.5590  0.3877  0.1689
 2674SOL     vw10696   6.801   0.908   5.483 -0.4492 -0.0558 -0.1552
 2675SOL     ow10697   4.195   6.362   6.031 -0.2370 -0.2260  0.7271
 2675SOL     hw10698   4.133   6.294   6.005  0.5135 -0.5440 -0.3244
 2675SOL     hw10699   4.186   6.429   5.964  0.2983 -0.1187  0.7601
 2675SOL     vw10700   4.186   6.362   6.019 -0.0672 -0.2537  0.5929
 2676SOL     ow10701   5.904   2.947   7.474  0.2678  0.3368  0.5272
 2676SOL     hw10702   5.967   2.917   7.409 -1.0133 -1.4240  0.0131
 2676SOL     hw10703   5.957   2.987   7.543  1.7403  1.1596 -1.0185
 2676SOL     vw10704   5.919   2.948   7.475  0.2933  0.2131  0.2551
 2677SOL     ow10705   1.349   3.079   1.974  0.1653  0.4783  0.0943
 2677SOL     hw10706   1.348   3.025   1.894 -0.1570  0.8114 -0.1296
 2677SOL     hw10707   1.295   3.029   2.036 -0.3895  0.6814 -0.2121
 2677SOL     vw10708   1.341   3.065   1.972  0.0496  0.5492  0.0243
 2678SOL     ow10709   3.291   1.769   6.864 -0.4310  0.7021  0.0151
 2678SOL     hw10710   3.314   1.738   6.777 -2.5372  0.6394 -0.5624
 2678SOL     hw10711   3.311   1.695   6.922  0.9925  0.7536 -0.3673
 2678SOL     vw10712   3.297   1.755   6.860 -0.5212  0.7007 -0.1113
 2679SOL     ow10713   5.607   1.030   0.967 -0.5966 -0.2462  0.1484
 2679SOL     hw10714   5.691   1.074   0.979 -0.1539 -1.3239  1.2275
 2679SOL     hw10715   5.543   1.101   0.967  0.3065  0.6227 -0.9526
 2679SOL     vw10716   5.610   1.045   0.969 -0.4194 -0.2737  0.1455
 2680SOL     ow10717   1.597   1.043   6.008  0.2900  0.4975  0.1096
 2680SOL     hw10718   1.632   1.104   6.073  0.9324 -0.6078  0.8544
 2680SOL     hw10719   1.502   1.051   6.016  0.3660  0.7616  0.8344
 2680SOL     vw10720   1.589   1.052   6.018  0.3849  0.3865  0.3037
 2681SOL     ow10721   4.069   4.052   1.423  0.0683  0.1205 -0.2708
 2681SOL     hw10722   3.992   3.995   1.415 -0.9370  0.6221  3.7912
 2681SOL     hw10723   4.127   4.006   1.482  2.2352  0.5599 -1.9298
 2681SOL     vw10724   4.066   4.038   1.430  0.2215  0.2449  0.0462
 2682SOL     ow10725   6.376   7.317   3.648 -0.3840  0.2731  0.1466
 2682SOL     hw10726   6.415   7.399   3.618  0.5182 -0.8319 -1.9461
 2682SOL     hw10727   6.440   7.250   3.625 -1.7252 -1.1784  0.4409
 2682SOL     vw10728   6.390   7.319   3.641 -0.4423 -0.0641 -0.0906
 2683SOL     ow10729   3.723   1.354   1.260 -0.1096 -0.1744 -0.1975
 2683SOL     hw10730   3.674   1.283   1.220 -0.4093 -0.1024  0.0394
 2683SOL     hw10731   3.809   1.317   1.278 -0.1711 -0.3890 -0.3403
 2683SOL     vw10732   3.728   1.340   1.257 -0.1574 -0.1932 -0.1851
 2684SOL     ow10733   5.130   1.227   1.902  0.7775 -0.6294 -0.0737
 2684SOL     hw10734   5.082   1.206   1.821 -1.2389 -0.3981  0.9904
 2684SOL     hw10735   5.106   1.157   1.962 -0.7148  1.0540  1.4236
 2684SOL     vw10736   5.120   1.215   1.899  0.3147 -0.3768  0.2641
 2685SOL     ow10737   0.122   1.195   0.990 -0.0793  0.3274 -0.6033
 2685SOL     hw10738   0.214   1.170   0.988  0.1102  0.9600 -0.1021
 2685SOL     hw10739   0.077   1.120   1.028  0.2165 -0.0232 -0.9482
 2685SOL     vw10740   0.128   1.182   0.995 -0.0153  0.3646 -0.5827
 2686SOL     ow10741   3.923   3.938   3.545  0.1740  0.5637  0.4889
 2686SOL     hw10742   3.883   3.956   3.630  0.1348  0.8822  0.4043
 2686SOL     hw10743   3.943   3.844   3.548 -1.0192  0.2890  0.3419
 2686SOL     vw10744   3.920   3.928   3.557  0.0112  0.5695  0.4586
 2687SOL     ow10745   7.401   0.967   6.502  0.4731 -0.1302 -0.4222
 2687SOL     hw10746   7.427   1.042   6.555 -0.3073  0.1549 -0.4277
 2687SOL     hw10747   7.463   0.898   6.525  0.4469  0.1413  0.4899
 2687SOL     vw10748   7.413   0.968   6.512  0.3669 -0.0568 -0.3028
 2688SOL     ow10749   2.595   0.917   4.104 -0.0312  1.2230  0.6320
 2688SOL     hw10750   2.669   0.867   4.138  0.7922  1.0450 -1.3088
 2688SOL     hw10751   2.623   0.947   4.017 -2.7899 -0.2625 -0.9202
 2688SOL     vw10752   2.608   0.914   4.097 -0.2867  1.0035  0.1712
 2689SOL     ow10753   3.244   3.491   2.385  0.2294  0.6959  0.3035
 2689SOL     hw10754   3.271   3.484   2.476 -1.4891  1.7460  0.9506
 2689SOL     hw10755   3.322   3.521   2.338  1.2810 -0.3626  1.3117
 2689SOL     vw10756   3.258   3.494   2.391  0.1415  0.6950  0.5219
 2690SOL     ow10757   1.257   5.879   3.614  0.4627 -0.4340  0.9421
 2690SOL     hw10758   1.347   5.862   3.586  0.6773  1.9368 -0.0973
 2690SOL     hw10759   1.266   5.921   3.699  0.2072 -1.6057  1.5663
 2690SOL     vw10760   1.270   5.882   3.621  0.4573 -0.2759  0.8874
 2691SOL     ow10761   6.503   5.647   3.080  0.0671  0.0244 -0.1719
 2691SOL     hw10762   6.464   5.564   3.107  3.6771 -0.3471  5.3792
 2691SOL     hw10763   6.573   5.622   3.020  0.1098 -0.7973  0.2026
 2691SOL     vw10764   6.507   5.633   3.075  0.5491 -0.1328  0.6098
 2692SOL     ow10765   4.244   5.698   2.414  0.1626  0.1334 -0.4869
 2692SOL     hw10766   4.210   5.627   2.359  1.3788 -1.9141  1.2477
 2692SOL     hw10767   4.299   5.749   2.355 -1.8628  0.5632 -2.1170
 2692SOL     vw10768   4.247   5.696   2.399  0.0558 -0.0801 -0.4731
 2693SOL     ow10769   6.229   1.778   5.709  0.4877  0.0478  0.0402
 2693SOL     hw10770   6.211   1.698   5.759  1.9919 -0.2740  0.1345
 2693SOL     hw10771   6.143   1.815   5.691 -0.1589 -0.3843  1.9617
 2693SOL     vw10772   6.215   1.772   5.714  0.6006 -0.0517  0.3059
 2694SOL     ow10773   6.688   5.019   6.204  0.1966  0.6454 -0.9087
 2694SOL     hw10774   6.614   4.959   6.213  0.0267  0.9336 -0.2607
 2694SOL     hw10775   6.756   4.968   6.161  0.4430 -0.3640  0.6126
 2694SOL     vw10776   6.687   5.005   6.200  0.2065  0.5503 -0.6225
 2695SOL     ow10777   0.509   7.089   6.390 -0.0564  0.3527 -0.2184
 2695SOL     hw10778   0.520   7.181   6.417 -0.0006  0.1015  0.6465
 2695SOL     hw10779   0.415   7.075   6.392 -0.0916  0.4988 -0.7349
 2695SOL     vw10780   0.498   7.100   6.394 -0.0537  0.3388 -0.1721
 2696SOL     ow10781   7.404   0.522   2.760  0.3288  0.4925 -0.1245
 2696SOL     hw10782   7.488   0.476   2.758  0.9016  1.5008 -0.2027
 2696SOL     hw10783   7.404   0.574   2.680  0.3595  1.7208  0.6421
 2696SOL     vw10784   7.415   0.523   2.749  0.4084  0.7876 -0.0337
 2697SOL     ow10785   6.170   0.683   2.016  0.4619  0.4234  0.7615
 2697SOL     hw10786   6.088   0.646   1.983 -1.0641  3.0836  1.3478
 2697SOL     hw10787   6.212   0.609   2.061 -1.4175 -1.1118  0.1633
 2697SOL     vw10788   6.165   0.668   2.017  0.0124  0.5719  0.7600
 2698SOL     ow10789   1.618   2.416   1.840 -0.4034 -0.2531  0.4182
 2698SOL     hw10790   1.677   2.476   1.794 -0.4722  2.2075  3.2825
 2698SOL     hw10791   1.675   2.346   1.871  0.3849  0.2416  0.1234
 2698SOL     vw10792   1.634   2.415   1.838 -0.3084  0.1370  0.7572
 2699SOL     ow10793   3.431   5.800   7.596 -0.1401 -0.0953  0.1261
 2699SOL     hw10794   3.370   5.728   7.581 -0.6072  0.5714 -1.4496
 2699SOL     hw10795   3.377   5.869   7.636  0.6026 -1.0428  2.9476
 2699SOL     vw10796   3.416   5.800   7.599 -0.1038 -0.1326  0.2904
 2700SOL     ow10797   1.265   7.533   1.196 -0.7919 -0.4442 -0.3671
 2700SOL     hw10798   1.271   7.454   1.250 -2.8632 -0.9739 -0.8231
 2700SOL     hw10799   1.200   7.588   1.239 -1.6828 -0.3969 -1.7165
 2700SOL     vw10800   1.257   7.530   1.209 -1.1827 -0.5081 -0.6053
 2701SOL     ow10801   4.039   0.142   0.490  0.0020 -0.0579 -0.1779
 2701SOL     hw10802   4.043   0.186   0.575  2.0900  0.3715 -0.4485
 2701SOL     hw10803   4.014   0.052   0.511  2.4544 -0.5233  1.1857
 2701SOL     vw10804   4.036   0.136   0.504  0.6013 -0.0627 -0.0336
 2702SOL     ow10805   1.164   1.911   4.467 -0.2674 -0.0542 -0.1959
 2702SOL     hw10806   1.134   1.923   4.377 -0.3213 -1.2473 -0.3496
 2702SOL     hw10807   1.232   1.978   4.479  0.1298 -0.2440 -1.3079
 2702SOL     vw10808   1.169   1.922   4.457 -0.2221 -0.2367 -0.3629
 2703SOL     ow10809   2.215   6.419   1.687  0.3253  0.3173  0.3369
 2703SOL     hw10810   2.120   6.421   1.702  0.1978 -0.4758 -0.2939
 2703SOL     hw10811   2.249   6.361   1.755 -0.0615 -1.9944 -1.3126
 2703SOL     vw10812   2.207   6.411   1.698  0.2575 -0.0923  0.0361
 2704SOL     ow10813   7.593   5.790   2.513 -0.5864 -0.8654 -0.1507
 2704SOL     hw10814   7.541   5.826   2.584 -1.2992 -0.9310 -0.6240
 2704SOL     hw10815   7.658   5.857   2.494 -1.7025  0.0604 -0.8160
 2704SOL     vw10816   7.594   5.803   2.520 -0.8278 -0.7520 -0.3009
 2705SOL     ow10817   1.742   3.717   4.199  0.1024  0.3640  0.7778
 2705SOL     hw10818   1.769   3.792   4.252 -3.9600  2.3836  0.3291
 2705SOL     hw10819   1.720   3.753   4.114 -0.7404 -1.5369  0.1280
 2705SOL     vw10820   1.742   3.731   4.195 -0.5448  0.3798  0.6330
 2706SOL     ow10821   4.115   2.504   0.507  0.3060  0.2738  0.1055
 2706SOL     hw10822   4.091   2.566   0.576 -0.9450 -0.3894  0.2967
 2706SOL     hw10823   4.100   2.552   0.426 -1.9090 -0.1256  0.2063
 2706SOL     vw10824   4.110   2.518   0.506 -0.1514  0.1338  0.1440
 2707SOL     ow10825   4.962   3.469   7.297  0.0410  0.8094  0.0048
 2707SOL     hw10826   4.904   3.460   7.373 -0.1022  1.2794 -0.0479
 2707SOL     hw10827   4.949   3.387   7.248  1.9898 -0.6388  1.7404
 2707SOL     vw10828   4.952   3.457   7.300  0.2789  0.6804  0.2270
 2708SOL     ow10829   7.021   5.736   0.255  0.7406 -0.2002  0.1366
 2708SOL     hw10830   7.021   5.832   0.251  1.0089  0.0026  2.7878
 2708SOL     hw10831   7.041   5.717   0.347  3.9577 -2.8336 -0.9287
 2708SOL     vw10832   7.024   5.746   0.267  1.2007 -0.5207  0.3459
 2709SOL     ow10833   4.992   7.286   5.325 -0.2213  0.6337  0.6928
 2709SOL     hw10834   4.911   7.245   5.293  2.4294 -4.0611 -1.1874
 2709SOL     hw10835   4.976   7.302   5.418 -2.6922 -2.1149  0.8987
 2709SOL     vw10836   4.979   7.282   5.333 -0.1974 -0.3483  0.4718
 2710SOL     ow10837   6.416   5.650   6.603  0.4698 -0.4207 -0.5083
 2710SOL     hw10838   6.444   5.734   6.567 -0.2499 -0.3970 -1.0291
 2710SOL     hw10839   6.497   5.600   6.614  1.1395  0.9490  1.4654
 2710SOL     vw10840   6.430   5.655   6.600  0.4635 -0.2367 -0.3166
 2711SOL     ow10841   5.054   6.383   5.063 -0.1723 -0.2269 -0.1758
 2711SOL     hw10842   4.967   6.423   5.064 -0.8729 -1.6135 -1.5626
 2711SOL     hw10843   5.110   6.451   5.026 -1.1844 -0.1745 -1.7200
 2711SOL     vw10844   5.050   6.397   5.058 -0.3982 -0.4032 -0.5627
 2712SOL     ow10845   0.508   3.870   0.521  0.3274 -0.4545 -0.0782
 2712SOL     hw10846   0.527   3.935   0.588 -1.1977  1.2926 -1.2649
 2712SOL     hw10847   0.429   3.826   0.552  0.8064 -1.1113  0.2468
 2712SOL     vw10848   0.500   3.873   0.534  0.1895 -0.3107 -0.1919
 2713SOL     ow10849   5.494   0.772   1.030  0.1673  0.7049  0.2544
 2713SOL     hw10850   5.406   0.751   0.998  0.1602 -3.6337  2.3825
 2713SOL     hw10851   5.480   0.821   1.110 -0.6879 -2.4853  2.2416
 2713SOL     vw10852   5.480   0.775   1.036  0.0536 -0.2884  0.7975
 2714SOL     ow10853   5.705   4.714   5.036  0.9021 -0.1444 -0.3136
 2714SOL     hw10854   5.621   4.760   5.034  0.6305 -0.5633 -3.3091
 2714SOL     hw10855   5.769   4.780   5.063 -0.2546  0.3503  1.3603
 2714SOL     vw10856   5.702   4.729   5.039  0.7136 -0.1345 -0.4878
 2715SOL     ow10857   1.870   0.849   5.803 -0.3012 -0.1421 -0.2944
 2715SOL     hw10858   1.852   0.913   5.872  2.2098  2.0816 -1.5297
 2715SOL     hw10859   1.952   0.808   5.830  1.5569  1.8510 -2.5315
 2715SOL     vw10860   1.879   0.852   5.816  0.2752  0.4143 -0.7524
 2716SOL     ow10861   2.536   5.143   0.469  0.5623 -0.6258 -0.3113
 2716SOL     hw10862   2.510   5.224   0.513  1.6131 -0.6747  0.4300
 2716SOL     hw10863   2.519   5.074   0.534 -2.0567 -1.2781 -1.5593
 2716SOL     vw10864   2.530   5.144   0.484  0.3554 -0.7184 -0.3781
 2717SOL     ow10865   2.851   5.244   6.036 -0.3756 -0.2517  0.2813
 2717SOL     hw10866   2.878   5.172   6.093 -1.4633 -0.7185  0.2319
 2717SOL     hw10867   2.908   5.317   6.061  0.9244 -1.1897  0.1484
 2717SOL     vw10868   2.862   5.244   6.047 -0.3476 -0.4370  0.2573
 2718SOL     ow10869   4.063   6.033   2.314 -0.3440  0.0400 -0.3082
 2718SOL     hw10870   3.978   6.063   2.282 -0.4665  0.1466  0.1204
 2718SOL     hw10871   4.080   6.086   2.391  0.1712  0.1067 -0.4650
 2718SOL     vw10872   4.054   6.044   2.320 -0.2921  0.0629 -0.2724
 2719SOL     ow10873   5.575   0.855   4.438 -0.4704  0.7557  0.4406
 2719SOL     hw10874   5.566   0.925   4.373  0.4971  0.6559  0.1873
 2719SOL     hw10875   5.665   0.823   4.427 -0.6119  0.0791  1.1654
 2719SOL     vw10876   5.586   0.860   4.428 -0.3614  0.6532  0.5026
 2720SOL     ow10877   3.692   3.090   0.415 -0.3921  0.9282  0.7418
 2720SOL     hw10878   3.667   3.179   0.392  1.1416  0.8577 -1.4798
 2720SOL     hw10879   3.673   3.038   0.337  0.7531 -0.2618  1.2016
 2720SOL     vw10880   3.686   3.095   0.402 -0.0386  0.7619  0.5094
 2721SOL     ow10881   1.559   1.092   6.377 -0.7222 -0.4834  0.4386
 2721SOL     hw10882   1.599   1.129   6.456 -1.4951 -1.7518  1.4645
 2721SOL     hw10883   1.520   1.009   6.406 -1.2775 -0.8483 -1.2189
 2721SOL     vw10884   1.559   1.086   6.391 -0.8975 -0.6989  0.3552
 2722SOL     ow10885   0.384   5.007   7.281  0.1686  0.0567  1.2427
 2722SOL     hw10886   0.476   4.994   7.304  1.0683 -0.3905 -2.1266
 2722SOL     hw10887   0.370   5.101   7.289  1.2443  0.2725  0.7368
 2722SOL     vw10888   0.395   5.017   7.285  0.4292  0.0265  0.7317
 2723SOL     ow10889   2.317   0.460   7.239  0.4896  0.0106  0.0222
 2723SOL     hw10890   2.345   0.426   7.154 -1.8173 -1.4809 -0.2423
 2723SOL     hw10891   2.339   0.553   7.236  0.2100  0.0679 -2.3439
 2723SOL     vw10892   2.323   0.467   7.227  0.1483 -0.1786 -0.3252
 2724SOL     ow10893   3.365   5.496   2.790 -0.6933  0.4574 -1.0509
 2724SOL     hw10894   3.272   5.477   2.802  0.1825 -4.2100  0.5080
 2724SOL     hw10895   3.402   5.490   2.878  1.4779 -1.4529 -1.9835
 2724SOL     vw10896   3.358   5.493   2.803 -0.2911 -0.4106 -0.9683
 2725SOL     ow10897   1.529   6.434   0.792  0.0243  0.2345  0.4918
 2725SOL     hw10898   1.458   6.397   0.844  0.7127 -4.8747 -1.6336
 2725SOL     hw10899   1.495   6.437   0.703  1.6098  0.2626 -0.1432
 2725SOL     vw10900   1.515   6.429   0.787  0.3243 -0.4361  0.1276
 2726SOL     ow10901   1.705   6.082   5.892  0.4919 -0.0128  0.7621
 2726SOL     hw10902   1.700   6.084   5.987 -1.2929  0.4077  0.7123
 2726SOL     hw10903   1.663   5.999   5.867  2.0517 -0.7207  0.3470
 2726SOL     vw10904   1.698   6.071   5.901  0.4622 -0.0508  0.7010
 2727SOL     ow10905   5.850   1.394   6.518 -0.1374 -0.3127 -0.5121
 2727SOL     hw10906   5.900   1.336   6.576  0.9102  1.2543  0.2360
 2727SOL     hw10907   5.758   1.375   6.539  0.2064 -0.4413  1.0180
 2727SOL     vw10908   5.845   1.384   6.529  0.0465 -0.1230 -0.2115
 2728SOL     ow10909   5.852   7.506   0.976  0.5086 -0.2170 -0.2832
 2728SOL     hw10910   5.811   7.571   0.919  0.6429 -0.8962 -1.1879
 2728SOL     hw10911   5.907   7.454   0.917 -2.2464 -3.4345 -0.3466
 2728SOL     vw10912   5.854   7.507   0.960  0.1628 -0.7312 -0.4109
 2729SOL     ow10913   0.194   0.849   6.144 -0.8837  0.0489 -0.3488
 2729SOL     hw10914   0.164   0.783   6.207 -1.6594  2.3293  1.8417
 2729SOL     hw10915   0.258   0.901   6.192 -0.0153  0.7074 -2.1240
 2729SOL     vw10916   0.199   0.847   6.158 -0.8715  0.4367 -0.2940
 2730SOL     ow10917   0.525   2.589   1.164 -0.0470  0.0781 -0.5059
 2730SOL     hw10918   0.513   2.495   1.155 -1.2932  0.3910 -2.7225
 2730SOL     hw10919   0.495   2.609   1.253  6.9732 -2.4560  3.2161
 2730SOL     vw10920   0.520   2.580   1.175  0.7148 -0.2149 -0.3073
 2731SOL     ow10921   1.711   2.171   1.948 -0.0392  0.0293 -0.0842
 2731SOL     hw10922   1.785   2.125   1.989  0.1705  1.1690  0.8480
 2731SOL     hw10923   1.664   2.210   2.021 -3.4416 -3.1724 -0.2356
 2731SOL     vw10924   1.715   2.170   1.963 -0.4604 -0.2427  0.0188
 2732SOL     ow10925   4.654   5.021   4.844  0.0504 -0.1621 -0.3433
 2732SOL     hw10926   4.667   5.052   4.754 -1.6938  0.8544 -0.2817
 2732SOL     hw10927   4.729   5.057   4.892 -0.4309  1.6522 -0.8581
 2732SOL     vw10928   4.666   5.030   4.838 -0.2432  0.2112 -0.4032
 2733SOL     ow10929   1.680   2.064   6.438 -0.3076 -0.0805 -0.3198
 2733SOL     hw10930   1.712   2.107   6.517 -0.7044  1.2882 -0.8859
 2733SOL     hw10931   1.607   2.009   6.468  0.9844 -1.3572  0.5962
 2733SOL     vw10932   1.675   2.062   6.452 -0.1895 -0.0683 -0.2739
 2734SOL     ow10933   3.588   4.051   2.939 -0.1361 -0.3731 -0.5155
 2734SOL     hw10934   3.574   4.144   2.958  0.8499 -0.5132  1.1047
 2734SOL     hw10935   3.517   4.007   2.985  0.7404 -0.5521  0.6954
 2734SOL     vw10936   3.576   4.058   2.947  0.1096 -0.4153 -0.1421
 2735SOL     ow10937   0.542   4.933   6.501  0.8850 -0.0705  0.2763
 2735SOL     hw10938   0.525   4.848   6.543 -0.9538 -0.2418 -0.7128
 2735SOL     hw10939   0.635   4.930   6.478  0.3463 -2.9520 -2.0948
 2735SOL     vw10940   0.552   4.921   6.504  0.5713 -0.4733 -0.1671
 2736SOL     ow10941   2.198   4.489   6.820 -0.8605 -0.4503 -0.1653
 2736SOL     hw10942   2.192   4.462   6.912 -0.1407  0.1121  0.0514
 2736SOL     hw10943   2.115   4.533   6.802 -0.0372  1.6836  0.9610
 2736SOL     vw10944   2.187   4.491   6.830 -0.6570 -0.0947  0.0119
 2737SOL     ow10945   4.940   4.766   5.530 -0.0014 -0.2582 -0.4175
 2737SOL     hw10946   4.905   4.711   5.600  1.0105 -1.6366 -0.9435
 2737SOL     hw10947   4.932   4.712   5.451  0.4100  0.6163 -1.0675
 2737SOL     vw10948   4.935   4.751   5.529  0.1862 -0.3247 -0.5724
 2738SOL     ow10949   3.562   2.700   3.702  0.5321  0.0149  0.2449
 2738SOL     hw10950   3.588   2.626   3.757 -0.6418  1.1785  2.5160
 2738SOL     hw10951   3.473   2.680   3.675  0.2538  0.5163  0.7709
 2738SOL     vw10952   3.554   2.688   3.706  0.3406  0.2346  0.6139
 2739SOL     ow10953   0.823   4.108   3.584  0.5926  0.5103  0.0889
 2739SOL     hw10954   0.801   4.053   3.659  0.2666 -1.3505 -1.3032
 2739SOL     hw10955   0.866   4.185   3.622 -0.3437  0.0468  2.2200
 2739SOL     vw10956   0.826   4.111   3.599  0.4261  0.2034  0.1864
 2740SOL     ow10957   1.807   2.177   6.211  0.8867 -0.1986 -0.7731
 2740SOL     hw10958   1.892   2.169   6.254  1.0509 -2.1389 -1.3416
 2740SOL     hw10959   1.744   2.152   6.278  0.8145  0.4845 -0.5791
 2740SOL     vw10960   1.810   2.173   6.225  0.8988 -0.3645 -0.8225
 2741SOL     ow10961   2.728   0.293   0.222 -0.1475  1.0593  0.0689
 2741SOL     hw10962   2.660   0.347   0.182 -1.2668 -0.4823 -0.2035
 2741SOL     hw10963   2.809   0.340   0.206 -1.2685  3.9988  2.1067
 2741SOL     vw10964   2.730   0.306   0.215 -0.4431  1.2437  0.3018
 2742SOL     ow10965   0.709   2.309   5.936 -0.2691 -0.3849 -0.4254
 2742SOL     hw10966   0.728   2.234   5.881  0.1846  0.2878 -1.2161
 2742SOL     hw10967   0.714   2.384   5.877 -2.5056  0.1351 -0.0547
 2742SOL     vw10968   0.712   2.309   5.921 -0.5043 -0.2276 -0.4804
 2743SOL     ow10969   7.481   2.398   2.339 -0.6764  0.1028 -0.3769
 2743SOL     hw10970   7.561   2.361   2.300 -1.2262 -1.0934 -0.4013
 2743SOL     hw10971   7.454   2.334   2.403 -2.0972  0.0932 -0.9636
 2743SOL     vw10972   7.488   2.385   2.342 -0.9363 -0.0563 -0.4575
 2744SOL     ow10973   0.924   2.396   0.064  0.8793 -0.4311  0.1325
 2744SOL     hw10974   0.951   2.358  -0.019 -0.9742 -0.0370 -0.7073
 2744SOL     hw10975   0.926   2.491   0.048  1.0337 -0.3304  0.7231
 2744SOL     vw10976   0.928   2.404   0.051  0.6551 -0.3657  0.0996
 2745SOL     ow10977   3.564   2.946   3.788  0.2944  0.1562 -0.2756
 2745SOL     hw10978   3.638   2.967   3.731 -1.1125 -1.2320 -2.7947
 2745SOL     hw10979   3.547   2.853   3.772 -1.7223  0.3413  0.5388
 2745SOL     vw10980   3.571   2.936   3.778 -0.1572 -0.0025 -0.5004
 2746SOL     ow10981   6.493   7.310   5.445 -0.5162  0.5477  0.3120
 2746SOL     hw10982   6.428   7.337   5.381  1.9379  0.2910 -2.4882
 2746SOL     hw10983   6.539   7.391   5.468  0.3424  0.2672 -0.3645
 2746SOL     vw10984   6.491   7.324   5.440 -0.0792  0.4768 -0.1466
 2747SOL     ow10985   0.763   7.506   2.249  0.6796  0.5760  0.1538
 2747SOL     hw10986   0.842   7.561   2.253  2.3066 -1.4929 -1.3015
 2747SOL     hw10987   0.749   7.477   2.339  1.8060  0.6860  0.3789
 2747SOL     vw10988   0.772   7.510   2.261  1.0429  0.3176 -0.0085
 2748SOL     ow10989   6.599   7.469   5.125 -0.4665  0.3082 -0.6002
 2748SOL     hw10990   6.645   7.552   5.119  2.3481 -1.2038 -3.3513
 2748SOL     hw10991   6.512   7.487   5.090 -1.0882  2.6356  1.8328
 2748SOL     vw10992   6.594   7.482   5.119 -0.1771  0.4156 -0.6421
 2749SOL     ow10993   2.991   6.692   7.213 -0.3776 -0.6708  0.0838
 2749SOL     hw10994   2.977   6.650   7.129 -2.4951 -0.7985  0.4656
 2749SOL     hw10995   2.918   6.663   7.268  0.1750  0.5215  1.5345
 2749SOL     vw10996   2.980   6.682   7.209 -0.5841 -0.5302  0.3259
 2750SOL     ow10997   6.980   1.822   7.355 -0.5981 -0.2877  0.1911
 2750SOL     hw10998   6.982   1.866   7.271  1.7755  0.2673  0.4519
 2750SOL     hw10999   6.922   1.747   7.342  0.0271 -0.4553 -2.0596
 2750SOL     vw11000   6.973   1.818   7.343 -0.2024 -0.2366 -0.0713
 2751SOL     ow11001   6.987   4.741   0.085 -0.4039 -0.9041  0.6945
 2751SOL     hw11002   6.895   4.749   0.110 -0.6243  0.1785 -0.3900
 2751SOL     hw11003   7.036   4.767   0.163 -1.0584  0.6974  0.6024
 2751SOL     vw11004   6.982   4.746   0.099 -0.5193 -0.5498  0.5393
 2752SOL     ow11005   1.156   1.576   4.421  0.4089 -0.3647  0.7289
 2752SOL     hw11006   1.151   1.668   4.395  0.2337  0.2073  2.6269
 2752SOL     hw11007   1.065   1.549   4.431  0.4623 -0.7433  0.2327
 2752SOL     vw11008   1.143   1.585   4.419  0.3929 -0.3392  0.9139
 2753SOL     ow11009   2.044   6.806   3.774  0.4595  0.3769  0.1359
 2753SOL     hw11010   2.120   6.769   3.818  0.4620  0.4438  0.1872
 2753SOL     hw11011   1.971   6.791   3.834 -0.0481 -1.9089 -0.9384
 2753SOL     vw11012   2.045   6.799   3.788  0.3932  0.0842  0.0010
 2754SOL     ow11013   5.773   6.518   5.671  0.2494 -0.5000 -0.1904
 2754SOL     hw11014   5.793   6.568   5.592  1.4896 -0.7252 -0.0471
 2754SOL     hw11015   5.823   6.437   5.661 -2.0738 -1.9822 -0.6291
 2754SOL     vw11016   5.782   6.514   5.659  0.1066 -0.7253 -0.2294
 2755SOL     ow11017   2.991   6.787   3.125 -0.1737  0.3125  0.3823
 2755SOL     hw11018   2.901   6.758   3.107 -0.4520  2.1490 -1.6210
 2755SOL     hw11019   3.039   6.766   3.045  1.0985 -0.2124  1.2540
 2755SOL     vw11020   2.985   6.781   3.112 -0.0427  0.4854  0.2329
 2756SOL     ow11021   0.888   4.361   1.355  0.2288 -0.6986 -0.3466
 2756SOL     hw11022   0.980   4.337   1.366  0.2841  0.1524  1.2042
 2756SOL     hw11023   0.840   4.280   1.374  0.6153 -0.9823 -0.5539
 2756SOL     vw11024   0.894   4.347   1.359  0.2871 -0.6237 -0.1693
 2757SOL     ow11025   5.278   3.527   3.492 -0.0050 -0.2267  0.2263
 2757SOL     hw11026   5.195   3.552   3.451 -0.9311 -4.1046 -0.6565
 2757SOL     hw11027   5.253   3.477   3.570  1.4299 -1.4288 -0.0248
 2757SOL     vw11028   5.264   3.523   3.497  0.0620 -0.8970  0.0768
 2758SOL     ow11029   2.705   3.679   4.203  0.6351  0.4679 -0.3943
 2758SOL     hw11030   2.659   3.627   4.137 -0.0510 -0.2489  0.6175
 2758SOL     hw11031   2.797   3.674   4.177  0.3891  0.1256 -1.2389
 2758SOL     vw11032   2.711   3.671   4.191  0.5121  0.3282 -0.3719
 2759SOL     ow11033   5.142   5.233   2.078 -0.0772 -0.1764 -0.1922
 2759SOL     hw11034   5.204   5.230   2.151 -1.4892 -3.1128  1.0460
 2759SOL     hw11035   5.196   5.255   2.002  1.8427  0.7854  1.3556
 2759SOL     vw11036   5.158   5.235   2.078 -0.0105 -0.4368  0.1752
 2760SOL     ow11037   7.506   3.750   4.840 -0.1705 -0.2715  0.2240
 2760SOL     hw11038   7.488   3.780   4.751  1.2181  0.1802  0.0705
 2760SOL     hw11039   7.535   3.828   4.886  1.9800 -0.9863  0.2466
 2760SOL     vw11040   7.508   3.764   4.834  0.2966 -0.3062  0.2067
 2761SOL     ow11041   4.514   4.637   2.921 -0.2962  0.2634 -0.2808
 2761SOL     hw11042   4.499   4.651   2.827  1.4754 -3.7078 -1.3478
 2761SOL     hw11043   4.462   4.559   2.942 -0.5973  1.0238  2.0975
 2761SOL     vw11044   4.505   4.629   2.912 -0.1023 -0.1605 -0.1078
 2762SOL     ow11045   4.172   7.431   6.684  0.5721 -0.5477 -0.1078
 2762SOL     hw11046   4.245   7.483   6.652 -0.7748  0.5070 -1.6383
 2762SOL     hw11047   4.121   7.411   6.606 -1.1923 -0.5926  1.0033
 2762SOL     vw11048   4.175   7.435   6.669  0.1619 -0.4144 -0.1631
 2763SOL     ow11049   5.721   2.542   4.446 -0.5225  0.3817 -0.1147
 2763SOL     hw11050   5.625   2.542   4.447 -0.5259  0.7087  0.4602
 2763SOL     hw11051   5.744   2.589   4.366 -0.8454  0.5615 -0.1047
 2763SOL     vw11052   5.712   2.548   4.436 -0.5655  0.4485 -0.0377
 2764SOL     ow11053   2.143   0.591   3.348 -0.0563  0.0837  0.5780
 2764SOL     hw11054   2.155   0.604   3.442  0.5792 -1.9181  0.8337
 2764SOL     hw11055   2.094   0.509   3.342 -1.9847  1.2720 -0.8211
 2764SOL     vw11056   2.138   0.582   3.360 -0.2270 -0.0236  0.4271
 2765SOL     ow11057   2.445   0.567   3.153 -0.4652  0.6297 -0.5319
 2765SOL     hw11058   2.460   0.522   3.236 -0.7979  0.7856 -0.3843
 2765SOL     hw11059   2.484   0.654   3.165 -2.3161  1.4233  0.2342
 2765SOL     vw11060   2.452   0.573   3.165 -0.7533  0.7550 -0.4113
 2766SOL     ow11061   1.896   2.904   3.440  0.1195  0.0569  0.1804
 2766SOL     hw11062   1.967   2.951   3.484  0.5499  0.4539 -0.8990
 2766SOL     hw11063   1.917   2.812   3.453 -1.3912  0.0388  3.3992
 2766SOL     vw11064   1.908   2.898   3.447 -0.0231  0.1068  0.4628
 2767SOL     ow11065   6.101   2.149   0.332  0.3808  0.2966  0.7728
 2767SOL     hw11066   6.070   2.136   0.242  1.2009  1.0325  0.3688
 2767SOL     hw11067   6.101   2.062   0.370  1.4038 -0.2404 -0.4050
 2767SOL     vw11068   6.097   2.136   0.325  0.6239  0.3227  0.5641
 2768SOL     ow11069   7.497   6.999   5.091  0.9063 -0.2116  0.2122
 2768SOL     hw11070   7.456   7.004   5.177 -0.9583  2.3506 -0.6786
 2768SOL     hw11071   7.586   6.967   5.108  0.5332  0.0041  3.0231
 2768SOL     vw11072   7.504   6.995   5.105  0.6108  0.1550  0.4654
 2769SOL     ow11073   2.915   3.180   0.598 -0.6423  0.5958 -0.0730
 2769SOL     hw11074   2.915   3.124   0.520 -0.9042  1.8205 -0.9784
 2769SOL     hw11075   2.990   3.238   0.587 -1.4709  1.6972 -0.1203
 2769SOL     vw11076   2.925   3.180   0.586 -0.7862  0.9027 -0.1986
 2770SOL     ow11077   0.624   3.078   6.867 -0.4731  0.0165  0.3978
 2770SOL     hw11078   0.678   3.004   6.840 -0.1135  0.9270 -1.5779
 2770SOL     hw11079   0.548   3.038   6.910  0.4439 -1.4018  0.7486
 2770SOL     vw11080   0.621   3.063   6.869 -0.3046 -0.0504  0.1836
 2771SOL     ow11081   0.283   5.694   1.934 -0.3591  0.7603 -1.0763
 2771SOL     hw11082   0.345   5.699   1.861  0.9718  0.4185 -0.0293
 2771SOL     hw11083   0.234   5.776   1.930  0.7296  1.4188 -1.4821
 2771SOL     vw11084   0.285   5.706   1.924 -0.0399  0.8020 -0.9918
 2772SOL     ow11085   3.968   5.912   1.986 -0.2251 -0.0485  1.2453
 2772SOL     hw11086   3.988   5.868   1.904  0.3189  1.0786  0.7573
 2772SOL     hw11087   3.897   5.973   1.964  0.8154  1.2113  1.2862
 2772SOL     vw11088   3.961   5.915   1.972 -0.0160  0.2666  1.1864
 2773SOL     ow11089   1.379   5.349   6.211  0.0547 -0.3490 -0.0247
 2773SOL     hw11090   1.337   5.366   6.295 -2.0080 -2.7000 -0.4428
 2773SOL     hw11091   1.463   5.309   6.234 -1.1738 -2.4912  1.0329
 2773SOL     vw11092   1.385   5.346   6.225 -0.3796 -0.9415  0.0596
 2774SOL     ow11093   2.856   1.765   1.873  0.1515 -0.0931  0.4167
 2774SOL     hw11094   2.798   1.842   1.871  1.7995  1.1936 -0.3896
 2774SOL     hw11095   2.909   1.773   1.794  1.8484 -0.8817  1.4167
 2774SOL     vw11096   2.855   1.776   1.862  0.5928 -0.0275  0.4423
 2775SOL     ow11097   4.510   1.265   4.628  0.1601  0.0164 -0.5528
 2775SOL     hw11098   4.473   1.352   4.618 -0.0778  0.5366  3.2836
 2775SOL     hw11099   4.442   1.206   4.594  0.2134  1.2063 -2.9333
 2775SOL     vw11100   4.496   1.268   4.622  0.1359  0.2420 -0.3607
 2776SOL     ow11101   6.928   1.720   0.867 -0.0800 -0.6466  0.1226
 2776SOL     hw11102   6.963   1.745   0.952 -0.5583 -1.2923  0.5263
 2776SOL     hw11103   6.836   1.699   0.885 -0.7898  1.3349 -0.9658
 2776SOL     vw11104   6.920   1.720   0.881 -0.2365 -0.4703  0.0323
 2777SOL     ow11105   7.440   1.043   5.209 -0.3398  0.1532 -0.0597
 2777SOL     hw11106   7.450   1.138   5.216  1.1925 -0.1081  2.8776
 2777SOL     hw11107   7.436   1.013   5.300  0.6412 -2.7251 -0.8738
 2777SOL     vw11108   7.441   1.052   5.222 -0.0081 -0.2609  0.2203
 2778SOL     ow11109   5.074   4.481   0.094 -0.1226  0.1942 -0.0963
 2778SOL     hw11110   5.122   4.549   0.141 -2.4392 -0.7579  4.1433
 2778SOL     hw11111   4.988   4.520   0.076 -0.3278 -0.5145 -0.7089
 2778SOL     vw11112   5.069   4.495   0.098 -0.4551 -0.0250  0.3823
 2779SOL     ow11113   5.249   5.467   1.892  0.1170  0.1910  1.2728
 2779SOL     hw11114   5.234   5.513   1.810 -0.6259 -0.7976  0.8396
 2779SOL     hw11115   5.193   5.512   1.956  0.7803  1.0313  1.2864
 2779SOL     vw11116   5.240   5.479   1.890  0.1066  0.1714  1.2175
 2780SOL     ow11117   7.063   6.490   3.636  0.3167  0.4410 -0.0999
 2780SOL     hw11118   6.981   6.522   3.598 -0.8989 -1.0062  1.1484
 2780SOL     hw11119   7.083   6.410   3.588  1.3567  1.0940 -0.7945
 2780SOL     vw11120   7.055   6.484   3.625  0.2935  0.3364 -0.0268
 2781SOL     ow11121   5.702   0.941   5.854 -0.4140 -0.4218 -0.6142
 2781SOL     hw11122   5.727   0.849   5.856  3.6086  0.4877  0.2160
 2781SOL     hw11123   5.663   0.957   5.940  0.7008 -0.9781  0.0192
 2781SOL     vw11124   5.700   0.931   5.865  0.2639 -0.3751 -0.4210
 2782SOL     ow11125   1.160   4.811   0.341  0.3580  0.3045  0.8290
 2782SOL     hw11126   1.081   4.840   0.387 -0.5558 -0.1456 -0.3888
 2782SOL     hw11127   1.149   4.716   0.332  0.0633  0.4631 -1.0182
 2782SOL     vw11128   1.148   4.803   0.346  0.1985  0.2661  0.4246
 2783SOL     ow11129   6.172   6.729   7.470 -0.2004  0.0848  0.2387
 2783SOL     hw11130   6.206   6.762   7.554  0.8597  0.4021 -0.2964
 2783SOL     hw11131   6.225   6.652   7.452 -0.1027  0.2855 -0.3602
 2783SOL     vw11132   6.183   6.723   7.479 -0.0479  0.1533  0.0894
 2784SOL     ow11133   4.006   2.232   5.518 -0.2074  0.1652 -0.3037
 2784SOL     hw11134   4.084   2.180   5.499 -0.3308 -0.4805  0.8557
 2784SOL     hw11135   4.016   2.311   5.465  2.5053  1.2929  1.6297
 2784SOL     vw11136   4.018   2.236   5.508  0.1342  0.2289  0.1042
 2785SOL     ow11137   7.096   1.184   2.356  0.1076 -0.4592 -0.9005
 2785SOL     hw11138   7.095   1.098   2.313  1.2710 -0.6969 -0.5028
 2785SOL     hw11139   7.128   1.244   2.288  0.2279 -0.5157 -0.8945
 2785SOL     vw11140   7.100   1.180   2.341  0.2770 -0.4980 -0.8473
 2786SOL     ow11141   7.209   1.574   1.847 -0.2542 -0.0534 -0.4991
 2786SOL     hw11142   7.300   1.554   1.828  0.4160  0.9393  1.4626
 2786SOL     hw11143   7.195   1.661   1.809 -0.9084 -0.8625 -2.2227
 2786SOL     vw11144   7.219   1.583   1.839 -0.2520 -0.0292 -0.4677
 2787SOL     ow11145   2.757   3.107   2.343 -0.0347  0.7674 -0.3009
 2787SOL     hw11146   2.850   3.115   2.365  0.5938 -0.2174 -2.3369
 2787SOL     hw11147   2.731   3.021   2.377  0.4660  0.0243 -1.6931
 2787SOL     vw11148   2.766   3.096   2.350  0.1143  0.5394 -0.7530
 2788SOL     ow11149   3.921   0.664   5.795 -0.0994  0.0648 -0.0654
 2788SOL     hw11150   3.941   0.740   5.849 -1.6018  1.3018 -1.1393
 2788SOL     hw11151   3.952   0.688   5.708  3.0988 -2.2441  0.2606
 2788SOL     vw11152   3.928   0.677   5.791  0.1242 -0.0766 -0.1640
 2789SOL     ow11153   1.163   4.730   3.974  0.7253  0.0915 -0.4249
 2789SOL     hw11154   1.092   4.692   3.921  0.6018 -0.3133  0.0286
 2789SOL     hw11155   1.243   4.701   3.931  0.6470 -1.1504  0.2161
 2789SOL     vw11156   1.164   4.721   3.961  0.6986 -0.1259 -0.2806
 2790SOL     ow11157   0.438   2.263   6.115  0.1971  0.6081  0.1347
 2790SOL     hw11158   0.396   2.260   6.029  3.2291  3.0665 -1.6540
 2790SOL     hw11159   0.393   2.333   6.161 -0.5376  0.2169  0.0288
 2790SOL     vw11160   0.427   2.272   6.110  0.5002  0.8807 -0.1152
 2791SOL     ow11161   4.298   5.590   0.000 -0.9524  0.0874 -0.4051
 2791SOL     hw11162   4.329   5.542   0.078  0.7406  0.8812 -0.5466
 2791SOL     hw11163   4.259   5.670   0.036  1.3482  1.2790 -0.3638
 2791SOL     vw11164   4.297   5.594   0.015 -0.4256  0.3493 -0.4184
 2792SOL     ow11165   3.619   0.873   6.912 -0.7626  0.0004 -0.0096
 2792SOL     hw11166   3.546   0.812   6.926 -1.4669  0.7914 -0.1295
 2792SOL     hw11167   3.685   0.847   6.976  0.3441 -2.9584 -2.1475
 2792SOL     vw11168   3.618   0.862   6.922 -0.7094 -0.2856 -0.3073
 2793SOL     ow11169   4.787   5.261   3.119  0.2089 -0.3007 -0.3670
 2793SOL     hw11170   4.880   5.275   3.131  0.0525  0.5545 -0.0718
 2793SOL     hw11171   4.758   5.220   3.201  0.1495  0.4019 -0.0227
 2793SOL     vw11172   4.795   5.257   3.132  0.1802 -0.0951 -0.2825
 2794SOL     ow11173   5.445   5.903   5.741 -0.1681  0.6163 -0.2756
 2794SOL     hw11174   5.442   5.908   5.646 -0.6117 -2.7437 -0.5464
 2794SOL     hw11175   5.364   5.944   5.770 -1.5701 -1.0525 -1.6078
 2794SOL     vw11176   5.434   5.909   5.732 -0.4115 -0.0474 -0.4871
 2795SOL     ow11177   5.204   5.025   3.282  0.0191 -0.4851 -1.0702
 2795SOL     hw11178   5.174   5.116   3.281  1.3677  0.1086  1.9789
 2795SOL     hw11179   5.130   4.976   3.319  0.4787 -0.0344  0.5065
 2795SOL     vw11180   5.190   5.030   3.287  0.2577 -0.3476 -0.4600
 2796SOL     ow11181   5.017   1.937   0.171  0.1478 -0.3470 -0.4209
 2796SOL     hw11182   5.062   2.014   0.206 -0.3565 -0.5622  0.7471
 2796SOL     hw11183   5.031   1.870   0.238  0.2286 -1.1601 -1.2341
 2796SOL     vw11184   5.025   1.938   0.185  0.0918 -0.4827 -0.3741
 2797SOL     ow11185   0.959   0.665   1.457 -0.7290 -0.4758  0.0797
 2797SOL     hw11186   0.973   0.616   1.538  1.1579 -1.4575 -0.7858
 2797SOL     hw11187   0.877   0.712   1.472  0.9079  1.7022  3.7101
 2797SOL     vw11188   0.950   0.665   1.470 -0.2641 -0.3180  0.4445
 2798SOL     ow11189   4.818   4.064   4.864 -0.0921  0.2501  0.0387
 2798SOL     hw11190   4.904   4.104   4.861  0.3585 -0.7670 -1.4996
 2798SOL     hw11191   4.764   4.117   4.805  0.4830 -1.2625 -1.9289
 2798SOL     vw11192   4.822   4.076   4.856  0.0432 -0.0834 -0.4239
 2799SOL     ow11193   3.648   6.731   2.608  0.2493  0.2496  0.5417
 2799SOL     hw11194   3.636   6.636   2.599 -1.4750 -0.0167  4.0236
 2799SOL     hw11195   3.591   6.756   2.681  1.5222  3.8138  0.5343
 2799SOL     vw11196   3.639   6.722   2.616  0.1898  0.6847  0.9999
 2800SOL     ow11197   6.662   0.313   4.663  0.2376 -0.2514  0.2956
 2800SOL     hw11198   6.679   0.401   4.632 -2.7549  0.8241  1.3493
 2800SOL     hw11199   6.745   0.284   4.701  1.0496  2.4906  0.7883
 2800SOL     vw11200   6.675   0.321   4.664 -0.0501  0.2523  0.4995
 2801SOL     ow11201   6.450   7.272   4.413  0.2900  0.0868  0.4468
 2801SOL     hw11202   6.367   7.229   4.435  1.2893 -1.8884  0.5618
 2801SOL     hw11203   6.466   7.248   4.322  1.1565 -0.2890  0.6894
 2801SOL     vw11204   6.441   7.263   4.404  0.5362 -0.2234  0.4942
 2802SOL     ow11205   0.335   3.242   4.249  0.4015 -0.2376  0.3358
 2802SOL     hw11206   0.354   3.235   4.155  2.0784  1.0529  0.5181
 2802SOL     hw11207   0.395   3.181   4.291  0.1162 -0.3348  0.6098
 2802SOL     vw11208   0.345   3.233   4.242  0.5851 -0.0801  0.3963
 2803SOL     ow11209   4.289   0.662   6.467  0.7569  0.2855  0.7482
 2803SOL     hw11210   4.377   0.680   6.435  0.7095 -0.4141  0.1803
 2803SOL     hw11211   4.245   0.621   6.392 -0.3435  1.4776  0.7092
 2803SOL     vw11212   4.295   0.659   6.453  0.6056  0.3505  0.6683
 2804SOL     ow11213   3.692   0.585   7.599 -1.0389  0.2153  0.5259
 2804SOL     hw11214   3.656   0.639   7.529  0.7093  0.0447 -0.5518
 2804SOL     hw11215   3.774   0.551   7.564  0.5495  1.1004  3.0683
 2804SOL     vw11216   3.698   0.588   7.586 -0.5987  0.3096  0.7191
 2805SOL     ow11217   5.606   5.828   5.952 -0.0199  0.6807  0.1298
 2805SOL     hw11218   5.636   5.749   5.906 -1.1195  1.3505 -1.8908
 2805SOL     hw11219   5.546   5.869   5.890 -2.4757  1.1206  2.6284
 2805SOL     vw11220   5.602   5.823   5.938 -0.4888  0.8271  0.1929
 2806SOL     ow11221   5.766   6.885   6.617  0.0485  0.6140 -0.0420
 2806SOL     hw11222   5.790   6.818   6.553  0.5303 -0.0054  0.7744
 2806SOL     hw11223   5.696   6.934   6.575  0.0344 -0.0833 -0.8525
 2806SOL     vw11224   5.760   6.883   6.603  0.1101  0.4404 -0.0412
 2807SOL     ow11225   7.113   4.734   6.499 -0.1742  0.1198 -0.6196
 2807SOL     hw11226   7.048   4.664   6.498 -0.6797  0.5517 -2.2465
 2807SOL     hw11227   7.065   4.811   6.469  0.3852  1.1842  1.0568
 2807SOL     vw11228   7.098   4.735   6.495 -0.1674  0.3171 -0.6127
 2808SOL     ow11229   5.748   7.061   6.873  0.6062  0.0146 -0.1633
 2808SOL     hw11230   5.680   7.039   6.937 -0.0843  2.6814  0.1477
 2808SOL     hw11231   5.768   7.153   6.891  4.7522 -0.7667  0.1252
 2808SOL     vw11232   5.741   7.070   6.884  1.0619  0.2632 -0.0842
 2809SOL     ow11233   4.704   1.112   0.369 -0.1952  0.2396  0.6457
 2809SOL     hw11234   4.773   1.048   0.383 -0.7782 -1.0522 -1.6717
 2809SOL     hw11235   4.630   1.081   0.422 -1.2514 -2.5165 -2.1243
 2809SOL     vw11236   4.703   1.100   0.378 -0.4117 -0.2944 -0.0256
 2810SOL     ow11237   0.862   6.251   4.524 -0.3169 -0.6839  0.5574
 2810SOL     hw11238   0.897   6.215   4.443  1.0342  3.8822 -1.1876
 2810SOL     hw11239   0.782   6.201   4.541  1.1893 -4.1047 -1.5380
 2810SOL     vw11240   0.856   6.240   4.516  0.0601 -0.5329  0.0508
 2811SOL     ow11241   1.934   7.150   1.675 -0.2035 -0.5202  0.1646
 2811SOL     hw11242   1.977   7.184   1.754  0.6823 -2.1847  0.4555
 2811SOL     hw11243   1.901   7.227   1.631  2.4159  0.8443  0.3655
 2811SOL     vw11244   1.936   7.165   1.680  0.2589 -0.5598  0.2294
 2812SOL     ow11245   0.875   1.815   6.240 -0.4811  0.5057  0.9084
 2812SOL     hw11246   0.938   1.744   6.223 -3.3322 -1.6843 -1.4683
 2812SOL     hw11247   0.818   1.781   6.308 -0.1133  1.8079  1.8994
 2812SOL     vw11248   0.876   1.801   6.246 -0.8087  0.3886  0.7257
 2813SOL     ow11249   7.142   0.933   2.255  0.3942  0.0318 -0.3797
 2813SOL     hw11250   7.103   0.848   2.235 -1.5327  1.1441 -1.6803
 2813SOL     hw11251   7.232   0.926   2.223 -0.0275 -1.1711 -1.3999
 2813SOL     vw11252   7.149   0.921   2.248  0.0842  0.0198 -0.6859
 2814SOL     ow11253   0.709   7.099   3.988 -0.6056 -0.2114  0.3676
 2814SOL     hw11254   0.730   7.170   3.927  1.6576 -0.4605  0.7693
 2814SOL     hw11255   0.723   7.138   4.074 -1.9039 -0.4261  0.6937
 2814SOL     vw11256   0.713   7.114   3.991 -0.4783 -0.2728  0.4636
 2815SOL     ow11257   4.696   3.504   6.478 -0.4764  0.2092  0.0940
 2815SOL     hw11258   4.681   3.531   6.387 -0.1314  1.5339  0.4125
 2815SOL     hw11259   4.614   3.523   6.523 -0.2589  0.6661  0.3037
 2815SOL     vw11260   4.683   3.510   6.472 -0.4022  0.4442  0.1638
 2816SOL     ow11261   6.640   7.504   4.793  0.4056  0.1906  0.0198
 2816SOL     hw11262   6.694   7.477   4.719 -2.0476 -0.5583 -1.6596
 2816SOL     hw11263   6.684   7.468   4.870  0.8091 -2.9166 -1.5064
 2816SOL     vw11264   6.653   7.495   4.793  0.1354 -0.3183 -0.4034
 2817SOL     ow11265   1.977   4.911   0.183 -0.4285 -0.0118  0.1334
 2817SOL     hw11266   1.958   4.995   0.141 -2.7407  0.7409  2.4284
 2817SOL     hw11267   2.051   4.930   0.241 -0.5172  0.2392  0.1658
 2817SOL     vw11268   1.984   4.925   0.185 -0.7453  0.1206  0.4404
 2818SOL     ow11269   5.470   5.423   4.089 -0.0209 -0.0929 -0.1773
 2818SOL     hw11270   5.393   5.427   4.145 -1.0001 -0.0077 -1.4732
 2818SOL     hw11271   5.529   5.361   4.132 -0.5500  0.2919  1.1360
 2818SOL     vw11272   5.468   5.415   4.102 -0.2198 -0.0310 -0.1750
 2819SOL     ow11273   1.457   5.068   0.986  0.5665 -0.4212  0.9466
 2819SOL     hw11274   1.402   5.118   1.046  0.2584 -3.0158  3.0094
 2819SOL     hw11275   1.523   5.026   1.041  0.6244 -2.4940 -0.5520
 2819SOL     vw11276   1.458   5.069   1.001  0.5335 -1.0369  1.0211
 2820SOL     ow11277   3.527   3.756   1.472  0.2070 -0.5804 -0.0630
 2820SOL     hw11278   3.470   3.768   1.396  1.2878 -0.9820 -0.9728
 2820SOL     hw11279   3.469   3.760   1.548 -0.9025 -0.2320 -0.9203
 2820SOL     vw11280   3.512   3.758   1.472  0.2033 -0.5875 -0.2961
 2821SOL     ow11281   2.164   0.990   0.539 -0.5094 -0.1768 -0.0903
 2821SOL     hw11282   2.171   0.897   0.557 -1.0104 -0.1761  0.1170
 2821SOL     hw11283   2.121   0.995   0.454 -1.3196 -0.1276  0.3103
 2821SOL     vw11284   2.159   0.979   0.530 -0.6825 -0.1702 -0.0101
 2822SOL     ow11285   4.406   6.080   6.765  0.5589  0.3504  0.1697
 2822SOL     hw11286   4.377   5.989   6.754  0.3385  0.4770 -0.3516
 2822SOL     hw11287   4.449   6.082   6.850 -1.9359  0.4230  1.5240
 2822SOL     vw11288   4.408   6.068   6.774  0.2007  0.3769  0.2797
 2823SOL     ow11289   1.446   5.607   6.162 -0.3095 -0.6949  0.2860
 2823SOL     hw11290   1.538   5.634   6.158  0.0089 -1.6464  1.0403
 2823SOL     hw11291   1.448   5.517   6.191 -1.5913  0.0483  2.9635
 2823SOL     vw11292   1.458   5.599   6.165 -0.4366 -0.7222  0.7386
 2824SOL     ow11293   7.292   6.374   0.399  0.5768 -0.0121 -0.2397
 2824SOL     hw11294   7.369   6.358   0.344  0.4782  0.6726 -0.5795
 2824SOL     hw11295   7.288   6.469   0.408 -0.8259  0.0329 -1.0914
 2824SOL     vw11296   7.302   6.384   0.393  0.3788  0.0842 -0.3970
 2825SOL     ow11297   3.794   1.750   1.634  0.3996  0.7222  0.2900
 2825SOL     hw11298   3.724   1.815   1.627  1.1964  1.5107 -0.5998
 2825SOL     hw11299   3.875   1.800   1.624  1.0125 -0.5839 -2.4782
 2825SOL     vw11300   3.796   1.765   1.632  0.5856  0.6539 -0.1926
 2826SOL     ow11301   4.933   1.530   2.620 -0.5013  0.3842  0.2321
 2826SOL     hw11302   4.859   1.575   2.660  0.7180  1.6152  1.2004
 2826SOL     hw11303   4.895   1.479   2.549 -2.2171  1.2991  0.4523
 2826SOL     vw11304   4.919   1.529   2.616 -0.5670  0.6673  0.3890
 2827SOL     ow11305   3.274   2.044   4.858 -0.2214 -0.3743  0.2685
 2827SOL     hw11306   3.358   2.069   4.821 -0.2857  1.9294  1.4755
 2827SOL     hw11307   3.285   1.952   4.883  0.6623 -1.2462 -2.8645
 2827SOL     vw11308   3.286   2.035   4.857 -0.1132 -0.1855  0.0143
 2828SOL     ow11309   6.616   7.074   5.492  0.1696  0.2923 -0.4624
 2828SOL     hw11310   6.598   7.070   5.586  1.1734 -1.0588 -0.2946
 2828SOL     hw11311   6.589   7.162   5.466 -1.2653  0.2808  0.8386
 2828SOL     vw11312   6.610   7.085   5.501  0.1128  0.1123 -0.2685
 2829SOL     ow11313   6.592   5.455   3.508 -0.8851  0.0460  0.5225
 2829SOL     hw11314   6.501   5.477   3.487 -1.4923  0.1308  2.9216
 2829SOL     hw11315   6.642   5.533   3.484 -1.5927  0.3825  0.1170
 2829SOL     vw11316   6.587   5.468   3.502 -1.0586  0.1016  0.7855
 2830SOL     ow11317   4.842   3.860   3.749 -0.6476 -0.5033 -0.5983
 2830SOL     hw11318   4.754   3.878   3.783 -0.7738  0.5203 -1.4131
 2830SOL     hw11319   4.827   3.810   3.669 -0.4120 -1.6547  0.0615
 2830SOL     vw11320   4.828   3.856   3.743 -0.6332 -0.5201 -0.6188
 2831SOL     ow11321   6.697   3.189   3.365 -0.2428  0.7081  0.4690
 2831SOL     hw11322   6.662   3.213   3.280 -0.3709  0.4314  0.4412
 2831SOL     hw11323   6.622   3.189   3.424  0.0140  1.9089  0.8104
 2831SOL     vw11324   6.683   3.192   3.362 -0.2258  0.8301  0.5105
 2832SOL     ow11325   0.896   2.092   6.719 -0.4161 -0.1157  0.4829
 2832SOL     hw11326   0.910   2.115   6.811  1.3288 -0.2832  0.2919
 2832SOL     hw11327   0.929   2.003   6.711  0.7285  0.3751 -0.5725
 2832SOL     vw11328   0.902   2.084   6.730 -0.0348 -0.0730  0.3183
 2833SOL     ow11329   1.763   4.294   2.034 -0.0906  0.2703  0.0611
 2833SOL     hw11330   1.676   4.332   2.043 -1.2904 -2.3857  0.4663
 2833SOL     hw11331   1.748   4.204   2.003  2.5601  0.0120 -0.8109
 2833SOL     vw11332   1.750   4.287   2.031  0.1009 -0.1142 -0.0006
 2834SOL     ow11333   3.951   1.446   3.146  0.1338  0.2419  0.0071
 2834SOL     hw11334   4.001   1.432   3.066  0.5793  0.7976  0.1871
 2834SOL     hw11335   3.860   1.453   3.117  0.3246  0.6957 -0.4705
 2834SOL     vw11336   3.945   1.445   3.132  0.2178  0.3752 -0.0322
 2835SOL     ow11337   2.973   1.131   7.224  0.4560  0.5602  0.1148
 2835SOL     hw11338   2.993   1.125   7.317  1.2890 -2.1938 -0.1435
 2835SOL     hw11339   3.052   1.168   7.185  0.5999  0.5280  0.3710
 2835SOL     vw11340   2.986   1.135   7.231  0.5850  0.1926  0.1147
 2836SOL     ow11341   7.178   0.370   2.860  0.6337 -0.1357  0.1350
 2836SOL     hw11342   7.095   0.342   2.899  0.7683 -0.4608  0.1983
 2836SOL     hw11343   7.195   0.305   2.791 -0.3802  1.3123 -1.5569
 2836SOL     vw11344   7.170   0.358   2.856  0.5176  0.0125 -0.0800
 2837SOL     ow11345   1.938   0.741   3.743  0.5170 -0.3259 -0.8557
 2837SOL     hw11346   1.883   0.755   3.820  0.9724 -3.0410  0.0639
 2837SOL     hw11347   1.881   0.699   3.679  0.7342 -0.2214 -1.1226
 2837SOL     vw11348   1.923   0.738   3.745  0.6058 -0.6704 -0.7696
 2838SOL     ow11349   5.796   7.325   4.989  0.1098 -0.1242  0.8882
 2838SOL     hw11350   5.867   7.389   4.995  0.7473 -0.6102 -0.9010
 2838SOL     hw11351   5.740   7.357   4.917 -0.4974 -0.6945  1.0962
 2838SOL     vw11352   5.798   7.338   4.980  0.1140 -0.2639  0.6795
 2839SOL     ow11353   1.874   1.707   6.381 -0.8049  0.8173  0.0105
 2839SOL     hw11354   1.916   1.732   6.299 -1.2208  0.3854 -0.3491
 2839SOL     hw11355   1.894   1.778   6.442  0.5971  0.5309 -0.0798
 2839SOL     vw11356   1.882   1.720   6.378 -0.6748  0.7225 -0.0489
 2840SOL     ow11357   3.124   1.922   4.371 -0.5353  0.2354  0.8718
 2840SOL     hw11358   3.184   1.877   4.430  0.1160  0.2662  0.2519
 2840SOL     hw11359   3.178   1.945   4.295 -1.2570  0.5558  0.4441
 2840SOL     vw11360   3.139   1.919   4.369 -0.5444  0.2818  0.7334
 2841SOL     ow11361   3.497   3.417   0.779  0.3597  0.1292 -0.3239
 2841SOL     hw11362   3.457   3.475   0.714 -1.0085 -1.1463 -0.6837
 2841SOL     hw11363   3.437   3.421   0.854 -0.6514 -1.9501 -0.9377
 2841SOL     vw11364   3.484   3.425   0.780  0.0458 -0.3134 -0.4524
 2842SOL     ow11365   5.204   3.922   1.961  0.5898 -0.1024 -0.3468
 2842SOL     hw11366   5.153   4.003   1.964  2.5957  1.3578 -2.4701
 2842SOL     hw11367   5.293   3.949   1.984  1.4242 -1.5495 -1.7172
 2842SOL     vw11368   5.209   3.937   1.964  0.9644 -0.1005 -0.8078
 2843SOL     ow11369   0.123   4.886   0.486 -0.2382  0.0671  0.1653
 2843SOL     hw11370   0.108   4.866   0.393  1.4425 -1.9983  0.2604
 2843SOL     hw11371   0.077   4.817   0.533  1.9929 -1.1371  0.6943
 2843SOL     vw11372   0.115   4.875   0.480  0.2779 -0.3643  0.2476
 2844SOL     ow11373   5.723   2.213   4.788 -0.1747 -0.3367  0.0326
 2844SOL     hw11374   5.729   2.187   4.696 -0.4708 -0.7331  0.1245
 2844SOL     hw11375   5.638   2.179   4.817  0.4899 -1.3521  0.8168
 2844SOL     vw11376   5.712   2.205   4.780 -0.1259 -0.5229  0.1485
 2845SOL     ow11377   3.386   4.749   4.639 -0.9019  1.1267 -0.1985
 2845SOL     hw11378   3.342   4.818   4.588  0.1512  0.8014 -1.6138
 2845SOL     hw11379   3.403   4.789   4.724 -5.0636  0.8630  0.9770
 2845SOL     vw11380   3.382   4.764   4.643 -1.3120  1.0490 -0.2301
 2846SOL     ow11381   5.024   5.274   3.800 -0.0341  0.4251  0.2040
 2846SOL     hw11382   5.013   5.211   3.728 -2.5409 -0.3796  1.1497
 2846SOL     hw11383   4.998   5.225   3.878  2.4844  1.3040  1.7115
 2846SOL     vw11384   5.019   5.259   3.801 -0.0324  0.4349  0.5279
 2847SOL     ow11385   6.213   0.361   5.766 -0.3209 -0.1274  0.1724
 2847SOL     hw11386   6.216   0.344   5.860  0.5375 -0.1921  0.1394
 2847SOL     hw11387   6.291   0.413   5.749 -0.6528  0.1680 -0.4508
 2847SOL     vw11388   6.224   0.366   5.776 -0.2513 -0.0970  0.0858
 2848SOL     ow11389   5.844   7.107   5.132  0.7446 -0.3661 -0.0284
 2848SOL     hw11390   5.861   7.164   5.056 -1.1523 -1.3055 -1.2375
 2848SOL     hw11391   5.797   7.163   5.194 -0.9434 -0.5016 -1.1322
 2848SOL     vw11392   5.840   7.122   5.130  0.2716 -0.5078 -0.3335
 2849SOL     ow11393   1.532   3.514   2.533  0.0041  0.0745 -0.0892
 2849SOL     hw11394   1.504   3.587   2.478  0.1551  0.3495  0.1990
 2849SOL     hw11395   1.476   3.441   2.506 -1.6312  0.8275  1.1010
 2849SOL     vw11396   1.521   3.514   2.522 -0.1917  0.2102  0.1059
 2850SOL     ow11397   3.848   5.876   2.294 -0.0714 -0.3953 -0.3449
 2850SOL     hw11398   3.772   5.935   2.292  0.5747  0.5530  1.1195
 2850SOL     hw11399   3.897   5.903   2.372  0.5615 -2.5156  0.0655
 2850SOL     vw11400   3.844   5.887   2.304  0.0972 -0.5500 -0.0978
 2851SOL     ow11401   1.323   3.229   5.334  0.3636  0.5781  0.2802
 2851SOL     hw11402   1.389   3.245   5.268 -0.0905  1.4597  0.0217
 2851SOL     hw11403   1.240   3.240   5.288 -0.0150 -1.7939  0.2757
 2851SOL     vw11404   1.320   3.232   5.320  0.2537  0.3815  0.2453
 2852SOL     ow11405   0.932   3.078   0.212 -0.2444  0.0421 -0.6910
 2852SOL     hw11406   0.847   3.121   0.201 -0.1045  0.5563  0.1082
 2852SOL     hw11407   0.995   3.140   0.176 -0.1466 -0.0086 -0.6082
 2852SOL     vw11408   0.929   3.092   0.206 -0.2130  0.1032 -0.5746
 2853SOL     ow11409   5.377   1.346   2.041 -0.0724  0.3376  0.3543
 2853SOL     hw11410   5.420   1.261   2.052  0.3406  0.7347  2.2604
 2853SOL     hw11411   5.287   1.325   2.017  0.1851 -0.6183  0.1922
 2853SOL     vw11412   5.371   1.332   2.039  0.0160  0.2639  0.5845
 2854SOL     ow11413   0.894   6.972   5.977  0.7405 -0.4183  0.0944
 2854SOL     hw11414   0.977   6.937   6.007  2.9758  0.4485 -4.2796
 2854SOL     hw11415   0.912   7.063   5.956 -0.1879 -0.9488 -3.9308
 2854SOL     vw11416   0.907   6.979   5.978  0.9129 -0.3738 -1.0140
 2855SOL     ow11417   7.583   2.274   3.003 -0.6752  1.0642 -0.1758
 2855SOL     hw11418   7.574   2.306   3.093  1.4926 -0.0806  0.5320
 2855SOL     hw11419   7.656   2.324   2.967  1.4049 -1.4222  0.2791
 2855SOL     vw11420   7.592   2.285   3.010 -0.1144  0.5851 -0.0225
 2856SOL     ow11421   4.809   3.650   3.937  0.0181 -0.0499  0.4065
 2856SOL     hw11422   4.726   3.677   3.975  0.5390 -0.0284  1.5573
 2856SOL     hw11423   4.791   3.564   3.900 -0.3231 -0.4005  1.3567
 2856SOL     vw11424   4.796   3.642   3.937  0.0420 -0.0933  0.6838
 2857SOL     ow11425   4.573   0.379   3.631  0.0682  0.3635 -0.6660
 2857SOL     hw11426   4.667   0.363   3.628  0.0827  0.4786 -0.8136
 2857SOL     hw11427   4.538   0.334   3.554 -0.1016 -0.3814 -0.1705
 2857SOL     vw11428   4.580   0.371   3.620  0.0479  0.2804 -0.6201
 2858SOL     ow11429   4.838   0.839   0.371  0.0744 -0.2732  0.0609
 2858SOL     hw11430   4.927   0.844   0.408  0.1145  1.1329 -0.1720
 2858SOL     hw11431   4.838   0.759   0.319  1.7141  0.4702 -1.1794
 2858SOL     vw11432   4.850   0.829   0.369  0.2961  0.0104 -0.1335
 2859SOL     ow11433   2.638   4.512   1.317  0.4440  0.3354  0.1206
 2859SOL     hw11434   2.617   4.549   1.402 -0.0710  1.5257 -0.4951
 2859SOL     hw11435   2.610   4.421   1.322 -1.7731  0.9804  0.4822
 2859SOL     vw11436   2.632   4.505   1.329  0.0836  0.5772  0.0871
 2860SOL     ow11437   2.643   6.962   5.148 -0.0010  0.7340  0.2857
 2860SOL     hw11438   2.556   6.980   5.112  0.0553  2.9926  1.1358
 2860SOL     hw11439   2.673   7.046   5.182  1.4675 -0.5227  2.3286
 2860SOL     vw11440   2.635   6.976   5.147  0.2000  0.8662  0.6676
 2861SOL     ow11441   5.352   5.907   5.212 -0.6114 -0.2188  0.4479
 2861SOL     hw11442   5.296   5.851   5.266 -1.4530  0.0771 -0.0949
 2861SOL     hw11443   5.364   5.859   5.131  1.4053 -1.0731  1.1885
 2861SOL     vw11444   5.346   5.893   5.208 -0.4563 -0.2923  0.4740
 2862SOL     ow11445   4.022   5.586   0.827  0.1064  0.5129  0.2784
 2862SOL     hw11446   4.047   5.511   0.881  1.0411  2.0560  2.0808
 2862SOL     hw11447   3.929   5.598   0.844  0.2126  0.4754  0.9051
 2862SOL     vw11448   4.013   5.577   0.836  0.2439  0.7114  0.5988
 2863SOL     ow11449   4.642   6.099   6.946  0.1425  0.3219  0.3209
 2863SOL     hw11450   4.616   6.070   7.034 -2.1798  1.6733  0.1710
 2863SOL     hw11451   4.658   6.193   6.956  1.0233  0.2685 -0.4843
 2863SOL     vw11452   4.640   6.108   6.959 -0.0474  0.4933  0.1948
 2864SOL     ow11453   0.340   0.223   1.532 -0.3870 -0.4086  0.1396
 2864SOL     hw11454   0.312   0.132   1.519 -1.2640  0.0039 -1.0382
 2864SOL     hw11455   0.434   0.221   1.515 -0.8616 -0.5891 -3.1404
 2864SOL     vw11456   0.349   0.211   1.528 -0.5653 -0.3780 -0.4486
 2865SOL     ow11457   0.872   4.619   6.660  0.4441 -0.4201  0.2478
 2865SOL     hw11458   0.904   4.680   6.726 -1.2641 -0.7547  1.4449
 2865SOL     hw11459   0.793   4.581   6.698 -0.8986 -0.2652 -2.1858
 2865SOL     vw11460   0.866   4.622   6.674  0.0416 -0.4437  0.0846
 2866SOL     ow11461   3.569   0.160   1.556  0.7570 -0.2089  0.5036
 2866SOL     hw11462   3.479   0.147   1.587  0.3209  2.6159  0.6874
 2866SOL     hw11463   3.611   0.212   1.625  1.7663  0.6125 -0.6724
 2866SOL     vw11464   3.563   0.165   1.569  0.8326  0.2722  0.3728
 2867SOL     ow11465   3.125   7.349   1.594  0.9079 -0.7010  0.1540
 2867SOL     hw11466   3.108   7.428   1.646 -2.0056 -1.7804  1.0699
 2867SOL     hw11467   3.052   7.346   1.532  1.7808 -1.9070 -0.8488
 2867SOL     vw11468   3.113   7.359   1.593  0.6386 -1.0026  0.1426
 2868SOL     ow11469   6.694   3.884   1.548  1.1413  0.0874  0.8503
 2868SOL     hw11470   6.693   3.932   1.466  0.5908  0.8331  1.2760
 2868SOL     hw11471   6.602   3.871   1.570  1.2724 -1.0678  0.8168
 2868SOL     vw11472   6.682   3.888   1.540  1.0858  0.0334  0.9021
 2869SOL     ow11473   0.352   5.139   2.522  1.0239 -0.0356 -0.6861
 2869SOL     hw11474   0.393   5.105   2.601  0.7999 -0.4104 -0.7288
 2869SOL     hw11475   0.316   5.223   2.547 -0.6182 -0.9277  0.1015
 2869SOL     vw11476   0.353   5.145   2.536  0.7776 -0.2027 -0.5877
 2870SOL     ow11477   6.919   0.664   7.464  0.8213 -0.3680 -0.1463
 2870SOL     hw11478   6.881   0.613   7.393  1.4484 -1.3908  0.2285
 2870SOL     hw11479   6.844   0.695   7.514  0.4132 -0.5315 -0.6436
 2870SOL     vw11480   6.904   0.662   7.461  0.8502 -0.5246 -0.1628
 2871SOL     ow11481   0.254   5.549   2.707  0.6211  0.5873 -0.5879
 2871SOL     hw11482   0.319   5.492   2.747  1.0188  1.3428 -0.1380
 2871SOL     hw11483   0.301   5.593   2.636  0.1919  0.0255 -1.2461
 2871SOL     vw11484   0.269   5.547   2.703  0.6170  0.6130 -0.6155
 2872SOL     ow11485   2.030   3.470   4.725  0.1172 -0.5405 -0.3301
 2872SOL     hw11486   2.055   3.561   4.712 -0.7724 -0.1621  0.4814
 2872SOL     hw11487   2.112   3.426   4.749  0.8157 -0.2662 -2.0849
 2872SOL     vw11488   2.044   3.476   4.727  0.0920 -0.4543 -0.4544
 2873SOL     ow11489   1.003   5.056   1.310  0.1730  0.6400 -0.2385
 2873SOL     hw11490   0.941   5.104   1.365  1.7079  0.9299  1.3481
 2873SOL     hw11491   1.060   5.123   1.274  1.0233  0.2099  0.2750
 2873SOL     vw11492   1.002   5.071   1.313  0.4877  0.6216  0.0387
 2874SOL     ow11493   2.361   6.272   5.673  0.3734 -0.3479 -0.4281
 2874SOL     hw11494   2.347   6.358   5.636  0.6197  0.0526  0.3782
 2874SOL     hw11495   2.349   6.284   5.768  0.6964 -1.1263 -0.2782
 2874SOL     vw11496   2.358   6.285   5.681  0.4485 -0.3977 -0.3021
 2875SOL     ow11497   2.632   0.621   0.684 -0.4826  0.5077  0.3475
 2875SOL     hw11498   2.544   0.658   0.685 -1.9845 -2.7052  0.3492
 2875SOL     hw11499   2.653   0.606   0.776 -0.4226  0.2878  0.2997
 2875SOL     vw11500   2.623   0.624   0.696 -0.6729  0.0548  0.3414
 2876SOL     ow11501   6.168   3.639   2.588  0.1000 -0.3879  0.0166
 2876SOL     hw11502   6.220   3.578   2.640 -0.4580  1.0952  2.4827
 2876SOL     hw11503   6.087   3.649   2.638 -0.2559  1.5226 -0.8740
 2876SOL     vw11504   6.164   3.632   2.602 -0.0205  0.0598  0.2246
 2877SOL     ow11505   4.113   4.082   3.438  0.0023 -0.7037 -0.3706
 2877SOL     hw11506   4.042   4.035   3.482 -0.5930  0.1200 -0.4510
 2877SOL     hw11507   4.070   4.137   3.373  0.2876  2.7322  2.1123
 2877SOL     vw11508   4.098   4.083   3.435 -0.0389 -0.1416 -0.0536
 2878SOL     ow11509   6.991   6.231   2.039  0.2208  1.0972  0.9067
 2878SOL     hw11510   6.976   6.164   1.973  0.2212  0.4703  1.5343
 2878SOL     hw11511   7.087   6.233   2.049  0.2300  1.2996  0.7741
 2878SOL     vw11512   7.002   6.222   2.031  0.2220  1.0412  0.9720
 2879SOL     ow11513   5.894   0.889   1.543 -0.3387 -0.6006 -0.1451
 2879SOL     hw11514   5.891   0.982   1.564 -0.4108 -0.5068 -0.5609
 2879SOL     hw11515   5.933   0.848   1.620  3.2002  0.1946 -1.3399
 2879SOL     vw11516   5.899   0.896   1.555  0.1187 -0.4833 -0.3576
 2880SOL     ow11517   4.973   2.493   6.278  0.4205  0.2286 -0.2989
 2880SOL     hw11518   5.055   2.524   6.318  1.5015 -3.2901  0.5610
 2880SOL     hw11519   4.991   2.494   6.184  1.9685 -1.4643 -0.0899
 2880SOL     vw11520   4.986   2.497   6.271  0.7672 -0.4592 -0.1578
 2881SOL     ow11521   2.054   3.467   7.235  0.9137 -0.2653 -0.0571
 2881SOL     hw11522   2.040   3.450   7.328  0.5548 -0.3934 -0.1338
 2881SOL     hw11523   1.967   3.490   7.202  1.1594  0.4798 -0.2146
 2881SOL     vw11524   2.041   3.468   7.243  0.8987 -0.1839 -0.0882
 2882SOL     ow11525   7.373   5.226   1.751 -0.3080  0.5650 -0.3519
 2882SOL     hw11526   7.280   5.206   1.743 -0.7331  1.4050  1.7305
 2882SOL     hw11527   7.409   5.151   1.799  0.0930  0.3086 -1.0305
 2882SOL     vw11528   7.366   5.213   1.756 -0.3114  0.6418 -0.1667
 2883SOL     ow11529   1.113   4.320   1.892  0.3312 -0.0087  0.0328
 2883SOL     hw11530   1.093   4.293   1.803  2.7886 -1.0338 -0.3048
 2883SOL     hw11531   1.122   4.415   1.887 -0.4398  0.0394 -0.5925
 2883SOL     vw11532   1.112   4.329   1.880  0.5537 -0.1378 -0.0942
 2884SOL     ow11533   4.142   1.680   3.210  0.0414  0.0253  0.4339
 2884SOL     hw11534   4.192   1.674   3.291  2.0161 -1.4895 -0.8179
 2884SOL     hw11535   4.083   1.604   3.213  1.7455 -1.4028 -0.5190
 2884SOL     vw11536   4.141   1.669   3.221  0.5269 -0.3631  0.1429
 2885SOL     ow11537   3.854   5.540   2.551 -0.1522  0.4119 -0.2291
 2885SOL     hw11538   3.898   5.457   2.565  1.9954  1.5184  0.0213
 2885SOL     hw11539   3.824   5.537   2.460 -0.5179 -0.7941 -0.0774
 2885SOL     vw11540   3.856   5.529   2.541  0.0829  0.3986 -0.1761
 2886SOL     ow11541   0.991   2.177   6.442  0.2365 -0.3994 -0.3713
 2886SOL     hw11542   0.981   2.243   6.373 -1.2862 -0.4575 -0.2483
 2886SOL     hw11543   0.985   2.094   6.395 -0.0962 -0.4400 -0.2583
 2886SOL     vw11544   0.989   2.175   6.427 -0.0083 -0.4123 -0.3402
 2887SOL     ow11545   3.206   1.709   5.577  0.4405  0.4219  0.3688
 2887SOL     hw11546   3.272   1.659   5.624 -0.0026 -1.0137 -0.4825
 2887SOL     hw11547   3.133   1.717   5.638  1.0701  1.3342  1.0315
 2887SOL     vw11548   3.205   1.704   5.591  0.4652  0.3528  0.3438
 2888SOL     ow11549   6.117   0.898   5.243 -0.7727  0.0120 -0.0009
 2888SOL     hw11550   6.166   0.817   5.239 -0.1628  0.4244 -2.0051
 2888SOL     hw11551   6.070   0.902   5.159 -0.5193  1.8643 -0.0978
 2888SOL     vw11552   6.117   0.888   5.231 -0.6588  0.3108 -0.2780
 2889SOL     ow11553   1.081   0.823   3.701 -0.2482 -0.0312  0.1228
 2889SOL     hw11554   1.162   0.841   3.654 -0.8421  0.1196 -0.8738
 2889SOL     hw11555   1.109   0.785   3.784  0.8568  0.6187  0.0637
 2889SOL     vw11556   1.095   0.820   3.706 -0.1807  0.0744 -0.0166
 2890SOL     ow11557   1.442   1.995   3.289  0.6225  0.3279  0.2277
 2890SOL     hw11558   1.370   2.044   3.250  0.9538  0.5377 -0.1268
 2890SOL     hw11559   1.480   2.054   3.355 -0.3631 -0.2739  1.3743
 2890SOL     vw11560   1.438   2.009   3.293  0.5362  0.2761  0.3322
 2891SOL     ow11561   5.424   7.384   1.294 -0.1374 -0.2856 -0.0698
 2891SOL     hw11562   5.362   7.454   1.314 -0.8828 -1.3586  1.6479
 2891SOL     hw11563   5.381   7.304   1.324  1.6911 -1.1858  0.3426
 2891SOL     vw11564   5.410   7.383   1.301  0.0052 -0.5460  0.2112
 2892SOL     ow11565   2.373   7.641   4.115 -0.6531 -0.3002 -0.3559
 2892SOL     hw11566   2.347   7.722   4.071 -0.4990 -1.3681 -2.6063
 2892SOL     hw11567   2.462   7.658   4.146 -0.8702  0.5942 -0.1862
 2892SOL     vw11568   2.382   7.654   4.113 -0.6615 -0.3231 -0.6304
 2893SOL     ow11569   3.311   3.344   3.485  0.0525  0.1402 -0.2941
 2893SOL     hw11570   3.359   3.277   3.436 -0.3621 -0.1324 -0.3403
 2893SOL     hw11571   3.224   3.344   3.445  0.0924  0.8154 -0.3891
 2893SOL     vw11572   3.306   3.335   3.473  0.0031  0.1934 -0.3127
 2894SOL     ow11573   5.262   5.221   5.699 -0.0138 -0.0788 -0.0244
 2894SOL     hw11574   5.224   5.303   5.730  0.1590  0.4372 -1.1269
 2894SOL     hw11575   5.304   5.183   5.776 -0.9924  0.3456  0.7390
 2894SOL     vw11576   5.262   5.227   5.713 -0.1204  0.0451 -0.0691
 2895SOL     ow11577   3.100   2.592   1.309 -1.0342  0.0807 -0.7796
 2895SOL     hw11578   3.172   2.613   1.249 -1.1278 -0.2565 -1.0111
 2895SOL     hw11579   3.109   2.498   1.325  0.5610  0.5423  1.7579
 2895SOL     vw11580   3.111   2.582   1.303 -0.8360  0.0973 -0.4754
 2896SOL     ow11581   5.062   3.054   2.653 -0.4542 -0.2742 -0.2510
 2896SOL     hw11582   5.036   3.125   2.712 -2.2492  0.0794 -1.3786
 2896SOL     hw11583   5.049   2.974   2.704 -2.4493 -0.0084 -0.2497
 2896SOL     vw11584   5.057   3.053   2.667 -0.9542 -0.1926 -0.3996
 2897SOL     ow11585   2.193   3.792   4.688  0.6827 -0.2310 -0.3901
 2897SOL     hw11586   2.265   3.729   4.685 -1.3895 -2.8391  0.7586
 2897SOL     hw11587   2.210   3.844   4.766  1.2622 -0.9509 -0.0211
 2897SOL     vw11588   2.205   3.790   4.698  0.4859 -0.6702 -0.1895
 2898SOL     ow11589   0.391   0.304   0.530 -0.0417  0.2954 -0.4578
 2898SOL     hw11590   0.326   0.373   0.540 -1.0466 -0.8329  1.3771
 2898SOL     hw11591   0.360   0.233   0.586  1.1057 -1.5653 -2.0415
 2898SOL     vw11592   0.379   0.304   0.539 -0.0229 -0.0990 -0.4247
 2899SOL     ow11593   1.745   1.977   6.752  0.0324 -0.3356 -0.4649
 2899SOL     hw11594   1.815   1.950   6.692  0.0832  0.2305 -0.6593
 2899SOL     hw11595   1.668   1.927   6.723  0.5556 -1.6534  0.3130
 2899SOL     vw11596   1.744   1.967   6.740  0.1081 -0.4348 -0.3881
 2900SOL     ow11597   3.842   5.447   6.402 -0.1434 -1.1770  0.3294
 2900SOL     hw11598   3.834   5.499   6.323 -1.8566 -1.2705  0.3898
 2900SOL     hw11599   3.883   5.505   6.466 -1.0177 -0.2446  0.0737
 2900SOL     vw11600   3.846   5.461   6.400 -0.4848 -1.0662  0.3035
 2901SOL     ow11601   1.916   4.841   4.703 -0.4300  0.3716  0.0798
 2901SOL     hw11602   1.915   4.866   4.795  0.8302 -0.0075  0.2162
 2901SOL     hw11603   1.887   4.920   4.657 -1.1548  0.5370  0.7874
 2901SOL     vw11604   1.912   4.855   4.709 -0.3593  0.3436  0.1915
 2902SOL     ow11605   6.669   2.363   3.887 -0.2454  0.1426 -0.3515
 2902SOL     hw11606   6.612   2.434   3.916 -0.1676  0.8710 -1.8415
 2902SOL     hw11607   6.727   2.405   3.823  1.1769 -0.8353  0.2600
 2902SOL     vw11608   6.669   2.378   3.882 -0.0472  0.1097 -0.4673
 2903SOL     ow11609   4.107   0.171   7.089  0.3234 -0.5210  0.6759
 2903SOL     hw11610   4.035   0.148   7.148 -0.1845 -0.9196 -0.0902
 2903SOL     hw11611   4.181   0.187   7.147  0.1894 -2.1868  1.3529
 2903SOL     vw11612   4.107   0.170   7.104  0.2387 -0.7934  0.6640
 2904SOL     ow11613   6.836   4.955   1.350 -0.0769  0.9509  0.3486
 2904SOL     hw11614   6.915   4.966   1.403 -0.3424  1.6765  0.6033
 2904SOL     hw11615   6.849   4.873   1.304  1.7720  2.0580 -1.2262
 2904SOL     vw11616   6.848   4.946   1.351  0.1318  1.1930  0.1745
 2905SOL     ow11617   6.394   3.894   1.793  0.2654  0.3743 -0.0952
 2905SOL     hw11618   6.396   3.901   1.697  2.2469 -0.4575 -0.1493
 2905SOL     hw11619   6.303   3.913   1.816 -0.2108  0.7826 -2.1213
 2905SOL     vw11620   6.382   3.897   1.783  0.4642  0.3184 -0.3696
 2906SOL     ow11621   0.748   5.937   4.521  0.3095 -0.3233  0.4107
 2906SOL     hw11622   0.683   6.002   4.547 -0.5204 -0.1019 -1.9732
 2906SOL     hw11623   0.701   5.854   4.525  0.5104 -0.4242  0.6829
 2906SOL     vw11624   0.733   5.935   4.525  0.2265 -0.3068  0.1321
 2907SOL     ow11625   5.413   5.372   5.051  0.0869 -0.0074 -0.2061
 2907SOL     hw11626   5.326   5.350   5.019  0.9041 -1.9889 -1.2682
 2907SOL     hw11627   5.473   5.342   4.982  1.8454 -3.2647  2.3902
 2907SOL     vw11628   5.410   5.365   5.038  0.4265 -0.6986 -0.0041
 2908SOL     ow11629   6.657   3.990   2.294 -0.3766 -0.5429 -0.1802
 2908SOL     hw11630   6.705   4.061   2.251 -0.2368 -0.0092  0.8374
 2908SOL     hw11631   6.672   3.914   2.238  1.3318 -0.3014 -0.1071
 2908SOL     vw11632   6.665   3.990   2.281 -0.1328 -0.4407 -0.0364
 2909SOL     ow11633   4.013   6.124   5.117 -0.1219 -0.1113 -0.3241
 2909SOL     hw11634   4.095   6.147   5.073 -0.5281 -0.3738 -1.2566
 2909SOL     hw11635   3.986   6.042   5.075 -1.9666  1.0703 -1.6100
 2909SOL     vw11636   4.020   6.116   5.105 -0.4189  0.0100 -0.6166
 2910SOL     ow11637   3.984   5.325   0.597  0.1231  0.4329  0.3431
 2910SOL     hw11638   3.995   5.296   0.506  3.0388  1.6457  0.2036
 2910SOL     hw11639   3.905   5.378   0.596 -0.0028  0.2693 -1.4629
 2910SOL     vw11640   3.975   5.328   0.585  0.4910  0.5715  0.0864
 2911SOL     ow11641   5.585   1.613   3.278  0.3987 -0.4435  0.5021
 2911SOL     hw11642   5.518   1.640   3.340 -0.5081  0.7084 -0.8986
 2911SOL     hw11643   5.588   1.517   3.286 -2.0823 -0.6421  0.0275
 2911SOL     vw11644   5.577   1.604   3.287 -0.0482 -0.3178  0.2548
 2912SOL     ow11645   4.897   6.912   5.196 -0.8298 -0.3004 -0.4649
 2912SOL     hw11646   4.834   6.972   5.158 -0.6219 -0.3250 -0.8494
 2912SOL     hw11647   4.847   6.864   5.262 -1.4831 -1.0509 -1.4819
 2912SOL     vw11648   4.882   6.913   5.200 -0.8886 -0.4025 -0.6497
 2913SOL     ow11649   7.242   1.558   1.148  0.5479  0.1742 -0.3442
 2913SOL     hw11650   7.279   1.631   1.199  0.5595 -0.6609  0.8943
 2913SOL     hw11651   7.164   1.533   1.197  0.3466 -0.4088 -0.9605
 2913SOL     vw11652   7.237   1.565   1.161  0.5233 -0.0129 -0.2621
 2914SOL     ow11653   5.553   4.813   1.010  0.2428  0.2904  0.4202
 2914SOL     hw11654   5.552   4.843   1.101  0.1711 -0.9119  0.8229
 2914SOL     hw11655   5.604   4.733   1.011 -0.1808 -0.0036 -0.5163
 2914SOL     vw11656   5.560   4.807   1.022  0.1774  0.0930  0.3498
 2915SOL     ow11657   6.634   7.248   7.625 -0.1303  0.5061 -0.3747
 2915SOL     hw11658   6.582   7.322   7.593 -0.4722  0.1292 -0.7003
 2915SOL     hw11659   6.574   7.173   7.621 -0.1735  0.4300  1.0999
 2915SOL     vw11660   6.619   7.248   7.620 -0.1812  0.4466 -0.2232
 2916SOL     ow11661   5.834   6.985   5.447 -0.3569  0.1998  0.1291
 2916SOL     hw11662   5.880   7.015   5.369 -1.7777 -0.5801 -1.0846
 2916SOL     hw11663   5.777   7.058   5.471  0.5495  0.6818  0.8465
 2916SOL     vw11664   5.832   6.998   5.440 -0.4249  0.1605  0.0639
 2917SOL     ow11665   3.144   5.164   7.347 -0.6239 -0.6078  0.2122
 2917SOL     hw11666   3.169   5.230   7.412 -1.8615  0.4809 -0.3744
 2917SOL     hw11667   3.206   5.177   7.275 -2.9011  2.4423 -1.4707
 2917SOL     vw11668   3.155   5.175   7.346 -1.0877 -0.0620 -0.0873
 2918SOL     ow11669   1.624   0.034   0.535  0.0818  0.4478 -0.5272
 2918SOL     hw11670   1.705   0.079   0.561  0.7612 -0.5221 -0.8740
 2918SOL     hw11671   1.655  -0.049   0.497 -1.1157 -0.3685  0.1961
 2918SOL     vw11672   1.639   0.029   0.534  0.0135  0.2122 -0.4775
 2919SOL     ow11673   0.118   5.444   1.142  0.2471  0.9918 -0.2522
 2919SOL     hw11674   0.132   5.532   1.108 -0.8055  1.1317 -0.3694
 2919SOL     hw11675   0.198   5.423   1.190 -0.5379  3.0916  2.1269
 2919SOL     vw11676   0.130   5.453   1.144  0.0047  1.2870  0.0462
 2920SOL     ow11677   2.076   6.844   2.928 -0.0380 -1.0967  0.7497
 2920SOL     hw11678   2.117   6.807   3.006 -1.2929 -3.4855  0.3712
 2920SOL     hw11679   1.984   6.857   2.954  0.3998  2.3505  0.9997
 2920SOL     vw11680   2.069   6.841   2.942 -0.1458 -0.9570  0.7328
 2921SOL     ow11681   5.490   0.412   1.179 -0.6016 -0.1108 -0.6249
 2921SOL     hw11682   5.476   0.327   1.221 -0.8296 -0.5303 -1.5371
 2921SOL     hw11683   5.402   0.448   1.168 -0.4425  1.0152  1.2589
 2921SOL     vw11684   5.476   0.406   1.183 -0.6104 -0.0176 -0.4967
 2922SOL     ow11685   0.211   2.112   0.449 -0.0009 -0.2682  0.0459
 2922SOL     hw11686   0.174   2.188   0.493  0.8527 -0.2630  0.7887
 2922SOL     hw11687   0.166   2.108   0.365 -0.9040  0.3504  0.4912
 2922SOL     vw11688   0.200   2.121   0.444 -0.0074 -0.1861  0.2026
 2923SOL     ow11689   1.746   1.235   2.939  0.9718  0.0118  0.2672
 2923SOL     hw11690   1.794   1.253   3.020 -0.1754 -0.1738  1.0038
 2923SOL     hw11691   1.762   1.313   2.885  1.7710  0.1239  0.6479
 2923SOL     vw11692   1.754   1.248   2.942  0.9258  0.0021  0.4147
 2924SOL     ow11693   0.208   6.053   6.701  0.2868 -0.5258 -0.0153
 2924SOL     hw11694   0.164   5.992   6.642  2.2857 -0.8546 -1.2725
 2924SOL     hw11695   0.281   6.087   6.650  2.3104 -1.0317  2.3160
 2924SOL     vw11696   0.212   6.049   6.687  0.8175 -0.6359  0.1264
 2925SOL     ow11697   1.191   4.847   0.928  0.3970 -0.4478 -0.4510
 2925SOL     hw11698   1.193   4.873   1.021 -0.3263 -1.0630 -0.2562
 2925SOL     hw11699   1.127   4.777   0.924  0.3396 -0.3519 -1.4489
 2925SOL     vw11700   1.183   4.841   0.940  0.2940 -0.5162 -0.5569
 2926SOL     ow11701   5.552   2.120   5.946 -0.4396 -1.2409 -0.3676
 2926SOL     hw11702   5.553   2.169   5.863  0.6869  2.6498  1.7071
 2926SOL     hw11703   5.460   2.098   5.960 -1.0419  0.4860 -1.3436
 2926SOL     vw11704   5.540   2.123   5.937 -0.3703 -0.4997 -0.2227
 2927SOL     ow11705   0.846   2.596   6.330  0.1241 -0.2827 -0.5869
 2927SOL     hw11706   0.897   2.621   6.407 -2.4091  0.6167  0.8941
 2927SOL     hw11707   0.849   2.674   6.273 -0.9830  0.4438  0.3033
 2927SOL     vw11708   0.853   2.610   6.332 -0.3562 -0.0682 -0.2737
 2928SOL     ow11709   2.704   7.566   0.328  0.1184  0.5892 -0.1075
 2928SOL     hw11710   2.654   7.545   0.407  0.0652 -0.9744 -0.5239
 2928SOL     hw11711   2.796   7.561   0.356  0.1012  2.3629  0.3878
 2928SOL     vw11712   2.710   7.563   0.342  0.1091  0.6166 -0.0971
 2929SOL     ow11713   3.443   3.248   3.695  0.7134 -0.3414 -0.3506
 2929SOL     hw11714   3.440   3.309   3.768  1.5681 -1.2861  0.5083
 2929SOL     hw11715   3.394   3.292   3.625  2.6342  2.0618 -0.3321
 2929SOL     vw11716   3.436   3.262   3.695  1.0796 -0.1490 -0.2350
 2930SOL     ow11717   6.918   5.637   5.228 -0.9477 -0.6394  0.5866
 2930SOL     hw11718   6.835   5.656   5.184  0.2870  0.0135 -1.5626
 2930SOL     hw11719   6.980   5.702   5.193 -0.4538  2.0871  5.5315
 2930SOL     vw11720   6.915   5.648   5.218 -0.7195 -0.1934  0.9553
 2931SOL     ow11721   6.766   1.373   0.297  0.1213  0.4934  0.1298
 2931SOL     hw11722   6.679   1.336   0.314 -0.9254  0.2197 -4.4534
 2931SOL     hw11723   6.820   1.297   0.276  0.8933  0.8395  0.8429
 2931SOL     vw11724   6.761   1.358   0.297  0.0849  0.5029 -0.3808
 2932SOL     ow11725   4.793   2.145   6.757 -0.2308 -0.0072 -0.0944
 2932SOL     hw11726   4.723   2.082   6.773  1.4660 -1.7315  0.8351
 2932SOL     hw11727   4.838   2.154   6.841 -1.2851  3.6896  0.2887
 2932SOL     vw11728   4.789   2.138   6.770 -0.1462  0.2531  0.0787
 2933SOL     ow11729   0.309   2.697   6.974  0.3676 -0.7507  0.6971
 2933SOL     hw11730   0.226   2.722   7.015  0.8011 -0.5527  1.4722
 2933SOL     hw11731   0.312   2.601   6.983  0.9509 -0.6322  2.1444
 2933SOL     vw11732   0.298   2.687   6.981  0.5018 -0.7089  0.9906
 2934SOL     ow11733   2.793   0.968   2.944 -0.4912  0.2940  0.4299
 2934SOL     hw11734   2.705   0.929   2.947 -0.4510  0.1015 -0.5930
 2934SOL     hw11735   2.827   0.956   3.033  0.1022 -3.4798 -0.1153
 2934SOL     vw11736   2.786   0.961   2.956 -0.4076 -0.2292  0.2230
 2935SOL     ow11737   4.632   5.867   5.177 -0.1542  0.7912  0.1049
 2935SOL     hw11738   4.621   5.909   5.263  1.7627  1.0132  0.2735
 2935SOL     hw11739   4.703   5.805   5.190 -0.8754 -0.2870 -0.9649
 2935SOL     vw11740   4.640   5.865   5.190  0.0036  0.6781 -0.0136
 2936SOL     ow11741   3.841   5.674   1.418  0.1598 -0.6303  0.0132
 2936SOL     hw11742   3.820   5.750   1.363 -0.1441  0.3720  1.4256
 2936SOL     hw11743   3.775   5.677   1.487  1.4619 -0.8847  1.3133
 2936SOL     vw11744   3.830   5.685   1.420  0.2915 -0.5319  0.3711
 2937SOL     ow11745   3.056   5.750   4.757  0.3722  0.3624  0.2642
 2937SOL     hw11746   2.964   5.773   4.772 -0.1185 -1.4559  0.2853
 2937SOL     hw11747   3.080   5.799   4.678 -0.7816  0.4680 -0.0450
 2937SOL     vw11748   3.047   5.759   4.748  0.1552  0.1364  0.2263
 2938SOL     ow11749   7.367   4.825   3.115 -0.3813  0.2661  0.0067
 2938SOL     hw11750   7.278   4.816   3.084 -0.6239  0.9355  0.4860
 2938SOL     hw11751   7.422   4.807   3.039 -0.9164 -0.2499 -0.2628
 2938SOL     vw11752   7.363   4.821   3.101 -0.4842  0.2861  0.0343
 2939SOL     ow11753   6.870   7.144   4.751 -0.2417  0.4408 -0.5993
 2939SOL     hw11754   6.897   7.199   4.678  0.5732  2.0248  0.8332
 2939SOL     hw11755   6.924   7.065   4.743  1.6185  1.6348 -0.3585
 2939SOL     vw11756   6.881   7.141   4.740  0.1111  0.8073 -0.3784
 2940SOL     ow11757   0.083   6.563   1.636 -0.0501 -0.1699  0.2615
 2940SOL     hw11758   0.085   6.657   1.655  1.0514 -0.1636  0.1674
 2940SOL     hw11759   0.090   6.521   1.722 -0.2458 -0.1769  0.2765
 2940SOL     vw11760   0.084   6.570   1.650  0.0694 -0.1698  0.2511
 2941SOL     ow11761   4.894   1.010   6.173 -0.0587 -0.8841  0.2434
 2941SOL     hw11762   4.919   0.931   6.223  2.3040 -0.3862 -0.0553
 2941SOL     hw11763   4.947   1.006   6.094  0.0916  1.0011  0.2144
 2941SOL     vw11764   4.904   0.999   6.169  0.2732 -0.5697  0.2005
 2942SOL     ow11765   6.875   7.374   0.150 -0.0855 -0.3217 -0.2000
 2942SOL     hw11766   6.826   7.342   0.225  0.0283  0.0761  0.0456
 2942SOL     hw11767   6.930   7.444   0.185  0.0702 -0.2289 -0.6244
 2942SOL     vw11768   6.876   7.379   0.164 -0.0498 -0.2568 -0.2236
 2943SOL     ow11769   3.116   1.026   5.391  0.7782  0.3280  0.1510
 2943SOL     hw11770   3.181   1.013   5.460  0.7199 -0.8094  0.0150
 2943SOL     hw11771   3.168   1.028   5.310  0.7934  1.0826  0.1781
 2943SOL     vw11772   3.132   1.024   5.390  0.7726  0.2775  0.1369
 2944SOL     ow11773   1.490   6.224   2.582 -0.6448  0.4707  0.1272
 2944SOL     hw11774   1.421   6.158   2.589  0.7723 -1.3362 -1.7480
 2944SOL     hw11775   1.450   6.305   2.615 -3.6849 -0.4657 -0.9871
 2944SOL     vw11776   1.476   6.226   2.588 -0.8590  0.1087 -0.2671
 2945SOL     ow11777   2.085   5.055   3.753  0.4230 -0.0845  0.2989
 2945SOL     hw11778   2.155   5.080   3.692  0.9505  1.4902  1.4538
 2945SOL     hw11779   2.115   5.090   3.837 -1.7012  0.5364  0.8456
 2945SOL     vw11780   2.098   5.063   3.756  0.2123  0.2050  0.5234
 2946SOL     ow11781   2.311   5.740   0.712  0.4237 -0.0183 -0.6720
 2946SOL     hw11782   2.255   5.736   0.635  0.0725  0.3200 -0.4354
 2946SOL     hw11783   2.264   5.689   0.779  0.0513  0.8484 -0.2576
 2946SOL     vw11784   2.298   5.733   0.711  0.3283  0.1407 -0.5861
 2947SOL     ow11785   2.939   1.033   2.164  0.4154  0.2274  0.1431
 2947SOL     hw11786   2.919   0.957   2.219 -2.4315  0.1824 -0.8070
 2947SOL     hw11787   2.999   0.999   2.097 -0.9568 -1.2706 -0.3749
 2947SOL     vw11788   2.944   1.018   2.162 -0.1414  0.0237 -0.0507
 2948SOL     ow11789   1.844   7.082   4.880 -0.3360 -0.2154 -0.6139
 2948SOL     hw11790   1.831   7.177   4.883  0.8660 -0.0066 -1.4449
 2948SOL     hw11791   1.864   7.057   4.970  1.0088  0.5916 -0.6628
 2948SOL     vw11792   1.845   7.091   4.892  0.0001 -0.0815 -0.7300
 2949SOL     ow11793   1.588   5.832   5.772  0.1811 -0.3711 -0.4922
 2949SOL     hw11794   1.572   5.841   5.678 -1.1991 -1.9622 -0.4598
 2949SOL     hw11795   1.652   5.762   5.779 -1.2438 -1.6927 -0.2116
 2949SOL     vw11796   1.594   5.824   5.761 -0.1889 -0.7551 -0.4508
 2950SOL     ow11797   4.710   4.846   3.383 -0.3850  1.0954  0.2644
 2950SOL     hw11798   4.666   4.830   3.466  0.0596 -0.6658  0.1935
 2950SOL     hw11799   4.801   4.862   3.407 -0.0587 -0.3536  0.0920
 2950SOL     vw11800   4.716   4.846   3.397 -0.2832  0.6719  0.2323
 2951SOL     ow11801   2.618   1.254   7.370 -0.6306  0.3986  0.0389
 2951SOL     hw11802   2.524   1.236   7.362 -0.0443 -2.3574 -2.4157
 2951SOL     hw11803   2.631   1.336   7.321 -1.6175  0.2856 -0.4292
 2951SOL     vw11804   2.607   1.263   7.362 -0.6834  0.0201 -0.3467
 2952SOL     ow11805   5.692   3.895   1.783 -0.3700 -0.2761  0.6402
 2952SOL     hw11806   5.715   3.854   1.867 -1.5510 -0.5045  0.8710
 2952SOL     hw11807   5.683   3.822   1.722 -0.0473 -0.1525  0.4424
 2952SOL     vw11808   5.694   3.880   1.786 -0.4830 -0.2900  0.6445
 2953SOL     ow11809   5.710   7.348   7.269 -0.5157  0.0006  0.1056
 2953SOL     hw11810   5.732   7.380   7.181  2.1128 -0.8528  0.3811
 2953SOL     hw11811   5.720   7.425   7.325  0.0974  0.0236 -0.0293
 2953SOL     vw11812   5.714   7.363   7.265 -0.0880 -0.1087  0.1245
 2954SOL     ow11813   4.827   4.597   0.075  0.2827 -0.1112  0.1536
 2954SOL     hw11814   4.797   4.666   0.134  0.0394  0.1555 -0.2726
 2954SOL     hw11815   4.819   4.635  -0.012  1.1308 -0.3196 -0.0183
 2954SOL     vw11816   4.822   4.611   0.071  0.3624 -0.1035  0.0747
 2955SOL     ow11817   6.924   0.998   7.420  0.3887 -0.2974 -0.2585
 2955SOL     hw11818   6.905   1.091   7.429  1.2405  0.2518 -3.1113
 2955SOL     hw11819   6.880   0.957   7.495 -0.8350  2.2626  0.5363
 2955SOL     vw11820   6.916   1.005   7.431  0.3395  0.1128 -0.5300
 2956SOL     ow11821   3.277   0.519   3.428 -0.3989  0.4292  0.0207
 2956SOL     hw11822   3.340   0.469   3.480  0.3147  1.7135  0.4296
 2956SOL     hw11823   3.300   0.501   3.337  1.7571  2.2493  0.1278
 2956SOL     vw11824   3.288   0.510   3.423 -0.0203  0.8388  0.0889
 2957SOL     ow11825   2.822   6.879   1.861  0.5644 -0.2571  0.4090
 2957SOL     hw11826   2.752   6.917   1.915 -0.7576 -1.5770 -0.2946
 2957SOL     hw11827   2.814   6.924   1.777  2.3094  1.4507  1.0841
 2957SOL     vw11828   2.811   6.890   1.857  0.6201 -0.2060  0.4053
 2958SOL     ow11829   7.301   3.165   2.214  0.1554 -0.2932 -0.5327
 2958SOL     hw11830   7.224   3.209   2.249 -0.2747 -1.6278  0.3105
 2958SOL     hw11831   7.374   3.202   2.262 -0.3542 -1.5423  1.2906
 2958SOL     vw11832   7.300   3.175   2.225  0.0312 -0.6341 -0.1808
 2959SOL     ow11833   0.555   7.217   2.014 -0.1017 -0.1890 -0.2260
 2959SOL     hw11834   0.573   7.142   2.072 -1.2240 -0.5310 -0.2900
 2959SOL     hw11835   0.473   7.253   2.047  1.7827  2.8120  1.5949
 2959SOL     vw11836   0.547   7.212   2.026 -0.0012  0.1621  0.0057
 2960SOL     ow11837   3.592   1.690   2.094  0.0320 -0.4860  0.0619
 2960SOL     hw11838   3.675   1.696   2.047  0.9005  0.8662  1.6310
 2960SOL     hw11839   3.569   1.782   2.112 -0.7267 -0.9194  1.4260
 2960SOL     vw11840   3.600   1.703   2.090  0.0464 -0.3648  0.4489
 2961SOL     ow11841   0.141   1.451   7.105 -0.5342  0.5415 -0.0472
 2961SOL     hw11842   0.087   1.464   7.027 -1.5289  1.3482  0.7423
 2961SOL     hw11843   0.092   1.494   7.175 -0.0744 -0.8684  1.1964
 2961SOL     vw11844   0.127   1.458   7.104 -0.6048  0.4619  0.2210
 2962SOL     ow11845   3.346   0.732   3.666  0.4085 -0.2046 -0.4278
 2962SOL     hw11846   3.437   0.761   3.660 -0.1774  1.6993 -0.7521
 2962SOL     hw11847   3.322   0.749   3.757  0.1757 -0.0704 -0.5150
 2962SOL     vw11848   3.355   0.738   3.677  0.3004  0.0643 -0.4821
 2963SOL     ow11849   0.643   3.320   6.757  0.6592 -1.1596 -0.4422
 2963SOL     hw11850   0.637   3.226   6.775  1.5442 -1.0514  0.4923
 2963SOL     hw11851   0.557   3.343   6.722  0.2286 -2.1955 -0.1107
 2963SOL     vw11852   0.631   3.311   6.755  0.7192 -1.2821 -0.2751
 2964SOL     ow11853   5.395   4.960   1.317  0.0594  0.4992  0.0876
 2964SOL     hw11854   5.326   4.982   1.255 -0.9444  4.1074  2.1738
 2964SOL     hw11855   5.392   4.865   1.324 -2.4248  0.2623 -2.3346
 2964SOL     vw11856   5.386   4.951   1.310 -0.4008  0.9444  0.0433
 2965SOL     ow11857   1.845   6.823   1.402  0.0563  0.4959  0.3622
 2965SOL     hw11858   1.785   6.852   1.471 -2.5670  0.3755 -1.7340
 2965SOL     hw11859   1.825   6.731   1.389  2.0351 -0.0518  0.8174
 2965SOL     vw11860   1.835   6.815   1.410 -0.0288  0.4079  0.1457
 2966SOL     ow11861   2.147   7.094   0.581  0.3150  0.9646  0.8139
 2966SOL     hw11862   2.079   7.153   0.614 -3.2401 -2.7708  0.9428
 2966SOL     hw11863   2.178   7.137   0.501 -1.5678  3.2975  1.1902
 2966SOL     vw11864   2.142   7.108   0.575 -0.4025  0.7794  0.8806
 2967SOL     ow11865   3.313   1.802   4.942 -0.2026 -0.3616 -0.5506
 2967SOL     hw11866   3.407   1.804   4.955 -0.3988 -0.3372  1.1217
 2967SOL     hw11867   3.290   1.709   4.942 -0.2840 -0.3495  0.1099
 2967SOL     vw11868   3.322   1.790   4.944 -0.2393 -0.3568 -0.2427
 2968SOL     ow11869   1.268   3.191   3.767  0.0259  0.2344 -0.1140
 2968SOL     hw11870   1.255   3.134   3.843  1.0214  1.8167  1.3274
 2968SOL     hw11871   1.250   3.279   3.799 -1.1090  0.8266 -2.1741
 2968SOL     vw11872   1.264   3.195   3.781  0.0075  0.5213 -0.1956
 2969SOL     ow11873   3.715   6.779   0.275  0.3429  0.3065  0.3453
 2969SOL     hw11874   3.774   6.757   0.347 -1.9293 -3.6763  1.2821
 2969SOL     hw11875   3.630   6.793   0.316 -0.6414 -0.3187 -1.3624
 2969SOL     vw11876   3.712   6.778   0.290 -0.0868 -0.3016  0.2436
 2970SOL     ow11877   1.785   5.086   5.245 -0.2252 -0.4716  0.4526
 2970SOL     hw11878   1.863   5.032   5.236 -0.0697  0.0887 -3.1321
 2970SOL     hw11879   1.714   5.023   5.259  0.4747 -1.2756  0.4524
 2970SOL     vw11880   1.786   5.070   5.246 -0.1124 -0.5038 -0.0200
 2971SOL     ow11881   6.418   4.433   5.956  0.8350 -0.4582 -0.5492
 2971SOL     hw11882   6.463   4.417   6.039  1.2074  3.3891  0.1844
 2971SOL     hw11883   6.361   4.507   5.974  0.5700  0.2107 -3.6200
 2971SOL     vw11884   6.417   4.440   5.969  0.8495  0.1378 -0.8576
 2972SOL     ow11885   7.245   0.148   0.386  0.3403 -0.5172 -0.0881
 2972SOL     hw11886   7.214   0.076   0.441 -1.0905  1.8145  2.4273
 2972SOL     hw11887   7.168   0.175   0.336  0.1158  0.7575  0.8655
 2972SOL     vw11888   7.231   0.142   0.387  0.1218 -0.0414  0.3696
 2973SOL     ow11889   0.053   6.704   5.299  0.0675 -0.1668 -0.1527
 2973SOL     hw11890   0.065   6.749   5.215 -0.0777 -0.2500 -0.2193
 2973SOL     hw11891  -0.021   6.645   5.284 -0.7347  0.6780  0.3807
 2973SOL     vw11892   0.044   6.702   5.286 -0.0576 -0.0660 -0.0911
 2974SOL     ow11893   1.962   3.430   3.641  0.0426  0.8633  0.3898
 2974SOL     hw11894   1.901   3.372   3.686 -0.6234  0.2775 -1.1816
 2974SOL     hw11895   1.962   3.511   3.693  0.2662 -0.1815  2.0847
 2974SOL     vw11896   1.954   3.433   3.653 -0.0157  0.6481  0.4061
 2975SOL     ow11897   6.201   6.677   5.095  0.5159 -0.0080  0.2873
 2975SOL     hw11898   6.182   6.589   5.063 -0.3151  0.5481 -0.8476
 2975SOL     hw11899   6.172   6.734   5.024  1.6704  1.1527  0.7119
 2975SOL     vw11900   6.194   6.673   5.081  0.5586  0.2184  0.1934
 2976SOL     ow11901   4.027   5.336   7.584 -0.2414 -0.2572 -0.2235
 2976SOL     hw11902   4.002   5.427   7.597  0.6665 -0.3901  3.5489
 2976SOL     hw11903   4.122   5.335   7.593 -0.2249 -1.5773 -0.2874
 2976SOL     vw11904   4.036   5.348   7.587 -0.1194 -0.4487  0.2658
 2977SOL     ow11905   4.034   6.241   7.278  0.5223 -0.3454  0.2731
 2977SOL     hw11906   3.942   6.247   7.307  0.8287  0.1447  1.1969
 2977SOL     hw11907   4.079   6.309   7.329  1.2950 -0.1810 -0.6097
 2977SOL     vw11908   4.027   6.251   7.289  0.6647 -0.2589  0.2785
 2978SOL     ow11909   4.240   2.216   0.498  0.3823  0.4401 -0.6368
 2978SOL     hw11910   4.195   2.143   0.541  0.0969  0.9014 -0.1494
 2978SOL     hw11911   4.259   2.183   0.410 -1.9621  0.5979 -1.2884
 2978SOL     vw11912   4.236   2.202   0.492  0.0355  0.5219 -0.6585
 2979SOL     ow11913   5.689   5.305   5.745 -0.1655  0.1042  0.7874
 2979SOL     hw11914   5.775   5.274   5.718 -0.1862 -2.8886  3.6139
 2979SOL     hw11915   5.702   5.339   5.833 -1.7857  0.1154  1.0553
 2979SOL     vw11916   5.702   5.305   5.753 -0.3824 -0.2892  1.1957
 2980SOL     ow11917   3.293   2.997   2.768 -0.2318  0.1788  0.0068
 2980SOL     hw11918   3.383   2.965   2.766 -0.2922 -0.0516  0.7084
 2980SOL     hw11919   3.285   3.043   2.852 -0.5970  0.7095 -0.3108
 2980SOL     vw11920   3.304   2.999   2.779 -0.2879  0.2184  0.0572
 2981SOL     ow11921   3.080   2.631   5.311 -0.1408 -0.1455  0.1573
 2981SOL     hw11922   3.108   2.664   5.396  0.0117 -1.5833  0.6902
 2981SOL     hw11923   3.158   2.639   5.256  0.4719 -1.3991  0.8181
 2981SOL     vw11924   3.094   2.637   5.315 -0.0397 -0.5006  0.3147
 2982SOL     ow11925   6.958   6.182   1.619 -0.4471  0.3859  0.0682
 2982SOL     hw11926   6.945   6.097   1.578 -0.1590 -0.2193  1.1931
 2982SOL     hw11927   6.873   6.226   1.612 -0.8627 -0.3711  0.3207
 2982SOL     vw11928   6.945   6.177   1.613 -0.4640  0.2062  0.2500
 2983SOL     ow11929   7.204   5.932   0.942 -1.0431  0.1963 -0.4545
 2983SOL     hw11930   7.113   5.961   0.934 -0.1802  3.2621 -0.6731
 2983SOL     hw11931   7.235   5.925   0.852 -0.7081  0.5879 -0.3764
 2983SOL     vw11932   7.196   5.935   0.929 -0.8850  0.6526 -0.4730
 2984SOL     ow11933   5.654   7.203   1.406 -0.3796  0.0678  0.1325
 2984SOL     hw11934   5.699   7.180   1.487  0.3357 -0.6131 -0.4445
 2984SOL     hw11935   5.668   7.128   1.348  0.6987  1.2880 -1.2604
 2984SOL     vw11936   5.662   7.190   1.409 -0.1428  0.1390 -0.1274
 2985SOL     ow11937   0.175   6.350   2.122 -0.4348 -0.5412  0.6979
 2985SOL     hw11938   0.224   6.333   2.202  1.0677 -2.0521 -0.4769
 2985SOL     hw11939   0.093   6.302   2.134 -0.4234 -0.3807  1.4952
 2985SOL     vw11940   0.171   6.341   2.134 -0.2350 -0.7193  0.6481
 2986SOL     ow11941   3.169   0.710   0.280  0.3492 -0.3372 -0.0086
 2986SOL     hw11942   3.179   0.615   0.277  4.0779 -0.1517  1.4153
 2986SOL     hw11943   3.192   0.734   0.370  4.1188  2.1189 -1.3795
 2986SOL     vw11944   3.173   0.700   0.292  1.3385  0.0113 -0.0016
 2987SOL     ow11945   6.805   6.314   3.452  1.0915 -0.0333  0.3260
 2987SOL     hw11946   6.787   6.387   3.510  0.5006 -0.3930  0.5974
 2987SOL     hw11947   6.894   6.286   3.476  0.4323 -0.9002  1.8299
 2987SOL     vw11948   6.815   6.320   3.463  0.9265 -0.1953  0.5604
 2988SOL     ow11949   1.165   5.628   2.887  0.3801 -0.3581  0.0503
 2988SOL     hw11950   1.179   5.711   2.932 -1.0000  0.8303 -1.5881
 2988SOL     hw11951   1.071   5.626   2.869  0.4069 -2.2080 -0.1105
 2988SOL     vw11952   1.154   5.639   2.891  0.2015 -0.4454 -0.1872
 2989SOL     ow11953   7.360   0.615   0.301 -0.1637  1.0311  0.1794
 2989SOL     hw11954   7.384   0.638   0.211 -1.5031  1.5744 -0.0709
 2989SOL     hw11955   7.265   0.604   0.298  0.0609 -1.6887  0.9582
 2989SOL     vw11956   7.351   0.617   0.288 -0.3104  0.7440  0.2491
 2990SOL     ow11957   7.218   2.280   0.344  0.5860 -0.2464  0.1045
 2990SOL     hw11958   7.259   2.195   0.358  2.8513  0.9388  1.3420
 2990SOL     hw11959   7.124   2.264   0.351  0.9945 -2.4784  1.2801
 2990SOL     vw11960   7.211   2.267   0.347  0.9387 -0.3847  0.4229
 2991SOL     ow11961   6.547   1.511   2.484 -0.3095 -0.0870  0.1856
 2991SOL     hw11962   6.479   1.449   2.509 -1.0346  0.0876 -1.2227
 2991SOL     hw11963   6.570   1.486   2.394  0.5775  0.6474  0.1922
 2991SOL     vw11964   6.541   1.500   2.475 -0.2880  0.0329  0.0008
 2992SOL     ow11965   2.445   7.517   5.320  0.4188 -0.6730  0.7108
 2992SOL     hw11966   2.414   7.587   5.378 -0.2469 -1.0359  0.8003
 2992SOL     hw11967   2.500   7.562   5.256  0.5160 -0.1565  1.1513
 2992SOL     vw11968   2.448   7.532   5.319  0.3437 -0.6530  0.7808
 2993SOL     ow11969   7.074   7.015   2.665  0.3962  0.1621 -0.2403
 2993SOL     hw11970   6.991   7.017   2.618  1.5859 -0.3771 -2.5024
 2993SOL     hw11971   7.113   7.101   2.647 -0.5153  1.3091  2.6284
 2993SOL     vw11972   7.069   7.027   2.656  0.4332  0.2422 -0.1603
 2994SOL     ow11973   7.175   5.200   6.540 -0.0453  0.1974 -0.5913
 2994SOL     hw11974   7.119   5.183   6.465 -1.7255 -1.1561  0.8921
 2994SOL     hw11975   7.251   5.143   6.527 -1.5730 -2.1340 -0.0321
 2994SOL     vw11976   7.178   5.190   6.529 -0.4685 -0.2890 -0.3216
 2995SOL     ow11977   6.210   6.673   1.415  0.8944  0.7298  0.4263
 2995SOL     hw11978   6.201   6.624   1.497 -0.7090 -0.2691 -0.2943
 2995SOL     hw11979   6.150   6.748   1.426 -0.5224 -0.2458 -0.3869
 2995SOL     vw11980   6.201   6.677   1.428  0.4959  0.4692  0.2239
 2996SOL     ow11981   0.788   7.203   2.746 -0.6504  0.3284  0.4156
 2996SOL     hw11982   0.804   7.217   2.653  1.7289  2.6858  1.0637
 2996SOL     hw11983   0.744   7.282   2.775  2.3881  1.6258  1.9764
 2996SOL     vw11984   0.784   7.215   2.738  0.0644  0.8109  0.7070
 2997SOL     ow11985   4.509   7.574   1.122 -0.0558  0.3472 -0.2022
 2997SOL     hw11986   4.449   7.599   1.192 -0.0319 -2.1522  0.8378
 2997SOL     hw11987   4.454   7.567   1.044 -0.2912  2.0609 -0.2219
 2997SOL     vw11988   4.494   7.576   1.121 -0.0837  0.2437 -0.0676
 2998SOL     ow11989   1.703   5.509   2.267  0.4583 -0.1361 -0.7932
 2998SOL     hw11990   1.771   5.577   2.272 -0.0895  0.3158  2.1070
 2998SOL     hw11991   1.628   5.553   2.226  1.0184  0.1170 -1.5896
 2998SOL     vw11992   1.702   5.524   2.262  0.4600 -0.0429 -0.5157
 2999SOL     ow11993   4.585   5.509   7.473  0.4409  0.3291 -0.3465
 2999SOL     hw11994   4.653   5.515   7.405  0.4417 -3.4824 -0.9354
 2999SOL     hw11995   4.634   5.506   7.555  1.0222 -1.5517 -0.7114
 2999SOL     vw11996   4.601   5.509   7.475  0.5176 -0.4220 -0.4723
 3000SOL     ow11997   4.501   1.979   3.315  0.3176  0.0056 -0.3459
 3000SOL     hw11998   4.438   2.043   3.282  1.3484  0.7141 -0.9982
 3000SOL     hw11999   4.450   1.922   3.373 -0.8501  0.7274 -0.6413
 3000SOL     vw12000   4.486   1.980   3.318  0.2995  0.1943 -0.4710
 3001SOL     ow12001   7.580   5.231   3.288 -0.1948  0.0059  0.0752
 3001SOL     hw12002   7.512   5.196   3.230  0.2477 -0.1859 -0.3328
 3001SOL     hw12003   7.652   5.168   3.281  0.4473  0.7811 -0.3392
 3001SOL     vw12004   7.580   5.218   3.280 -0.0515  0.0830 -0.0334
 3002SOL     ow12005   4.494   2.684   4.932  0.1298  0.4330  0.6098
 3002SOL     hw12006   4.517   2.639   4.851  0.3999  3.3942 -1.1117
 3002SOL     hw12007   4.398   2.677   4.937  0.1896 -0.5092  0.5289
 3002SOL     vw12008   4.484   2.677   4.922  0.1733  0.6993  0.3717
 3003SOL     ow12009   1.840   1.895   0.633  0.2899 -0.2446 -0.2040
 3003SOL     hw12010   1.931   1.890   0.664  0.4821 -0.1047 -0.7376
 3003SOL     hw12011   1.816   1.987   0.646 -0.5835 -0.7325  2.1558
 3003SOL     vw12012   1.849   1.907   0.639  0.2000 -0.2905  0.0370
 3004SOL     ow12013   7.005   7.080   1.063 -0.7451  0.0547  0.6336
 3004SOL     hw12014   6.959   7.112   1.141 -1.5505 -1.6758  0.9251
 3004SOL     hw12015   6.935   7.058   1.001 -0.1796 -0.0353  0.0149
 3004SOL     vw12016   6.989   7.081   1.065 -0.7765 -0.1855  0.5903
 3005SOL     ow12017   5.037   1.847   6.605  0.5880  0.1817  0.0526
 3005SOL     hw12018   4.962   1.790   6.592  1.3715 -0.9362  0.2813
 3005SOL     hw12019   5.067   1.828   6.694 -0.5467  2.6996  1.0732
 3005SOL     vw12020   5.031   1.837   6.615  0.5414  0.3664  0.2172
 3006SOL     ow12021   1.747   2.250   7.456  0.4265 -0.0975 -1.0411
 3006SOL     hw12022   1.715   2.338   7.435 -0.6118 -0.9376 -3.3884
 3006SOL     hw12023   1.842   2.256   7.445  1.2117  1.9734  4.2086
 3006SOL     vw12024   1.755   2.262   7.451  0.3931  0.0647 -0.6583
 3007SOL     ow12025   6.428   5.901   3.277 -0.7363 -0.7342  0.2951
 3007SOL     hw12026   6.468   5.827   3.230  0.9672  1.0783 -1.3350
 3007SOL     hw12027   6.410   5.867   3.364 -0.4536 -3.1804 -0.5044
 3007SOL     vw12028   6.431   5.887   3.282 -0.4742 -0.8180 -0.0254
 3008SOL     ow12029   1.561   0.423   6.055 -0.0364  0.8177 -0.1008
 3008SOL     hw12030   1.601   0.504   6.084 -1.2130  1.8307 -1.1718
 3008SOL     hw12031   1.613   0.354   6.096 -0.0740  2.0954  2.2789
 3008SOL     vw12032   1.573   0.424   6.064 -0.1966  1.1200  0.0720
 3009SOL     ow12033   2.372   0.733   7.262 -0.0780 -0.4940 -0.0059
 3009SOL     hw12034   2.296   0.787   7.285 -0.7639 -1.4580  0.0407
 3009SOL     hw12035   2.401   0.768   7.178 -0.3371  0.1184  0.1486
 3009SOL     vw12036   2.366   0.745   7.254 -0.2028 -0.5404  0.0205
 3010SOL     ow12037   3.127   0.699   6.378  0.1936  0.1464  0.7319
 3010SOL     hw12038   3.093   0.611   6.365  2.3780 -0.7368  0.4743
 3010SOL     hw12039   3.204   0.687   6.434  1.0273  1.7394  0.0065
 3010SOL     vw12040   3.133   0.686   6.383  0.5918  0.2401  0.6022
 3011SOL     ow12041   0.495   3.960   0.139 -0.3082  0.5197  1.2190
 3011SOL     hw12042   0.548   3.994   0.066  1.4371 -0.2500  2.0582
 3011SOL     hw12043   0.516   4.018   0.212  0.1871 -0.4048  1.8271
 3011SOL     vw12044   0.505   3.973   0.139 -0.0126  0.2962  1.4100
 3012SOL     ow12045   1.387   5.200   3.742 -0.1207  0.4286  0.6038
 3012SOL     hw12046   1.298   5.234   3.732 -0.5075 -0.8657 -0.8365
 3012SOL     hw12047   1.375   5.112   3.778  0.3238 -0.7627 -1.9312
 3012SOL     vw12048   1.373   5.193   3.745 -0.1131  0.1009  0.0793
 3013SOL     ow12049   1.194   2.022   2.082  0.8754  0.3442 -0.1692
 3013SOL     hw12050   1.244   2.055   2.156 -0.2833 -0.3369  0.9472
 3013SOL     hw12051   1.210   2.085   2.012 -0.3313  2.6441  1.5109
 3013SOL     vw12052   1.203   2.034   2.082  0.5634  0.5577  0.1999
 3014SOL     ow12053   6.748   2.749   0.215  0.2470 -0.0612 -0.3616
 3014SOL     hw12054   6.765   2.715   0.127 -1.0359 -0.0171 -0.6540
 3014SOL     hw12055   6.654   2.734   0.228  0.6689 -1.3274  1.5687
 3014SOL     vw12056   6.738   2.743   0.205  0.1333 -0.2226 -0.1455
 3015SOL     ow12057   0.618   6.832   3.100 -0.1598 -0.0561  0.8536
 3015SOL     hw12058   0.547   6.838   3.164  0.5670  0.5008  1.6297
 3015SOL     hw12059   0.667   6.913   3.110  0.1528 -0.0930 -0.2063
 3015SOL     vw12060   0.615   6.843   3.110 -0.0226  0.0124  0.8163
 3016SOL     ow12061   5.836   1.969   4.878  0.3364  0.0784  0.0816
 3016SOL     hw12062   5.876   1.939   4.797 -3.3358 -0.5138 -1.7544
 3016SOL     hw12063   5.795   2.053   4.856  2.8208  2.1487  2.6464
 3016SOL     vw12064   5.836   1.976   4.865  0.1798  0.2734  0.1779
 3017SOL     ow12065   5.521   4.032   2.319 -0.0571  0.0611 -0.1414
 3017SOL     hw12066   5.474   4.025   2.403  0.8108 -0.5437  0.3108
 3017SOL     hw12067   5.516   4.125   2.297  0.1662  0.3310  0.8630
 3017SOL     vw12068   5.514   4.043   2.327  0.0865  0.0167  0.0508
 3018SOL     ow12069   5.755   4.325   1.950 -0.0640  0.0779 -0.7157
 3018SOL     hw12070   5.820   4.291   1.888 -0.8166  1.3683 -2.2941
 3018SOL     hw12071   5.803   4.338   2.031  2.0350  2.1844 -2.1668
 3018SOL     vw12072   5.770   4.322   1.952  0.1137  0.5262 -1.1154
 3019SOL     ow12073   2.221   4.393   4.236 -0.0045  0.2329 -0.0508
 3019SOL     hw12074   2.267   4.476   4.250  1.1572 -0.5189  0.7476
 3019SOL     hw12075   2.133   4.408   4.270  0.3119  1.0208  0.4374
 3019SOL     vw12076   2.215   4.406   4.242  0.1905  0.2377  0.1190
 3020SOL     ow12077   3.391   4.852   0.937  0.1641 -1.1135  0.4712
 3020SOL     hw12078   3.334   4.776   0.950  1.4084 -2.2378 -0.3406
 3020SOL     hw12079   3.383   4.873   0.844 -0.9421  0.4289  0.8799
 3020SOL     vw12080   3.383   4.845   0.926  0.1823 -1.0581  0.4180
 3021SOL     ow12081   6.883   2.077   4.841 -0.0994 -0.0869 -0.0969
 3021SOL     hw12082   6.901   2.051   4.750  0.9141 -0.5435  0.2238
 3021SOL     hw12083   6.926   2.162   4.851 -3.1338  1.7184 -1.0456
 3021SOL     vw12084   6.891   2.085   4.830 -0.3660  0.0911 -0.1800
 3022SOL     ow12085   3.567   7.107   6.789  0.7249  0.1779 -0.0917
 3022SOL     hw12086   3.651   7.147   6.766  2.0680 -1.6784  1.3132
 3022SOL     hw12087   3.545   7.053   6.713  1.0850  0.2153 -0.2225
 3022SOL     vw12088   3.575   7.105   6.776  0.9495 -0.0622  0.0765
 3023SOL     ow12089   6.438   4.912   2.585 -0.1336  0.2532 -0.1699
 3023SOL     hw12090   6.521   4.948   2.551 -0.4640  0.7527 -0.4627
 3023SOL     hw12091   6.408   4.977   2.648 -0.6837  0.4461 -0.6231
 3023SOL     vw12092   6.445   4.926   2.589 -0.2499  0.3445 -0.2685
 3024SOL     ow12093   5.348   3.889   5.807  0.3393 -0.1786  0.9223
 3024SOL     hw12094   5.367   3.803   5.845  0.3480 -0.2660  0.7187
 3024SOL     hw12095   5.299   3.871   5.727 -0.5778  0.0412  1.4138
 3024SOL     vw12096   5.344   3.876   5.801  0.2191 -0.1612  0.9601
 3025SOL     ow12097   7.117   0.117   2.405  0.7017 -0.5197 -0.7582
 3025SOL     hw12098   7.027   0.112   2.373 -0.5528  0.9394  2.1981
 3025SOL     hw12099   7.140   0.026   2.425 -0.2563 -0.8581 -1.1418
 3025SOL     vw12100   7.109   0.104   2.403  0.4096 -0.3718 -0.4187
 3026SOL     ow12101   6.272   0.940   2.006  0.3751  0.5231  0.3781
 3026SOL     hw12102   6.221   0.859   2.006 -0.4093  0.9673 -1.0364
 3026SOL     hw12103   6.363   0.911   1.999  0.0458 -0.2570 -1.1578
 3026SOL     vw12104   6.277   0.925   2.005  0.2282  0.4787 -0.0112
 3027SOL     ow12105   0.508   7.371   2.381  0.0285 -0.1924  0.2564
 3027SOL     hw12106   0.455   7.428   2.436  1.5119 -0.1699  1.7446
 3027SOL     hw12107   0.471   7.381   2.293 -1.3132  1.1171  0.9275
 3027SOL     vw12108   0.496   7.380   2.376  0.0472 -0.0167  0.5412
 3028SOL     ow12109   7.513   0.019   0.160 -0.5290 -0.0262  0.1991
 3028SOL     hw12110   7.558   0.061   0.233  0.1689  0.3428 -0.4362
 3028SOL     hw12111   7.554   0.054   0.081  1.5255 -3.2958 -0.3967
 3028SOL     vw12112   7.524   0.029   0.159 -0.1657 -0.4089  0.0367
 3029SOL     ow12113   0.375   3.662   6.742 -0.0464 -0.9260  0.1445
 3029SOL     hw12114   0.322   3.693   6.668 -0.1906 -0.6874  0.3442
 3029SOL     hw12115   0.349   3.719   6.815  0.6824 -0.6258  0.1796
 3029SOL     vw12116   0.365   3.674   6.742  0.0307 -0.8550  0.1755
 3030SOL     ow12117   0.419   0.013   2.917  0.1292 -0.5494 -0.5477
 3030SOL     hw12118   0.432   0.063   2.998  1.0659  2.4072 -2.3365
 3030SOL     hw12119   0.482  -0.058   2.922 -0.5182 -1.0464  1.6979
 3030SOL     vw12120   0.429   0.010   2.928  0.1674 -0.2248 -0.4873
 3031SOL     ow12121   0.315   0.417   6.108 -0.2154 -0.2582 -0.2924
 3031SOL     hw12122   0.323   0.468   6.189 -0.4036 -0.2640 -0.2708
 3031SOL     hw12123   0.246   0.354   6.126 -1.9231  1.2580 -1.2524
 3031SOL     vw12124   0.307   0.415   6.121 -0.4656 -0.0589 -0.4163
 3032SOL     ow12125   7.364   7.227   0.701 -0.4602  0.5210  0.5342
 3032SOL     hw12126   7.419   7.305   0.710 -0.5062  0.5733  0.3739
 3032SOL     hw12127   7.419   7.165   0.653 -0.2132  0.2442  1.1694
 3032SOL     vw12128   7.379   7.229   0.696 -0.4339  0.4916  0.5969
 3033SOL     ow12129   2.382   1.053   0.669  0.2609  0.3943  0.4244
 3033SOL     hw12130   2.311   1.052   0.604  1.1368  1.4016 -0.5880
 3033SOL     hw12131   2.445   1.116   0.634  1.3072  0.0791  1.6886
 3033SOL     vw12132   2.381   1.061   0.655  0.5145  0.4857  0.4577
 3034SOL     ow12133   4.283   6.108   0.021  0.1798 -0.7818  0.0777
 3034SOL     hw12134   4.356   6.154   0.061  0.7906 -0.4897 -1.3044
 3034SOL     hw12135   4.299   6.116  -0.074 -0.3604 -2.7340 -0.2251
 3034SOL     vw12136   4.295   6.115   0.013  0.1891 -1.0009 -0.1446
 3035SOL     ow12137   6.953   2.177   0.337 -0.0712 -0.1048 -0.1656
 3035SOL     hw12138   6.864   2.149   0.358  0.2586 -0.5757  0.6350
 3035SOL     hw12139   6.991   2.103   0.290 -0.9770  1.1330 -3.0413
 3035SOL     vw12140   6.946   2.164   0.334 -0.1473 -0.0036 -0.4393
 3036SOL     ow12141   4.054   5.125   5.767 -0.1467  0.0491  0.6861
 3036SOL     hw12142   4.030   5.213   5.798  3.5352  1.5469 -0.1137
 3036SOL     hw12143   4.106   5.141   5.688  0.6103 -2.8599  0.4815
 3036SOL     vw12144   4.058   5.139   5.761  0.4392 -0.1371  0.5536
 3037SOL     ow12145   7.224   1.843   7.046 -0.5234  0.1247 -0.2479
 3037SOL     hw12146   7.206   1.823   6.954 -1.0479 -3.1928  0.4285
 3037SOL     hw12147   7.319   1.859   7.048  0.1768 -3.1498 -1.0202
 3037SOL     vw12148   7.234   1.842   7.034 -0.5004 -0.7451 -0.2604
 3038SOL     ow12149   5.173   6.799   5.121  0.2411  0.2299  0.4947
 3038SOL     hw12150   5.215   6.840   5.045  2.0924 -0.5705  1.0161
 3038SOL     hw12151   5.194   6.706   5.112 -1.9626 -0.3110  0.5138
 3038SOL     vw12152   5.181   6.792   5.109  0.1948  0.0529  0.5660
 3039SOL     ow12153   1.920   4.701   2.524 -0.4846  0.3677  0.3624
 3039SOL     hw12154   1.964   4.772   2.478  1.4721 -0.8323  0.2848
 3039SOL     hw12155   1.866   4.659   2.457  1.0302 -0.3228 -0.4569
 3039SOL     vw12156   1.918   4.705   2.509 -0.0266  0.1183  0.2441
 3040SOL     ow12157   2.163   4.819   4.544  0.1331 -0.0955 -0.2030
 3040SOL     hw12158   2.162   4.808   4.449 -1.3996  1.6728 -0.4643
 3040SOL     hw12159   2.248   4.859   4.562 -0.3703  1.5574 -1.1823
 3040SOL     vw12160   2.174   4.823   4.534 -0.1355  0.3560 -0.3667
 3041SOL     ow12161   5.364   3.810   3.470 -0.0516  0.1502  0.8963
 3041SOL     hw12162   5.411   3.839   3.391  2.7014 -1.9231  1.5778
 3041SOL     hw12163   5.350   3.890   3.520  1.3346  1.1055 -0.1363
 3041SOL     vw12164   5.369   3.824   3.466  0.4947  0.0029  0.8500
 3042SOL     ow12165   3.239   5.920   0.121 -0.0304 -0.1300  0.5118
 3042SOL     hw12166   3.297   5.912   0.197  1.2110 -0.6739 -0.4745
 3042SOL     hw12167   3.190   5.837   0.121  1.0842 -0.8100 -0.1616
 3042SOL     vw12168   3.240   5.908   0.131  0.2805 -0.2916  0.2928
 3043SOL     ow12169   3.216   5.239   2.924  0.1404 -0.2348  1.1829
 3043SOL     hw12170   3.161   5.211   2.997 -1.2223 -2.1644 -0.4576
 3043SOL     hw12171   3.164   5.307   2.880  0.1140 -0.3956  0.9623
 3043SOL     vw12172   3.202   5.245   2.928 -0.0429 -0.5107  0.9373
 3044SOL     ow12173   4.333   6.844   7.496  0.3323 -0.1694  0.9665
 3044SOL     hw12174   4.418   6.886   7.511  0.4601  1.2611 -2.6602
 3044SOL     hw12175   4.355   6.757   7.462  0.3107 -0.3209  1.3423
 3044SOL     vw12176   4.348   6.838   7.493  0.3462 -0.0010  0.5376
 3045SOL     ow12177   5.606   1.161   5.756  0.3999 -0.9508  0.2294
 3045SOL     hw12178   5.620   1.068   5.774 -0.3452 -0.6080  2.9207
 3045SOL     hw12179   5.629   1.206   5.838 -1.4104  1.0224 -0.2539
 3045SOL     vw12180   5.611   1.155   5.769  0.0629 -0.6452  0.5207
 3046SOL     ow12181   3.669   4.789   0.943  0.1396  0.0842  0.4033
 3046SOL     hw12182   3.575   4.803   0.958  0.4363  2.0548  0.7477
 3046SOL     hw12183   3.673   4.737   0.864 -1.2677 -1.3097  1.1867
 3046SOL     vw12184   3.657   4.784   0.935 -0.0068  0.1605  0.5521
 3047SOL     ow12185   2.137   4.554   1.717 -0.4360  0.4872 -0.4490
 3047SOL     hw12186   2.215   4.503   1.695 -0.1536  0.3723  0.7214
 3047SOL     hw12187   2.069   4.521   1.657 -0.1964 -1.1042  0.0893
 3047SOL     vw12188   2.138   4.543   1.706 -0.3670  0.2620 -0.2236
 3048SOL     ow12189   6.293   0.797   4.256 -0.5802 -0.2693  0.1947
 3048SOL     hw12190   6.297   0.888   4.283 -0.6322 -0.5945  1.3658
 3048SOL     hw12191   6.317   0.798   4.163  0.2884  0.8297  0.4092
 3048SOL     vw12192   6.296   0.809   4.248 -0.4725 -0.1672  0.3777
 3049SOL     ow12193   4.959   4.336   7.112  0.2069  0.0811 -0.4683
 3049SOL     hw12194   5.028   4.276   7.082 -0.0975 -0.1267 -0.7538
 3049SOL     hw12195   4.906   4.352   7.034  0.3299  0.7864 -0.4124
 3049SOL     vw12196   4.961   4.330   7.097  0.1829  0.1466 -0.4985
 3050SOL     ow12197   3.673   1.457   3.087  0.6504 -0.1283  0.8782
 3050SOL     hw12198   3.673   1.552   3.097  3.1968  0.2419 -1.4299
 3050SOL     hw12199   3.589   1.438   3.043 -0.4346  0.8242  2.4402
 3050SOL     vw12200   3.662   1.467   3.082  0.8430  0.0461  0.7797
 3051SOL     ow12201   0.467   4.603   2.054  0.5226 -0.2185  0.1601
 3051SOL     hw12202   0.420   4.655   2.120  0.0419  0.6651 -0.8480
 3051SOL     hw12203   0.520   4.667   2.007  0.5504 -0.7650 -0.5734
 3051SOL     vw12204   0.468   4.618   2.057  0.4628 -0.1740 -0.0696
 3052SOL     ow12205   0.780   4.618   2.636 -0.2616 -0.0640  0.0809
 3052SOL     hw12206   0.703   4.578   2.676  0.4004 -2.5570 -0.9819
 3052SOL     hw12207   0.847   4.616   2.704 -0.5475  0.3182  0.3818
 3052SOL     vw12208   0.778   4.612   2.651 -0.2120 -0.3424 -0.0197
 3053SOL     ow12209   0.645   4.859   2.264  0.0091  0.3294 -0.6971
 3053SOL     hw12210   0.676   4.919   2.331  0.0429  0.7356 -1.0706
 3053SOL     hw12211   0.724   4.817   2.230 -0.1389 -1.5262  1.0036
 3053SOL     vw12212   0.660   4.861   2.268 -0.0060  0.1380 -0.5219
 3054SOL     ow12213   7.259   1.015   4.388  0.0795  0.7775  0.2580
 3054SOL     hw12214   7.347   1.049   4.401  1.0657 -0.4977 -2.5606
 3054SOL     hw12215   7.204   1.094   4.381  0.8148  1.5837  2.4295
 3054SOL     vw12216   7.263   1.030   4.389  0.3068  0.7157  0.1726
 3055SOL     ow12217   1.728   1.562   6.199 -0.1823 -0.6402  0.2096
 3055SOL     hw12218   1.757   1.636   6.252 -2.3344  0.6315 -0.2458
 3055SOL     hw12219   1.678   1.602   6.128  0.8175 -2.4190 -1.5874
 3055SOL     vw12220   1.725   1.577   6.197 -0.3343 -0.7071 -0.0877
 3056SOL     ow12221   5.679   6.789   5.551 -0.1284 -0.1127  0.1297
 3056SOL     hw12222   5.723   6.844   5.486  1.3389 -1.6480 -0.2392
 3056SOL     hw12223   5.622   6.732   5.498  0.7961 -1.1188  0.1917
 3056SOL     vw12224   5.677   6.789   5.535  0.1872 -0.4480  0.0892
 3057SOL     ow12225   5.594   3.580   3.480 -0.0807 -0.0407 -0.1971
 3057SOL     hw12226   5.581   3.549   3.391 -0.1976 -1.4514  0.2778
 3057SOL     hw12227   5.687   3.603   3.484  0.0116 -0.3326 -0.5761
 3057SOL     vw12228   5.605   3.579   3.469 -0.0839 -0.2654 -0.1845
 3058SOL     ow12229   6.727   3.939   3.824  0.2567 -0.8260 -0.1380
 3058SOL     hw12230   6.707   3.984   3.742  2.4682 -1.1496 -0.9177
 3058SOL     hw12231   6.643   3.930   3.868 -0.5354  2.6228 -0.6672
 3058SOL     vw12232   6.714   3.944   3.819  0.4439 -0.4137 -0.3107
 3059SOL     ow12233   3.519   0.446   3.581 -0.3176 -0.4773 -0.4428
 3059SOL     hw12234   3.566   0.522   3.615 -0.3738 -0.8837  0.5603
 3059SOL     hw12235   3.583   0.398   3.529  0.6229 -1.4376  1.5283
 3059SOL     vw12236   3.533   0.450   3.578 -0.2010 -0.6576 -0.0504
 3060SOL     ow12237   7.275   4.592   3.813  0.2818 -0.1854  0.4547
 3060SOL     hw12238   7.272   4.659   3.881 -1.7246 -0.6948  0.9174
 3060SOL     hw12239   7.364   4.599   3.776  1.0130  0.8765  2.3103
 3060SOL     vw12240   7.287   4.601   3.817  0.1135 -0.1123  0.7606
 3061SOL     ow12241   4.604   4.629   7.504  0.3581 -0.5165  0.1621
 3061SOL     hw12242   4.602   4.713   7.550 -0.3694 -0.6465  0.3792
 3061SOL     hw12243   4.587   4.652   7.412 -1.1746 -0.5381  0.4146
 3061SOL     vw12244   4.601   4.643   7.498  0.0598 -0.5364  0.2236
 3062SOL     ow12245   0.828   1.421   5.214  0.0556 -0.7801  0.7133
 3062SOL     hw12246   0.753   1.368   5.187  0.7430 -1.2563 -0.3772
 3062SOL     hw12247   0.902   1.380   5.170  0.8116  0.2756  0.9662
 3062SOL     vw12248   0.828   1.408   5.205  0.2460 -0.7036  0.6030
 3063SOL     ow12249   4.016   4.234   7.219 -0.4358  1.0052  0.6360
 3063SOL     hw12250   3.952   4.184   7.167 -1.2276  0.5088  2.0234
 3063SOL     hw12251   3.987   4.222   7.309  1.4047  1.1323  1.2687
 3063SOL     vw12252   4.004   4.226   7.224 -0.2975  0.9563  0.9024
 3064SOL     ow12253   6.734   1.375   6.414  0.1463 -0.2410  0.5014
 3064SOL     hw12254   6.651   1.333   6.392 -0.8492  2.0042 -0.3289
 3064SOL     hw12255   6.731   1.386   6.509 -0.9608  0.6661  0.3791
 3064SOL     vw12256   6.722   1.370   6.424 -0.1311  0.1749  0.3757
 3065SOL     ow12257   0.100   3.096   5.158  0.1059  0.0832 -0.0156
 3065SOL     hw12258   0.112   3.054   5.073 -1.2419  1.6508 -1.0490
 3065SOL     hw12259   0.023   3.153   5.146 -0.4507 -0.0450  2.4120
 3065SOL     vw12260   0.091   3.098   5.146 -0.1453  0.2731  0.1683
 3066SOL     ow12261   4.708   0.357   2.431  0.3030  0.2260 -0.2230
 3066SOL     hw12262   4.682   0.336   2.341 -0.5455 -1.4302  0.3519
 3066SOL     hw12263   4.803   0.370   2.426  0.6670 -2.1128 -1.0470
 3066SOL     vw12264   4.717   0.356   2.419  0.2391 -0.3011 -0.2559
 3067SOL     ow12265   7.018   4.630   5.872 -0.2882 -0.0977 -0.1599
 3067SOL     hw12266   7.076   4.557   5.850  1.8397  1.2842  0.5595
 3067SOL     hw12267   7.066   4.679   5.939 -2.4247  1.0058  0.6471
 3067SOL     vw12268   7.032   4.627   5.878 -0.2892  0.2301  0.0412
 3068SOL     ow12269   0.942   3.855   3.483  0.5317 -0.7217 -0.2656
 3068SOL     hw12270   0.932   3.802   3.562  1.4442  0.3563  0.6064
 3068SOL     hw12271   0.929   3.793   3.411 -2.5198 -1.3235  0.6720
 3068SOL     vw12272   0.939   3.839   3.484  0.2494 -0.6588 -0.0268
 3069SOL     ow12273   3.403   6.465   1.071 -0.3906 -0.0099 -0.3816
 3069SOL     hw12274   3.309   6.460   1.090 -0.4757  0.5098 -0.6362
 3069SOL     hw12275   3.441   6.503   1.150 -0.1106 -1.9979  0.4976
 3069SOL     vw12276   3.395   6.469   1.084 -0.3650 -0.2036 -0.2992
 3070SOL     ow12277   1.517   1.981   1.957 -0.9538 -0.4711  0.6449
 3070SOL     hw12278   1.451   2.028   1.907 -0.7375 -1.0684 -0.2376
 3070SOL     hw12279   1.599   2.026   1.937 -0.9586 -0.3102  0.9860
 3070SOL     vw12280   1.519   1.993   1.948 -0.9259 -0.5287  0.5735
 3071SOL     ow12281   4.794   3.073   2.506  0.3687 -0.1778 -0.0290
 3071SOL     hw12282   4.880   3.057   2.545  0.1789 -1.1778 -0.0053
 3071SOL     hw12283   4.781   3.001   2.444 -1.0090 -0.8293  0.9385
 3071SOL     vw12284   4.804   3.061   2.503  0.1619 -0.3957  0.1017
 3072SOL     ow12285   3.015   6.706   2.009  0.1729  0.3829 -0.2835
 3072SOL     hw12286   3.104   6.679   2.029 -0.0030  0.4161  0.5753
 3072SOL     hw12287   2.971   6.626   1.982 -0.2052 -0.1595  1.7372
 3072SOL     vw12288   3.021   6.692   2.008  0.0998  0.3159  0.0964
 3073SOL     ow12289   2.684   1.925   4.598  0.6405  0.1783  0.1149
 3073SOL     hw12290   2.589   1.916   4.587  0.8448 -1.3310 -0.6861
 3073SOL     hw12291   2.713   1.968   4.518  0.5689  1.3046  0.6748
 3073SOL     vw12292   2.675   1.929   4.586  0.6579  0.1277  0.0830
 3074SOL     ow12293   1.326   6.984   7.298  0.4553 -0.4081  0.0040
 3074SOL     hw12294   1.373   7.056   7.255 -0.2621 -0.2374 -0.5071
 3074SOL     hw12295   1.363   6.980   7.386  2.4187 -1.1820 -0.8008
 3074SOL     vw12296   1.337   6.993   7.304  0.6197 -0.4873 -0.1698
 3075SOL     ow12297   0.148   5.743   5.210 -0.2783  0.0624 -0.0693
 3075SOL     hw12298   0.132   5.837   5.219 -2.0540 -0.2918  0.8849
 3075SOL     hw12299   0.159   5.729   5.115  1.6195  1.4221 -0.0975
 3075SOL     vw12300   0.147   5.753   5.198 -0.2622  0.1950  0.0529
 3076SOL     ow12301   5.154   3.367   3.677  0.0048  0.4499  0.6167
 3076SOL     hw12302   5.221   3.322   3.728  0.1019 -0.7189 -0.4943
 3076SOL     hw12303   5.121   3.300   3.617 -2.3146  0.9056  1.2705
 3076SOL     vw12304   5.158   3.352   3.676 -0.2882  0.3558  0.5563
 3077SOL     ow12305   3.540   1.526   1.070  0.0483 -0.3335  0.0644
 3077SOL     hw12306   3.474   1.570   1.017  0.8390  0.7617 -0.0628
 3077SOL     hw12307   3.582   1.464   1.011  0.7221  0.6678 -0.5465
 3077SOL     vw12308   3.537   1.524   1.055  0.2415 -0.0569 -0.0330
 3078SOL     ow12309   2.923   2.112   2.164  0.1247  0.1955 -0.3647
 3078SOL     hw12310   2.846   2.121   2.220 -0.0998 -3.4251  0.1644
 3078SOL     hw12311   2.925   2.019   2.140  2.9497  0.6364 -2.4161
 3078SOL     vw12312   2.913   2.101   2.168  0.4675 -0.2240 -0.5654
 3079SOL     ow12313   6.623   1.268   5.416  0.7380 -0.0246 -0.7588
 3079SOL     hw12314   6.636   1.195   5.355  1.4772 -0.3501 -0.2343
 3079SOL     hw12315   6.597   1.226   5.498  0.2789  0.3709 -0.6977
 3079SOL     vw12316   6.622   1.253   5.419  0.7749 -0.0153 -0.6816
 3080SOL     ow12317   3.177   6.914   3.516  0.1482 -0.1451 -0.2051
 3080SOL     hw12318   3.183   6.884   3.426 -0.8388  0.2652 -0.4226
 3080SOL     hw12319   3.113   6.986   3.514  0.0187 -0.2039  0.8274
 3080SOL     vw12320   3.169   6.919   3.504  0.0008 -0.0987 -0.0976
 3081SOL     ow12321   0.083   6.868   5.098 -1.0068 -0.3143 -0.0246
 3081SOL     hw12322   0.076   6.825   5.012  1.3783  0.2559 -0.5811
 3081SOL     hw12323   0.138   6.944   5.082 -1.2605  0.3052  1.8709
 3081SOL     vw12324   0.089   6.872   5.084 -0.7257 -0.1571  0.1521
 3082SOL     ow12325   5.823   1.926   2.220  0.0018 -0.0550 -0.2761
 3082SOL     hw12326   5.748   1.971   2.179  1.1152  2.7794  0.5320
 3082SOL     hw12327   5.900   1.972   2.186  1.2697 -1.4361  0.6215
 3082SOL     vw12328   5.823   1.938   2.210  0.3157  0.1367 -0.0510
 3083SOL     ow12329   1.201   2.152   6.647 -0.2818  0.0667  0.2053
 3083SOL     hw12330   1.252   2.140   6.568 -1.3843 -0.8780 -0.3851
 3083SOL     hw12331   1.247   2.101   6.714  1.9220  2.6136  0.8330
 3083SOL     vw12332   1.214   2.144   6.646 -0.1364  0.2782  0.2103
 3084SOL     ow12333   3.935   2.654   2.546 -0.4481 -0.2182 -0.0551
 3084SOL     hw12334   4.012   2.635   2.599 -0.0731  0.7787 -0.2175
 3084SOL     hw12335   3.878   2.705   2.604 -0.9418 -0.8445  0.0245
 3084SOL     vw12336   3.937   2.658   2.560 -0.4637 -0.1694 -0.0662
 3085SOL     ow12337   4.913   1.387   2.940 -0.1620  0.0141  0.6066
 3085SOL     hw12338   4.974   1.376   3.013  0.0918 -0.5534  0.3167
 3085SOL     hw12339   4.839   1.435   2.977  0.9329  1.7053  0.7257
 3085SOL     vw12340   4.912   1.392   2.954  0.0162  0.1624  0.5840
 3086SOL     ow12341   4.564   5.989   0.297 -0.5645 -0.2238 -0.4904
 3086SOL     hw12342   4.564   6.067   0.353  0.0722 -0.7562  0.2678
 3086SOL     hw12343   4.614   6.016   0.219 -2.8227  1.0406 -1.6057
 3086SOL     vw12344   4.571   6.003   0.294 -0.7787 -0.1271 -0.5375
 3087SOL     ow12345   4.105   4.062   0.533 -0.1605 -0.6041  0.1276
 3087SOL     hw12346   4.190   4.089   0.569  0.0328 -1.8484  0.6525
 3087SOL     hw12347   4.102   4.103   0.447  0.2728  0.7599  0.7280
 3087SOL     vw12348   4.116   4.071   0.526 -0.0780 -0.5882  0.2761
 3088SOL     ow12349   7.414   2.950   7.210  0.6260 -0.0107  0.6078
 3088SOL     hw12350   7.434   2.995   7.128  1.4763 -1.2618  0.0922
 3088SOL     hw12351   7.319   2.959   7.221  0.5645  0.5035 -0.3065
 3088SOL     vw12352   7.404   2.957   7.201  0.7298 -0.1080  0.4191
 3089SOL     ow12353   5.133   0.689   4.075 -0.0762 -0.4975  0.5778
 3089SOL     hw12354   5.080   0.681   4.155 -0.1260  0.5532  0.6653
 3089SOL     hw12355   5.157   0.600   4.053  0.4898 -0.7606  2.1469
 3089SOL     vw12356   5.129   0.677   4.083 -0.0081 -0.3936  0.7963
 3090SOL     ow12357   4.584   1.111   2.641  0.2472 -0.1352  0.3271
 3090SOL     hw12358   4.504   1.072   2.677  0.2127  0.9229  1.4841
 3090SOL     hw12359   4.569   1.114   2.547 -0.8834 -0.3704  0.4842
 3090SOL     vw12360   4.572   1.106   2.633  0.0937 -0.0266  0.5006
 3091SOL     ow12361   2.513   2.121   6.292 -0.8518 -0.0931  0.3726
 3091SOL     hw12362   2.543   2.098   6.380  0.1501 -3.0218 -0.6233
 3091SOL     hw12363   2.439   2.062   6.276 -0.3679 -0.3218 -1.1385
 3091SOL     vw12364   2.507   2.110   6.302 -0.6558 -0.5097  0.0417
 3092SOL     ow12365   3.904   6.567   6.560 -0.1916 -0.2240  0.6322
 3092SOL     hw12366   3.821   6.521   6.548  0.4603 -0.8794 -2.1748
 3092SOL     hw12367   3.904   6.635   6.492  1.6032 -0.3272  0.4807
 3092SOL     vw12368   3.893   6.570   6.549  0.1311 -0.3242  0.2418
 3093SOL     ow12369   7.327   0.621   3.693 -0.2916  0.2231 -0.0790
 3093SOL     hw12370   7.329   0.529   3.668  0.4723 -0.3099  1.7785
 3093SOL     hw12371   7.419   0.647   3.697 -0.4073  0.5202  1.1629
 3093SOL     vw12372   7.339   0.612   3.691 -0.2060  0.1920  0.3300
 3094SOL     ow12373   2.359   2.486   2.027 -0.0576  0.1885  0.5363
 3094SOL     hw12374   2.366   2.437   1.944 -0.9346  1.7130 -0.4803
 3094SOL     hw12375   2.447   2.482   2.064  0.6960  0.5090 -1.1013
 3094SOL     vw12376   2.371   2.479   2.021 -0.0739  0.4320  0.1861
 3095SOL     ow12377   3.549   6.410   7.356 -0.2826 -0.1201  0.0438
 3095SOL     hw12378   3.590   6.487   7.317 -1.0176  0.6443  0.7499
 3095SOL     hw12379   3.458   6.414   7.328 -0.8011  0.3819  1.7031
 3095SOL     vw12380   3.543   6.420   7.347 -0.4480  0.0470  0.3560
 3096SOL     ow12381   2.776   5.349   6.404 -0.4206  0.1986  0.6838
 3096SOL     hw12382   2.725   5.292   6.461 -2.4021 -1.1631 -2.1785
 3096SOL     hw12383   2.807   5.292   6.334 -0.7386  2.1974 -1.2260
 3096SOL     vw12384   2.773   5.334   6.402 -0.7238  0.2825  0.0541
 3097SOL     ow12385   6.457   5.516   6.831 -0.7592  0.1137 -0.1704
 3097SOL     hw12386   6.422   5.582   6.772 -0.0990 -0.4584 -1.2362
 3097SOL     hw12387   6.548   5.542   6.846  0.1021 -1.5133 -2.1302
 3097SOL     vw12388   6.464   5.528   6.825 -0.5586 -0.1767 -0.5696
 3098SOL     ow12389   5.006   2.436   6.002  0.1717  0.1962  0.2282
 3098SOL     hw12390   5.040   2.492   5.933  1.0175 -0.4494  0.1069
 3098SOL     hw12391   4.920   2.408   5.969  0.8125 -0.5873 -0.8697
 3098SOL     vw12392   4.999   2.440   5.988  0.3679  0.0076  0.0672
 3099SOL     ow12393   1.924   6.323   4.679  0.0405  0.3214  0.1703
 3099SOL     hw12394   1.876   6.322   4.597  0.8016  0.5511 -0.2895
 3099SOL     hw12395   1.992   6.389   4.666  0.0707  0.4750  1.0443
 3099SOL     vw12396   1.927   6.332   4.667  0.1449  0.3722  0.2248
 3100SOL     ow12397   6.097   1.354   2.663 -0.1453  0.3693  0.2326
 3100SOL     hw12398   6.083   1.444   2.633  0.3952  0.4239  0.1220
 3100SOL     hw12399   6.118   1.306   2.583 -0.6268  0.1051  0.2670
 3100SOL     vw12400   6.098   1.360   2.648 -0.1376  0.3417  0.2223
 3101SOL     ow12401   7.610   4.682   1.082  0.3033  0.1187  0.3355
 3101SOL     hw12402   7.527   4.638   1.103 -0.0574  0.0114 -1.1806
 3101SOL     hw12403   7.672   4.611   1.065  0.0943  0.1780 -0.7305
 3101SOL     vw12404   7.607   4.667   1.082  0.2281  0.1125 -0.0051
 3102SOL     ow12405   2.886   3.097   6.299 -0.5068  0.4008 -0.1641
 3102SOL     hw12406   2.842   3.103   6.215  2.0377 -1.7498 -1.8139
 3102SOL     hw12407   2.911   3.187   6.320 -0.5562  0.8926 -2.0715
 3102SOL     vw12408   2.883   3.110   6.291 -0.1776  0.1819 -0.6335
 3103SOL     ow12409   6.271   5.277   3.737 -0.1506  0.0498 -0.0263
 3103SOL     hw12410   6.219   5.197   3.732 -0.5369  0.2130  1.2196
 3103SOL     hw12411   6.212   5.342   3.775  0.6502  0.4903  0.4870
 3103SOL     vw12412   6.257   5.275   3.741 -0.0961  0.1295  0.2058
 3104SOL     ow12413   4.453   5.428   6.874  0.6479  0.0159  0.1645
 3104SOL     hw12414   4.410   5.377   6.805  0.0071 -0.8100  1.1530
 3104SOL     hw12415   4.393   5.424   6.948 -0.2788  3.5820 -0.1658
 3104SOL     vw12416   4.439   5.421   6.875  0.4408  0.3774  0.2513
 3105SOL     ow12417   6.045   2.598   4.369  0.1657 -0.1784 -0.0961
 3105SOL     hw12418   6.093   2.670   4.408 -2.2230 -0.3123  3.5283
 3105SOL     hw12419   6.046   2.617   4.275  1.3009  3.4585  0.4884
 3105SOL     vw12420   6.052   2.610   4.361  0.0002  0.2837  0.4590
 3106SOL     ow12421   1.622   4.836   2.803  0.0476 -0.1088 -0.3322
 3106SOL     hw12422   1.597   4.838   2.710 -0.2038  3.5129 -0.2994
 3106SOL     hw12423   1.714   4.809   2.801  0.3715  0.9432 -1.7907
 3106SOL     vw12424   1.631   4.833   2.790  0.0571  0.5078 -0.5203
 3107SOL     ow12425   2.915   3.600   5.986 -0.7633 -0.5275 -0.0715
 3107SOL     hw12426   2.950   3.596   5.897 -0.4414 -1.6971  0.0846
 3107SOL     hw12427   2.924   3.510   6.019 -0.4343 -0.0072  1.3126
 3107SOL     vw12428   2.921   3.587   5.979 -0.6775 -0.6131  0.1318
 3108SOL     ow12429   1.677   1.841   3.247 -0.0616 -0.3378 -0.0069
 3108SOL     hw12430   1.666   1.833   3.342  1.2472 -0.4602  0.1583
 3108SOL     hw12431   1.739   1.772   3.225 -0.1933 -0.1724 -0.9222
 3108SOL     vw12432   1.684   1.831   3.257  0.0938 -0.3321 -0.1059
 3109SOL     ow12433   7.123   5.928   7.023 -0.3632  0.0433  0.2120
 3109SOL     hw12434   7.077   5.996   6.973 -0.6111 -0.2192  0.0789
 3109SOL     hw12435   7.053   5.877   7.064 -0.5713 -3.1880 -3.5666
 3109SOL     vw12436   7.108   5.930   7.022 -0.4232 -0.4177 -0.3040
 3110SOL     ow12437   2.374   4.189   4.292 -0.0468 -0.1533 -0.5256
 3110SOL     hw12438   2.437   4.193   4.219 -0.8093 -0.8764 -1.2351
 3110SOL     hw12439   2.299   4.238   4.261 -0.3348 -0.3716 -0.1772
 3110SOL     vw12440   2.373   4.196   4.278 -0.1854 -0.2778 -0.5734
 3111SOL     ow12441   2.613   6.489   2.859  0.8839 -0.1017 -0.5852
 3111SOL     hw12442   2.557   6.536   2.921  2.6113  2.0008 -0.4880
 3111SOL     hw12443   2.617   6.400   2.893 -0.0702  0.4018  0.9966
 3111SOL     vw12444   2.606   6.484   2.872  0.9859  0.2420 -0.3636
 3112SOL     ow12445   5.269   3.125   2.056 -0.2417 -0.3556  0.0831
 3112SOL     hw12446   5.327   3.063   2.100  1.7740  1.3939  0.0176
 3112SOL     hw12447   5.259   3.090   1.968 -1.4912 -2.0456  0.8283
 3112SOL     vw12448   5.275   3.112   2.050 -0.1409 -0.3479  0.1729
 3113SOL     ow12449   6.499   1.941   6.048  0.0228  0.6824 -0.5367
 3113SOL     hw12450   6.565   2.007   6.024  0.4863  0.3831 -0.1041
 3113SOL     hw12451   6.550   1.867   6.082 -0.5113  0.2345 -0.6925
 3113SOL     vw12452   6.514   1.940   6.049  0.0136  0.5837 -0.5004
 3114SOL     ow12453   5.788   3.011   0.655 -0.3962  0.1563 -0.1785
 3114SOL     hw12454   5.793   2.955   0.578  0.3096  0.9267 -0.7046
 3114SOL     hw12455   5.878   3.042   0.668 -0.3454 -0.5708  1.4135
 3114SOL     vw12456   5.800   3.008   0.647 -0.2964  0.1619 -0.0378
 3115SOL     ow12457   3.423   1.549   1.956 -0.0965  0.0810 -0.0662
 3115SOL     hw12458   3.441   1.571   1.864  0.1573 -1.1146 -0.3295
 3115SOL     hw12459   3.490   1.596   2.005  1.7607 -1.6408 -0.7714
 3115SOL     vw12460   3.435   1.558   1.950  0.1820 -0.3040 -0.1940
 3116SOL     ow12461   7.161   5.830   1.923 -0.6311 -0.0870 -0.1576
 3116SOL     hw12462   7.205   5.876   1.995  2.1083 -0.6795 -1.3265
 3116SOL     hw12463   7.090   5.889   1.897  1.3527  2.5121 -0.1368
 3116SOL     vw12464   7.157   5.844   1.929 -0.0079  0.1776 -0.3090
 3117SOL     ow12465   3.836   6.419   4.307 -0.1724 -0.2510 -0.3055
 3117SOL     hw12466   3.922   6.442   4.272 -0.7035  1.2771 -0.6964
 3117SOL     hw12467   3.832   6.324   4.300  0.6356 -0.1845 -2.3356
 3117SOL     vw12468   3.847   6.409   4.301 -0.1359 -0.0405 -0.6247
 3118SOL     ow12469   3.691   5.861   7.416  0.3193 -0.4734 -0.1244
 3118SOL     hw12470   3.659   5.921   7.349 -0.6456 -1.2757 -0.3918
 3118SOL     hw12471   3.702   5.777   7.371 -1.2636 -1.2694  0.9055
 3118SOL     vw12472   3.688   5.858   7.402 -0.0168 -0.6843 -0.0236
 3119SOL     ow12473   6.132   1.305   1.106  1.0855 -0.0419  0.2645
 3119SOL     hw12474   6.103   1.216   1.121  1.1463  0.0767  1.1005
 3119SOL     hw12475   6.142   1.311   1.011 -2.5090  0.1967 -0.2260
 3119SOL     vw12476   6.130   1.294   1.095  0.6194  0.0052  0.3101
 3120SOL     ow12477   4.322   0.093   4.638  0.2394  0.3140  0.3526
 3120SOL     hw12478   4.250   0.146   4.603 -0.2888 -0.9069 -0.4436
 3120SOL     hw12479   4.388   0.158   4.662  0.8081  1.2716 -3.1861
 3120SOL     vw12480   4.321   0.109   4.637  0.2446  0.2793 -0.2196
 3121SOL     ow12481   0.131   3.156   5.423 -0.4452 -0.3417  0.3007
 3121SOL     hw12482   0.141   3.129   5.332  1.6920  0.1738  0.3107
 3121SOL     hw12483   0.066   3.226   5.422 -1.1675 -1.0147 -0.6625
 3121SOL     vw12484   0.124   3.161   5.411 -0.2585 -0.3624  0.1750
 3122SOL     ow12485   2.691   4.630   6.327  0.5562  0.0148  0.0413
 3122SOL     hw12486   2.713   4.721   6.304  0.3234  0.1688  0.4145
 3122SOL     hw12487   2.774   4.590   6.352  0.3621  0.7273  1.9213
 3122SOL     vw12488   2.705   4.637   6.327  0.4998  0.1290  0.3383
 3123SOL     ow12489   1.975   0.994   3.673 -0.3839  0.6156  0.1103
 3123SOL     hw12490   2.061   0.999   3.630 -1.0557 -0.2039 -1.4143
 3123SOL     hw12491   1.966   0.902   3.698 -0.9426  0.6350 -0.0131
 3123SOL     vw12492   1.985   0.982   3.671 -0.5463  0.5100 -0.1073
 3124SOL     ow12493   3.281   1.032   1.989  0.4094 -0.2219  0.6850
 3124SOL     hw12494   3.242   0.961   2.040  1.8498 -0.6794  1.2143
 3124SOL     hw12495   3.324   0.988   1.916 -1.9217  0.4576 -1.2198
 3124SOL     vw12496   3.282   1.017   1.986  0.2918 -0.1927  0.5035
 3125SOL     ow12497   6.542   4.152   1.922  0.1442 -0.0893 -0.2232
 3125SOL     hw12498   6.623   4.185   1.960  0.1407  1.8969 -1.7797
 3125SOL     hw12499   6.472   4.197   1.970  0.0491  0.0393 -0.4777
 3125SOL     vw12500   6.543   4.162   1.934  0.1316  0.1895 -0.4621
 3126SOL     ow12501   5.629   3.239   4.011  0.5072 -0.1066  0.3490
 3126SOL     hw12502   5.660   3.293   4.084  1.8636 -0.0022 -0.2600
 3126SOL     hw12503   5.631   3.298   3.935  1.0011 -0.7275 -0.1309
 3126SOL     vw12504   5.633   3.254   4.011  0.7515 -0.1748  0.2053
 3127SOL     ow12505   6.930   1.982   5.122  0.6870 -0.3540 -0.1729
 3127SOL     hw12506   6.889   2.044   5.183 -1.1864 -3.1614  1.6547
 3127SOL     hw12507   6.996   1.937   5.175 -0.4698 -2.3427 -0.3318
 3127SOL     vw12508   6.934   1.984   5.137  0.2871 -0.9868  0.0472
 3128SOL     ow12509   1.577   3.043   0.256 -0.4850  0.2783  0.1327
 3128SOL     hw12510   1.564   3.126   0.211 -1.1251  0.8661  1.3685
 3128SOL     hw12511   1.632   2.992   0.196 -0.5921  1.3486 -0.9121
 3128SOL     vw12512   1.583   3.047   0.242 -0.5835  0.4971  0.1579
 3129SOL     ow12513   6.150   1.213   6.634 -0.3708 -0.5078  1.0098
 3129SOL     hw12514   6.135   1.119   6.624  2.1712 -1.2532  3.0694
 3129SOL     hw12515   6.160   1.226   6.728  3.3286  0.9901  0.5835
 3129SOL     vw12516   6.149   1.202   6.645  0.4525 -0.4085  1.2255
 3130SOL     ow12517   7.240   3.856   7.544 -0.1607  0.1651  0.0036
 3130SOL     hw12518   7.266   3.865   7.636 -0.3899 -0.0912  0.0947
 3130SOL     hw12519   7.248   3.945   7.509 -1.7360  0.6228  0.7139
 3130SOL     vw12520   7.245   3.869   7.552 -0.3989  0.1917  0.1094
 3131SOL     ow12521   4.618   3.717   7.091  0.0104 -0.6250  0.5482
 3131SOL     hw12522   4.665   3.800   7.076  0.2196 -0.8550 -0.1223
 3131SOL     hw12523   4.598   3.685   7.003  1.5346 -2.1832  0.7091
 3131SOL     vw12524   4.622   3.724   7.077  0.2394 -0.8610  0.4811
 3132SOL     ow12525   1.385   0.215   6.881  0.3678 -0.6535 -0.2141
 3132SOL     hw12526   1.315   0.155   6.856 -0.2097 -0.0093 -0.1672
 3132SOL     hw12527   1.460   0.159   6.898  0.2866 -1.2641 -1.6886
 3132SOL     vw12528   1.386   0.200   6.880  0.2809 -0.6491 -0.4025
 3133SOL     ow12529   1.267   4.130   2.111  0.2258  0.7022 -0.4047
 3133SOL     hw12530   1.298   4.117   2.021 -1.0214  1.2339 -0.9342
 3133SOL     hw12531   1.347   4.128   2.164  1.0164  0.6649 -1.5521
 3133SOL     vw12532   1.282   4.128   2.106  0.1655  0.7679 -0.6258
 3134SOL     ow12533   5.416   3.493   4.343  0.6994 -0.1050  0.0247
 3134SOL     hw12534   5.349   3.559   4.325 -1.1077 -2.3115 -2.0259
 3134SOL     hw12535   5.488   3.542   4.383 -1.4137  2.6730  0.7280
 3134SOL     vw12536   5.417   3.509   4.346  0.1822 -0.0294 -0.1531
 3135SOL     ow12537   6.501   2.696   0.302  0.2052 -0.3026 -0.4661
 3135SOL     hw12538   6.467   2.773   0.348 -0.2689  1.2177 -3.1807
 3135SOL     hw12539   6.463   2.621   0.349 -1.8509  1.1870  0.3896
 3135SOL     vw12540   6.492   2.696   0.314 -0.1287  0.0947 -0.7114
 3136SOL     ow12541   5.193   7.518   2.331  0.7105 -0.3495  0.5995
 3136SOL     hw12542   5.110   7.540   2.373  1.1146 -1.0352  1.8018
 3136SOL     hw12543   5.173   7.520   2.237 -0.8576 -1.1651  0.8726
 3136SOL     vw12544   5.179   7.521   2.324  0.5569 -0.5474  0.7943
 3137SOL     ow12545   0.564   5.360   2.263  0.2768 -0.3268  0.2526
 3137SOL     hw12546   0.564   5.398   2.351 -0.4539  2.5141 -0.8557
 3137SOL     hw12547   0.501   5.288   2.268  0.3300 -0.2948  2.0534
 3137SOL     vw12548   0.555   5.356   2.275  0.1874  0.0522  0.3440
 3138SOL     ow12549   5.960   7.278   0.893 -0.5050 -0.5551  0.6769
 3138SOL     hw12550   6.031   7.252   0.834 -0.4587 -0.5444  0.7288
 3138SOL     hw12551   5.880   7.265   0.841 -0.3242  2.6667 -0.6468
 3138SOL     vw12552   5.959   7.273   0.878 -0.4752 -0.1285  0.5091
 3139SOL     ow12553   0.963   4.215   6.153  0.4308  0.5312 -0.8052
 3139SOL     hw12554   0.900   4.144   6.160 -0.3862  1.1957 -1.1822
 3139SOL     hw12555   1.045   4.173   6.126 -0.3316 -0.1357 -2.2074
 3139SOL     vw12556   0.966   4.200   6.150  0.2224  0.5310 -1.0400
 3140SOL     ow12557   3.185   2.681   1.612  0.2309  0.1657 -0.2890
 3140SOL     hw12558   3.226   2.605   1.655 -0.1889  0.1855  0.1548
 3140SOL     hw12559   3.150   2.732   1.685 -0.6419  0.1175 -0.6750
 3140SOL     vw12560   3.186   2.678   1.628  0.0604  0.1619 -0.2813
 3141SOL     ow12561   0.979   5.495   0.767 -0.0578  0.0276 -0.0774
 3141SOL     hw12562   1.043   5.526   0.831  0.8301 -1.0239 -0.4166
 3141SOL     hw12563   0.924   5.571   0.750 -0.1031  0.4254  1.6537
 3141SOL     vw12564   0.981   5.509   0.773  0.0534 -0.0587  0.1062
 3142SOL     ow12565   2.075   7.350   4.330 -0.6779 -0.4708 -0.0369
 3142SOL     hw12566   2.130   7.418   4.371  3.2675 -2.3902 -1.6172
 3142SOL     hw12567   2.040   7.300   4.403  1.0548 -0.0804  1.1257
 3142SOL     vw12568   2.078   7.353   4.345  0.0714 -0.6723 -0.0920
 3143SOL     ow12569   0.047   2.182   1.934 -0.0189 -0.5479 -0.3459
 3143SOL     hw12570   0.035   2.154   2.025 -0.1055  0.2748 -0.0998
 3143SOL     hw12571   0.047   2.100   1.884 -1.8825 -0.9243  0.1733
 3143SOL     vw12572   0.045   2.167   1.940 -0.2762 -0.4890 -0.2450
 3144SOL     ow12573   3.942   4.446   1.936  0.0494  0.5311  0.1782
 3144SOL     hw12574   3.856   4.488   1.929  0.4298  1.2355 -0.5096
 3144SOL     hw12575   3.923   4.353   1.950 -0.8346  0.5489 -0.7652
 3144SOL     vw12576   3.928   4.439   1.937 -0.0169  0.6266 -0.0370
 3145SOL     ow12577   3.472   4.192   3.625  0.0953  0.1076  0.6779
 3145SOL     hw12578   3.550   4.233   3.662 -0.0255  0.3916  0.6156
 3145SOL     hw12579   3.477   4.208   3.531  1.8311 -2.9450  0.0995
 3145SOL     vw12580   3.483   4.199   3.618  0.3084 -0.2575  0.5934
 3146SOL     ow12581   3.485   6.725   0.402  0.3686 -0.3606  0.0801
 3146SOL     hw12582   3.456   6.637   0.428 -0.2289 -0.0075  0.6561
 3146SOL     hw12583   3.510   6.767   0.485  2.6375 -0.6589 -0.3908
 3146SOL     vw12584   3.485   6.719   0.417  0.5893 -0.3536  0.0939
 3147SOL     ow12585   2.866   6.133   4.690 -0.1412 -0.0589  0.5276
 3147SOL     hw12586   2.934   6.175   4.637  0.8474 -0.3464  1.5350
 3147SOL     hw12587   2.811   6.206   4.719  2.2094  0.8412  3.2028
 3147SOL     vw12588   2.868   6.148   4.687  0.2995  0.0219  1.0133
 3148SOL     ow12589   5.572   5.265   5.297 -0.0962  0.0625  0.0387
 3148SOL     hw12590   5.492   5.304   5.261 -0.6968 -1.3950 -0.2760
 3148SOL     hw12591   5.541   5.206   5.366  0.8061  0.3383  0.6958
 3148SOL     vw12592   5.557   5.262   5.301 -0.0563 -0.0937  0.0839
 3149SOL     ow12593   7.091   3.255   1.882  0.1494 -0.2119  0.2081
 3149SOL     hw12594   7.059   3.188   1.942  1.5015 -0.7651  0.3611
 3149SOL     hw12595   7.067   3.338   1.923  1.8049 -0.5524  2.0197
 3149SOL     vw12596   7.084   3.257   1.896  0.5460 -0.3299  0.4674
 3150SOL     ow12597   1.674   5.579   5.305 -0.0543  0.1897  0.0748
 3150SOL     hw12598   1.655   5.637   5.378  0.9840  0.3649  0.2242
 3150SOL     hw12599   1.711   5.636   5.238  0.1565 -0.1584 -0.1088
 3150SOL     vw12600   1.676   5.594   5.306  0.1105  0.1671  0.0703
 3151SOL     ow12601   7.038   2.016   0.897  0.5327 -0.1763 -0.3087
 3151SOL     hw12602   7.115   2.075   0.899 -0.2242  1.0313 -2.9477
 3151SOL     hw12603   7.070   1.936   0.856  0.0521  1.0886 -3.4307
 3151SOL     vw12604   7.053   2.014   0.892  0.3693  0.1500 -1.0688
 3152SOL     ow12605   5.195   1.417   3.009  0.3642 -0.7235 -0.1500
 3152SOL     hw12606   5.267   1.365   3.045 -0.8920 -1.3391  1.6055
 3152SOL     hw12607   5.201   1.501   3.054  1.8124  0.3874 -2.2873
 3152SOL     vw12608   5.205   1.421   3.020  0.3896 -0.6582 -0.2004
 3153SOL     ow12609   4.670   5.106   4.579 -0.4416  0.0127 -0.6702
 3153SOL     hw12610   4.740   5.143   4.526 -2.6068  0.5573 -3.3936
 3153SOL     hw12611   4.667   5.014   4.555  1.0836 -0.7190  1.6194
 3153SOL     vw12612   4.679   5.099   4.569 -0.5262 -0.0122 -0.7277
 3154SOL     ow12613   6.573   1.258   0.893  1.0589 -0.8861  0.4115
 3154SOL     hw12614   6.518   1.254   0.971  0.9761 -3.3127  0.2895
 3154SOL     hw12615   6.524   1.212   0.826  0.3828  2.5450 -1.6732
 3154SOL     vw12616   6.560   1.251   0.895  0.9589 -0.7536  0.1203
 3155SOL     ow12617   5.247   7.262   2.433 -0.3402  0.2565 -0.5032
 3155SOL     hw12618   5.171   7.237   2.381 -0.7315  0.7748 -0.2000
 3155SOL     hw12619   5.231   7.224   2.519 -0.5147  0.7964 -0.2896
 3155SOL     vw12620   5.235   7.254   2.438 -0.4151  0.3963 -0.4352
 3156SOL     ow12621   2.656   3.934   4.282  0.0603 -0.7130 -0.5334
 3156SOL     hw12622   2.749   3.948   4.301 -0.5741 -0.3642  3.0497
 3156SOL     hw12623   2.654   3.850   4.236  2.1649 -0.3223 -1.4789
 3156SOL     vw12624   2.668   3.925   4.278  0.2543 -0.6154 -0.1853
 3157SOL     ow12625   4.595   3.522   2.472  0.1966 -0.0484  0.0911
 3157SOL     hw12626   4.648   3.527   2.551  0.9688 -1.3396 -0.3147
 3157SOL     hw12627   4.650   3.557   2.402  0.6078 -1.5235 -0.3582
 3157SOL     vw12628   4.609   3.527   2.473  0.3526 -0.4133 -0.0218
 3158SOL     ow12629   1.530   7.485   1.133 -0.6227  0.4830  0.0918
 3158SOL     hw12630   1.622   7.510   1.127 -0.4497 -0.0536  0.4075
 3158SOL     hw12631   1.524   7.434   1.214 -1.6670  2.4558  1.3315
 3158SOL     vw12632   1.541   7.481   1.143 -0.7376  0.6723  0.2970
 3159SOL     ow12633   0.465   6.898   0.540  0.1757 -0.2385  0.0158
 3159SOL     hw12634   0.395   6.889   0.475  0.3279 -2.3054  0.0726
 3159SOL     hw12635   0.421   6.933   0.617 -0.6574 -0.7023 -0.2244
 3159SOL     vw12636   0.450   6.901   0.542  0.0859 -0.5724 -0.0084
 3160SOL     ow12637   0.704   2.111   6.144 -0.4273  0.5679 -0.2062
 3160SOL     hw12638   0.794   2.080   6.151 -0.6889 -0.7489 -2.0948
 3160SOL     hw12639   0.651   2.044   6.188 -0.5022  1.4754  1.1468
 3160SOL     vw12640   0.709   2.098   6.151 -0.4717  0.5139 -0.2770
 3161SOL     ow12641   3.272   4.243   5.140  0.1053 -0.5341  0.4264
 3161SOL     hw12642   3.347   4.187   5.121  0.5102  0.2527 -0.3618
 3161SOL     hw12643   3.196   4.195   5.106  0.3583 -0.9161  0.3996
 3161SOL     vw12644   3.271   4.229   5.133  0.1919 -0.4809  0.3190
 3162SOL     ow12645   6.159   1.753   7.503  0.9481 -0.5950 -0.0827
 3162SOL     hw12646   6.112   1.788   7.428 -0.1826  0.0387  0.8809
 3162SOL     hw12647   6.111   1.674   7.527 -1.0555  1.1380  2.1790
 3162SOL     vw12648   6.147   1.747   7.496  0.5343 -0.2827  0.3431
 3163SOL     ow12649   7.099   7.492   7.569 -0.4765 -0.5768 -0.1188
 3163SOL     hw12650   7.106   7.543   7.649  1.8660  1.7607 -1.6436
 3163SOL     hw12651   7.162   7.422   7.579  3.1488  2.2000 -1.3955
 3163SOL     vw12652   7.108   7.490   7.581  0.3109  0.0980 -0.4885
 3164SOL     ow12653   4.930   6.977   0.686  0.5477  0.8114  0.1755
 3164SOL     hw12654   4.997   6.966   0.619  0.2847 -0.9163  0.1458
 3164SOL     hw12655   4.852   7.004   0.638  1.1196  2.6629  0.1922
 3164SOL     vw12656   4.928   6.979   0.671  0.5884  0.8276  0.1737
 3165SOL     ow12657   2.896   4.002   0.022  0.2937  0.2070 -0.2277
 3165SOL     hw12658   2.914   4.022  -0.069 -0.2982  1.1880 -0.1382
 3165SOL     hw12659   2.820   3.944   0.019 -0.0202  0.6189 -0.3449
 3165SOL     vw12660   2.888   3.997   0.010  0.1742  0.3908 -0.2313
 3166SOL     ow12661   2.881   6.944   2.711  0.1674 -0.3350 -0.2079
 3166SOL     hw12662   2.826   6.957   2.634 -0.0933 -1.0599 -0.1536
 3166SOL     hw12663   2.943   6.875   2.684 -1.8431 -2.8620  1.1601
 3166SOL     vw12664   2.882   6.936   2.697 -0.1322 -0.7641 -0.0204
 3167SOL     ow12665   1.422   5.328   3.068  0.4387 -0.5233  0.3102
 3167SOL     hw12666   1.460   5.407   3.031 -1.0378 -0.1155 -0.4016
 3167SOL     hw12667   1.343   5.358   3.114  1.4963 -1.1878  2.7132
 3167SOL     vw12668   1.416   5.342   3.069  0.3834 -0.5572  0.5332
 3168SOL     ow12669   3.444   4.150   4.131 -0.0077  0.3253  0.7073
 3168SOL     hw12670   3.539   4.141   4.130 -0.0042  0.3758 -0.3472
 3168SOL     hw12671   3.412   4.068   4.169  0.3997 -0.4084 -0.4887
 3168SOL     vw12672   3.452   4.138   4.136  0.0465  0.2351  0.4103
 3169SOL     ow12673   1.166   4.256   1.612 -0.3051 -0.2008 -0.0013
 3169SOL     hw12674   1.235   4.221   1.555 -0.8662 -1.5628  0.1114
 3169SOL     hw12675   1.116   4.178   1.639 -0.3125  0.4443  2.0100
 3169SOL     vw12676   1.169   4.241   1.608 -0.3801 -0.2954  0.2789
 3170SOL     ow12677   6.197   0.945   1.541  0.4768 -0.5040  0.6613
 3170SOL     hw12678   6.178   0.981   1.628 -0.2554 -1.3680  0.8754
 3170SOL     hw12679   6.113   0.908   1.512  0.9328 -1.0165 -0.0260
 3170SOL     vw12680   6.183   0.945   1.549  0.4406 -0.6856  0.5989
 3171SOL     ow12681   5.731   1.735   6.699 -0.0446  0.2501  0.2465
 3171SOL     hw12682   5.803   1.682   6.731 -1.1663 -0.9115  0.9572
 3171SOL     hw12683   5.741   1.820   6.743  0.3288 -0.2276  1.0861
 3171SOL     vw12684   5.742   1.740   6.709 -0.1433  0.0338  0.4511
 3172SOL     ow12685   0.382   4.224   3.939 -0.1324  0.3215  0.4075
 3172SOL     hw12686   0.457   4.247   3.994  2.4413 -2.4706 -1.5395
 3172SOL     hw12687   0.341   4.150   3.983 -1.0455  1.0912  0.8743
 3172SOL     vw12688   0.387   4.217   3.952  0.0867  0.0544  0.2122
 3173SOL     ow12689   2.856   3.055   5.575  0.1259 -0.1889 -0.4943
 3173SOL     hw12690   2.905   3.010   5.643  1.0281  1.6374  0.1216
 3173SOL     hw12691   2.764   3.042   5.599  0.4337  0.8442  1.3874
 3173SOL     vw12692   2.850   3.047   5.587  0.2856  0.1882 -0.1650
 3174SOL     ow12693   6.449   0.959   6.129  0.2293  0.3032 -0.3728
 3174SOL     hw12694   6.388   0.891   6.155 -1.7888  0.8948 -3.0897
 3174SOL     hw12695   6.528   0.941   6.180 -1.4470 -1.7798  1.7329
 3174SOL     vw12696   6.451   0.948   6.139 -0.2582  0.1065 -0.4537
 3175SOL     ow12697   1.941   2.450   1.025 -0.1529 -0.0779 -0.4714
 3175SOL     hw12698   1.941   2.539   1.062  3.5601 -0.4677  0.9128
 3175SOL     hw12699   1.906   2.395   1.095  0.4666 -0.0261 -0.1118
 3175SOL     vw12700   1.937   2.455   1.039  0.4187 -0.1224 -0.2413
 3176SOL     ow12701   1.052   1.346   1.351  0.5078  0.0714  0.1838
 3176SOL     hw12702   0.966   1.355   1.392  0.7356  1.2810  0.4419
 3176SOL     hw12703   1.094   1.431   1.364  1.6099 -0.3803 -0.2553
 3176SOL     vw12704   1.046   1.358   1.358  0.6832  0.1713  0.1599
 3177SOL     ow12705   7.259   6.042   6.187  0.0547  0.7652  0.1555
 3177SOL     hw12706   7.285   5.972   6.247 -0.0136  1.7449  1.3706
 3177SOL     hw12707   7.271   6.005   6.100 -0.3319 -0.8761  0.7714
 3177SOL     vw12708   7.264   6.028   6.183 -0.0055  0.6778  0.3972
 3178SOL     ow12709   6.654   1.633   6.403  0.5877  0.3225  0.1806
 3178SOL     hw12710   6.690   1.544   6.393  1.1835  0.5911 -0.1284
 3178SOL     hw12711   6.708   1.673   6.471  0.2722  0.4280  0.3692
 3178SOL     vw12712   6.666   1.626   6.411  0.6247  0.3718  0.1647
 3179SOL     ow12713   5.488   4.092   0.232 -0.3832 -0.2057 -0.0058
 3179SOL     hw12714   5.574   4.091   0.190 -0.2209 -0.0935  0.3259
 3179SOL     hw12715   5.456   4.002   0.223 -0.7213  0.0035 -1.1403
 3179SOL     vw12716   5.495   4.080   0.225 -0.4063 -0.1633 -0.1117
 3180SOL     ow12717   7.128   1.775   2.763  0.3343 -0.6527 -0.3499
 3180SOL     hw12718   7.038   1.765   2.732 -0.7795  0.1908  2.3145
 3180SOL     hw12719   7.132   1.866   2.794  1.4774 -1.2287  1.3192
 3180SOL     vw12720   7.117   1.786   2.763  0.3381 -0.6174  0.2220
 3181SOL     ow12721   6.745   2.970   6.074 -0.2290 -0.5778  0.8480
 3181SOL     hw12722   6.818   2.929   6.121  1.0131  0.9582  0.3547
 3181SOL     hw12723   6.753   2.938   5.984  3.4244  3.7053 -0.6963
 3181SOL     vw12724   6.755   2.960   6.069  0.4170  0.1899  0.5791
 3182SOL     ow12725   3.995   5.008   3.385  0.2462 -0.1940  0.1015
 3182SOL     hw12726   3.972   4.947   3.316 -1.6186 -0.5208  0.9532
 3182SOL     hw12727   3.946   4.978   3.462  0.1282  1.7270  0.8434
 3182SOL     vw12728   3.986   4.996   3.386 -0.0155  0.0162  0.3119
 3183SOL     ow12729   5.836   1.163   1.066 -0.1676 -0.1558 -0.3772
 3183SOL     hw12730   5.892   1.190   0.994  1.6120 -4.1117 -0.7662
 3183SOL     hw12731   5.895   1.116   1.126 -2.2771 -0.4063  1.6456
 3183SOL     vw12732   5.851   1.160   1.065 -0.2110 -0.7107 -0.1616
 3184SOL     ow12733   7.231   5.432   2.918 -0.3739  0.1350 -0.3257
 3184SOL     hw12734   7.228   5.521   2.955 -0.1335 -0.0066  0.0482
 3184SOL     hw12735   7.148   5.392   2.944 -0.9454  0.5894 -1.3941
 3184SOL     vw12736   7.220   5.439   2.927 -0.4175  0.1762 -0.4174
 3185SOL     ow12737   0.872   6.702   0.535 -0.0548  0.2293  0.3252
 3185SOL     hw12738   0.901   6.684   0.625 -1.4214  0.3958  0.8168
 3185SOL     hw12739   0.952   6.729   0.489  0.5414  0.8157  1.6597
 3185SOL     vw12740   0.887   6.703   0.541 -0.1564  0.3288  0.5661
 3186SOL     ow12741   5.287   1.625   6.820 -0.7890  0.0985  0.0749
 3186SOL     hw12742   5.213   1.634   6.880 -0.3463 -0.1395  0.6608
 3186SOL     hw12743   5.364   1.648   6.872 -0.3662 -0.4437 -0.2958
 3186SOL     vw12744   5.287   1.629   6.835 -0.6747 -0.0044  0.1035
 3187SOL     ow12745   6.292   0.976   1.168  0.2887 -0.2683 -0.0051
 3187SOL     hw12746   6.348   0.929   1.230  0.8464  0.2824 -0.0828
 3187SOL     hw12747   6.297   0.924   1.087  1.7157  0.4531 -0.4051
 3187SOL     vw12748   6.300   0.963   1.166  0.5507 -0.1005 -0.0681
 3188SOL     ow12749   7.087   0.375   6.756  0.7450 -0.3612  0.6008
 3188SOL     hw12750   7.162   0.321   6.782  1.5001 -0.9552 -2.3845
 3188SOL     hw12751   7.121   0.428   6.684 -1.2595  0.6656  0.3615
 3188SOL     vw12752   7.102   0.375   6.750  0.5803 -0.3041  0.1750
 3189SOL     ow12753   6.459   6.517   4.463 -0.1102  0.6018 -0.4584
 3189SOL     hw12754   6.411   6.552   4.389 -0.5294  0.9708 -0.0209
 3189SOL     hw12755   6.522   6.456   4.425 -2.2437 -1.4328 -0.9195
 3189SOL     vw12756   6.461   6.513   4.449 -0.4470  0.3819 -0.4613
 3190SOL     ow12757   0.419   0.242   4.145 -0.2720  0.3448 -0.5331
 3190SOL     hw12758   0.346   0.289   4.103 -0.0065  1.1611 -0.0931
 3190SOL     hw12759   0.468   0.310   4.190  0.0262 -0.3922  0.2631
 3190SOL     vw12760   0.416   0.257   4.145 -0.1976  0.3552 -0.3700
 3191SOL     ow12761   6.735   6.751   3.563 -0.2281 -0.2899 -0.2178
 3191SOL     hw12762   6.717   6.816   3.631  1.2252  2.5416 -2.3206
 3191SOL     hw12763   6.681   6.779   3.489  0.1842 -1.7066 -1.0736
 3191SOL     vw12764   6.726   6.764   3.562  0.0184 -0.1032 -0.6081
 3192SOL     ow12765   6.114   6.883   4.117 -0.8519  0.0723  1.0965
 3192SOL     hw12766   6.169   6.815   4.156 -1.1745 -0.6059  0.3965
 3192SOL     hw12767   6.172   6.958   4.105 -0.0525 -0.6500  0.3118
 3192SOL     vw12768   6.129   6.884   4.121 -0.7889 -0.1123  0.9007
 3193SOL     ow12769   7.429   6.567   7.449  0.1036  0.0423  0.6613
 3193SOL     hw12770   7.407   6.520   7.369 -0.7959  0.4076  0.6874
 3193SOL     hw12771   7.425   6.659   7.425  4.7138  0.2550 -0.1951
 3193SOL     vw12772   7.426   6.573   7.435  0.5932  0.1185  0.5517
 3194SOL     ow12773   0.323   0.860   1.824 -0.2659  0.4170  0.5128
 3194SOL     hw12774   0.280   0.788   1.870  2.0738  0.3122  2.7971
 3194SOL     hw12775   0.401   0.820   1.785  1.1436  1.6541  1.9282
 3194SOL     vw12776   0.328   0.845   1.825  0.2288  0.5664  1.0009
 3195SOL     ow12777   7.108   0.827   4.253 -0.1312 -0.1816 -0.1121
 3195SOL     hw12778   7.175   0.772   4.293 -2.1349 -0.7510  2.8114
 3195SOL     hw12779   7.147   0.914   4.249  0.5475 -0.2604  2.5391
 3195SOL     vw12780   7.122   0.831   4.258 -0.3059 -0.2671  0.6232
 3196SOL     ow12781   1.644   3.301   1.914 -0.0204 -0.1103 -0.3347
 3196SOL     hw12782   1.729   3.277   1.878  0.7853  0.2211  1.2388
 3196SOL     hw12783   1.664   3.354   1.991 -1.5951 -1.3362  1.0191
 3196SOL     vw12784   1.658   3.305   1.919 -0.1220 -0.2283  0.0515
 3197SOL     ow12785   6.688   5.443   1.433 -1.5067  0.0543  0.2518
 3197SOL     hw12786   6.627   5.476   1.368 -0.4162  0.8187 -0.4097
 3197SOL     hw12787   6.734   5.521   1.465 -0.0676 -0.6143 -0.1161
 3197SOL     vw12788   6.686   5.457   1.429 -1.1730  0.0670  0.1159
 3198SOL     ow12789   1.286   5.660   3.290 -0.5181  0.3512 -0.4794
 3198SOL     hw12790   1.279   5.616   3.375  1.2786 -3.3318 -2.0469
 3198SOL     hw12791   1.371   5.703   3.293  0.1660 -0.9303 -0.8371
 3198SOL     vw12792   1.296   5.660   3.302 -0.1908 -0.3037 -0.7334
 3199SOL     ow12793   4.451   1.483   5.852 -1.2183  0.5073  0.0547
 3199SOL     hw12794   4.540   1.490   5.818  0.4111 -2.8277  2.8754
 3199SOL     hw12795   4.443   1.556   5.913 -0.3326  0.7593 -0.1083
 3199SOL     vw12796   4.462   1.493   5.856 -0.8864  0.1005  0.4055
 3200SOL     ow12797   4.373   6.422   6.546  0.0975 -0.1198  0.2758
 3200SOL     hw12798   4.339   6.424   6.456 -0.9315 -1.0671  0.6265
 3200SOL     hw12799   4.317   6.483   6.594  0.5320  0.2496  0.3200
 3200SOL     vw12800   4.361   6.431   6.540  0.0193 -0.1960  0.3281
 3201SOL     ow12801   3.233   3.485   4.348 -0.1984  0.4373  0.1567
 3201SOL     hw12802   3.160   3.520   4.399 -0.2509  1.7969 -0.8004
 3201SOL     hw12803   3.239   3.543   4.272  1.6474  0.1195  0.0254
 3201SOL     vw12804   3.224   3.497   4.345  0.0381  0.5746  0.0131
 3202SOL     ow12805   5.183   4.185   7.059 -0.0750 -0.2915 -0.5690
 3202SOL     hw12806   5.248   4.242   7.018 -0.7347  0.6177 -0.3904
 3202SOL     hw12807   5.149   4.131   6.988 -0.1981  0.2849 -0.9541
 3202SOL     vw12808   5.187   4.186   7.044 -0.1783 -0.0956 -0.5963
 3203SOL     ow12809   5.414   4.574   5.792  0.2383  0.3133  0.5341
 3203SOL     hw12810   5.508   4.578   5.811 -0.2193 -0.0123  3.0933
 3203SOL     hw12811   5.376   4.528   5.866 -1.8786 -0.2879 -0.8522
 3203SOL     vw12812   5.422   4.569   5.804 -0.1016  0.1910  0.6890
 3204SOL     ow12813   0.053   5.715   7.303 -0.3890 -0.6659 -0.3420
 3204SOL     hw12814   0.119   5.725   7.372 -0.6530  0.7737 -0.2637
 3204SOL     hw12815   0.069   5.629   7.267  0.0135 -1.3106  1.2728
 3204SOL     vw12816   0.064   5.705   7.308 -0.3707 -0.5612 -0.1187
 3205SOL     ow12817   5.682   4.003   4.806 -0.2910  0.2180 -0.3445
 3205SOL     hw12818   5.734   3.924   4.824  0.3843 -0.0399 -3.0070
 3205SOL     hw12819   5.657   4.035   4.892  2.0683 -1.1538  0.9572
 3205SOL     vw12820   5.686   3.997   4.820  0.1094  0.0029 -0.5238
 3206SOL     ow12821   6.815   2.614   6.365 -0.4168  0.4474  0.6345
 3206SOL     hw12822   6.849   2.609   6.276 -3.1185 -0.8252 -0.4187
 3206SOL     hw12823   6.787   2.705   6.375  0.3531  0.7213  0.4114
 3206SOL     vw12824   6.816   2.625   6.355 -0.6719  0.3158  0.4663
 3207SOL     ow12825   2.675   1.188   2.211  0.8580 -0.6261 -0.2347
 3207SOL     hw12826   2.642   1.144   2.290  2.8942 -0.8814  0.5124
 3207SOL     hw12827   2.604   1.177   2.147  0.6873 -3.8013  0.3423
 3207SOL     vw12828   2.661   1.181   2.213  1.1042 -1.0787 -0.0600
 3208SOL     ow12829   5.728   1.788   2.474 -0.8571 -0.0457 -0.0218
 3208SOL     hw12830   5.664   1.855   2.500  0.6835  0.4394  2.8754
 3208SOL     hw12831   5.783   1.831   2.409 -0.4967  1.2208  1.0840
 3208SOL     vw12832   5.727   1.802   2.469 -0.6063  0.1855  0.5063
 3209SOL     ow12833   7.512   1.798   2.900 -0.3909  0.7573  0.3285
 3209SOL     hw12834   7.540   1.811   2.810  2.2065  0.6213  1.0456
 3209SOL     hw12835   7.430   1.750   2.893 -0.0658  0.4365 -1.9479
 3209SOL     vw12836   7.505   1.793   2.888 -0.0055  0.6971  0.1228
 3210SOL     ow12837   5.839   3.408   3.723  0.1370  0.3161  0.1495
 3210SOL     hw12838   5.885   3.464   3.660  2.0159  0.6653  1.7677
 3210SOL     hw12839   5.837   3.459   3.804  0.7189 -1.4167  1.2992
 3210SOL     vw12840   5.845   3.422   3.725  0.4616  0.1336  0.5146
 3211SOL     ow12841   5.646   7.353   4.068  0.3260 -0.0708 -0.2647
 3211SOL     hw12842   5.631   7.391   3.982  3.3682  1.9839 -0.0471
 3211SOL     hw12843   5.729   7.305   4.060 -0.6074 -2.0368  0.9412
 3211SOL     vw12844   5.655   7.352   4.056  0.6042 -0.0591 -0.0770
 3212SOL     ow12845   6.586   6.201   2.228  0.2846 -0.3273 -0.2676
 3212SOL     hw12846   6.673   6.242   2.228  0.8253 -1.3423 -2.2069
 3212SOL     hw12847   6.532   6.260   2.176 -0.3990  0.5661  1.3529
 3212SOL     vw12848   6.590   6.214   2.222  0.2656 -0.3431 -0.3097
 3213SOL     ow12849   2.776   1.293   7.065 -0.2240 -0.3252 -0.4717
 3213SOL     hw12850   2.851   1.351   7.075 -0.3847 -0.4407  2.1550
 3213SOL     hw12851   2.699   1.350   7.073 -0.3915 -0.7948  2.7018
 3213SOL     vw12852   2.776   1.308   7.068 -0.2671 -0.4023  0.2937
 3214SOL     ow12853   7.035   3.690   5.008 -0.4952  0.3440  0.4088
 3214SOL     hw12854   7.031   3.634   5.086 -1.7764 -1.2677 -0.7608
 3214SOL     hw12855   7.033   3.629   4.934  1.0865  1.8072 -0.9331
 3214SOL     vw12856   7.035   3.675   5.009 -0.4554  0.3244  0.0775
 3215SOL     ow12857   5.759   0.653   5.864 -0.0008 -0.5867 -0.6278
 3215SOL     hw12858   5.833   0.633   5.806  0.1936  0.6717 -0.8277
 3215SOL     hw12859   5.800   0.682   5.946 -0.1189  3.7231 -1.8996
 3215SOL     vw12860   5.775   0.654   5.867  0.0093  0.1479 -0.8218
 3216SOL     ow12861   2.444   6.215   1.454 -0.0758  0.3581  0.6513
 3216SOL     hw12862   2.506   6.274   1.411 -1.0307  0.3566 -0.7963
 3216SOL     hw12863   2.367   6.270   1.472 -0.8013 -0.3171 -0.3080
 3216SOL     vw12864   2.442   6.230   1.451 -0.2977  0.2687  0.3337
 3217SOL     ow12865   7.178   0.896   6.934  0.9559 -0.6783  0.1472
 3217SOL     hw12866   7.190   0.831   6.864 -2.2983 -1.2406 -0.0524
 3217SOL     hw12867   7.205   0.979   6.895  1.1122 -1.2876 -1.0800
 3217SOL     vw12868   7.183   0.898   6.920  0.5474 -0.8329 -0.0412
 3218SOL     ow12869   4.116   2.680   6.774 -0.0497 -0.1044  0.1095
 3218SOL     hw12870   4.132   2.721   6.689 -1.0454 -0.1856 -0.1217
 3218SOL     hw12871   4.060   2.741   6.821 -1.1896 -0.9666 -0.0755
 3218SOL     vw12872   4.111   2.693   6.769 -0.3316 -0.2289  0.0546
 3219SOL     ow12873   0.024   3.199   6.717 -0.1259 -0.4796 -0.1092
 3219SOL     hw12874   0.063   3.284   6.734 -1.2457  0.7906 -3.1801
 3219SOL     hw12875   0.042   3.182   6.624 -1.4134 -2.7731 -0.0251
 3219SOL     vw12876   0.031   3.208   6.707 -0.4436 -0.6145 -0.5033
 3220SOL     ow12877   5.059   3.779   4.016 -0.5734 -0.9995 -0.2375
 3220SOL     hw12878   5.153   3.763   4.012 -0.5925 -1.6457  1.0996
 3220SOL     hw12879   5.029   3.724   4.089 -1.8204 -0.0416  0.0002
 3220SOL     vw12880   5.067   3.770   4.025 -0.7403 -0.9584 -0.0300
 3221SOL     ow12881   0.857   4.555   2.099 -0.4976  0.1295 -1.2401
 3221SOL     hw12882   0.790   4.564   2.166 -0.1412 -0.1694 -0.8354
 3221SOL     hw12883   0.886   4.644   2.082 -1.4465  0.3286 -1.8936
 3221SOL     vw12884   0.852   4.568   2.105 -0.5758  0.1166 -1.2728
 3222SOL     ow12885   6.523   4.298   1.661  0.3535  0.4979 -0.7458
 3222SOL     hw12886   6.507   4.215   1.705 -0.4380  0.7942 -0.4606
 3222SOL     hw12887   6.466   4.361   1.705 -1.2304  0.6178 -2.8002
 3222SOL     vw12888   6.513   4.295   1.673  0.0401  0.5527 -0.9792
 3223SOL     ow12889   2.575   4.499   3.119  0.6890 -0.2350 -0.1437
 3223SOL     hw12890   2.499   4.451   3.151  0.8215  0.1929  0.8533
 3223SOL     hw12891   2.637   4.431   3.091  0.1235 -0.5898 -0.5440
 3223SOL     vw12892   2.573   4.483   3.119  0.6319 -0.2253 -0.0648
 3224SOL     ow12893   7.249   6.209   2.141  0.5526  0.0255 -0.1431
 3224SOL     hw12894   7.251   6.202   2.237  1.9375 -2.4604 -0.2810
 3224SOL     hw12895   7.242   6.303   2.124 -1.1679  0.4507  2.3806
 3224SOL     vw12896   7.248   6.221   2.151  0.5081 -0.2465  0.1717
 3225SOL     ow12897   6.992   5.981   3.738  0.4469 -0.1280  0.1740
 3225SOL     hw12898   7.038   5.897   3.740 -0.3844 -0.6053  0.1312
 3225SOL     hw12899   6.939   5.980   3.818 -0.4670 -0.1847 -0.4145
 3225SOL     vw12900   6.991   5.970   3.749  0.2165 -0.1986  0.0907
 3226SOL     ow12901   6.504   6.163   3.302 -0.3214  0.4017 -0.5906
 3226SOL     hw12902   6.436   6.191   3.363  1.0403  3.3207 -0.2493
 3226SOL     hw12903   6.474   6.078   3.269 -2.6113  0.1872  1.7681
 3226SOL     vw12904   6.491   6.155   3.306 -0.4437  0.7586 -0.2345
 3227SOL     ow12905   5.834   2.422   4.923 -0.2842 -0.4768  0.1299
 3227SOL     hw12906   5.786   2.350   4.883  1.6747 -1.7787 -0.0221
 3227SOL     hw12907   5.825   2.409   5.017  0.4435 -1.2199  0.1051
 3227SOL     vw12908   5.827   2.411   4.930  0.0703 -0.7465  0.1066
 3228SOL     ow12909   0.824   0.560   5.880  0.0598 -0.5173  0.4702
 3228SOL     hw12910   0.872   0.480   5.861 -2.0595 -1.4278 -1.4675
 3228SOL     hw12911   0.860   0.591   5.963  4.0840 -0.9630 -0.9047
 3228SOL     vw12912   0.835   0.554   5.888  0.3112 -0.6962  0.0331
 3229SOL     ow12913   5.947   1.527   6.019  0.1465 -0.2940 -0.3646
 3229SOL     hw12914   6.010   1.482   6.075  2.4058  2.0509 -0.7821
 3229SOL     hw12915   5.991   1.533   5.934 -0.6919  1.2759 -0.7240
 3229SOL     vw12916   5.961   1.522   6.015  0.3338  0.2225 -0.4671
 3230SOL     ow12917   4.588   5.769   2.734 -0.1086  0.0680 -0.0207
 3230SOL     hw12918   4.555   5.850   2.774 -0.3891 -0.6404  1.2344
 3230SOL     hw12919   4.515   5.737   2.681 -0.0894  0.4839 -0.3074
 3230SOL     vw12920   4.574   5.776   2.732 -0.1433  0.0296  0.1070
 3231SOL     ow12921   4.170   3.672   2.486  0.7053 -0.6569 -0.5658
 3231SOL     hw12922   4.145   3.764   2.482  0.8617 -0.5351  0.7522
 3231SOL     hw12923   4.239   3.669   2.553  0.8231 -1.7070 -0.7170
 3231SOL     vw12924   4.176   3.684   2.494  0.7417 -0.7794 -0.4117
 3232SOL     ow12925   7.152   0.559   2.142 -0.1914  0.5175 -0.4667
 3232SOL     hw12926   7.083   0.583   2.081  0.4387  1.6852 -0.7405
 3232SOL     hw12927   7.225   0.529   2.087  1.5180  4.3788 -0.6098
 3232SOL     vw12928   7.153   0.558   2.127  0.1173  1.1810 -0.5217
 3233SOL     ow12929   6.071   4.722   4.227 -0.1692 -0.0562  0.3355
 3233SOL     hw12930   5.979   4.719   4.253 -0.1212  1.8574  0.8730
 3233SOL     hw12931   6.086   4.813   4.203  1.3597 -0.5399 -0.6764
 3233SOL     vw12932   6.061   4.733   4.227  0.0389  0.1323  0.2730
 3234SOL     ow12933   3.285   6.298   7.589  0.8323  0.1773 -0.1359
 3234SOL     hw12934   3.356   6.261   7.642  0.2466 -1.5599 -0.5004
 3234SOL     hw12935   3.238   6.355   7.650  1.8265  0.4202  0.4326
 3234SOL     vw12936   3.289   6.301   7.604  0.8861 -0.0198 -0.1090
 3235SOL     ow12937   1.765   0.170   4.597 -0.2892 -0.2097 -0.1073
 3235SOL     hw12938   1.742   0.263   4.601 -1.4293 -0.4997  0.5949
 3235SOL     hw12939   1.854   0.165   4.631 -1.1608  0.3277  2.4786
 3235SOL     vw12940   1.774   0.182   4.602 -0.5546 -0.1770  0.3266
 3236SOL     ow12941   6.248   3.228   4.338  0.1166 -0.0434  0.0000
 3236SOL     hw12942   6.174   3.200   4.283 -1.3560  1.3301  1.1969
 3236SOL     hw12943   6.249   3.165   4.410 -0.1898  0.2019  0.2213
 3236SOL     vw12944   6.238   3.216   4.340 -0.1180  0.1701  0.1874
 3237SOL     ow12945   4.090   5.425   4.038 -0.1612 -0.1435  0.2604
 3237SOL     hw12946   4.064   5.377   4.117 -1.0492  1.2023  0.8149
 3237SOL     hw12947   4.156   5.368   3.996 -0.0599 -1.1202  1.6764
 3237SOL     vw12948   4.095   5.411   4.043 -0.2654 -0.0947  0.5202
 3238SOL     ow12949   2.411   4.843   2.668  0.1241  0.2246  0.2412
 3238SOL     hw12950   2.322   4.809   2.661 -0.4608  0.5114  3.9626
 3238SOL     hw12951   2.404   4.934   2.639 -0.2066 -0.3426 -1.6173
 3238SOL     vw12952   2.398   4.851   2.663  0.0032  0.1876  0.4870
 3239SOL     ow12953   4.405   3.194   0.442 -0.3363  0.0015  0.6842
 3239SOL     hw12954   4.326   3.156   0.404  0.9978 -1.2864 -0.9742
 3239SOL     hw12955   4.373   3.257   0.506 -2.8539  2.4523 -2.5873
 3239SOL     vw12956   4.390   3.198   0.445 -0.4926  0.1547  0.0337
 3240SOL     ow12957   3.286   4.368   4.544  0.0815  0.1624  0.1632
 3240SOL     hw12958   3.212   4.342   4.598 -0.8363  0.0714 -1.0749
 3240SOL     hw12959   3.363   4.354   4.599 -0.6795 -1.4725  0.8682
 3240SOL     vw12960   3.287   4.363   4.558 -0.1398 -0.0656  0.0930
 3241SOL     ow12961   1.256   0.038   7.344 -0.1602  0.2677  0.5280
 3241SOL     hw12962   1.170   0.017   7.308  0.4942  0.6045 -1.3628
 3241SOL     hw12963   1.318  -0.000   7.282  1.0721 -0.1550  1.9654
 3241SOL     vw12964   1.253   0.030   7.331  0.0887  0.2565  0.4680
 3242SOL     ow12965   1.097   6.262   4.895  0.5939 -0.3391  0.5464
 3242SOL     hw12966   1.191   6.282   4.895  0.4665  0.4030 -1.2304
 3242SOL     hw12967   1.087   6.191   4.832 -0.1483  0.2262  0.0154
 3242SOL     vw12968   1.108   6.256   4.887  0.4792 -0.1664  0.2420
 3243SOL     ow12969   6.341   6.116   2.408  0.3717  0.2989 -0.6489
 3243SOL     hw12970   6.295   6.159   2.335  2.9153  1.3410 -1.7383
 3243SOL     hw12971   6.336   6.179   2.480 -1.9320 -0.6292  0.0909
 3243SOL     vw12972   6.334   6.130   2.408  0.4036  0.3140 -0.6950
 3244SOL     ow12973   1.745   3.419   1.389 -0.4144 -0.2748 -0.3179
 3244SOL     hw12974   1.774   3.344   1.338 -2.0672  0.0269 -1.7761
 3244SOL     hw12975   1.764   3.395   1.480  1.1968 -1.4561 -0.9192
 3244SOL     vw12976   1.752   3.406   1.395 -0.4200 -0.3908 -0.5897
 3245SOL     ow12977   0.546   0.505   5.857 -0.1080 -0.2228  0.2660
 3245SOL     hw12978   0.486   0.567   5.816 -0.8388 -1.1736 -0.1551
 3245SOL     hw12979   0.633   0.542   5.843 -0.6080  1.7249  1.7786
 3245SOL     vw12980   0.549   0.518   5.850 -0.2704 -0.0913  0.4101
 3246SOL     ow12981   7.564   6.749   2.733 -0.5937  0.0295 -0.1816
 3246SOL     hw12982   7.471   6.761   2.752 -0.6652 -0.4358 -0.2494
 3246SOL     hw12983   7.609   6.799   2.801 -0.8574 -1.2164  0.9439
 3246SOL     vw12984   7.558   6.757   2.744 -0.6382 -0.1965 -0.0421
 3247SOL     ow12985   4.622   3.448   7.227  0.3645 -0.1877  0.0365
 3247SOL     hw12986   4.631   3.409   7.140 -1.8539  0.7263 -0.6753
 3247SOL     hw12987   4.625   3.373   7.287  1.2495 -0.8949 -0.8581
 3247SOL     vw12988   4.624   3.433   7.223  0.1888 -0.1603 -0.1755
 3248SOL     ow12989   3.021   1.988   4.665 -0.9199 -0.2328  0.1832
 3248SOL     hw12990   3.054   2.009   4.753  2.2945 -1.5686 -0.5576
 3248SOL     hw12991   2.977   2.068   4.636  0.5897  1.3166  1.8642
 3248SOL     vw12992   3.020   2.001   4.673 -0.2967 -0.2047  0.3073
 3249SOL     ow12993   4.062   5.750   2.711 -0.0583  0.2876  0.2277
 3249SOL     hw12994   4.056   5.655   2.695  0.9502  0.4145 -1.0770
 3249SOL     hw12995   4.154   5.770   2.697  0.0887  1.2213  2.1397
 3249SOL     vw12996   4.073   5.740   2.707  0.0942  0.4272  0.3079
 3250SOL     ow12997   6.598   6.876   3.768 -0.1065  0.2677 -0.2023
 3250SOL     hw12998   6.520   6.829   3.740  1.0235 -2.5289  0.9302
 3250SOL     hw12999   6.581   6.900   3.859 -0.6784  2.1917 -0.7735
 3250SOL     vw13000   6.586   6.873   3.776 -0.0327  0.1526 -0.1284
 3251SOL     ow13001   5.985   0.844   6.969 -0.5387  0.6422 -0.0505
 3251SOL     hw13002   6.024   0.931   6.961 -0.1779  0.5572  0.6509
 3251SOL     hw13003   5.913   0.856   7.032  0.2577  0.2176  0.9775
 3251SOL     vw13004   5.981   0.857   6.976 -0.3860  0.5749  0.1776
 3252SOL     ow13005   1.235   1.949   3.499  0.0247  0.1089 -0.5546
 3252SOL     hw13006   1.145   1.953   3.468 -0.1729 -1.5171 -0.2678
 3252SOL     hw13007   1.288   1.967   3.421 -0.5107 -1.6647 -1.3756
 3252SOL     vw13008   1.230   1.952   3.485 -0.0720 -0.3397 -0.6250
 3253SOL     ow13009   4.010   3.511   5.227  0.5057 -0.0873  0.0864
 3253SOL     hw13010   4.049   3.528   5.142  0.0683 -1.2472 -0.3640
 3253SOL     hw13011   4.061   3.565   5.288  2.1108 -0.7232 -0.6289
 3253SOL     vw13012   4.022   3.520   5.224  0.6599 -0.3244 -0.0675
 3254SOL     ow13013   3.767   2.367   3.351 -0.0098 -0.4130 -0.2632
 3254SOL     hw13014   3.673   2.356   3.337  0.1034  1.8247 -4.5902
 3254SOL     hw13015   3.776   2.459   3.378  0.9674 -0.1496 -1.4077
 3254SOL     vw13016   3.756   2.378   3.353  0.1342 -0.0831 -0.9851
 3255SOL     ow13017   2.796   5.855   4.707 -0.1279  0.2538 -0.4664
 3255SOL     hw13018   2.711   5.864   4.749  0.0675  0.9639 -0.2083
 3255SOL     hw13019   2.823   5.945   4.687  1.0551  0.1315  0.4517
 3255SOL     vw13020   2.789   5.868   4.710  0.0539  0.3312 -0.3114
 3256SOL     ow13021   3.363   0.549   7.631  0.3486 -0.3536  0.4882
 3256SOL     hw13022   3.291   0.612   7.638 -1.0676 -1.3691 -2.7574
 3256SOL     hw13023   3.321   0.464   7.640  1.4104 -0.9319  0.0830
 3256SOL     vw13024   3.348   0.546   7.633  0.3017 -0.5639  0.0064
 3257SOL     ow13025   3.949   3.599   1.056 -1.3572  0.8571 -0.0521
 3257SOL     hw13026   3.933   3.633   0.968  0.0300  0.9625 -0.2829
 3257SOL     hw13027   4.006   3.664   1.097  2.2490 -1.5338 -0.8576
 3257SOL     vw13028   3.954   3.612   1.050 -0.6983  0.5556 -0.1888
 3258SOL     ow13029   4.054   1.529   7.234 -0.6052 -0.0703 -0.7553
 3258SOL     hw13030   4.086   1.465   7.298 -1.5831 -0.5049 -0.6734
 3258SOL     hw13031   4.122   1.596   7.231  0.2066 -0.8535 -0.4579
 3258SOL     vw13032   4.067   1.529   7.242 -0.6273 -0.2310 -0.7052
 3259SOL     ow13033   1.517   5.910   3.504  0.2591 -0.0923 -0.4187
 3259SOL     hw13034   1.584   5.922   3.571 -1.4505  0.2040  1.3413
 3259SOL     hw13035   1.546   5.965   3.431  2.1335 -0.3448  0.0817
 3259SOL     vw13036   1.530   5.919   3.504  0.2809 -0.0868 -0.1204
 3260SOL     ow13037   0.154   7.602   2.954  0.3204 -0.5069  0.6496
 3260SOL     hw13038   0.245   7.616   2.926  0.0556  0.1208  0.0647
 3260SOL     hw13039   0.152   7.630   3.045  0.4190  0.7910  0.2718
 3260SOL     vw13040   0.166   7.607   2.962  0.2984 -0.2530  0.5225
 3261SOL     ow13041   7.406   0.878   0.350 -0.7127  0.4082  0.1053
 3261SOL     hw13042   7.395   0.915   0.437 -0.0323  0.1397  0.3184
 3261SOL     hw13043   7.413   0.784   0.365 -2.9652  0.0936 -0.4765
 3261SOL     vw13044   7.406   0.870   0.364 -0.9201  0.3312  0.0567
 3262SOL     ow13045   0.334   5.944   7.175 -0.4662  0.8695 -0.3886
 3262SOL     hw13046   0.422   5.975   7.195 -0.4513  0.2419  0.5840
 3262SOL     hw13047   0.345   5.850   7.161 -0.7692  1.0112 -1.6502
 3262SOL     vw13048   0.347   5.935   7.176 -0.5042  0.8056 -0.4270
 3263SOL     ow13049   3.390   1.559   3.851 -0.3069 -0.1603 -0.3938
 3263SOL     hw13050   3.349   1.595   3.773  1.2168  0.1267 -1.0957
 3263SOL     hw13051   3.348   1.474   3.864 -3.4934  1.4439  0.9090
 3263SOL     vw13052   3.379   1.552   3.843 -0.5263  0.0892 -0.3145
 3264SOL     ow13053   0.094   0.368   1.070  0.8721 -0.6275  0.0593
 3264SOL     hw13054   0.065   0.343   0.982  0.0082  0.0873  0.1210
 3264SOL     hw13055   0.159   0.437   1.054 -0.2478  0.4469 -0.0130
 3264SOL     vw13056   0.099   0.374   1.056  0.6104 -0.3914  0.0579
 3265SOL     ow13057   1.651   1.214   6.615  0.6298  0.3300  0.3459
 3265SOL     hw13058   1.565   1.184   6.644 -0.2151  1.1785 -1.1466
 3265SOL     hw13059   1.707   1.204   6.692 -0.4782 -1.4427  0.9870
 3265SOL     vw13060   1.647   1.208   6.629  0.3722  0.2081  0.2334
 3266SOL     ow13061   1.880   3.030   3.728  0.0826  0.1935 -0.0055
 3266SOL     hw13062   1.833   2.947   3.720 -0.2596  0.2231  1.4862
 3266SOL     hw13063   1.962   3.016   3.681  0.0707 -1.0272  0.3214
 3266SOL     vw13064   1.885   3.017   3.721  0.0359  0.0364  0.2345
 3267SOL     ow13065   4.284   7.592   4.857 -0.3007  0.2593 -0.4190
 3267SOL     hw13066   4.368   7.605   4.900  0.0581 -1.4859 -0.4977
 3267SOL     hw13067   4.279   7.660   4.790  0.6226  0.9439  0.1963
 3267SOL     vw13068   4.294   7.602   4.854 -0.1314  0.1194 -0.3483
 3268SOL     ow13069   1.625   6.190   1.300  0.4789 -0.4904  0.3759
 3268SOL     hw13070   1.682   6.127   1.344 -1.1529 -1.7015  0.8322
 3268SOL     hw13071   1.544   6.190   1.351  0.5709  2.3955  0.6936
 3268SOL     vw13072   1.622   6.182   1.312  0.2757 -0.2694  0.4780
 3269SOL     ow13073   5.406   5.613   5.152 -0.4593  0.2015 -0.0484
 3269SOL     hw13074   5.415   5.519   5.136 -2.9455  0.1572 -1.7818
 3269SOL     hw13075   5.384   5.650   5.067 -0.6265  2.1917  0.8104
 3269SOL     vw13076   5.404   5.605   5.139 -0.8097  0.4582 -0.1638
 3270SOL     ow13077   4.616   3.697   3.532  0.2892  0.3289  0.2563
 3270SOL     hw13078   4.541   3.695   3.473 -0.9905  0.6864  1.7925
 3270SOL     hw13079   4.661   3.614   3.516 -1.6323 -0.8825  0.7235
 3270SOL     vw13080   4.612   3.686   3.522 -0.1333  0.2164  0.5206
 3271SOL     ow13081   4.759   0.155   6.397  0.2220  0.6672 -0.4395
 3271SOL     hw13082   4.804   0.156   6.313  1.5874  0.5141  0.2571
 3271SOL     hw13083   4.719   0.241   6.404 -0.6325  0.3791 -1.6124
 3271SOL     vw13084   4.760   0.166   6.387  0.2892  0.6090 -0.5023
 3272SOL     ow13085   6.422   3.460   6.515 -0.5428 -1.1803 -0.2155
 3272SOL     hw13086   6.345   3.477   6.461 -1.4717 -0.1499  1.3442
 3272SOL     hw13087   6.455   3.546   6.538 -0.7853 -1.5346  1.6514
 3272SOL     vw13088   6.417   3.473   6.511 -0.6974 -1.0911  0.2365
 3273SOL     ow13089   6.677   2.774   6.538  0.2294  0.1853 -0.6846
 3273SOL     hw13090   6.705   2.698   6.589 -0.6030  0.6922  0.5665
 3273SOL     hw13091   6.582   2.777   6.549  0.2812  1.5752 -0.4601
 3273SOL     vw13092   6.668   2.764   6.546  0.1264  0.4355 -0.4900
 3274SOL     ow13093   0.779   6.685   0.208 -0.4240 -0.0143  0.3200
 3274SOL     hw13094   0.720   6.716   0.140  1.3432  0.1161 -1.2549
 3274SOL     hw13095   0.820   6.607   0.170  0.1246 -0.3338  1.5046
 3274SOL     vw13096   0.777   6.679   0.194 -0.1185 -0.0391  0.2685
 3275SOL     ow13097   2.610   6.080   3.601 -0.5339  0.3446 -1.2289
 3275SOL     hw13098   2.702   6.061   3.582 -0.3380  0.3852 -0.3593
 3275SOL     hw13099   2.597   6.047   3.690 -1.0578  1.3758 -0.9138
 3275SOL     vw13100   2.621   6.073   3.610 -0.5771  0.4859 -1.0724
 3276SOL     ow13101   3.985   5.806   7.615 -0.5736  0.2420 -0.1347
 3276SOL     hw13102   4.069   5.818   7.659 -1.7199 -0.2019  2.3529
 3276SOL     hw13103   3.985   5.871   7.545  1.0069  1.7142  1.1418
 3276SOL     vw13104   3.996   5.817   7.612 -0.5163  0.3777  0.3619
 3277SOL     ow13105   1.055   5.170   0.644  0.1125  0.0834 -0.1093
 3277SOL     hw13106   1.065   5.254   0.600 -2.3478  1.2420  1.3075
 3277SOL     hw13107   1.102   5.180   0.726  0.9168 -0.4348 -0.4947
 3277SOL     vw13108   1.062   5.182   0.649 -0.1059  0.1681  0.0267
 3278SOL     ow13109   3.407   3.199   5.615  0.3110 -0.5226 -0.0056
 3278SOL     hw13110   3.378   3.119   5.572 -2.0534  0.3193 -0.1522
 3278SOL     hw13111   3.465   3.170   5.684 -1.0299 -2.4482  0.3915
 3278SOL     vw13112   3.411   3.185   5.618 -0.1780 -0.6655  0.0274
 3279SOL     ow13113   6.784   1.641   0.348  0.1824 -0.0561 -0.0929
 3279SOL     hw13114   6.793   1.683   0.263  2.1082 -0.0828  0.0713
 3279SOL     hw13115   6.758   1.712   0.407  1.4986  0.5263 -0.1936
 3279SOL     vw13116   6.782   1.656   0.345  0.6104  0.0172 -0.0845
 3280SOL     ow13117   4.572   2.808   2.922  0.1088  0.0556 -0.0749
 3280SOL     hw13118   4.530   2.724   2.905  1.6688 -1.0542  1.2303
 3280SOL     hw13119   4.601   2.838   2.836 -0.9924 -0.4135 -0.6398
 3280SOL     vw13120   4.570   2.801   2.908  0.1693 -0.1528  0.0228
 3281SOL     ow13121   6.366   7.486   4.994  0.5572  0.4448 -0.3414
 3281SOL     hw13122   6.356   7.565   4.941  2.0069  0.5630 -0.4854
 3281SOL     hw13123   6.340   7.415   4.937  1.3560  0.6441 -0.9815
 3281SOL     vw13124   6.362   7.487   4.979  0.8540  0.4869 -0.4449
 3282SOL     ow13125   0.438   6.728   4.537 -0.0006 -0.2691  0.9241
 3282SOL     hw13126   0.448   6.633   4.524  0.5788 -0.0922  0.0180
 3282SOL     hw13127   0.526   6.759   4.558  0.4609  0.4932 -1.7618
 3282SOL     vw13128   0.451   6.719   4.538  0.1367 -0.1452  0.4501
 3283SOL     ow13129   2.862   3.869   7.258  1.0475 -0.0287  0.4450
 3283SOL     hw13130   2.890   3.814   7.331  1.4948  0.2683  0.5009
 3283SOL     hw13131   2.808   3.937   7.297 -0.6251 -1.1876  0.2158
 3283SOL     vw13132   2.859   3.871   7.273  0.8858 -0.1426  0.4220
 3284SOL     ow13133   6.053   1.261   2.094  0.1109  0.6155  0.1664
 3284SOL     hw13134   5.987   1.309   2.144 -2.8491 -2.5870 -0.2108
 3284SOL     hw13135   6.042   1.292   2.004 -0.1681  0.8272  0.2723
 3284SOL     vw13136   6.043   1.271   2.088 -0.3166  0.2208  0.1307
 3285SOL     ow13137   4.811   4.724   5.011  0.2190 -0.3313  0.3549
 3285SOL     hw13138   4.855   4.661   4.955 -0.0123  0.2527 -0.5098
 3285SOL     hw13139   4.817   4.687   5.099  1.9135 -0.5343  0.1783
 3285SOL     vw13140   4.817   4.711   5.016  0.4120 -0.2806  0.2172
 3286SOL     ow13141   7.542   7.507   0.455  0.6855  0.4854 -0.4048
 3286SOL     hw13142   7.456   7.537   0.424  0.4923  1.8531  1.2944
 3286SOL     hw13143   7.548   7.417   0.425 -1.9104 -0.0737  0.4513
 3286SOL     vw13144   7.531   7.499   0.447  0.3173  0.5920 -0.0676
 3287SOL     ow13145   3.998   2.052   6.991 -0.1969 -0.5951  0.6146
 3287SOL     hw13146   4.043   2.074   7.072 -1.3368 -0.9908  1.3917
 3287SOL     hw13147   4.036   1.968   6.965  0.7015 -0.1071  0.3122
 3287SOL     vw13148   4.009   2.043   6.999 -0.2286 -0.5829  0.6773
 3288SOL     ow13149   3.166   1.815   5.292  0.8474  0.3041  0.2756
 3288SOL     hw13150   3.181   1.773   5.377 -0.3543 -0.7894 -0.0174
 3288SOL     hw13151   3.111   1.753   5.244 -0.9464  2.1735 -0.2284
 3288SOL     vw13152   3.160   1.801   5.297  0.4522  0.4065  0.1705
 3289SOL     ow13153   3.436   4.067   1.648  0.0600 -0.4134 -0.5279
 3289SOL     hw13154   3.447   4.003   1.719  0.1351 -0.3819 -0.5107
 3289SOL     hw13155   3.471   4.148   1.684 -0.2845 -0.2989 -0.4554
 3289SOL     vw13156   3.442   4.069   1.663  0.0244 -0.3943 -0.5161
 3290SOL     ow13157   3.966   2.630   1.649  1.1733 -0.5018 -0.5343
 3290SOL     hw13158   3.995   2.719   1.628  1.0409 -0.6452 -1.3611
 3290SOL     hw13159   4.048   2.581   1.661  1.4177  0.5278  3.9270
 3290SOL     vw13160   3.981   2.636   1.648  1.1880 -0.3849 -0.0548
 3291SOL     ow13161   1.077   6.097   3.489  0.1682 -0.3039 -0.6274
 3291SOL     hw13162   1.162   6.132   3.518 -0.6851 -0.9721  3.2007
 3291SOL     hw13163   1.014   6.163   3.517 -0.9423 -2.0875  1.2699
 3291SOL     vw13164   1.080   6.110   3.496 -0.0910 -0.6273  0.1280
 3292SOL     ow13165   3.981   6.431   5.571  0.0757  0.3650  0.2935
 3292SOL     hw13166   4.007   6.426   5.663 -1.9337  1.3332  0.9722
 3292SOL     hw13167   3.963   6.524   5.555  1.0686  0.3256 -1.2995
 3292SOL     vw13168   3.982   6.443   5.581 -0.0584  0.4876  0.1729
 3293SOL     ow13169   2.439   4.811   1.631 -0.0142 -0.0170 -0.4187
 3293SOL     hw13170   2.432   4.864   1.552 -1.1206 -2.6476 -2.2180
 3293SOL     hw13171   2.475   4.728   1.601 -0.5461 -1.1360  1.8426
 3293SOL     vw13172   2.443   4.807   1.617 -0.2304 -0.5116 -0.3577
 3294SOL     ow13173   3.547   5.351   1.587 -0.0438 -0.0278  0.0681
 3294SOL     hw13174   3.588   5.433   1.617 -0.6118 -0.1006  1.0921
 3294SOL     hw13175   3.620   5.298   1.555  0.2082  1.3176 -1.7177
 3294SOL     vw13176   3.562   5.355   1.587 -0.0855  0.1402 -0.0324
 3295SOL     ow13177   5.008   5.565   1.998  0.0890 -0.2058  0.1146
 3295SOL     hw13178   5.018   5.660   2.010  0.4618 -0.2367  0.0815
 3295SOL     hw13179   4.996   5.531   2.087  2.4656 -0.3919  0.4518
 3295SOL     vw13180   5.008   5.573   2.011  0.4518 -0.2344  0.1547
 3296SOL     ow13181   6.877   4.800   3.234  0.2022 -0.0013  0.3061
 3296SOL     hw13182   6.802   4.857   3.218  0.5797  0.1348 -1.1891
 3296SOL     hw13183   6.954   4.854   3.215  0.6244 -0.5333  0.4475
 3296SOL     vw13184   6.877   4.814   3.229  0.3076 -0.0536  0.1274
 3297SOL     ow13185   1.205   5.868   1.018  0.2931 -0.0103  0.2947
 3297SOL     hw13186   1.134   5.916   1.060  1.1208 -0.2802  2.0683
 3297SOL     hw13187   1.168   5.782   0.999 -0.9993  1.0113 -2.3302
 3297SOL     vw13188   1.191   5.863   1.021  0.2318  0.0887  0.1823
 3298SOL     ow13189   5.386   4.797   3.100  0.1819  0.2709  0.2729
 3298SOL     hw13190   5.407   4.809   3.007 -1.5236 -2.5804 -0.6253
 3298SOL     hw13191   5.450   4.732   3.130  1.1166  1.6327  1.3237
 3298SOL     vw13192   5.398   4.790   3.092  0.0803  0.0744  0.2930
 3299SOL     ow13193   6.834   6.975   5.323  1.1026 -0.0378  0.0244
 3299SOL     hw13194   6.915   7.010   5.360  0.3449 -1.2335  3.1072
 3299SOL     hw13195   6.769   6.990   5.391 -1.0925 -0.0880 -1.9299
 3299SOL     vw13196   6.836   6.982   5.337  0.7129 -0.2022  0.1733
 3300SOL     ow13197   4.623   3.866   4.919  0.0462  0.6476  0.7876
 3300SOL     hw13198   4.535   3.890   4.946 -0.2872  1.1523 -0.6882
 3300SOL     hw13199   4.612   3.823   4.834  0.9139 -2.1346  1.9522
 3300SOL     vw13200   4.610   3.863   4.911  0.1163  0.3473  0.7467
 3301SOL     ow13201   5.478   3.563   4.098 -0.4229  0.0341  0.1018
 3301SOL     hw13202   5.565   3.597   4.118 -0.9654  0.8099  1.2154
 3301SOL     hw13203   5.450   3.521   4.179 -0.6362 -1.2205 -0.6019
 3301SOL     vw13204   5.486   3.562   4.111 -0.5226 -0.0291  0.1559
 3302SOL     ow13205   2.051   7.352   3.180  0.1482 -0.0641 -0.7757
 3302SOL     hw13206   2.119   7.418   3.192 -0.6810  0.7284 -0.3435
 3302SOL     hw13207   2.013   7.371   3.095 -0.2180  0.1382 -0.5688
 3302SOL     vw13208   2.055   7.363   3.170 -0.0097  0.0675 -0.6914
 3303SOL     ow13209   2.844   1.414   5.663 -0.3892 -0.3728 -0.3935
 3303SOL     hw13210   2.931   1.434   5.697 -0.2585  1.2991 -1.5518
 3303SOL     hw13211   2.858   1.399   5.570 -1.4605  1.3002 -0.8760
 3303SOL     vw13212   2.858   1.415   5.655 -0.5132  0.0685 -0.6101
 3304SOL     ow13213   3.640   6.900   3.716 -0.1357 -0.6429 -0.4593
 3304SOL     hw13214   3.545   6.896   3.708 -0.4862  1.9926  1.2878
 3304SOL     hw13215   3.656   6.914   3.809  1.6317  3.2416 -1.1572
 3304SOL     vw13216   3.630   6.901   3.727  0.0513  0.2174 -0.3209
 3305SOL     ow13217   7.404   1.154   6.224 -0.2296  0.3317 -0.5835
 3305SOL     hw13218   7.317   1.193   6.226  0.5948  2.2543  0.1977
 3305SOL     hw13219   7.464   1.229   6.219  1.4283 -0.8466  0.5543
 3305SOL     vw13220   7.401   1.169   6.224  0.0978  0.4299 -0.3302
 3306SOL     ow13221   4.070   0.060   6.847  0.3632  0.2774  0.0510
 3306SOL     hw13222   4.090   0.094   6.935 -0.8338  0.7831  0.1527
 3306SOL     hw13223   4.087   0.134   6.789 -0.6148  0.5282  0.0758
 3306SOL     vw13224   4.075   0.074   6.851  0.0761  0.3772  0.0675
 3307SOL     ow13225   6.689   5.159   6.456  0.3300 -0.8002  0.7580
 3307SOL     hw13226   6.611   5.111   6.487  1.2399 -2.6370  0.3466
 3307SOL     hw13227   6.714   5.113   6.376  2.1530 -0.5846  1.1785
 3307SOL     vw13228   6.682   5.147   6.450  0.6909 -1.0140  0.7591
 3308SOL     ow13229   3.589   1.773   5.005  0.1651 -0.5052  0.5008
 3308SOL     hw13230   3.621   1.710   5.069  0.0881 -1.1102 -0.0545
 3308SOL     hw13231   3.640   1.853   5.023  1.2507 -1.1320  0.3155
 3308SOL     vw13232   3.600   1.775   5.016  0.2981 -0.6677  0.4034
 3309SOL     ow13233   3.127   0.832   1.059  0.3105 -0.9748 -0.0105
 3309SOL     hw13234   3.142   0.855   0.968 -1.3590  1.3793  0.2181
 3309SOL     hw13235   3.194   0.881   1.108 -0.5823  0.1019  0.1798
 3309SOL     vw13236   3.138   0.842   1.054 -0.0275 -0.5222  0.0449
 3310SOL     ow13237   6.429   3.472   5.237  0.8113 -0.3795  0.2368
 3310SOL     hw13238   6.520   3.456   5.212  0.4975 -0.0293 -1.2477
 3310SOL     hw13239   6.381   3.398   5.200  0.1166  0.9570 -1.6875
 3310SOL     vw13240   6.434   3.460   5.229  0.6783 -0.1569 -0.2129
 3311SOL     ow13241   6.517   1.999   3.259  0.3236 -0.1263  0.5659
 3311SOL     hw13242   6.508   2.015   3.353 -0.9664  1.9371  0.1477
 3311SOL     hw13243   6.516   2.086   3.220  0.9880 -0.9399 -1.3744
 3311SOL     vw13244   6.516   2.012   3.266  0.2410  0.0387  0.2548
 3312SOL     ow13245   5.635   5.739   5.230 -0.2857  0.7805  0.2993
 3312SOL     hw13246   5.550   5.701   5.208 -0.0458  0.6808 -0.5054
 3312SOL     hw13247   5.654   5.798   5.157  1.4575 -1.0290 -0.8059
 3312SOL     vw13248   5.626   5.742   5.217 -0.0241  0.5286  0.0472
 3313SOL     ow13249   5.078   6.023   5.211  0.3275 -0.6792  0.2830
 3313SOL     hw13250   5.039   6.064   5.288 -1.8244 -1.7481 -0.1652
 3313SOL     hw13251   5.085   5.930   5.234 -0.6575 -1.0682 -0.8816
 3313SOL     vw13252   5.073   6.016   5.224 -0.0865 -0.8714  0.0703
 3314SOL     ow13253   7.619   1.898   1.793  0.1315  0.2779  0.2045
 3314SOL     hw13254   7.615   1.957   1.718  0.5347  0.2468  0.1571
 3314SOL     hw13255   7.705   1.857   1.787 -0.0657 -0.1596  0.3589
 3314SOL     vw13256   7.630   1.901   1.783  0.1585  0.2160  0.2186
 3315SOL     ow13257   1.641   1.960   7.520  0.3191  0.0861  0.1273
 3315SOL     hw13258   1.623   1.924   7.433 -0.4888  0.5719  0.0883
 3315SOL     hw13259   1.665   1.884   7.573 -1.1380 -0.4915 -0.0112
 3315SOL     vw13260   1.642   1.945   7.516  0.0203  0.0741  0.1040
 3316SOL     ow13261   4.285   6.109   6.428 -0.0294  0.1246 -0.0952
 3316SOL     hw13262   4.287   6.185   6.370 -1.6231  0.1777 -0.1303
 3316SOL     hw13263   4.199   6.113   6.469 -0.3007 -1.8832 -0.3774
 3316SOL     vw13264   4.274   6.119   6.426 -0.2756 -0.1333 -0.1369
 3317SOL     ow13265   2.101   2.507   0.749 -0.1084  0.0701 -0.5673
 3317SOL     hw13266   2.087   2.592   0.708 -0.1672 -0.0565 -0.8072
 3317SOL     hw13267   2.187   2.515   0.791 -0.0876  0.2284 -0.6388
 3317SOL     vw13268   2.111   2.520   0.749 -0.1135  0.0743 -0.6084
 3318SOL     ow13269   3.057   4.381   4.058  0.0042 -0.4215 -0.6738
 3318SOL     hw13270   2.963   4.385   4.077  0.4567 -0.2760  2.0003
 3318SOL     hw13271   3.066   4.422   3.972 -2.2691  0.3646 -0.6223
 3318SOL     vw13272   3.046   4.387   4.049 -0.2360 -0.2985 -0.3140
 3319SOL     ow13273   4.611   2.917   2.691  0.5021  0.2539  0.5239
 3319SOL     hw13274   4.679   2.983   2.704 -0.0474  0.8119  0.6278
 3319SOL     hw13275   4.600   2.912   2.596  0.8337  0.0093  0.4978
 3319SOL     vw13276   4.619   2.925   2.680  0.4733  0.2952  0.5342
 3320SOL     ow13277   6.731   4.806   0.182  0.0808  0.1948  0.4122
 3320SOL     hw13278   6.666   4.799   0.112 -1.7529  4.6455  1.3071
 3320SOL     hw13279   6.689   4.764   0.257 -0.1504 -0.2076  0.0595
 3320SOL     vw13280   6.717   4.800   0.183 -0.1917  0.7291  0.4838
 3321SOL     ow13281   5.249   3.385   1.975 -0.2155 -0.4556  0.3092
 3321SOL     hw13282   5.248   3.312   2.037  1.7156 -0.6101  0.2331
 3321SOL     hw13283   5.328   3.434   1.998 -0.6379  0.7185 -0.6559
 3321SOL     vw13284   5.259   3.382   1.986 -0.0165 -0.3213  0.1718
 3322SOL     ow13285   1.996   3.031   5.589  0.3301  0.0305 -0.2033
 3322SOL     hw13286   2.009   2.994   5.677  1.2162 -0.7452 -0.6488
 3322SOL     hw13287   2.081   3.023   5.546  0.6774  2.9813 -0.2229
 3322SOL     vw13288   2.009   3.025   5.595  0.4928  0.3175 -0.2644
 3323SOL     ow13289   1.360   5.870   5.099  0.6319  0.1234 -0.0382
 3323SOL     hw13290   1.426   5.888   5.167  0.8374 -0.2809 -0.1279
 3323SOL     hw13291   1.288   5.930   5.119  0.6847 -0.0023  0.5450
 3323SOL     vw13292   1.359   5.881   5.111  0.6659  0.0536  0.0269
 3324SOL     ow13293   6.184   4.581   4.013  0.0724 -0.2443  0.4487
 3324SOL     hw13294   6.147   4.617   4.094 -0.6455 -2.4132  1.1595
 3324SOL     hw13295   6.278   4.595   4.021  0.0369 -0.6725  1.8132
 3324SOL     vw13296   6.192   4.587   4.025 -0.0272 -0.5870  0.7224
 3325SOL     ow13297   1.822   2.627   0.758  0.4782 -0.2946  1.0186
 3325SOL     hw13298   1.868   2.709   0.777 -0.5837  0.3955  0.7174
 3325SOL     hw13299   1.796   2.634   0.666 -3.3184  1.0156  1.9832
 3325SOL     vw13300   1.825   2.639   0.748 -0.1628 -0.0306  1.1061
 3326SOL     ow13301   0.387   3.242   7.059  0.2304  0.7737 -0.7984
 3326SOL     hw13302   0.387   3.161   7.007 -1.0424  0.1830  0.0615
 3326SOL     hw13303   0.369   3.213   7.149 -0.2365  2.0062 -0.4686
 3326SOL     vw13304   0.384   3.227   7.064  0.0008  0.8584 -0.6413
 3327SOL     ow13305   6.321   5.440   6.107 -0.7655 -0.5890 -0.3204
 3327SOL     hw13306   6.314   5.451   6.012 -2.0919  2.3054 -0.0147
 3327SOL     hw13307   6.230   5.435   6.137 -0.5008  1.2868  0.9614
 3327SOL     vw13308   6.308   5.441   6.098 -0.9055  0.0403 -0.1109
 3328SOL     ow13309   2.092   5.504   3.627 -0.6918  0.2844  0.0304
 3328SOL     hw13310   2.181   5.470   3.614 -0.9477 -1.1363  1.5674
 3328SOL     hw13311   2.104   5.585   3.677 -0.1844  1.2915 -1.6596
 3328SOL     vw13312   2.105   5.510   3.632 -0.6586  0.2298  0.0101
 3329SOL     ow13313   4.602   1.419   0.321 -0.2653 -0.5444 -0.2597
 3329SOL     hw13314   4.637   1.487   0.378  1.3609  0.3831 -2.2497
 3329SOL     hw13315   4.511   1.408   0.350  0.9106 -1.4330  3.6203
 3329SOL     vw13316   4.595   1.426   0.332  0.1042 -0.5393 -0.0104
 3330SOL     ow13317   0.489   5.282   0.720  0.3828  0.3568  0.3103
 3330SOL     hw13318   0.484   5.210   0.657 -0.2986 -1.6324  2.4923
 3330SOL     hw13319   0.413   5.337   0.699 -0.9086 -1.2700  0.4518
 3330SOL     vw13320   0.478   5.280   0.709  0.1225 -0.1199  0.6168
 3331SOL     ow13321   4.226   3.619   3.435 -0.1313 -0.7586  0.2906
 3331SOL     hw13322   4.237   3.531   3.472 -0.0296 -0.1903  1.6806
 3331SOL     hw13323   4.133   3.639   3.451 -0.1526 -0.6080 -0.0209
 3331SOL     vw13324   4.215   3.610   3.442 -0.1204 -0.6639  0.4328
 3332SOL     ow13325   2.646   1.601   4.867  0.1400 -0.5516 -0.2038
 3332SOL     hw13326   2.687   1.610   4.781 -1.8403  0.2033 -1.1360
 3332SOL     hw13327   2.650   1.507   4.886 -0.8830 -0.9874 -1.9401
 3332SOL     vw13328   2.652   1.590   4.858 -0.2564 -0.5095 -0.5560
 3333SOL     ow13329   2.335   2.189   5.609 -0.2795 -0.2493 -0.2912
 3333SOL     hw13330   2.312   2.103   5.574 -1.1327  0.3955 -1.3909
 3333SOL     hw13331   2.324   2.248   5.535  1.2065  0.6938  0.1858
 3333SOL     vw13332   2.331   2.185   5.595 -0.1960 -0.0399 -0.3731
 3334SOL     ow13333   1.817   4.723   0.013  0.4627  0.8699 -0.4628
 3334SOL     hw13334   1.859   4.733  -0.072 -0.8475  1.1042 -1.1132
 3334SOL     hw13335   1.737   4.673  -0.005  1.1166 -0.7831  0.9426
 3334SOL     vw13336   1.812   4.718  -0.000  0.3762  0.6826 -0.3631
 3335SOL     ow13337   0.119   5.899   1.962  0.4068 -0.1836  0.1175
 3335SOL     hw13338   0.106   5.980   1.913 -0.9171  0.1661  0.9975
 3335SOL     hw13339   0.142   5.928   2.051 -0.5784 -0.7457  0.5734
 3335SOL     vw13340   0.120   5.914   1.967  0.1022 -0.2117  0.2938
 3336SOL     ow13341   6.460   3.405   6.846 -0.3300  0.0179  0.3222
 3336SOL     hw13342   6.475   3.469   6.916 -0.0820 -1.1913  1.4059
 3336SOL     hw13343   6.379   3.361   6.870 -1.0473  0.5852 -0.9516
 3336SOL     vw13344   6.451   3.408   6.858 -0.3917 -0.0668  0.2971
 3337SOL     ow13345   7.497   1.659   1.523  0.1453 -0.2894 -0.3337
 3337SOL     hw13346   7.566   1.719   1.552 -0.5416  0.9604 -1.1814
 3337SOL     hw13347   7.472   1.691   1.436  1.2003 -3.0768 -1.8052
 3337SOL     vw13348   7.503   1.671   1.515  0.1941 -0.4923 -0.6397
 3338SOL     ow13349   1.686   1.097   5.771 -0.6191 -0.7446  1.0656
 3338SOL     hw13350   1.762   1.156   5.775 -1.0331 -0.0516 -0.3847
 3338SOL     hw13351   1.661   1.083   5.862  0.9310 -0.5696  1.5439
 3338SOL     vw13352   1.693   1.103   5.783 -0.4691 -0.6301  0.9372
 3339SOL     ow13353   7.329   3.687   6.516  0.8152 -0.7563  0.1997
 3339SOL     hw13354   7.285   3.605   6.493  0.8622 -0.5418 -0.6908
 3339SOL     hw13355   7.257   3.749   6.532  0.6697 -1.5541  3.4166
 3339SOL     vw13356   7.314   3.684   6.515  0.8020 -0.8333  0.5069
 3340SOL     ow13357   1.527   2.362   2.683  0.0385  0.0511  0.1378
 3340SOL     hw13358   1.527   2.272   2.652 -1.3213 -1.3844  3.8121
 3340SOL     hw13359   1.435   2.388   2.684  0.2199  0.7328  0.9774
 3340SOL     vw13360   1.515   2.354   2.679 -0.1169 -0.0482  0.7334
 3341SOL     ow13361   6.872   0.553   2.579  0.6055 -0.1818  0.2005
 3341SOL     hw13362   6.934   0.544   2.651 -0.5305  0.8253  1.3637
 3341SOL     hw13363   6.806   0.614   2.612 -0.5151 -0.5143 -1.3226
 3341SOL     vw13364   6.871   0.560   2.593  0.3078 -0.0928  0.1529
 3342SOL     ow13365   0.474   3.474   0.408  0.6824 -0.1380  0.1819
 3342SOL     hw13366   0.420   3.473   0.487 -0.6453  0.9046 -0.6628
 3342SOL     hw13367   0.434   3.407   0.352 -0.9347  1.8125 -1.1428
 3342SOL     vw13368   0.461   3.465   0.411  0.2939  0.2569 -0.1043
 3343SOL     ow13369   4.740   0.195   4.704 -0.3838  0.1365 -0.1872
 3343SOL     hw13370   4.766   0.261   4.768 -3.3504 -0.5550  1.9765
 3343SOL     hw13371   4.647   0.213   4.688 -0.9080 -2.5590 -0.7029
 3343SOL     vw13372   4.731   0.206   4.710 -0.8442 -0.3104  0.0303
 3344SOL     ow13373   1.107   2.136   5.733 -0.5790  0.4621 -0.2488
 3344SOL     hw13374   1.079   2.169   5.818 -2.5535  0.0522 -0.6955
 3344SOL     hw13375   1.171   2.068   5.754 -0.6762  0.7030  0.8857
 3344SOL     vw13376   1.112   2.131   5.747 -0.8523  0.4399 -0.1581
 3345SOL     ow13377   6.254   3.073   4.533  0.1170 -0.1018 -0.3115
 3345SOL     hw13378   6.217   3.075   4.621 -1.7712  0.2463 -1.0760
 3345SOL     hw13379   6.344   3.105   4.545 -0.3855  0.8317  1.3503
 3345SOL     vw13380   6.261   3.078   4.546 -0.1984  0.0672 -0.1931
 3346SOL     ow13381   5.226   6.042   7.633 -0.5241  0.5242 -0.1110
 3346SOL     hw13382   5.216   5.974   7.567 -2.7785  0.1219  0.5416
 3346SOL     hw13383   5.187   6.120   7.594 -1.3034  0.4426  0.4568
 3346SOL     vw13384   5.219   6.043   7.619 -0.9246  0.4606  0.0500
 3347SOL     ow13385   1.157   5.412   0.602  0.0662 -0.4354 -0.0736
 3347SOL     hw13386   1.154   5.487   0.542 -1.6366 -0.3980 -0.0097
 3347SOL     hw13387   1.076   5.419   0.653  0.5646 -1.5337  0.9218
 3347SOL     vw13388   1.146   5.423   0.601 -0.0926 -0.5753  0.0661
 3348SOL     ow13389   2.895   2.345   7.036 -0.1079  0.4765  0.5121
 3348SOL     hw13390   2.900   2.340   7.131 -1.6336  1.9043  0.7167
 3348SOL     hw13391   2.874   2.437   7.018  3.5552  1.1295 -1.4023
 3348SOL     vw13392   2.893   2.357   7.046  0.1740  0.7510  0.2866
 3349SOL     ow13393   3.844   2.146   6.776 -0.7663  0.1838  0.2487
 3349SOL     hw13394   3.883   2.089   6.710 -1.0668  1.5108 -1.1265
 3349SOL     hw13395   3.885   2.119   6.858  3.1173  1.4732 -1.0401
 3349SOL     vw13396   3.854   2.135   6.778 -0.2936  0.5291 -0.1030
 3350SOL     ow13397   3.710   6.444   0.598 -0.2097  0.2058  0.5794
 3350SOL     hw13398   3.746   6.531   0.583 -1.3927  0.3039 -2.3010
 3350SOL     hw13399   3.772   6.402   0.658  2.1811  1.8917 -0.5708
 3350SOL     vw13400   3.723   6.450   0.604 -0.0505  0.4411  0.0476
 3351SOL     ow13401   5.196   3.322   1.384 -0.4472 -0.5412  0.2157
 3351SOL     hw13402   5.264   3.258   1.362 -2.2448 -1.9567 -1.5709
 3351SOL     hw13403   5.199   3.385   1.312 -2.1532 -1.6412 -0.8945
 3351SOL     vw13404   5.205   3.322   1.372 -0.9093 -0.8732 -0.1665
 3352SOL     ow13405   0.389   1.001   6.670 -0.4283  0.0032 -0.4508
 3352SOL     hw13406   0.483   1.002   6.688 -0.6557 -1.0513  0.9716
 3352SOL     hw13407   0.351   1.052   6.741 -0.9663  0.1318 -0.8260
 3352SOL     vw13408   0.397   1.008   6.682 -0.5293 -0.1190 -0.3126
 3353SOL     ow13409   4.313   0.638   0.593 -0.4870 -0.1591 -0.1210
 3353SOL     hw13410   4.279   0.727   0.602  0.8059  0.2122  1.7504
 3353SOL     hw13411   4.326   0.626   0.499  0.7728  2.2333 -0.3410
 3353SOL     vw13412   4.310   0.648   0.582 -0.1504  0.2055  0.0969
 3354SOL     ow13413   6.516   6.290   6.100  0.3440  0.1607  0.7423
 3354SOL     hw13414   6.475   6.206   6.121 -3.0157  1.2865 -0.7223
 3354SOL     hw13415   6.505   6.300   6.005  4.6545  0.3985  0.0643
 3354SOL     vw13416   6.509   6.280   6.090  0.4697  0.3405  0.4594
 3355SOL     ow13417   6.880   3.319   3.587 -0.1029  0.3352 -0.2373
 3355SOL     hw13418   6.923   3.401   3.611 -1.0850  1.6920 -2.8000
 3355SOL     hw13419   6.877   3.269   3.669 -0.3843  3.2574  1.6784
 3355SOL     vw13420   6.885   3.323   3.601 -0.2694  0.8997 -0.3227
 3356SOL     ow13421   2.843   2.837   1.942 -0.3816  0.4162 -0.4276
 3356SOL     hw13422   2.870   2.906   2.003  1.7377  0.8786 -1.8032
 3356SOL     hw13423   2.768   2.874   1.895  0.7770  1.8677 -1.2078
 3356SOL     vw13424   2.837   2.851   1.944  0.0508  0.6688 -0.7120
 3357SOL     ow13425   2.600   6.658   5.178  0.7934 -0.4628  0.1368
 3357SOL     hw13426   2.549   6.581   5.151  0.0057  0.7786 -2.2905
 3357SOL     hw13427   2.562   6.684   5.262 -2.5702  0.2211 -1.3883
 3357SOL     vw13428   2.588   6.651   5.185  0.2457 -0.2086 -0.3848
 3358SOL     ow13429   7.321   5.750   7.019 -0.4637  0.2290 -0.4162
 3358SOL     hw13430   7.262   5.683   6.986 -1.8189  0.5867  1.1278
 3358SOL     hw13431   7.274   5.832   7.008 -1.6099  0.2643  3.3775
 3358SOL     vw13432   7.307   5.752   7.014 -0.7937  0.2809  0.2878
 3359SOL     ow13433   3.568   6.597   5.333  0.2376  0.0080  0.7096
 3359SOL     hw13434   3.585   6.527   5.395 -1.8122  0.0547  1.4189
 3359SOL     hw13435   3.473   6.611   5.339  0.4707  2.2636 -0.0398
 3359SOL     vw13436   3.557   6.590   5.342 -0.0020  0.3119  0.7043
 3360SOL     ow13437   6.404   6.159   5.325  0.0560  0.5554  0.2370
 3360SOL     hw13438   6.453   6.240   5.313 -0.7499  0.9657 -0.3982
 3360SOL     hw13439   6.318   6.177   5.285 -1.0438  0.2674  2.3233
 3360SOL     vw13440   6.399   6.172   5.318 -0.1955  0.5715  0.4284
 3361SOL     ow13441   3.993   6.248   1.803 -0.4218  0.2785  0.5193
 3361SOL     hw13442   3.904   6.212   1.798  0.1809 -1.5151  1.6946
 3361SOL     hw13443   4.001   6.303   1.726 -3.5150  2.8531  1.8356
 3361SOL     vw13444   3.982   6.250   1.792 -0.7503  0.3815  0.8481
 3362SOL     ow13445   2.292   0.925   5.261  0.6176 -0.4107 -0.1168
 3362SOL     hw13446   2.374   0.896   5.220  1.1192 -1.1020  1.3017
 3362SOL     hw13447   2.224   0.884   5.208  1.1265  0.6409 -1.6729
 3362SOL     vw13448   2.294   0.916   5.249  0.7508 -0.3631 -0.1349
 3363SOL     ow13449   2.136   0.411   2.773  0.0087  0.0877  0.1064
 3363SOL     hw13450   2.110   0.499   2.746 -0.1895 -0.4974 -1.7419
 3363SOL     hw13451   2.229   0.420   2.795 -0.6973  1.3885  3.1459
 3363SOL     vw13452   2.145   0.424   2.773 -0.1106  0.1821  0.2636
 3364SOL     ow13453   2.693   1.026   4.956 -0.4345 -0.4537 -0.1981
 3364SOL     hw13454   2.640   0.947   4.948 -0.0631 -0.6635 -0.6145
 3364SOL     hw13455   2.747   1.027   4.877  0.6370 -0.5797  0.5000
 3364SOL     vw13456   2.693   1.016   4.945 -0.2441 -0.4980 -0.1607
 3365SOL     ow13457   1.283   4.852   0.683  0.4912 -0.2650 -0.1021
 3365SOL     hw13458   1.254   4.869   0.773 -2.1940  3.8964 -1.4753
 3365SOL     hw13459   1.253   4.763   0.664 -3.6357  0.5384  1.5869
 3365SOL     vw13460   1.276   4.843   0.693 -0.4076  0.3903 -0.0604
 3366SOL     ow13461   3.531   0.526   0.244 -0.1688 -0.3171  0.2525
 3366SOL     hw13462   3.439   0.512   0.266 -0.1890  1.1546  1.2907
 3366SOL     hw13463   3.579   0.465   0.300 -0.4772 -0.6731  0.1337
 3366SOL     vw13464   3.525   0.516   0.255 -0.2122 -0.1699  0.3738
 3367SOL     ow13465   3.067   0.121   4.101 -0.3297  1.1614  0.2271
 3367SOL     hw13466   3.010   0.128   4.177  0.7980 -0.2148  1.2740
 3367SOL     hw13467   3.116   0.203   4.100 -0.7058  1.3971  0.6842
 3367SOL     vw13468   3.066   0.132   4.111 -0.2306  1.0109  0.4253
 3368SOL     ow13469   0.193   1.896   6.158 -0.4137 -0.4279  0.2125
 3368SOL     hw13470   0.106   1.931   6.177 -0.2076  0.4144 -0.3254
 3368SOL     hw13471   0.176   1.815   6.109 -0.9734  1.2684 -2.6721
 3368SOL     vw13472   0.179   1.890   6.154 -0.4604 -0.0930 -0.2387
 3369SOL     ow13473   6.978   3.042   3.452 -0.2280 -1.2966  0.4589
 3369SOL     hw13474   7.070   3.022   3.465 -0.1466 -0.3434  1.4795
 3369SOL     hw13475   6.933   2.995   3.522 -0.4439 -1.1981  0.3878
 3369SOL     vw13476   6.984   3.033   3.463 -0.2458 -1.1579  0.5841
 3370SOL     ow13477   3.028   4.274   0.044 -0.1515 -0.5259  0.6601
 3370SOL     hw13478   3.110   4.232   0.019 -0.0000 -0.1774  0.5637
 3370SOL     hw13479   3.033   4.362   0.006 -0.6322 -0.5530  0.5287
 3370SOL     vw13480   3.039   4.280   0.036 -0.1949 -0.4833  0.6300
 3371SOL     ow13481   6.396   3.546   5.511 -0.7993  0.0862  0.0954
 3371SOL     hw13482   6.323   3.501   5.553 -1.7240  0.7027 -0.8171
 3371SOL     hw13483   6.382   3.532   5.417 -0.3461  1.1125 -0.1413
 3371SOL     vw13484   6.385   3.538   5.504 -0.8614  0.3028 -0.0560
 3372SOL     ow13485   5.111   2.970   4.718 -0.6787  1.4874 -0.2895
 3372SOL     hw13486   5.094   2.894   4.773  0.9602  0.3433 -1.2674
 3372SOL     hw13487   5.137   3.039   4.780 -0.5616  0.7529  0.4871
 3372SOL     vw13488   5.112   2.969   4.734 -0.4470  1.2397 -0.3161
 3373SOL     ow13489   3.570   1.850   7.271 -0.0933  0.1868 -0.4917
 3373SOL     hw13490   3.545   1.759   7.282  2.9573 -0.6724  0.3506
 3373SOL     hw13491   3.650   1.860   7.324  0.4064  2.9909 -1.5754
 3373SOL     vw13492   3.577   1.840   7.279  0.3752  0.4434 -0.5236
 3374SOL     ow13493   3.230   7.255   5.994  0.3667  0.0220 -0.0557
 3374SOL     hw13494   3.175   7.305   6.054 -0.0768 -1.5806  0.9193
 3374SOL     hw13495   3.319   7.281   6.016  0.0952  2.3405 -1.3770
 3374SOL     vw13496   3.234   7.265   6.005  0.2723  0.1166 -0.1013
 3375SOL     ow13497   6.632   6.025   2.505 -0.5699 -0.1652 -0.3217
 3375SOL     hw13498   6.677   5.948   2.540  0.9648  0.0001 -1.7954
 3375SOL     hw13499   6.652   6.095   2.567 -0.3106 -0.5133 -0.0067
 3375SOL     vw13500   6.641   6.024   2.517 -0.3331 -0.1895 -0.4747
 3376SOL     ow13501   4.397   1.742   3.132 -0.0088  0.1088 -1.0252
 3376SOL     hw13502   4.442   1.820   3.164 -0.0985 -1.3757  3.3742
 3376SOL     hw13503   4.307   1.753   3.163  0.1219 -1.8914  0.2784
 3376SOL     vw13504   4.391   1.754   3.141 -0.0031 -0.3510 -0.2728
 3377SOL     ow13505   1.525   3.567   1.252 -0.0396 -0.7511 -0.4737
 3377SOL     hw13506   1.491   3.478   1.242  0.2390 -0.6823 -2.6612
 3377SOL     hw13507   1.449   3.624   1.239  0.2141 -0.6631 -1.7420
 3377SOL     vw13508   1.510   3.563   1.249  0.0307 -0.7304 -0.9297
 3378SOL     ow13509   3.060   7.157   3.499 -0.3508  0.1075  0.3884
 3378SOL     hw13510   2.997   7.186   3.566 -1.3098 -0.9184 -0.0323
 3378SOL     hw13511   3.145   7.162   3.542 -0.4672  3.2192  0.4198
 3378SOL     vw13512   3.063   7.161   3.514 -0.4927  0.3827  0.3370
 3379SOL     ow13513   1.674   3.867   3.512 -0.0218  0.1799 -0.2809
 3379SOL     hw13514   1.748   3.806   3.520 -0.5365 -0.2703  1.4250
 3379SOL     hw13515   1.715   3.951   3.491  0.9148 -0.2044 -0.0767
 3379SOL     vw13516   1.690   3.870   3.510  0.0339  0.0700 -0.0290
 3380SOL     ow13517   5.697   3.839   1.395  0.0550  0.4793 -0.3158
 3380SOL     hw13518   5.727   3.863   1.307  0.8639  3.6127  0.6795
 3380SOL     hw13519   5.687   3.744   1.392  2.8830  0.0957 -2.9724
 3380SOL     vw13520   5.700   3.830   1.383  0.5350  0.8421 -0.5350
 3381SOL     ow13521   0.833   6.883   3.836 -0.1387 -0.0980  0.0360
 3381SOL     hw13522   0.783   6.935   3.899  0.6344  0.0747  0.5158
 3381SOL     hw13523   0.809   6.919   3.751  1.2444  1.8465  0.4080
 3381SOL     vw13524   0.823   6.895   3.833  0.1458  0.1814  0.1484
 3382SOL     ow13525   1.081   2.457   0.779  0.2765 -0.3042  0.3274
 3382SOL     hw13526   1.119   2.380   0.822 -2.7645 -1.8840  0.4889
 3382SOL     hw13527   1.014   2.488   0.841 -0.3925  0.7820 -0.9003
 3382SOL     vw13528   1.077   2.451   0.793 -0.2130 -0.3692  0.1867
 3383SOL     ow13529   5.324   0.121   1.011 -0.6247 -0.6187 -0.0569
 3383SOL     hw13530   5.275   0.138   1.091 -1.1413  2.0609 -0.8615
 3383SOL     hw13531   5.279   0.046   0.971 -1.6662 -0.6264  1.0903
 3383SOL     vw13532   5.312   0.113   1.016 -0.8304 -0.2662 -0.0117
 3384SOL     ow13533   1.548   4.810   3.079 -0.0444 -0.5536 -0.2487
 3384SOL     hw13534   1.527   4.728   3.035  1.4325 -1.7092  1.0684
 3384SOL     hw13535   1.600   4.784   3.155 -0.1641  1.5573  0.6317
 3384SOL     vw13536   1.552   4.796   3.083  0.1346 -0.4275  0.0412
 3385SOL     ow13537   1.420   0.240   4.815 -0.5427  0.0801  0.3757
 3385SOL     hw13538   1.400   0.268   4.905 -1.4311 -0.8683  0.4910
 3385SOL     hw13539   1.494   0.180   4.824  0.0045  0.7471  0.3597
 3385SOL     vw13540   1.427   0.236   4.828 -0.5877  0.0430  0.3889
 3386SOL     ow13541   2.436   2.215   5.155 -0.3877  0.0099 -0.1146
 3386SOL     hw13542   2.344   2.236   5.172 -0.4177 -1.0642  1.1966
 3386SOL     hw13543   2.434   2.129   5.112 -0.0471  0.6359 -1.4425
 3386SOL     vw13544   2.424   2.206   5.152 -0.3467 -0.0492 -0.1171
 3387SOL     ow13545   1.633   0.357   4.250  0.2849 -0.3080  0.2985
 3387SOL     hw13546   1.628   0.378   4.343 -1.3629 -1.9536  0.6322
 3387SOL     hw13547   1.542   0.353   4.221  0.6031 -2.9168 -0.5908
 3387SOL     vw13548   1.621   0.359   4.258  0.1094 -0.8693  0.2253
 3388SOL     ow13549   1.788   1.291   5.477 -0.3595  0.0570  0.1220
 3388SOL     hw13550   1.816   1.382   5.480 -0.6866  0.2502 -1.4914
 3388SOL     hw13551   1.698   1.292   5.508 -0.2215  0.2044  0.5253
 3388SOL     vw13552   1.780   1.303   5.481 -0.3844  0.1019 -0.0379
 3389SOL     ow13553   3.569   6.859   0.599  0.2218  0.0362 -0.2047
 3389SOL     hw13554   3.660   6.855   0.626  0.4543 -0.0344 -0.9674
 3389SOL     hw13555   3.530   6.927   0.654  0.6139 -0.2577  0.4457
 3389SOL     vw13556   3.576   6.867   0.609  0.3043 -0.0119 -0.2195
 3390SOL     ow13557   4.148   5.769   0.626  0.3873 -0.0181 -0.2035
 3390SOL     hw13558   4.086   5.810   0.687  0.9046  0.5875 -0.0718
 3390SOL     hw13559   4.234   5.800   0.655  0.7021 -0.3253 -0.7867
 3390SOL     vw13560   4.151   5.779   0.638  0.4973  0.0215 -0.2631
 3391SOL     ow13561   6.475   0.173   7.397 -0.5575  0.0599  0.1830
 3391SOL     hw13562   6.536   0.245   7.411  0.4639 -0.5876 -0.8221
 3391SOL     hw13563   6.390   0.209   7.422  0.0544  1.3248  0.5373
 3391SOL     vw13564   6.472   0.187   7.402 -0.3424  0.1414  0.0973
 3392SOL     ow13565   4.369   0.515   3.740  0.1666  0.2582 -0.0994
 3392SOL     hw13566   4.332   0.460   3.809 -0.2610 -1.2180 -1.4614
 3392SOL     hw13567   4.449   0.470   3.714 -0.0145  0.4532 -1.0171
 3392SOL     vw13568   4.375   0.502   3.746  0.0863  0.0892 -0.4001
 3393SOL     ow13569   1.320   4.365   6.450  0.6279 -0.2991  0.7212
 3393SOL     hw13570   1.290   4.359   6.540  1.1200 -0.1060  0.8990
 3393SOL     hw13571   1.303   4.456   6.425 -1.9154 -0.9492 -0.2456
 3393SOL     vw13572   1.314   4.376   6.458  0.3572 -0.3593  0.6170
 3394SOL     ow13573   3.933   6.014   2.591  0.6293 -0.2133  0.2099
 3394SOL     hw13574   3.865   6.076   2.619  0.3945 -0.0797 -0.5958
 3394SOL     hw13575   4.015   6.062   2.602  0.4759  0.1255 -0.0688
 3394SOL     vw13576   3.934   6.029   2.596  0.5780 -0.1509  0.0668
 3395SOL     ow13577   4.802   5.363   4.108 -0.1484 -0.0327  1.2596
 3395SOL     hw13578   4.808   5.275   4.146  0.0834  0.2779  1.9662
 3395SOL     hw13579   4.723   5.400   4.147 -1.5135 -0.6843 -0.7051
 3395SOL     vw13580   4.792   5.356   4.118 -0.2980 -0.0777  1.0939
 3396SOL     ow13581   6.156   1.647   2.094  0.1477  0.4001  0.1174
 3396SOL     hw13582   6.064   1.623   2.107 -0.1673  1.5852  0.1442
 3396SOL     hw13583   6.168   1.728   2.144  0.8668  0.9479 -0.9017
 3396SOL     vw13584   6.145   1.654   2.102  0.2012  0.6287 -0.0135
 3397SOL     ow13585   1.482   5.314   2.342 -0.7596 -0.3764 -0.3311
 3397SOL     hw13586   1.390   5.329   2.322 -0.9113 -1.2718 -0.3308
 3397SOL     hw13587   1.483   5.235   2.396  0.1312 -1.5653 -1.9612
 3397SOL     vw13588   1.470   5.306   2.346 -0.6621 -0.6516 -0.5461
 3398SOL     ow13589   5.478   4.873   5.010 -0.3992 -0.3900 -0.0289
 3398SOL     hw13590   5.434   4.879   5.095  1.2619  2.3623  0.7558
 3398SOL     hw13591   5.461   4.958   4.969 -1.5252 -1.7939 -2.7373
 3398SOL     vw13592   5.470   4.885   5.016 -0.3285 -0.2120 -0.2825
 3399SOL     ow13593   6.394   5.681   5.438  0.4615  0.2301 -0.3353
 3399SOL     hw13594   6.432   5.666   5.524  0.4434 -1.2963 -0.5651
 3399SOL     hw13595   6.382   5.594   5.401 -0.7772  0.7861 -1.3522
 3399SOL     vw13596   6.397   5.668   5.444  0.2959  0.1018 -0.5000
 3400SOL     ow13597   3.948   7.187   0.167 -0.0472  0.3137 -0.0419
 3400SOL     hw13598   3.858   7.155   0.163 -0.1641  0.6359  0.0012
 3400SOL     hw13599   3.998   7.112   0.199 -0.2256 -0.0094 -0.5126
 3400SOL     vw13600   3.942   7.173   0.171 -0.0863  0.3138 -0.0983
 3401SOL     ow13601   2.538   6.555   0.638  0.2319 -0.0540  0.6221
 3401SOL     hw13602   2.558   6.641   0.673  0.0649  0.6544 -0.9374
 3401SOL     hw13603   2.582   6.552   0.553 -1.6630 -0.5766 -0.4111
 3401SOL     vw13604   2.546   6.566   0.632 -0.0401 -0.0296  0.2800
 3402SOL     ow13605   5.733   5.912   5.425  0.3980  0.0694 -0.6405
 3402SOL     hw13606   5.745   5.987   5.367  1.5028 -0.1826 -0.7503
 3402SOL     hw13607   5.694   5.844   5.370 -4.9963  1.8080  0.3351
 3402SOL     vw13608   5.729   5.913   5.410 -0.1678  0.2656 -0.5264
 3403SOL     ow13609   3.013   2.126   4.921  0.6723  0.5075  0.0188
 3403SOL     hw13610   2.969   2.042   4.936  0.6879  0.2682 -1.1934
 3403SOL     hw13611   2.942   2.187   4.902  0.4001  1.4230  3.3450
 3403SOL     vw13612   2.998   2.123   4.920  0.6385  0.5966  0.2978
 3404SOL     ow13613   0.658   7.395   2.899  0.4129  0.5747  0.4193
 3404SOL     hw13614   0.713   7.370   2.973  1.0793 -0.0226 -0.2581
 3404SOL     hw13615   0.709   7.462   2.853  0.6239 -0.0308 -0.2505
 3404SOL     vw13616   0.672   7.401   2.902  0.5287  0.4160  0.2413
 3405SOL     ow13617   1.221   4.120   6.167 -0.1228 -0.7049  0.2771
 3405SOL     hw13618   1.268   4.203   6.168  1.9854 -1.8319  1.1979
 3405SOL     hw13619   1.183   4.112   6.255 -2.1768  0.1977 -0.4577
 3405SOL     vw13620   1.222   4.130   6.179 -0.1156 -0.7343  0.3014
 3406SOL     ow13621   4.395   5.099   0.014  0.6192 -0.6056  0.4371
 3406SOL     hw13622   4.395   5.004   0.003  0.9214 -0.5883  0.2536
 3406SOL     hw13623   4.321   5.117   0.071  2.7380 -1.3430  3.7317
 3406SOL     vw13624   4.385   5.089   0.020  0.9387 -0.7007  0.8476
 3407SOL     ow13625   4.268   2.857   2.698 -0.1431  0.2905  0.1989
 3407SOL     hw13626   4.296   2.864   2.790 -0.4528  0.4535  0.2841
 3407SOL     hw13627   4.191   2.801   2.701 -0.7407  1.0876  0.1715
 3407SOL     vw13628   4.262   2.851   2.711 -0.2627  0.4172  0.2065
 3408SOL     ow13629   3.809   1.667   1.920  0.5602  0.3278  0.1017
 3408SOL     hw13630   3.809   1.574   1.897  0.2176  0.5697 -0.9522
 3408SOL     hw13631   3.788   1.712   1.838 -1.5624  1.2068  1.0444
 3408SOL     vw13632   3.806   1.661   1.906  0.2350  0.4757  0.0870
 3409SOL     ow13633   4.085   4.399   4.916  0.1411 -0.0883  0.1101
 3409SOL     hw13634   4.069   4.487   4.950 -0.9840 -0.8755  1.7722
 3409SOL     hw13635   4.120   4.350   4.991  2.7995 -0.5647 -1.3248
 3409SOL     vw13636   4.088   4.404   4.930  0.3433 -0.2549  0.1402
 3410SOL     ow13637   7.591   5.060   2.204  0.0120  0.6513  0.1025
 3410SOL     hw13638   7.646   5.035   2.279  0.9360  1.3238 -0.3368
 3410SOL     hw13639   7.533   5.129   2.238 -1.4504 -0.8901  0.8921
 3410SOL     vw13640   7.590   5.066   2.218 -0.0594  0.5367  0.1487
 3411SOL     ow13641   0.153   5.328   5.188  0.2694 -0.0547  0.0747
 3411SOL     hw13642   0.091   5.400   5.200  1.0442  0.7409 -0.5286
 3411SOL     hw13643   0.106   5.266   5.132 -0.9614 -0.7652  1.8105
 3411SOL     vw13644   0.138   5.330   5.182  0.2092 -0.0436  0.2241
 3412SOL     ow13645   0.350   0.535   1.626 -0.7369 -0.1384 -0.4769
 3412SOL     hw13646   0.326   0.446   1.598 -0.3954  0.2893 -2.2686
 3412SOL     hw13647   0.350   0.586   1.545 -4.3427  2.3568  0.8027
 3412SOL     vw13648   0.347   0.530   1.612 -1.1676  0.2472 -0.5444
 3413SOL     ow13649   5.262   6.560   5.040  0.6264 -0.7571 -0.2024
 3413SOL     hw13650   5.339   6.599   5.000  0.1296 -1.4290 -1.9143
 3413SOL     hw13651   5.296   6.508   5.113  1.4231  1.6755  1.2666
 3413SOL     vw13652   5.276   6.558   5.045  0.6661 -0.5248 -0.2346
 3414SOL     ow13653   1.766   2.618   1.693 -0.2613 -0.6842 -0.0458
 3414SOL     hw13654   1.769   2.587   1.603  1.8796  0.7433 -0.5475
 3414SOL     hw13655   1.855   2.650   1.710 -0.5214 -1.1491  2.6652
 3414SOL     vw13656   1.778   2.618   1.683 -0.0131 -0.5573  0.2458
 3415SOL     ow13657   4.452   5.715   0.666  0.2294 -0.2794 -0.3526
 3415SOL     hw13658   4.502   5.655   0.721  0.3447 -0.5190 -0.7186
 3415SOL     hw13659   4.428   5.664   0.589 -1.1063 -0.3462  0.0941
 3415SOL     vw13660   4.456   5.701   0.663  0.0682 -0.3197 -0.3420
 3416SOL     ow13661   4.867   1.129   5.077  0.6797 -0.2470  0.3601
 3416SOL     hw13662   4.942   1.075   5.103  0.2840 -0.9507  0.0577
 3416SOL     hw13663   4.841   1.174   5.158  0.1304 -1.6075  0.9806
 3416SOL     vw13664   4.873   1.128   5.091  0.5550 -0.5193  0.4025
 3417SOL     ow13665   1.285   2.017   1.087  1.0296  0.2152 -0.1553
 3417SOL     hw13666   1.376   2.043   1.072  0.5697  1.6057 -0.6832
 3417SOL     hw13667   1.249   2.084   1.144  0.5121 -0.7038  0.6268
 3417SOL     vw13668   1.292   2.029   1.092  0.9006  0.2774 -0.1218
 3418SOL     ow13669   6.739   0.885   0.017 -0.2972 -0.7258  0.0779
 3418SOL     hw13670   6.676   0.888   0.089 -0.9057 -0.2708 -0.4622
 3418SOL     hw13671   6.820   0.855   0.057 -0.8763 -1.3950  0.7721
 3418SOL     vw13672   6.741   0.882   0.032 -0.4539 -0.7540  0.0982
 3419SOL     ow13673   0.470   6.460   4.482  0.8249  0.1441 -0.1476
 3419SOL     hw13674   0.565   6.450   4.489  0.7502 -0.4646  0.0632
 3419SOL     hw13675   0.441   6.379   4.441  0.1630 -0.6386  1.7531
 3419SOL     vw13676   0.479   6.448   4.478  0.7277 -0.0396  0.1309
 3420SOL     ow13677   4.217   5.236   7.268 -0.6801  0.3554 -0.4466
 3420SOL     hw13678   4.140   5.292   7.256 -2.1518 -1.4265  0.2194
 3420SOL     hw13679   4.184   5.159   7.314  1.4701 -0.6078 -0.3939
 3420SOL     vw13680   4.202   5.233   7.272 -0.5906 -0.0067 -0.3517
 3421SOL     ow13681   5.698   4.257   0.701 -0.9544 -0.8673  0.0792
 3421SOL     hw13682   5.607   4.255   0.731 -0.3397  1.3629  2.4212
 3421SOL     hw13683   5.748   4.282   0.779  1.2154  1.7797 -1.9826
 3421SOL     vw13684   5.693   4.260   0.715 -0.5870 -0.2239  0.1161
 3422SOL     ow13685   1.112   5.457   4.248  0.1388 -0.4508 -0.1713
 3422SOL     hw13686   1.153   5.444   4.334 -2.6112 -2.4559  0.9640
 3422SOL     hw13687   1.159   5.396   4.191  1.9811  0.8857 -0.1852
 3422SOL     vw13688   1.124   5.447   4.252  0.0190 -0.5388 -0.0234
 3423SOL     ow13689   0.718   6.907   6.283  0.0723 -0.2242 -0.2526
 3423SOL     hw13690   0.646   6.962   6.313  0.7069 -0.2007  1.3394
 3423SOL     hw13691   0.794   6.939   6.331  0.9524 -0.9236 -1.1279
 3423SOL     vw13692   0.719   6.919   6.293  0.2722 -0.3135 -0.1581
 3424SOL     ow13693   4.513   1.292   6.037  0.3298 -0.9785 -0.4369
 3424SOL     hw13694   4.502   1.354   5.964  0.9590  0.5655  0.7178
 3424SOL     hw13695   4.430   1.244   6.040 -0.8540  0.9347 -0.3995
 3424SOL     vw13696   4.500   1.294   6.028  0.2565 -0.5224 -0.2797
 3425SOL     ow13697   1.097   1.714   2.169 -0.0496 -0.5658 -0.3612
 3425SOL     hw13698   1.005   1.737   2.157  0.2389  0.2119 -1.1062
 3425SOL     hw13699   1.095   1.620   2.190 -1.1482 -0.1414  1.7137
 3425SOL     vw13700   1.084   1.704   2.171 -0.1565 -0.4072 -0.1857
 3426SOL     ow13701   3.811   1.681   5.830 -0.4393  0.4295  0.0097
 3426SOL     hw13702   3.718   1.694   5.812 -0.1509  1.0657 -1.0999
 3426SOL     hw13703   3.832   1.596   5.792 -0.3967  0.6459 -0.4588
 3426SOL     vw13704   3.802   1.672   5.823 -0.3955  0.5419 -0.1984
 3427SOL     ow13705   2.969   4.041   2.390  0.4000 -0.4117  0.6353
 3427SOL     hw13706   2.895   4.103   2.395  0.3047 -0.5655  1.2923
 3427SOL     hw13707   3.043   4.094   2.363 -0.4086 -0.6683 -2.4750
 3427SOL     vw13708   2.969   4.056   2.387  0.2806 -0.4659  0.3116
 3428SOL     ow13709   1.999   2.630   1.422  0.3223 -0.6259  0.3314
 3428SOL     hw13710   2.071   2.567   1.425  1.3318  0.2124 -2.6505
 3428SOL     hw13711   1.920   2.576   1.413  1.1046 -1.5682 -1.5933
 3428SOL     vw13712   1.998   2.614   1.421  0.5587 -0.6396 -0.3159
 3429SOL     ow13713   2.303   2.150   4.358  0.6119 -0.3717  0.2966
 3429SOL     hw13714   2.225   2.122   4.407  0.1569 -1.6414 -1.0891
 3429SOL     hw13715   2.297   2.103   4.275  2.0930  0.6717 -0.4318
 3429SOL     vw13716   2.292   2.140   4.354  0.7473 -0.4016  0.0179
 3430SOL     ow13717   5.110   3.178   0.915 -0.7640  0.3731  0.0102
 3430SOL     hw13718   5.098   3.257   0.967 -1.2580 -0.8000  1.7355
 3430SOL     hw13719   5.205   3.168   0.908 -0.5993 -0.6362  2.6626
 3430SOL     vw13720   5.121   3.187   0.921 -0.8075  0.0850  0.5877
 3431SOL     ow13721   6.308   6.426   6.193  0.3260 -0.0290  0.1165
 3431SOL     hw13722   6.278   6.372   6.266 -1.0291 -0.8114 -0.9747
 3431SOL     hw13723   6.387   6.382   6.161  0.3683 -0.2304  0.4973
 3431SOL     vw13724   6.314   6.413   6.198  0.1526 -0.1585  0.0229
 3432SOL     ow13725   5.700   3.409   4.251  0.6175 -0.4626  0.3420
 3432SOL     hw13726   5.609   3.398   4.279  0.2790  1.9849  0.5040
 3432SOL     hw13727   5.713   3.504   4.249  2.3655 -0.6278 -2.2923
 3432SOL     vw13728   5.690   3.420   4.254  0.8035 -0.1615  0.0157
 3433SOL     ow13729   2.859   2.698   6.575  0.2651  0.1116  0.2697
 3433SOL     hw13730   2.883   2.788   6.592 -0.7876  0.5345 -0.3606
 3433SOL     hw13731   2.857   2.656   6.661  1.9451  0.3528  0.4608
 3433SOL     vw13732   2.862   2.704   6.588  0.3479  0.1992  0.2117
 3434SOL     ow13733   1.061   1.154   6.479  0.3120  0.3691  0.2430
 3434SOL     hw13734   1.088   1.070   6.443  1.5454  0.9135 -0.1555
 3434SOL     hw13735   1.105   1.159   6.564 -3.5185 -1.4450  2.6085
 3434SOL     vw13736   1.071   1.144   6.485 -0.0306  0.2016  0.5026
 3435SOL     ow13737   2.247   4.669   3.431 -0.0268 -1.4132  0.1078
 3435SOL     hw13738   2.172   4.611   3.446 -0.6044 -0.3771  1.4420
 3435SOL     hw13739   2.211   4.742   3.381 -0.4364  0.0469  2.3739
 3435SOL     vw13740   2.232   4.671   3.426 -0.1571 -1.0836  0.5827
 3436SOL     ow13741   3.611   1.096   0.099  0.4734  0.7446  0.1976
 3436SOL     hw13742   3.588   1.029   0.034  1.6248  0.1584  0.3628
 3436SOL     hw13743   3.667   1.158   0.051  2.2547 -0.2800  0.8299
 3436SOL     vw13744   3.616   1.095   0.084  0.8605  0.5322  0.3028
 3437SOL     ow13745   7.582   7.617   5.783  0.7222 -0.0391  0.2523
 3437SOL     hw13746   7.664   7.616   5.833 -0.1181  0.8063  1.7007
 3437SOL     hw13747   7.609   7.642   5.694  1.9584  0.9879  0.8826
 3437SOL     vw13748   7.597   7.620   5.778  0.7744  0.2079  0.5267
 3438SOL     ow13749   1.516   4.726   1.234 -0.2124  0.1780 -0.1478
 3438SOL     hw13750   1.589   4.674   1.268  0.7538  1.3037 -0.4261
 3438SOL     hw13751   1.462   4.663   1.186  3.3060 -0.0325 -4.5258
 3438SOL     vw13752   1.519   4.711   1.232  0.3794  0.2985 -0.7620
 3439SOL     ow13753   2.008   7.276   2.248  0.2986 -1.0196 -0.7523
 3439SOL     hw13754   2.039   7.189   2.224 -1.1355 -1.7155 -0.1679
 3439SOL     hw13755   1.922   7.262   2.288  1.3266  0.3131  2.2654
 3439SOL     vw13756   2.001   7.263   2.250  0.2451 -0.9358 -0.2769
 3440SOL     ow13757   4.597   6.396   6.349 -0.0006  0.1110  0.0559
 3440SOL     hw13758   4.599   6.310   6.308 -2.0012 -0.0725  0.2433
 3440SOL     hw13759   4.635   6.455   6.283  2.6901 -1.0290  0.4466
 3440SOL     vw13760   4.602   6.392   6.335  0.0904 -0.0634  0.1321
 3441SOL     ow13761   6.127   6.276   6.572 -0.2350 -0.4166  0.0645
 3441SOL     hw13762   6.082   6.351   6.535 -1.4275 -1.8939 -1.6509
 3441SOL     hw13763   6.141   6.217   6.497 -0.3188 -2.3688  1.5056
 3441SOL     vw13764   6.123   6.278   6.557 -0.4032 -0.8690  0.0286
 3442SOL     ow13765   1.874   3.226   5.348  0.3886 -0.5415 -0.2572
 3442SOL     hw13766   1.879   3.171   5.270 -3.4308 -0.5195 -0.6881
 3442SOL     hw13767   1.828   3.305   5.320 -0.1632 -0.0779  1.7679
 3442SOL     vw13768   1.869   3.229   5.334 -0.1882 -0.4773 -0.0467
 3443SOL     ow13769   2.222   3.684   6.104 -0.4067  0.2457  0.1753
 3443SOL     hw13770   2.302   3.673   6.053 -0.4517 -2.4454  0.5611
 3443SOL     hw13771   2.151   3.671   6.041 -0.5959  2.3303 -0.1045
 3443SOL     vw13772   2.223   3.681   6.089 -0.4375  0.1657  0.1893
 3444SOL     ow13773   2.746   1.029   5.659  0.0587 -0.1002  0.3879
 3444SOL     hw13774   2.799   1.064   5.588  0.6797 -0.6636  0.5535
 3444SOL     hw13775   2.682   1.097   5.678  2.0838  1.6028  1.6446
 3444SOL     vw13776   2.745   1.042   5.652  0.4078  0.0502  0.5755
 3445SOL     ow13777   5.507   4.587   5.389 -0.2218  0.0089  0.6527
 3445SOL     hw13778   5.565   4.519   5.424 -1.6967 -1.5113  0.2921
 3445SOL     hw13779   5.552   4.669   5.407  2.8281 -1.1402 -1.0472
 3445SOL     vw13780   5.521   4.589   5.396 -0.0141 -0.3433  0.3808
 3446SOL     ow13781   6.021   2.050   5.920 -0.0303 -0.0709  0.6623
 3446SOL     hw13782   5.979   2.068   5.836 -1.7723 -0.6577  1.3501
 3446SOL     hw13783   6.096   1.995   5.898 -0.0900  0.3106 -0.5634
 3446SOL     vw13784   6.025   2.045   5.906 -0.2682 -0.0981  0.5915
 3447SOL     ow13785   4.177   3.041   0.380  0.5194  0.4583 -0.7578
 3447SOL     hw13786   4.104   3.036   0.318 -0.2718  3.6444 -0.2154
 3447SOL     hw13787   4.235   2.969   0.353 -3.6172 -3.6895  0.0778
 3447SOL     vw13788   4.175   3.031   0.368 -0.1309  0.3313 -0.5760
 3448SOL     ow13789   2.851   2.843   6.263 -0.4945  0.1021  0.2796
 3448SOL     hw13790   2.866   2.928   6.305  0.4965 -0.4393  1.0873
 3448SOL     hw13791   2.902   2.847   6.182  0.1954  0.0231  0.6931
 3448SOL     vw13792   2.860   2.854   6.258 -0.2726  0.0203  0.4406
 3449SOL     ow13793   0.323   5.021   6.230 -0.0257  0.3458  0.2853
 3449SOL     hw13794   0.320   4.961   6.305  0.4794 -0.7887 -0.5762
 3449SOL     hw13795   0.375   4.975   6.165  0.7901  1.9382 -0.2355
 3449SOL     vw13796   0.329   5.007   6.232  0.1486  0.4065  0.1030
 3450SOL     ow13797   7.483   5.996   1.911  1.0770  0.5077 -0.0783
 3450SOL     hw13798   7.430   5.974   1.987 -0.6240  2.2137 -0.6840
 3450SOL     hw13799   7.429   5.972   1.836  2.4664 -0.5573 -0.7861
 3450SOL     vw13800   7.469   5.990   1.911  1.0362  0.5922 -0.2515
 3451SOL     ow13801   6.507   6.338   6.947 -0.1707  0.2154  0.0361
 3451SOL     hw13802   6.529   6.253   6.909  1.5887  1.6047 -2.3233
 3451SOL     hw13803   6.414   6.349   6.928  0.0909 -0.2411 -1.6745
 3451SOL     vw13804   6.497   6.328   6.940  0.0958  0.3381 -0.5009
 3452SOL     ow13805   6.528   0.897   1.990 -0.0318  0.2658 -0.8453
 3452SOL     hw13806   6.578   0.946   1.925  0.2029  0.8039 -0.2655
 3452SOL     hw13807   6.595   0.856   2.045 -0.1984  1.5388  0.3498
 3452SOL     vw13808   6.544   0.898   1.989 -0.0229  0.5048 -0.6111
 3453SOL     ow13809   6.066   2.496   5.190 -0.6691  0.0416 -0.1366
 3453SOL     hw13810   6.035   2.406   5.185 -0.5031 -0.0491  0.4624
 3453SOL     hw13811   6.158   2.491   5.165 -0.8039  0.1324 -0.6706
 3453SOL     vw13812   6.074   2.484   5.186 -0.6649  0.0417 -0.1276
 3454SOL     ow13813   1.511   1.324   5.947  0.5552  0.2325 -0.2728
 3454SOL     hw13814   1.479   1.244   5.904  0.6505  1.0315 -1.9354
 3454SOL     hw13815   1.485   1.394   5.887 -1.1643  1.6862  2.0083
 3454SOL     vw13816   1.503   1.323   5.933  0.3409  0.5297 -0.1912
 3455SOL     ow13817   3.011   5.803   1.985  0.0070 -0.0701  0.4697
 3455SOL     hw13818   2.945   5.763   1.928  0.6607 -1.7662  0.8446
 3455SOL     hw13819   2.959   5.852   2.049 -0.7833  0.5820 -0.6244
 3455SOL     vw13820   2.995   5.804   1.986 -0.0110 -0.2079  0.3749
 3456SOL     ow13821   2.501   3.300   2.268  0.3763  0.9550  0.1296
 3456SOL     hw13822   2.475   3.226   2.213  1.1799 -0.5436  1.6587
 3456SOL     hw13823   2.427   3.360   2.264 -0.4994 -0.1366 -0.8192
 3456SOL     vw13824   2.488   3.298   2.260  0.3667  0.6133  0.2061
 3457SOL     ow13825   2.725   5.117   3.576 -0.0116 -0.2581 -0.5450
 3457SOL     hw13826   2.641   5.141   3.537 -0.2598  1.9044  1.1208
 3457SOL     hw13827   2.783   5.102   3.502 -1.1110  1.1420 -1.7480
 3457SOL     vw13828   2.721   5.118   3.561 -0.1894  0.2122 -0.4840
 3458SOL     ow13829   2.930   3.733   6.250  0.1331 -0.2300  0.4450
 3458SOL     hw13830   3.016   3.736   6.209  0.8836 -0.5850  1.9054
 3458SOL     hw13831   2.948   3.710   6.342 -1.3003  2.2084  1.4306
 3458SOL     vw13832   2.944   3.730   6.257  0.0430  0.0448  0.7679
 3459SOL     ow13833   3.840   1.985   5.419  0.0536 -0.2260 -0.6204
 3459SOL     hw13834   3.771   2.012   5.480 -0.7970  0.5887 -1.9036
 3459SOL     hw13835   3.904   2.056   5.422  1.6360 -1.5754  1.5903
 3459SOL     vw13836   3.839   1.998   5.428  0.1502 -0.2965 -0.4981
 3460SOL     ow13837   4.912   4.044   6.329 -0.1931  0.0289  0.1141
 3460SOL     hw13838   4.931   3.958   6.366 -2.2328  0.1950  1.7096
 3460SOL     hw13839   4.908   4.102   6.405 -2.3791  0.8275 -0.5529
 3460SOL     vw13840   4.914   4.040   6.344 -0.7505  0.1559  0.2367
 3461SOL     ow13841   1.998   1.602   7.105  0.2988  0.2470 -0.2634
 3461SOL     hw13842   2.019   1.570   7.017  0.2563 -2.0854  0.5008
 3461SOL     hw13843   2.077   1.646   7.134  0.5648  0.4171 -1.2087
 3461SOL     vw13844   2.011   1.603   7.097  0.3283 -0.0383 -0.2873
 3462SOL     ow13845   2.711   3.542   6.205 -0.1620 -0.0882 -0.1374
 3462SOL     hw13846   2.772   3.481   6.247  0.9138  0.4677 -0.8408
 3462SOL     hw13847   2.634   3.488   6.185 -0.2668 -0.6007  1.5395
 3462SOL     vw13848   2.709   3.527   6.208 -0.0339 -0.0825 -0.0091
 3463SOL     ow13849   6.501   1.297   5.655  0.0244  0.4122 -0.1675
 3463SOL     hw13850   6.459   1.222   5.613  2.6792 -1.3431  0.0985
 3463SOL     hw13851   6.444   1.317   5.730 -1.0708 -0.9121 -0.5901
 3463SOL     vw13852   6.488   1.290   5.659  0.2303  0.0059 -0.1884
 3464SOL     ow13853   0.237   7.416   4.107  0.3157  0.3282  0.6892
 3464SOL     hw13854   0.291   7.348   4.147  0.7025  0.2123 -0.0199
 3464SOL     hw13855   0.274   7.428   4.020 -2.7176 -2.1058 -1.1817
 3464SOL     vw13856   0.249   7.408   4.101 -0.0335 -0.0081  0.3486
 3465SOL     ow13857   5.078   7.576   2.077 -0.3690  0.5182  0.3158
 3465SOL     hw13858   5.036   7.520   2.012  2.3366 -1.1839 -0.1612
 3465SOL     hw13859   5.041   7.663   2.062 -1.0844 -0.1458 -2.3892
 3465SOL     vw13860   5.068   7.580   2.066 -0.1063  0.2062 -0.1041
 3466SOL     ow13861   3.899   3.757   0.720 -0.2752  0.1429 -0.6095
 3466SOL     hw13862   3.821   3.742   0.774  0.1445 -0.7646 -0.2489
 3466SOL     hw13863   3.908   3.678   0.668  0.6708  0.0561 -0.3237
 3466SOL     vw13864   3.890   3.745   0.720 -0.0951  0.0118 -0.5242
 3467SOL     ow13865   0.268   4.585   1.111 -0.2959  0.5266 -0.8922
 3467SOL     hw13866   0.230   4.522   1.172 -1.0064  1.9768  0.2178
 3467SOL     hw13867   0.348   4.543   1.080  0.2148 -0.1781  1.2120
 3467SOL     vw13868   0.273   4.571   1.115 -0.3223  0.6249 -0.4682
 3468SOL     ow13869   7.484   0.357   1.194 -0.1696 -0.1014  0.5441
 3468SOL     hw13870   7.425   0.292   1.232  0.1105  0.2580  1.6304
 3468SOL     hw13871   7.466   0.353   1.100 -2.0694  0.1301  0.8486
 3468SOL     vw13872   7.473   0.348   1.187 -0.3829 -0.0234  0.7276
 3469SOL     ow13873   0.769   1.001   6.032  0.0959 -0.5523  0.7523
 3469SOL     hw13874   0.723   0.924   6.000  0.2607 -0.9916  1.5438
 3469SOL     hw13875   0.774   1.059   5.956 -1.7786 -0.4692  0.6355
 3469SOL     vw13876   0.764   0.999   6.018 -0.1297 -0.5993  0.8414
 3470SOL     ow13877   7.230   1.967   3.127  0.0850 -0.4939  0.1926
 3470SOL     hw13878   7.324   1.983   3.119 -0.0373  0.3401  0.3159
 3470SOL     hw13879   7.212   1.969   3.221 -0.0518 -0.6422  0.1699
 3470SOL     vw13880   7.240   1.970   3.138  0.0508 -0.4034  0.2058
 3471SOL     ow13881   7.449   5.469   1.767  0.6167 -1.0915 -0.0919
 3471SOL     hw13882   7.400   5.522   1.830 -0.6201 -2.5871  0.2714
 3471SOL     hw13883   7.419   5.379   1.783 -1.9502 -1.3381 -4.5922
 3471SOL     vw13884   7.439   5.464   1.778  0.1149 -1.3216 -0.6377
 3472SOL     ow13885   3.971   4.785   5.978  0.6875 -0.2575 -0.1291
 3472SOL     hw13886   3.961   4.842   5.902 -0.4345  1.4053  1.2053
 3472SOL     hw13887   3.882   4.771   6.010  1.0902 -1.4054  0.5540
 3472SOL     vw13888   3.958   4.791   5.972  0.5925 -0.1895  0.1371
 3473SOL     ow13889   2.633   2.299   5.330  0.0101 -0.2085  0.9344
 3473SOL     hw13890   2.596   2.328   5.414 -0.6434  2.5839 -0.2090
 3473SOL     hw13891   2.564   2.315   5.266  1.8062  1.6782 -0.6980
 3473SOL     vw13892   2.619   2.305   5.333  0.1609  0.4088  0.5682
 3474SOL     ow13893   1.076   5.636   0.993  0.7129 -0.3435 -0.4238
 3474SOL     hw13894   0.982   5.642   0.975  0.5073 -1.5110  0.1719
 3474SOL     hw13895   1.081   5.596   1.080  1.7678 -0.8386 -0.7047
 3474SOL     vw13896   1.064   5.631   1.002  0.8249 -0.5629 -0.3822
 3475SOL     ow13897   4.623   2.963   6.299  0.1494 -0.1705  0.3849
 3475SOL     hw13898   4.710   2.930   6.320  1.4665  2.1885 -0.9460
 3475SOL     hw13899   4.586   2.896   6.241  0.9580 -1.3065  1.1329
 3475SOL     vw13900   4.630   2.950   6.294  0.4299 -0.0092  0.3080
 3476SOL     ow13901   0.488   6.079   5.279  0.0542  0.2509 -0.6002
 3476SOL     hw13902   0.459   6.162   5.241 -1.5780  0.5513  1.1095
 3476SOL     hw13903   0.554   6.105   5.344  0.3697  0.0985 -0.8619
 3476SOL     vw13904   0.493   6.094   5.283 -0.1196  0.2704 -0.4089
 3477SOL     ow13905   1.014   5.918   7.363  0.1850  0.5643  0.0738
 3477SOL     hw13906   1.004   5.997   7.417 -0.3244 -0.8775  2.2071
 3477SOL     hw13907   0.950   5.857   7.399  0.2222 -0.6809 -1.8651
 3477SOL     vw13908   1.004   5.921   7.375  0.1227  0.2098  0.0994
 3478SOL     ow13909   3.315   2.975   5.500  0.1351 -0.1341 -0.7162
 3478SOL     hw13910   3.276   2.895   5.534 -1.2491  0.2876 -1.2479
 3478SOL     hw13911   3.378   2.946   5.434 -2.1187 -0.7526 -2.7053
 3478SOL     vw13912   3.319   2.961   5.496 -0.3450 -0.1601 -1.0488
 3479SOL     ow13913   5.584   4.443   4.732  0.0236 -0.1593  0.0713
 3479SOL     hw13914   5.553   4.485   4.813 -3.1137 -0.9392 -0.5921
 3479SOL     hw13915   5.583   4.513   4.667 -0.0564 -0.1237  0.1110
 3479SOL     vw13916   5.580   4.457   4.734 -0.4008 -0.2575 -0.0110
 3480SOL     ow13917   4.705   2.766   5.179  0.0872  0.0234  0.4923
 3480SOL     hw13918   4.717   2.726   5.265  0.6707 -3.1678 -0.9136
 3480SOL     hw13919   4.775   2.831   5.173 -1.2074  1.7978  3.1174
 3480SOL     vw13920   4.716   2.769   5.189 -0.0064 -0.1634  0.6535
 3481SOL     ow13921   3.715   7.262   7.061  0.1127  0.3066 -0.7091
 3481SOL     hw13922   3.804   7.231   7.079 -0.6236 -0.9845  0.8899
 3481SOL     hw13923   3.661   7.183   7.061 -0.8541  0.8777 -3.2170
 3481SOL     vw13924   3.720   7.248   7.063 -0.1119  0.2117 -0.8290
 3482SOL     ow13925   7.606   6.184   2.095  0.0645  0.3263 -0.5948
 3482SOL     hw13926   7.582   6.107   2.043 -0.0003  0.1767 -0.3446
 3482SOL     hw13927   7.555   6.255   2.057 -0.3509  0.1219 -0.4272
 3482SOL     vw13928   7.596   6.183   2.083  0.0012  0.2799 -0.5397
 3483SOL     ow13929   1.436   2.357   5.310  0.4784 -0.0415  0.9161
 3483SOL     hw13930   1.362   2.312   5.269  1.3414 -1.6034  1.0166
 3483SOL     hw13931   1.489   2.389   5.237  1.8254 -2.5074  0.7188
 3483SOL     vw13932   1.433   2.355   5.295  0.7700 -0.5729  0.9031
 3484SOL     ow13933   3.702   1.727   4.732 -1.2821 -0.2805 -0.0498
 3484SOL     hw13934   3.767   1.784   4.772 -1.7727 -0.0830  0.4738
 3484SOL     hw13935   3.635   1.716   4.799 -0.9096 -1.9752  0.1079
 3484SOL     vw13936   3.702   1.733   4.746 -1.2977 -0.4780  0.0403
 3485SOL     ow13937   3.679   3.086   7.237  0.3069 -0.1474  0.4205
 3485SOL     hw13938   3.733   3.056   7.310  1.4698  0.8500 -0.0190
 3485SOL     hw13939   3.708   3.175   7.219 -1.1471  0.2523 -0.1577
 3485SOL     vw13940   3.690   3.094   7.244  0.2683  0.0371  0.2863
 3486SOL     ow13941   2.062   4.384   5.676 -0.2569  0.5253  0.5038
 3486SOL     hw13942   2.014   4.418   5.752  1.3583  0.2427  1.7147
 3486SOL     hw13943   2.119   4.316   5.712  2.7470  2.3794 -0.3809
 3486SOL     vw13944   2.063   4.380   5.691  0.3525  0.7327  0.5469
 3487SOL     ow13945   6.779   4.438   2.896 -0.0229  0.5691 -0.1433
 3487SOL     hw13946   6.752   4.512   2.950  0.6467  1.6623 -1.2461
 3487SOL     hw13947   6.714   4.435   2.825  0.7256  1.0090 -0.8711
 3487SOL     vw13948   6.767   4.448   2.894  0.1645  0.7713 -0.3849
 3488SOL     ow13949   5.068   4.662   1.188 -0.4396 -0.3433  0.8488
 3488SOL     hw13950   5.046   4.726   1.120 -1.5040 -0.6794  0.8638
 3488SOL     hw13951   5.157   4.685   1.214  0.7871 -1.4170 -2.0280
 3488SOL     vw13952   5.077   4.673   1.183 -0.4184 -0.5293  0.4712
 3489SOL     ow13953   2.729   7.197   5.188  0.0024  0.5925  0.2023
 3489SOL     hw13954   2.704   7.229   5.275 -2.0723 -2.2687  0.8207
 3489SOL     hw13955   2.824   7.208   5.186  0.1150  0.9169  2.7900
 3489SOL     vw13956   2.738   7.202   5.199 -0.2567  0.2580  0.6254
 3490SOL     ow13957   1.348   2.384   1.820  0.0642 -0.2539 -0.2647
 3490SOL     hw13958   1.442   2.392   1.833 -0.2989  0.3276  3.1878
 3490SOL     hw13959   1.312   2.468   1.849 -1.6995 -2.0292  3.4029
 3490SOL     vw13960   1.356   2.396   1.826 -0.2164 -0.4113  0.6747
 3491SOL     ow13961   6.256   0.750   0.949 -0.0204  0.0841 -0.2687
 3491SOL     hw13962   6.224   0.682   1.008  0.1173  0.1714 -0.0924
 3491SOL     hw13963   6.305   0.703   0.881 -1.4348 -0.1517 -1.1606
 3491SOL     vw13964   6.259   0.735   0.948 -0.1888  0.0645 -0.3631
 3492SOL     ow13965   1.262   5.399   2.179 -0.8695 -0.1178 -0.6561
 3492SOL     hw13966   1.351   5.412   2.145 -0.5546 -1.4845 -0.4163
 3492SOL     hw13967   1.246   5.475   2.234 -0.3313  0.7714 -1.6904
 3492SOL     vw13968   1.272   5.411   2.181 -0.7570 -0.1810 -0.7609
 3493SOL     ow13969   0.058   6.243   2.486 -0.2652  0.1015 -0.1217
 3493SOL     hw13970   0.026   6.298   2.558 -1.8255 -0.5753 -0.2522
 3493SOL     hw13971  -0.021   6.213   2.442  0.6168  1.8389 -3.2024
 3493SOL     vw13972   0.043   6.246   2.489 -0.3547  0.2413 -0.5454
 3494SOL     ow13973   0.092   3.596   4.269  0.5676  0.4892 -0.3620
 3494SOL     hw13974   0.080   3.532   4.199  1.8005 -0.5734  0.3615
 3494SOL     hw13975   0.003   3.621   4.293  0.0602 -0.7773 -0.8318
 3494SOL     vw13976   0.078   3.591   4.263  0.6633  0.1818 -0.3285
 3495SOL     ow13977   4.642   3.337   5.032  0.2325 -0.0957 -0.3563
 3495SOL     hw13978   4.673   3.379   5.112 -1.5211  1.8312 -0.6034
 3495SOL     hw13979   4.640   3.408   4.967 -2.4971 -0.5623 -0.9036
 3495SOL     vw13980   4.646   3.352   5.034 -0.3591  0.0970 -0.4613
 3496SOL     ow13981   1.773   6.627   2.686  0.1420  0.7260 -0.1210
 3496SOL     hw13982   1.781   6.559   2.752  1.4778  1.2406  0.2888
 3496SOL     hw13983   1.693   6.674   2.709 -0.4926 -0.3324 -0.0841
 3496SOL     vw13984   1.764   6.624   2.698  0.2345  0.6545 -0.0620
 3497SOL     ow13985   3.112   5.049   5.178  0.1743 -0.1724 -0.7470
 3497SOL     hw13986   3.200   5.084   5.164  0.9525 -0.9017  1.8176
 3497SOL     hw13987   3.101   5.047   5.273 -2.1513 -1.2681 -0.9576
 3497SOL     vw13988   3.122   5.054   5.189 -0.0298 -0.4134 -0.4365
 3498SOL     ow13989   2.090   2.740   0.610 -0.0500 -0.0111 -0.2886
 3498SOL     hw13990   2.167   2.756   0.555 -0.4198 -1.1448 -1.1666
 3498SOL     hw13991   2.031   2.813   0.590  0.0496 -0.1129 -0.9793
 3498SOL     vw13992   2.092   2.752   0.600 -0.0857 -0.1742 -0.4956
 3499SOL     ow13993   6.550   2.241   6.664 -0.5566 -0.0194 -0.3223
 3499SOL     hw13994   6.527   2.172   6.601 -0.0498 -0.2756 -0.2277
 3499SOL     hw13995   6.481   2.237   6.730  0.9255 -2.3768  1.2450
 3499SOL     vw13996   6.538   2.231   6.664 -0.2940 -0.3642 -0.1032
 3500SOL     ow13997   2.105   7.634   7.092 -0.3570  0.0704  0.6242
 3500SOL     hw13998   2.162   7.589   7.154  1.1985 -0.2411 -0.9158
 3500SOL     hw13999   2.118   7.587   7.010 -1.8998  0.7983 -0.0775
 3500SOL     vw14000   2.114   7.622   7.089 -0.3552  0.1253  0.3285
 3501SOL     ow14001   2.610   0.785   0.445  0.6573  0.6008 -0.1285
 3501SOL     hw14002   2.535   0.732   0.471  0.8262 -0.1347 -1.0652
 3501SOL     hw14003   2.684   0.749   0.493  0.3466  1.6656  1.2011
 3501SOL     vw14004   2.610   0.774   0.454  0.6386  0.6442 -0.0767
 3502SOL     ow14005   6.261   3.847   2.370  0.3825 -0.0679  0.1569
 3502SOL     hw14006   6.324   3.919   2.376 -0.4103  0.5490  1.5244
 3502SOL     hw14007   6.189   3.883   2.318  0.4531 -0.2447 -0.0673
 3502SOL     vw14008   6.260   3.861   2.364  0.2871 -0.0100  0.3079
 3503SOL     ow14009   5.735   4.932   1.522 -0.3810  0.1584 -0.1700
 3503SOL     hw14010   5.658   4.895   1.566  0.0351 -1.8675 -1.0300
 3503SOL     hw14011   5.810   4.891   1.566  0.0732 -1.0470 -1.9649
 3503SOL     vw14012   5.735   4.922   1.534 -0.2663 -0.2680 -0.5202
 3504SOL     ow14013   4.127   0.921   6.526 -0.8948  0.0096 -0.7834
 3504SOL     hw14014   4.060   0.962   6.471  0.4126 -0.5449 -2.9092
 3504SOL     hw14015   4.191   0.991   6.542 -1.6948  0.4215  0.8879
 3504SOL     vw14016   4.127   0.936   6.521 -0.8280 -0.0092 -0.8435
 3505SOL     ow14017   7.171   4.316   6.033  0.3065 -0.3919 -0.2899
 3505SOL     hw14018   7.085   4.292   6.069  0.5703 -1.9902 -0.6604
 3505SOL     hw14019   7.151   4.348   5.945 -0.0561  0.8678  0.2270
 3505SOL     vw14020   7.157   4.317   6.026  0.2935 -0.4365 -0.2706
 3506SOL     ow14021   6.466   3.958   0.474  0.0443 -0.6285 -0.0045
 3506SOL     hw14022   6.388   3.907   0.496 -1.8034  2.1121  0.4684
 3506SOL     hw14023   6.437   4.049   0.485  3.0717  0.5279 -0.7998
 3506SOL     vw14024   6.452   3.964   0.478  0.1998 -0.1146 -0.0470
 3507SOL     ow14025   3.176   6.938   5.468 -0.4694  0.0087 -0.4809
 3507SOL     hw14026   3.155   6.995   5.395 -2.0279  1.2057  0.8205
 3507SOL     hw14027   3.230   6.868   5.430 -2.5282 -0.3232 -3.0539
 3507SOL     vw14028   3.180   6.936   5.454 -0.9468  0.1230 -0.6487
 3508SOL     ow14029   0.088   1.143   7.226  0.0154  0.3415 -0.2345
 3508SOL     hw14030  -0.004   1.118   7.238 -0.5413  2.5005  0.3799
 3508SOL     hw14031   0.085   1.219   7.169  1.4944  0.1167 -0.6504
 3508SOL     vw14032   0.075   1.150   7.220  0.1371  0.5966 -0.2081
 3509SOL     ow14033   5.196   6.342   5.569  0.2623 -0.2544  0.2060
 3509SOL     hw14034   5.241   6.306   5.645  0.0950  1.3363  1.0954
 3509SOL     hw14035   5.130   6.401   5.605  0.5763  1.0145 -1.1593
 3509SOL     vw14036   5.193   6.345   5.584  0.2816  0.1233  0.1435
 3510SOL     ow14037   0.164   0.679   1.211 -0.3916  0.1669  0.5847
 3510SOL     hw14038   0.152   0.773   1.197 -0.9260  0.0887  0.4994
 3510SOL     hw14039   0.207   0.648   1.131  1.9203  0.7215  1.5291
 3510SOL     vw14040   0.168   0.687   1.198 -0.1571  0.2297  0.6981
 3511SOL     ow14041   1.809   6.391   4.912 -0.9633 -0.5845  0.3552
 3511SOL     hw14042   1.849   6.384   4.825 -1.5985  2.5948 -0.3512
 3511SOL     hw14043   1.749   6.317   4.918 -0.2919 -1.3328 -1.5840
 3511SOL     vw14044   1.806   6.380   4.901 -0.9585 -0.2639  0.0060
 3512SOL     ow14045   2.949   3.214   2.522  0.4670  0.6070  0.4124
 3512SOL     hw14046   3.021   3.212   2.460  1.8922  2.9508  1.8056
 3512SOL     hw14047   2.977   3.277   2.589 -1.8033 -0.3046  2.3820
 3512SOL     vw14048   2.962   3.222   2.523  0.3555  0.7961  0.8562
 3513SOL     ow14049   2.293   3.238   1.885 -0.0556 -0.0183  0.1993
 3513SOL     hw14050   2.283   3.314   1.829  0.2791 -1.7743 -2.4171
 3513SOL     hw14051   2.368   3.191   1.849  0.7031 -0.8634  2.6683
 3513SOL     vw14052   2.301   3.242   1.873  0.0887 -0.3613  0.1798
 3514SOL     ow14053   3.395   7.551   3.005  0.4157  0.4623  0.1690
 3514SOL     hw14054   3.387   7.601   3.086 -1.3633  3.7626 -1.8414
 3514SOL     hw14055   3.308   7.515   2.990  1.0477 -1.1967  0.2570
 3514SOL     vw14056   3.383   7.553   3.014  0.2644  0.6788 -0.0845
 3515SOL     ow14057   2.731   4.499   5.694 -0.3241  0.4675  0.1989
 3515SOL     hw14058   2.784   4.429   5.656 -0.5059  1.1250 -1.3448
 3515SOL     hw14059   2.734   4.483   5.788 -0.8319 -1.9411 -0.1423
 3515SOL     vw14060   2.739   4.488   5.701 -0.4151  0.2365 -0.0498
 3516SOL     ow14061   5.507   1.606   2.791  0.6608 -0.2752  0.1618
 3516SOL     hw14062   5.523   1.612   2.697  0.7752  0.6266  0.2336
 3516SOL     hw14063   5.420   1.644   2.804  0.5088 -0.6898  0.3814
 3516SOL     vw14064   5.498   1.612   2.781  0.6559 -0.2108  0.2003
 3517SOL     ow14065   5.065   7.120   7.355 -0.1187 -0.2449  0.5537
 3517SOL     hw14066   5.020   7.068   7.422 -1.2998  0.0465  0.0267
 3517SOL     hw14067   4.995   7.171   7.314  0.8734  1.0481  0.4098
 3517SOL     vw14068   5.049   7.120   7.358 -0.1438 -0.0360  0.4652
 3518SOL     ow14069   7.312   4.222   6.240  0.4813 -0.0092  0.0972
 3518SOL     hw14070   7.280   4.275   6.167 -0.6153 -0.9554 -0.1589
 3518SOL     hw14071   7.376   4.277   6.284 -0.2115  1.3074 -0.4688
 3518SOL     vw14072   7.316   4.236   6.236  0.2451  0.0401 -0.0112
 3519SOL     ow14073   3.180   6.917   0.091 -0.1092  0.7625 -0.3617
 3519SOL     hw14074   3.087   6.932   0.074 -0.6884 -1.6273  0.3543
 3519SOL     hw14075   3.205   6.988   0.149 -1.7868  0.8418  0.3220
 3519SOL     vw14076   3.171   6.928   0.096 -0.4071  0.4578 -0.1771
 3520SOL     ow14077   2.838   3.200   4.227 -0.4411 -0.6146 -0.9687
 3520SOL     hw14078   2.901   3.243   4.169  1.6640  0.2366  1.6892
 3520SOL     hw14079   2.880   3.117   4.250 -0.4736 -0.2675  0.4451
 3520SOL     vw14080   2.852   3.195   4.222 -0.1676 -0.4565 -0.4313
 3521SOL     ow14081   1.817   6.182   2.160 -0.8447  0.3294  0.2720
 3521SOL     hw14082   1.834   6.097   2.202 -0.5909  0.9317  1.4215
 3521SOL     hw14083   1.786   6.159   2.072  1.9641 -0.9396 -0.5321
 3521SOL     vw14084   1.816   6.168   2.154 -0.4407  0.2418  0.3175
 3522SOL     ow14085   7.409   0.872   2.204 -0.7582  0.0228  0.2759
 3522SOL     hw14086   7.502   0.896   2.202 -0.1418 -1.8614  2.2689
 3522SOL     hw14087   7.402   0.802   2.138 -0.4169 -0.7410  1.0201
 3522SOL     vw14088   7.421   0.866   2.195 -0.6320 -0.3265  0.6371
 3523SOL     ow14089   4.170   0.637   3.552 -0.3187  0.3067  0.3792
 3523SOL     hw14090   4.138   0.589   3.476  1.2224 -0.7341  0.3338
 3523SOL     hw14091   4.091   0.669   3.596 -1.2733 -0.1207 -0.9825
 3523SOL     vw14092   4.155   0.635   3.548 -0.2413  0.1130  0.1936
 3524SOL     ow14093   2.888   0.822   2.715  0.0136  0.1612  0.3179
 3524SOL     hw14094   2.795   0.846   2.713  0.1373  0.9381  1.8821
 3524SOL     hw14095   2.894   0.754   2.781  0.4246 -0.6273 -0.5171
 3524SOL     vw14096   2.876   0.816   2.723  0.0842  0.1597  0.4141
 3525SOL     ow14097   3.680   3.530   1.580 -0.1360  0.1142 -0.3816
 3525SOL     hw14098   3.773   3.544   1.597 -0.5164  1.8969  0.5027
 3525SOL     hw14099   3.646   3.494   1.663 -0.4900  0.9728 -0.1350
 3525SOL     vw14100   3.687   3.527   1.593 -0.2328  0.4627 -0.2324
 3526SOL     ow14101   0.176   6.348   6.840 -0.4540  0.3044 -0.0008
 3526SOL     hw14102   0.182   6.431   6.887 -0.0215  0.1574  0.2168
 3526SOL     hw14103   0.168   6.373   6.748  2.2531  0.6272 -0.2465
 3526SOL     vw14104   0.176   6.362   6.834 -0.0398  0.3276 -0.0045
 3527SOL     ow14105   3.014   5.536   6.221 -0.7800 -0.9279  0.0100
 3527SOL     hw14106   2.936   5.515   6.273 -1.1678 -0.0382 -0.1935
 3527SOL     hw14107   3.086   5.534   6.283 -1.3116  0.6766  0.7305
 3527SOL     vw14108   3.013   5.533   6.236 -0.9013 -0.5987  0.0780
 3528SOL     ow14109   4.454   6.587   5.625 -0.6120 -0.3806 -0.0731
 3528SOL     hw14110   4.511   6.537   5.567 -2.3813  0.2835 -2.5682
 3528SOL     hw14111   4.477   6.678   5.610 -0.6449 -0.2154  0.8132
 3528SOL     vw14112   4.464   6.592   5.615 -0.8495 -0.2711 -0.2854
 3529SOL     ow14113   0.004   2.051   7.426 -0.0988  0.0846  0.0610
 3529SOL     hw14114  -0.014   1.966   7.386 -1.8425  0.7337 -0.6256
 3529SOL     hw14115  -0.082   2.089   7.443  0.5676  2.4547 -1.3119
 3529SOL     vw14116  -0.010   2.045   7.423 -0.2409  0.4830 -0.2105
 3530SOL     ow14117   1.960   4.612   6.864 -0.3991  0.8351 -0.6485
 3530SOL     hw14118   2.002   4.692   6.835 -0.0171  0.6139 -0.7058
 3530SOL     hw14119   1.869   4.621   6.836 -0.2957  1.1313 -0.8868
 3530SOL     vw14120   1.953   4.624   6.856 -0.3350  0.8450 -0.6876
 3531SOL     ow14121   1.131   4.937   5.999  0.0428 -0.1440  0.6268
 3531SOL     hw14122   1.048   4.983   6.010  0.2864  0.3100  0.5939
 3531SOL     hw14123   1.108   4.854   5.957 -0.3350  0.1937  0.1668
 3531SOL     vw14124   1.117   4.932   5.995  0.0252 -0.0398  0.5620
 3532SOL     ow14125   7.492   6.169   2.342  0.0981 -0.5763 -0.0803
 3532SOL     hw14126   7.447   6.085   2.353  0.6577 -0.8183  0.4525
 3532SOL     hw14127   7.504   6.178   2.247 -1.6110 -0.2008 -0.2812
 3532SOL     vw14128   7.488   6.159   2.331 -0.0536 -0.5589 -0.0364
 3533SOL     ow14129   6.718   3.841   0.294  0.6390  0.0629 -1.0369
 3533SOL     hw14130   6.795   3.869   0.244  0.6559 -2.2194 -2.4458
 3533SOL     hw14131   6.685   3.765   0.246 -0.7035 -0.8843  1.2362
 3533SOL     vw14132   6.724   3.835   0.281  0.4642 -0.3632 -0.9228
 3534SOL     ow14133   4.191   6.554   6.692 -0.5690  0.4299  0.8430
 3534SOL     hw14134   4.240   6.636   6.696  0.5677 -0.0122 -1.6545
 3534SOL     hw14135   4.111   6.576   6.645 -0.7166  0.3122  1.0402
 3534SOL     vw14136   4.187   6.568   6.686 -0.4387  0.3562  0.5395
 3535SOL     ow14137   0.076   0.335   5.004 -0.2711  0.7783  0.1288
 3535SOL     hw14138   0.052   0.387   4.927 -3.0449 -1.0912 -0.4117
 3535SOL     hw14139   0.049   0.388   5.079  2.3990  2.5895 -0.0898
 3535SOL     vw14140   0.069   0.349   5.004 -0.2848  0.7706  0.0288
 3536SOL     ow14141   0.447   5.396   6.592 -0.4761  0.0029  0.8012
 3536SOL     hw14142   0.387   5.408   6.666  0.6605  0.5324  1.6779
 3536SOL     hw14143   0.459   5.484   6.556  1.6773  0.3785  2.2244
 3536SOL     vw14144   0.441   5.409   6.597 -0.0420  0.1223  1.1046
 3537SOL     ow14145   3.841   6.543   6.808 -0.6133  0.5318  0.4011
 3537SOL     hw14146   3.905   6.589   6.862  0.0074 -2.1908  2.2090
 3537SOL     hw14147   3.862   6.570   6.718  1.5298  1.5184  1.1155
 3537SOL     vw14148   3.852   6.553   6.803 -0.2487  0.3030  0.7336
 3538SOL     ow14149   3.021   1.661   6.036  0.2710 -0.0636 -0.2712
 3538SOL     hw14150   3.106   1.700   6.059  1.9009 -3.3869 -0.1404
 3538SOL     hw14151   3.038   1.613   5.955 -1.9537  0.3831 -1.0910
 3538SOL     vw14152   3.034   1.660   6.028  0.1925 -0.4432 -0.3622
 3539SOL     ow14153   4.014   7.503   4.933 -0.2782 -0.6108  0.5062
 3539SOL     hw14154   4.039   7.521   4.842  1.9749 -0.8974  0.9955
 3539SOL     hw14155   3.919   7.498   4.932 -0.2699 -1.3584 -1.9669
 3539SOL     vw14156   4.005   7.505   4.921  0.0203 -0.7474  0.2444
 3540SOL     ow14157   5.235   3.308   1.700 -0.0940 -0.7920  1.0397
 3540SOL     hw14158   5.231   3.341   1.790  1.1495 -1.9020  1.5493
 3540SOL     hw14159   5.311   3.352   1.662 -1.7103  1.1471 -0.1662
 3540SOL     vw14160   5.245   3.318   1.707 -0.1433 -0.6827  0.9479
 3541SOL     ow14161   5.299   1.456   2.305  0.1214 -0.2579 -0.7785
 3541SOL     hw14162   5.337   1.397   2.240 -1.6690 -0.6162 -1.5874
 3541SOL     hw14163   5.205   1.456   2.284 -0.8898 -1.8806  2.9684
 3541SOL     vw14164   5.291   1.448   2.294 -0.2482 -0.5193 -0.3908
 3542SOL     ow14165   1.533   5.751   4.863 -0.5537  0.0753  0.3497
 3542SOL     hw14166   1.581   5.744   4.780 -2.3504 -0.2080 -0.7244
 3542SOL     hw14167   1.577   5.689   4.921  1.0153  0.5995 -0.2396
 3542SOL     vw14168   1.545   5.742   4.860 -0.5838  0.1070  0.1302
 3543SOL     ow14169   4.636   0.266   1.598 -0.2755  0.9611 -0.0612
 3543SOL     hw14170   4.609   0.302   1.514 -1.0248  4.2064  1.4486
 3543SOL     hw14171   4.555   0.257   1.648  0.4523  2.4779  1.4830
 3543SOL     vw14172   4.622   0.269   1.594 -0.2785  1.5894  0.3417
 3544SOL     ow14173   1.081   1.056   0.545 -0.5922  0.4607 -0.2993
 3544SOL     hw14174   1.055   1.044   0.636  0.0044  2.8253  0.2453
 3544SOL     hw14175   1.088   1.151   0.534  1.1431  0.1742 -2.2903
 3544SOL     vw14176   1.079   1.067   0.555 -0.2845  0.7349 -0.4901
 3545SOL     ow14177   4.097   6.781   2.723 -0.4454 -0.1994  0.2475
 3545SOL     hw14178   4.160   6.765   2.794 -0.0498 -0.0413 -0.0588
 3545SOL     hw14179   4.018   6.812   2.767 -0.6229 -1.2497  0.7181
 3545SOL     vw14180   4.095   6.783   2.738 -0.4168 -0.3173  0.2692
 3546SOL     ow14181   6.588   3.224   0.511 -0.6377 -0.1066  0.2091
 3546SOL     hw14182   6.585   3.288   0.582 -1.1996  0.4969 -0.3476
 3546SOL     hw14183   6.496   3.202   0.494 -0.5274  0.0079 -0.5529
 3546SOL     vw14184   6.576   3.229   0.518 -0.6974 -0.0118  0.0351
 3547SOL     ow14185   3.465   1.682   4.088 -0.0621 -1.1065  0.6214
 3547SOL     hw14186   3.429   1.655   4.004 -3.3875 -0.9305  1.8590
 3547SOL     hw14187   3.470   1.778   4.082  1.4293 -1.1860  0.0653
 3547SOL     vw14188   3.461   1.691   4.076 -0.3040 -1.0938  0.7112
 3548SOL     ow14189   3.440   0.927   2.247  0.2422 -0.4597 -0.3869
 3548SOL     hw14190   3.441   1.017   2.279  0.5857 -0.6264  0.0732
 3548SOL     hw14191   3.394   0.878   2.315  0.0450 -0.6327 -0.6426
 3548SOL     vw14192   3.434   0.932   2.260  0.2614 -0.5045 -0.3598
 3549SOL     ow14193   2.077   3.020   5.853 -0.0695  0.3038 -0.1315
 3549SOL     hw14194   2.003   3.041   5.910 -0.7723 -0.2410 -0.8217
 3549SOL     hw14195   2.111   2.937   5.888  0.1159  0.4712  0.0870
 3549SOL     vw14196   2.072   3.012   5.865 -0.1376  0.2540 -0.1938
 3550SOL     ow14197   5.195   5.056   1.157  0.7144 -0.3259 -0.0748
 3550SOL     hw14198   5.181   5.141   1.115  1.3303 -1.3635 -2.5636
 3550SOL     hw14199   5.130   4.999   1.116  2.0073 -1.6330 -0.3662
 3550SOL     vw14200   5.184   5.060   1.146  0.9663 -0.6354 -0.4416
 3551SOL     ow14201   2.520   4.665   2.917  0.1194  0.4672 -0.6986
 3551SOL     hw14202   2.566   4.617   2.985  1.1337  1.2469 -0.8211
 3551SOL     hw14203   2.444   4.610   2.897 -1.7442  1.4084  2.8874
 3551SOL     vw14204   2.516   4.651   2.923  0.0074  0.6940 -0.2416
 3552SOL     ow14205   1.441   5.969   1.176  0.6947  0.3913 -0.0779
 3552SOL     hw14206   1.369   5.977   1.238  1.3252  1.2403  0.5758
 3552SOL     hw14207   1.505   6.034   1.205  0.7879  1.2089 -1.9214
 3552SOL     vw14208   1.440   5.979   1.188  0.7902  0.6111 -0.2348
 3553SOL     ow14209   6.218   2.975   1.803  0.0612  0.8314 -0.0092
 3553SOL     hw14210   6.256   3.063   1.796 -1.2656  1.4067 -0.2216
 3553SOL     hw14211   6.136   2.988   1.850  0.3814 -0.4679  0.9539
 3553SOL     vw14212   6.212   2.988   1.808 -0.0718  0.7360  0.0898
 3554SOL     ow14213   5.936   5.521   0.136 -0.3384 -0.1867 -0.2123
 3554SOL     hw14214   5.922   5.563   0.051 -3.3176 -2.3179 -0.9442
 3554SOL     hw14215   5.965   5.433   0.114  1.2740 -0.0278  1.1314
 3554SOL     vw14216   5.938   5.515   0.122 -0.5186 -0.4468 -0.1316
 3555SOL     ow14217   1.485   5.481   4.295  0.1713 -0.0784  0.1370
 3555SOL     hw14218   1.475   5.533   4.215  5.5561  0.1932 -0.7701
 3555SOL     hw14219   1.475   5.545   4.366 -2.0718  0.1972 -0.3515
 3555SOL     vw14220   1.482   5.497   4.294  0.5858 -0.0062 -0.0470
 3556SOL     ow14221   0.793   3.642   5.856  0.5447  0.4223  0.7419
 3556SOL     hw14222   0.790   3.621   5.763  2.4071  0.6383  0.6036
 3556SOL     hw14223   0.885   3.661   5.874 -0.0550  2.2555  2.2260
 3556SOL     vw14224   0.804   3.642   5.846  0.7113  0.6926  0.9193
 3557SOL     ow14225   5.107   3.860   1.488 -0.1698 -0.0670 -0.0497
 3557SOL     hw14226   5.047   3.808   1.434 -1.7543  0.9922  0.6111
 3557SOL     hw14227   5.083   3.837   1.578  2.4245 -1.8130  0.3022
 3557SOL     vw14228   5.096   3.850   1.493 -0.0365 -0.1576  0.0839
 3558SOL     ow14229   2.933   4.897   5.459  0.4432  0.1449 -0.2349
 3558SOL     hw14230   2.848   4.942   5.460 -0.3893 -1.3676 -0.9816
 3558SOL     hw14231   2.926   4.832   5.529 -0.0012 -1.6955 -1.9262
 3558SOL     vw14232   2.921   4.895   5.468  0.2747 -0.2975 -0.5565
 3559SOL     ow14233   3.107   5.909   4.537  0.0191 -0.2441  0.1828
 3559SOL     hw14234   3.110   6.004   4.531  1.3079 -0.3667 -2.0371
 3559SOL     hw14235   3.194   5.880   4.512 -0.5087 -2.0486  0.2566
 3559SOL     vw14236   3.119   5.917   4.533  0.1194 -0.4983 -0.1004
 3560SOL     ow14237   6.301   2.806   1.576  0.0822 -0.4501  0.3330
 3560SOL     hw14238   6.226   2.853   1.540 -0.9001 -1.4968  0.9640
 3560SOL     hw14239   6.376   2.842   1.530 -0.7367  1.0630  0.1322
 3560SOL     vw14240   6.301   2.817   1.565 -0.1554 -0.3885  0.3898
 3561SOL     ow14241   3.198   4.080   1.479 -0.1556  0.1347  0.1944
 3561SOL     hw14242   3.248   4.036   1.547 -0.4326  0.1135  0.3883
 3561SOL     hw14243   3.262   4.100   1.410 -0.1951 -1.3974 -0.3203
 3561SOL     vw14244   3.213   4.077   1.479 -0.1974 -0.0703  0.1521
 3562SOL     ow14245   4.879   2.615   2.367  0.5017 -0.2005 -0.4048
 3562SOL     hw14246   4.871   2.570   2.451 -4.9802 -0.3259 -0.6077
 3562SOL     hw14247   4.881   2.545   2.302  2.6352 -0.0662 -0.5571
 3562SOL     vw14248   4.878   2.600   2.369  0.0598 -0.1992 -0.4517
 3563SOL     ow14249   0.976   6.582   5.709 -0.2098 -0.1679  0.1764
 3563SOL     hw14250   1.057   6.574   5.758  0.3855 -0.3936 -0.8096
 3563SOL     hw14251   0.957   6.676   5.709  1.1746  0.1495 -1.3058
 3563SOL     vw14252   0.984   6.593   5.715  0.0514 -0.1554 -0.1495
 3564SOL     ow14253   6.867   5.231   1.428 -0.5080 -0.7606  0.0156
 3564SOL     hw14254   6.830   5.318   1.437  0.2179 -0.4451  0.0415
 3564SOL     hw14255   6.955   5.239   1.466 -0.6722 -1.6663  0.6246
 3564SOL     vw14256   6.874   5.243   1.434 -0.4339 -0.8380  0.0994
 3565SOL     ow14257   3.709   6.140   2.676 -0.3331  0.3223  0.1892
 3565SOL     hw14258   3.666   6.078   2.617 -1.2695  0.4531  0.7181
 3565SOL     hw14259   3.657   6.138   2.756  1.0778 -0.0581  1.1437
 3565SOL     vw14260   3.696   6.132   2.679 -0.2704  0.2897  0.3850
 3566SOL     ow14261   1.489   0.135   1.135  0.6812  0.3293 -0.1476
 3566SOL     hw14262   1.509   0.166   1.223  1.2592  3.7262 -1.3433
 3566SOL     hw14263   1.514   0.207   1.078  0.8835 -1.9595 -3.1990
 3566SOL     vw14264   1.495   0.149   1.139  0.7842  0.4755 -0.7080
 3567SOL     ow14265   1.840   2.006   0.945  0.1285 -0.3981 -0.0600
 3567SOL     hw14266   1.773   1.974   1.006  0.0419 -3.0480 -1.4231
 3567SOL     hw14267   1.922   1.970   0.978  0.3185 -0.4286 -0.5580
 3567SOL     vw14268   1.842   1.997   0.957  0.1422 -0.7518 -0.3056
 3568SOL     ow14269   4.224   7.338   4.986 -0.5123 -0.2290 -0.2597
 3568SOL     hw14270   4.285   7.274   5.023 -0.9827  0.3016  1.5429
 3568SOL     hw14271   4.178   7.290   4.917  0.5922 -1.1923 -0.3739
 3568SOL     vw14272   4.226   7.323   4.982 -0.4287 -0.2861 -0.0370
 3569SOL     ow14273   7.623   0.952   6.303 -0.0567 -0.3836  0.1342
 3569SOL     hw14274   7.685   0.935   6.231 -0.9560  0.6168 -0.9031
 3569SOL     hw14275   7.672   1.007   6.364  0.7340 -1.2847  0.3455
 3569SOL     vw14276   7.638   0.957   6.301 -0.0710 -0.3705  0.0250
 3570SOL     ow14277   2.907   2.228   4.537 -0.4890  0.0147 -0.2054
 3570SOL     hw14278   3.002   2.238   4.543 -0.4916 -0.1492  0.2091
 3570SOL     hw14279   2.894   2.173   4.460  0.0412 -3.3485  1.8934
 3570SOL     vw14280   2.918   2.222   4.528 -0.4193 -0.4506  0.1261
 3571SOL     ow14281   7.013   7.484   4.135 -0.5175 -0.4888 -0.0706
 3571SOL     hw14282   6.926   7.466   4.171 -1.0951  1.4083 -0.3775
 3571SOL     hw14283   7.064   7.515   4.210 -0.2619 -1.0881  0.0070
 3571SOL     vw14284   7.008   7.486   4.149 -0.5600 -0.3176 -0.1006
 3572SOL     ow14285   5.829   0.830   0.939  0.1177 -0.1958  0.3148
 3572SOL     hw14286   5.905   0.852   0.885 -0.4479 -0.2013 -0.4992
 3572SOL     hw14287   5.855   0.855   1.028  1.2861 -0.7216  0.1488
 3572SOL     vw14288   5.843   0.836   0.943  0.1972 -0.2658  0.1855
 3573SOL     ow14289   1.645   3.413   2.911  0.1459  0.3048  0.7704
 3573SOL     hw14290   1.586   3.343   2.880  1.3100  0.3384 -1.7312
 3573SOL     hw14291   1.586   3.486   2.932 -0.8478 -0.3554  0.3740
 3573SOL     vw14292   1.629   3.413   2.910  0.1684  0.2221  0.3880
 3574SOL     ow14293   3.315   7.035   7.101 -0.1064 -0.4570 -0.5799
 3574SOL     hw14294   3.293   6.942   7.109  1.5648 -0.7929  0.6778
 3574SOL     hw14295   3.313   7.068   7.191  1.0113  0.2817 -0.7983
 3574SOL     vw14296   3.312   7.027   7.114  0.2615 -0.4036 -0.4430
 3575SOL     ow14297   5.382   3.898   7.301 -0.2982  0.5907 -0.0087
 3575SOL     hw14298   5.463   3.941   7.328  1.2353 -2.3023  0.4792
 3575SOL     hw14299   5.313   3.961   7.320  1.6426  2.3691  1.6117
 3575SOL     vw14300   5.384   3.912   7.307  0.1602  0.4436  0.2697
 3576SOL     ow14301   4.741   2.317   3.300 -0.1000  0.1148  0.3542
 3576SOL     hw14302   4.692   2.386   3.345  0.3641  0.5841  0.1596
 3576SOL     hw14303   4.817   2.363   3.263  0.6763 -0.6437  0.9538
 3576SOL     vw14304   4.745   2.332   3.301  0.0637  0.0767  0.4076
 3577SOL     ow14305   6.203   6.293   6.845 -0.3442 -0.2035 -0.4268
 3577SOL     hw14306   6.190   6.303   6.751 -2.3871 -0.4474 -0.2077
 3577SOL     hw14307   6.224   6.200   6.857 -0.0164 -0.1589 -0.6235
 3577SOL     vw14308   6.204   6.282   6.834 -0.5703 -0.2296 -0.4239
 3578SOL     ow14309   5.224   1.443   5.987  0.2680 -0.1722 -0.3249
 3578SOL     hw14310   5.252   1.535   5.986  1.5792 -0.5155 -2.0450
 3578SOL     hw14311   5.135   1.444   5.952  0.1377  0.4724  0.0205
 3578SOL     vw14312   5.216   1.455   5.982  0.4237 -0.1324 -0.5062
 3579SOL     ow14313   1.806   1.199   0.699  0.4195 -1.0785  0.0327
 3579SOL     hw14314   1.730   1.169   0.649 -0.0197  1.3809 -0.9402
 3579SOL     hw14315   1.793   1.164   0.787 -1.2754 -1.6154 -0.4025
 3579SOL     vw14316   1.794   1.190   0.704  0.1379 -0.8249 -0.1531
 3580SOL     ow14317   5.124   4.314   6.234  0.2583 -0.4266 -0.1837
 3580SOL     hw14318   5.114   4.408   6.248  1.1710 -0.5410  1.4183
 3580SOL     hw14319   5.037   4.285   6.204  0.4520  1.1889 -2.6253
 3580SOL     vw14320   5.111   4.323   6.232  0.4041 -0.2284 -0.2942
 3581SOL     ow14321   6.210   6.672   4.249 -0.0088 -0.4322  0.4920
 3581SOL     hw14322   6.271   6.599   4.238  0.4245 -0.4862  2.7956
 3581SOL     hw14323   6.178   6.664   4.339 -1.5310  1.0529  0.1486
 3581SOL     vw14324   6.214   6.662   4.260 -0.1526 -0.2437  0.7508
 3582SOL     ow14325   1.563   5.193   3.268  1.0091 -0.7113 -0.4106
 3582SOL     hw14326   1.497   5.208   3.201  0.3315 -1.8772 -0.0505
 3582SOL     hw14327   1.645   5.219   3.228  0.3043  1.0929 -0.7484
 3582SOL     vw14328   1.565   5.198   3.254  0.8268 -0.6270 -0.4077
 3583SOL     ow14329   3.814   2.555   3.595  0.0546 -0.0557  1.4757
 3583SOL     hw14330   3.899   2.585   3.565 -0.4760 -2.5963 -3.4729
 3583SOL     hw14331   3.756   2.631   3.585  0.8039  0.3356 -0.1798
 3583SOL     vw14332   3.817   2.569   3.590  0.0833 -0.3393  0.6044
 3584SOL     ow14333   2.803   0.449   5.574 -0.2370 -0.3829 -0.4554
 3584SOL     hw14334   2.766   0.456   5.486 -0.2943 -1.7453 -0.5642
 3584SOL     hw14335   2.804   0.355   5.592 -2.4163 -0.0445  1.9570
 3584SOL     vw14336   2.799   0.437   5.564 -0.5320 -0.5180 -0.1516
 3585SOL     ow14337   7.485   3.955   6.360 -0.4600 -0.0691  0.3949
 3585SOL     hw14338   7.433   3.931   6.437 -0.4893 -1.1467  0.0525
 3585SOL     hw14339   7.568   3.909   6.372 -0.5476 -0.4287 -0.3184
 3585SOL     vw14340   7.489   3.946   6.372 -0.4752 -0.2586  0.2556
 3586SOL     ow14341   6.357   0.111   1.613 -0.2195  0.3616  0.2831
 3586SOL     hw14342   6.263   0.119   1.628 -0.3613 -1.6835  0.7843
 3586SOL     hw14343   6.391   0.071   1.693  0.3564 -2.9660 -1.4650
 3586SOL     vw14344   6.349   0.107   1.625 -0.1621 -0.3473  0.1186
 3587SOL     ow14345   2.861   0.739   0.561  0.6368 -0.1905 -0.4445
 3587SOL     hw14346   2.790   0.691   0.602  0.6284 -0.3542 -0.6481
 3587SOL     hw14347   2.941   0.702   0.598  0.6370 -0.4998 -0.7458
 3587SOL     vw14348   2.862   0.728   0.571  0.6356 -0.2529 -0.5111
 3588SOL     ow14349   5.201   4.536   5.054 -0.1738  0.2433 -1.0020
 3588SOL     hw14350   5.116   4.500   5.029 -0.5481 -0.0392  0.5497
 3588SOL     hw14351   5.195   4.548   5.149  0.3896  3.1999 -1.2227
 3588SOL     vw14352   5.189   4.533   5.063 -0.1490  0.5963 -0.8261
 3589SOL     ow14353   7.113   7.020   0.700 -0.5601  0.3820  0.3333
 3589SOL     hw14354   7.055   6.974   0.639 -1.4616 -1.5106  2.4741
 3589SOL     hw14355   7.149   6.951   0.756  2.7529  1.6625 -0.0139
 3589SOL     vw14356   7.110   7.005   0.699 -0.2420  0.3016  0.5700
 3590SOL     ow14357   5.085   4.298   5.403 -0.5845 -0.4832  0.0398
 3590SOL     hw14358   5.134   4.218   5.384 -3.8802 -2.1098 -2.8238
 3590SOL     hw14359   5.077   4.299   5.499 -0.1377 -3.4390  0.2062
 3590SOL     vw14360   5.091   4.288   5.413 -0.9606 -1.0879 -0.3161
 3591SOL     ow14361   7.630   7.442   4.590 -0.6417 -0.0188 -0.1238
 3591SOL     hw14362   7.644   7.348   4.604  1.5593  0.2817  0.0465
 3591SOL     hw14363   7.592   7.473   4.673 -0.6652 -0.6203  0.0945
 3591SOL     vw14364   7.627   7.434   4.603 -0.3544 -0.0587 -0.0725
 3592SOL     ow14365   0.698   6.893   0.418 -0.7682  0.0369 -0.2396
 3592SOL     hw14366   0.701   6.948   0.341  1.0898  3.0179  1.7618
 3592SOL     hw14367   0.613   6.914   0.459  0.2631  2.2905  0.9483
 3592SOL     vw14368   0.687   6.903   0.413 -0.3870  0.7274  0.1812
 3593SOL     ow14369   1.946   0.531   1.376 -0.3931  0.7033  0.3733
 3593SOL     hw14370   1.901   0.572   1.302  1.1046  1.4508 -0.1699
 3593SOL     hw14371   1.958   0.440   1.350 -1.3080  0.5574  0.4145
 3593SOL     vw14372   1.941   0.525   1.363 -0.3163  0.7826  0.3071
 3594SOL     ow14373   3.053   6.733   2.535 -0.0131  0.3096  0.0147
 3594SOL     hw14374   3.127   6.675   2.553  0.0496  0.7943  1.3778
 3594SOL     hw14375   3.063   6.755   2.442  0.3005 -1.3588 -0.3808
 3594SOL     vw14376   3.065   6.728   2.525  0.0367  0.1535  0.1423
 3595SOL     ow14377   2.175   5.250   0.626  0.7905  0.5495  0.0663
 3595SOL     hw14378   2.174   5.247   0.721 -1.3166 -1.5809  0.0659
 3595SOL     hw14379   2.083   5.245   0.600  1.4005 -1.2552 -2.0789
 3595SOL     vw14380   2.163   5.249   0.635  0.5929  0.0305 -0.2168
 3596SOL     ow14381   1.448   5.065   2.911  0.6022 -0.0777  0.0236
 3596SOL     hw14382   1.354   5.055   2.899  0.3628  3.8344 -4.1270
 3596SOL     hw14383   1.460   5.157   2.933  3.4962 -0.3545 -0.0220
 3596SOL     vw14384   1.437   5.076   2.912  0.9524  0.4020 -0.5300
 3597SOL     ow14385   0.675   1.748   5.977 -0.6261 -0.2348 -0.2619
 3597SOL     hw14386   0.618   1.717   5.907 -0.9884 -4.1754  1.5168
 3597SOL     hw14387   0.700   1.669   6.024  2.2755  1.8740  2.0993
 3597SOL     vw14388   0.671   1.733   5.974 -0.2910 -0.4764  0.2847
 3598SOL     ow14389   5.641   5.112   0.036  0.4186  0.0287 -0.2909
 3598SOL     hw14390   5.581   5.051  -0.006  1.3606  0.6027 -2.6741
 3598SOL     hw14391   5.718   5.059   0.058  0.0823 -0.1991  0.3394
 3598SOL     vw14392   5.643   5.097   0.033  0.4988  0.0746 -0.5222
 3599SOL     ow14393   3.318   5.131   1.151 -0.0378  0.0261  0.5496
 3599SOL     hw14394   3.303   5.090   1.066 -0.8989 -1.2798  1.2826
 3599SOL     hw14395   3.374   5.068   1.198 -0.1562  0.3860  1.1883
 3599SOL     vw14396   3.323   5.117   1.146 -0.1670 -0.0987  0.7306
 3600SOL     ow14397   0.152   1.946   3.681  0.1210  0.2384 -0.3177
 3600SOL     hw14398   0.233   1.898   3.663  0.6004  0.2669  1.4842
 3600SOL     hw14399   0.158   1.966   3.775 -1.4051  1.3257 -0.4291
 3600SOL     vw14400   0.164   1.942   3.691 -0.0171  0.3857 -0.0947
 3601SOL     ow14401   1.379   7.111   5.771  0.4404  0.4695 -0.0111
 3601SOL     hw14402   1.395   7.049   5.699 -0.6581  1.9922 -1.6647
 3601SOL     hw14403   1.393   7.197   5.731 -1.3813  1.4114  1.2603
 3601SOL     vw14404   1.383   7.114   5.756  0.0552  0.7951 -0.0613
 3602SOL     ow14405   0.003   3.505   6.670  0.3824  0.5980 -0.2261
 3602SOL     hw14406  -0.063   3.573   6.659 -0.8660  0.0673  3.0267
 3602SOL     hw14407  -0.015   3.442   6.600 -2.4435  0.5844  0.4201
 3602SOL     vw14408  -0.008   3.506   6.659 -0.1552  0.5263  0.2882
 3603SOL     ow14409   1.003   6.842   5.319  0.6622  0.0169  0.4195
 3603SOL     hw14410   0.969   6.904   5.254 -2.1738 -1.9811 -0.2202
 3603SOL     hw14411   1.080   6.885   5.355 -0.8883  3.7392 -0.2145
 3603SOL     vw14412   1.008   6.856   5.315  0.0834  0.2444  0.2515
 3604SOL     ow14413   1.330   1.879   5.183  0.0297 -0.3416 -0.0797
 3604SOL     hw14414   1.303   1.806   5.127 -0.0715  0.4190 -1.0389
 3604SOL     hw14415   1.259   1.888   5.246  0.5060 -1.7096  0.6930
 3604SOL     vw14416   1.317   1.870   5.184  0.0792 -0.4217 -0.1040
 3605SOL     ow14417   6.332   2.673   1.885  0.6290 -0.4037  0.1766
 3605SOL     hw14418   6.374   2.692   1.969  0.0721  1.5688  0.0552
 3605SOL     hw14419   6.328   2.577   1.882 -0.1772 -0.5583  2.8508
 3605SOL     vw14420   6.337   2.663   1.896  0.4492 -0.1638  0.5134
 3606SOL     ow14421   0.269   3.574   2.040 -0.3340 -0.4434 -0.3439
 3606SOL     hw14422   0.307   3.492   2.008  0.1596 -0.1335 -0.5725
 3606SOL     hw14423   0.218   3.549   2.117 -1.4563 -1.1943 -1.3036
 3606SOL     vw14424   0.267   3.560   2.046 -0.4170 -0.5016 -0.5007
 3607SOL     ow14425   6.259   6.517   1.637  0.1204  0.0881 -0.1932
 3607SOL     hw14426   6.341   6.467   1.637 -0.1852 -0.4278  0.1555
 3607SOL     hw14427   6.285   6.605   1.663  0.6842  0.1432 -0.9020
 3607SOL     vw14428   6.273   6.522   1.641  0.1543  0.0274 -0.2407
 3608SOL     ow14429   5.855   2.049   4.303  0.1635 -0.9689 -0.2711
 3608SOL     hw14430   5.940   2.073   4.269  0.7390  0.3860  1.9170
 3608SOL     hw14431   5.804   2.022   4.226  2.6325 -2.1785 -1.5768
 3608SOL     vw14432   5.859   2.048   4.288  0.5653 -0.9497 -0.1547
 3609SOL     ow14433   5.791   1.241   1.318 -0.2837  1.5767  0.5250
 3609SOL     hw14434   5.717   1.303   1.318  1.4524  3.9239 -2.2526
 3609SOL     hw14435   5.803   1.218   1.226  1.9266  0.6458  0.9863
 3609SOL     vw14436   5.783   1.246   1.306  0.2367  1.7636  0.2194
 3610SOL     ow14437   0.264   0.977   2.070 -0.1091  0.6021 -0.2883
 3610SOL     hw14438   0.172   0.972   2.096  0.4098  0.1940  1.5679
 3610SOL     hw14439   0.266   0.940   1.981 -1.5763 -0.3922  0.0604
 3610SOL     vw14440   0.252   0.971   2.062 -0.2342  0.4171  0.0026
 3611SOL     ow14441   1.601   0.757   4.566 -0.1144  0.4212  0.0803
 3611SOL     hw14442   1.590   0.762   4.661 -0.6522 -0.7120  0.0952
 3611SOL     hw14443   1.641   0.671   4.551 -1.2894  0.0067 -0.8083
 3611SOL     vw14444   1.605   0.746   4.577 -0.3403  0.2170 -0.0350
 3612SOL     ow14445   6.941   6.823   3.008 -0.2134 -0.5834 -0.0237
 3612SOL     hw14446   6.863   6.848   3.057 -1.3046 -2.0245 -0.9424
 3612SOL     hw14447   6.953   6.731   3.029  2.7435  0.1157  2.0247
 3612SOL     vw14448   6.932   6.814   3.017  0.0329 -0.6812  0.1254
 3613SOL     ow14449   3.833   4.630   2.585  0.2096  0.6409  0.0535
 3613SOL     hw14450   3.787   4.606   2.505 -1.5064  1.0579  0.8744
 3613SOL     hw14451   3.890   4.556   2.603  1.6637  1.1093 -2.2565
 3613SOL     vw14452   3.834   4.617   2.577  0.1752  0.7579 -0.1429
 3614SOL     ow14453   2.521   0.464   0.135 -0.0031  0.1386 -0.3563
 3614SOL     hw14454   2.481   0.446   0.219  1.4473 -0.5634  0.2271
 3614SOL     hw14455   2.485   0.549   0.108 -1.0822 -0.0100  0.5823
 3614SOL     vw14456   2.511   0.473   0.142  0.0458  0.0264 -0.1555
 3615SOL     ow14457   1.827   7.346   4.908  0.6511  0.1742  0.3118
 3615SOL     hw14458   1.771   7.356   4.984  0.5570  1.0311  0.1334
 3615SOL     hw14459   1.916   7.339   4.945  0.4374 -1.5319  0.6147
 3615SOL     vw14460   1.832   7.346   4.923  0.6105  0.0618  0.3281
 3616SOL     ow14461   5.202   3.650   7.240 -0.5757 -0.0969  0.7664
 3616SOL     hw14462   5.211   3.645   7.145  3.3605 -0.9727  0.9911
 3616SOL     hw14463   5.169   3.563   7.265  0.8172 -0.7955  0.2951
 3616SOL     vw14464   5.199   3.638   7.231  0.1278 -0.3047  0.7339
 3617SOL     ow14465   5.519   2.372   2.119 -0.1554  0.2929 -0.2442
 3617SOL     hw14466   5.602   2.354   2.164 -0.3750  0.9119  0.4208
 3617SOL     hw14467   5.531   2.335   2.031  1.3295  1.5713 -0.6211
 3617SOL     vw14468   5.531   2.365   2.113  0.0112  0.5431 -0.2062
 3618SOL     ow14469   0.074   1.593   0.715  0.0516  0.1377 -0.5624
 3618SOL     hw14470   0.107   1.504   0.711  2.3057  0.6391  2.7851
 3618SOL     hw14471   0.143   1.647   0.679 -0.5934  0.6688 -1.0334
 3618SOL     vw14472   0.087   1.589   0.710  0.2639  0.2739 -0.1829
 3619SOL     ow14473   5.833   2.391   0.003 -0.5571  0.2210 -0.0586
 3619SOL     hw14474   5.876   2.317  -0.041 -1.8814 -0.5456 -0.1279
 3619SOL     hw14475   5.863   2.384   0.094 -0.9002 -0.5906  0.0005
 3619SOL     vw14476   5.843   2.380   0.009 -0.7772  0.0126 -0.0598
 3620SOL     ow14477   5.906   4.865   6.123  0.5942 -0.6553  0.7889
 3620SOL     hw14478   5.859   4.925   6.180  0.4394 -0.4911  0.4931
 3620SOL     hw14479   5.993   4.905   6.112  0.2453 -0.0735 -0.0221
 3620SOL     vw14480   5.911   4.878   6.129  0.5276 -0.5569  0.6428
 3621SOL     ow14481   1.019   2.396   6.689 -0.5174 -0.3364 -0.3679
 3621SOL     hw14482   1.113   2.410   6.701 -0.4161 -1.8485  0.9466
 3621SOL     hw14483   0.985   2.482   6.666  1.1344  0.3172 -0.5070
 3621SOL     vw14484   1.027   2.409   6.687 -0.2861 -0.4497 -0.2129
 3622SOL     ow14485   0.195   7.322   6.962  0.7236 -0.3600  0.1287
 3622SOL     hw14486   0.153   7.272   6.892  0.1265 -1.0822  0.9674
 3622SOL     hw14487   0.203   7.410   6.927  0.7299 -0.7752 -0.9616
 3622SOL     vw14488   0.190   7.327   6.948  0.6457 -0.5102  0.0956
 3623SOL     ow14489   5.907   5.049   0.123 -0.0607  0.5309 -0.9504
 3623SOL     hw14490   5.980   4.988   0.111 -0.8209 -0.4838 -0.5927
 3623SOL     hw14491   5.865   5.021   0.204 -1.0325  0.8924 -1.3070
 3623SOL     vw14492   5.911   5.037   0.132 -0.2894  0.4447 -0.9502
 3624SOL     ow14493   4.042   2.641   3.491  0.9910 -0.3537  0.1238
 3624SOL     hw14494   4.093   2.722   3.490  0.5726 -0.0598  1.1707
 3624SOL     hw14495   4.105   2.573   3.469  1.0888  0.3617 -2.0852
 3624SOL     vw14496   4.057   2.643   3.488  0.9487 -0.2207 -0.0294
 3625SOL     ow14497   5.402   4.863   3.428  0.5430  0.1716 -1.0983
 3625SOL     hw14498   5.459   4.823   3.493  0.9755 -0.2493 -1.7293
 3625SOL     hw14499   5.313   4.838   3.455  0.7873 -0.9005 -1.2835
 3625SOL     vw14500   5.397   4.855   3.440  0.6323 -0.0253 -1.2060
 3626SOL     ow14501   7.186   5.344   1.379  0.0570  0.4591  0.2649
 3626SOL     hw14502   7.180   5.249   1.366 -0.4568  0.7384 -1.7927
 3626SOL     hw14503   7.128   5.381   1.313 -0.2362  2.2111  1.4455
 3626SOL     vw14504   7.178   5.336   1.369 -0.0494  0.7272  0.1491
 3627SOL     ow14505   5.853   3.927   6.410 -0.1385 -0.4414 -0.0608
 3627SOL     hw14506   5.835   3.885   6.495 -2.0980 -1.2915 -0.8233
 3627SOL     hw14507   5.840   3.857   6.346  3.3325 -0.3745 -1.0350
 3627SOL     vw14508   5.849   3.912   6.413  0.0608 -0.5448 -0.2899
 3628SOL     ow14509   3.131   1.566   4.503 -0.7771  0.1924  0.2522
 3628SOL     hw14510   3.133   1.493   4.566 -2.1769  0.5242  0.7136
 3628SOL     hw14511   3.064   1.625   4.537 -1.0790  0.7240 -1.1995
 3628SOL     vw14512   3.123   1.564   4.516 -1.0017  0.3063  0.1214
 3629SOL     ow14513   7.640   1.883   2.638 -0.0074  0.4619 -0.0454
 3629SOL     hw14514   7.671   1.853   2.553 -0.2381  0.1454 -0.0244
 3629SOL     hw14515   7.707   1.943   2.669  1.7833 -1.8832  1.0019
 3629SOL     vw14516   7.653   1.887   2.631  0.1984  0.1107  0.0957
 3630SOL     ow14517   3.076   0.635   4.864 -0.0083 -1.1076 -0.5403
 3630SOL     hw14518   3.027   0.666   4.940  0.1945  0.2641 -0.9518
 3630SOL     hw14519   3.037   0.679   4.789 -0.1272 -2.3527 -1.2458
 3630SOL     vw14520   3.065   0.645   4.864  0.0029 -1.0909 -0.6874
 3631SOL     ow14521   4.101   6.279   0.614  0.2752  0.3571 -0.1317
 3631SOL     hw14522   4.133   6.366   0.639  2.9330  0.3406 -2.8606
 3631SOL     hw14523   4.047   6.294   0.537  0.6769 -0.3647 -0.5669
 3631SOL     vw14524   4.098   6.293   0.607  0.6790  0.2599 -0.5492
 3632SOL     ow14525   1.416   6.145   1.469  0.3790  0.3713 -0.1987
 3632SOL     hw14526   1.363   6.066   1.461 -0.1777  0.8586 -1.6936
 3632SOL     hw14527   1.460   6.136   1.554  1.9401 -2.5391 -1.1633
 3632SOL     vw14528   1.415   6.133   1.479  0.5115  0.0517 -0.5231
 3633SOL     ow14529   5.360   2.537   4.482 -0.1512 -0.0980 -0.4002
 3633SOL     hw14530   5.287   2.547   4.421 -0.6018 -1.5137 -0.1136
 3633SOL     hw14531   5.376   2.626   4.515 -2.9127  0.0193  0.8693
 3633SOL     vw14532   5.353   2.550   4.478 -0.5751 -0.2693 -0.1948
 3634SOL     ow14533   1.489   4.420   2.121  0.1455  0.0381  0.0231
 3634SOL     hw14534   1.522   4.510   2.121 -0.4918  0.2804  0.8306
 3634SOL     hw14535   1.404   4.426   2.164 -1.0664 -0.5451 -2.1492
 3634SOL     vw14536   1.482   4.433   2.126 -0.0984 -0.0069 -0.1570
 3635SOL     ow14537   5.618   3.251   4.616 -0.1925  0.7896 -0.0462
 3635SOL     hw14538   5.528   3.255   4.587 -0.1999 -1.7127 -0.5965
 3635SOL     hw14539   5.613   3.256   4.712 -1.1002 -0.9002  0.0279
 3635SOL     vw14540   5.606   3.252   4.625 -0.3133  0.2366 -0.1092
 3636SOL     ow14541   7.084   3.256   2.996  0.0160  0.3337 -0.6790
 3636SOL     hw14542   7.163   3.271   3.049 -0.8841  0.6681  0.6084
 3636SOL     hw14543   7.073   3.336   2.945  1.7618 -0.5660 -2.6313
 3636SOL     vw14544   7.093   3.268   2.997  0.1278  0.2590 -0.7668
 3637SOL     ow14545   1.466   2.616   1.983 -0.2421 -0.4803 -0.0538
 3637SOL     hw14546   1.446   2.651   1.897  0.9788  1.2467  0.3224
 3637SOL     hw14547   1.546   2.564   1.970  1.6064  2.0275  0.4198
 3637SOL     vw14548   1.474   2.614   1.970  0.1628  0.0784  0.0584
 3638SOL     ow14549   0.033   1.868   1.087  0.2490 -1.0360  0.1093
 3638SOL     hw14550   0.078   1.947   1.055 -1.1753 -0.0763  0.3687
 3638SOL     hw14551   0.072   1.797   1.037  0.0894  0.0838 -1.6988
 3638SOL     vw14552   0.044   1.869   1.076  0.0400 -0.7615 -0.0951
 3639SOL     ow14553   1.724   1.285   1.415  0.7015 -0.4370  0.4223
 3639SOL     hw14554   1.747   1.192   1.409 -0.2541 -0.6328 -0.3010
 3639SOL     hw14555   1.659   1.298   1.347  1.0865  0.8531  0.2826
 3639SOL     vw14556   1.719   1.274   1.405  0.6262 -0.2927  0.3085
 3640SOL     ow14557   0.293   5.675   2.243 -0.3001  0.0666  0.2544
 3640SOL     hw14558   0.300   5.654   2.336  2.1641 -0.9566 -0.0978
 3640SOL     hw14559   0.347   5.752   2.231 -0.4690  0.0962 -0.3755
 3640SOL     vw14560   0.301   5.682   2.254  0.0028 -0.0646  0.1248
 3641SOL     ow14561   0.275   5.059   5.821  0.5981  0.3479  0.3123
 3641SOL     hw14562   0.251   4.966   5.815 -1.3780  0.8541 -0.9688
 3641SOL     hw14563   0.251   5.095   5.735  1.9299  1.9230  0.5558
 3641SOL     vw14564   0.268   5.052   5.809  0.5131  0.6225  0.1755
 3642SOL     ow14565   5.179   5.230   5.008 -0.1702  0.0755  0.6470
 3642SOL     hw14566   5.174   5.210   4.914  1.9281  0.0133  0.4904
 3642SOL     hw14567   5.108   5.292   5.023 -0.5306  0.1220 -1.0040
 3642SOL     vw14568   5.169   5.235   4.997  0.0589  0.0734  0.4089
 3643SOL     ow14569   3.592   1.037   2.683 -0.6090  0.4190 -1.0816
 3643SOL     hw14570   3.531   0.966   2.704  0.8721  0.1779  3.6247
 3643SOL     hw14571   3.548   1.116   2.715 -0.3935  0.9974 -2.1684
 3643SOL     vw14572   3.578   1.038   2.690 -0.3850  0.4635 -0.6040
 3644SOL     ow14573   2.968   5.413   0.765 -0.0727 -0.0882 -0.1527
 3644SOL     hw14574   2.971   5.362   0.846 -1.0731  1.5263  0.9470
 3644SOL     hw14575   2.989   5.502   0.791 -0.0882  0.4228 -1.7431
 3644SOL     vw14576   2.972   5.418   0.779 -0.2067  0.1922 -0.2174
 3645SOL     ow14577   3.377   5.827   2.381  0.4719 -0.4299 -0.2796
 3645SOL     hw14578   3.338   5.914   2.390  1.1746 -0.1145 -0.2356
 3645SOL     hw14579   3.347   5.779   2.458  0.2794 -0.1493 -0.1795
 3645SOL     vw14580   3.368   5.832   2.392  0.5392 -0.3514 -0.2606
 3646SOL     ow14581   0.867   1.081   3.271  0.0478  0.4835 -0.0740
 3646SOL     hw14582   0.827   1.162   3.239 -1.3753  0.0435  0.5213
 3646SOL     hw14583   0.866   1.022   3.196 -0.5918  0.4182 -0.0151
 3646SOL     vw14584   0.862   1.084   3.257 -0.2244  0.4168  0.0124
 3647SOL     ow14585   4.669   1.294   3.291  0.1559 -0.5539  0.1973
 3647SOL     hw14586   4.690   1.271   3.382  0.5700 -0.7059  0.0677
 3647SOL     hw14587   4.752   1.328   3.256 -0.8843  3.2203  0.9861
 3647SOL     vw14588   4.683   1.295   3.299  0.0734 -0.0759  0.2844
 3648SOL     ow14589   6.804   5.170   6.711  0.3709  0.1977  0.5438
 3648SOL     hw14590   6.790   5.140   6.622 -1.7554  1.2821  0.4508
 3648SOL     hw14591   6.880   5.229   6.705  1.9081 -1.7219  0.0065
 3648SOL     vw14592   6.812   5.174   6.699  0.2930  0.0877  0.4606
 3649SOL     ow14593   4.150   3.768   0.560 -0.8772 -0.5407  0.1037
 3649SOL     hw14594   4.149   3.749   0.466  0.4729  0.5056 -0.1568
 3649SOL     hw14595   4.159   3.683   0.602 -0.3750 -0.9277 -0.7692
 3649SOL     vw14596   4.151   3.754   0.553 -0.6328 -0.4537 -0.0458
 3650SOL     ow14597   3.963   7.455   5.499 -0.1928 -0.2349  0.6920
 3650SOL     hw14598   3.931   7.365   5.507  0.6788 -0.4594  1.7983
 3650SOL     hw14599   3.888   7.504   5.465 -2.0267 -0.5842  3.9065
 3650SOL     vw14600   3.949   7.449   5.495 -0.3198 -0.3109  1.2622
 3651SOL     ow14601   4.712   6.009   6.712 -0.4874  0.4894 -0.7599
 3651SOL     hw14602   4.635   6.004   6.655 -1.7273  2.2811  0.6147
 3651SOL     hw14603   4.675   6.021   6.800  1.3561 -1.5573  0.4016
 3651SOL     vw14604   4.697   6.010   6.716 -0.4077  0.4559 -0.4253
 3652SOL     ow14605   0.354   0.627   7.098  0.3180 -0.3963  0.1603
 3652SOL     hw14606   0.397   0.568   7.037 -1.2480 -0.4332 -0.9581
 3652SOL     hw14607   0.354   0.580   7.181  0.1691 -1.4727 -0.4336
 3652SOL     vw14608   0.359   0.613   7.101  0.0917 -0.5432 -0.0656
 3653SOL     ow14609   6.789   3.505   1.326  1.0781  1.1700  0.0952
 3653SOL     hw14610   6.796   3.592   1.285  0.0879  0.7241 -1.0693
 3653SOL     hw14611   6.839   3.447   1.268 -0.1215  0.5775 -0.3738
 3653SOL     vw14612   6.797   3.509   1.313  0.7892  1.0329 -0.1203
 3654SOL     ow14613   4.994   4.446   1.050  0.1718  0.1632  0.3929
 3654SOL     hw14614   5.023   4.509   1.116 -1.1812  0.2363  0.9442
 3654SOL     hw14615   5.075   4.418   1.006  0.7074  3.7031 -1.2015
 3654SOL     vw14616   5.009   4.450   1.053  0.0641  0.6399  0.2553
 3655SOL     ow14617   3.645   5.067   5.840  0.0406 -0.1914  0.1978
 3655SOL     hw14618   3.608   5.119   5.769  0.8160  0.3930  0.2058
 3655SOL     hw14619   3.625   5.117   5.919 -2.4756 -1.7578  0.6409
 3655SOL     vw14620   3.638   5.080   5.841 -0.1892 -0.3209  0.2570
 3656SOL     ow14621   6.928   2.373   6.253  0.5236  0.3587  0.0784
 3656SOL     hw14622   7.017   2.351   6.282 -0.5856 -2.4765  1.7375
 3656SOL     hw14623   6.922   2.337   6.165  0.7974 -0.1019  0.2460
 3656SOL     vw14624   6.939   2.366   6.245  0.4134 -0.0763  0.3195
 3657SOL     ow14625   3.992   7.080   3.886 -0.6569  0.1064  0.2630
 3657SOL     hw14626   3.992   7.001   3.939 -1.9526 -0.2571 -0.2302
 3657SOL     hw14627   4.050   7.141   3.932 -2.0122 -0.0456  2.3067
 3657SOL     vw14628   3.999   7.078   3.899 -1.0065  0.0384  0.4677
 3658SOL     ow14629   6.767   6.503   3.625 -0.0445 -0.1893  0.0551
 3658SOL     hw14630   6.758   6.598   3.614 -0.2702 -0.0705  1.1010
 3658SOL     hw14631   6.678   6.473   3.645  0.0047 -0.6432 -0.3910
 3658SOL     vw14632   6.754   6.512   3.627 -0.0679 -0.2337  0.1342
 3659SOL     ow14633   3.404   3.902   2.115 -0.2253  0.0879  0.5449
 3659SOL     hw14634   3.494   3.871   2.108 -0.9925 -2.0775 -0.7557
 3659SOL     hw14635   3.389   3.913   2.209  1.7073  1.6106  0.7171
 3659SOL     vw14636   3.414   3.899   2.126 -0.0715  0.0032  0.3959
 3660SOL     ow14637   1.626   5.251   4.428  0.2051 -0.0029  0.1013
 3660SOL     hw14638   1.650   5.160   4.447  0.7675  0.2341  0.5523
 3660SOL     hw14639   1.684   5.303   4.483  0.5705  0.6611 -0.8753
 3660SOL     vw14640   1.637   5.246   4.438  0.3275  0.1159  0.0319
 3661SOL     ow14641   3.819   7.354   1.399 -0.6051  0.7492  0.2839
 3661SOL     hw14642   3.756   7.290   1.366  0.0589  0.1296  0.1882
 3661SOL     hw14643   3.880   7.367   1.326  1.1728 -1.0019  1.3268
 3661SOL     vw14644   3.819   7.347   1.385 -0.2829  0.4363  0.4088
 3662SOL     ow14645   6.816   5.238   3.642 -0.0438 -0.6222  0.1883
 3662SOL     hw14646   6.897   5.236   3.693 -0.6984  0.2377  1.2913
 3662SOL     hw14647   6.820   5.158   3.589  1.1217 -1.0352  0.8499
 3662SOL     vw14648   6.828   5.227   3.642  0.0234 -0.5634  0.4212
 3663SOL     ow14649   6.025   4.512   3.757 -0.7357  0.0676 -0.3227
 3663SOL     hw14650   6.112   4.479   3.733  0.2728  3.2354 -1.4895
 3663SOL     hw14651   6.031   4.528   3.851 -0.2216 -0.1149 -0.3194
 3663SOL     vw14652   6.037   4.510   3.767 -0.5348  0.4616 -0.4761
 3664SOL     ow14653   6.039   5.653   1.688 -0.5257 -0.4942 -0.1094
 3664SOL     hw14654   5.948   5.632   1.706 -0.6511 -0.0423 -0.2050
 3664SOL     hw14655   6.067   5.586   1.625 -0.7726 -0.6599 -0.0456
 3664SOL     vw14656   6.031   5.641   1.682 -0.5748 -0.4561 -0.1135
 3665SOL     ow14657   3.769   6.957   0.098  0.3130 -0.9111 -0.6345
 3665SOL     hw14658   3.759   6.883   0.158 -2.0383  0.0981  0.3274
 3665SOL     hw14659   3.684   6.967   0.056  0.1450  1.8930  0.1110
 3665SOL     vw14660   3.756   6.949   0.100 -0.0193 -0.4079 -0.4092
 3666SOL     ow14661   5.746   4.242   6.564  0.8103  0.0651  0.1350
 3666SOL     hw14662   5.674   4.286   6.520  0.4112 -1.2267 -0.5442
 3666SOL     hw14663   5.746   4.279   6.653 -0.9486 -0.2036  0.2772
 3666SOL     vw14664   5.737   4.253   6.570  0.5257 -0.1409  0.0639
 3667SOL     ow14665   3.103   2.057   2.587  0.1057 -0.6288  0.2916
 3667SOL     hw14666   3.132   2.147   2.571  0.1532 -1.0051 -2.1365
 3667SOL     hw14667   3.038   2.065   2.657  2.2408  0.8696  2.2616
 3667SOL     vw14668   3.098   2.070   2.594  0.3936 -0.4807  0.2309
 3668SOL     ow14669   3.460   1.000   0.314  0.3882  0.3797  0.2329
 3668SOL     hw14670   3.370   1.033   0.305  0.4613  0.3714 -0.5417
 3668SOL     hw14671   3.450   0.917   0.360 -0.1143 -0.1784 -0.8494
 3668SOL     vw14672   3.447   0.993   0.319  0.3316  0.3050 -0.0121
 3669SOL     ow14673   6.453   6.678   4.737 -0.3834 -0.4937  0.2902
 3669SOL     hw14674   6.507   6.743   4.692  0.7613 -2.6016 -1.5759
 3669SOL     hw14675   6.514   6.627   4.790 -1.3019  0.0723  1.9596
 3669SOL     vw14676   6.468   6.680   4.738 -0.3533 -0.6971  0.2639
 3670SOL     ow14677   0.495   2.946   1.045 -0.2042  0.7392  0.2337
 3670SOL     hw14678   0.459   3.034   1.035  0.0730  1.2865  3.0486
 3670SOL     hw14679   0.561   2.956   1.113  2.6392 -0.9632 -2.0641
 3670SOL     vw14680   0.499   2.959   1.053  0.2075  0.5869  0.3020
 3671SOL     ow14681   0.721   3.362   7.270  0.2006 -0.0047  0.2182
 3671SOL     hw14682   0.672   3.423   7.215  0.1314 -0.9125 -0.7555
 3671SOL     hw14683   0.741   3.412   7.349 -0.7879  0.9311 -0.0980
 3671SOL     vw14684   0.717   3.377   7.273  0.0611 -0.0010  0.0482
 3672SOL     ow14685   2.896   1.027   0.057 -0.2514  0.1380  0.1293
 3672SOL     hw14686   2.914   1.085   0.132  1.1995  0.0025 -0.0885
 3672SOL     hw14687   2.853   1.083  -0.007 -3.1064 -0.0952  1.6268
 3672SOL     vw14688   2.892   1.042   0.059 -0.4367  0.0893  0.2983
 3673SOL     ow14689   6.327   2.182   4.033 -0.6541  0.3359 -0.2173
 3673SOL     hw14690   6.316   2.275   4.010 -1.2369  0.3191 -0.0239
 3673SOL     hw14691   6.246   2.159   4.078  0.4440  0.3777  1.8872
 3673SOL     vw14692   6.315   2.192   4.036 -0.5860  0.3392  0.0858
 3674SOL     ow14693   2.332   6.634   7.073  0.6144  0.2708 -0.3828
 3674SOL     hw14694   2.381   6.584   7.138  0.8390  1.4230  0.3564
 3674SOL     hw14695   2.247   6.591   7.069  1.9592 -2.5672 -2.6072
 3674SOL     vw14696   2.327   6.621   7.081  0.8214  0.0484 -0.5786
 3675SOL     ow14697   1.078   3.285   5.240 -0.5173 -0.4340 -0.7670
 3675SOL     hw14698   1.045   3.363   5.196 -0.2836  1.1296  1.6317
 3675SOL     hw14699   1.005   3.255   5.294  0.3946  0.1666  0.8723
 3675SOL     vw14700   1.064   3.291   5.242 -0.3662 -0.1484 -0.2344
 3676SOL     ow14701   2.633   3.100   0.604 -0.2758  0.1104 -0.6127
 3676SOL     hw14702   2.604   3.048   0.680  0.7427  1.3285  0.6577
 3676SOL     hw14703   2.644   3.035   0.534 -0.5768 -1.1590  0.4690
 3676SOL     vw14704   2.631   3.084   0.605 -0.1812  0.1037 -0.3024
 3677SOL     ow14705   6.639   0.859   0.258  0.7797 -0.3697  0.0247
 3677SOL     hw14706   6.545   0.875   0.254  1.1422  2.0051 -1.3270
 3677SOL     hw14707   6.648   0.764   0.254 -1.5522 -0.6938  0.9254
 3677SOL     vw14708   6.628   0.849   0.257  0.5200 -0.0992 -0.0348
 3678SOL     ow14709   2.371   1.071   4.500  0.0692 -0.4420 -0.3791
 3678SOL     hw14710   2.394   1.084   4.592 -1.1847  4.8376 -0.5175
 3678SOL     hw14711   2.441   1.115   4.452 -0.3055 -1.4347 -1.8816
 3678SOL     vw14712   2.383   1.078   4.506 -0.1457  0.1236 -0.5956
 3679SOL     ow14713   6.648   4.936   6.894 -0.3292 -0.3808 -0.0839
 3679SOL     hw14714   6.664   4.904   6.983  1.8369 -2.2853 -1.0753
 3679SOL     hw14715   6.579   4.878   6.860  1.3548 -2.0733 -0.7884
 3679SOL     vw14716   6.641   4.924   6.901  0.1788 -0.8554 -0.3076
 3680SOL     ow14717   2.575   0.876   5.508  0.0311  0.5563 -0.1628
 3680SOL     hw14718   2.501   0.850   5.563 -1.0060  2.2576 -0.6504
 3680SOL     hw14719   2.639   0.912   5.568 -0.2182  0.5084  0.1337
 3680SOL     vw14720   2.573   0.877   5.523 -0.1386  0.7744 -0.1879
 3681SOL     ow14721   6.316   5.804   1.203  0.3390  0.3983 -0.2059
 3681SOL     hw14722   6.343   5.876   1.260  0.9146 -0.8634  1.1992
 3681SOL     hw14723   6.257   5.751   1.258 -1.4009  0.6497 -1.7386
 3681SOL     vw14724   6.311   5.806   1.218  0.1853  0.2649 -0.2227
 3682SOL     ow14725   5.270   4.454   6.002  0.8039  0.3833 -0.7853
 3682SOL     hw14726   5.221   4.387   6.049  1.5081 -0.5733 -1.3723
 3682SOL     hw14727   5.356   4.455   6.043  0.5442  1.5623 -0.2180
 3682SOL     vw14728   5.275   4.445   6.013  0.8626  0.4129 -0.7880
 3683SOL     ow14729   4.807   6.512   5.063 -0.0381 -0.5438  0.2168
 3683SOL     hw14730   4.795   6.489   5.155 -0.5391  0.0540  0.3071
 3683SOL     hw14731   4.817   6.607   5.063 -1.9048 -0.2881 -0.5031
 3683SOL     vw14732   4.807   6.522   5.075 -0.3505 -0.4311  0.1338
 3684SOL     ow14733   2.161   6.492   0.620  0.2589 -0.6149 -0.0234
 3684SOL     hw14734   2.119   6.412   0.587 -1.1772  0.9523 -2.2287
 3684SOL     hw14735   2.106   6.519   0.694 -0.6720 -0.4101 -0.7744
 3684SOL     vw14736   2.148   6.485   0.626 -0.0533 -0.3812 -0.4135
 3685SOL     ow14737   3.188   2.168   1.984  0.6714 -0.2079  0.5925
 3685SOL     hw14738   3.265   2.174   1.927 -0.2201  3.0394 -0.4762
 3685SOL     hw14739   3.119   2.135   1.927  0.5316 -0.0694  0.6804
 3685SOL     vw14740   3.189   2.164   1.969  0.5352  0.2388  0.4631
 3686SOL     ow14741   1.248   2.669   0.526  0.3487  0.2167 -0.0938
 3686SOL     hw14742   1.258   2.667   0.431  1.1446 -0.2372 -0.0190
 3686SOL     hw14743   1.297   2.746   0.554  1.7956 -0.7241  0.0879
 3686SOL     vw14744   1.256   2.679   0.517  0.6446  0.0328 -0.0600
 3687SOL     ow14745   1.475   1.868   1.664 -0.1644  0.0264 -0.0080
 3687SOL     hw14746   1.397   1.906   1.624 -0.0127 -0.1299 -0.4555
 3687SOL     hw14747   1.489   1.786   1.617 -0.4232 -0.5428  0.8769
 3687SOL     vw14748   1.467   1.862   1.652 -0.1785 -0.0693  0.0497
 3688SOL     ow14749   3.950   7.449   0.260  0.0428  0.8933  0.3680
 3688SOL     hw14750   3.944   7.354   0.258 -1.4217  0.9592  0.3827
 3688SOL     hw14751   3.974   7.470   0.350  2.5198  0.4929 -0.1218
 3688SOL     vw14752   3.953   7.439   0.272  0.1764  0.8490  0.3053
 3689SOL     ow14753   4.635   0.706   0.603 -0.1271 -0.4713 -0.3686
 3689SOL     hw14754   4.695   0.737   0.671 -0.7261  0.8786 -0.4241
 3689SOL     hw14755   4.667   0.749   0.523 -0.2983 -0.9096 -0.6761
 3689SOL     vw14756   4.647   0.716   0.601 -0.2286 -0.3510 -0.4165
 3690SOL     ow14757   0.035   5.414   5.482 -0.1644 -0.2660  0.0539
 3690SOL     hw14758  -0.031   5.450   5.423 -0.4414 -2.4228 -1.0569
 3690SOL     hw14759  -0.014   5.354   5.538 -0.0381  2.2197  3.0885
 3690SOL     vw14760   0.019   5.411   5.481 -0.1843 -0.2222  0.3076
 3691SOL     ow14761   6.977   3.297   3.253  0.0736 -0.1184 -0.3093
 3691SOL     hw14762   7.057   3.335   3.289 -0.0568 -2.0019  2.3111
 3691SOL     hw14763   7.002   3.269   3.164  2.3601 -0.6437  0.4104
 3691SOL     vw14764   6.991   3.298   3.246  0.3579 -0.4362  0.1312
 3692SOL     ow14765   5.389   4.678   1.261  0.3200 -0.1729  0.0464
 3692SOL     hw14766   5.401   4.596   1.212 -0.6688 -1.3185  1.6411
 3692SOL     hw14767   5.405   4.654   1.352 -1.6300  1.0068  0.7574
 3692SOL     vw14768   5.393   4.664   1.266 -0.0677 -0.1686  0.3507
 3693SOL     ow14769   3.623   3.297   4.629 -0.8119 -0.2698  0.2933
 3693SOL     hw14770   3.678   3.341   4.694  0.5710  0.1774 -1.1322
 3693SOL     hw14771   3.630   3.204   4.651 -0.7836 -0.0877  1.0883
 3693SOL     vw14772   3.631   3.290   4.641 -0.6256 -0.1868  0.2100
 3694SOL     ow14773   3.581   7.042   7.071  0.1271 -0.5837 -0.4476
 3694SOL     hw14774   3.486   7.036   7.068  0.0186  0.9668 -0.9908
 3694SOL     hw14775   3.612   6.978   7.007 -0.7501  2.0029 -3.7205
 3694SOL     vw14776   3.573   7.033   7.062 -0.0030 -0.0377 -0.9508
 3695SOL     ow14777   2.911   0.768   5.647 -0.1006  0.5797 -0.1162
 3695SOL     hw14778   2.867   0.853   5.649 -0.3080  0.4855 -0.6328
 3695SOL     hw14779   2.940   0.758   5.557 -0.4972 -0.1115 -0.1748
 3695SOL     vw14780   2.909   0.778   5.636 -0.1804  0.4761 -0.1919
 3696SOL     ow14781   5.648   1.527   6.097  0.5624 -0.2122 -0.1230
 3696SOL     hw14782   5.634   1.581   6.175  0.8115 -0.4175  0.0655
 3696SOL     hw14783   5.728   1.562   6.057 -0.1500  0.5970 -0.8906
 3696SOL     vw14784   5.656   1.539   6.102  0.5012 -0.1326 -0.1993
 3697SOL     ow14785   6.054   0.599   4.067  0.5201  0.0577 -0.0042
 3697SOL     hw14786   5.975   0.653   4.066 -0.0387 -0.7410  0.2896
 3697SOL     hw14787   6.122   0.655   4.030 -0.5224  0.2376 -1.7597
 3697SOL     vw14788   6.052   0.613   4.062  0.3090 -0.0239 -0.1969
 3698SOL     ow14789   6.936   6.859   4.613  0.3296  0.5382 -0.1861
 3698SOL     hw14790   6.941   6.769   4.643  1.7096  0.6523  0.0121
 3698SOL     hw14791   6.950   6.854   4.518  1.7434  0.6249 -0.0042
 3698SOL     vw14792   6.939   6.847   4.604  0.6983  0.5648 -0.1357
 3699SOL     ow14793   6.419   3.281   5.977 -0.6347  0.0719  1.1494
 3699SOL     hw14794   6.425   3.299   6.071  0.6335 -0.5611  1.2128
 3699SOL     hw14795   6.420   3.367   5.936  0.5477  0.3219  1.6511
 3699SOL     vw14796   6.420   3.295   5.984 -0.3111  0.0213  1.2240
 3700SOL     ow14797   5.382   3.284   0.579 -0.2467  0.0043  0.5295
 3700SOL     hw14798   5.441   3.354   0.552  0.8752 -1.6911 -1.7181
 3700SOL     hw14799   5.435   3.229   0.636 -0.2101 -0.5281 -0.0111
 3700SOL     vw14800   5.397   3.286   0.583 -0.0937 -0.2896  0.1616
 3701SOL     ow14801   2.562   4.687   3.336 -0.3330 -0.1461  0.0212
 3701SOL     hw14802   2.574   4.779   3.315  4.8155 -0.2069  1.3068
 3701SOL     hw14803   2.603   4.640   3.263 -2.2512 -1.4717 -0.2803
 3701SOL     vw14804   2.569   4.693   3.323  0.0933 -0.3290  0.1510
 3702SOL     ow14805   5.180   3.204   2.457  0.5785 -0.1619 -0.4333
 3702SOL     hw14806   5.132   3.165   2.383  0.2131 -0.5525  0.0016
 3702SOL     hw14807   5.132   3.284   2.477  1.0614  0.2766 -1.0380
 3702SOL     vw14808   5.167   3.209   2.450  0.5941 -0.1556 -0.4556
 3703SOL     ow14809   4.201   5.787   1.575  0.4147 -0.6923 -0.0831
 3703SOL     hw14810   4.237   5.855   1.517  0.2870 -0.8940 -0.3999
 3703SOL     hw14811   4.247   5.800   1.658 -0.4691  0.5659  0.2426
 3703SOL     vw14812   4.211   5.798   1.578  0.2813 -0.5527 -0.0820
 3704SOL     ow14813   1.645   5.854   3.999  0.7143  0.5523  0.8434
 3704SOL     hw14814   1.724   5.809   3.969 -0.5838 -1.6853  0.5543
 3704SOL     hw14815   1.662   5.946   3.981  1.8682 -0.1697 -2.5496
 3704SOL     vw14816   1.658   5.860   3.993  0.6953  0.1616  0.3576
 3705SOL     ow14817   4.121   7.364   0.036 -0.0675  0.6711 -0.1123
 3705SOL     hw14818   4.127   7.451  -0.003  3.6442  0.2417 -0.8404
 3705SOL     hw14819   4.067   7.377   0.114 -1.9266  2.9787 -1.6521
 3705SOL     vw14820   4.115   7.377   0.041  0.1771  0.9186 -0.4115
 3706SOL     ow14821   6.269   5.052   2.301 -0.4646 -0.2189  0.4285
 3706SOL     hw14822   6.211   5.036   2.227  0.4801 -0.6059 -0.2486
 3706SOL     hw14823   6.238   5.134   2.338  0.0018  0.8372 -1.3745
 3706SOL     vw14824   6.257   5.061   2.296 -0.2787 -0.1307  0.1013
 3707SOL     ow14825   7.140   1.981   4.327  0.0616  0.8023 -0.2801
 3707SOL     hw14826   7.131   1.899   4.277 -1.3561 -0.5321  1.9674
 3707SOL     hw14827   7.193   2.037   4.271  1.0326 -1.6069 -1.9850
 3707SOL     vw14828   7.146   1.977   4.313  0.0029  0.3083 -0.2081
 3708SOL     ow14829   2.446   4.453   3.524 -0.7681  0.2617 -0.3385
 3708SOL     hw14830   2.406   4.401   3.594 -0.4566  0.4686  0.0045
 3708SOL     hw14831   2.523   4.402   3.498 -0.7264  0.3195 -0.3300
 3708SOL     vw14832   2.451   4.439   3.530 -0.7215  0.2966 -0.2923
 3709SOL     ow14833   1.098   0.389   1.298 -0.1877  0.1887  0.5980
 3709SOL     hw14834   1.050   0.308   1.278  0.6970 -0.0436 -0.6816
 3709SOL     hw14835   1.156   0.366   1.370  2.9691 -1.5455 -2.2601
 3709SOL     vw14836   1.099   0.375   1.305  0.3456 -0.0707  0.0521
 3710SOL     ow14837   7.203   4.317   3.799 -0.1356  0.7095  0.2989
 3710SOL     hw14838   7.288   4.280   3.823  0.2053  0.7540 -0.7882
 3710SOL     hw14839   7.215   4.412   3.807 -0.2070  0.7010  0.5207
 3710SOL     vw14840   7.216   4.325   3.804 -0.0999  0.7138  0.1847
 3711SOL     ow14841   7.150   0.548   2.405 -0.1906  0.2203  0.5131
 3711SOL     hw14842   7.215   0.492   2.447  1.1370  2.3488  1.4593
 3711SOL     hw14843   7.169   0.542   2.312  2.5890  2.1060  0.8590
 3711SOL     vw14844   7.161   0.539   2.399  0.3514  0.7499  0.6835
 3712SOL     ow14845   3.612   1.709   5.508 -0.0718  0.5294  0.5461
 3712SOL     hw14846   3.575   1.635   5.556  0.1632 -0.8618 -1.3119
 3712SOL     hw14847   3.660   1.669   5.435  1.8319  2.4327  0.6412
 3712SOL     vw14848   3.614   1.694   5.504  0.2104  0.5969  0.3135
 3713SOL     ow14849   7.562   4.876   7.147  0.2994 -0.9207  0.0087
 3713SOL     hw14850   7.546   4.783   7.164  0.4943 -1.1989 -1.2419
 3713SOL     hw14851   7.475   4.912   7.128  0.2773 -0.9313  0.0869
 3713SOL     vw14852   7.548   4.869   7.147  0.3221 -0.9587 -0.1462
 3714SOL     ow14853   5.953   6.517   1.201  0.8445 -0.2810  0.0540
 3714SOL     hw14854   6.044   6.529   1.174  1.0517 -0.4886  0.6273
 3714SOL     hw14855   5.941   6.580   1.272  0.1609  0.6120 -0.8344
 3714SOL     vw14856   5.963   6.527   1.207  0.7818 -0.1907  0.0125
 3715SOL     ow14857   2.125   2.140   0.825  0.5797 -0.2775 -0.9804
 3715SOL     hw14858   2.201   2.178   0.779  1.3302 -2.4241 -1.6462
 3715SOL     hw14859   2.146   2.150   0.918  1.1600  0.1680 -1.1511
 3715SOL     vw14860   2.138   2.146   0.831  0.7552 -0.5020 -1.0908
 3716SOL     ow14861   0.822   6.879   7.094 -0.0656 -0.5501 -0.5634
 3716SOL     hw14862   0.748   6.837   7.138  0.6118 -0.7389  0.4252
 3716SOL     hw14863   0.798   6.880   7.002 -2.2267  1.2980 -0.0519
 3716SOL     vw14864   0.809   6.873   7.088 -0.2614 -0.3309 -0.3655
 3717SOL     ow14865   7.420   6.219   0.003  0.1360 -0.0192 -0.5170
 3717SOL     hw14866   7.486   6.288   0.005 -0.8520  0.9631  1.9866
 3717SOL     hw14867   7.468   6.141  -0.025  3.4811 -0.2590  4.5869
 3717SOL     vw14868   7.435   6.218  -0.001  0.4470  0.0792  0.4866
 3718SOL     ow14869   1.685   5.021   3.427  0.2730  0.4348  0.0748
 3718SOL     hw14870   1.629   4.961   3.476  1.1191  0.3179  0.9389
 3718SOL     hw14871   1.625   5.076   3.377 -0.9357  2.5258  3.4322
 3718SOL     vw14872   1.670   5.021   3.427  0.2251  0.6952  0.6317
 3719SOL     ow14873   6.780   1.903   3.121 -0.0564 -0.5942 -0.1858
 3719SOL     hw14874   6.857   1.848   3.111  0.9203  0.2177  2.1935
 3719SOL     hw14875   6.806   1.988   3.085  0.7621  0.1105  1.9225
 3719SOL     vw14876   6.793   1.907   3.115  0.1805 -0.3941  0.4063
 3720SOL     ow14877   7.191   4.095   3.586  0.0075 -0.0167 -0.1047
 3720SOL     hw14878   7.178   4.103   3.491  1.8448 -0.1418 -0.3935
 3720SOL     hw14879   7.214   4.003   3.599 -2.1912 -0.5072  0.7600
 3720SOL     vw14880   7.192   4.084   3.575 -0.0401 -0.0982 -0.0286
 3721SOL     ow14881   1.251   2.173   5.999  0.1753 -0.0012 -0.2811
 3721SOL     hw14882   1.334   2.217   5.987 -0.4364  1.0482 -0.8260
 3721SOL     hw14883   1.200   2.231   6.055  0.8297 -2.0290  2.6353
 3721SOL     vw14884   1.255   2.186   6.005  0.1808 -0.1303  0.0317
 3722SOL     ow14885   2.890   5.227   0.981 -0.3709 -0.0241 -0.5350
 3722SOL     hw14886   2.806   5.240   1.026 -0.5074  0.5134 -0.9350
 3722SOL     hw14887   2.926   5.147   1.021 -0.1873  0.7789  0.9749
 3722SOL     vw14888   2.883   5.218   0.993 -0.3648  0.1531 -0.3885
 3723SOL     ow14889   6.569   7.145   4.666 -0.5984 -0.0520 -0.6845
 3723SOL     hw14890   6.529   7.198   4.598  0.3909  2.2090  0.3972
 3723SOL     hw14891   6.663   7.156   4.653 -0.3827  0.9357  1.3700
 3723SOL     vw14892   6.576   7.153   4.655 -0.4396  0.3767 -0.2706
 3724SOL     ow14893   4.616   0.726   2.999 -0.4620 -0.1261  0.0979
 3724SOL     hw14894   4.665   0.807   3.011  1.3712 -0.8616 -1.7123
 3724SOL     hw14895   4.532   0.754   2.961 -0.2802  0.9793  0.4809
 3724SOL     vw14896   4.611   0.740   2.996 -0.1960 -0.0773 -0.0904
 3725SOL     ow14897   6.257   4.949   1.783 -0.4341  0.5139 -0.2148
 3725SOL     hw14898   6.275   4.898   1.862 -1.1362  2.8320  1.5750
 3725SOL     hw14899   6.167   4.978   1.793 -0.0536  2.1505 -1.0418
 3725SOL     vw14900   6.248   4.946   1.795 -0.4764  1.0357 -0.0877
 3726SOL     ow14901   2.014   7.377   5.132  0.0926  0.0654  0.2674
 3726SOL     hw14902   1.966   7.332   5.201 -1.0367  1.9209  0.7414
 3726SOL     hw14903   1.996   7.470   5.146  1.8082  0.6545 -1.0691
 3726SOL     vw14904   2.005   7.383   5.143  0.1699  0.3879  0.1535
 3727SOL     ow14905   3.196   2.063   5.171  0.0505  0.4882  0.1661
 3727SOL     hw14906   3.261   2.107   5.225 -2.8489  2.8795  2.0225
 3727SOL     hw14907   3.196   1.973   5.203  0.6461  1.0787  1.9751
 3727SOL     vw14908   3.204   2.057   5.183 -0.2534  0.8817  0.6499
 3728SOL     ow14909   7.051   4.237   0.613  0.7254 -0.3423  0.1780
 3728SOL     hw14910   7.108   4.230   0.537 -0.6560 -0.0260 -0.9380
 3728SOL     hw14911   7.110   4.236   0.688  2.6385  3.8826 -0.9772
 3728SOL     vw14912   7.066   4.236   0.613  0.7951  0.2568 -0.1217
 3729SOL     ow14913   3.028   5.561   4.996 -0.3652  0.2103 -0.3822
 3729SOL     hw14914   2.973   5.484   4.984 -0.6196  0.5879 -1.7620
 3729SOL     hw14915   2.969   5.628   5.031 -0.7336  0.5089 -1.5305
 3729SOL     vw14916   3.013   5.560   4.999 -0.4473  0.2995 -0.7160
 3730SOL     ow14917   6.145   3.138   6.250 -1.1234 -0.3117  0.5903
 3730SOL     hw14918   6.228   3.098   6.275  0.0400  2.1600  0.9998
 3730SOL     hw14919   6.094   3.141   6.331 -1.6085 -1.7301  0.3610
 3730SOL     vw14920   6.149   3.133   6.264 -1.0338 -0.1729  0.6142
 3731SOL     ow14921   0.277   5.393   3.043 -0.2220 -0.2273 -1.0716
 3731SOL     hw14922   0.317   5.348   3.118  0.2164  3.0370  0.8273
 3731SOL     hw14923   0.346   5.395   2.976  1.0646  0.7958  0.2236
 3731SOL     vw14924   0.292   5.387   3.044  0.0056  0.3386 -0.6502
 3732SOL     ow14925   0.945   4.759   3.219 -0.4737  0.2397  0.1238
 3732SOL     hw14926   0.856   4.778   3.188 -1.2184 -1.9256  0.6929
 3732SOL     hw14927   0.938   4.762   3.314  1.1135  4.0339  0.2940
 3732SOL     vw14928   0.932   4.762   3.228 -0.3625  0.4544  0.2215
 3733SOL     ow14929   4.842   5.011   5.020  0.5381  0.2828 -1.0526
 3733SOL     hw14930   4.934   4.997   5.042  0.8976  2.6185 -0.7927
 3733SOL     hw14931   4.794   4.977   5.096  1.2308 -0.1708 -0.8069
 3733SOL     vw14932   4.847   5.005   5.033  0.6769  0.5310 -0.9859
 3734SOL     ow14933   4.921   2.982   1.017 -0.7364  0.2120  0.7780
 3734SOL     hw14934   4.887   3.050   1.075 -1.3149 -1.7576  2.8558
 3734SOL     hw14935   4.875   2.903   1.043  1.6715 -1.5027  0.1217
 3734SOL     vw14936   4.910   2.981   1.028 -0.4950 -0.2742  0.9657
 3735SOL     ow14937   2.919   0.234   4.410 -0.3119  0.0693  0.0700
 3735SOL     hw14938   2.880   0.247   4.324 -1.4120  0.3960  0.5921
 3735SOL     hw14939   2.855   0.272   4.471  0.4137 -0.2098  1.0294
 3735SOL     vw14940   2.905   0.241   4.407 -0.3613  0.0756  0.2656
 3736SOL     ow14941   6.194   1.168   3.364 -0.4438  0.2181  0.6029
 3736SOL     hw14942   6.138   1.186   3.439 -0.8489 -0.0948  0.3800
 3736SOL     hw14943   6.152   1.095   3.319  0.6399 -0.6460  0.9487
 3736SOL     vw14944   6.181   1.161   3.368 -0.3541  0.0628  0.6191
 3737SOL     ow14945   5.088   4.573   7.473  0.2690  0.2719 -0.5146
 3737SOL     hw14946   5.065   4.665   7.483 -0.4818 -0.0485  1.1089
 3737SOL     hw14947   5.040   4.544   7.395  1.2888  1.4537 -1.6313
 3737SOL     vw14948   5.079   4.581   7.464  0.3042  0.3853 -0.4478
 3738SOL     ow14949   6.467   6.325   7.249 -0.5897 -0.4006  0.6825
 3738SOL     hw14950   6.491   6.237   7.277  0.8721 -0.0441  0.6347
 3738SOL     hw14951   6.456   6.374   7.330  2.9907  0.4621  0.8101
 3738SOL     vw14952   6.469   6.320   7.263  0.0758 -0.2396  0.6928
 3739SOL     ow14953   0.565   5.391   1.020  0.6038  0.1307 -0.6408
 3739SOL     hw14954   0.647   5.423   0.980  0.5673  1.9521  0.6164
 3739SOL     hw14955   0.502   5.462   1.004  0.1289  0.1291  1.0821
 3739SOL     vw14956   0.568   5.405   1.013  0.5363  0.3710 -0.2477
 3740SOL     ow14957   4.809   4.574   2.902 -0.3806 -0.0940 -0.4244
 3740SOL     hw14958   4.821   4.527   2.820  0.9165 -2.9003  1.2065
 3740SOL     hw14959   4.899   4.592   2.932 -0.6792 -1.5584  1.5740
 3740SOL     vw14960   4.823   4.570   2.895 -0.2491 -0.6576  0.0544
 3741SOL     ow14961   0.178   6.670   0.918  0.0119 -0.4596  0.4421
 3741SOL     hw14962   0.253   6.727   0.934 -0.6318  0.3034  0.8559
 3741SOL     hw14963   0.110   6.703   0.978 -1.3860  0.3336 -1.4679
 3741SOL     vw14964   0.179   6.682   0.928 -0.2575 -0.2544  0.2446
 3742SOL     ow14965   0.715   4.249   0.439 -0.1964 -0.0096  0.1286
 3742SOL     hw14966   0.713   4.333   0.485 -1.2589 -0.2092  0.4780
 3742SOL     hw14967   0.623   4.227   0.426  0.0800 -0.7657 -0.6248
 3742SOL     vw14968   0.702   4.257   0.443 -0.3001 -0.1354  0.0753
 3743SOL     ow14969   5.485   2.999   2.161 -0.6711  0.3057 -0.5703
 3743SOL     hw14970   5.550   3.023   2.095  1.5994  2.4183  2.1507
 3743SOL     hw14971   5.523   2.923   2.206 -1.3038  0.0200 -0.5071
 3743SOL     vw14972   5.499   2.992   2.159 -0.4547  0.5468 -0.2029
 3744SOL     ow14973   7.604   0.969   1.083  1.0908  0.1245 -0.1543
 3744SOL     hw14974   7.529   0.976   1.143  0.2154  1.2268 -1.3202
 3744SOL     hw14975   7.575   0.907   1.017  1.1404  0.6517 -0.6778
 3744SOL     vw14976   7.590   0.962   1.082  0.9820  0.3395 -0.3772
 3745SOL     ow14977   6.124   3.893   1.849 -0.4004 -0.1870 -0.2805
 3745SOL     hw14978   6.060   3.946   1.897  0.8616  1.6368 -0.5451
 3745SOL     hw14979   6.138   3.817   1.906 -1.7325  0.0542  0.4382
 3745SOL     vw14980   6.117   3.890   1.863 -0.4096  0.0852 -0.2205
 3746SOL     ow14981   6.671   4.227   5.380  0.4064  0.7574  0.4002
 3746SOL     hw14982   6.738   4.274   5.429 -0.1780  0.0022  1.9958
 3746SOL     hw14983   6.603   4.293   5.364  0.8785  1.1635  0.0346
 3746SOL     vw14984   6.671   4.242   5.384  0.3915  0.7114  0.5624
 3747SOL     ow14985   2.579   2.330   4.925 -0.1869  0.3321 -0.1307
 3747SOL     hw14986   2.584   2.416   4.966  1.6181  0.0108  0.3934
 3747SOL     hw14987   2.513   2.283   4.976 -1.4344  1.4596 -0.6222
 3747SOL     vw14988   2.571   2.335   4.937 -0.1134  0.4385 -0.1264
 3748SOL     ow14989   4.477   5.111   5.961 -0.2224  0.0147  0.3303
 3748SOL     hw14990   4.513   5.121   5.874 -0.2840 -0.7844  0.2094
 3748SOL     hw14991   4.383   5.103   5.948 -0.5585  2.4885  0.6702
 3748SOL     vw14992   4.469   5.112   5.948 -0.2749  0.2358  0.3593
 3749SOL     ow14993   5.636   5.644   0.548 -0.0090 -0.1380 -0.3842
 3749SOL     hw14994   5.629   5.727   0.500  0.2013 -0.1330 -0.4103
 3749SOL     hw14995   5.665   5.581   0.482 -0.3508 -0.2730 -0.4046
 3749SOL     vw14996   5.639   5.647   0.533 -0.0260 -0.1550 -0.3904
 3750SOL     ow14997   1.088   7.393   0.740 -0.6122  0.2636 -0.5805
 3750SOL     hw14998   1.089   7.341   0.659 -1.2089 -1.1384  0.2586
 3750SOL     hw14999   0.997   7.421   0.749 -0.5108  0.5616 -0.4840
 3750SOL     vw15000   1.076   7.390   0.731 -0.6775  0.1178 -0.4570
 3751SOL     ow15001   7.533   5.644   2.287  0.5042 -0.1860 -0.3004
 3751SOL     hw15002   7.543   5.678   2.199 -0.0380 -1.0860 -0.7280
 3751SOL     hw15003   7.551   5.718   2.344 -1.7086  1.1430 -1.2087
 3751SOL     vw15004   7.537   5.658   2.283  0.1407 -0.1292 -0.4767
 3752SOL     ow15005   7.494   0.992   0.133 -0.0100  0.3073 -0.4623
 3752SOL     hw15006   7.557   1.049   0.177 -0.5238  0.6715 -0.1791
 3752SOL     hw15007   7.448   0.948   0.205 -1.5458  1.6442 -0.5611
 3752SOL     vw15008   7.496   0.994   0.149 -0.2804  0.5317 -0.4379
 3753SOL     ow15009   7.490   5.011   1.873  0.1983 -0.3649  0.8585
 3753SOL     hw15010   7.426   4.953   1.914 -0.2903 -1.8910 -1.8024
 3753SOL     hw15011   7.528   4.958   1.802  2.8268  1.2325  0.9369
 3753SOL     vw15012   7.487   4.996   1.869  0.4809 -0.3552  0.5178
 3754SOL     ow15013   6.322   7.307   5.655  0.9230 -0.8212 -0.5968
 3754SOL     hw15014   6.306   7.382   5.713  0.2915 -1.1786 -0.3055
 3754SOL     hw15015   6.387   7.339   5.592  3.4398 -1.1341  1.6979
 3754SOL     vw15016   6.328   7.321   5.654  1.1718 -0.9098 -0.2556
 3755SOL     ow15017   3.948   6.002   7.438  0.3402  0.1744 -0.1687
 3755SOL     hw15018   3.890   5.944   7.388 -0.3365  0.1127  0.6687
 3755SOL     hw15019   3.997   6.050   7.371 -1.1659  0.7236 -0.9328
 3755SOL     vw15020   3.947   6.001   7.422  0.0522  0.2387 -0.1590
 3756SOL     ow15021   1.795   0.634   1.614 -0.1605 -0.6187 -0.7033
 3756SOL     hw15022   1.739   0.628   1.537  0.1203 -1.1348 -0.8722
 3756SOL     hw15023   1.880   0.603   1.585 -0.2807 -1.7099  0.0343
 3756SOL     vw15024   1.799   0.629   1.600 -0.1394 -0.8307 -0.6282
 3757SOL     ow15025   2.449   5.905   7.179 -0.0011 -0.0105 -0.7604
 3757SOL     hw15026   2.538   5.921   7.147 -0.0161 -0.0964 -0.8490
 3757SOL     hw15027   2.408   5.991   7.182 -0.4896 -0.1413 -2.4488
 3757SOL     vw15028   2.455   5.918   7.175 -0.0676 -0.0391 -0.9947
 3758SOL     ow15029   0.114   7.030   4.613  0.0199 -0.0847  0.6802
 3758SOL     hw15030   0.177   6.964   4.641 -0.2220 -1.1359 -1.0812
 3758SOL     hw15031   0.134   7.107   4.667  1.9147 -0.8162  1.0979
 3758SOL     vw15032   0.125   7.031   4.624  0.2380 -0.3202  0.5028
 3759SOL     ow15033   5.019   6.211   2.903 -0.1804  0.3382 -0.0572
 3759SOL     hw15034   4.989   6.289   2.857 -2.4043  1.3911  2.8590
 3759SOL     hw15035   4.950   6.146   2.889  0.6350 -0.4090 -0.7184
 3759SOL     vw15036   5.006   6.213   2.895 -0.3662  0.3784  0.2404
 3760SOL     ow15037   2.019   1.159   2.525 -0.6105  0.8488  0.5624
 3760SOL     hw15038   2.095   1.147   2.582 -0.1314  0.7567 -0.0934
 3760SOL     hw15039   1.944   1.152   2.584 -0.2566 -1.8246  0.8171
 3760SOL     vw15040   2.019   1.157   2.541 -0.5006  0.4840  0.5095
 3761SOL     ow15041   1.831   7.605   5.152 -0.0957  0.3940 -0.3382
 3761SOL     hw15042   1.748   7.582   5.194 -0.0520 -1.4293 -1.1524
 3761SOL     hw15043   1.880   7.652   5.220 -1.5875  1.0925  0.2983
 3761SOL     vw15044   1.827   7.608   5.167 -0.2868  0.2456 -0.3617
 3762SOL     ow15045   5.264   0.318   5.191 -0.2312  0.1210  0.1045
 3762SOL     hw15046   5.329   0.259   5.229  0.0836 -1.2980 -2.4439
 3762SOL     hw15047   5.242   0.378   5.263  0.3506 -2.2933  2.4648
 3762SOL     vw15048   5.270   0.318   5.205 -0.1130 -0.3848  0.0799
 3763SOL     ow15049   0.851   6.703   0.905 -0.4361  0.2192 -0.1633
 3763SOL     hw15050   0.845   6.617   0.944  1.5468  1.0120  2.1236
 3763SOL     hw15051   0.761   6.736   0.903 -0.8289 -0.6243  2.0229
 3763SOL     vw15052   0.839   6.696   0.910 -0.2263  0.2127  0.4269
 3764SOL     ow15053   6.142   5.657   2.013 -0.0704 -0.1163 -0.3248
 3764SOL     hw15054   6.227   5.679   2.050 -0.8688  2.1018  0.3479
 3764SOL     hw15055   6.109   5.587   2.069  2.3026 -2.9010 -2.1308
 3764SOL     vw15056   6.149   5.651   2.025  0.1376 -0.1910 -0.4743
 3765SOL     ow15057   4.173   0.390   0.351 -0.0398 -0.4138 -0.0767
 3765SOL     hw15058   4.119   0.436   0.286  1.7480  0.9882 -0.6646
 3765SOL     hw15059   4.187   0.454   0.420 -0.4101 -1.2934  0.8356
 3765SOL     vw15060   4.168   0.405   0.352  0.1471 -0.3449 -0.0339
 3766SOL     ow15061   1.408   7.465   4.920  0.4436 -0.6222  0.2344
 3766SOL     hw15062   1.312   7.472   4.911  0.0524 -3.1278  1.7766
 3766SOL     hw15063   1.441   7.499   4.837 -1.8760 -1.5908 -1.1944
 3766SOL     vw15064   1.400   7.471   4.908  0.0860 -1.0805  0.2491
 3767SOL     ow15065   2.913   3.875   1.901 -0.5615 -0.2307 -0.0187
 3767SOL     hw15066   2.847   3.813   1.932 -0.4299 -0.1055  0.5209
 3767SOL     hw15067   2.979   3.820   1.859 -0.3108 -0.4862  0.6964
 3767SOL     vw15068   2.913   3.860   1.900 -0.5112 -0.2478  0.1469
 3768SOL     ow15069   1.747   1.155   1.672  0.2956 -0.2120 -0.0056
 3768SOL     hw15070   1.759   1.066   1.636  1.9682  0.1270 -0.3996
 3768SOL     hw15071   1.700   1.142   1.754 -0.5537 -1.3412 -0.6417
 3768SOL     vw15072   1.743   1.141   1.678  0.4042 -0.3163 -0.1415
 3769SOL     ow15073   3.742   6.760   3.508 -0.2784 -0.1605  0.6421
 3769SOL     hw15074   3.837   6.773   3.503 -0.5857  2.2017 -0.0770
 3769SOL     hw15075   3.717   6.795   3.593 -0.5679 -0.3300  0.6293
 3769SOL     vw15076   3.751   6.766   3.518 -0.3572  0.1287  0.5456
 3770SOL     ow15077   2.870   1.261   1.993 -0.2568 -0.5213  0.0706
 3770SOL     hw15078   2.814   1.339   1.997  0.2315 -0.1445 -0.3798
 3770SOL     hw15079   2.824   1.201   1.934 -0.3685 -0.3580 -0.0075
 3770SOL     vw15080   2.856   1.263   1.986 -0.2069 -0.4501  0.0009
 3771SOL     ow15081   0.216   5.247   7.308  0.0246  0.2291  0.1078
 3771SOL     hw15082   0.177   5.333   7.288  1.1591  0.3945 -1.6582
 3771SOL     hw15083   0.162   5.185   7.260 -0.5303 -0.0173  1.0316
 3771SOL     vw15084   0.204   5.250   7.299  0.1011  0.2182 -0.0033
 3772SOL     ow15085   3.074   7.543   4.568  0.4131  0.3237 -0.0247
 3772SOL     hw15086   3.084   7.618   4.626 -0.4867  0.5413 -0.1376
 3772SOL     hw15087   3.004   7.568   4.508  0.2750 -0.5116 -0.2250
 3772SOL     vw15088   3.066   7.556   4.568  0.2761  0.2422 -0.0658
 3773SOL     ow15089   2.567   0.810   3.185  0.4518 -0.5631  0.2701
 3773SOL     hw15090   2.633   0.871   3.217 -2.6588  1.9200  2.4978
 3773SOL     hw15091   2.542   0.845   3.099 -0.7068  0.9794  1.1691
 3773SOL     vw15092   2.572   0.823   3.178 -0.1115 -0.0320  0.6826
 3774SOL     ow15093   6.107   0.771   5.910  0.1552 -0.7486 -0.2043
 3774SOL     hw15094   6.100   0.795   6.002 -0.1503  2.0225 -0.8474
 3774SOL     hw15095   6.079   0.850   5.863  0.6634 -1.9490 -2.6681
 3774SOL     vw15096   6.103   0.785   5.916  0.1819 -0.5414 -0.6144
 3775SOL     ow15097   1.836   5.342   5.200  0.3725  0.1435  0.0692
 3775SOL     hw15098   1.927   5.359   5.174 -0.3840  1.6736 -1.8492
 3775SOL     hw15099   1.832   5.248   5.212  2.0975 -0.0253 -0.3191
 3775SOL     vw15100   1.848   5.332   5.198  0.5003  0.3233 -0.2348
 3776SOL     ow15101   0.711   4.620   6.239 -0.1942  0.3283  0.0909
 3776SOL     hw15102   0.790   4.570   6.260 -0.3417 -0.5896 -1.4431
 3776SOL     hw15103   0.648   4.593   6.306 -0.2562 -1.5526 -0.6585
 3776SOL     vw15104   0.713   4.610   6.251 -0.2218 -0.0408 -0.2105
 3777SOL     ow15105   6.379   5.998   4.045  0.3821 -0.6903  0.6931
 3777SOL     hw15106   6.464   6.042   4.055  0.1623 -0.3488  1.0726
 3777SOL     hw15107   6.354   6.016   3.954  0.4765 -0.3488  0.7307
 3777SOL     vw15108   6.387   6.006   4.034  0.3653 -0.6001  0.7482
 3778SOL     ow15109   6.745   0.610   4.636  0.6336  0.2055  0.1167
 3778SOL     hw15110   6.731   0.611   4.731 -0.5135  0.8065 -0.0309
 3778SOL     hw15111   6.676   0.667   4.602  0.6703 -0.4523 -1.1192
 3778SOL     vw15112   6.734   0.617   4.644  0.4871  0.1980 -0.0658
 3779SOL     ow15113   6.896   2.304   0.104 -0.1217 -0.2366 -0.5105
 3779SOL     hw15114   6.923   2.254   0.027  1.2970  1.3096 -1.0842
 3779SOL     hw15115   6.941   2.263   0.177 -1.0122 -1.3500 -0.5628
 3779SOL     vw15116   6.905   2.292   0.104 -0.0520 -0.1793 -0.5931
 3780SOL     ow15117   5.325   7.446   4.586 -0.3124  0.4609  0.7640
 3780SOL     hw15118   5.318   7.527   4.637 -2.8232 -0.1252  1.5310
 3780SOL     hw15119   5.235   7.429   4.556  0.2868 -1.6121 -0.0380
 3780SOL     vw15120   5.312   7.454   4.589 -0.5648  0.1099  0.7594
 3781SOL     ow15121   5.660   7.359   2.032 -0.6552  0.1772 -0.7972
 3781SOL     hw15122   5.590   7.303   2.064 -1.0708  1.8860  1.5372
 3781SOL     hw15123   5.732   7.298   2.011 -0.8679 -1.2610  2.1701
 3781SOL     vw15124   5.660   7.344   2.033 -0.7381  0.2131 -0.0976
 3782SOL     ow15125   4.466   6.911   1.616  0.8842  0.4064  0.5592
 3782SOL     hw15126   4.544   6.892   1.563  0.5349  2.0987 -0.6667
 3782SOL     hw15127   4.412   6.832   1.608  1.1149  0.3711 -1.1895
 3782SOL     vw15128   4.469   6.898   1.608  0.8686  0.6251  0.1667
 3783SOL     ow15129   7.452   0.327   0.390 -0.0236  0.3839  1.0974
 3783SOL     hw15130   7.409   0.410   0.408 -3.2681 -1.0938  0.8712
 3783SOL     hw15131   7.383   0.262   0.397  2.2950 -2.3070  0.9050
 3783SOL     vw15132   7.438   0.329   0.393 -0.1457 -0.1661  1.0422
 3784SOL     ow15133   6.195   6.942   5.388 -0.5605 -0.0915  0.3990
 3784SOL     hw15134   6.169   7.034   5.384  1.1261  0.3763 -2.7148
 3784SOL     hw15135   6.172   6.906   5.302  1.4508 -1.7729  0.4750
 3784SOL     vw15136   6.188   6.949   5.376 -0.0725 -0.2515 -0.0017
 3785SOL     ow15137   7.502   5.414   3.077  0.1384 -0.6573 -0.1956
 3785SOL     hw15138   7.474   5.364   3.000 -0.0704 -0.5243 -0.2062
 3785SOL     hw15139   7.537   5.347   3.137  0.6585 -0.7180 -0.5590
 3785SOL     vw15140   7.503   5.398   3.075  0.1795 -0.6478 -0.2450
 3786SOL     ow15141   2.068   1.186   4.275  0.8660 -0.3472 -0.6809
 3786SOL     hw15142   2.078   1.215   4.365  0.4530  2.0192 -1.3204
 3786SOL     hw15143   2.134   1.117   4.264  0.3610 -1.2876  1.6169
 3786SOL     vw15144   2.078   1.181   4.285  0.7448 -0.1591 -0.4621
 3787SOL     ow15145   3.654   2.918   0.639 -0.3478 -0.0653 -0.5479
 3787SOL     hw15146   3.680   2.837   0.595 -1.2726 -0.3459 -0.5947
 3787SOL     hw15147   3.627   2.890   0.727  3.1127  0.6842  0.9122
 3787SOL     vw15148   3.654   2.903   0.645 -0.0134 -0.0036 -0.3614
 3788SOL     ow15149   4.406   0.798   3.699 -0.3633 -0.0213 -0.3542
 3788SOL     hw15150   4.371   0.882   3.669 -0.8051  0.1173  0.5122
 3788SOL     hw15151   4.488   0.821   3.744 -1.2636  0.1648  1.2768
 3788SOL     vw15152   4.412   0.812   3.701 -0.5403  0.0215 -0.0247
 3789SOL     ow15153   2.360   0.099   1.827 -0.2894 -0.2533 -0.4874
 3789SOL     hw15154   2.416   0.145   1.765  0.3746 -1.0615 -0.5049
 3789SOL     hw15155   2.308   0.168   1.869  0.5789  0.4905 -0.6090
 3789SOL     vw15156   2.360   0.114   1.825 -0.0873 -0.2618 -0.5058
 3790SOL     ow15157   4.137   6.279   7.015  0.1044 -0.4312  0.2189
 3790SOL     hw15158   4.194   6.355   7.029  0.7472 -1.0150  0.7566
 3790SOL     hw15159   4.092   6.267   7.099 -0.1918 -0.5005  0.0534
 3790SOL     vw15160   4.138   6.288   7.028  0.1500 -0.5171  0.2682
 3791SOL     ow15161   6.905   5.253   4.765  0.3562  0.4537  0.2553
 3791SOL     hw15162   6.903   5.327   4.826  0.6961  2.0731 -1.5985
 3791SOL     hw15163   6.818   5.254   4.724  0.3418 -0.2324  0.2544
 3791SOL     vw15164   6.893   5.263   4.768  0.3994  0.5770  0.0103
 3792SOL     ow15165   1.527   2.237   6.015 -0.2395  0.3814 -0.2003
 3792SOL     hw15166   1.518   2.213   6.107 -2.0725  1.3600 -0.0770
 3792SOL     hw15167   1.576   2.319   6.016 -1.8440  1.3889  0.1014
 3792SOL     vw15168   1.532   2.245   6.027 -0.6931  0.6435 -0.1440
 3793SOL     ow15169   2.392   1.850   4.622 -0.6344  0.1508  0.4045
 3793SOL     hw15170   2.357   1.938   4.605  0.9625  0.8645  0.6308
 3793SOL     hw15171   2.397   1.810   4.535  0.0855  0.8785  0.0909
 3793SOL     vw15172   2.388   1.857   4.608 -0.3287  0.3410  0.3932
 3794SOL     ow15173   4.177   5.842   6.968  0.4785  0.2398  0.1359
 3794SOL     hw15174   4.256   5.804   7.007  2.5084  0.2596 -3.5427
 3794SOL     hw15175   4.124   5.767   6.942  0.5147  0.1734  0.2500
 3794SOL     vw15176   4.181   5.827   6.970  0.7510  0.2337 -0.3345
 3795SOL     ow15177   5.036   3.222   4.529 -0.0262 -0.4334 -0.0442
 3795SOL     hw15178   4.983   3.273   4.469 -1.1050  0.0925  1.3129
 3795SOL     hw15179   5.111   3.279   4.549 -0.1416 -0.2378 -0.1692
 3795SOL     vw15180   5.039   3.236   4.524 -0.1838 -0.3382  0.1185
 3796SOL     ow15181   4.799   7.620   4.564  0.0528 -0.3945 -0.3000
 3796SOL     hw15182   4.711   7.612   4.527  0.6228  1.6870 -2.3729
 3796SOL     hw15183   4.799   7.707   4.605  0.8247 -0.8241  0.6424
 3796SOL     vw15184   4.788   7.631   4.564  0.2301 -0.1764 -0.4489
 3797SOL     ow15185   2.433   7.192   5.356  0.2554  0.0380  0.1670
 3797SOL     hw15186   2.512   7.207   5.408  0.3445 -0.1629  0.0927
 3797SOL     hw15187   2.417   7.098   5.363  1.2548 -0.2978 -1.5388
 3797SOL     vw15188   2.442   7.181   5.364  0.3990 -0.0327 -0.0677
 3798SOL     ow15189   0.326   3.526   5.074  0.1597 -0.6767 -0.6313
 3798SOL     hw15190   0.418   3.549   5.092  0.1037 -1.4029  0.7025
 3798SOL     hw15191   0.331   3.454   5.012  0.4450  0.1443 -1.5861
 3798SOL     vw15192   0.339   3.520   5.068  0.1899 -0.6641 -0.5813
 3799SOL     ow15193   4.139   0.261   5.995  0.0551 -0.5270 -0.1920
 3799SOL     hw15194   4.095   0.199   5.937  0.2337 -1.4596  0.6322
 3799SOL     hw15195   4.111   0.235   6.083 -1.7584  2.0587  0.0982
 3799SOL     vw15196   4.130   0.249   5.999 -0.1607 -0.3089 -0.0451
 3800SOL     ow15197   3.204   0.570   1.116  0.1352 -0.0948 -0.1588
 3800SOL     hw15198   3.175   0.660   1.132  2.0773  0.5384  0.0990
 3800SOL     hw15199   3.205   0.562   1.021 -0.6314 -0.0534 -0.1717
 3800SOL     vw15200   3.201   0.581   1.105  0.2903 -0.0058 -0.1265
 3801SOL     ow15201   1.832   7.299   4.124  0.2731 -0.0143 -0.3349
 3801SOL     hw15202   1.804   7.302   4.032 -0.4434 -0.4551 -0.1416
 3801SOL     hw15203   1.760   7.340   4.172 -0.3207 -1.6319  0.2339
 3801SOL     vw15204   1.818   7.305   4.118  0.1003 -0.2859 -0.2346
 3802SOL     ow15205   6.924   4.890   6.398 -0.1073 -0.1427  0.0546
 3802SOL     hw15206   6.878   4.816   6.359  0.5144 -0.5570  0.0877
 3802SOL     hw15207   6.936   4.952   6.325  0.0502 -0.4172 -0.1541
 3802SOL     vw15208   6.920   4.889   6.383 -0.0043 -0.2334  0.0317
 3803SOL     ow15209   0.136   5.713   4.902 -0.6264  0.0793 -0.0813
 3803SOL     hw15210   0.070   5.728   4.835 -1.0736 -1.2323  0.0372
 3803SOL     hw15211   0.219   5.714   4.854 -0.7903  0.8691 -0.3672
 3803SOL     vw15212   0.138   5.715   4.887 -0.7070  0.0103 -0.1035
 3804SOL     ow15213   6.385   7.273   6.401 -0.2849  0.2267 -0.6206
 3804SOL     hw15214   6.398   7.241   6.491 -1.3593  0.4842 -0.3626
 3804SOL     hw15215   6.472   7.270   6.362  0.3568  0.8935  0.6917
 3804SOL     vw15216   6.398   7.268   6.408 -0.3419  0.3488 -0.4134
 3805SOL     ow15217   0.463   5.479   2.049  0.3688 -0.4152  0.2014
 3805SOL     hw15218   0.496   5.447   1.965  0.4636 -3.1683  1.1709
 3805SOL     hw15219   0.522   5.442   2.114 -0.6988  0.1989  1.5833
 3805SOL     vw15220   0.475   5.470   2.047  0.2405 -0.6974  0.5116
 3806SOL     ow15221   1.176   5.442   4.503  0.2824 -0.4255 -0.4241
 3806SOL     hw15222   1.214   5.380   4.565  0.2212 -2.2550 -2.1111
 3806SOL     hw15223   1.082   5.427   4.510  0.1345  0.7434  0.3726
 3806SOL     vw15224   1.169   5.432   4.512  0.2549 -0.5126 -0.5417
 3807SOL     ow15225   5.382   3.212   3.743 -0.8319  0.0100  0.2127
 3807SOL     hw15226   5.357   3.149   3.675 -2.7557  1.4361 -0.4891
 3807SOL     hw15227   5.373   3.164   3.825 -0.9438 -1.0118 -0.3755
 3807SOL     vw15228   5.378   3.197   3.745 -1.1005  0.0634  0.0426
 3808SOL     ow15229   1.243   5.978   1.376 -0.1706  0.4428 -0.3894
 3808SOL     hw15230   1.222   5.907   1.437 -0.8725  0.0197 -1.1021
 3808SOL     hw15231   1.158   6.002   1.339  0.1981  0.9667 -0.8996
 3808SOL     vw15232   1.229   5.972   1.379 -0.2146  0.4559 -0.5507
 3809SOL     ow15233   7.316   0.300   2.371 -0.4529 -0.2732  0.5475
 3809SOL     hw15234   7.373   0.295   2.294  0.7990  1.0005  1.3351
 3809SOL     hw15235   7.238   0.250   2.347 -0.3167  0.5034 -1.7184
 3809SOL     vw15236   7.313   0.292   2.358 -0.2699 -0.0026  0.3525
 3810SOL     ow15237   2.006   2.860   1.903  0.1080 -0.2294  0.3336
 3810SOL     hw15238   2.004   2.839   1.809  0.8934 -1.1638  0.5102
 3810SOL     hw15239   2.017   2.955   1.906  2.0264 -0.3677 -0.5694
 3810SOL     vw15240   2.007   2.869   1.891  0.4647 -0.3710  0.2378
 3811SOL     ow15241   5.150   5.757   5.348  0.0651 -0.0569  0.4168
 3811SOL     hw15242   5.218   5.714   5.400  0.3149  1.0383  1.0264
 3811SOL     hw15243   5.069   5.737   5.393  0.0922 -0.5015  0.2736
 3811SOL     vw15244   5.148   5.749   5.361  0.1018  0.0291  0.4783
 3812SOL     ow15245   1.990   0.225   4.727 -0.2578 -0.5620  0.1822
 3812SOL     hw15246   2.001   0.318   4.706  1.0593 -0.6520  0.3342
 3812SOL     hw15247   2.053   0.180   4.670 -2.3575 -1.6104 -1.4408
 3812SOL     vw15248   2.000   0.231   4.717 -0.3612 -0.7122 -0.0119
 3813SOL     ow15249   4.454   0.373   3.996  0.1857 -0.4688  0.5687
 3813SOL     hw15250   4.532   0.424   4.021 -0.5026  0.1271  1.5893
 3813SOL     hw15251   4.381   0.433   4.009 -0.6396 -1.6532  1.6637
 3813SOL     vw15252   4.455   0.388   4.001 -0.0141 -0.5465  0.8477
 3814SOL     ow15253   7.036   4.727   7.417 -0.2146  0.2280  0.0006
 3814SOL     hw15254   7.036   4.639   7.454 -0.6933  0.1275 -0.2284
 3814SOL     hw15255   6.985   4.719   7.336  0.0307  0.6402 -0.1985
 3814SOL     vw15256   7.029   4.714   7.411 -0.2453  0.2692 -0.0560
 3815SOL     ow15257   4.121   2.329   1.926  0.0603  1.0150  0.0446
 3815SOL     hw15258   4.137   2.381   2.005  2.5334 -0.4218  0.6114
 3815SOL     hw15259   4.167   2.375   1.856  0.9261  0.4431  0.2232
 3815SOL     vw15260   4.129   2.342   1.927  0.5009  0.7501  0.1431
 3816SOL     ow15261   3.986   2.323   3.620  0.7579  0.2224 -0.4716
 3816SOL     hw15262   3.926   2.339   3.547  0.1477  2.6565  0.4635
 3816SOL     hw15263   4.060   2.277   3.580  0.8509  2.2280 -2.8504
 3816SOL     vw15264   3.988   2.319   3.605  0.6896  0.8082 -0.6620
 3817SOL     ow15265   6.358   3.916   5.934 -0.5978 -0.3708  0.4691
 3817SOL     hw15266   6.271   3.886   5.908 -0.7835  0.5302 -0.0030
 3817SOL     hw15267   6.381   3.861   6.009 -2.2724  0.4453  1.6551
 3817SOL     vw15268   6.349   3.905   5.940 -0.8430 -0.1442  0.5631
 3818SOL     ow15269   3.114   2.150   0.154 -0.1974  0.5317  0.2635
 3818SOL     hw15270   3.118   2.238   0.118 -0.5591  0.2496 -0.4941
 3818SOL     hw15271   3.028   2.117   0.127 -0.5157  0.3397  1.4696
 3818SOL     vw15272   3.103   2.157   0.146 -0.2871  0.4691  0.3227
 3819SOL     ow15273   0.054   2.131   6.676  0.3902 -0.6029  0.0891
 3819SOL     hw15274  -0.039   2.139   6.654  0.3944 -1.3288 -0.1918
 3819SOL     hw15275   0.056   2.069   6.749  0.4663  1.0583  1.5807
 3819SOL     vw15276   0.042   2.124   6.683  0.4008 -0.4795  0.2489
 3820SOL     ow15277   0.067   5.176   6.044 -0.5581  0.1960 -0.2551
 3820SOL     hw15278   0.012   5.225   6.106  1.4067 -2.2746  3.9273
 3820SOL     hw15279   0.071   5.088   6.081  3.1622 -0.7200 -2.3328
 3820SOL     vw15280   0.060   5.171   6.057  0.1920 -0.2506  0.0224
 3821SOL     ow15281   7.030   0.157   6.429  1.0793  0.3172  0.7853
 3821SOL     hw15282   7.064   0.160   6.340 -1.1401 -2.3208 -0.2457
 3821SOL     hw15283   7.085   0.092   6.473  1.4063  0.7421  1.0134
 3821SOL     vw15284   7.042   0.149   6.423  0.8297  0.0252  0.6795
 3822SOL     ow15285   5.241   0.493   1.164 -0.1213 -0.6893  0.5395
 3822SOL     hw15286   5.179   0.422   1.147 -0.0704 -0.1541 -2.5630
 3822SOL     hw15287   5.217   0.561   1.101  0.6640  1.5447  2.4971
 3822SOL     vw15288   5.230   0.492   1.153 -0.0107 -0.3240  0.3883
 3823SOL     ow15289   2.326   3.916   4.419  0.4785  0.2314  0.3980
 3823SOL     hw15290   2.285   3.831   4.408  0.9460 -0.2030  1.8445
 3823SOL     hw15291   2.254   3.979   4.415  0.1161 -0.2190 -0.5095
 3823SOL     vw15292   2.311   3.913   4.417  0.4922  0.1146  0.4694
 3824SOL     ow15293   1.621   1.101   1.217 -0.1717 -0.2114  0.0054
 3824SOL     hw15294   1.689   1.044   1.256 -2.0360 -2.7189 -0.1221
 3824SOL     hw15295   1.565   1.040   1.168 -2.1062  1.8462 -0.4729
 3824SOL     vw15296   1.623   1.085   1.216 -0.6729 -0.2708 -0.0746
 3825SOL     ow15297   5.310   7.181   7.247  0.0446 -0.3792  0.4023
 3825SOL     hw15298   5.227   7.151   7.283  0.3977 -0.6926  0.9675
 3825SOL     hw15299   5.355   7.100   7.221 -0.6970 -0.1296 -1.8929
 3825SOL     vw15300   5.305   7.166   7.248 -0.0067 -0.3879  0.1740
 3826SOL     ow15301   7.575   5.116   6.804  0.0145 -0.2975 -0.5291
 3826SOL     hw15302   7.533   5.075   6.729  1.1886 -0.2040 -1.2566
 3826SOL     hw15303   7.529   5.200   6.815 -0.4525 -0.5083 -0.8445
 3826SOL     vw15304   7.563   5.122   6.796  0.1075 -0.3130 -0.6666
 3827SOL     ow15305   0.713   6.838   2.838 -0.3395  0.3347  0.0406
 3827SOL     hw15306   0.806   6.838   2.858 -0.3418  0.0075  0.0690
 3827SOL     hw15307   0.707   6.790   2.755 -0.7948 -2.7683  1.7106
 3827SOL     vw15308   0.724   6.831   2.830 -0.3999 -0.1180  0.2649
 3828SOL     ow15309   3.403   3.196   2.381  0.1927  0.5854 -0.0257
 3828SOL     hw15310   3.497   3.183   2.380  0.0126 -1.3903  1.7044
 3828SOL     hw15311   3.383   3.223   2.471 -0.8166  1.7712 -0.5785
 3828SOL     vw15312   3.412   3.198   2.393  0.0358  0.4810  0.1296
 3829SOL     ow15313   7.585   1.403   0.304  0.4106 -0.2502 -0.3830
 3829SOL     hw15314   7.506   1.372   0.260 -0.3629  1.2749 -0.1088
 3829SOL     hw15315   7.610   1.481   0.255  2.1411 -1.0516 -0.8586
 3829SOL     vw15316   7.578   1.409   0.291  0.5367 -0.1547 -0.4095
 3830SOL     ow15317   4.910   0.166   2.033  0.2822 -0.5334 -0.0791
 3830SOL     hw15318   4.963   0.222   2.090  0.5106  1.9749 -2.5213
 3830SOL     hw15319   4.837   0.138   2.087  1.0227  0.8215  1.7152
 3830SOL     vw15320   4.908   0.170   2.047  0.4103 -0.0237 -0.1646
 3831SOL     ow15321   3.990   7.520   0.539 -0.4710 -0.3175  0.3003
 3831SOL     hw15322   3.917   7.470   0.576 -0.5443 -1.0717 -0.8042
 3831SOL     hw15323   4.067   7.468   0.561 -0.2998  0.2711  1.1158
 3831SOL     vw15324   3.990   7.506   0.547 -0.4580 -0.3393  0.2622
 3832SOL     ow15325   2.453   7.223   3.821  0.3221 -0.2235  0.4335
 3832SOL     hw15326   2.532   7.205   3.871 -0.1183 -0.3477  1.0954
 3832SOL     hw15327   2.424   7.309   3.852 -0.3631 -0.6296  0.9393
 3832SOL     vw15328   2.459   7.232   3.832  0.1736 -0.2935  0.5875
 3833SOL     ow15329   5.906   2.685   7.563  0.1479  0.1854 -0.8269
 3833SOL     hw15330   5.966   2.698   7.636 -2.7078  2.0437  1.4113
 3833SOL     hw15331   5.897   2.771   7.523 -2.5415  0.4942  0.2694
 3833SOL     vw15332   5.913   2.698   7.567 -0.5839  0.4711 -0.3870
 3834SOL     ow15333   5.564   6.463   3.932  0.3971  0.4292 -0.5796
 3834SOL     hw15334   5.623   6.388   3.926  1.2653  0.9480  0.8822
 3834SOL     hw15335   5.483   6.426   3.967  0.4849  0.0143 -0.8012
 3834SOL     vw15336   5.561   6.448   3.936  0.5231  0.4432 -0.4159
 3835SOL     ow15337   1.798   1.134   2.683 -0.0579  0.2720  0.0067
 3835SOL     hw15338   1.810   1.171   2.771  1.5078 -0.1572  0.0179
 3835SOL     hw15339   1.707   1.104   2.682  0.1915 -0.7714  1.9309
 3835SOL     vw15340   1.788   1.135   2.695  0.1816  0.0777  0.2620
 3836SOL     ow15341   5.477   2.224   5.706 -0.3040  0.6027  0.2115
 3836SOL     hw15342   5.489   2.318   5.719 -0.1218  0.4239  1.3709
 3836SOL     hw15343   5.389   2.206   5.739 -0.6895  0.5079 -0.8317
 3836SOL     vw15344   5.467   2.234   5.712 -0.3307  0.5666  0.2267
 3837SOL     ow15345   7.220   6.684   1.559  0.1184  0.1249  0.0681
 3837SOL     hw15346   7.154   6.625   1.596  0.4050 -0.0961  0.2239
 3837SOL     hw15347   7.294   6.679   1.619 -0.4807  1.9763  1.0746
 3837SOL     vw15348   7.221   6.676   1.572  0.0768  0.3397  0.2215
 3838SOL     ow15349   6.293   1.483   3.314  0.2174 -0.7812 -0.9155
 3838SOL     hw15350   6.271   1.522   3.399 -2.0046 -3.7519  0.0747
 3838SOL     hw15351   6.216   1.498   3.260  1.8720  1.6616 -2.7748
 3838SOL     vw15352   6.280   1.490   3.318  0.1421 -0.8510 -1.0302
 3839SOL     ow15353   1.256   4.581   1.393  0.1475 -0.3706 -0.2133
 3839SOL     hw15354   1.227   4.517   1.328 -2.2623 -0.1566  0.5521
 3839SOL     hw15355   1.190   4.576   1.462 -0.7255  3.5865 -0.5617
 3839SOL     vw15356   1.244   4.572   1.393 -0.2857  0.1800 -0.1583
 3840SOL     ow15357   2.785   3.422   2.366  0.4269 -0.2640 -0.1406
 3840SOL     hw15358   2.739   3.496   2.327  0.7783 -0.8713 -1.7810
 3840SOL     hw15359   2.867   3.415   2.316  1.2546 -0.6111  1.2193
 3840SOL     vw15360   2.790   3.431   2.354  0.5826 -0.3899 -0.1775
 3841SOL     ow15361   7.006   2.979   0.274  0.1590  0.6979 -0.5657
 3841SOL     hw15362   7.052   3.062   0.282 -1.9229  1.7553  1.1976
 3841SOL     hw15363   7.004   2.943   0.362  1.2869 -1.4408 -1.3285
 3841SOL     vw15364   7.012   2.985   0.286  0.0334  0.5553 -0.4337
 3842SOL     ow15365   4.392   1.485   3.039  0.3144 -0.4910  0.5711
 3842SOL     hw15366   4.398   1.573   3.075 -1.3473  0.0519 -0.3473
 3842SOL     hw15367   4.482   1.459   3.022  0.8766  0.7108  1.5745
 3842SOL     vw15368   4.404   1.493   3.041  0.1693 -0.2608  0.5822
 3843SOL     ow15369   1.965   1.180   6.106  0.2267  0.1784 -0.0933
 3843SOL     hw15370   2.030   1.199   6.174 -1.2593  0.1077  1.4092
 3843SOL     hw15371   1.952   1.086   6.111 -0.4628  0.2793  0.0680
 3843SOL     vw15372   1.972   1.170   6.116 -0.0603  0.1823  0.1264
 3844SOL     ow15373   4.204   3.026   0.649  1.1535 -0.9081  0.1996
 3844SOL     hw15374   4.216   3.017   0.554  2.0742 -0.1044  0.2237
 3844SOL     hw15375   4.267   2.965   0.687  0.4979 -1.5283  0.2953
 3844SOL     vw15376   4.214   3.017   0.641  1.1885 -0.8838  0.2154
 3845SOL     ow15377   1.889   0.508   7.229 -0.4796 -0.8421  0.0664
 3845SOL     hw15378   1.927   0.538   7.312  1.0373 -0.0056 -0.8810
 3845SOL     hw15379   1.846   0.585   7.193 -0.2136 -0.9118 -0.4087
 3845SOL     vw15380   1.888   0.522   7.235 -0.2443 -0.7409 -0.1214
 3846SOL     ow15381   1.438   4.901   0.418  0.2489 -0.1383 -0.1508
 3846SOL     hw15382   1.351   4.868   0.396  0.7222 -0.7977 -1.0924
 3846SOL     hw15383   1.434   4.995   0.399 -0.7767  0.1948  1.5108
 3846SOL     vw15384   1.426   4.909   0.412  0.1760 -0.1812 -0.0558
 3847SOL     ow15385   5.698   5.565   7.356 -0.7508  0.0276  0.1885
 3847SOL     hw15386   5.779   5.601   7.391 -1.8218  1.6115  1.1697
 3847SOL     hw15387   5.667   5.630   7.293 -0.1642 -1.6178 -1.9357
 3847SOL     vw15388   5.704   5.578   7.352 -0.8147  0.0193  0.0377
 3848SOL     ow15389   3.131   0.837   2.095 -0.2024  0.2265  0.9734
 3848SOL     hw15390   3.173   0.755   2.068 -1.5131 -0.0889 -0.2137
 3848SOL     hw15391   3.047   0.810   2.133 -0.1393  0.9495  1.6471
 3848SOL     vw15392   3.125   0.823   2.096 -0.3669  0.2803  0.9058
 3849SOL     ow15393   3.109   5.474   2.800 -0.4954 -0.4624 -0.0854
 3849SOL     hw15394   3.083   5.554   2.846 -0.0363 -0.7895  0.7515
 3849SOL     hw15395   3.051   5.471   2.723  0.1560  1.2032 -0.6793
 3849SOL     vw15396   3.098   5.484   2.796 -0.3489 -0.2859 -0.0533
 3850SOL     ow15397   1.834   3.459   4.066 -0.3537 -0.0700  0.4961
 3850SOL     hw15398   1.798   3.547   4.076 -1.8916 -0.7453  1.1376
 3850SOL     hw15399   1.806   3.431   3.979 -0.5737 -0.2329  0.6181
 3850SOL     vw15400   1.826   3.467   4.056 -0.5857 -0.1806  0.5970
 3851SOL     ow15401   5.355   5.223   1.865 -0.4866 -0.2066  0.5037
 3851SOL     hw15402   5.293   5.187   1.801  0.8012 -1.6964  0.0228
 3851SOL     hw15403   5.332   5.315   1.872 -2.7501 -0.7033  0.3515
 3851SOL     vw15404   5.344   5.230   1.858 -0.6154 -0.4687  0.4202
 3852SOL     ow15405   2.448   1.787   4.859  0.7078 -0.3195  0.4271
 3852SOL     hw15406   2.523   1.728   4.863 -0.3803 -1.7510  0.4961
 3852SOL     hw15407   2.437   1.805   4.766  2.3079  1.5190  0.5342
 3852SOL     vw15408   2.456   1.781   4.847  0.7753 -0.2658  0.4501
 3853SOL     ow15409   0.583   4.945   4.298 -0.2366 -0.2265  0.2338
 3853SOL     hw15410   0.541   5.019   4.254 -0.6188  0.4042  1.5869
 3853SOL     hw15411   0.676   4.954   4.277 -0.0651  1.4929  1.4802
 3853SOL     vw15412   0.590   4.956   4.290 -0.2644  0.0832  0.5770
 3854SOL     ow15413   6.068   0.630   4.392 -0.9232  0.1116  0.0672
 3854SOL     hw15414   6.003   0.687   4.352 -0.6579 -1.2049 -2.4152
 3854SOL     hw15415   6.046   0.542   4.362  0.1523 -0.8009  1.7545
 3854SOL     vw15416   6.057   0.626   4.383 -0.7463 -0.1825 -0.0379
 3855SOL     ow15417   7.344   4.899   6.825  0.0231 -0.0699 -0.4084
 3855SOL     hw15418   7.296   4.981   6.811  0.4149  0.2762  0.2163
 3855SOL     hw15419   7.287   4.848   6.883  0.3265  0.2725  0.1989
 3855SOL     vw15420   7.330   4.903   6.831  0.1149  0.0210 -0.2460
 3856SOL     ow15421   5.595   1.921   5.108 -0.8465 -0.5626  0.4633
 3856SOL     hw15422   5.501   1.936   5.101 -1.1407 -2.0860  0.7636
 3856SOL     hw15423   5.623   1.980   5.178 -0.8283  2.6930 -2.0805
 3856SOL     vw15424   5.586   1.931   5.117 -0.8829 -0.3340  0.1674
 3857SOL     ow15425   0.640   1.025   2.353  0.2275  0.4635  0.6463
 3857SOL     hw15426   0.559   1.057   2.394 -1.4203  0.0061 -1.9979
 3857SOL     hw15427   0.683   0.974   2.421 -1.8133  0.5523  2.1007
 3857SOL     vw15428   0.635   1.023   2.368 -0.2591  0.4148  0.4894
 3858SOL     ow15429   5.009   2.955   4.420 -0.5404  0.0546 -0.1956
 3858SOL     hw15430   4.981   3.004   4.342  2.5849  0.6097 -1.1271
 3858SOL     hw15431   5.083   2.901   4.389  0.8219  0.3030  2.3499
 3858SOL     vw15432   5.015   2.954   4.405  0.0517  0.1607  0.0176
 3859SOL     ow15433   3.855   6.289   0.737 -0.1784 -0.8982 -0.0715
 3859SOL     hw15434   3.845   6.228   0.810 -2.2241 -0.9572 -0.3506
 3859SOL     hw15435   3.944   6.275   0.706  0.6783 -1.0322  2.2447
 3859SOL     vw15436   3.865   6.279   0.743 -0.3353 -0.9239  0.1973
 3860SOL     ow15437   5.144   4.725   3.511 -0.1060  0.2254  0.1678
 3860SOL     hw15438   5.196   4.647   3.494  0.6114  0.6766  0.2574
 3860SOL     hw15439   5.130   4.726   3.605  0.6637  0.6858  0.2819
 3860SOL     vw15440   5.149   4.715   3.521  0.0904  0.3457  0.1948
 3861SOL     ow15441   3.038   7.116   1.690 -0.5009 -0.3669  0.2554
 3861SOL     hw15442   3.065   7.206   1.669 -0.5594  0.6411  3.9040
 3861SOL     hw15443   2.959   7.103   1.638  0.8589  0.6795 -2.2801
 3861SOL     vw15444   3.031   7.127   1.680 -0.3291 -0.0958  0.4022
 3862SOL     ow15445   2.127   4.341   6.601  0.0283  1.0930 -0.1354
 3862SOL     hw15446   2.153   4.391   6.679 -1.3347  0.6177  0.6784
 3862SOL     hw15447   2.045   4.382   6.573 -0.5352  0.0313 -0.1096
 3862SOL     vw15448   2.120   4.353   6.608 -0.2259  0.8903 -0.0246
 3863SOL     ow15449   4.256   1.187   5.995 -0.1295 -0.2708  0.4579
 3863SOL     hw15450   4.304   1.147   5.923  1.4032  0.8505  0.7925
 3863SOL     hw15451   4.208   1.260   5.955 -0.5960 -0.6587  0.3110
 3863SOL     vw15452   4.256   1.192   5.980  0.0112 -0.1740  0.4828
 3864SOL     ow15453   6.745   5.174   0.047 -0.2900  0.3808 -0.1964
 3864SOL     hw15454   6.778   5.172   0.137 -0.1397  1.6340 -0.2126
 3864SOL     hw15455   6.663   5.125   0.051 -0.4554  0.7114  0.6973
 3864SOL     vw15456   6.738   5.167   0.060 -0.2921  0.5898 -0.0806
 3865SOL     ow15457   1.670   1.461   1.701 -0.4306 -0.0968 -0.0059
 3865SOL     hw15458   1.601   1.517   1.735  0.3118  1.0187 -0.2753
 3865SOL     hw15459   1.746   1.481   1.756  0.0596 -0.2694 -0.6104
 3865SOL     vw15460   1.671   1.471   1.713 -0.2680  0.0276 -0.1211
 3866SOL     ow15461   4.082   0.805   1.530 -0.2610  0.0364  0.1922
 3866SOL     hw15462   4.054   0.824   1.440  1.0223  0.7321 -0.0863
 3866SOL     hw15463   4.008   0.758   1.569 -1.2659  0.6566 -0.8997
 3866SOL     vw15464   4.069   0.802   1.524 -0.2244  0.2100  0.0114
 3867SOL     ow15465   4.452   4.124   3.521  0.1791  0.5888 -0.4702
 3867SOL     hw15466   4.468   4.104   3.613 -0.7739  3.3606  0.4167
 3867SOL     hw15467   4.455   4.220   3.517 -3.1601  0.7655 -2.5953
 3867SOL     vw15468   4.454   4.134   3.533 -0.3872  0.9778 -0.6336
 3868SOL     ow15469   1.156   7.262   0.524  0.0859 -0.8810 -0.3654
 3868SOL     hw15470   1.237   7.214   0.540  0.8785  0.4173 -0.3674
 3868SOL     hw15471   1.117   7.220   0.447  0.8839 -1.3455 -0.5201
 3868SOL     vw15472   1.161   7.250   0.516  0.2958 -0.7710 -0.3860
 3869SOL     ow15473   3.235   7.404   4.397  0.3532 -0.9863  0.2631
 3869SOL     hw15474   3.191   7.452   4.468  0.5530 -0.3153 -0.0521
 3869SOL     hw15475   3.250   7.317   4.432  0.8346 -0.5358  1.2034
 3869SOL     vw15476   3.231   7.399   4.411  0.4431 -0.8385  0.3455
 3870SOL     ow15477   0.281   7.620   4.315 -0.0956 -0.3311  0.0264
 3870SOL     hw15478   0.335   7.664   4.250 -0.3411  0.6942  0.4990
 3870SOL     hw15479   0.233   7.553   4.266  0.5889 -0.3455 -0.6288
 3870SOL     vw15480   0.282   7.617   4.300 -0.0377 -0.1979  0.0026
 3871SOL     ow15481   5.522   3.613   7.185  0.5360  0.0833  0.5893
 3871SOL     hw15482   5.612   3.607   7.217  1.1036 -1.5507 -1.1391
 3871SOL     hw15483   5.528   3.590   7.092 -1.4049  1.9289 -0.0713
 3871SOL     vw15484   5.535   3.609   7.177  0.3548  0.1112  0.2742
 3872SOL     ow15485   4.287   5.918   0.347 -0.2013  0.0822 -0.1439
 3872SOL     hw15486   4.277   5.971   0.426  0.4973 -1.2241  0.8457
 3872SOL     hw15487   4.373   5.942   0.312 -0.3017  0.2950 -0.2535
 3872SOL     vw15488   4.297   5.928   0.353 -0.1221 -0.0622 -0.0278
 3873SOL     ow15489   1.134   2.401   5.762 -0.0663  0.4556  0.1507
 3873SOL     hw15490   1.094   2.402   5.849  0.5233 -0.3597  0.4342
 3873SOL     hw15491   1.123   2.312   5.731 -0.9288  0.9116 -0.9359
 3873SOL     vw15492   1.127   2.390   5.769 -0.1023  0.4083  0.0446
 3874SOL     ow15493   5.720   0.715   1.433 -0.5396 -0.1534 -0.4253
 3874SOL     hw15494   5.798   0.744   1.479  0.6976 -2.4533 -0.9390
 3874SOL     hw15495   5.690   0.637   1.481 -2.7424  0.8348 -0.0518
 3874SOL     vw15496   5.726   0.708   1.445 -0.6671 -0.3265 -0.4439
 3875SOL     ow15497   6.084   5.153   6.054 -0.0015 -0.6374  0.9775
 3875SOL     hw15498   6.053   5.241   6.072 -1.5381 -0.5947 -1.2987
 3875SOL     hw15499   6.091   5.150   5.958  0.3760 -2.8568  1.0243
 3875SOL     vw15500   6.081   5.164   6.043 -0.1545 -0.9248  0.6833
 3876SOL     ow15501   0.258   1.803   4.799  0.0547  0.5512 -0.8229
 3876SOL     hw15502   0.206   1.724   4.812  1.3229 -0.2552 -0.4499
 3876SOL     hw15503   0.338   1.771   4.757  1.1243  1.4655  0.4799
 3876SOL     vw15504   0.262   1.788   4.795  0.3632  0.5655 -0.6015
 3877SOL     ow15505   7.118   0.659   2.800  0.4890  0.5393  0.5472
 3877SOL     hw15506   7.026   0.662   2.828 -0.5591 -1.0372 -2.3389
 3877SOL     hw15507   7.140   0.750   2.780 -1.1216  0.7219 -0.5552
 3877SOL     vw15508   7.109   0.672   2.801  0.1383  0.3554  0.0209
 3878SOL     ow15509   6.287   6.063   2.862 -0.5884 -0.6580 -0.9215
 3878SOL     hw15510   6.274   6.129   2.793  2.0143 -1.5477 -2.4135
 3878SOL     hw15511   6.340   6.109   2.928 -2.2059 -0.1197  0.0583
 3878SOL     vw15512   6.292   6.078   2.861 -0.4582 -0.7045 -0.9891
 3879SOL     ow15513   5.325   1.823   4.443 -0.0760 -0.2607 -0.1615
 3879SOL     hw15514   5.380   1.745   4.438  2.0301  1.2105 -1.6314
 3879SOL     hw15515   5.374   1.883   4.500 -1.5905  0.0911  0.8385
 3879SOL     vw15516   5.339   1.821   4.450  0.0021 -0.0202 -0.2236
 3880SOL     ow15517   5.271   0.892   1.260 -0.8368  0.1303  0.0506
 3880SOL     hw15518   5.178   0.910   1.268 -0.9913 -0.3169 -0.6401
 3880SOL     hw15519   5.312   0.978   1.259 -0.9472  0.3330  3.2110
 3880SOL     vw15520   5.264   0.905   1.261 -0.8717  0.0981  0.3763
 3881SOL     ow15521   6.568   5.243   6.842 -0.0542  0.0965 -0.7639
 3881SOL     hw15522   6.486   5.233   6.890  0.3369 -0.7450 -0.2384
 3881SOL     hw15523   6.557   5.323   6.791 -2.1671 -1.2784 -2.6553
 3881SOL     vw15524   6.556   5.252   6.842 -0.2813 -0.1957 -0.9441
 3882SOL     ow15525   4.236   5.046   5.938 -0.6061 -0.5631 -0.2719
 3882SOL     hw15526   4.148   5.066   5.906 -0.9611  0.8382  1.3970
 3882SOL     hw15527   4.225   4.965   5.988 -0.6189 -1.1861 -1.2530
 3882SOL     vw15528   4.223   5.038   5.941 -0.6547 -0.4601 -0.1812
 3883SOL     ow15529   4.850   3.743   6.657 -0.4547  0.3835  0.3702
 3883SOL     hw15530   4.897   3.825   6.674 -0.0477  0.3238 -0.3979
 3883SOL     hw15531   4.761   3.771   6.633 -0.4002  0.5860  0.4034
 3883SOL     vw15532   4.844   3.758   6.656 -0.3939  0.4023  0.2732
 3884SOL     ow15533   7.156   6.767   2.589  1.0901  0.3863  0.9893
 3884SOL     hw15534   7.085   6.715   2.552  1.1354 -0.3357  1.8820
 3884SOL     hw15535   7.124   6.857   2.587  1.1257  0.3912 -0.8456
 3884SOL     vw15536   7.142   6.772   2.584  1.1005  0.2918  0.8651
 3885SOL     ow15537   7.636   5.581   2.857 -0.1855  0.1581  0.6721
 3885SOL     hw15538   7.582   5.577   2.777  0.5052 -4.0450  0.1715
 3885SOL     hw15539   7.725   5.566   2.826 -0.0455 -2.8478  2.2086
 3885SOL     vw15540   7.641   5.579   2.842 -0.0758 -0.7930  0.8088
 3886SOL     ow15541   6.957   4.328   3.634 -0.2835 -0.3637  0.1147
 3886SOL     hw15542   6.957   4.362   3.544  1.6253 -1.9548 -0.5696
 3886SOL     hw15543   6.917   4.397   3.686  1.2429  1.9151 -1.5290
 3886SOL     vw15544   6.952   4.342   3.629  0.1698 -0.2730 -0.1924
 3887SOL     ow15545   6.395   1.892   7.503 -0.4061  0.0032  0.0761
 3887SOL     hw15546   6.373   1.918   7.593  0.2122  1.6251 -0.2146
 3887SOL     hw15547   6.320   1.840   7.474 -0.6933 -0.4079  1.4611
 3887SOL     vw15548   6.383   1.888   7.511 -0.3626  0.1630  0.2205
 3888SOL     ow15549   6.257   5.958   5.531 -0.2400 -0.6168  0.7695
 3888SOL     hw15550   6.297   6.006   5.604 -1.1851 -0.1540  1.0013
 3888SOL     hw15551   6.171   5.931   5.565 -0.4496 -0.9062  0.0175
 3888SOL     vw15552   6.251   5.961   5.545 -0.3924 -0.5939  0.7010
 3889SOL     ow15553   4.786   6.904   3.482 -0.0949  0.0612  0.5060
 3889SOL     hw15554   4.705   6.859   3.459 -0.6304  0.4074  1.6234
 3889SOL     hw15555   4.855   6.838   3.467 -0.5977 -0.3038 -0.2466
 3889SOL     vw15556   4.784   6.889   3.477 -0.2320  0.0589  0.5541
 3890SOL     ow15557   2.033   2.554   5.023  0.3045 -0.1611 -0.3987
 3890SOL     hw15558   2.035   2.570   5.117  1.9235  0.3001 -0.4828
 3890SOL     hw15559   1.944   2.576   4.997 -0.1733 -0.3160  1.0215
 3890SOL     vw15560   2.022   2.559   5.032  0.4551 -0.1206 -0.2222
 3891SOL     ow15561   5.526   7.639   4.976 -1.2506 -0.3514  0.1312
 3891SOL     hw15562   5.527   7.688   4.894  3.0107 -1.0465 -0.4554
 3891SOL     hw15563   5.549   7.549   4.951  2.2201 -0.1818  2.0987
 3891SOL     vw15564   5.529   7.633   4.962 -0.2306 -0.4207  0.3133
 3892SOL     ow15565   4.648   5.343   6.075 -0.0937 -0.4524  0.0884
 3892SOL     hw15566   4.700   5.399   6.133  0.6785 -0.1682 -0.8627
 3892SOL     hw15567   4.711   5.282   6.037 -0.3447  0.2003 -1.4513
 3892SOL     vw15568   4.663   5.342   6.078 -0.0250 -0.3288 -0.2401
 3893SOL     ow15569   7.519   0.398   0.092 -0.0194  0.0715 -0.1467
 3893SOL     hw15570   7.533   0.324   0.032  1.0161 -0.8697  1.1983
 3893SOL     hw15571   7.467   0.361   0.164 -0.5249  0.9698 -0.0309
 3893SOL     vw15572   7.514   0.383   0.094  0.0505  0.0658  0.0461
 3894SOL     ow15573   6.855   4.663   7.195 -0.0145 -0.2356  0.2851
 3894SOL     hw15574   6.921   4.618   7.143 -1.0545 -2.7085  0.9498
 3894SOL     hw15575   6.789   4.596   7.213 -1.0691  1.2572  2.4249
 3894SOL     vw15576   6.855   4.648   7.190 -0.2911 -0.3650  0.6552
 3895SOL     ow15577   6.437   3.625   2.413  0.1645  0.6946  0.1996
 3895SOL     hw15578   6.527   3.597   2.432 -1.0252 -3.3052  0.8705
 3895SOL     hw15579   6.424   3.603   2.321  0.4693  3.4686 -0.5963
 3895SOL     vw15580   6.447   3.619   2.403  0.0479  0.5329  0.1830
 3896SOL     ow15581   4.952   1.464   5.851  0.3325  0.3160  0.2970
 3896SOL     hw15582   4.870   1.513   5.844 -0.9656 -1.6285  0.8080
 3896SOL     hw15583   5.013   1.509   5.792 -1.2258  1.5879 -0.4183
 3896SOL     vw15584   4.949   1.476   5.842 -0.0443  0.2272  0.2701
 3897SOL     ow15585   4.091   5.549   3.329  1.1509  0.4840  0.6568
 3897SOL     hw15586   4.001   5.581   3.330  0.4126 -1.4505 -0.4591
 3897SOL     hw15587   4.135   5.603   3.263  0.7580  1.2072  0.9676
 3897SOL     vw15588   4.085   5.560   3.321  1.0016  0.3242  0.5506
 3898SOL     ow15589   3.891   6.843   7.508  0.5059 -0.2205 -1.0086
 3898SOL     hw15590   3.841   6.859   7.587  1.4856 -0.0717 -0.4069
 3898SOL     hw15591   3.930   6.756   7.520  2.4199  0.6728 -0.3329
 3898SOL     vw15592   3.890   6.834   7.520  0.8876 -0.0832 -0.8400
 3899SOL     ow15593   0.438   5.612   1.677  0.1873 -0.6374 -0.0950
 3899SOL     hw15594   0.378   5.586   1.607  0.1980 -0.2972 -0.2341
 3899SOL     hw15595   0.507   5.545   1.676 -0.4891 -1.3450  0.4455
 3899SOL     vw15596   0.439   5.600   1.667  0.0994 -0.6859 -0.0420
 3900SOL     ow15597   6.311   6.797   1.150  0.1429  0.0437  0.0435
 3900SOL     hw15598   6.261   6.717   1.163  0.1689  0.2069  1.2029
 3900SOL     hw15599   6.246   6.864   1.129 -0.2163  0.3491  1.9510
 3900SOL     vw15600   6.296   6.795   1.149  0.0989  0.1056  0.4482
 3901SOL     ow15601   0.278   3.996   1.387 -0.6298  0.2765 -0.1573
 3901SOL     hw15602   0.292   3.938   1.462  1.6161 -0.0498 -0.7676
 3901SOL     hw15603   0.189   3.975   1.358 -0.7858 -1.0580  1.1503
 3901SOL     vw15604   0.268   3.985   1.393 -0.3541  0.0572 -0.0652
 3902SOL     ow15605   0.777   2.370   5.552  0.0466  0.0433  0.2980
 3902SOL     hw15606   0.794   2.431   5.480 -3.6092 -0.2833 -1.0485
 3902SOL     hw15607   0.762   2.286   5.509  1.3388 -1.0248  1.8192
 3902SOL     vw15608   0.778   2.367   5.537 -0.2653 -0.1408  0.3211
 3903SOL     ow15609   3.204   0.507   1.401  0.6828  0.6186  0.3703
 3903SOL     hw15610   3.118   0.476   1.430  0.6877  0.1829 -0.0579
 3903SOL     hw15611   3.235   0.563   1.472 -0.2649  1.3525  0.2117
 3903SOL     vw15612   3.197   0.510   1.414  0.5584  0.6579  0.2930
 3904SOL     ow15613   7.536   3.008   5.453  0.2591  0.8244 -0.8118
 3904SOL     hw15614   7.445   3.033   5.470  0.1020 -0.5460  0.5261
 3904SOL     hw15615   7.533   2.963   5.368 -0.9720 -2.1991  0.6982
 3904SOL     vw15616   7.524   3.006   5.444  0.0761  0.2446 -0.4361
 3905SOL     ow15617   3.490   0.273   2.646  0.3475 -0.4601 -0.4143
 3905SOL     hw15618   3.492   0.286   2.741  1.7008 -0.8739 -0.3711
 3905SOL     hw15619   3.582   0.259   2.622 -0.1857 -2.4716 -1.4922
 3905SOL     vw15620   3.503   0.273   2.656  0.4559 -0.7801 -0.5509
 3906SOL     ow15621   1.101   0.502   3.322 -0.3615  0.0226 -0.4770
 3906SOL     hw15622   1.172   0.556   3.286  0.2080 -0.9101 -0.7818
 3906SOL     hw15623   1.037   0.565   3.354  0.2474  0.8812 -0.9153
 3906SOL     vw15624   1.102   0.518   3.321 -0.2060  0.0128 -0.5749
 3907SOL     ow15625   6.716   3.529   0.548  0.1778 -0.1542 -0.5150
 3907SOL     hw15626   6.685   3.548   0.637 -2.9215 -1.4706 -1.1874
 3907SOL     hw15627   6.758   3.444   0.554  0.2696 -0.0878 -0.2305
 3907SOL     vw15628   6.717   3.520   0.560 -0.2189 -0.3191 -0.5662
 3908SOL     ow15629   5.694   4.665   6.132 -0.2015  0.4413 -0.2185
 3908SOL     hw15630   5.772   4.720   6.140 -0.4157  1.1595 -2.4569
 3908SOL     hw15631   5.621   4.726   6.134 -0.4455  0.3211 -2.6653
 3908SOL     vw15632   5.695   4.680   6.133 -0.2618  0.5200 -0.8366
 3909SOL     ow15633   2.116   6.753   1.002 -0.6662 -0.4156 -0.6105
 3909SOL     hw15634   2.124   6.849   1.000 -1.1601 -0.1109  3.2561
 3909SOL     hw15635   2.066   6.736   1.082  3.0119 -4.0218  1.2749
 3909SOL     vw15636   2.110   6.764   1.012 -0.2460 -0.8512  0.1484
 3910SOL     ow15637   4.521   3.599   5.251 -0.2637 -0.4358  0.1910
 3910SOL     hw15638   4.560   3.669   5.303  0.9351  0.0440 -1.2859
 3910SOL     hw15639   4.580   3.524   5.262 -0.2833 -0.4927 -0.0742
 3910SOL     vw15640   4.534   3.598   5.259 -0.1085 -0.3799 -0.0391
 3911SOL     ow15641   6.001   0.588   5.731  0.0430 -0.4980  0.1293
 3911SOL     hw15642   6.042   0.640   5.800  1.5082  0.2127 -1.2241
 3911SOL     hw15643   6.049   0.505   5.731  0.1610 -0.4311 -0.1409
 3911SOL     vw15644   6.012   0.584   5.740  0.2520 -0.3954 -0.0849
 3912SOL     ow15645   0.118   0.451   6.901 -0.5637  0.7348 -0.6195
 3912SOL     hw15646   0.154   0.418   6.983  0.1266  2.3511 -0.2305
 3912SOL     hw15647   0.100   0.373   6.849  2.9986 -0.2339 -0.6059
 3912SOL     vw15648   0.120   0.436   6.905 -0.0026  0.8203 -0.5665
 3913SOL     ow15649   0.948   5.862   3.639 -0.4949 -0.1096 -0.1186
 3913SOL     hw15650   0.973   5.775   3.671 -0.1908 -0.0948 -0.3078
 3913SOL     hw15651   0.868   5.883   3.687 -1.0198 -0.8322 -0.6331
 3913SOL     vw15652   0.941   5.853   3.650 -0.5240 -0.2029 -0.2115
 3914SOL     ow15653   4.957   7.440   0.825 -0.0702  0.1792  0.1835
 3914SOL     hw15654   4.968   7.365   0.766 -0.3795  0.8911 -0.7982
 3914SOL     hw15655   5.032   7.497   0.807  0.8993 -0.4770  1.8732
 3914SOL     vw15656   4.969   7.438   0.815  0.0172  0.1864  0.2769
 3915SOL     ow15657   7.136   1.918   3.369  0.5337 -0.0172  0.7255
 3915SOL     hw15658   7.071   1.911   3.438 -0.3617 -1.9417 -0.2317
 3915SOL     hw15659   7.180   1.833   3.369  3.5386  1.3860  1.7277
 3915SOL     vw15660   7.133   1.906   3.378  0.8121 -0.0860  0.7315
 3916SOL     ow15661   4.331   6.103   0.551 -0.3760 -1.0416  0.2671
 3916SOL     hw15662   4.264   6.148   0.601 -1.6407 -0.5937 -1.6994
 3916SOL     hw15663   4.385   6.173   0.514  0.3090 -1.3480  0.6587
 3916SOL     vw15664   4.330   6.118   0.552 -0.4525 -1.0231  0.0593
 3917SOL     ow15665   4.417   1.504   4.534 -0.2272  0.1545  0.0732
 3917SOL     hw15666   4.364   1.468   4.462  1.3468  1.5455 -1.9014
 3917SOL     hw15667   4.353   1.549   4.590 -1.4389 -0.4288 -0.7886
 3917SOL     vw15668   4.401   1.506   4.532 -0.1791  0.2610 -0.3011
 3918SOL     ow15669   0.288   3.821   1.864  0.1775 -0.2144  0.1441
 3918SOL     hw15670   0.293   3.910   1.899 -0.8498 -0.2793  0.4741
 3918SOL     hw15671   0.260   3.832   1.773  2.1344 -0.0913 -0.4860
 3918SOL     vw15672   0.285   3.834   1.856  0.3001 -0.2068  0.1045
 3919SOL     ow15673   2.479   3.809   4.791  0.0213 -0.3018  0.0814
 3919SOL     hw15674   2.485   3.729   4.844 -0.2118 -0.5064 -0.1982
 3919SOL     hw15675   2.428   3.870   4.845 -0.6924 -0.7005 -0.1354
 3919SOL     vw15676   2.473   3.806   4.805 -0.1036 -0.3814  0.0160
 3920SOL     ow15677   1.599   7.404   4.271  0.5981 -0.3226 -0.4764
 3920SOL     hw15678   1.529   7.428   4.210 -0.3588 -0.6568  0.4552
 3920SOL     hw15679   1.564   7.328   4.318  1.0516  0.2902  0.8951
 3920SOL     vw15680   1.585   7.397   4.269  0.5316 -0.2859 -0.1726
 3921SOL     ow15681   5.564   4.142   0.464  0.6913  0.3345 -0.0752
 3921SOL     hw15682   5.535   4.143   0.373  0.2159  1.7853  0.0530
 3921SOL     hw15683   5.508   4.207   0.507  2.1278  1.0158  0.8385
 3921SOL     vw15684   5.553   4.151   0.458  0.8180  0.6158  0.0623
 3922SOL     ow15685   1.430   4.943   1.444  0.2270 -0.2552  0.3501
 3922SOL     hw15686   1.449   4.883   1.372  1.7583  2.2618 -1.5528
 3922SOL     hw15687   1.379   5.013   1.404 -0.1651  0.4986  2.0766
 3922SOL     vw15688   1.426   4.945   1.429  0.3773  0.1764  0.3268
 3923SOL     ow15689   4.989   2.294   5.599 -1.0635  0.0876  0.9228
 3923SOL     hw15690   4.912   2.285   5.654 -0.9866 -0.9846  0.8756
 3923SOL     hw15691   4.986   2.219   5.540 -1.3508  1.4009 -0.8160
 3923SOL     vw15692   4.979   2.283   5.598 -1.0915  0.1193  0.6874
 3924SOL     ow15693   4.756   0.377   1.870  0.0819  0.3019  0.2910
 3924SOL     hw15694   4.723   0.369   1.960  0.7871 -1.7593  0.4177
 3924SOL     hw15695   4.827   0.442   1.876 -1.5273  2.1235  0.6731
 3924SOL     vw15696   4.761   0.385   1.883 -0.0374  0.2703  0.3582
 3925SOL     ow15697   2.074   3.387   3.381 -0.1279  0.9950 -0.0995
 3925SOL     hw15698   2.102   3.478   3.369 -1.2306  1.4071  0.3062
 3925SOL     hw15699   2.030   3.386   3.466 -2.2820  0.6652 -1.1444
 3925SOL     vw15700   2.072   3.399   3.391 -0.5575  1.0058 -0.1838
 3926SOL     ow15701   7.548   5.221   6.284 -0.1949 -0.1604  0.3124
 3926SOL     hw15702   7.481   5.250   6.221 -0.1055 -0.5037  0.0593
 3926SOL     hw15703   7.597   5.301   6.305 -1.1061  0.2370  1.0173
 3926SOL     vw15704   7.545   5.235   6.278 -0.3033 -0.1533  0.3719
 3927SOL     ow15705   6.502   4.720   6.310 -0.2793  0.1992  0.5925
 3927SOL     hw15706   6.466   4.644   6.356 -4.9907  1.0323 -1.1750
 3927SOL     hw15707   6.528   4.780   6.380 -0.8792 -1.1862  2.0559
 3927SOL     vw15708   6.501   4.718   6.325 -0.9801  0.1261  0.5524
 3928SOL     ow15709   7.510   6.254   0.254 -0.6460 -0.7864 -0.0153
 3928SOL     hw15710   7.473   6.192   0.191 -0.9389 -1.9346  1.2147
 3928SOL     hw15711   7.603   6.255   0.235 -0.8890 -0.1608 -1.2456
 3928SOL     vw15712   7.517   6.246   0.244 -0.7167 -0.8552 -0.0153
 3929SOL     ow15713   6.050   2.347   4.783 -0.1244  0.2795  0.1618
 3929SOL     hw15714   6.107   2.307   4.850 -0.9830 -0.4453  0.4803
 3929SOL     hw15715   5.982   2.391   4.833  1.1791  2.8528 -0.1574
 3929SOL     vw15716   6.049   2.347   4.799 -0.0656  0.5234  0.1616
 3930SOL     ow15717   3.779   2.780   1.770 -0.3824 -0.2595  0.8446
 3930SOL     hw15718   3.704   2.740   1.726  0.5839 -1.4824  0.2469
 3930SOL     hw15719   3.852   2.720   1.753 -0.0829 -1.3558  4.8734
 3930SOL     vw15720   3.779   2.767   1.762 -0.2153 -0.5655  1.2973
 3931SOL     ow15721   2.962   3.814   6.994  0.6176  0.0191 -0.4185
 3931SOL     hw15722   2.968   3.809   7.089  3.4915 -0.0117 -0.5242
 3931SOL     hw15723   2.903   3.742   6.970  0.7745 -0.7061  1.2452
 3931SOL     vw15724   2.955   3.804   7.003  1.0175 -0.0807 -0.2129
 3932SOL     ow15725   6.342   7.131   2.703 -0.0697  0.0569 -1.0321
 3932SOL     hw15726   6.262   7.091   2.738 -0.8751 -0.3954 -3.2422
 3932SOL     hw15727   6.315   7.220   2.679  1.0894  1.2218  1.5736
 3932SOL     vw15728   6.328   7.138   2.705 -0.0231  0.1509 -0.9799
 3933SOL     ow15729   7.215   2.988   2.883  0.0994 -0.3753 -0.3483
 3933SOL     hw15730   7.247   2.897   2.876  0.3728 -0.2544 -0.6930
 3933SOL     hw15731   7.269   3.037   2.821 -0.3889 -0.0626 -0.5270
 3933SOL     vw15732   7.226   2.982   2.874  0.0708 -0.3181 -0.4174
 3934SOL     ow15733   4.869   4.515   7.291 -0.3733  0.3202  0.1284
 3934SOL     hw15734   4.810   4.582   7.257 -2.8748 -2.5076 -1.6270
 3934SOL     hw15735   4.905   4.473   7.213  3.0465  1.0254  1.1676
 3934SOL     vw15736   4.866   4.519   7.276 -0.2525  0.0403  0.0339
 3935SOL     ow15737   6.948   0.409   2.308  0.2833  0.2623 -0.6542
 3935SOL     hw15738   6.996   0.404   2.225 -0.6400  0.5290 -1.2141
 3935SOL     hw15739   6.899   0.327   2.312 -0.1137  0.5025 -0.6404
 3935SOL     vw15740   6.948   0.397   2.298  0.1094  0.3292 -0.7262
 3936SOL     ow15741   3.251   7.407   6.640  0.7164  0.2326  0.2326
 3936SOL     hw15742   3.177   7.412   6.580 -0.1323 -2.8356  0.8630
 3936SOL     hw15743   3.316   7.467   6.603 -0.7457  0.3895 -2.2908
 3936SOL     vw15744   3.250   7.416   6.627  0.4115 -0.1514 -0.0172
 3937SOL     ow15745   1.086   4.842   4.202  0.2391  0.6391  0.1522
 3937SOL     hw15746   1.107   4.789   4.125 -1.0569 -1.3194  1.0719
 3937SOL     hw15747   1.151   4.913   4.201  0.4895  0.4706 -2.5017
 3937SOL     vw15748   1.097   4.845   4.192  0.1012  0.3588 -0.0765
 3938SOL     ow15749   3.564   3.350   7.460  0.3611 -0.2786  0.1798
 3938SOL     hw15750   3.570   3.396   7.545  1.4103  0.1461 -0.1157
 3938SOL     hw15751   3.648   3.306   7.451 -0.0404 -0.9459 -0.3003
 3938SOL     vw15752   3.576   3.350   7.470  0.4467 -0.3107  0.0780
 3939SOL     ow15753   1.881   2.631   3.157 -0.2670 -0.2532  0.2808
 3939SOL     hw15754   1.865   2.556   3.101  3.5401  0.3086 -1.9294
 3939SOL     hw15755   1.949   2.602   3.218  0.7222  1.1016 -0.1205
 3939SOL     vw15756   1.888   2.618   3.157  0.3659 -0.0005 -0.0639
 3940SOL     ow15757   4.451   3.010   3.146  0.0538 -0.2940 -0.3366
 3940SOL     hw15758   4.437   3.055   3.229 -0.4929 -1.5746  0.2893
 3940SOL     hw15759   4.365   3.008   3.104 -0.1397 -1.4992  0.0567
 3940SOL     vw15760   4.438   3.015   3.152 -0.0439 -0.6219 -0.2021
 3941SOL     ow15761   4.705   4.377   1.106  0.3817  0.8595  0.5985
 3941SOL     hw15762   4.651   4.430   1.047 -3.3243 -0.4370  2.5138
 3941SOL     hw15763   4.731   4.438   1.176  2.2308  1.6668 -0.6980
 3941SOL     vw15764   4.702   4.392   1.108  0.1366  0.7949  0.6801
 3942SOL     ow15765   0.678   1.851   1.216  0.0762  0.2735  0.2026
 3942SOL     hw15766   0.624   1.925   1.189  0.3871  0.5479  0.3068
 3942SOL     hw15767   0.715   1.879   1.300  0.4746  0.1442  0.0721
 3942SOL     vw15768   0.676   1.865   1.224  0.1698  0.2927  0.1991
 3943SOL     ow15769   6.748   0.887   2.317  0.0995  0.0436 -0.4936
 3943SOL     hw15770   6.705   0.973   2.314 -1.0706 -0.4006  1.5792
 3943SOL     hw15771   6.692   0.834   2.373  1.6969 -1.5865 -0.3361
 3943SOL     vw15772   6.735   0.891   2.324  0.1562 -0.2301 -0.1993
 3944SOL     ow15773   1.913   1.663   3.769  0.0292 -0.0873  0.5331
 3944SOL     hw15774   1.999   1.660   3.811  0.3756  0.9184 -0.0788
 3944SOL     hw15775   1.893   1.756   3.761 -0.6246 -0.2903 -0.3248
 3944SOL     vw15776   1.922   1.675   3.773 -0.0114  0.0187  0.3392
 3945SOL     ow15777   2.151   4.544   6.210  0.0900 -0.4159  0.6896
 3945SOL     hw15778   2.101   4.463   6.219 -1.3994  0.2466 -0.9897
 3945SOL     hw15779   2.099   4.609   6.257  0.3222 -0.0770  0.4863
 3945SOL     vw15780   2.137   4.542   6.217 -0.0759 -0.2835  0.4413
 3946SOL     ow15781   6.386   4.423   5.680 -0.6629 -0.8991 -0.6558
 3946SOL     hw15782   6.398   4.428   5.775 -0.5802 -0.7654 -0.6726
 3946SOL     hw15783   6.439   4.349   5.652  0.2488 -0.2373 -0.7456
 3946SOL     vw15784   6.394   4.414   5.689 -0.5317 -0.7942 -0.6697
 3947SOL     ow15785   2.342   1.376   5.803  1.1187 -0.3710  0.7132
 3947SOL     hw15786   2.273   1.420   5.755  2.8739  0.5100 -1.1715
 3947SOL     hw15787   2.297   1.315   5.861 -1.2016  0.4124 -0.1735
 3947SOL     vw15788   2.327   1.374   5.804  1.0440 -0.1515  0.3474
 3948SOL     ow15789   3.594   3.057   1.862  1.2431  0.8188 -0.1675
 3948SOL     hw15790   3.508   3.088   1.833  0.6744  0.9776  1.5909
 3948SOL     hw15791   3.594   3.072   1.956  4.2392  3.3553 -0.4162
 3948SOL     vw15792   3.583   3.063   1.871  1.5634  1.1744  0.0317
 3949SOL     ow15793   1.551   4.327   5.429 -0.2513  0.2261 -0.7802
 3949SOL     hw15794   1.556   4.374   5.512 -1.0574  2.7822 -2.0610
 3949SOL     hw15795   1.457   4.317   5.413 -0.1088 -1.9936 -0.5290
 3949SOL     vw15796   1.539   4.332   5.438 -0.3389  0.2701 -0.9162
 3950SOL     ow15797   0.409   1.081   0.580 -0.6590 -0.2494 -0.5066
 3950SOL     hw15798   0.499   1.083   0.547 -0.1822  1.3969  0.7298
 3950SOL     hw15799   0.381   0.990   0.570  0.3091 -0.3406 -3.0277
 3950SOL     vw15800   0.417   1.069   0.574 -0.4683 -0.0442 -0.6761
 3951SOL     ow15801   6.390   1.421   1.246 -0.6036  0.1355 -0.5346
 3951SOL     hw15802   6.443   1.462   1.314 -3.3481 -0.3803  2.1293
 3951SOL     hw15803   6.425   1.333   1.237  1.3836  0.9614 -1.7904
 3951SOL     vw15804   6.402   1.415   1.254 -0.7036  0.1765 -0.3489
 3952SOL     ow15805   6.944   6.001   0.316  0.1994  0.3167 -0.7861
 3952SOL     hw15806   6.885   6.032   0.384  0.4726 -0.2509 -0.2815
 3952SOL     hw15807   7.019   6.061   0.320  0.1710  0.3427 -0.6555
 3952SOL     vw15808   6.946   6.013   0.326  0.2315  0.2451 -0.7022
 3953SOL     ow15809   0.901   2.665   6.679 -0.4546  0.2380  0.7821
 3953SOL     hw15810   0.830   2.709   6.726 -0.6560 -0.6187  1.2973
 3953SOL     hw15811   0.933   2.732   6.617 -2.4329  0.3323 -0.2484
 3953SOL     vw15812   0.896   2.680   6.677 -0.7422  0.1374  0.7141
 3954SOL     ow15813   6.582   6.912   0.831  0.2925 -0.6382 -0.7366
 3954SOL     hw15814   6.665   6.956   0.812 -1.1979  3.0471  0.2617
 3954SOL     hw15815   6.535   6.914   0.748  0.6444 -1.3973 -0.9576
 3954SOL     vw15816   6.587   6.918   0.818  0.1423 -0.2520 -0.6341
 3955SOL     ow15817   1.614   4.706   2.093 -0.1380 -0.9341 -0.1780
 3955SOL     hw15818   1.624   4.799   2.113 -1.3910 -0.8167  0.0077
 3955SOL     hw15819   1.592   4.704   2.000 -0.5185 -1.0061 -0.0888
 3955SOL     vw15820   1.612   4.718   2.083 -0.3535 -0.9282 -0.1416
 3956SOL     ow15821   4.497   6.497   5.880  0.2767 -0.3232  0.2290
 3956SOL     hw15822   4.488   6.515   5.786 -3.1211  3.3365  0.9702
 3956SOL     hw15823   4.553   6.568   5.913  0.6932 -1.0450  1.1232
 3956SOL     vw15824   4.503   6.509   5.872 -0.1168  0.0646  0.4447
 3957SOL     ow15825   6.258   7.381   2.641 -0.2113  0.2555  0.7922
 3957SOL     hw15826   6.237   7.426   2.559 -1.3738 -2.9746 -0.8992
 3957SOL     hw15827   6.347   7.407   2.662 -0.0594  1.5677 -1.2446
 3957SOL     vw15828   6.267   7.390   2.633 -0.3448  0.0026  0.3004
 3958SOL     ow15829   5.968   2.122   0.099 -0.0895 -0.0522  0.6924
 3958SOL     hw15830   5.977   2.081   0.012  0.0932 -0.3125  0.8313
 3958SOL     hw15831   5.874   2.116   0.118 -0.0899 -0.2436  0.6329
 3958SOL     vw15832   5.957   2.116   0.090 -0.0653 -0.1117  0.7029
 3959SOL     ow15833   7.159   1.156   1.826 -1.0895 -0.4573  0.0637
 3959SOL     hw15834   7.165   1.118   1.914 -2.3414  0.2195  0.4677
 3959SOL     hw15835   7.074   1.200   1.825  0.1901  2.2226 -0.4028
 3959SOL     vw15836   7.149   1.157   1.838 -1.0860 -0.0145  0.0554
 3960SOL     ow15837   6.737   3.633   3.886 -0.3175  0.1976 -0.0641
 3960SOL     hw15838   6.698   3.710   3.928 -0.9964  0.2093 -0.7044
 3960SOL     hw15839   6.727   3.649   3.792  0.3765 -0.2459 -0.2160
 3960SOL     vw15840   6.730   3.645   3.879 -0.3154  0.1408 -0.1687
 3961SOL     ow15841   5.661   1.785   0.196  0.1357  0.2310  0.8792
 3961SOL     hw15842   5.634   1.847   0.128  3.3204  0.1035 -0.6801
 3961SOL     hw15843   5.706   1.838   0.261 -0.2486 -0.0345  1.3697
 3961SOL     vw15844   5.664   1.800   0.196  0.5052  0.1792  0.7382
 3962SOL     ow15845   1.035   1.659   1.722 -0.2022  0.3326  0.1842
 3962SOL     hw15846   1.005   1.586   1.667 -0.3371  0.7209 -0.2654
 3962SOL     hw15847   0.968   1.727   1.711 -1.3461 -0.3168  2.4409
 3962SOL     vw15848   1.022   1.658   1.713 -0.3709  0.2981  0.4227
 3963SOL     ow15849   0.504   1.457   7.295 -0.1685 -0.2299  0.2487
 3963SOL     hw15850   0.570   1.519   7.325  1.0993 -1.8966  1.0551
 3963SOL     hw15851   0.460   1.427   7.376 -0.3121 -0.8537 -0.0491
 3963SOL     vw15852   0.507   1.461   7.310 -0.0201 -0.5322  0.3157
 3964SOL     ow15853   0.035   4.480   3.857  0.4799 -0.0021 -0.0598
 3964SOL     hw15854   0.004   4.392   3.834 -1.3307 -0.6427  3.9925
 3964SOL     hw15855  -0.024   4.539   3.809  0.3831 -0.9858 -1.2141
 3964SOL     vw15856   0.023   4.476   3.847  0.2282 -0.2165  0.3226
 3965SOL     ow15857   0.840   5.241   4.384  0.4041 -0.4457 -0.6197
 3965SOL     hw15858   0.745   5.235   4.376  0.3697  0.4744 -1.0389
 3965SOL     hw15859   0.873   5.161   4.343 -0.2023 -1.0367  0.0234
 3965SOL     vw15860   0.832   5.230   4.377  0.3195 -0.4025 -0.5901
 3966SOL     ow15861   0.408   5.981   2.548  0.1927  0.2676 -0.1049
 3966SOL     hw15862   0.443   6.062   2.511  1.0662  0.6319  1.4295
 3966SOL     hw15863   0.393   6.001   2.640 -1.6812 -0.6792 -0.1520
 3966SOL     vw15864   0.410   5.994   2.555  0.0607  0.1907  0.0913
 3967SOL     ow15865   1.788   6.483   2.418 -0.1064  0.9155 -0.1112
 3967SOL     hw15866   1.793   6.575   2.446 -1.8806  1.3093 -0.9164
 3967SOL     hw15867   1.818   6.433   2.494 -1.9647  2.0604  1.4991
 3967SOL     vw15868   1.792   6.489   2.432 -0.5857  1.1184 -0.0050
 3968SOL     ow15869   5.690   1.543   2.969 -0.4805 -0.6751  0.2314
 3968SOL     hw15870   5.757   1.489   2.926  0.1730  0.7614 -0.6488
 3968SOL     hw15871   5.625   1.559   2.900  0.1188  0.8904 -0.0350
 3968SOL     vw15872   5.691   1.538   2.954 -0.3150 -0.2790  0.0800
 3969SOL     ow15873   1.458   5.579   2.132  0.1761  0.3961  0.3275
 3969SOL     hw15874   1.432   5.597   2.042  0.1960  1.5604  0.5331
 3969SOL     hw15875   1.489   5.663   2.165  0.7892 -0.1630  1.2181
 3969SOL     vw15876   1.458   5.593   2.125  0.2596  0.4759  0.4722
 3970SOL     ow15877   4.993   3.574   6.421  0.4116  0.6640  0.6752
 3970SOL     hw15878   4.979   3.509   6.352 -1.5536 -0.4939  2.0700
 3970SOL     hw15879   5.088   3.575   6.433  0.6674 -0.2781 -0.9291
 3970SOL     vw15880   5.004   3.566   6.413  0.1860  0.3870  0.6478
 3971SOL     ow15881   2.738   2.428   4.605  0.3071  0.4451 -0.3087
 3971SOL     hw15882   2.778   2.343   4.585  0.6958  0.2216  1.3181
 3971SOL     hw15883   2.798   2.491   4.565  2.1429  0.0884  1.7085
 3971SOL     vw15884   2.751   2.425   4.597  0.6006  0.3686  0.1724
 3972SOL     ow15885   4.018   2.285   3.952 -0.1691 -0.3844  0.5265
 3972SOL     hw15886   4.048   2.327   4.033 -0.4450 -0.1829  0.5269
 3972SOL     hw15887   4.072   2.207   3.944  0.8360  0.3323  0.1657
 3972SOL     vw15888   4.029   2.281   3.962 -0.0730 -0.2633  0.4790
 3973SOL     ow15889   3.873   5.963   7.139  0.6401 -0.0098  0.5136
 3973SOL     hw15890   3.796   5.976   7.085  2.6685  2.6679 -2.0778
 3973SOL     hw15891   3.946   5.993   7.084  3.2205  0.3425  3.8012
 3973SOL     vw15892   3.873   5.969   7.124  1.2482  0.3898  0.6056
 3974SOL     ow15893   4.718   6.013   2.565 -0.2479  0.1104  0.6171
 3974SOL     hw15894   4.791   6.048   2.514 -1.0897  1.9243  0.5852
 3974SOL     hw15895   4.716   5.920   2.543  2.2718 -0.0851  0.9133
 3974SOL     vw15896   4.727   6.005   2.555 -0.0267  0.3240  0.6520
 3975SOL     ow15897   6.003   4.714   5.721  0.1598  0.5245 -0.4693
 3975SOL     hw15898   6.017   4.634   5.669 -0.1058  1.1675 -1.5743
 3975SOL     hw15899   6.091   4.744   5.742  0.2971 -1.2844  2.0032
 3975SOL     vw15900   6.017   4.707   5.717  0.1431  0.3710 -0.2887
 3976SOL     ow15901   1.535   5.607   2.964 -0.3972  0.3209 -0.5469
 3976SOL     hw15902   1.605   5.557   2.922 -0.4428  0.4499 -0.7773
 3976SOL     hw15903   1.480   5.638   2.891  0.7032  2.3436 -0.5719
 3976SOL     vw15904   1.537   5.605   2.949 -0.2580  0.6051 -0.5807
 3977SOL     ow15905   2.446   4.724   1.916 -0.0787  1.0833  0.5054
 3977SOL     hw15906   2.380   4.670   1.960  0.3150  0.5904  0.4921
 3977SOL     hw15907   2.528   4.677   1.929 -0.1825 -0.1457 -2.4083
 3977SOL     vw15908   2.448   4.711   1.923 -0.0404  0.8564  0.1191
 3978SOL     ow15909   0.581   5.621   4.208 -0.0677 -0.2947  0.6583
 3978SOL     hw15910   0.505   5.645   4.262  0.0475 -0.7943  1.0571
 3978SOL     hw15911   0.547   5.559   4.145  0.0640 -0.7455  1.0266
 3978SOL     vw15912   0.566   5.616   4.207 -0.0351 -0.4201  0.7596
 3979SOL     ow15913   3.105   2.947   7.330  0.5133  0.6612  0.4733
 3979SOL     hw15914   3.137   2.883   7.266 -1.0238  0.9171 -0.6158
 3979SOL     hw15915   3.053   3.008   7.278 -0.3236  1.2143  1.9093
 3979SOL     vw15916   3.102   2.946   7.315  0.2002  0.7679  0.5193
 3980SOL     ow15917   7.442   5.292   2.339 -0.4017  0.0780 -0.2875
 3980SOL     hw15918   7.518   5.343   2.313 -1.0863  0.0055 -2.7077
 3980SOL     hw15919   7.367   5.346   2.315 -1.1282 -0.6351  0.2896
 3980SOL     vw15920   7.442   5.306   2.333 -0.5879 -0.0255 -0.5306
 3981SOL     ow15921   1.158   5.001   7.319  0.4326 -0.0345 -0.1854
 3981SOL     hw15922   1.078   4.962   7.283  0.3873 -0.0298 -0.0914
 3981SOL     hw15923   1.219   5.002   7.246 -0.2508  1.7052 -0.7814
 3981SOL     vw15924   1.156   4.996   7.305  0.3365  0.1957 -0.2518
 3982SOL     ow15925   3.700   3.218   0.726  0.4861  0.1770 -0.1277
 3982SOL     hw15926   3.617   3.265   0.717  0.8725  0.8481 -0.2462
 3982SOL     hw15927   3.752   3.273   0.785 -0.0784 -1.5083  2.0889
 3982SOL     vw15928   3.696   3.232   0.732  0.4624  0.0432  0.1491
 3983SOL     ow15929   2.891   2.708   5.088 -0.0696  0.3680 -0.2397
 3983SOL     hw15930   2.938   2.640   5.039 -0.5227 -0.7447  0.8317
 3983SOL     hw15931   2.864   2.770   5.021  1.0024 -0.1118 -1.1586
 3983SOL     vw15932   2.894   2.707   5.072  0.0119  0.1578 -0.2196
 3984SOL     ow15933   2.777   0.837   2.003 -0.4443 -0.2966  0.0241
 3984SOL     hw15934   2.794   0.767   1.940 -0.7842  0.1546 -0.5691
 3984SOL     hw15935   2.779   0.917   1.952  1.4592  0.3155  0.9347
 3984SOL     vw15936   2.780   0.838   1.988 -0.2379 -0.1563  0.0660
 3985SOL     ow15937   2.696   5.889   0.282 -0.2021  0.5470 -0.4843
 3985SOL     hw15938   2.645   5.823   0.235  0.8163 -1.8358  1.5554
 3985SOL     hw15939   2.646   5.906   0.362  2.3155 -2.4909  1.9964
 3985SOL     vw15940   2.682   5.883   0.286  0.2645 -0.1678  0.1121
 3986SOL     ow15941   4.210   1.605   6.688 -0.5577 -0.3261  0.1540
 3986SOL     hw15942   4.289   1.634   6.641 -1.4380  0.2057 -1.0377
 3986SOL     hw15943   4.211   1.655   6.769 -0.2928  0.5963 -0.3978
 3986SOL     vw15944   4.221   1.616   6.692 -0.6385 -0.1342 -0.0761
 3987SOL     ow15945   4.271   0.771   5.896 -0.1732  0.1380  0.1202
 3987SOL     hw15946   4.335   0.823   5.848  1.0818 -1.5124 -0.0754
 3987SOL     hw15947   4.194   0.827   5.902 -0.1133  0.7505 -3.1085
 3987SOL     vw15948   4.269   0.785   5.890  0.0002  0.0010 -0.3314
 3988SOL     ow15949   1.654   1.238   6.177  0.7834 -0.0329 -0.4596
 3988SOL     hw15950   1.596   1.181   6.227  1.5438 -1.8275 -1.5058
 3988SOL     hw15951   1.604   1.261   6.099  0.3239  1.1207  0.1565
 3988SOL     vw15952   1.640   1.233   6.173  0.8231 -0.1174 -0.5164
 3989SOL     ow15953   5.785   3.742   4.856 -0.2192  0.1907  0.3731
 3989SOL     hw15954   5.705   3.688   4.853  0.5386 -0.9953  0.8583
 3989SOL     hw15955   5.840   3.705   4.787 -0.0183  0.9145  0.1390
 3989SOL     vw15956   5.782   3.730   4.846 -0.0930  0.1296  0.4065
 3990SOL     ow15957   2.666   1.734   5.867 -0.2564 -0.2035  0.5139
 3990SOL     hw15958   2.595   1.790   5.836  0.4585  0.3396 -0.1792
 3990SOL     hw15959   2.706   1.784   5.939  0.6059  0.3660 -0.3359
 3990SOL     vw15960   2.662   1.748   5.873 -0.0482 -0.0567  0.3104
 3991SOL     ow15961   0.467   6.994   2.907 -0.2998  0.3436  0.2870
 3991SOL     hw15962   0.454   7.077   2.862 -0.0381  0.0211 -0.4055
 3991SOL     hw15963   0.380   6.971   2.940 -0.5870  0.3833 -0.4275
 3991SOL     vw15964   0.454   7.002   2.905 -0.3032  0.3064  0.1013
 3992SOL     ow15965   4.245   7.129   3.410 -0.5405  0.5108  0.5171
 3992SOL     hw15966   4.266   7.062   3.475 -1.7172 -2.2856 -1.7640
 3992SOL     hw15967   4.324   7.139   3.359 -1.1354 -1.4297 -0.9178
 3992SOL     vw15968   4.258   7.121   3.412 -0.7741 -0.1142  0.0268
 3993SOL     ow15969   7.015   1.810   0.597  0.6351 -0.1606 -0.3786
 3993SOL     hw15970   6.976   1.768   0.674  1.3845 -2.1992 -1.0306
 3993SOL     hw15971   7.088   1.752   0.574  1.3728  1.2572 -1.7061
 3993SOL     vw15972   7.019   1.797   0.604  0.8314 -0.2425 -0.6398
 3994SOL     ow15973   5.281   6.949   4.929  0.4748 -0.0996  0.0791
 3994SOL     hw15974   5.344   7.017   4.954  1.5860 -0.5893 -1.2867
 3994SOL     hw15975   5.207   6.998   4.893 -0.1368  0.4966  1.9797
 3994SOL     vw15976   5.279   6.965   4.928  0.5410 -0.0856  0.1500
 3995SOL     ow15977   2.499   5.759   6.365 -0.1502  0.4977  0.6373
 3995SOL     hw15978   2.407   5.769   6.339  0.9201  3.5740 -2.7891
 3995SOL     hw15979   2.514   5.831   6.426  0.2084  0.6674  0.3505
 3995SOL     vw15980   2.489   5.770   6.370  0.0384  0.9260  0.1476
 3996SOL     ow15981   3.359   3.935   2.945 -0.1292 -0.0531  0.0798
 3996SOL     hw15982   3.267   3.960   2.959  0.0470  1.0649 -0.6801
 3996SOL     hw15983   3.374   3.865   3.009 -1.3956  0.0141  0.4873
 3996SOL     vw15984   3.349   3.929   2.956 -0.2730  0.1034  0.0333
 3997SOL     ow15985   3.692   4.413   7.546  0.3193  1.0049  0.1982
 3997SOL     hw15986   3.606   4.453   7.558  0.1017  1.1347 -1.4961
 3997SOL     hw15987   3.753   4.487   7.550  0.2350  1.0664  0.3295
 3997SOL     vw15988   3.689   4.428   7.548  0.2795  1.0300 -0.0083
 3998SOL     ow15989   6.372   5.890   2.603  0.1291 -0.1142  0.4628
 3998SOL     hw15990   6.314   5.815   2.589  0.5964 -0.5911  1.0334
 3998SOL     hw15991   6.355   5.948   2.528 -0.3374 -0.7202  0.0913
 3998SOL     vw15992   6.362   5.888   2.591  0.1292 -0.2570  0.4891
 3999SOL     ow15993   2.136   3.852   3.172  0.6300 -0.3097 -0.1254
 3999SOL     hw15994   2.218   3.884   3.133  0.7464 -1.7454 -1.1726
 3999SOL     hw15995   2.086   3.818   3.097 -0.2055 -0.9296  0.6954
 3999SOL     vw15996   2.140   3.852   3.157  0.5351 -0.5809 -0.1553
 4000SOL     ow15997   3.277   6.580   4.011 -0.7022  0.1541  0.1745
 4000SOL     hw15998   3.218   6.645   4.049 -2.0907 -0.5126 -0.7643
 4000SOL     hw15999   3.283   6.511   4.077 -0.3396  0.5774  0.5909
 4000SOL     vw16000   3.270   6.579   4.025 -0.8374  0.1221  0.1054
 4001SOL     ow16001   2.094   7.005   4.751 -0.1002 -0.4404 -0.0956
 4001SOL     hw16002   2.008   7.032   4.785 -0.4359  2.1252 -2.5974
 4001SOL     hw16003   2.074   6.939   4.685  0.0211 -0.8962  0.3132
 4001SOL     vw16004   2.080   7.000   4.747 -0.1285 -0.1621 -0.3719
 4002SOL     ow16005   0.363   2.853   0.751 -0.3520 -0.4704  0.4722
 4002SOL     hw16006   0.409   2.807   0.681 -0.0965  1.0130 -0.3661
 4002SOL     hw16007   0.275   2.867   0.718  0.7071  3.4205 -1.1916
 4002SOL     vw16008   0.358   2.849   0.738 -0.1786  0.2385  0.1421
 4003SOL     ow16009   2.667   2.167   7.449  0.0939  0.8043 -0.0379
 4003SOL     hw16010   2.732   2.121   7.396 -0.7666 -1.6561  0.8699
 4003SOL     hw16011   2.679   2.131   7.537 -2.1567  0.5791  0.2417
 4003SOL     vw16012   2.677   2.156   7.454 -0.3165  0.4500  0.1187
 4004SOL     ow16013   1.071   1.617   6.200  0.1704 -0.1697 -0.0717
 4004SOL     hw16014   1.122   1.650   6.274  1.1436 -1.1811 -0.2557
 4004SOL     hw16015   1.135   1.571   6.146 -0.9185 -1.3556 -0.3914
 4004SOL     vw16016   1.086   1.615   6.203  0.1552 -0.4597 -0.1383
 4005SOL     ow16017   5.689   3.184   5.392 -0.0891 -0.4594  0.5472
 4005SOL     hw16018   5.783   3.203   5.394 -0.4075  1.2459  1.4886
 4005SOL     hw16019   5.667   3.182   5.299  0.4282  1.8102  0.3097
 4005SOL     vw16020   5.698   3.186   5.380 -0.0627  0.0650  0.6402
 4006SOL     ow16021   5.695   2.670   3.757  0.1133  0.4110  0.3695
 4006SOL     hw16022   5.680   2.582   3.791  1.0412  0.3672  0.6903
 4006SOL     hw16023   5.761   2.708   3.815  0.2262  1.0704 -0.1698
 4006SOL     vw16024   5.702   2.663   3.769  0.2506  0.4920  0.3406
 4007SOL     ow16025   3.859   5.891   4.150  0.1357  0.0062 -0.3654
 4007SOL     hw16026   3.836   5.971   4.198 -0.4702 -1.5697  2.1899
 4007SOL     hw16027   3.821   5.903   4.063  0.0499  2.4508 -0.0492
 4007SOL     vw16028   3.851   5.903   4.145  0.0443  0.1209  0.0134
 4008SOL     ow16029   3.075   2.984   3.777 -0.0369 -0.2928  0.5557
 4008SOL     hw16030   3.023   3.063   3.760 -2.1262 -1.3295  1.7634
 4008SOL     hw16031   3.076   2.938   3.693  0.0184  0.3461  0.1979
 4008SOL     vw16032   3.068   2.988   3.764 -0.3052 -0.3453  0.6677
 4009SOL     ow16033   3.903   6.267   0.320 -0.4293  0.1596 -0.0268
 4009SOL     hw16034   3.975   6.215   0.285 -0.0600 -1.5447  2.9499
 4009SOL     hw16035   3.933   6.358   0.315  1.2056 -0.3778 -0.4157
 4009SOL     vw16036   3.916   6.272   0.315 -0.1649 -0.1361  0.3146
 4010SOL     ow16037   7.378   3.034   7.526  0.0830  0.3436 -0.4300
 4010SOL     hw16038   7.377   3.024   7.431  0.8522 -1.9029 -0.2439
 4010SOL     hw16039   7.471   3.027   7.550 -0.0202  1.6055  0.4522
 4010SOL     vw16040   7.390   3.032   7.517  0.1705  0.2136 -0.2892
 4011SOL     ow16041   3.930   5.168   6.092 -0.6937  0.1728  0.1829
 4011SOL     hw16042   4.004   5.221   6.063 -0.8426  0.7265  0.8016
 4011SOL     hw16043   3.855   5.200   6.040 -0.8582  0.8289  0.8049
 4011SOL     vw16044   3.930   5.179   6.081 -0.7349  0.3324  0.3467
 4012SOL     ow16045   6.702   5.408   1.052 -0.4096  0.3411 -0.0345
 4012SOL     hw16046   6.714   5.316   1.074  1.0692  0.8601  1.5306
 4012SOL     hw16047   6.781   5.431   1.003 -0.2436  1.0274  0.5417
 4012SOL     vw16048   6.714   5.399   1.049 -0.1926  0.5000  0.2480
 4013SOL     ow16049   1.821   3.275   3.811 -0.4662 -0.8486  0.5318
 4013SOL     hw16050   1.846   3.184   3.794  0.2914 -0.6623  0.5996
 4013SOL     hw16051   1.824   3.284   3.906  1.1336 -0.3250  0.4757
 4013SOL     vw16052   1.825   3.264   3.821 -0.1553 -0.7550  0.5335
 4014SOL     ow16053   0.125   0.810   1.596  0.0179 -0.7087  0.3369
 4014SOL     hw16054   0.074   0.751   1.541 -0.2142 -0.7879  0.6331
 4014SOL     hw16055   0.213   0.774   1.594  0.1697 -0.3157 -0.5389
 4014SOL     vw16056   0.130   0.797   1.589  0.0073 -0.6673  0.2604
 4015SOL     ow16057   0.351   0.934   5.216 -0.5431 -0.3943  0.5496
 4015SOL     hw16058   0.281   0.990   5.248  0.3081  0.6299  0.6883
 4015SOL     hw16059   0.336   0.929   5.121 -1.3704 -1.0100  0.7077
 4015SOL     vw16060   0.340   0.941   5.208 -0.5400 -0.3404  0.5889
 4016SOL     ow16061   0.139   2.094   2.713 -0.2607  0.0318 -0.3988
 4016SOL     hw16062   0.201   2.067   2.781  0.0405 -0.9049 -1.0206
 4016SOL     hw16063   0.193   2.102   2.634 -0.9028 -0.7339 -0.9326
 4016SOL     vw16064   0.154   2.091   2.712 -0.3057 -0.1926 -0.5512
 4017SOL     ow16065   2.598   2.948   5.198 -0.4381  0.2378  0.4660
 4017SOL     hw16066   2.554   2.929   5.281  0.3049  1.2811  1.1313
 4017SOL     hw16067   2.568   3.036   5.175 -2.4196 -0.8607 -1.5967
 4017SOL     vw16068   2.588   2.957   5.206 -0.6014  0.2304  0.2813
 4018SOL     ow16069   0.366   3.959   1.024  0.1466 -1.2461 -0.1820
 4018SOL     hw16070   0.282   3.931   1.058 -0.0362  0.0648  0.4977
 4018SOL     hw16071   0.428   3.944   1.096  0.0125  0.1907  0.2660
 4018SOL     vw16072   0.363   3.954   1.038  0.1048 -0.8836 -0.0331
 4019SOL     ow16073   1.639   3.549   4.402 -0.1089  0.1029 -0.7649
 4019SOL     hw16074   1.644   3.600   4.321  0.1766 -1.0371 -1.4874
 4019SOL     hw16075   1.575   3.480   4.383 -0.2799  0.0117  0.0973
 4019SOL     vw16076   1.631   3.547   4.389 -0.0938 -0.0595 -0.7460
 4020SOL     ow16077   5.745   1.713   4.979  0.6511 -0.2959 -0.3982
 4020SOL     hw16078   5.708   1.626   4.999  1.5141 -0.2114  1.8973
 4020SOL     hw16079   5.839   1.698   4.978  0.7855  0.5457 -0.3539
 4020SOL     vw16080   5.752   1.699   4.982  0.7827 -0.1737 -0.0896
 4021SOL     ow16081   2.207   4.797   5.754  0.2211 -0.4159 -0.4738
 4021SOL     hw16082   2.118   4.813   5.720 -0.9259 -0.7060  2.1680
 4021SOL     hw16083   2.239   4.884   5.779 -1.8076 -0.6725  4.0211
 4021SOL     vw16084   2.199   4.810   5.753 -0.1979 -0.4880  0.4680
 4022SOL     ow16085   2.107   0.015   4.605  0.2715  0.9251 -0.5217
 4022SOL     hw16086   2.109  -0.053   4.672 -0.9081  1.0765 -0.3079
 4022SOL     hw16087   2.186   0.000   4.554  0.7801  0.3041  0.4076
 4022SOL     vw16088   2.118   0.004   4.607  0.1830  0.8631 -0.3707
 4023SOL     ow16089   4.311   0.460   4.638  0.5745 -0.6508  1.1813
 4023SOL     hw16090   4.349   0.540   4.602  0.8528 -2.2073 -2.4113
 4023SOL     hw16091   4.247   0.490   4.702 -1.1475  2.6132 -1.7977
 4023SOL     vw16092   4.308   0.474   4.642  0.3841 -0.4255  0.3142
 4024SOL     ow16093   5.872   4.127   1.122  0.0834  0.2911 -0.3091
 4024SOL     hw16094   5.964   4.124   1.150 -0.6739  0.7893  2.5792
 4024SOL     hw16095   5.847   4.035   1.112 -0.0120 -0.0715  2.5198
 4024SOL     vw16096   5.881   4.114   1.124 -0.0291  0.3088  0.4452
 4025SOL     ow16097   6.528   6.985   5.038  0.0678 -0.4080 -0.9873
 4025SOL     hw16098   6.602   6.925   5.027 -0.3632 -1.2437  0.3590
 4025SOL     hw16099   6.471   6.967   4.964  1.6905  1.0484 -2.6819
 4025SOL     vw16100   6.531   6.975   5.027  0.2251 -0.3262 -1.0331
 4026SOL     ow16101   2.609   4.307   7.021  0.1719 -0.6880  0.7753
 4026SOL     hw16102   2.569   4.318   7.107 -0.3396 -0.5114  0.5201
 4026SOL     hw16103   2.579   4.382   6.970  1.3924 -0.1857  0.7777
 4026SOL     vw16104   2.600   4.318   7.025  0.2654 -0.5984  0.7422
 4027SOL     ow16105   6.531   1.664   2.915  0.0330  0.6041 -0.0831
 4027SOL     hw16106   6.624   1.642   2.922 -0.1989 -0.2683  0.4819
 4027SOL     hw16107   6.519   1.689   2.824  0.8852  1.0235 -0.0860
 4027SOL     vw16108   6.541   1.664   2.904  0.1149  0.5442 -0.0091
 4028SOL     ow16109   5.516   4.450   6.132 -0.0729  0.2602 -0.0504
 4028SOL     hw16110   5.587   4.514   6.145  1.8399 -1.2172 -2.2614
 4028SOL     hw16111   5.523   4.391   6.207  0.9494  0.2390 -0.1438
 4028SOL     vw16112   5.526   4.451   6.143  0.3145  0.0625 -0.3548
 4029SOL     ow16113   0.379   2.152   5.173  0.3408 -0.2187 -0.1360
 4029SOL     hw16114   0.366   2.129   5.081  1.5742  1.9303 -0.9373
 4029SOL     hw16115   0.313   2.218   5.191 -0.8955 -1.6970  1.0505
 4029SOL     vw16116   0.369   2.158   5.163  0.3404 -0.1302 -0.0856
 4030SOL     ow16117   5.480   0.206   0.804  0.2812 -0.0087  1.1024
 4030SOL     hw16118   5.563   0.159   0.813  1.7799  2.3497  0.5561
 4030SOL     hw16119   5.426   0.174   0.877  0.4684 -3.7554 -0.2070
 4030SOL     vw16120   5.484   0.196   0.815  0.5035 -0.1918  0.8575
 4031SOL     ow16121   6.076   1.206   6.255  0.0998  0.1844  0.1084
 4031SOL     hw16122   6.081   1.288   6.304 -0.3628  1.0825 -1.2861
 4031SOL     hw16123   6.054   1.140   6.320  2.0418  0.8720  1.5405
 4031SOL     vw16124   6.074   1.209   6.270  0.2952  0.3936  0.1132
 4032SOL     ow16125   1.535   0.478   4.702  0.5126 -0.1433  0.6266
 4032SOL     hw16126   1.583   0.511   4.777 -1.2980 -0.9593  2.2238
 4032SOL     hw16127   1.496   0.396   4.732 -2.0724  0.5871 -0.4607
 4032SOL     vw16128   1.536   0.471   4.716 -0.0673 -0.1546  0.6938
 4033SOL     ow16129   6.996   0.960   5.747  0.7501  0.0351 -0.1191
 4033SOL     hw16130   7.069   1.022   5.739  0.7796  0.1971  1.2362
 4033SOL     hw16131   7.035   0.882   5.786 -0.3647  1.3762  4.1424
 4033SOL     vw16132   7.011   0.958   5.751  0.6068  0.2334  0.6220
 4034SOL     ow16133   1.878   5.935   3.377 -0.0913 -0.4680 -0.4067
 4034SOL     hw16134   1.843   5.846   3.372  1.5091 -1.0899 -2.4074
 4034SOL     hw16135   1.804   5.991   3.353 -0.7039 -1.4165 -0.8193
 4034SOL     vw16136   1.863   5.931   3.373  0.0391 -0.6750 -0.7250
 4035SOL     ow16137   5.036   5.888   4.469 -0.6409 -0.7595 -0.3610
 4035SOL     hw16138   5.118   5.893   4.518  0.1062 -0.6555 -1.5753
 4035SOL     hw16139   5.001   5.801   4.487  0.5475 -1.4003 -1.0669
 4035SOL     vw16140   5.042   5.877   4.478 -0.3858 -0.8304 -0.6142
 4036SOL     ow16141   2.200   3.414   6.051 -0.5134  0.1552 -0.4713
 4036SOL     hw16142   2.106   3.396   6.054 -0.3403 -0.9176  2.8936
 4036SOL     hw16143   2.209   3.501   6.090 -0.0834 -0.1638  0.1665
 4036SOL     vw16144   2.189   3.423   6.057 -0.4339 -0.0285  0.0570
 4037SOL     ow16145   0.969   0.289   6.238 -0.6426 -0.0148 -0.6175
 4037SOL     hw16146   0.938   0.360   6.181  1.3632  1.2795 -0.1685
 4037SOL     hw16147   0.927   0.307   6.322  1.9184  2.3519  0.2907
 4037SOL     vw16148   0.959   0.301   6.241 -0.0401  0.4682 -0.4382
 4038SOL     ow16149   4.672   1.166   2.373  0.2872 -0.2262  1.4411
 4038SOL     hw16150   4.706   1.122   2.295  1.9857  2.0806  0.7776
 4038SOL     hw16151   4.582   1.190   2.350  1.1534  1.5312 -0.3887
 4038SOL     vw16152   4.665   1.164   2.360  0.6258  0.3100  1.1122
 4039SOL     ow16153   7.014   5.367   1.144 -0.7006  0.2273 -0.9393
 4039SOL     hw16154   7.088   5.353   1.085 -0.9995 -0.8218 -1.0929
 4039SOL     hw16155   6.977   5.451   1.117 -0.1489  0.3054 -1.4902
 4039SOL     vw16156   7.019   5.376   1.133 -0.6671  0.0994 -1.0323
 4040SOL     ow16157   1.744   5.385   4.649 -0.3447  0.0364 -0.3740
 4040SOL     hw16158   1.695   5.393   4.731  1.1461  0.4129  0.5186
 4040SOL     hw16159   1.800   5.463   4.646 -0.5467  0.1503 -1.8812
 4040SOL     vw16160   1.745   5.396   4.660 -0.1746  0.1011 -0.4551
 4041SOL     ow16161   5.859   0.644   6.784  0.2213 -0.3047 -0.3209
 4041SOL     hw16162   5.902   0.675   6.705  0.9574 -0.3344  0.0577
 4041SOL     hw16163   5.843   0.551   6.768  0.3204 -0.2990 -0.4546
 4041SOL     vw16164   5.863   0.636   6.772  0.3312 -0.3079 -0.2885
 4042SOL     ow16165   1.162   2.556   4.546  0.3429  0.0808 -0.3105
 4042SOL     hw16166   1.124   2.612   4.479  0.4011  1.9982  1.1536
 4042SOL     hw16167   1.253   2.586   4.553  1.0702 -1.8029 -1.0630
 4042SOL     vw16168   1.169   2.567   4.538  0.4466  0.0851 -0.2165
 4043SOL     ow16169   5.802   7.546   1.811 -0.4989  0.3571 -0.0731
 4043SOL     hw16170   5.804   7.539   1.716 -2.1694  0.0152 -0.1073
 4043SOL     hw16171   5.894   7.550   1.837  0.0389 -1.4042 -1.5645
 4043SOL     vw16172   5.814   7.546   1.802 -0.6485  0.0796 -0.2744
 4044SOL     ow16173   2.432   1.925   5.109 -0.1173  0.5336 -0.3137
 4044SOL     hw16174   2.406   1.880   5.190  1.0009  0.5680  0.0741
 4044SOL     hw16175   2.412   1.862   5.040 -1.1548  0.5304 -0.0341
 4044SOL     vw16176   2.426   1.911   5.111 -0.1067  0.5378 -0.2255
 4045SOL     ow16177   5.951   0.276   5.135  1.3349 -0.6255  0.4317
 4045SOL     hw16178   5.917   0.186   5.131 -1.3722  0.3352 -2.0009
 4045SOL     hw16179   6.020   0.278   5.068  0.8643 -0.7297 -0.0650
 4045SOL     vw16180   5.956   0.264   5.126  0.9155 -0.5125  0.0453
 4046SOL     ow16181   7.028   6.222   3.560 -0.9180  0.5893  0.2215
 4046SOL     hw16182   7.002   6.140   3.602  0.0302 -0.8669 -1.8674
 4046SOL     hw16183   7.116   6.206   3.528 -0.7561  2.4046 -0.3582
 4046SOL     vw16184   7.036   6.209   3.561 -0.7715  0.6368 -0.1305
 4047SOL     ow16185   5.616   1.777   6.256 -0.4833 -0.3013  0.4498
 4047SOL     hw16186   5.682   1.757   6.322 -1.4930 -0.5915  1.4018
 4047SOL     hw16187   5.664   1.822   6.187  0.5980  0.0705  1.4066
 4047SOL     vw16188   5.631   1.781   6.256 -0.4740 -0.2905  0.7017
 4048SOL     ow16189   6.705   0.834   0.531  0.4062 -0.1289 -0.2810
 4048SOL     hw16190   6.671   0.831   0.442 -1.6131 -1.2235  0.4577
 4048SOL     hw16191   6.772   0.766   0.533  0.0049 -0.5540 -0.8030
 4048SOL     vw16192   6.709   0.825   0.519  0.0870 -0.3294 -0.2525
 4049SOL     ow16193   6.577   7.137   3.735  0.8939  0.1731 -0.3473
 4049SOL     hw16194   6.584   7.045   3.709 -0.0510 -0.3854  1.3096
 4049SOL     hw16195   6.597   7.138   3.828 -4.7324  0.7124  1.1648
 4049SOL     vw16196   6.581   7.125   3.744  0.0267  0.1707  0.0708
 4050SOL     ow16197   5.453   2.462   2.578 -0.2743  0.3367 -0.1774
 4050SOL     hw16198   5.433   2.463   2.672 -1.1122 -1.9135 -0.2520
 4050SOL     hw16199   5.449   2.553   2.551  1.0874  1.1841  2.1729
 4050SOL     vw16200   5.450   2.474   2.587 -0.2050  0.1516  0.1228
 4051SOL     ow16201   0.631   5.215   6.595  0.2966  0.1338  0.3424
 4051SOL     hw16202   0.573   5.291   6.593 -1.6928 -1.2886 -2.2837
 4051SOL     hw16203   0.703   5.239   6.536  0.8531  0.7695  1.2566
 4051SOL     vw16204   0.633   5.229   6.587  0.1075  0.0298  0.1163
 4052SOL     ow16205   1.848   5.398   5.485  0.3870 -0.4501  0.6083
 4052SOL     hw16206   1.925   5.435   5.442 -0.2981  0.0779 -0.1932
 4052SOL     hw16207   1.836   5.451   5.563  0.5275 -0.1990  0.4619
 4052SOL     vw16208   1.857   5.410   5.490  0.3151 -0.3474  0.4833
 4053SOL     ow16209   5.755   4.971   0.343  0.5486 -0.0680  0.8123
 4053SOL     hw16210   5.754   4.876   0.331 -0.2633  0.0644 -0.3646
 4053SOL     hw16211   5.829   4.988   0.400 -0.2407 -1.5475  2.3491
 4053SOL     vw16212   5.764   4.961   0.349  0.3374 -0.2456  0.8598
 4054SOL     ow16213   5.161   6.446   7.220  0.4508 -0.4830 -0.3071
 4054SOL     hw16214   5.192   6.369   7.172 -2.5391 -2.8113  1.1418
 4054SOL     hw16215   5.069   6.454   7.196  0.6175  2.6138 -0.2460
 4054SOL     vw16216   5.153   6.437   7.211  0.0784 -0.3817 -0.1078
 4055SOL     ow16217   2.308   6.997   0.782  0.4164 -0.2305  0.0216
 4055SOL     hw16218   2.267   7.019   0.866  1.9373  2.1578  0.2310
 4055SOL     hw16219   2.257   7.045   0.717 -0.3509 -1.5571 -0.4042
 4055SOL     vw16220   2.295   7.006   0.785  0.5158 -0.0904 -0.0070
 4056SOL     ow16221   3.051   2.822   3.552 -0.7977  0.7423  0.0301
 4056SOL     hw16222   2.978   2.760   3.549  0.8506 -1.3161 -0.3379
 4056SOL     hw16223   3.080   2.829   3.461  0.8717 -0.3646  0.4101
 4056SOL     vw16224   3.046   2.815   3.539 -0.3600  0.3247  0.0316
 4057SOL     ow16225   7.622   2.902   0.878  0.0884  0.0696  0.7333
 4057SOL     hw16226   7.593   2.976   0.825 -0.2093 -0.8007 -0.3751
 4057SOL     hw16227   7.643   2.834   0.813 -0.0351 -0.9409  1.7307
 4057SOL     vw16228   7.621   2.903   0.862  0.0329 -0.1787  0.7187
 4058SOL     ow16229   7.310   7.496   0.247 -0.0472 -0.0697 -0.2409
 4058SOL     hw16230   7.301   7.434   0.175  0.8950 -0.4127 -0.0737
 4058SOL     hw16231   7.397   7.533   0.237 -0.2353  0.5167  0.2219
 4058SOL     vw16232   7.320   7.493   0.236  0.0525 -0.0379 -0.1578
 4059SOL     ow16233   3.417   2.127   5.306  0.4308 -0.3346 -0.0724
 4059SOL     hw16234   3.424   2.049   5.361 -0.3836 -0.0746  0.4229
 4059SOL     hw16235   3.447   2.199   5.361  0.8632 -0.2468 -0.4166
 4059SOL     vw16236   3.422   2.126   5.321  0.3804 -0.2886 -0.0527
 4060SOL     ow16237   4.292   1.037   3.619  0.0441 -0.5091 -0.4971
 4060SOL     hw16238   4.206   1.042   3.660  0.6849 -0.0591  0.8694
 4060SOL     hw16239   4.326   1.126   3.624  0.7617 -0.7679 -0.6288
 4060SOL     vw16240   4.285   1.049   3.625  0.2232 -0.4839 -0.3340
 4061SOL     ow16241   3.556   1.613   1.326 -0.2308 -0.3942  0.1364
 4061SOL     hw16242   3.539   1.708   1.325  1.9287  0.0524  1.1115
 4061SOL     hw16243   3.527   1.583   1.240 -3.4984  0.6078  0.7398
 4061SOL     vw16244   3.550   1.622   1.314 -0.3771 -0.2031  0.3446
 4062SOL     ow16245   2.659   2.830   7.517  0.1255  0.2442 -0.9236
 4062SOL     hw16246   2.738   2.831   7.463  1.5371 -1.3284  0.9707
 4062SOL     hw16247   2.673   2.899   7.582 -0.0062 -0.1140 -0.5124
 4062SOL     vw16248   2.671   2.839   7.518  0.2943 -0.0106 -0.6194
 4063SOL     ow16249   0.567   3.670   1.941 -0.3888  0.4143  0.7081
 4063SOL     hw16250   0.595   3.586   1.905 -2.0821 -0.0352  0.3245
 4063SOL     hw16251   0.620   3.682   2.019  1.4810  0.1061 -0.4534
 4063SOL     vw16252   0.578   3.660   1.947 -0.3655  0.3144  0.5043
 4064SOL     ow16253   4.116   5.794   0.920  0.1795  0.5453  0.6800
 4064SOL     hw16254   4.211   5.801   0.920  0.1506  1.1813  1.8685
 4064SOL     hw16255   4.098   5.711   0.874  1.1871  1.2899 -1.1552
 4064SOL     vw16256   4.126   5.784   0.914  0.3085  0.7274  0.5946
 4065SOL     ow16257   5.232   4.329   0.967 -0.2853  0.0691  0.7932
 4065SOL     hw16258   5.225   4.238   0.938 -1.3881  0.6136 -0.7877
 4065SOL     hw16259   5.251   4.323   1.061 -0.2763 -1.7848  0.7035
 4065SOL     vw16260   5.234   4.316   0.976 -0.4296 -0.1035  0.5728
 4066SOL     ow16261   6.828   2.911   7.449 -0.0240 -0.4435  0.0898
 4066SOL     hw16262   6.876   2.973   7.393  0.2351 -0.1955  0.5773
 4066SOL     hw16263   6.739   2.947   7.453 -0.1653 -0.7105 -0.5276
 4066SOL     vw16264   6.822   2.924   7.442 -0.0083 -0.4458  0.0725
 4067SOL     ow16265   4.673   1.065   4.867 -0.4082  0.2888 -0.4493
 4067SOL     hw16266   4.661   0.970   4.859 -0.3233  0.3049 -0.8176
 4067SOL     hw16267   4.732   1.077   4.941 -2.2375  0.1713  1.0960
 4067SOL     vw16268   4.679   1.054   4.875 -0.6385  0.2753 -0.2942
 4068SOL     ow16269   6.880   4.652   6.272 -0.5919 -0.4051  0.0640
 4068SOL     hw16270   6.815   4.597   6.228 -0.8211 -2.6288  2.9630
 4068SOL     hw16271   6.930   4.592   6.326  0.3733  1.9954  2.0060
 4068SOL     vw16272   6.878   4.637   6.273 -0.4950 -0.3819  0.7026
 4069SOL     ow16273   0.340   1.275   0.769  0.1184  0.0086 -0.4539
 4069SOL     hw16274   0.372   1.212   0.704  1.3079  1.0676 -0.9419
 4069SOL     hw16275   0.245   1.276   0.756  0.3885  1.0559 -3.0578
 4069SOL     vw16276   0.332   1.266   0.759  0.3110  0.2865 -0.8618
 4070SOL     ow16277   0.317   4.760   7.439 -0.4066  0.3201 -0.4046
 4070SOL     hw16278   0.352   4.672   7.451  0.5515  0.8887  1.3644
 4070SOL     hw16279   0.374   4.816   7.492 -0.7030  2.0945 -1.8373
 4070SOL     vw16280   0.329   4.756   7.447 -0.3193  0.6292 -0.3605
 4071SOL     ow16281   3.943   4.796   0.864  0.1508  0.3464  0.4966
 4071SOL     hw16282   3.953   4.719   0.808 -0.0482  0.2915  0.5344
 4071SOL     hw16283   4.011   4.857   0.834 -0.5782  0.7073 -0.4763
 4071SOL     vw16284   3.953   4.794   0.852  0.0285  0.3867  0.3732
 4072SOL     ow16285   4.985   4.821   7.522 -0.1903  0.4823 -0.4162
 4072SOL     hw16286   5.059   4.876   7.495 -0.2050 -0.6083 -2.9622
 4072SOL     hw16287   4.917   4.883   7.548 -0.0462  1.7376 -2.7408
 4072SOL     vw16288   4.986   4.837   7.522 -0.1729  0.5038 -1.0591
 4073SOL     ow16289   5.172   4.786   4.975 -0.6598  0.3924 -0.3033
 4073SOL     hw16290   5.166   4.694   5.000 -1.8785  0.7462  0.8161
 4073SOL     hw16291   5.102   4.798   4.910  1.1524 -0.0311 -2.4444
 4073SOL     vw16292   5.162   4.775   4.969 -0.5817  0.3831 -0.4380
 4074SOL     ow16293   4.232   3.205   4.329 -0.6561 -0.1000  0.1634
 4074SOL     hw16294   4.212   3.296   4.352 -1.2191 -0.3358  0.6098
 4074SOL     hw16295   4.172   3.153   4.382 -0.6295 -0.7201 -0.4071
 4074SOL     vw16296   4.221   3.210   4.339 -0.7269 -0.2129  0.1471
 4075SOL     ow16297   1.557   4.813   0.738 -0.1182  0.5725 -0.0602
 4075SOL     hw16298   1.622   4.744   0.725 -0.6949 -0.0617  0.3570
 4075SOL     hw16299   1.545   4.817   0.833 -0.1110  1.2330 -0.0814
 4075SOL     vw16300   1.564   4.805   0.749 -0.1934  0.5758 -0.0080
 4076SOL     ow16301   1.618   2.529   2.940 -0.3853  0.4971  0.4381
 4076SOL     hw16302   1.612   2.435   2.926  0.5845  0.3416  0.9098
 4076SOL     hw16303   1.528   2.561   2.935 -0.7356 -0.4742  0.4101
 4076SOL     vw16304   1.605   2.521   2.938 -0.3036  0.3484  0.4966
 4077SOL     ow16305   0.481   4.109   0.375  0.2774 -0.4434 -0.1662
 4077SOL     hw16306   0.456   4.023   0.408  1.3223 -1.6248 -2.2469
 4077SOL     hw16307   0.400   4.145   0.338 -0.0462 -0.7231  0.2505
 4077SOL     vw16308   0.467   4.103   0.375  0.3726 -0.6361 -0.3858
 4078SOL     ow16309   1.456   7.469   0.391 -0.4945  0.4497 -0.2786
 4078SOL     hw16310   1.473   7.506   0.305  0.2249 -0.5041 -0.5713
 4078SOL     hw16311   1.458   7.374   0.378 -0.2469  0.2822  0.7923
 4078SOL     vw16312   1.459   7.461   0.378 -0.3669  0.3016 -0.1760
 4079SOL     ow16313   7.319   0.866   7.451 -0.3263  0.1247  0.1792
 4079SOL     hw16314   7.289   0.794   7.506 -2.0422  2.4798  2.5840
 4079SOL     hw16315   7.402   0.893   7.489 -0.2653  0.1560  0.0242
 4079SOL     vw16316   7.326   0.860   7.463 -0.5448  0.4395  0.4761
 4080SOL     ow16317   7.104   7.296   6.871  0.6997  0.1655 -0.1274
 4080SOL     hw16318   7.131   7.280   6.962 -0.9420 -1.1265  0.1769
 4080SOL     hw16319   7.182   7.277   6.819  1.7170  1.0927  1.0132
 4080SOL     vw16320   7.118   7.291   6.876  0.6173  0.1173  0.0632
 4081SOL     ow16321   0.388   0.795   4.964  0.5529 -0.2338  0.5292
 4081SOL     hw16322   0.315   0.777   4.904  0.6431 -1.8809  0.8706
 4081SOL     hw16323   0.456   0.832   4.908 -1.0294  2.9098  0.4428
 4081SOL     vw16324   0.387   0.797   4.949  0.3561 -0.0364  0.5629
 4082SOL     ow16325   7.174   0.543   6.508  0.1980  0.1583  0.4666
 4082SOL     hw16326   7.250   0.486   6.490  0.8271  1.5485 -1.6891
 4082SOL     hw16327   7.212   0.629   6.522 -0.9221  0.6113  0.7628
 4082SOL     vw16328   7.189   0.547   6.507  0.1333  0.4015  0.2213
 4083SOL     ow16329   2.648   3.814   2.684  0.3780  0.7207 -0.0590
 4083SOL     hw16330   2.569   3.792   2.733 -0.9584  1.9446 -1.5133
 4083SOL     hw16331   2.700   3.868   2.744 -1.1056  2.0117  0.1273
 4083SOL     vw16332   2.644   3.818   2.698  0.0058  1.0526 -0.2263
 4084SOL     ow16333   4.724   2.872   4.885 -0.5548 -0.0958  0.3311
 4084SOL     hw16334   4.744   2.830   4.801  0.5415 -1.2513  1.1107
 4084SOL     hw16335   4.754   2.962   4.875 -0.2875 -0.2631 -0.4630
 4084SOL     vw16336   4.731   2.878   4.873 -0.3750 -0.2705  0.3293
 4085SOL     ow16337   3.966   5.200   1.282  0.1440 -0.1726 -0.1824
 4085SOL     hw16338   4.046   5.252   1.272 -0.8602  1.0630 -2.1748
 4085SOL     hw16339   3.985   5.143   1.357  1.5420  2.5468  1.7168
 4085SOL     vw16340   3.979   5.199   1.291  0.1961  0.3490 -0.1947
 4086SOL     ow16341   1.698   6.951   2.519 -0.6630  0.1960  0.2501
 4086SOL     hw16342   1.711   7.012   2.447 -0.1806  1.2522  1.1994
 4086SOL     hw16343   1.616   6.905   2.498 -1.4288  1.6932 -0.1272
 4086SOL     vw16344   1.689   6.953   2.507 -0.7005  0.5331  0.3254
 4087SOL     ow16345   6.133   4.490   5.624  0.3582 -0.1042 -0.0207
 4087SOL     hw16346   6.144   4.517   5.533  0.3821 -2.3179 -0.7130
 4087SOL     hw16347   6.214   4.445   5.646 -0.3193 -1.0819  0.5347
 4087SOL     vw16348   6.145   4.488   5.615  0.2720 -0.5252 -0.0389
 4088SOL     ow16349   3.956   1.856   0.341  0.0558  0.4094 -0.7164
 4088SOL     hw16350   3.977   1.783   0.282 -2.3741 -0.4658 -0.6301
 4088SOL     hw16351   3.999   1.932   0.302 -0.3346 -0.4016 -2.8757
 4088SOL     vw16352   3.964   1.856   0.328 -0.3163  0.1869 -0.9899
 4089SOL     ow16353   4.066   6.525   2.621  0.1071  0.0783  0.0438
 4089SOL     hw16354   4.067   6.601   2.679 -1.1624  0.9874 -1.0431
 4089SOL     hw16355   4.055   6.563   2.533 -0.8976 -1.3618 -0.4922
 4089SOL     vw16356   4.065   6.540   2.617 -0.1931  0.0081 -0.1704
 4090SOL     ow16357   5.716   6.467   0.956  0.8777  0.3805 -0.3117
 4090SOL     hw16358   5.642   6.523   0.931 -1.9372 -1.3901  3.0988
 4090SOL     hw16359   5.718   6.399   0.890  0.0225  0.9414 -0.9407
 4090SOL     vw16360   5.707   6.466   0.944  0.3932  0.2208  0.0553
 4091SOL     ow16361   1.280   6.655   1.017 -0.6205 -0.1221  0.2836
 4091SOL     hw16362   1.239   6.646   0.931 -0.3979  2.9179 -0.2323
 4091SOL     hw16363   1.374   6.647   1.000 -0.5124  1.4858  0.0502
 4091SOL     vw16364   1.287   6.653   1.003 -0.5769  0.4909  0.1847
 4092SOL     ow16365   6.464   6.893   5.349 -0.4199  0.4288  0.3363
 4092SOL     hw16366   6.510   6.966   5.390 -1.4523  2.0067 -1.1943
 4092SOL     hw16367   6.371   6.913   5.358 -0.9678 -2.4988  2.9873
 4092SOL     vw16368   6.458   6.905   5.355 -0.6287  0.2506  0.4842
 4093SOL     ow16369   6.124   4.402   5.926  0.5110 -0.3716 -0.0398
 4093SOL     hw16370   6.180   4.324   5.933 -0.4788 -1.0721  0.2069
 4093SOL     hw16371   6.173   4.470   5.971  1.4839 -0.7920 -0.4230
 4093SOL     vw16372   6.138   4.400   5.933  0.5090 -0.5190 -0.0577
 4094SOL     ow16373   3.723   1.000   0.389 -0.3176 -0.1895  0.2790
 4094SOL     hw16374   3.671   0.950   0.452 -0.9923  1.4760  1.0999
 4094SOL     hw16375   3.802   1.025   0.438  1.0319 -2.1317 -0.7545
 4094SOL     vw16376   3.727   0.997   0.404 -0.2286 -0.2261  0.2510
 4095SOL     ow16377   1.742   2.362   0.791 -1.0260 -0.0158 -0.2600
 4095SOL     hw16378   1.774   2.286   0.742  0.6416  0.1723  0.4554
 4095SOL     hw16379   1.677   2.403   0.733 -1.0212 -1.2650 -1.1831
 4095SOL     vw16380   1.738   2.358   0.777 -0.8054 -0.1557 -0.2875
 4096SOL     ow16381   1.899   5.593   3.971  0.2196 -0.4647 -0.3257
 4096SOL     hw16382   1.903   5.502   3.940 -3.9325 -1.4639  1.4349
 4096SOL     hw16383   1.931   5.588   4.061 -2.2940 -0.8378  0.6333
 4096SOL     vw16384   1.904   5.580   3.979 -0.6599 -0.6456  0.0333
 4097SOL     ow16385   4.855   5.228   2.073  0.0155 -0.0151 -0.1537
 4097SOL     hw16386   4.951   5.228   2.062 -0.0085 -0.6005 -0.3804
 4097SOL     hw16387   4.824   5.287   2.005  0.4342  3.0870  2.1270
 4097SOL     vw16388   4.864   5.236   2.062  0.0677  0.3169  0.1174
 4098SOL     ow16389   1.414   2.477   5.769  0.0369 -0.9404  0.4194
 4098SOL     hw16390   1.471   2.532   5.824 -0.7051  0.8546 -0.5210
 4098SOL     hw16391   1.455   2.391   5.772  2.4078  0.0895  0.3771
 4098SOL     vw16392   1.427   2.473   5.777  0.2518 -0.5678  0.2897
 4099SOL     ow16393   1.711   2.181   0.100  0.1996  0.3088 -0.3892
 4099SOL     hw16394   1.653   2.133   0.158  0.0684  0.2308 -0.5856
 4099SOL     hw16395   1.794   2.187   0.148 -0.3505  1.5653  0.4556
 4099SOL     vw16396   1.714   2.176   0.114  0.1097  0.4643 -0.3037
 4100SOL     ow16397   0.074   0.351   1.404 -0.2141  0.0978  0.6044
 4100SOL     hw16398   0.108   0.293   1.472 -0.2858 -0.1116  0.4607
 4100SOL     hw16399   0.044   0.429   1.452 -3.9530 -1.5677  1.3600
 4100SOL     vw16400   0.074   0.354   1.419 -0.7169 -0.1496  0.6851
 4101SOL     ow16401   3.985   6.672   7.179  0.3965  0.1843 -0.4903
 4101SOL     hw16402   3.911   6.614   7.198  0.6112 -0.1575 -0.6865
 4101SOL     hw16403   3.993   6.670   7.084  1.0245 -0.2391 -0.4327
 4101SOL     vw16404   3.976   6.664   7.169  0.5076  0.0832 -0.5088
 4102SOL     ow16405   3.935   5.085   7.447  0.1823 -0.0210 -0.4111
 4102SOL     hw16406   3.988   5.005   7.450  2.2616  1.3092  0.2732
 4102SOL     hw16407   3.885   5.077   7.365  3.6577 -0.0625 -2.7324
 4102SOL     vw16408   3.935   5.073   7.437  0.9151  0.1493 -0.6273
 4103SOL     ow16409   7.432   1.792   0.978 -0.3241 -0.2421  0.4120
 4103SOL     hw16410   7.386   1.805   1.061 -0.9576 -0.3415  0.0823
 4103SOL     hw16411   7.521   1.821   0.996 -0.7344  0.8423  0.8054
 4103SOL     vw16412   7.437   1.797   0.991 -0.4618 -0.1121  0.4204
 4104SOL     ow16413   1.185   0.903   1.555  0.4984  1.0954 -0.6232
 4104SOL     hw16414   1.137   0.827   1.521  1.2085  0.4870 -0.2925
 4104SOL     hw16415   1.203   0.956   1.477  1.8649 -0.1500 -1.1918
 4104SOL     vw16416   1.181   0.900   1.540  0.7724  0.8508 -0.6546
 4105SOL     ow16417   3.757   1.986   5.858 -0.2314 -0.8175  0.7545
 4105SOL     hw16418   3.722   2.041   5.788  1.1564  0.3720  0.9380
 4105SOL     hw16419   3.762   2.044   5.934  0.6141 -1.3887  1.1469
 4105SOL     vw16420   3.753   2.001   5.859  0.0633 -0.7358  0.8304
 4106SOL     ow16421   0.792   4.809   6.474 -0.0196  0.7252 -0.1477
 4106SOL     hw16422   0.762   4.762   6.396 -0.1999 -1.3196  1.0900
 4106SOL     hw16423   0.812   4.741   6.538 -2.0755  2.3076  2.4348
 4106SOL     vw16424   0.791   4.794   6.472 -0.3146  0.6642  0.3562
 4107SOL     ow16425   1.059   4.462   6.544  0.1873 -0.4558  0.6926
 4107SOL     hw16426   1.122   4.534   6.540  0.5379 -0.6304  2.4363
 4107SOL     hw16427   0.986   4.496   6.596 -0.7662 -0.5679 -0.5376
 4107SOL     vw16428   1.058   4.476   6.550  0.1078 -0.4938  0.7603
 4108SOL     ow16429   5.796   5.542   6.631 -0.2347  0.3629 -0.2133
 4108SOL     hw16430   5.796   5.448   6.618 -2.0385 -0.2032  2.8797
 4108SOL     hw16431   5.703   5.566   6.635  0.1670  1.9539  0.7056
 4108SOL     vw16432   5.783   5.533   6.630 -0.4196  0.4985  0.3161
 4109SOL     ow16433   7.517   5.888   1.377 -0.5561  0.1836  0.6460
 4109SOL     hw16434   7.588   5.921   1.322  0.9626 -0.7405  1.9683
 4109SOL     hw16435   7.441   5.888   1.320  0.5550  0.9802 -0.9099
 4109SOL     vw16436   7.517   5.892   1.362 -0.2091  0.1669  0.6151
 4110SOL     ow16437   3.511   6.080   6.460  0.0193 -0.2153  0.5449
 4110SOL     hw16438   3.450   6.134   6.511 -0.3747 -0.1443 -0.0025
 4110SOL     hw16439   3.497   5.991   6.493  0.1408 -0.0962  0.9272
 4110SOL     vw16440   3.501   6.075   6.471 -0.0167 -0.1903  0.5231
 4111SOL     ow16441   4.439   5.643   5.084  0.4502 -0.4321  0.0784
 4111SOL     hw16442   4.463   5.634   4.992 -0.2726 -2.0306  0.0165
 4111SOL     hw16443   4.518   5.678   5.126  1.2424 -0.9447 -0.9270
 4111SOL     vw16444   4.453   5.646   5.078  0.4594 -0.7110 -0.0625
 4112SOL     ow16445   0.676   2.123   5.484  0.5294  0.0980  0.8294
 4112SOL     hw16446   0.604   2.102   5.425  1.0361 -0.6359  0.4456
 4112SOL     hw16447   0.685   2.046   5.540  0.9845  0.1896  0.8909
 4112SOL     vw16448   0.668   2.110   5.483  0.6563  0.0132  0.7870
 4113SOL     ow16449   2.114   1.120   5.433  0.0472 -0.4944 -0.7809
 4113SOL     hw16450   2.139   1.100   5.524 -1.0198 -2.2091 -0.8330
 4113SOL     hw16451   2.070   1.205   5.439  1.8504  0.4569 -0.0457
 4113SOL     vw16452   2.112   1.128   5.446  0.1441 -0.5952 -0.6907
 4114SOL     ow16453   4.344   0.854   1.757 -0.2326 -0.2251 -0.6594
 4114SOL     hw16454   4.359   0.934   1.808  0.3658  1.2782 -3.0727
 4114SOL     hw16455   4.260   0.821   1.790  0.4978  0.1893  1.8288
 4114SOL     vw16456   4.335   0.861   1.768 -0.0567  0.0279 -0.6495
 4115SOL     ow16457   2.641   3.372   4.107 -0.2089  0.1691  0.8035
 4115SOL     hw16458   2.695   3.373   4.028 -1.1173 -0.7664  0.1412
 4115SOL     hw16459   2.563   3.420   4.083  0.0546  1.0019  1.5677
 4115SOL     vw16460   2.638   3.378   4.093 -0.2941  0.1556  0.8168
 4116SOL     ow16461   5.280   1.116   6.945  0.9174 -0.2879 -0.1472
 4116SOL     hw16462   5.372   1.129   6.967  0.8604  0.8106 -0.4762
 4116SOL     hw16463   5.246   1.060   7.015  1.6225  0.0518  0.4820
 4116SOL     vw16464   5.287   1.110   6.957  1.0033 -0.0981 -0.1078
 4117SOL     ow16465   0.366   6.959   2.567 -0.3320  0.6453  0.3174
 4117SOL     hw16466   0.380   7.035   2.510 -1.2949 -0.1199 -0.9794
 4117SOL     hw16467   0.406   6.886   2.520  1.6716  0.4754  2.1035
 4117SOL     vw16468   0.373   6.959   2.554 -0.1947  0.5221  0.3821
 4118SOL     ow16469   5.094   5.005   5.108  1.3807 -0.2243  0.3778
 4118SOL     hw16470   5.119   5.081   5.056  1.1939  0.5501  1.3834
 4118SOL     hw16471   5.143   4.932   5.070  2.4244  0.6021  0.0875
 4118SOL     vw16472   5.104   5.006   5.096  1.4935 -0.0131  0.4723
 4119SOL     ow16473   4.689   6.880   1.407 -0.3587  0.6288  0.3496
 4119SOL     hw16474   4.733   6.848   1.328 -1.9817  0.5907 -0.5700
 4119SOL     hw16475   4.760   6.914   1.461  0.7680  1.0101 -1.2913
 4119SOL     vw16476   4.704   6.880   1.404 -0.4239  0.6742  0.0117
 4120SOL     ow16477   1.688   0.163   5.007  0.1079 -0.1375 -0.4385
 4120SOL     hw16478   1.678   0.250   5.046  0.4280 -0.2002 -0.2077
 4120SOL     hw16479   1.676   0.102   5.080  0.9435 -0.2479 -0.3810
 4120SOL     vw16480   1.685   0.166   5.021  0.2603 -0.1603 -0.4005
 4121SOL     ow16481   6.389   0.896   4.698 -0.1069  0.3549  0.1302
 4121SOL     hw16482   6.408   0.938   4.781 -2.0698 -1.2036  1.4698
 4121SOL     hw16483   6.321   0.950   4.658 -1.8815 -0.8460  1.3704
 4121SOL     vw16484   6.383   0.908   4.704 -0.5999 -0.0092  0.4704
 4122SOL     ow16485   4.743   5.930   0.825 -0.6253 -0.0522 -0.0517
 4122SOL     hw16486   4.814   5.898   0.881  1.7692  0.1449 -2.7479
 4122SOL     hw16487   4.774   5.915   0.736 -3.8135  0.5310 -1.3957
 4122SOL     vw16488   4.757   5.924   0.821 -0.7298  0.0508 -0.5847
 4123SOL     ow16489   6.761   1.166   0.682 -0.1147 -0.0969  0.0403
 4123SOL     hw16490   6.788   1.084   0.724 -0.6974 -1.1863 -1.6273
 4123SOL     hw16491   6.683   1.143   0.633 -0.1611  1.4252 -0.6468
 4123SOL     vw16492   6.754   1.152   0.681 -0.1976 -0.0398 -0.2703
 4124SOL     ow16493   2.503   0.436   7.497 -0.1896  0.0757  0.2828
 4124SOL     hw16494   2.539   0.520   7.469 -0.9835  0.5325  0.5848
 4124SOL     hw16495   2.532   0.428   7.588 -1.8324  1.0378  0.9283
 4124SOL     vw16496   2.512   0.446   7.506 -0.5111  0.2629  0.4077
 4125SOL     ow16497   2.001   1.410   4.106 -0.0937 -0.4363  0.0216
 4125SOL     hw16498   2.034   1.491   4.144  0.6663 -1.1329  0.8973
 4125SOL     hw16499   2.031   1.341   4.166 -0.4619 -1.3977 -0.8629
 4125SOL     vw16500   2.009   1.411   4.119 -0.0421 -0.6551  0.0205
 4126SOL     ow16501   5.130   2.103   6.600  0.6717 -0.5387 -0.5294
 4126SOL     hw16502   5.132   2.015   6.563  1.0646 -1.1473  0.8788
 4126SOL     hw16503   5.126   2.090   6.695 -0.1092  0.9614 -0.3151
 4126SOL     vw16504   5.130   2.090   6.608  0.6206 -0.4212 -0.3152
 4127SOL     ow16505   4.358   3.461   2.357 -0.1288 -0.0751  0.6973
 4127SOL     hw16506   4.436   3.495   2.400  0.2056  2.5965 -1.6867
 4127SOL     hw16507   4.392   3.402   2.289 -0.1961  0.4782  0.1712
 4127SOL     vw16508   4.373   3.457   2.354 -0.0937  0.3505  0.3134
 4128SOL     ow16509   0.007   0.118   1.208 -0.7966 -0.0891  0.5468
 4128SOL     hw16510   0.027   0.068   1.287  1.7893  1.5904  1.0998
 4128SOL     hw16511  -0.077   0.084   1.178 -0.0598 -3.4397  1.8415
 4128SOL     vw16512  -0.001   0.107   1.215 -0.3582 -0.3096  0.7906
 4129SOL     ow16513   2.897   0.782   0.238 -0.2008  0.0347 -0.1560
 4129SOL     hw16514   2.990   0.765   0.248 -0.2683 -0.7055 -0.7069
 4129SOL     hw16515   2.860   0.770   0.326  0.2914  0.8781  0.1797
 4129SOL     vw16516   2.904   0.778   0.251 -0.1448  0.0483 -0.1844
 4130SOL     ow16517   7.069   3.855   7.281 -0.0737  0.0325  0.3315
 4130SOL     hw16518   6.988   3.904   7.268 -0.4634 -0.2901  1.5223
 4130SOL     hw16519   7.076   3.799   7.203 -1.1197 -0.1266  0.3397
 4130SOL     vw16520   7.059   3.854   7.269 -0.2630 -0.0311  0.4897
 4131SOL     ow16521   1.254   2.373   3.836  0.0743  0.2668 -0.1422
 4131SOL     hw16522   1.266   2.295   3.891 -0.8550  0.3387  0.1853
 4131SOL     hw16523   1.335   2.379   3.786  1.2846  0.6122  1.7242
 4131SOL     vw16524   1.266   2.363   3.837  0.1115  0.3219  0.1472
 4132SOL     ow16525   4.560   7.160   5.782 -0.3682  0.3928  0.1682
 4132SOL     hw16526   4.603   7.167   5.697  1.5521 -0.7787  1.0011
 4132SOL     hw16527   4.502   7.084   5.774  1.5888 -1.2160  0.5803
 4132SOL     vw16528   4.558   7.151   5.770  0.1431  0.0260  0.3324
 4133SOL     ow16529   5.561   2.723   2.216  0.4078 -0.1401  0.7332
 4133SOL     hw16530   5.642   2.772   2.204 -0.0841  0.4674 -0.3477
 4133SOL     hw16531   5.579   2.636   2.181  0.0253  0.5970 -1.4599
 4133SOL     vw16532   5.574   2.718   2.209  0.2923  0.0372  0.3012
 4134SOL     ow16533   4.226   6.377   7.411 -0.3271  0.2332 -0.4991
 4134SOL     hw16534   4.239   6.471   7.401 -1.1687  0.3671 -0.4253
 4134SOL     hw16535   4.179   6.368   7.494  0.2330 -0.2936 -0.2365
 4134SOL     vw16536   4.221   6.388   7.420 -0.3643  0.1812 -0.4549
 4135SOL     ow16537   7.180   0.708   7.164 -0.2355 -0.4201 -0.4120
 4135SOL     hw16538   7.162   0.658   7.244 -1.5940  0.1940 -0.2948
 4135SOL     hw16539   7.200   0.642   7.098  0.1858 -0.9808  0.2657
 4135SOL     vw16540   7.180   0.692   7.166 -0.3588 -0.4131 -0.3071
 4136SOL     ow16541   1.614   4.081   7.639 -0.2261  0.0753 -0.5602
 4136SOL     hw16542   1.537   4.139   7.636 -1.7172 -1.8326 -1.3632
 4136SOL     hw16543   1.622   4.057   7.731 -0.5975  0.3102 -0.4623
 4136SOL     vw16544   1.605   4.086   7.651 -0.4718 -0.1454 -0.6532
 4137SOL     ow16545   1.873   2.150   0.730  0.1033  0.8856  0.8818
 4137SOL     hw16546   1.968   2.142   0.731 -0.0218 -1.2284  1.1199
 4137SOL     hw16547   1.845   2.108   0.812 -1.0990  0.0310  0.0605
 4137SOL     vw16548   1.882   2.143   0.741 -0.0718  0.4940  0.8048
 4138SOL     ow16549   6.248   6.261   2.208  0.5171 -0.5363  0.2534
 4138SOL     hw16550   6.212   6.310   2.281 -1.5717 -0.6647 -0.6146
 4138SOL     hw16551   6.301   6.324   2.160 -0.0546  0.1918  0.5642
 4138SOL     vw16552   6.250   6.276   2.211  0.1659 -0.4570  0.1798
 4139SOL     ow16553   0.656   4.584   2.293  0.3355  0.1019 -0.1911
 4139SOL     hw16554   0.638   4.542   2.378  0.0475 -2.8270 -1.5610
 4139SOL     hw16555   0.636   4.676   2.307 -0.1542 -0.3495  2.7885
 4139SOL     vw16556   0.651   4.590   2.306  0.2329 -0.3443  0.0215
 4140SOL     ow16557   5.909   3.032   6.059  0.5405  0.3393 -0.2214
 4140SOL     hw16558   5.871   2.948   6.032  0.9224 -0.2052  0.8509
 4140SOL     hw16559   5.853   3.062   6.130  2.0917 -0.5129  1.4327
 4140SOL     vw16560   5.897   3.025   6.065  0.7954  0.1551  0.1380
 4141SOL     ow16561   7.316   0.735   1.379  0.1050  0.0846 -0.3469
 4141SOL     hw16562   7.336   0.718   1.471  0.1988  2.3530  0.1159
 4141SOL     hw16563   7.231   0.694   1.365  0.1690 -0.4317  0.6948
 4141SOL     vw16564   7.307   0.728   1.389  0.1259  0.3158 -0.1484
 4142SOL     ow16565   4.402   3.991   5.702  0.1882 -0.0345 -0.0122
 4142SOL     hw16566   4.367   4.002   5.790  3.2830 -1.0501  1.4698
 4142SOL     hw16567   4.443   4.075   5.681  1.6029 -0.5277  0.6279
 4142SOL     vw16568   4.403   4.003   5.711  0.7832 -0.2337  0.2682
 4143SOL     ow16569   7.402   0.363   2.126 -0.1691  0.4282  0.1659
 4143SOL     hw16570   7.354   0.326   2.052 -0.2523 -1.6817  1.1926
 4143SOL     hw16571   7.474   0.412   2.086 -1.0100  0.5056 -1.3256
 4143SOL     vw16572   7.405   0.364   2.111 -0.2911  0.1600  0.1045
 4144SOL     ow16573   0.282   6.903   5.354  0.4121 -1.0051 -0.0625
 4144SOL     hw16574   0.334   6.920   5.275 -1.2169 -1.2498 -1.2199
 4144SOL     hw16575   0.310   6.971   5.416  0.7785  0.0113 -1.3065
 4144SOL     vw16576   0.293   6.914   5.352  0.2456 -0.9031 -0.3796
 4145SOL     ow16577   1.837   3.142   1.721  0.4946 -0.9560  0.7151
 4145SOL     hw16578   1.920   3.132   1.768  2.2250  0.3836 -1.8280
 4145SOL     hw16579   1.861   3.131   1.629 -1.6473  1.9672 -0.3246
 4145SOL     vw16580   1.851   3.139   1.715  0.4403 -0.3936  0.2424
 4146SOL     ow16581   1.086   0.752   0.413  0.4470 -0.6857 -0.2002
 4146SOL     hw16582   1.063   0.672   0.366 -2.4522 -0.7352  1.0835
 4146SOL     hw16583   1.125   0.722   0.495  1.1655 -0.7156 -0.5480
 4146SOL     vw16584   1.088   0.738   0.417  0.1593 -0.6962 -0.0767
 4147SOL     ow16585   7.151   0.654   7.617 -0.2734 -0.2774  0.2039
 4147SOL     hw16586   7.075   0.671   7.561  2.0849 -0.6361 -3.4718
 4147SOL     hw16587   7.126   0.578   7.669 -2.6397  0.0159 -0.3901
 4147SOL     vw16588   7.137   0.646   7.617 -0.2744 -0.2860 -0.3593
 4148SOL     ow16589   3.331   2.161   0.853  0.7003 -0.2060 -0.2302
 4148SOL     hw16590   3.254   2.120   0.892  0.6841  0.5533  0.5773
 4148SOL     hw16591   3.405   2.127   0.904  0.6524  1.0196  0.7239
 4148SOL     vw16592   3.331   2.151   0.865  0.6919  0.0560  0.0022
 4149SOL     ow16593   0.996   3.474   4.877  0.4740 -0.1918  0.1911
 4149SOL     hw16594   1.031   3.480   4.966  0.3318 -2.0880  0.4227
 4149SOL     hw16595   1.066   3.434   4.826  0.4013  0.5030 -0.4671
 4149SOL     vw16596   1.010   3.470   4.882  0.4456 -0.3504  0.1347
 4150SOL     ow16597   2.296   4.500   5.671 -0.4069  0.6726 -0.4409
 4150SOL     hw16598   2.348   4.421   5.655 -0.2325  0.6055  0.3688
 4150SOL     hw16599   2.207   4.468   5.685 -0.8978  0.8684 -2.7687
 4150SOL     vw16600   2.291   4.485   5.671 -0.4488  0.6897 -0.6411
 4151SOL     ow16601   6.539   7.204   2.896  1.0683  0.2533 -0.1716
 4151SOL     hw16602   6.473   7.190   2.829 -1.3097  0.2682  1.9914
 4151SOL     hw16603   6.497   7.265   2.958  2.5404 -0.8254  2.0181
 4151SOL     vw16604   6.524   7.211   2.896  0.9487  0.1130  0.4027
 4152SOL     ow16605   2.328   7.640   2.455 -0.4516 -0.0346  0.3483
 4152SOL     hw16606   2.258   7.695   2.491 -1.1928 -1.4528  1.1368
 4152SOL     hw16607   2.307   7.633   2.362 -0.0509  1.4076  0.1160
 4152SOL     vw16608   2.316   7.647   2.448 -0.4965 -0.0314  0.4219
 4153SOL     ow16609   5.527   4.267   1.546 -0.0389  0.5731 -0.0312
 4153SOL     hw16610   5.578   4.188   1.527 -1.2143 -0.3486  0.5264
 4153SOL     hw16611   5.543   4.324   1.471  0.4615 -0.3826 -0.6796
 4153SOL     vw16612   5.536   4.264   1.533 -0.1278  0.3252 -0.0432
 4154SOL     ow16613   1.774   5.681   3.310 -0.0576  0.1589 -0.5207
 4154SOL     hw16614   1.856   5.631   3.307  0.5758  1.0961  0.3875
 4154SOL     hw16615   1.719   5.632   3.370 -0.0850 -0.3635 -0.9688
 4154SOL     vw16616   1.778   5.668   3.318  0.0224  0.2139 -0.4599
 4155SOL     ow16617   3.961   5.581   6.594  0.5383  0.8582  0.2146
 4155SOL     hw16618   3.945   5.567   6.687  0.4150  2.2319  0.4320
 4155SOL     hw16619   4.056   5.571   6.583  0.4258 -0.3339  0.2787
 4155SOL     vw16620   3.971   5.578   6.605  0.5071  0.8821  0.2518
 4156SOL     ow16621   0.172   5.268   1.610  0.4665  0.4530 -0.4918
 4156SOL     hw16622   0.165   5.187   1.559  2.3540 -0.2731  0.3354
 4156SOL     hw16623   0.264   5.294   1.601  0.2263  1.7077  0.4522
 4156SOL     vw16624   0.183   5.261   1.602  0.6838  0.5226 -0.2581
 4157SOL     ow16625   0.301   6.145   7.016 -0.2233  0.8558  0.1445
 4157SOL     hw16626   0.307   6.069   7.074 -1.3736  0.2814 -0.4584
 4157SOL     hw16627   0.336   6.217   7.068 -0.1570  0.1344  1.1388
 4157SOL     vw16628   0.306   6.144   7.031 -0.3663  0.6847  0.1960
 4158SOL     ow16629   6.927   2.825   1.375 -0.2226  0.3152 -0.3681
 4158SOL     hw16630   7.016   2.829   1.342 -0.1231  2.8655  0.0157
 4158SOL     hw16631   6.872   2.819   1.297  0.2174  0.2426 -0.6737
 4158SOL     vw16632   6.932   2.825   1.361 -0.1514  0.6422 -0.3579
 4159SOL     ow16633   2.569   3.243   5.282  0.7112 -0.7891  0.0115
 4159SOL     hw16634   2.539   3.333   5.273  0.2694 -1.1221 -2.5095
 4159SOL     hw16635   2.521   3.210   5.359 -0.7733  0.4926 -0.3084
 4159SOL     vw16636   2.559   3.250   5.291  0.4569 -0.6640 -0.3636
 4160SOL     ow16637   0.843   2.062   5.803 -0.3350  0.3292  0.2700
 4160SOL     hw16638   0.920   2.106   5.768 -0.4896  1.3133  1.1044
 4160SOL     hw16639   0.810   2.009   5.731  0.2016  1.1339 -0.5885
 4160SOL     vw16640   0.849   2.061   5.789 -0.2846  0.5651  0.2670
 4161SOL     ow16641   0.391   1.365   7.056  0.3837 -0.0551 -0.7911
 4161SOL     hw16642   0.443   1.414   7.120  1.2423 -0.5872 -1.0704
 4161SOL     hw16643   0.301   1.393   7.073  0.5691 -0.3184  0.7575
 4161SOL     vw16644   0.386   1.375   7.067  0.5214 -0.1600 -0.6237
 4162SOL     ow16645   1.901   4.816   2.758 -0.2465 -0.0188  0.1996
 4162SOL     hw16646   1.890   4.762   2.680 -1.0735 -1.4207  1.2376
 4162SOL     hw16647   1.986   4.790   2.793 -0.4412 -0.3396  0.4462
 4162SOL     vw16648   1.910   4.805   2.752 -0.3813 -0.2458  0.3690
 4163SOL     ow16649   7.405   2.271   2.567  0.1457  0.2372 -0.3570
 4163SOL     hw16650   7.378   2.188   2.606 -0.9987  0.7195 -0.0612
 4163SOL     hw16651   7.500   2.272   2.574  0.2938 -1.5795 -1.4520
 4163SOL     vw16652   7.414   2.260   2.573  0.0143  0.0612 -0.4625
 4164SOL     ow16653   1.484   0.819   4.089  0.3849 -0.0530  0.2651
 4164SOL     hw16654   1.523   0.806   4.002  0.5105  1.3290  0.0977
 4164SOL     hw16655   1.559   0.832   4.147  0.2698 -0.1489  0.4366
 4164SOL     vw16656   1.499   0.819   4.085  0.3863  0.1167  0.2656
 4165SOL     ow16657   5.443   3.642   7.452  0.1469  0.3135 -0.1862
 4165SOL     hw16658   5.526   3.610   7.490  0.5392  0.9879 -0.4629
 4165SOL     hw16659   5.410   3.704   7.517  1.0123  1.7618 -1.0877
 4165SOL     vw16660   5.450   3.646   7.466  0.3128  0.5935 -0.3417
 4166SOL     ow16661   1.582   1.054   1.903 -0.0012 -0.5130  0.5859
 4166SOL     hw16662   1.548   1.004   1.828  2.3930 -0.1154 -0.8840
 4166SOL     hw16663   1.542   1.140   1.894  1.0340 -0.1380 -0.9468
 4166SOL     vw16664   1.572   1.058   1.892  0.4513 -0.4110  0.1897
 4167SOL     ow16665   6.267   2.444   3.974  0.4281  0.2278  0.0806
 4167SOL     hw16666   6.304   2.513   3.918  0.5548  0.3265  0.2848
 4167SOL     hw16667   6.193   2.485   4.017  0.2744  0.1239 -0.0818
 4167SOL     vw16668   6.262   2.459   3.972  0.4246  0.2271  0.0862
 4168SOL     ow16669   3.504   1.493   4.276  0.3728 -0.2758  0.3994
 4168SOL     hw16670   3.485   1.575   4.231  1.0587  1.3637  2.9141
 4168SOL     hw16671   3.594   1.473   4.252  1.2912  1.4486  2.1693
 4168SOL     vw16672   3.513   1.501   4.267  0.5845  0.1680  0.9646
 4169SOL     ow16673   6.346   4.786   2.317 -0.2130 -0.2511 -0.2232
 4169SOL     hw16674   6.435   4.767   2.347  0.7688  1.1878 -1.9469
 4169SOL     hw16675   6.329   4.720   2.250 -1.4851 -2.0353  1.7382
 4169SOL     vw16676   6.355   4.775   2.312 -0.2513 -0.2968 -0.1919
 4170SOL     ow16677   0.090   7.202   5.825 -0.6424 -0.0188  0.3782
 4170SOL     hw16678   0.005   7.235   5.853  0.7372  3.3719  1.0189
 4170SOL     hw16679   0.131   7.275   5.778  1.6735 -1.7501 -0.5357
 4170SOL     vw16680   0.085   7.216   5.822 -0.1548  0.2000  0.3419
 4171SOL     ow16681   2.092   1.413   2.396  0.0251  0.3631 -0.5384
 4171SOL     hw16682   2.030   1.466   2.345  1.9927  0.4897 -3.0148
 4171SOL     hw16683   2.107   1.463   2.476  0.0745  2.4666 -1.7839
 4171SOL     vw16684   2.086   1.426   2.400  0.2913  0.6573 -1.0295
 4172SOL     ow16685   0.843   4.904   2.650 -0.1485  0.0133  0.0499
 4172SOL     hw16686   0.804   4.899   2.737  0.8402 -0.8496  0.4647
 4172SOL     hw16687   0.821   4.821   2.608 -0.0725  0.1591 -0.2911
 4172SOL     vw16688   0.835   4.893   2.656 -0.0080 -0.0813  0.0595
 4173SOL     ow16689   3.004   7.443   2.858 -0.0835 -0.2055 -0.0887
 4173SOL     hw16690   2.962   7.358   2.868 -2.6314  0.9893  0.0592
 4173SOL     hw16691   2.934   7.507   2.871  1.6203  1.9352 -0.7364
 4173SOL     vw16692   2.990   7.441   2.861 -0.1949  0.2346 -0.1546
 4174SOL     ow16693   7.618   0.944   4.685 -0.2400 -0.3906 -0.1621
 4174SOL     hw16694   7.526   0.932   4.706  0.4201 -2.0611  2.1714
 4174SOL     hw16695   7.643   1.024   4.732  0.1556 -1.6281  1.8510
 4174SOL     vw16696   7.609   0.953   4.694 -0.1004 -0.7743  0.4115
 4175SOL     ow16697   4.500   5.983   7.167 -0.5477 -0.1078 -0.1417
 4175SOL     hw16698   4.444   6.053   7.200  0.5362  0.8632 -0.2996
 4175SOL     hw16699   4.582   5.993   7.215  0.6245  0.5490 -2.1761
 4175SOL     vw16700   4.504   5.994   7.178 -0.2501  0.1066 -0.4306
 4176SOL     ow16701   2.696   2.047   3.218  0.3778 -0.2772 -0.0265
 4176SOL     hw16702   2.608   2.017   3.242  0.4605 -1.5704 -1.2176
 4176SOL     hw16703   2.710   2.124   3.272 -0.7379 -1.1357  1.5695
 4176SOL     vw16704   2.686   2.053   3.228  0.2415 -0.5611  0.0267
 4177SOL     ow16705   0.322   0.452   5.007  0.7275 -0.3317 -0.1125
 4177SOL     hw16706   0.363   0.466   4.921  1.9712 -0.1991  0.4824
 4177SOL     hw16707   0.250   0.391   4.989 -0.8526  1.8368 -1.7182
 4177SOL     vw16708   0.318   0.446   4.993  0.6831 -0.0281 -0.2460
 4178SOL     ow16709   0.741   7.050   3.140  0.5921  0.1885  0.0840
 4178SOL     hw16710   0.758   7.118   3.204 -0.3929 -0.4153  1.0174
 4178SOL     hw16711   0.659   7.077   3.097 -0.5295 -1.0158  1.3681
 4178SOL     vw16712   0.732   7.063   3.143  0.3141 -0.0501  0.3766
 4179SOL     ow16713   0.227   5.362   0.909 -0.1547 -0.8965  0.5116
 4179SOL     hw16714   0.256   5.443   0.867  2.1300 -0.5174  2.5683
 4179SOL     hw16715   0.150   5.388   0.959 -1.4073 -0.8024 -1.3670
 4179SOL     vw16716   0.221   5.376   0.910 -0.0186 -0.8340  0.5351
 4180SOL     ow16717   3.622   2.140   5.645 -0.7847 -0.0199  0.1280
 4180SOL     hw16718   3.592   2.215   5.594  0.8445 -0.6770 -1.9474
 4180SOL     hw16719   3.576   2.065   5.607 -1.3436 -0.2724  1.2522
 4180SOL     vw16720   3.612   2.140   5.633 -0.6435 -0.1398  0.0026
 4181SOL     ow16721   1.182   5.278   0.863  0.1201 -0.3674 -0.2183
 4181SOL     hw16722   1.241   5.290   0.938 -0.1887 -0.9761  0.1311
 4181SOL     hw16723   1.177   5.365   0.823 -1.3332  0.5206  1.6826
 4181SOL     vw16724   1.189   5.291   0.868 -0.1125 -0.3304  0.0786
 4182SOL     ow16725   2.610   3.816   4.547  0.1100 -0.3194 -0.4864
 4182SOL     hw16726   2.569   3.804   4.633 -0.3357 -2.7387 -0.9392
 4182SOL     hw16727   2.599   3.731   4.504  2.3666  0.0946 -2.0571
 4182SOL     vw16728   2.603   3.803   4.553  0.3489 -0.5840 -0.7534
 4183SOL     ow16729   6.991   1.076   2.799  0.1262  0.1451  0.2786
 4183SOL     hw16730   7.047   1.022   2.855  0.1121 -0.0190  0.1331
 4183SOL     hw16731   6.959   1.145   2.858  0.1123 -0.0264  0.4732
 4183SOL     vw16732   6.994   1.078   2.814  0.1225  0.1008  0.2850
 4184SOL     ow16733   0.193   5.524   3.591  0.1141 -0.7210 -0.2732
 4184SOL     hw16734   0.219   5.585   3.660 -1.3122  1.1631 -1.2941
 4184SOL     hw16735   0.214   5.570   3.509 -2.4987 -0.8261 -1.0850
 4184SOL     vw16736   0.199   5.538   3.589 -0.4188 -0.4864 -0.5150
 4185SOL     ow16737   4.131   5.733   2.149 -0.1264 -0.3392 -0.1309
 4185SOL     hw16738   4.144   5.664   2.085  1.4972  0.0383 -0.2497
 4185SOL     hw16739   4.203   5.794   2.134 -0.6303  0.5786  1.0000
 4185SOL     vw16740   4.142   5.732   2.139  0.0215 -0.1683  0.0029
 4186SOL     ow16741   4.141   1.403   7.443 -0.5287  0.5763 -0.6117
 4186SOL     hw16742   4.112   1.314   7.467 -1.4382  1.2479  0.9688
 4186SOL     hw16743   4.227   1.390   7.404 -0.1034 -0.9286  0.6825
 4186SOL     vw16744   4.149   1.389   7.441 -0.5925  0.4663 -0.2322
 4187SOL     ow16745   5.625   0.142   7.270  0.5303  0.5355  0.6944
 4187SOL     hw16746   5.661   0.115   7.185  1.6299  0.5938  1.1327
 4187SOL     hw16747   5.540   0.098   7.274 -0.1162  1.5186 -0.9684
 4187SOL     vw16748   5.618   0.132   7.259  0.5906  0.6729  0.5326
 4188SOL     ow16749   1.784   0.772   3.941  0.8025 -0.1431  0.1710
 4188SOL     hw16750   1.755   0.699   3.995  1.3046 -2.1721 -2.1398
 4188SOL     hw16751   1.712   0.788   3.880  0.7007  1.3333  0.6325
 4188SOL     vw16752   1.771   0.765   3.940  0.8554 -0.2160 -0.0730
 4189SOL     ow16753   1.237   2.451   5.464 -0.6306 -0.0593 -0.3273
 4189SOL     hw16754   1.162   2.402   5.431 -0.2749 -1.3169  0.6782
 4189SOL     hw16755   1.309   2.427   5.406 -0.6388 -0.1239 -0.3112
 4189SOL     vw16756   1.236   2.442   5.452 -0.5848 -0.2338 -0.1926
 4190SOL     ow16757   1.948   1.140   3.956  0.0845  0.2708 -0.0372
 4190SOL     hw16758   1.961   1.102   3.869 -0.2071  1.5358 -0.6572
 4190SOL     hw16759   1.930   1.065   4.012  1.0249 -0.6426 -0.9147
 4190SOL     vw16760   1.947   1.125   3.952  0.1702  0.3172 -0.2348
 4191SOL     ow16761   0.485   3.346   4.839  0.3461  0.3579 -0.1348
 4191SOL     hw16762   0.485   3.258   4.877  0.2832  0.2205 -0.4468
 4191SOL     hw16763   0.408   3.347   4.782  1.7736 -0.2962 -2.2044
 4191SOL     vw16764   0.475   3.335   4.837  0.5261  0.2534 -0.4492
 4192SOL     ow16765   3.530   1.960   2.093 -0.2856  0.3416 -0.1040
 4192SOL     hw16766   3.605   2.019   2.088  0.9636 -1.1180  0.5671
 4192SOL     hw16767   3.465   2.000   2.036  0.6753  2.1021 -0.0478
 4192SOL     vw16768   3.532   1.973   2.085  0.0062  0.3813 -0.0079
 4193SOL     ow16769   6.590   0.710   4.259 -0.0772  0.1311  0.6176
 4193SOL     hw16770   6.530   0.647   4.219  0.4501  0.4781 -0.7680
 4193SOL     hw16771   6.546   0.735   4.341 -1.4878 -0.1517 -0.0121
 4193SOL     vw16772   6.576   0.705   4.265 -0.1938  0.1395  0.3517
 4194SOL     ow16773   7.233   0.200   2.643  0.5183  0.7355 -0.3359
 4194SOL     hw16774   7.318   0.225   2.607  0.3147 -0.1969 -1.5128
 4194SOL     hw16775   7.185   0.162   2.569 -1.1746  1.8086  0.1326
 4194SOL     vw16776   7.238   0.198   2.629  0.2682  0.7541 -0.4295
 4195SOL     ow16777   3.271   0.250   1.235 -0.1504 -0.0372 -0.0288
 4195SOL     hw16778   3.321   0.183   1.188  0.7909  0.9183 -0.4390
 4195SOL     hw16779   3.180   0.232   1.214  0.1381 -0.7793 -0.6811
 4195SOL     vw16780   3.266   0.239   1.226  0.0119 -0.0090 -0.1690
 4196SOL     ow16781   1.803   2.918   6.851 -0.5858  0.4293  0.2238
 4196SOL     hw16782   1.892   2.933   6.820 -0.8896  1.2360 -0.3018
 4196SOL     hw16783   1.807   2.935   6.945 -0.2733  0.9129  0.1291
 4196SOL     vw16784   1.815   2.922   6.860 -0.5846  0.5996  0.1419
 4197SOL     ow16785   2.561   7.050   4.726 -0.2239 -0.2049 -0.0886
 4197SOL     hw16786   2.565   6.968   4.776  4.5634 -0.7707 -0.9589
 4197SOL     hw16787   2.565   7.023   4.635 -0.9081  1.0008 -0.5016
 4197SOL     vw16788   2.562   7.036   4.721  0.3175 -0.1206 -0.2580
 4198SOL     ow16789   7.236   1.219   1.355  0.8483  0.0753  0.2266
 4198SOL     hw16790   7.290   1.246   1.280  1.0530  0.9525  0.6719
 4198SOL     hw16791   7.190   1.299   1.381  1.2405 -0.0712  1.4149
 4198SOL     vw16792   7.237   1.233   1.349  0.9270  0.1717  0.4421
 4199SOL     ow16793   1.566   2.276   2.158  0.3319  0.1441 -0.4425
 4199SOL     hw16794   1.566   2.354   2.213 -1.3092  0.5641 -0.9700
 4199SOL     hw16795   1.475   2.246   2.161  1.1238 -2.3916  0.5997
 4199SOL     vw16796   1.554   2.283   2.166  0.2199 -0.1351 -0.3746
 4200SOL     ow16797   4.395   4.748   6.443  0.0290 -0.1522  0.1377
 4200SOL     hw16798   4.304   4.725   6.425 -0.0238 -0.0477  0.2731
 4200SOL     hw16799   4.403   4.741   6.538 -0.4474  2.0236  0.3858
 4200SOL     vw16800   4.384   4.744   6.453 -0.0410  0.1488  0.1881
 4201SOL     ow16801   5.653   3.645   4.476 -0.1524 -0.2609  0.3945
 4201SOL     hw16802   5.672   3.738   4.483  2.4571 -0.5242 -1.6281
 4201SOL     hw16803   5.717   3.603   4.534  0.9468 -0.8842 -1.2064
 4201SOL     vw16804   5.664   3.652   4.485  0.3371 -0.3778 -0.0837
 4202SOL     ow16805   6.361   6.426   4.761 -0.4276 -0.4241 -0.6970
 4202SOL     hw16806   6.399   6.412   4.847 -1.8880  1.2940  0.2930
 4202SOL     hw16807   6.319   6.343   4.739 -2.8000 -0.0018  1.7358
 4202SOL     vw16808   6.360   6.413   4.769 -0.9332 -0.1416 -0.2451
 4203SOL     ow16809   7.006   4.289   2.685  0.4536  0.3794  0.4965
 4203SOL     hw16810   7.071   4.223   2.708 -0.2749 -0.7617 -0.6009
 4203SOL     hw16811   7.012   4.297   2.590 -1.2616 -0.0689  0.3113
 4203SOL     vw16812   7.015   4.281   2.675  0.1309  0.1695  0.3272
 4204SOL     ow16813   2.474   3.409   6.119  0.3235 -0.0899 -0.7332
 4204SOL     hw16814   2.520   3.325   6.120  2.3188  0.6292 -5.3964
 4204SOL     hw16815   2.390   3.391   6.079 -0.2300 -0.1577  0.4228
 4204SOL     vw16816   2.469   3.395   6.114  0.5139 -0.0039 -1.1959
 4205SOL     ow16817   4.680   0.213   4.076  0.7458 -0.2615 -0.3520
 4205SOL     hw16818   4.761   0.249   4.041  1.3219 -1.5890 -0.4339
 4205SOL     hw16819   4.705   0.176   4.160  0.2667 -0.8831 -0.4800
 4205SOL     vw16820   4.694   0.213   4.083  0.7586 -0.5187 -0.3798
 4206SOL     ow16821   7.534   3.113   0.717  0.1484  0.7996  0.7943
 4206SOL     hw16822   7.548   3.105   0.622  0.0453  1.1683  0.7481
 4206SOL     hw16823   7.440   3.130   0.726  0.1032  0.4522  0.9826
 4206SOL     vw16824   7.524   3.114   0.706  0.1290  0.8024  0.8130
 4207SOL     ow16825   3.398   2.088   7.131 -0.6507  0.1729 -0.3309
 4207SOL     hw16826   3.420   2.137   7.051 -3.8373 -1.5236 -2.4763
 4207SOL     hw16827   3.479   2.042   7.153  1.4943  3.7051 -0.0918
 4207SOL     vw16828   3.412   2.088   7.123 -0.7881  0.4152 -0.5825
 4208SOL     ow16829   4.142   7.464   6.993  0.2649 -0.1783  0.3345
 4208SOL     hw16830   4.123   7.371   7.006 -1.3150  0.1492  0.5070
 4208SOL     hw16831   4.154   7.499   7.082  0.9258 -0.2099  0.2667
 4208SOL     vw16832   4.141   7.456   7.007  0.1435 -0.1392  0.3481
 4209SOL     ow16833   1.494   0.475   6.960 -0.3142 -0.0278  0.1445
 4209SOL     hw16834   1.568   0.430   6.920  2.2990  1.5368  2.7994
 4209SOL     hw16835   1.529   0.559   6.989 -2.9184  0.4755  2.2845
 4209SOL     vw16836   1.508   0.480   6.959 -0.3129  0.2451  0.7768
 4210SOL     ow16837   0.861   2.216   7.450  0.0806  0.6912  0.1032
 4210SOL     hw16838   0.892   2.232   7.361 -1.1078  2.9227  0.0172
 4210SOL     hw16839   0.936   2.176   7.495  0.4053 -1.4063 -2.0820
 4210SOL     vw16840   0.875   2.213   7.444 -0.0333  0.7088 -0.1965
 4211SOL     ow16841   5.951   6.872   5.663 -0.7895  0.2156  1.2760
 4211SOL     hw16842   6.037   6.907   5.685 -0.8285 -0.1484  2.0271
 4211SOL     hw16843   5.928   6.915   5.581 -1.0514  2.3360  2.4107
 4211SOL     vw16844   5.959   6.882   5.655 -0.8292  0.4475  1.5249
 4212SOL     ow16845   5.153   7.278   1.126 -0.5589 -0.4641  0.8713
 4212SOL     hw16846   5.152   7.190   1.090  2.5449  0.1660 -1.1216
 4212SOL     hw16847   5.220   7.276   1.194  1.4997  0.8605 -0.9951
 4212SOL     vw16848   5.161   7.266   1.130  0.1221 -0.2062  0.3621
 4213SOL     ow16849   6.701   2.116   0.305  0.0455  0.6088  0.1808
 4213SOL     hw16850   6.621   2.166   0.322  0.2769  0.9362  0.3036
 4213SOL     hw16851   6.681   2.068   0.225  0.8479  3.1534 -1.6724
 4213SOL     vw16852   6.688   2.116   0.297  0.1819  0.9876 -0.0475
 4214SOL     ow16853   3.761   7.637   1.499  0.4733  0.7930  0.1565
 4214SOL     hw16854   3.686   7.696   1.507  0.0973  0.0536  3.6647
 4214SOL     hw16855   3.833   7.694   1.470 -0.9082  1.9294 -1.2239
 4214SOL     vw16856   3.760   7.652   1.496  0.2413  0.8452  0.4373
 4215SOL     ow16857   4.063   4.328   7.584 -0.0481 -0.1215  0.5566
 4215SOL     hw16858   4.090   4.409   7.542 -2.4830  0.2632 -0.4188
 4215SOL     hw16859   4.006   4.286   7.520  1.5726 -2.9496  0.7859
 4215SOL     vw16860   4.059   4.333   7.570 -0.1552 -0.4437  0.4580
 4216SOL     ow16861   0.298   0.542   6.674  0.6746  0.2608  0.5822
 4216SOL     hw16862   0.234   0.501   6.732  0.5350  0.5734  0.6508
 4216SOL     hw16863   0.271   0.634   6.670 -1.0048 -0.2318 -2.1881
 4216SOL     vw16864   0.286   0.549   6.681  0.4346  0.2371  0.2255
 4217SOL     ow16865   2.677   3.800   5.992  0.9372 -0.4610 -0.2471
 4217SOL     hw16866   2.595   3.755   5.969 -0.7596  2.1163  0.4284
 4217SOL     hw16867   2.717   3.821   5.908 -0.4370  0.5586 -0.6665
 4217SOL     vw16868   2.672   3.797   5.978  0.5320  0.0135 -0.2134
 4218SOL     ow16869   6.855   3.234   5.960  0.3128  0.2773  0.5328
 4218SOL     hw16870   6.801   3.218   5.883  1.8982 -0.7288 -0.4254
 4218SOL     hw16871   6.841   3.157   6.015 -0.1393  0.5844  0.8553
 4218SOL     vw16872   6.846   3.222   5.957  0.4623  0.1851  0.4489
 4219SOL     ow16873   1.884   6.211   3.531  0.2257 -0.2309  0.2545
 4219SOL     hw16874   1.955   6.165   3.486  1.1656  0.9398  0.4730
 4219SOL     hw16875   1.929   6.276   3.585 -1.0578  1.7623 -0.9480
 4219SOL     vw16876   1.899   6.213   3.532  0.1804  0.1864  0.1247
 4220SOL     ow16877   3.208   7.461   0.561 -0.3165 -0.2294  0.0985
 4220SOL     hw16878   3.236   7.379   0.601 -1.6797 -0.3485  0.8855
 4220SOL     hw16879   3.184   7.517   0.635 -1.5700  0.0496 -0.4832
 4220SOL     vw16880   3.208   7.458   0.576 -0.6617 -0.2081  0.1256
 4221SOL     ow16881   4.362   3.846   6.731 -0.0679 -0.6251  0.3636
 4221SOL     hw16882   4.443   3.888   6.701  0.3806 -2.0919 -0.5527
 4221SOL     hw16883   4.316   3.821   6.651 -2.4582  1.9247  0.7775
 4221SOL     vw16884   4.367   3.848   6.717 -0.3240 -0.4822  0.2973
 4222SOL     ow16885   5.429   7.404   7.217 -0.0400 -0.0239  0.0450
 4222SOL     hw16886   5.517   7.380   7.244 -0.0606 -0.4359 -0.2432
 4222SOL     hw16887   5.379   7.323   7.224 -0.2721  0.0889 -0.2994
 4222SOL     vw16888   5.434   7.390   7.222 -0.0732 -0.0634 -0.0386
 4223SOL     ow16889   5.469   2.675   0.697  0.3859 -0.1547 -0.7310
 4223SOL     hw16890   5.482   2.760   0.738 -2.1670 -0.2685  0.5336
 4223SOL     hw16891   5.402   2.691   0.630 -0.1386 -1.1370 -0.4604
 4223SOL     vw16892   5.462   2.688   0.694 -0.0203 -0.2993 -0.5285
 4224SOL     ow16893   0.757   5.183   2.157  0.6181  0.0170 -0.2676
 4224SOL     hw16894   0.716   5.233   2.228  0.3286 -1.2212  0.4639
 4224SOL     hw16895   0.784   5.101   2.198  1.4075 -0.2951 -1.3620
 4224SOL     vw16896   0.755   5.179   2.172  0.6841 -0.1879 -0.3155
 4225SOL     ow16897   1.833   0.210   4.265  0.5812  0.1802 -0.2226
 4225SOL     hw16898   1.891   0.233   4.191 -0.0904  3.0776  0.0092
 4225SOL     hw16899   1.751   0.256   4.245 -0.4630 -1.0293  1.1464
 4225SOL     vw16900   1.830   0.219   4.252  0.3548  0.4029 -0.0114
 4226SOL     ow16901   4.817   6.803   1.191 -1.0317  0.5481 -0.0784
 4226SOL     hw16902   4.865   6.720   1.192 -1.0227  0.5525  0.9425
 4226SOL     hw16903   4.848   6.848   1.112 -1.0386 -0.4099 -0.6417
 4226SOL     vw16904   4.827   6.798   1.181 -1.0316  0.4222 -0.0180
 4227SOL     ow16905   4.136   2.578   2.739 -0.1679 -0.0607  0.0160
 4227SOL     hw16906   4.213   2.553   2.790  1.5727  1.0237 -1.9615
 4227SOL     hw16907   4.071   2.511   2.761  1.0787 -0.6571  2.2120
 4227SOL     vw16908   4.137   2.566   2.749  0.2260  0.0036  0.0447
 4228SOL     ow16909   4.082   5.449   1.679 -0.0426 -0.1148 -0.1094
 4228SOL     hw16910   4.128   5.408   1.753 -0.6275  1.1271  0.9799
 4228SOL     hw16911   3.996   5.472   1.714 -1.2358 -1.5984 -1.8660
 4228SOL     vw16912   4.077   5.447   1.693 -0.2773 -0.1469 -0.1975
 4229SOL     ow16913   2.589   1.507   7.121  0.4341 -0.1969 -0.0874
 4229SOL     hw16914   2.500   1.469   7.120  0.3055  0.0168  1.3096
 4229SOL     hw16915   2.576   1.598   7.148  1.1575 -0.4647  1.2626
 4229SOL     vw16916   2.575   1.514   7.124  0.5126 -0.2041  0.2754
 4230SOL     ow16917   4.233   2.615   2.374 -0.4349  0.0857  0.0375
 4230SOL     hw16918   4.213   2.543   2.434 -1.2187 -1.5160 -1.9983
 4230SOL     hw16919   4.329   2.619   2.372 -0.3778 -0.8618  0.2721
 4230SOL     vw16920   4.243   2.606   2.382 -0.5310 -0.2507 -0.2004
 4231SOL     ow16921   3.456   3.750   2.774 -0.0336 -0.2580 -0.0172
 4231SOL     hw16922   3.536   3.797   2.750 -0.6478 -0.2264 -2.2501
 4231SOL     hw16923   3.407   3.812   2.827  0.6652  0.3718 -0.0840
 4231SOL     vw16924   3.460   3.764   2.778 -0.0224 -0.1707 -0.3207
 4232SOL     ow16925   2.819   0.192   5.655  0.2807 -0.7856  0.5125
 4232SOL     hw16926   2.783   0.171   5.741 -2.7424  1.6914  0.0462
 4232SOL     hw16927   2.755   0.158   5.592 -0.4900  2.1020 -0.4449
 4232SOL     vw16928   2.806   0.185   5.658 -0.2199 -0.0778  0.3247
 4233SOL     ow16929   5.031   7.215   0.684 -1.3379  0.3017  0.4820
 4233SOL     hw16930   5.098   7.220   0.752 -0.7723 -0.3056 -0.0204
 4233SOL     hw16931   4.988   7.131   0.699 -1.4557  0.3329  0.3176
 4233SOL     vw16932   5.034   7.204   0.695 -1.2786  0.2258  0.3940
 4234SOL     ow16933   3.531   6.810   6.968 -0.2373 -0.8088 -0.8777
 4234SOL     hw16934   3.482   6.777   7.043 -1.8898  1.3189 -0.9325
 4234SOL     hw16935   3.483   6.778   6.892  0.3899 -1.4246 -1.0356
 4234SOL     vw16936   3.518   6.801   6.968 -0.3725 -0.6096 -0.9058
 4235SOL     ow16937   5.627   5.588   5.571  0.0206  0.3466  0.2820
 4235SOL     hw16938   5.677   5.639   5.635  0.8043 -0.1507  0.0880
 4235SOL     hw16939   5.608   5.506   5.616 -1.0356  0.7090  0.5126
 4235SOL     vw16940   5.631   5.584   5.586 -0.0157  0.3288  0.2868
 4236SOL     ow16941   4.150   3.680   0.296 -0.2787  0.2827  0.4602
 4236SOL     hw16942   4.237   3.648   0.271 -1.1243 -1.1890 -0.8183
 4236SOL     hw16943   4.106   3.603   0.332 -0.5598  1.3777  2.5924
 4236SOL     vw16944   4.156   3.666   0.297 -0.4272  0.2329  0.5729
 4237SOL     ow16945   0.532   1.347   6.336 -0.0581 -0.2830 -0.4562
 4237SOL     hw16946   0.519   1.260   6.373  0.0562 -0.4209 -0.7359
 4237SOL     hw16947   0.450   1.367   6.291 -0.1946 -0.1180 -0.1370
 4237SOL     vw16948   0.520   1.338   6.335 -0.0610 -0.2794 -0.4511
 4238SOL     ow16949   6.857   1.208   6.238 -0.3180 -0.3080 -0.7586
 4238SOL     hw16950   6.824   1.267   6.306 -1.4187 -0.9773 -0.6810
 4238SOL     hw16951   6.909   1.263   6.181  1.1379  0.1775  0.9455
 4238SOL     vw16952   6.859   1.223   6.239 -0.2713 -0.3323 -0.5236
 4239SOL     ow16953   0.062   3.232   4.844  0.0896 -0.4047 -0.2116
 4239SOL     hw16954  -0.004   3.291   4.879  0.3393  0.0662 -0.5143
 4239SOL     hw16955   0.115   3.287   4.786  0.6805 -0.7965 -0.0581
 4239SOL     vw16956   0.060   3.247   4.841  0.2005 -0.3942 -0.2313
 4240SOL     ow16957   3.019   0.849   6.724  0.0623 -0.0628  0.2567
 4240SOL     hw16958   3.114   0.842   6.728  0.0135 -1.8991 -0.7320
 4240SOL     hw16959   2.987   0.768   6.762 -0.9748 -0.9631 -2.2751
 4240SOL     vw16960   3.027   0.838   6.729 -0.0808 -0.4238 -0.2077
 4241SOL     ow16961   2.178   7.388   5.406 -0.9199 -0.2243 -0.4751
 4241SOL     hw16962   2.083   7.400   5.403 -0.7423  1.7066  0.3039
 4241SOL     hw16963   2.198   7.384   5.500 -0.5736 -4.4678 -0.5431
 4241SOL     vw16964   2.168   7.389   5.418 -0.8509 -0.5293 -0.3812
 4242SOL     ow16965   6.643   7.594   7.302  0.2707 -0.4041 -0.2754
 4242SOL     hw16966   6.701   7.643   7.360 -0.3435 -0.6646  0.5857
 4242SOL     hw16967   6.608   7.523   7.357  1.0736 -1.7765 -1.4693
 4242SOL     vw16968   6.646   7.591   7.317  0.2956 -0.6196 -0.3195
 4243SOL     ow16969   4.186   1.740   0.474  0.1428  0.3466  0.6308
 4243SOL     hw16970   4.229   1.757   0.390  0.3673 -0.6062  0.5443
 4243SOL     hw16971   4.249   1.687   0.523 -1.0623 -1.4313  0.3445
 4243SOL     vw16972   4.200   1.735   0.469  0.0134 -0.0136  0.5816
 4244SOL     ow16973   6.714   3.486   5.994  0.3987  0.0650  0.1313
 4244SOL     hw16974   6.648   3.514   5.930  0.6551  0.1209 -0.1070
 4244SOL     hw16975   6.664   3.476   6.075  0.0351 -0.1837 -0.1125
 4244SOL     vw16976   6.698   3.488   5.996  0.3848  0.0395  0.0677
 4245SOL     ow16977   7.387   3.059   1.914 -0.3158  0.9065  0.7462
 4245SOL     hw16978   7.350   3.055   2.003 -2.2568 -0.2096 -0.0399
 4245SOL     hw16979   7.482   3.054   1.928 -0.5388  1.2188  2.7689
 4245SOL     vw16980   7.395   3.058   1.928 -0.6011  0.8003  0.9093
 4246SOL     ow16981   7.294   1.644   2.914  0.6702 -0.3369 -0.0765
 4246SOL     hw16982   7.240   1.702   2.861  2.2252  1.1769 -0.0920
 4246SOL     hw16983   7.262   1.657   3.003 -1.1184 -1.9562 -0.3997
 4246SOL     vw16984   7.283   1.653   2.919  0.6394 -0.3508 -0.1214
 4247SOL     ow16985   1.026   1.965   4.690  0.6751  0.4384  0.5473
 4247SOL     hw16986   1.051   1.904   4.620  0.2805  0.6236  0.2386
 4247SOL     hw16987   0.962   1.917   4.741  0.5351  0.5105  0.4400
 4247SOL     vw16988   1.021   1.950   4.687  0.6045  0.4724  0.4923
 4248SOL     ow16989   0.678   3.525   4.891 -0.7149  0.3804 -0.2396
 4248SOL     hw16990   0.658   3.561   4.977 -1.2943  1.8824 -0.9721
 4248SOL     hw16991   0.603   3.468   4.871 -0.3748 -0.3173  0.4047
 4248SOL     vw16992   0.666   3.522   4.899 -0.7465  0.4865 -0.2515
 4249SOL     ow16993   1.714   5.668   6.113 -0.0820 -0.1882 -0.1913
 4249SOL     hw16994   1.739   5.750   6.156 -1.1339 -1.0587  2.2059
 4249SOL     hw16995   1.764   5.600   6.159 -0.7765 -1.1079 -0.7647
 4249SOL     vw16996   1.724   5.670   6.125 -0.3124 -0.4241  0.0491
 4250SOL     ow16997   6.718   1.988   7.491 -0.3409  0.0822  0.3690
 4250SOL     hw16998   6.807   2.020   7.477 -0.6507  0.6352 -0.3950
 4250SOL     hw16999   6.707   1.990   7.586  0.7011 -0.6621  0.5210
 4250SOL     vw17000   6.728   1.993   7.502 -0.2444  0.0570  0.2885
 4251SOL     ow17001   0.716   3.030   7.311  0.0165  0.5881  0.0817
 4251SOL     hw17002   0.732   2.939   7.286 -2.0789  0.9265 -3.0276
 4251SOL     hw17003   0.623   3.044   7.294  0.4019  3.4898 -0.1285
 4251SOL     vw17004   0.706   3.020   7.306 -0.2091  1.0158 -0.3560
 4252SOL     ow17005   7.144   4.874   5.086 -0.0398 -0.1333 -0.3253
 4252SOL     hw17006   7.113   4.785   5.065  3.2624 -1.7252  0.8437
 4252SOL     hw17007   7.209   4.861   5.155  1.1218  3.1519 -0.6238
 4252SOL     vw17008   7.148   4.860   5.092  0.5491  0.0904 -0.2105
 4253SOL     ow17009   6.116   0.163   1.651  0.5237  0.2755 -0.2225
 4253SOL     hw17010   6.052   0.093   1.640  0.4320  0.2876  0.2229
 4253SOL     hw17011   6.067   0.243   1.631  0.1436  0.3680  1.0012
 4253SOL     vw17012   6.101   0.165   1.647  0.4616  0.2893 -0.0024
 4254SOL     ow17013   5.992   1.854   5.589  0.4862  0.7513  0.0812
 4254SOL     hw17014   5.907   1.816   5.564  0.1942 -0.0970  2.1531
 4254SOL     hw17015   6.032   1.878   5.505 -0.8274 -0.9080 -1.1218
 4254SOL     vw17016   5.986   1.852   5.574  0.2744  0.4205  0.1957
 4255SOL     ow17017   5.971   7.489   6.240  0.6356  0.3549  0.1955
 4255SOL     hw17018   6.029   7.523   6.309  0.6858  0.5450  0.0605
 4255SOL     hw17019   5.910   7.560   6.223  1.0664  0.5835 -0.4556
 4255SOL     vw17020   5.971   7.503   6.247  0.6990  0.4101  0.0923
 4256SOL     ow17021   1.721   0.705   5.999  0.8181 -0.4320  0.0759
 4256SOL     hw17022   1.680   0.745   5.923 -0.5012  0.4066  1.1762
 4256SOL     hw17023   1.763   0.778   6.045 -0.3566 -0.5112  1.3374
 4256SOL     vw17024   1.721   0.720   5.995  0.4890 -0.3318  0.3877
 4257SOL     ow17025   7.506   1.642   1.853 -0.7111  0.2923  0.3017
 4257SOL     hw17026   7.498   1.660   1.947  1.0279 -0.5924  0.6562
 4257SOL     hw17027   7.541   1.724   1.817  0.9790 -0.1565  0.8520
 4257SOL     vw17028   7.509   1.655   1.861 -0.2587  0.1164  0.4211
 4258SOL     ow17029   0.027   5.290   3.635  0.3972  0.0260 -0.0571
 4258SOL     hw17030  -0.008   5.225   3.575  0.9448 -0.2862 -0.0507
 4258SOL     hw17031   0.018   5.251   3.721 -0.3086  0.4385  0.0594
 4258SOL     vw17032   0.021   5.276   3.638  0.3762  0.0393 -0.0409
 4259SOL     ow17033   2.562   3.619   1.537 -0.4523  0.2376 -0.2015
 4259SOL     hw17034   2.609   3.536   1.543 -0.9730  0.0437  2.2986
 4259SOL     hw17035   2.471   3.594   1.523 -0.5793  0.3808  0.3440
 4259SOL     vw17036   2.556   3.605   1.536 -0.5376  0.2309  0.2003
 4260SOL     ow17037   3.588   0.758   7.422 -0.1712 -0.4400 -0.0174
 4260SOL     hw17038   3.528   0.832   7.426 -0.5042 -0.5210 -2.2245
 4260SOL     hw17039   3.675   0.798   7.415 -0.1407 -0.3108  0.9272
 4260SOL     vw17040   3.592   0.773   7.422 -0.2114 -0.4336 -0.1838
 4261SOL     ow17041   6.173   7.237   6.211  0.0360 -0.0553  0.1153
 4261SOL     hw17042   6.217   7.159   6.177 -1.1957 -0.7739  0.1132
 4261SOL     hw17043   6.238   7.279   6.267  0.7363 -1.0575  0.0713
 4261SOL     vw17044   6.187   7.232   6.214 -0.0339 -0.2823  0.1097
 4262SOL     ow17045   3.957   1.891   5.638 -0.2656  0.2626  0.3745
 4262SOL     hw17046   4.041   1.847   5.623 -1.4303 -2.4383  1.1846
 4262SOL     hw17047   3.919   1.900   5.551  0.4106  0.6226  0.1013
 4262SOL     vw17048   3.963   1.886   5.625 -0.3300 -0.0462  0.4456
 4263SOL     ow17049   4.510   0.419   5.417  0.4168 -0.3804  0.7551
 4263SOL     hw17050   4.583   0.382   5.466 -0.5313 -1.1004  1.6728
 4263SOL     hw17051   4.433   0.373   5.450 -0.6807  1.5478  1.0662
 4263SOL     vw17052   4.510   0.408   5.428  0.1471 -0.2210  0.9172
 4264SOL     ow17053   0.772   2.818   6.871 -0.6515 -0.9040 -0.1118
 4264SOL     hw17054   0.719   2.759   6.925 -0.0393 -0.6262  0.8246
 4264SOL     hw17055   0.861   2.783   6.877 -0.8852 -2.2000 -2.8222
 4264SOL     vw17056   0.777   2.806   6.879 -0.6015 -1.0383 -0.3459
 4265SOL     ow17057   7.178   5.144   6.792 -0.1937 -0.0364 -0.0429
 4265SOL     hw17058   7.160   5.186   6.708 -0.0143  0.0231 -0.0509
 4265SOL     hw17059   7.150   5.209   6.858  1.7254  0.8377 -0.0331
 4265SOL     vw17060   7.172   5.158   6.790  0.0832  0.0870 -0.0427
 4266SOL     ow17061   6.246   7.048   3.202  0.1788  0.1790 -0.6230
 4266SOL     hw17062   6.283   7.045   3.113  2.9883  2.3143  0.3105
 4266SOL     hw17063   6.250   6.958   3.233  1.8325 -0.1534 -1.6835
 4266SOL     vw17064   6.251   7.036   3.194  0.7677  0.4168 -0.6398
 4267SOL     ow17065   6.765   1.028   4.558 -0.3354 -0.2492  0.2473
 4267SOL     hw17066   6.733   0.997   4.643  0.5096  0.2199  0.7576
 4267SOL     hw17067   6.786   1.120   4.573  2.7165 -0.8536  0.4659
 4267SOL     vw17068   6.764   1.036   4.571  0.1788 -0.2671  0.3436
 4268SOL     ow17069   0.612   3.398   7.007  0.0687  0.4633 -0.3570
 4268SOL     hw17070   0.528   3.355   7.025 -1.9669  3.5311 -1.6661
 4268SOL     hw17071   0.631   3.378   6.916  2.1064 -2.0694  0.4892
 4268SOL     vw17072   0.603   3.389   6.998  0.0690  0.5339 -0.4182
 4269SOL     ow17073   6.240   7.290   3.365 -0.3159 -0.1819  0.4528
 4269SOL     hw17074   6.212   7.381   3.371 -0.1218  0.0252 -1.2868
 4269SOL     hw17075   6.272   7.269   3.453 -4.0316  0.1311  2.0392
 4269SOL     vw17076   6.241   7.300   3.378 -0.7803 -0.1135  0.4326
 4270SOL     ow17077   0.697   1.691   5.309 -0.2427 -0.3379 -0.0471
 4270SOL     hw17078   0.737   1.609   5.281 -1.4119 -1.0630  0.3125
 4270SOL     hw17079   0.627   1.706   5.246 -0.5623 -0.0597  0.3701
 4270SOL     vw17080   0.693   1.682   5.297 -0.4392 -0.3968  0.0553
 4271SOL     ow17081   5.514   2.733   3.521 -0.3537  0.0976 -0.4993
 4271SOL     hw17082   5.517   2.638   3.506 -0.6799  0.3952 -2.8491
 4271SOL     hw17083   5.588   2.768   3.472 -1.0044  1.1701 -0.7503
 4271SOL     vw17084   5.524   2.725   3.513 -0.4828  0.2784 -0.8426
 4272SOL     ow17085   0.099   2.514   7.203 -0.5896  0.2540 -0.0361
 4272SOL     hw17086   0.122   2.453   7.273  2.4836  3.0450  1.6314
 4272SOL     hw17087   0.153   2.485   7.129 -1.9745 -1.1950 -0.5391
 4272SOL     vw17088   0.109   2.502   7.202 -0.3668  0.4309  0.1173
 4273SOL     ow17089   7.014   0.999   6.342  0.3318  0.2606 -0.1287
 4273SOL     hw17090   6.942   1.047   6.301 -1.0746 -2.9215 -1.7866
 4273SOL     hw17091   6.971   0.929   6.391  2.2304  0.6711  2.3220
 4273SOL     vw17092   6.999   0.996   6.343  0.3967 -0.1051 -0.0241
 4274SOL     ow17093   6.229   5.404   6.979  0.5953  0.1217  0.1135
 4274SOL     hw17094   6.254   5.402   7.071  1.3688 -0.7274 -0.1031
 4274SOL     hw17095   6.310   5.423   6.932  0.1644  0.7656 -0.3881
 4274SOL     vw17096   6.243   5.406   6.985  0.6406  0.0947  0.0191
 4275SOL     ow17097   1.756   4.696   0.575  0.5674 -0.6823 -0.5561
 4275SOL     hw17098   1.838   4.722   0.616  0.8808 -1.7882 -0.4626
 4275SOL     hw17099   1.738   4.609   0.609 -0.6408 -0.4646 -0.5992
 4275SOL     vw17100   1.764   4.688   0.585  0.4494 -0.7994 -0.5495
 4276SOL     ow17101   0.667   6.381   4.779  0.4388  0.3403  0.6198
 4276SOL     hw17102   0.574   6.401   4.783 -0.1616 -2.1677  1.1056
 4276SOL     hw17103   0.682   6.321   4.852  2.6637  1.3693  1.0964
 4276SOL     vw17104   0.657   6.375   4.789  0.6531  0.1454  0.7470
 4277SOL     ow17105   3.675   1.716   3.102 -0.2247  0.0527 -0.0160
 4277SOL     hw17106   3.717   1.796   3.134  0.0882  0.4533 -1.3666
 4277SOL     hw17107   3.651   1.736   3.012 -1.1627 -1.0030 -0.0242
 4277SOL     vw17108   3.677   1.729   3.095 -0.3071 -0.0337 -0.1951
 4278SOL     ow17109   2.252   3.514   3.852  0.2503  0.5467 -0.6641
 4278SOL     hw17110   2.227   3.431   3.813  0.9389 -0.3109  0.6493
 4278SOL     hw17111   2.190   3.527   3.924 -0.6963  1.8625 -1.6611
 4278SOL     vw17112   2.240   3.505   3.857  0.2162  0.6071 -0.6223
 4279SOL     ow17113   1.536   2.117   5.258  0.3063  0.1726 -0.2176
 4279SOL     hw17114   1.595   2.134   5.183 -1.3431  0.2222 -1.5588
 4279SOL     hw17115   1.531   2.200   5.304  0.3358  0.4985 -0.7958
 4279SOL     vw17116   1.543   2.130   5.254  0.0926  0.2222 -0.4709
 4280SOL     ow17117   0.511   3.946   1.252 -0.5603  0.5939  0.2348
 4280SOL     hw17118   0.493   3.853   1.262 -0.2501  0.5119  0.0576
 4280SOL     hw17119   0.440   3.990   1.298 -1.9181  0.3005 -1.4988
 4280SOL     vw17120   0.499   3.939   1.259 -0.6986  0.5443 -0.0173
 4281SOL     ow17121   3.148   2.347   2.256  0.0523 -0.0810  0.0637
 4281SOL     hw17122   3.188   2.352   2.343  1.7734  1.4328 -0.7471
 4281SOL     hw17123   3.102   2.431   2.246  0.5127  0.0892 -0.7427
 4281SOL     vw17124   3.147   2.359   2.266  0.3402  0.1413 -0.1496
 4282SOL     ow17125   4.227   2.688   5.017  0.5906  0.2645 -0.0189
 4282SOL     hw17126   4.146   2.642   4.994  1.1690 -0.8841  0.1288
 4282SOL     hw17127   4.201   2.779   5.029 -0.8121 -0.2095  0.7810
 4282SOL     vw17128   4.213   2.694   5.015  0.4818  0.0504  0.1061
 4283SOL     ow17129   6.255   7.101   5.120  0.2032 -0.0627 -0.6260
 4283SOL     hw17130   6.328   7.055   5.079  0.6875 -0.7810  0.9484
 4283SOL     hw17131   6.187   7.034   5.128  0.8995 -0.6140  1.6495
 4283SOL     vw17132   6.256   7.086   5.116  0.3591 -0.2306 -0.1180
 4284SOL     ow17133   1.011   2.832   3.747 -0.4534 -0.8996  0.1674
 4284SOL     hw17134   1.038   2.895   3.681  0.2919 -1.5184 -0.1295
 4284SOL     hw17135   0.955   2.882   3.807 -1.1243 -0.3372 -0.9107
 4284SOL     vw17136   1.007   2.847   3.746 -0.4435 -0.9069 -0.0141
 4285SOL     ow17137   6.391   7.525   4.403  0.3996 -0.1056 -0.7720
 4285SOL     hw17138   6.425   7.438   4.420 -1.5281 -0.8136 -0.2557
 4285SOL     hw17139   6.296   7.515   4.409  0.0150  1.5595 -2.9795
 4285SOL     vw17140   6.383   7.512   4.406  0.0947  0.0205 -0.9949
 4286SOL     ow17141   5.427   1.938   2.770 -0.1279 -0.0699  0.6084
 4286SOL     hw17142   5.350   1.930   2.827 -1.7689  0.0999 -1.4784
 4286SOL     hw17143   5.469   2.019   2.799 -1.6405  0.6992  0.7788
 4286SOL     vw17144   5.422   1.948   2.781 -0.5438  0.0539  0.3557
 4287SOL     ow17145   6.124   0.458   0.853 -0.3098 -0.3979  0.9270
 4287SOL     hw17146   6.206   0.467   0.901 -1.1096  1.6234  2.0283
 4287SOL     hw17147   6.148   0.467   0.761  0.7820 -0.6837  1.1747
 4287SOL     vw17148   6.138   0.460   0.847 -0.2713 -0.1689  1.1050
 4288SOL     ow17149   0.082   6.849   4.388  0.3445 -1.2954  0.5741
 4288SOL     hw17150   0.056   6.761   4.361  0.8202 -0.8626 -1.4983
 4288SOL     hw17151   0.122   6.887   4.310  0.4882  0.6426  1.5265
 4288SOL     vw17152   0.084   6.843   4.374  0.4262 -0.9828  0.4263
 4289SOL     ow17153   0.244   4.940   6.893  0.0485 -0.4363  0.1850
 4289SOL     hw17154   0.185   4.868   6.870  0.4519 -0.6615 -0.1837
 4289SOL     hw17155   0.189   5.005   6.935 -0.3495 -0.9061  0.3949
 4289SOL     vw17156   0.229   4.939   6.896  0.0492 -0.5279  0.1640
 4290SOL     ow17157   2.466   1.151   2.041 -0.0748 -0.1961 -0.7759
 4290SOL     hw17158   2.472   1.184   1.951  3.0782 -0.8489 -0.9275
 4290SOL     hw17159   2.393   1.089   2.039 -1.4313  1.3235 -2.2831
 4290SOL     vw17160   2.457   1.147   2.029  0.1624 -0.0818 -0.9946
 4291SOL     ow17161   2.993   7.239   5.792 -0.0844  0.1025 -0.5782
 4291SOL     hw17162   2.912   7.192   5.813  0.5060 -0.9161 -0.5073
 4291SOL     hw17163   2.964   7.315   5.742 -1.1533  0.2340  0.2034
 4291SOL     vw17164   2.978   7.243   5.788 -0.1476 -0.0145 -0.4656
 4292SOL     ow17165   7.036   0.420   4.933 -0.4483  0.1482 -0.2545
 4292SOL     hw17166   7.011   0.413   5.025 -1.8907 -0.4522 -0.6521
 4292SOL     hw17167   6.978   0.358   4.888 -0.0580  0.7337 -1.6125
 4292SOL     vw17168   7.025   0.411   4.939 -0.5870  0.1462 -0.4861
 4293SOL     ow17169   2.212   2.868   0.840 -0.0702  0.0839  0.5965
 4293SOL     hw17170   2.257   2.819   0.908  2.4300 -1.8143 -2.1718
 4293SOL     hw17171   2.186   2.803   0.775 -0.7077  1.9381 -1.1483
 4293SOL     vw17172   2.215   2.853   0.840  0.1756  0.0781  0.0011
 4294SOL     ow17173   4.689   4.673   3.171 -0.3438 -0.2890  0.2032
 4294SOL     hw17174   4.707   4.724   3.250 -0.1348 -0.7706  0.4721
 4294SOL     hw17175   4.666   4.586   3.204 -0.3774 -0.4555 -0.2609
 4294SOL     vw17176   4.689   4.669   3.186 -0.3207 -0.3748  0.1775
 4295SOL     ow17177   5.883   1.631   2.181 -0.1991  0.5102 -0.1252
 4295SOL     hw17178   5.799   1.625   2.135 -1.4359  0.0521  2.0434
 4295SOL     hw17179   5.900   1.725   2.186 -0.6419  0.6162 -0.4882
 4295SOL     vw17180   5.874   1.643   2.176 -0.4206  0.4637  0.1130
 4296SOL     ow17181   1.020   0.461   1.666 -0.4679 -0.9347 -0.5298
 4296SOL     hw17182   0.989   0.470   1.756 -1.6429 -0.1387 -0.9776
 4296SOL     hw17183   0.977   0.382   1.633  0.8063 -1.8392 -0.0887
 4296SOL     vw17184   1.010   0.452   1.673 -0.4548 -0.9490 -0.5307
 4297SOL     ow17185   1.974   6.569   0.838 -0.0748 -0.4885 -0.1145
 4297SOL     hw17186   2.017   6.634   0.893  1.6569 -0.3952 -1.4785
 4297SOL     hw17187   1.947   6.617   0.760  1.0340 -1.2967 -1.0455
 4297SOL     vw17188   1.976   6.584   0.835  0.3000 -0.5827 -0.4173
 4298SOL     ow17189   1.190   5.469   3.091 -0.2248  0.0931  0.0051
 4298SOL     hw17190   1.236   5.534   3.144  2.6068 -0.2548 -1.8016
 4298SOL     hw17191   1.182   5.510   3.005  0.1335 -1.3029 -0.7200
 4298SOL     vw17192   1.195   5.483   3.087  0.1961 -0.1371 -0.3291
 4299SOL     ow17193   2.668   2.829   2.323  0.3886  0.0360  0.2166
 4299SOL     hw17194   2.699   2.744   2.354  1.7037 -0.9584 -3.3460
 4299SOL     hw17195   2.573   2.820   2.320  0.3862 -0.6318  1.5421
 4299SOL     vw17196   2.660   2.817   2.327  0.5618 -0.1832 -0.0784
 4300SOL     ow17197   5.204   4.873   5.542  0.1435  0.2237  0.0528
 4300SOL     hw17198   5.252   4.886   5.460  1.3636  0.3250  0.7606
 4300SOL     hw17199   5.213   4.780   5.560  0.7824  0.3841  0.6007
 4300SOL     vw17200   5.212   4.863   5.533  0.3889  0.2582  0.2184
 4301SOL     ow17201   7.243   0.720   6.698 -0.4382 -0.4011 -0.6024
 4301SOL     hw17202   7.184   0.645   6.697 -0.8595 -0.1200  0.5106
 4301SOL     hw17203   7.190   0.793   6.667 -1.2049  0.1552  1.7530
 4301SOL     vw17204   7.228   0.720   6.694 -0.5946 -0.2906 -0.1445
 4302SOL     ow17205   5.716   4.113   1.434  0.1557  0.0589 -0.8723
 4302SOL     hw17206   5.810   4.134   1.430  0.4601 -1.1154 -0.5310
 4302SOL     hw17207   5.714   4.018   1.446 -1.0168  0.2993  1.4962
 4302SOL     vw17208   5.728   4.103   1.435  0.0410 -0.0644 -0.5147
 4303SOL     ow17209   5.055   5.031   5.718  0.5531  0.1846 -0.1345
 4303SOL     hw17210   5.087   4.961   5.775 -0.0158  0.9663  1.2101
 4303SOL     hw17211   5.128   5.094   5.713  0.9805 -0.3641 -1.1545
 4303SOL     vw17212   5.069   5.030   5.725  0.5348  0.2151 -0.0916
 4304SOL     ow17213   0.792   6.612   4.681  0.4288  0.5884 -0.0344
 4304SOL     hw17214   0.726   6.542   4.688  1.7855 -0.5963  1.9976
 4304SOL     hw17215   0.741   6.692   4.674 -1.2182 -0.4046  0.0236
 4304SOL     vw17216   0.776   6.613   4.681  0.3904  0.3009  0.2413
 4305SOL     ow17217   6.719   1.086   5.711 -0.2130 -0.1435  0.2415
 4305SOL     hw17218   6.760   1.171   5.726  1.0163 -0.8662  1.1256
 4305SOL     hw17219   6.625   1.102   5.724 -0.3744  1.6649 -2.3693
 4305SOL     vw17220   6.712   1.099   5.715 -0.0722 -0.0002  0.0136
 4306SOL     ow17221   6.272   3.270   6.679 -0.4365  0.0841  0.6906
 4306SOL     hw17222   6.187   3.313   6.683 -0.8895 -0.2236 -2.5838
 4306SOL     hw17223   6.260   3.187   6.724 -1.3439  0.7435  1.7166
 4306SOL     vw17224   6.259   3.265   6.686 -0.6161  0.1305  0.3941
 4307SOL     ow17225   6.135   4.065   1.223  0.5988  0.7305 -0.1449
 4307SOL     hw17226   6.201   4.126   1.190  2.3804 -0.6949  0.6578
 4307SOL     hw17227   6.167   4.036   1.308 -1.4635  0.5649  0.6511
 4307SOL     vw17228   6.148   4.069   1.230  0.5617  0.5205  0.0660
 4308SOL     ow17229   2.457   4.434   6.325 -0.5021  0.3957  0.0905
 4308SOL     hw17230   2.396   4.375   6.369  0.9609 -0.7112  0.7159
 4308SOL     hw17231   2.460   4.403   6.235 -0.0367 -0.2463  0.3240
 4308SOL     vw17232   2.449   4.422   6.319 -0.2477  0.1647  0.2036
 4309SOL     ow17233   5.947   6.262   0.958  0.2757  0.6717  0.2587
 4309SOL     hw17234   5.969   6.216   0.877  0.0970  1.3640 -0.1954
 4309SOL     hw17235   5.958   6.197   1.027 -1.7047 -0.6068 -0.5321
 4309SOL     vw17236   5.951   6.248   0.956 -0.0091  0.5944  0.0944
 4310SOL     ow17237   1.389   5.816   5.976  0.1335  0.6388  1.0052
 4310SOL     hw17238   1.411   5.904   6.006  1.2580  0.2812  1.2741
 4310SOL     hw17239   1.444   5.802   5.899  0.2000  0.0511  1.1552
 4310SOL     vw17240   1.399   5.826   5.970  0.2906  0.5143  1.0602
 4311SOL     ow17241   0.101   5.566   3.177  0.4067 -0.1531  0.1077
 4311SOL     hw17242   0.156   5.612   3.240  0.6133  0.1496 -0.2883
 4311SOL     hw17243   0.161   5.507   3.131 -0.1775 -2.3961  1.9926
 4311SOL     vw17244   0.116   5.564   3.179  0.3569 -0.4091  0.3041
 4312SOL     ow17245   2.238   3.054   7.571 -0.1735 -0.2838  0.3806
 4312SOL     hw17246   2.328   3.053   7.603  0.4755 -0.1343 -1.3252
 4312SOL     hw17247   2.195   3.124   7.621  1.3717  1.3878 -0.5069
 4312SOL     vw17248   2.244   3.063   7.581  0.1160 -0.0436  0.0384
 4313SOL     ow17249   4.279   6.938   3.585 -0.0135 -0.7100 -0.4663
 4313SOL     hw17250   4.287   6.863   3.527 -0.2101 -1.4764  0.4632
 4313SOL     hw17251   4.191   6.930   3.623 -0.1660  0.1779 -0.6005
 4313SOL     vw17252   4.269   6.927   3.583 -0.0596 -0.6940 -0.3614
 4314SOL     ow17253   2.251   4.962   1.850  0.1300  0.0333 -0.2946
 4314SOL     hw17254   2.234   4.952   1.944  2.0926 -3.0099 -0.1133
 4314SOL     hw17255   2.186   4.905   1.809  0.5969 -0.2637 -0.6228
 4314SOL     vw17256   2.240   4.953   1.857  0.4506 -0.4075 -0.3139
 4315SOL     ow17257   3.487   2.028   2.355 -0.7805  0.2789 -0.2036
 4315SOL     hw17258   3.505   1.976   2.433  0.5091  1.3201  0.2251
 4315SOL     hw17259   3.533   1.983   2.285  0.5287  0.9371  0.2113
 4315SOL     vw17260   3.495   2.015   2.356 -0.4375  0.5031 -0.0923
 4316SOL     ow17261   5.416   1.319   6.176 -0.0719  0.2004 -0.0390
 4316SOL     hw17262   5.384   1.392   6.229 -1.5202  0.9366 -1.8282
 4316SOL     hw17263   5.510   1.333   6.169  0.1198  0.2447  2.0217
 4316SOL     vw17264   5.424   1.330   6.182 -0.2375  0.3034 -0.0033
 4317SOL     ow17265   6.765   3.913   0.602  0.6992  0.7448  0.2539
 4317SOL     hw17266   6.762   3.962   0.684 -3.8383 -1.2223  1.6028
 4317SOL     hw17267   6.798   3.827   0.627 -1.6642 -0.1971  0.4122
 4317SOL     vw17268   6.769   3.908   0.616 -0.2112  0.3611  0.4528
 4318SOL     ow17269   5.348   6.528   7.380 -0.5499  0.5658 -0.1793
 4318SOL     hw17270   5.371   6.494   7.467  2.9246  1.0721 -0.7266
 4318SOL     hw17271   5.277   6.472   7.350  1.0221 -2.5082  1.2876
 4318SOL     vw17272   5.342   6.516   7.387  0.1159  0.2272 -0.0579
 4319SOL     ow17273   7.530   7.335   5.935  0.6634  0.2672 -0.8593
 4319SOL     hw17274   7.587   7.367   6.005 -0.7115  0.3589  0.2555
 4319SOL     hw17275   7.449   7.308   5.979 -0.1543  0.0831 -2.3814
 4319SOL     vw17276   7.527   7.335   5.950  0.3741  0.2551 -0.9129
 4320SOL     ow17277   5.422   5.762   2.466  0.7037 -0.1425  0.4546
 4320SOL     hw17278   5.385   5.810   2.392  1.1176  0.5436  0.6787
 4320SOL     hw17279   5.404   5.670   2.447 -2.1349  0.2101  1.1191
 4320SOL     vw17280   5.415   5.757   2.454  0.3836 -0.0055  0.5718
 4321poe    c3117281   5.559   7.450   0.883 -0.3691 -0.2312  0.6482
 4321poe     o217282   5.503   7.364   0.786  0.2970 -0.3142  0.3304
 4321poe    c2317283   5.570   7.378   0.663  0.2323 -0.4091  0.2842
 4321poe    c2317284   5.532   7.274   0.556 -0.3003  0.4578 -0.3895
 4321poe     o217285   5.406   7.295   0.497 -0.3072  0.0862 -0.5133
 4321poe    c2317286   5.397   7.198   0.395  0.0278 -0.5438  0.0553
 4321poe    c2317287   5.324   7.272   0.281 -0.2031  0.0038  0.5554
 4321poe     o217288   5.420   7.354   0.219  0.0921 -0.9532 -0.2865
 4321poe    c2317289   5.360   7.393   0.097  0.2246  0.3257  0.0448
 4321poe    c2317290   5.398   7.323  -0.034  0.0048 -0.0765  0.1938
 4321poe     o217291   5.535   7.338  -0.065 -0.1447  0.2620 -0.3171
 4321poe    c3117292   5.608   7.236  -0.000 -0.4681  0.3577  0.2021
 4322poe    c3117293   2.062   5.201   7.192 -0.2061 -0.1160 -0.9328
 4322poe     o217294   2.048   5.133   7.315  0.4943  0.4365 -0.5390
 4322poe    c2317295   2.008   5.000   7.293  0.0968  0.4094  0.3095
 4322poe    c2317296   1.954   4.909   7.405 -0.1321  0.3482  0.1507
 4322poe     o217297   1.991   4.773   7.408 -1.0718  0.0802 -0.0864
 4322poe    c2317298   1.953   4.684   7.306 -0.0807 -0.3395 -0.1022
 4322poe    c2317299   1.804   4.647   7.289 -0.0423 -0.3494 -0.4352
 4322poe     o217300   1.737   4.595   7.401  0.4053  0.5220  0.2561
 4322poe    c2317301   1.607   4.548   7.371  0.5127 -0.0977  0.7292
 4322poe    c2317302   1.544   4.500   7.503 -0.3803 -0.3628  0.2146
 4322poe     o217303   1.572   4.591   7.607 -0.9605  0.1284 -0.0511
 4322poe    c3117304   1.552   4.530   7.733  0.2747 -0.0092  0.0909
 4323poe    c3117305   0.561   0.254   3.132 -0.1850 -0.6471 -0.1681
 4323poe     o217306   0.448   0.170   3.122 -0.4563 -0.3167  0.0773
 4323poe    c2317307   0.357   0.181   3.229 -0.2200  0.0241  0.2435
 4323poe    c2317308   0.242   0.082   3.254  0.1055 -0.3627  0.2263
 4323poe     o217309   0.122   0.082   3.181  0.0257 -0.2638  0.3555
 4323poe    c2317310   0.031   0.186   3.210 -0.2742 -0.4845  0.2238
 4323poe    c2317311  -0.072   0.196   3.096 -0.2833 -0.1189  0.2649
 4323poe     o217312  -0.182   0.109   3.089 -0.1482 -0.2383 -0.3963
 4323poe    c2317313  -0.264   0.121   2.975 -0.5627  0.4716 -0.0269
 4323poe    c2317314  -0.374   0.015   2.959 -0.2734  0.0217  0.8973
 4323poe     o217315  -0.351  -0.120   2.925  0.5496  0.4863 -0.4424
 4323poe    c3117316  -0.468  -0.198   2.935  0.2593  0.9026 -0.5957
 4324poe    c3117317   1.539   1.532   5.216 -0.1026  0.4279 -0.0129
 4324poe     o217318   1.476   1.589   5.104 -0.2609 -0.4576 -0.3849
 4324poe    c2317319   1.390   1.493   5.048  0.1425 -0.7483 -0.5027
 4324poe    c2317320   1.328   1.557   4.923  0.4337  0.0955 -0.2188
 4324poe     o217321   1.251   1.672   4.952 -0.1578 -0.2788 -0.2870
 4324poe    c2317322   1.208   1.734   4.834 -0.8162  0.3232  0.2581
 4324poe    c2317323   1.308   1.806   4.742 -0.5443 -0.1476  0.1798
 4324poe     o217324   1.380   1.911   4.803 -0.0271 -0.2122 -0.3108
 4324poe    c2317325   1.500   1.938   4.734  0.2694 -0.2419  0.1903
 4324poe    c2317326   1.498   2.043   4.621 -0.4737 -0.1933  0.2442
 4324poe     o217327   1.401   2.025   4.520 -0.2517  0.5725 -0.1132
 4324poe    c3117328   1.410   2.117   4.414 -0.0461  0.3356 -0.3012
 4325poe    c3117329   5.062   2.566   0.739  0.3810  0.5120 -0.3658
 4325poe     o217330   5.086   2.437   0.686  0.0805  0.2951  0.0195
 4325poe    c2317331   4.968   2.360   0.689  0.3488 -0.1119  0.0719
 4325poe    c2317332   4.898   2.292   0.570 -0.4162 -0.2039  0.5646
 4325poe     o217333   4.964   2.172   0.537 -0.3176  0.0449 -0.1716
 4325poe    c2317334   4.879   2.086   0.465  0.0518 -0.1456 -0.3858
 4325poe    c2317335   4.825   1.969   0.549 -0.0091 -0.0975 -0.3578
 4325poe     o217336   4.728   2.006   0.645  0.1006  0.1121 -0.3258
 4325poe    c2317337   4.602   2.022   0.585  0.0606 -0.2873 -0.3557
 4325poe    c2317338   4.490   2.089   0.667  0.3425 -0.1918 -0.0469
 4325poe     o217339   4.466   2.031   0.793  0.4751 -0.3941 -0.1142
 4325poe    c3117340   4.481   2.118   0.902  0.5339  0.0237 -0.4536
 4326poe    c3117341   4.639   5.897   1.445  0.1716  0.1285  0.0999
 4326poe     o217342   4.583   6.026   1.438 -0.6310 -0.2420 -0.2979
 4326poe    c2317343   4.642   6.108   1.536  0.3241 -1.0545 -0.1778
 4326poe    c2317344   4.597   6.095   1.683  0.9989 -0.4575  0.0868
 4326poe     o217345   4.628   5.972   1.744  0.3990 -0.7207 -0.1325
 4326poe    c2317346   4.650   6.000   1.880 -0.7469  0.2852 -0.1383
 4326poe    c2317347   4.667   5.877   1.971  0.6033  0.2625 -0.3930
 4326poe     o217348   4.551   5.805   2.006  0.3926  0.7637 -0.0419
 4326poe    c2317349   4.591   5.674   2.040 -0.2530  0.5800  0.0281
 4326poe    c2317350   4.464   5.588   2.051  0.0596  0.1897  0.6365
 4326poe     o217351   4.403   5.569   1.925  0.6335 -0.0246  0.3859
 4326poe    c3117352   4.444   5.446   1.870 -0.0955  0.0136 -0.2560
 4327poe    c3117353   4.148   2.220   5.856  0.7464 -0.7707  0.2186
 4327poe     o217354   4.141   2.360   5.860 -0.0361 -0.7922 -0.2307
 4327poe    c2317355   4.273   2.412   5.861 -0.4022  0.1632  0.1956
 4327poe    c2317356   4.280   2.550   5.792  0.3533 -0.2061 -0.4927
 4327poe     o217357   4.154   2.607   5.821  0.9066  0.5350  0.5131
 4327poe    c2317358   4.120   2.712   5.733  0.1887 -0.2846 -0.1972
 4327poe    c2317359   3.993   2.776   5.792  0.0565 -0.4692 -0.2786
 4327poe     o217360   3.895   2.675   5.803 -0.0883 -0.3433 -0.4108
 4327poe    c2317361   3.790   2.737   5.874 -0.4615 -0.1856 -1.0924
 4327poe    c2317362   3.665   2.648   5.881 -0.3899 -0.2273 -0.1397
 4327poe     o217363   3.679   2.535   5.965 -0.2522 -0.0866  0.0273
 4327poe    c3117364   3.578   2.440   5.939 -0.3484  0.0830 -0.2304
 4328poe    c3117365   2.351   5.963   2.740 -0.8299 -0.0784  0.2865
 4328poe     o217366   2.360   5.828   2.703 -0.2211 -0.1475  0.6728
 4328poe    c2317367   2.239   5.758   2.682 -0.0668 -0.1559 -0.1903
 4328poe    c2317368   2.205   5.639   2.775  0.0229 -0.2991 -0.3397
 4328poe     o217369   2.211   5.680   2.909 -0.4886  0.8166 -0.6451
 4328poe    c2317370   2.120   5.776   2.959  0.1136  0.9705  0.1849
 4328poe    c2317371   2.118   5.754   3.112 -0.1008  0.3790  0.1021
 4328poe     o217372   2.250   5.755   3.160 -0.1427  0.0028  0.2253
 4328poe    c2317373   2.283   5.753   3.297  0.1172 -0.3102  0.1596
 4328poe    c2317374   2.435   5.765   3.318  0.1109 -0.4825  0.3163
 4328poe     o217375   2.516   5.697   3.225  0.1805  0.3573 -0.2530
 4328poe    c3117376   2.653   5.723   3.243  0.2725 -0.4445  0.2400
 4329poe    c3117377   7.206   4.142   0.972  0.2123  0.0766 -0.1576
 4329poe     o217378   7.189   4.240   0.873 -0.0223  0.3623  0.1638
 4329poe    c2317379   7.241   4.362   0.920  0.0718  0.4293 -0.1094
 4329poe    c2317380   7.140   4.479   0.922  0.3683  0.6837  0.4827
 4329poe     o217381   7.095   4.514   0.793 -0.4694 -0.4816  0.4444
 4329poe    c2317382   6.988   4.606   0.791  0.0400  0.1096  0.0956
 4329poe    c2317383   6.947   4.633   0.645 -0.4548 -0.6097  0.0934
 4329poe     o217384   6.935   4.513   0.571 -0.2750 -0.3448 -0.3718
 4329poe    c2317385   6.905   4.554   0.440  0.0036  0.5464 -0.1709
 4329poe    c2317386   6.895   4.423   0.358  0.5777  0.1902  0.3240
 4329poe     o217387   6.826   4.344   0.451  0.6050 -0.2896 -0.0609
 4329poe    c3117388   6.800   4.213   0.407  0.4734 -0.5804  0.8513
 4330poe    c3117389   5.473   2.588   2.889  0.5436 -0.9517 -0.1988
 4330poe     o217390   5.427   2.458   2.861  0.2205 -0.7990 -0.3835
 4330poe    c2317391   5.428   2.368   2.969 -0.5289  0.1569  0.4429
 4330poe    c2317392   5.408   2.223   2.921 -0.3538  0.2972 -0.0615
 4330poe     o217393   5.500   2.170   2.829  0.1061  0.3653  0.3569
 4330poe    c2317394   5.637   2.179   2.862  0.2258 -0.1936  0.0262
 4330poe    c2317395   5.733   2.087   2.783  1.0112  0.4615  0.2018
 4330poe     o217396   5.735   1.964   2.850 -0.1575  0.1657 -0.2749
 4330poe    c2317397   5.806   1.886   2.757 -0.6804 -0.3411 -0.2588
 4330poe    c2317398   5.872   1.758   2.811  0.4530  0.2903 -0.1119
 4330poe     o217399   5.963   1.787   2.915 -0.0257 -0.1230  0.4317
 4330poe    c3117400   6.080   1.707   2.916  0.4605  0.5676 -0.1706
 4331poe    c3117401   2.289   4.381   1.445  0.6048  0.3905  0.0529
 4331poe     o217402   2.327   4.250   1.411 -0.1528  0.1499  0.1115
 4331poe    c2317403   2.215   4.171   1.379  0.1513 -0.0806 -0.4016
 4331poe    c2317404   2.263   4.026   1.359  0.3743 -0.1019  0.2653
 4331poe     o217405   2.353   4.009   1.251  0.4795  0.0762  0.3240
 4331poe    c2317406   2.362   3.869   1.236 -0.0200  0.0577  0.1714
 4331poe    c2317407   2.484   3.810   1.164 -0.2739 -0.0902 -0.1391
 4331poe     o217408   2.606   3.830   1.232 -0.3920  0.2943 -0.0413
 4331poe    c2317409   2.708   3.738   1.204 -0.3374  0.0660  0.8592
 4331poe    c2317410   2.806   3.710   1.319  0.8166 -0.3051 -0.1814
 4331poe     o217411   2.863   3.828   1.372  0.6864 -0.3380  0.0320
 4331poe    c3117412   2.917   3.794   1.498 -0.5372 -0.6070  0.5078
 4332poe    c3117413   7.345   1.757   5.414  0.2054  0.3514 -0.3760
 4332poe     o217414   7.248   1.846   5.463 -0.8169 -0.4884 -0.8517
 4332poe    c2317415   7.175   1.773   5.560  0.4438  0.1099  0.5813
 4332poe    c2317416   7.046   1.837   5.615  0.2451  0.2316 -0.0195
 4332poe     o217417   6.942   1.844   5.520  0.2506 -0.3992 -0.0729
 4332poe    c2317418   6.816   1.811   5.573  0.1342  0.2031  0.0284
 4332poe    c2317419   6.700   1.857   5.483 -0.0422  0.0544  0.1801
 4332poe     o217420   6.678   1.792   5.359  0.5192 -0.3501  0.2894
 4332poe    c2317421   6.568   1.854   5.296  0.5298 -0.4349  0.1880
 4332poe    c2317422   6.540   1.840   5.145 -0.1995 -0.2276  0.3035
 4332poe     o217423   6.518   1.711   5.092  0.1532 -0.1419 -0.0498
 4332poe    c3117424   6.453   1.698   4.967 -0.0461  0.1131  0.0261
 4333poe    c3117425   7.472   7.530   6.251  0.1084  0.2766 -0.1634
 4333poe     o217426   7.578   7.447   6.208  0.1606  0.2931 -0.0671
 4333poe    c2317427   7.683   7.432   6.302 -0.1389 -0.5410  0.1406
 4333poe    c2317428   7.792   7.341   6.242  0.5427  0.0581  0.4690
 4333poe     o217429   7.868   7.398   6.138  0.0918  0.3009  0.2690
 4333poe    c2317430   7.954   7.289   6.109  0.2810  0.5930 -0.2874
 4333poe    c2317431   8.059   7.353   6.017  0.2792  0.9152 -0.0687
 4333poe     o217432   8.014   7.390   5.889  0.2704  0.5831 -0.1626
 4333poe    c2317433   8.110   7.369   5.788  0.1607  0.1679 -0.1817
 4333poe    c2317434   8.059   7.437   5.659  0.4120  0.6472 -0.0315
 4333poe     o217435   7.949   7.373   5.597  0.5851  0.2808  0.0344
 4333poe    c3117436   7.899   7.433   5.479  0.1166 -0.2916 -0.0571
 4334poe    c3117437   6.698   4.595   5.853  0.1359 -0.0248  0.1438
 4334poe     o217438   6.784   4.661   5.762  0.1270 -0.1774  0.0243
 4334poe    c2317439   6.782   4.609   5.631  0.4464 -0.5868  0.1777
 4334poe    c2317440   6.875   4.694   5.541 -0.4806  0.9107  0.5899
 4334poe     o217441   6.961   4.765   5.628  0.2474  0.3060  0.3763
 4334poe    c2317442   7.080   4.810   5.567  0.3630 -0.4539  0.0228
 4334poe    c2317443   7.160   4.896   5.666 -0.0418  0.1322 -0.1519
 4334poe     o217444   7.159   4.832   5.791  0.2619 -0.1394 -0.2888
 4334poe    c2317445   7.244   4.896   5.884 -0.5794  0.3103  0.1854
 4334poe    c2317446   7.300   4.803   5.993 -0.5445 -0.1447 -0.2148
 4334poe     o217447   7.186   4.758   6.063 -0.1668 -0.5514  0.1485
 4334poe    c3117448   7.224   4.680   6.174 -0.2716  0.0645  0.6211
 4335poe    c3117449   0.315   6.374   5.268  0.3592  0.0960 -0.0413
 4335poe     o217450   0.442   6.326   5.231  0.5121  0.3305  0.1699
 4335poe    c2317451   0.503   6.412   5.137  0.6356 -0.1925 -0.2313
 4335poe    c2317452   0.604   6.508   5.203 -0.3310  0.2686  0.6033
 4335poe     o217453   0.562   6.598   5.302 -0.9175  0.7353 -0.0639
 4335poe    c2317454   0.657   6.699   5.326 -0.0691 -0.1251  0.2192
 4335poe    c2317455   0.621   6.788   5.446  0.0301  0.1335  0.0583
 4335poe     o217456   0.592   6.708   5.559 -0.2318 -0.1322 -0.1954
 4335poe    c2317457   0.544   6.780   5.670  0.3229 -0.4861  0.2787
 4335poe    c2317458   0.482   6.682   5.771  0.2580 -0.4349  0.2882
 4335poe     o217459   0.347   6.640   5.761 -0.0399  0.5440  0.1624
 4335poe    c3117460   0.308   6.603   5.891 -0.3873  0.1785 -0.0475
 4336poe    c3117461   7.174   3.744   3.038 -0.1710 -0.0174 -0.2345
 4336poe     o217462   7.152   3.811   3.160  0.2225  0.6269 -0.5114
 4336poe    c2317463   7.203   3.747   3.275 -0.2728  0.6059 -0.3013
 4336poe    c2317464   7.327   3.816   3.335 -0.2696  0.3893 -0.0626
 4336poe     o217465   7.316   3.803   3.475 -0.0729  0.0358 -0.0778
 4336poe    c2317466   7.424   3.866   3.540  0.0274 -0.3332  0.1153
 4336poe    c2317467   7.443   3.828   3.688 -0.0897 -0.8065  0.0105
 4336poe     o217468   7.342   3.857   3.782  0.1733 -0.3262  0.1489
 4336poe    c2317469   7.323   3.754   3.877 -0.2252  0.1786  0.6208
 4336poe    c2317470   7.233   3.803   3.992 -0.5477  0.2933  0.3219
 4336poe     o217471   7.115   3.858   3.937 -0.3146  0.4859  0.0084
 4336poe    c3117472   7.016   3.865   4.037 -0.7802  0.2647 -0.4364
 4337poe    c3117473   6.302   7.456   1.327 -0.5950  0.0752  0.6341
 4337poe     o217474   6.276   7.491   1.193 -0.3542 -0.9719  0.3028
 4337poe    c2317475   6.395   7.482   1.118 -0.6091  0.4490 -0.2998
 4337poe    c2317476   6.360   7.455   0.971  0.2416 -0.4254 -0.3500
 4337poe     o217477   6.320   7.320   0.969 -0.1739 -0.3158  0.3166
 4337poe    c2317478   6.285   7.284   0.836 -0.1378  0.0089  0.2191
 4337poe    c2317479   6.274   7.133   0.811  0.0968  0.0848 -0.3443
 4337poe     o217480   6.173   7.083   0.895  0.4243  0.0689  0.0437
 4337poe    c2317481   6.102   6.968   0.856 -0.0579  0.5028 -0.3874
 4337poe    c2317482   5.999   6.935   0.966 -0.4273  1.2935 -0.4898
 4337poe     o217483   6.062   6.880   1.080 -0.3941 -0.0755 -1.1518
 4337poe    c3117484   5.960   6.838   1.168  0.3456  0.6141  0.0648
 4338poe    c3117485   6.360   2.979   2.208  0.4963  1.3111 -0.1756
 4338poe     o217486   6.395   2.987   2.344  0.1562 -0.1734  0.0117
 4338poe    c2317487   6.521   3.047   2.361  0.2961 -0.4052 -0.2053
 4338poe    c2317488   6.585   3.036   2.500  0.0213  1.2518  0.0688
 4338poe     o217489   6.504   3.092   2.602 -0.0464  0.3859  0.4975
 4338poe    c2317490   6.542   3.048   2.730  0.3819  0.5708  0.4344
 4338poe    c2317491   6.484   3.153   2.826 -0.1020  0.0851  0.6757
 4338poe     o217492   6.349   3.148   2.786  0.0903 -0.2315  0.0597
 4338poe    c2317493   6.263   3.208   2.880 -0.2395 -0.6509  0.0245
 4338poe    c2317494   6.123   3.211   2.816 -0.2005 -0.0186 -0.0308
 4338poe     o217495   6.125   3.288   2.698 -0.2602 -0.5374 -0.3726
 4338poe    c3117496   6.002   3.323   2.638 -0.0365  1.2596  0.1624
 4339poe    c3117497   4.315   1.422   0.963 -0.2299  1.2860  0.3907
 4339poe     o217498   4.179   1.452   0.985 -0.6307 -0.3300  0.2711
 4339poe    c2317499   4.148   1.567   0.910 -0.4589  0.1446  0.9126
 4339poe    c2317500   4.002   1.615   0.916 -0.7333 -0.5178 -0.0720
 4339poe     o217501   3.922   1.524   0.844 -1.1021 -0.5222  0.3410
 4339poe    c2317502   3.882   1.418   0.928 -0.3870 -0.4281  0.8111
 4339poe    c2317503   3.795   1.323   0.843 -0.0536 -0.3385  0.3626
 4339poe     o217504   3.660   1.364   0.829  0.0253 -0.4477 -0.7977
 4339poe    c2317505   3.562   1.262   0.834 -0.3380 -0.0598  0.1675
 4339poe    c2317506   3.417   1.288   0.791 -0.2203 -0.0411 -0.2170
 4339poe     o217507   3.362   1.397   0.861  0.0600  0.1473 -0.2875
 4339poe    c3117508   3.224   1.376   0.841  0.0891  0.4308 -0.8121
 4340poe    c3117509   6.370   5.946   6.832  0.4198  0.3531 -0.3505
 4340poe     o217510   6.263   6.024   6.882  0.3173 -0.1387  0.2081
 4340poe    c2317511   6.217   5.957   6.997 -0.7782 -0.1184 -0.2086
 4340poe    c2317512   6.260   6.023   7.129 -0.3184 -0.3963 -0.2182
 4340poe     o217513   6.400   6.045   7.130 -0.4102  0.2000 -0.0173
 4340poe    c2317514   6.459   5.943   7.208  0.1400  0.3213 -0.2734
 4340poe    c2317515   6.583   5.977   7.292  0.0211  0.0309  0.0186
 4340poe     o217516   6.562   6.091   7.371 -0.1960 -0.3720  0.5528
 4340poe    c2317517   6.677   6.150   7.427  0.0497 -0.1613 -0.1580
 4340poe    c2317518   6.653   6.208   7.567 -0.2401  0.6561 -0.5442
 4340poe     o217519   6.765   6.192   7.651 -0.3613 -0.1240 -0.5253
 4340poe    c3117520   6.754   6.242   7.783 -0.6719 -0.5003 -0.4056
 4341poe    c3117521   7.064   7.458   6.554  0.2475 -0.2546  1.0495
 4341poe     o217522   7.148   7.567   6.582  0.2918 -0.0050  0.0091
 4341poe    c2317523   7.242   7.551   6.687  0.6557  0.0597 -0.3034
 4341poe    c2317524   7.347   7.444   6.651  0.4389 -0.2628  0.0110
 4341poe     o217525   7.325   7.317   6.707  0.0732 -0.2449 -0.0916
 4341poe    c2317526   7.371   7.223   6.613 -0.1385 -0.1339 -0.3076
 4341poe    c2317527   7.334   7.092   6.685  0.0371 -0.3773 -0.6607
 4341poe     o217528   7.198   7.077   6.719  0.2623 -0.2977  0.2979
 4341poe    c2317529   7.178   6.991   6.829  0.1281 -0.0589  0.4608
 4341poe    c2317530   7.033   6.939   6.825  0.0836  0.0896  0.0949
 4341poe     o217531   6.936   7.039   6.843 -0.1036 -0.1956  0.7016
 4341poe    c3117532   6.806   6.985   6.838 -0.1162 -0.0651 -0.5365
 4342poe    c3117533   1.266   6.519   2.693 -0.0095  0.2623 -0.0533
 4342poe     o217534   1.377   6.516   2.780  0.5128 -0.7829 -0.7275
 4342poe    c2317535   1.368   6.437   2.897 -0.2148  0.8458  0.3586
 4342poe    c2317536   1.481   6.460   2.999  0.1686 -0.0331  0.1433
 4342poe     o217537   1.597   6.418   2.932  0.2539 -0.2947  0.4535
 4342poe    c2317538   1.635   6.286   2.964 -0.0495 -0.3043  0.7655
 4342poe    c2317539   1.762   6.246   2.888  0.0778  0.1689  0.7323
 4342poe     o217540   1.881   6.302   2.941  0.8913 -0.4147 -0.4401
 4342poe    c2317541   1.990   6.227   2.892  1.0185 -0.3232 -0.2930
 4342poe    c2317542   2.121   6.290   2.944  0.4724  0.5151  0.0786
 4342poe     o217543   2.124   6.289   3.085 -0.3278  0.3540  0.1019
 4342poe    c3117544   2.236   6.354   3.141 -0.3171  0.3922  0.0360
 4343poe    c3117545   3.594   4.803   6.312  0.7466 -0.1594  0.3422
 4343poe     o217546   3.636   4.795   6.447  0.3039 -0.2992  0.4725
 4343poe    c2317547   3.777   4.795   6.458  0.3738  0.8253 -0.2464
 4343poe    c2317548   3.833   4.804   6.601 -0.1996  0.6319 -0.0044
 4343poe     o217549   3.842   4.684   6.673 -0.6607  0.3771 -0.3667
 4343poe    c2317550   3.942   4.697   6.771 -0.1199 -0.2044 -0.8235
 4343poe    c2317551   3.963   4.572   6.859  0.0492  0.3870 -0.0041
 4343poe     o217552   3.993   4.459   6.780  0.4960  0.4391  0.0846
 4343poe    c2317553   4.023   4.346   6.859 -0.2324  0.1529 -0.0378
 4343poe    c2317554   4.106   4.229   6.804 -0.3187  0.0639  0.0213
 4343poe     o217555   4.045   4.163   6.696 -0.1148 -0.1858  0.0563
 4343poe    c3117556   4.135   4.067   6.647 -0.1154 -0.2808  0.2407
 4344poe    c3117557   2.264   4.398   2.803  0.2932  0.2665  0.2972
 4344poe     o217558   2.380   4.478   2.793  0.9174 -0.6093  0.4825
 4344poe    c2317559   2.460   4.425   2.690  0.4634  0.1634 -0.2755
 4344poe    c2317560   2.605   4.477   2.680  0.4315  0.3439  0.1593
 4344poe     o217561   2.616   4.613   2.644  0.1293  0.1339 -0.7572
 4344poe    c2317562   2.748   4.631   2.596  0.3980 -0.1014 -0.1159
 4344poe    c2317563   2.794   4.778   2.592  0.2952 -0.0664 -0.0063
 4344poe     o217564   2.752   4.836   2.714  0.1219 -0.3026  0.0478
 4344poe    c2317565   2.771   4.975   2.729  0.0773 -0.2497 -0.3836
 4344poe    c2317566   2.710   4.996   2.869  0.8380  0.0201 -0.0868
 4344poe     o217567   2.579   4.942   2.872  0.7379  0.2748  0.1734
 4344poe    c3117568   2.493   4.976   2.978  0.5419  0.3234 -0.0001
 4345poe    c3117569   5.647   1.868   5.609 -0.4123  0.7542 -0.5486
 4345poe     o217570   5.747   1.795   5.541 -0.6336  0.0282 -0.1115
 4345poe    c2317571   5.688   1.725   5.435  0.4899 -0.0151 -0.7270
 4345poe    c2317572   5.780   1.633   5.353 -0.2128 -0.8190 -0.6244
 4345poe     o217573   5.878   1.704   5.281 -0.0611 -0.1820  0.2016
 4345poe    c2317574   5.970   1.626   5.209 -0.2611 -0.3113  0.0831
 4345poe    c2317575   6.048   1.714   5.110 -0.3065 -0.4328 -0.0588
 4345poe     o217576   5.986   1.714   4.983  0.1386 -0.0141 -0.2828
 4345poe    c2317577   6.062   1.638   4.892 -0.4602 -0.5733 -0.3285
 4345poe    c2317578   5.994   1.637   4.754 -0.5095 -0.1943 -0.3082
 4345poe     o217579   5.987   1.769   4.705 -0.0808 -0.0205  0.0864
 4345poe    c3117580   5.901   1.786   4.594  0.2511 -0.2072 -0.2023
 4346poe    c3117581   5.596   6.507   4.298  0.0539 -0.4682  0.2362
 4346poe     o217582   5.637   6.383   4.244 -0.3049 -0.2314 -0.6091
 4346poe    c2317583   5.778   6.381   4.236 -0.2841  0.0509 -0.3606
 4346poe    c2317584   5.846   6.299   4.125  0.0492 -0.0792 -0.0638
 4346poe     o217585   5.847   6.386   4.013  0.0712 -0.0129 -0.0125
 4346poe    c2317586   5.936   6.323   3.924 -0.2465 -0.5687  0.0576
 4346poe    c2317587   5.954   6.409   3.797 -0.6375  0.2146  0.5257
 4346poe     o217588   6.000   6.541   3.812  0.4739  0.0280 -0.9478
 4346poe    c2317589   6.139   6.551   3.833  0.3565 -0.6636  0.2272
 4346poe    c2317590   6.173   6.700   3.821  0.2529 -0.6887 -0.4087
 4346poe     o217591   6.127   6.759   3.701 -0.5126 -0.1373  0.1432
 4346poe    c3117592   6.137   6.900   3.700  0.0389 -0.1741 -0.0262
 4347poe    c3117593   5.399   4.452   0.480  0.2086  0.1139 -0.4633
 4347poe     o217594   5.376   4.324   0.534  0.2827  0.3463  0.1207
 4347poe    c2317595   5.239   4.293   0.551  0.4056 -0.1656  0.1961
 4347poe    c2317596   5.216   4.146   0.590  0.6597 -0.2138  0.1655
 4347poe     o217597   5.268   4.122   0.719 -0.2044 -0.5847  0.4499
 4347poe    c2317598   5.226   3.994   0.761 -0.9101 -0.4182  0.2702
 4347poe    c2317599   5.272   3.975   0.907 -0.0176 -0.0914  0.0356
 4347poe     o217600   5.218   4.055   1.010  0.4109  0.0603  0.1479
 4347poe    c2317601   5.284   4.032   1.132  0.5883  0.6518  0.1677
 4347poe    c2317602   5.234   4.119   1.249  0.2730 -0.1089  0.6139
 4347poe     o217603   5.216   4.257   1.224 -0.7505 -0.3313  0.1030
 4347poe    c3117604   5.255   4.333   1.336  0.4526 -0.1062 -0.4559
 4348poe    c3117605   5.434   1.109   5.387  0.7099 -0.3269 -0.0550
 4348poe     o217606   5.484   1.219   5.458 -0.6056  0.2014  0.0787
 4348poe    c2317607   5.396   1.330   5.459 -0.3121  0.4387 -0.0531
 4348poe    c2317608   5.449   1.438   5.555 -0.0315  0.5332 -0.3165
 4348poe     o217609   5.566   1.393   5.620 -0.1673  0.5341 -0.0749
 4348poe    c2317610   5.627   1.499   5.692  0.2232  0.2961 -0.0544
 4348poe    c2317611   5.755   1.449   5.762  0.0628  0.5507  0.4238
 4348poe     o217612   5.839   1.391   5.665 -0.1572  0.3821  0.3333
 4348poe    c2317613   5.949   1.326   5.724 -0.4793 -0.5231 -0.0550
 4348poe    c2317614   6.059   1.299   5.620 -0.0772 -0.2036  0.2863
 4348poe     o217615   6.010   1.229   5.508  0.4588 -0.2858  0.1025
 4348poe    c3117616   6.113   1.224   5.412  0.5460  0.6160  0.1397
 4349poe    c3117617   6.916   6.655   0.999  0.6344  0.4622  0.5909
 4349poe     o217618   6.863   6.706   1.119 -0.1882 -0.0035  0.4345
 4349poe    c2317619   6.959   6.704   1.223  0.2937  0.3585 -0.0001
 4349poe    c2317620   6.917   6.793   1.341  0.0776  0.5071 -0.1877
 4349poe     o217621   6.808   6.742   1.416  0.0583  0.3708 -0.3074
 4349poe    c2317622   6.806   6.793   1.548  0.0446  0.0700 -0.1913
 4349poe    c2317623   6.742   6.933   1.553 -0.3848 -0.1376  0.1046
 4349poe     o217624   6.750   6.994   1.680  0.4032 -0.4120  0.1907
 4349poe    c2317625   6.878   7.035   1.725  0.2614  0.1604  0.0819
 4349poe    c2317626   6.859   7.082   1.870 -0.0792  0.2153  0.0226
 4349poe     o217627   6.988   7.119   1.914  0.0984 -0.2578 -0.0907
 4349poe    c3117628   6.993   7.243   1.981 -0.4531 -0.0049 -0.5080
 4350poe    c3117629   4.505   4.798   1.228  0.3423 -0.1367  0.1253
 4350poe     o217630   4.634   4.742   1.230  0.4650  0.1287 -0.3405
 4350poe    c2317631   4.671   4.679   1.350 -0.0227  0.7922  0.1594
 4350poe    c2317632   4.815   4.626   1.358 -0.2680  0.0419 -0.3291
 4350poe     o217633   4.813   4.492   1.315 -1.0216 -0.1386  0.2442
 4350poe    c2317634   4.868   4.406   1.412  0.0177 -0.0148 -0.2246
 4350poe    c2317635   4.815   4.262   1.405  0.5903 -0.2460  0.0759
 4350poe     o217636   4.880   4.207   1.292  0.3329  0.0176 -0.2028
 4350poe    c2317637   4.832   4.077   1.264  0.4179 -0.0315 -0.1208
 4350poe    c2317638   4.902   4.031   1.134  0.1797 -0.0324 -0.2488
 4350poe     o217639   4.907   4.148   1.055 -0.2686 -0.0911 -0.3686
 4350poe    c3117640   4.880   4.114   0.920  0.6952 -0.9155 -0.3664
 4351poe    c3117641   0.510   6.512   6.928 -0.9268  0.0430 -0.0573
 4351poe     o217642   0.546   6.511   7.064 -1.1094 -0.5836 -0.0114
 4351poe    c2317643   0.596   6.386   7.106  0.4809  0.2607  0.6960
 4351poe    c2317644   0.518   6.345   7.232 -0.7235  0.4620  0.0305
 4351poe     o217645   0.388   6.317   7.186 -0.2197 -0.7936 -0.6652
 4351poe    c2317646   0.303   6.348   7.294  0.6865 -0.2864 -0.0928
 4351poe    c2317647   0.152   6.357   7.266  0.5390 -0.6073  0.5827
 4351poe     o217648   0.097   6.233   7.226 -0.1057 -0.1423  0.0075
 4351poe    c2317649  -0.004   6.262   7.132  0.2656  0.0236 -0.3415
 4351poe    c2317650  -0.068   6.143   7.058 -0.4203  0.2124 -0.0610
 4351poe     o217651   0.008   6.108   6.945  0.2742  0.1232  0.4259
 4351poe    c3117652  -0.050   6.000   6.876  0.0184  0.6389 -0.1728
 4352poe    c3117653   1.128   6.117   5.927 -0.4461  0.1737 -0.1460
 4352poe     o217654   1.008   6.123   6.001 -0.2146 -0.1830  0.2627
 4352poe    c2317655   0.919   6.027   5.948 -0.1225 -0.0497 -0.1388
 4352poe    c2317656   0.840   5.948   6.054  0.2623 -0.0086  0.1802
 4352poe     o217657   0.880   5.816   6.081  0.0486 -0.1524 -0.2061
 4352poe    c2317658   1.000   5.798   6.152 -0.2475  0.0999  0.3726
 4352poe    c2317659   1.059   5.660   6.190  0.5019  0.3387  0.1061
 4352poe     o217660   1.148   5.611   6.093  0.1285  0.1147 -0.1275
 4352poe    c2317661   1.092   5.535   5.989 -0.4339 -0.3121  0.4809
 4352poe    c2317662   1.203   5.445   5.931 -0.1234  0.3353  0.0644
 4352poe     o217663   1.312   5.529   5.899  0.0449  0.1788  0.2270
 4352poe    c3117664   1.392   5.457   5.808  0.8450  0.3564  0.7757
 4353poe    c3117665   5.410   1.185   6.530  0.9748 -0.1365  0.0225
 4353poe     o217666   5.350   1.111   6.635  0.2721 -0.1911 -0.4167
 4353poe    c2317667   5.363   0.974   6.608  0.5411 -0.2415 -0.0329
 4353poe    c2317668   5.217   0.924   6.613  0.7127 -0.6901  0.8222
 4353poe     o217669   5.149   0.955   6.733 -0.3953  0.6330 -0.1045
 4353poe    c2317670   5.029   0.884   6.751  0.2788 -0.4473  0.2236
 4353poe    c2317671   4.963   0.914   6.887  0.4378  0.1884  0.1600
 4353poe     o217672   4.894   1.037   6.887 -0.3147 -0.2292  0.1803
 4353poe    c2317673   4.851   1.062   7.019  0.7948  0.3311  0.4480
 4353poe    c2317674   4.816   1.210   7.042 -0.3438  0.1245  0.1347
 4353poe     o217675   4.926   1.295   7.016 -0.1531 -0.1178  0.1510
 4353poe    c3117676   4.881   1.424   6.986  0.3403  0.0265  0.0220
 4354poe    c3117677   4.915   3.094   5.026 -0.1547 -0.3877 -0.4334
 4354poe     o217678   4.887   2.988   5.115  0.3118 -0.2664 -0.1359
 4354poe    c2317679   4.935   3.025   5.243 -0.4243  0.1363  0.0361
 4354poe    c2317680   5.002   2.911   5.323 -0.0578  0.5464  0.3177
 4354poe     o217681   4.924   2.802   5.366  0.1314  0.4512  0.4183
 4354poe    c2317682   5.000   2.687   5.398  0.0848  0.4642  0.5748
 4354poe    c2317683   4.917   2.572   5.458 -0.3907  0.1797 -0.5966
 4354poe     o217684   4.823   2.624   5.550  0.1933  0.2469 -0.0279
 4354poe    c2317685   4.861   2.606   5.684  0.2550  0.5767 -0.0019
 4354poe    c2317686   4.820   2.734   5.761  0.1301  0.2536  0.4766
 4354poe     o217687   4.681   2.751   5.744  0.1049 -0.4456 -0.0975
 4354poe    c3117688   4.640   2.869   5.809  0.5318 -0.2491 -0.1768
 4355poe    c3117689   3.544   1.179   6.569  0.5426  0.3366  0.4328
 4355poe     o217690   3.507   1.098   6.678  0.6678 -0.3039  0.0074
 4355poe    c2317691   3.377   1.139   6.715  0.6031 -0.6619  0.1824
 4355poe    c2317692   3.351   1.064   6.847  0.1760 -0.3955  0.2504
 4355poe     o217693   3.351   0.923   6.844 -0.6727 -0.4057  0.3518
 4355poe    c2317694   3.274   0.879   6.953 -0.8969  0.0230  0.3681
 4355poe    c2317695   3.278   0.726   6.963 -0.4511  0.0063 -0.0526
 4355poe     o217696   3.417   0.704   6.970 -0.4772 -0.2249 -0.2306
 4355poe    c2317697   3.429   0.573   7.019  0.1545 -0.1306 -0.1305
 4355poe    c2317698   3.568   0.528   7.067  0.0213 -0.3630  0.0393
 4355poe     o217699   3.675   0.541   6.975  0.1548  0.1797  0.2717
 4355poe    c3117700   3.790   0.493   7.041  0.1784  0.5538  0.5096
 4356poe    c3117701   6.469   3.633   1.396  0.3207  0.2730  0.1148
 4356poe     o217702   6.523   3.504   1.416  0.0867  0.1882  0.2022
 4356poe    c2317703   6.433   3.397   1.431  0.1842  0.1636  0.6031
 4356poe    c2317704   6.528   3.275   1.436  0.3377  0.2756  0.4268
 4356poe     o217705   6.635   3.326   1.512  0.3220  0.5105  0.2935
 4356poe    c2317706   6.725   3.220   1.534 -0.0129  0.1282 -0.1520
 4356poe    c2317707   6.836   3.275   1.626  0.5376 -0.2041 -0.6115
 4356poe     o217708   6.864   3.401   1.568  0.2505 -0.1288 -0.5848
 4356poe    c2317709   6.987   3.449   1.618 -0.2127  0.4740 -0.0029
 4356poe    c2317710   7.045   3.560   1.529 -0.4331  0.7160  0.1520
 4356poe     o217711   7.165   3.614   1.580  0.2822 -0.3617 -0.3341
 4356poe    c3117712   7.202   3.692   1.468 -0.6855  0.6226  0.0093
 4357poe    c3117713   6.023   4.653   4.713 -0.1154 -0.1743  0.2786
 4357poe     o217714   6.137   4.635   4.631 -0.0416  0.8298  0.1445
 4357poe    c2317715   6.226   4.734   4.677  0.0017  0.9380 -0.1727
 4357poe    c2317716   6.346   4.768   4.586  0.2235 -0.1472 -0.3039
 4357poe     o217717   6.422   4.651   4.574  0.0503 -0.3015  0.0703
 4357poe    c2317718   6.547   4.678   4.514 -0.1918  0.0655 -0.2729
 4357poe    c2317719   6.615   4.547   4.470  0.2874  0.1546  0.1799
 4357poe     o217720   6.529   4.458   4.402  0.7160 -0.5534  0.5602
 4357poe    c2317721   6.578   4.341   4.339  0.5215 -0.1433 -0.3700
 4357poe    c2317722   6.470   4.280   4.248  0.3087 -0.3907  0.0448
 4357poe     o217723   6.348   4.291   4.316  0.1600  0.5087 -0.3640
 4357poe    c3117724   6.252   4.218   4.244  0.1841  0.6050 -0.4942
 4358poe    c3117725   0.103   2.552   2.014  0.1036  0.3354 -0.5181
 4358poe     o217726   0.199   2.461   1.966  0.2609 -0.2908  0.9182
 4358poe    c2317727   0.303   2.534   1.904 -0.4263 -0.0023  0.0828
 4358poe    c2317728   0.402   2.427   1.855 -0.7442 -0.0137 -0.5483
 4358poe     o217729   0.332   2.330   1.781 -0.1337 -0.3136 -0.7413
 4358poe    c2317730   0.425   2.229   1.749  0.2970 -0.0771 -0.2599
 4358poe    c2317731   0.380   2.163   1.617 -0.2574 -0.3695  0.0699
 4358poe     o217732   0.240   2.146   1.616 -0.3298  0.1857  0.5109
 4358poe    c2317733   0.210   2.067   1.503 -0.1279  0.2154  0.4361
 4358poe    c2317734   0.061   2.075   1.464  0.0042  0.2933 -0.0617
 4358poe     o217735  -0.011   2.032   1.578  0.0969  0.0132 -0.1066
 4358poe    c3117736  -0.146   2.072   1.560  0.0523 -0.2133 -0.2867
 4359poe    c3117737   2.265   0.674   4.985  0.3956  0.4613  0.4906
 4359poe     o217738   2.175   0.728   5.079 -0.0659  0.3707  0.1023
 4359poe    c2317739   2.044   0.747   5.029 -0.0431  0.0059 -0.0989
 4359poe    c2317740   1.973   0.837   5.132 -0.1620 -0.1792 -0.0177
 4359poe     o217741   2.019   0.968   5.109 -0.3364 -0.1489 -0.1944
 4359poe    c2317742   1.929   1.071   5.144 -0.5461 -0.4359  0.1188
 4359poe    c2317743   1.913   1.173   5.029 -0.0901  0.3861  0.7728
 4359poe     o217744   2.021   1.263   5.016  0.0508  0.1338  0.1476
 4359poe    c2317745   1.998   1.370   4.928 -0.3006 -0.0405  0.0274
 4359poe    c2317746   2.118   1.458   4.889  0.1387 -0.6874 -0.1133
 4359poe     o217747   2.217   1.424   4.795  0.0995 -0.0233 -0.4058
 4359poe    c3117748   2.329   1.509   4.787  0.2761 -0.2084  0.0647
 4360poe    c3117749   2.254   4.099   6.846 -0.2502 -0.4718 -0.4513
 4360poe     o217750   2.255   4.017   6.731 -1.4995 -0.3607 -0.5627
 4360poe    c2317751   2.248   3.887   6.786  0.5975 -0.3067 -0.0761
 4360poe    c2317752   2.249   3.789   6.667 -0.7088  0.0709 -0.4149
 4360poe     o217753   2.149   3.807   6.570 -0.5699  0.4075 -0.4989
 4360poe    c2317754   2.126   3.684   6.506 -0.1799  0.4032 -0.6301
 4360poe    c2317755   1.977   3.678   6.468 -0.2092 -0.2948 -0.4233
 4360poe     o217756   1.941   3.808   6.428  0.4638 -0.0758 -0.3237
 4360poe    c2317757   1.804   3.842   6.417  0.3814 -0.4012 -0.3136
 4360poe    c2317758   1.721   3.832   6.546 -0.1091  0.3119 -0.5684
 4360poe     o217759   1.767   3.933   6.633  0.0761 -0.2030 -0.0644
 4360poe    c3117760   1.663   3.967   6.722 -0.3026 -0.0765 -0.5500
 4361poe    c3117761   6.273   6.244   0.224 -0.4319 -0.0637 -0.1854
 4361poe     o217762   6.203   6.360   0.264  0.2230  0.4072 -0.3841
 4361poe    c2317763   6.072   6.377   0.215 -0.0194  0.1139  0.1488
 4361poe    c2317764   6.045   6.528   0.231  0.1134  0.1414  0.1124
 4361poe     o217765   6.139   6.604   0.159 -0.1432  0.0092 -0.3630
 4361poe    c2317766   6.135   6.738   0.202  0.3934 -0.2347  0.4645
 4361poe    c2317767   6.254   6.830   0.168  0.4701 -0.3285  0.4778
 4361poe     o217768   6.298   6.828   0.034  0.0478 -0.3131  0.3374
 4361poe    c2317769   6.424   6.890   0.021  0.2986 -0.7927  0.4745
 4361poe    c2317770   6.462   6.960  -0.111 -0.1994  0.2647  0.8853
 4361poe     o217771   6.595   7.005  -0.131 -0.2655 -0.0567 -0.3663
 4361poe    c3117772   6.600   7.038  -0.268  0.3025 -0.0007 -0.3317
 4362poe    c3117773   1.605   3.523   3.624  0.1565 -0.0506 -0.1230
 4362poe     o217774   1.520   3.616   3.561 -0.0278 -0.1778 -0.0626
 4362poe    c2317775   1.388   3.566   3.559 -0.1782  0.2082  0.1949
 4362poe    c2317776   1.302   3.666   3.479 -0.3788  0.4942  0.7615
 4362poe     o217777   1.337   3.789   3.537  0.3028  0.5108  0.3160
 4362poe    c2317778   1.264   3.897   3.485  0.1884  0.1590 -0.2584
 4362poe    c2317779   1.315   4.023   3.558 -0.3960  0.4609 -0.3615
 4362poe     o217780   1.454   4.026   3.578 -0.4706 -0.3707  0.3417
 4362poe    c2317781   1.487   4.162   3.602 -0.0862 -0.3191 -0.4766
 4362poe    c2317782   1.628   4.171   3.663 -0.2773  0.5031 -0.1558
 4362poe     o217783   1.737   4.127   3.586  0.0003  0.2454  0.3786
 4362poe    c3117784   1.854   4.109   3.663  0.5299 -0.5882 -0.6019
 4363poe    c3117785   6.585   3.781   4.691 -0.0520 -0.2464 -0.1139
 4363poe     o217786   6.575   3.813   4.828  0.3868  0.4763 -0.2485
 4363poe    c2317787   6.687   3.755   4.890 -0.0420 -0.2083 -0.1012
 4363poe    c2317788   6.698   3.835   5.022  0.1344 -0.9769  0.3529
 4363poe     o217789   6.577   3.851   5.093 -0.2140  0.1204 -0.4692
 4363poe    c2317790   6.625   3.898   5.217  0.0347 -0.7213 -0.2399
 4363poe    c2317791   6.536   3.851   5.334  0.2541 -0.7506 -0.0842
 4363poe     o217792   6.404   3.880   5.292  0.1847  0.2570  0.7575
 4363poe    c2317793   6.317   3.963   5.364 -0.2643 -0.1571  0.6962
 4363poe    c2317794   6.200   3.887   5.431 -0.7412  0.0563  0.1112
 4363poe     o217795   6.133   3.813   5.332 -0.3301 -0.1163 -0.0410
 4363poe    c3117796   6.015   3.758   5.386 -0.0543 -0.2050  0.4808
 4364poe    c3117797   4.332   0.692   5.186 -0.3281  0.3921  0.0964
 4364poe     o217798   4.458   0.631   5.203 -0.1505  0.7136 -0.0584
 4364poe    c2317799   4.567   0.701   5.147 -0.0766  0.5258 -0.1472
 4364poe    c2317800   4.699   0.677   5.221 -0.2402  0.5270  0.1472
 4364poe     o217801   4.661   0.690   5.356 -0.2523  0.2832  0.1683
 4364poe    c2317802   4.782   0.657   5.421 -0.4460 -0.9069 -0.0603
 4364poe    c2317803   4.754   0.671   5.572  0.9221  0.4343  0.0904
 4364poe     o217804   4.628   0.612   5.593  1.0890  0.0294 -0.0283
 4364poe    c2317805   4.616   0.573   5.728 -0.3526 -0.4889 -0.2866
 4364poe    c2317806   4.488   0.496   5.764 -0.7696 -0.1694 -1.0663
 4364poe     o217807   4.499   0.359   5.731 -1.1769 -0.3857 -0.3237
 4364poe    c3117808   4.449   0.280   5.836  0.0405 -0.0127  0.5659
 4365poe    c3117809   6.907   2.542   0.450  0.6730 -0.2605  0.3112
 4365poe     o217810   6.927   2.484   0.576  0.0876 -0.2410  0.4130
 4365poe    c2317811   7.065   2.491   0.603  0.1141 -0.5116  0.3476
 4365poe    c2317812   7.092   2.405   0.728  0.7293 -0.0740  0.5214
 4365poe     o217813   7.009   2.431   0.839 -0.2664 -0.2136 -0.1832
 4365poe    c2317814   7.072   2.391   0.958 -0.1706 -0.9100 -0.4582
 4365poe    c2317815   7.006   2.425   1.093  0.3121 -0.3017 -0.3649
 4365poe     o217816   6.885   2.352   1.092  0.1587 -0.0531  0.0515
 4365poe    c2317817   6.820   2.404   1.206  0.2387  0.3182 -0.0698
 4365poe    c2317818   6.679   2.464   1.184 -0.0787 -0.3044  0.2438
 4365poe     o217819   6.579   2.375   1.140  0.3546 -0.7289  0.1054
 4365poe    c3117820   6.567   2.344   1.003  0.0723 -0.8299  0.1511
 4366poe    c3117821   3.549   4.884   1.277 -0.1379  0.0658 -0.4852
 4366poe     o217822   3.453   4.985   1.301 -0.2483 -0.2021  0.2357
 4366poe    c2317823   3.476   5.038   1.429 -0.4941  0.0880  0.1611
 4366poe    c2317824   3.346   5.073   1.503 -0.1742  0.2925  0.6347
 4366poe     o217825   3.268   5.170   1.438  0.0922  0.2648  0.2735
 4366poe    c2317826   3.135   5.181   1.485 -0.0289 -0.1354  0.0315
 4366poe    c2317827   3.089   5.326   1.461  0.5969  0.1151  0.3087
 4366poe     o217828   3.116   5.358   1.326  0.1662  0.3744  0.2810
 4366poe    c2317829   3.132   5.496   1.306 -0.6187  0.4289  0.0130
 4366poe    c2317830   3.166   5.546   1.163 -0.0485 -0.8084 -0.2945
 4366poe     o217831   3.293   5.498   1.128  0.3554  0.2888 -0.3642
 4366poe    c3117832   3.337   5.573   1.017 -0.3801  0.8824 -0.2628
 4367poe    c3117833   1.546   0.959   2.893 -0.2615 -0.4709 -0.5650
 4367poe     o217834   1.496   0.924   2.766 -0.1620 -0.3273 -0.6439
 4367poe    c2317835   1.431   1.029   2.698 -0.0370  0.1712 -0.0048
 4367poe    c2317836   1.299   1.094   2.744 -0.4486 -0.4302 -0.3223
 4367poe     o217837   1.312   1.177   2.857 -0.0091 -0.2664 -0.4901
 4367poe    c2317838   1.190   1.167   2.929  0.5334 -0.1636  0.4587
 4367poe    c2317839   1.168   1.309   2.985 -0.2064 -0.1281  0.0828
 4367poe     o217840   1.117   1.394   2.885  0.0336  0.0899  0.1451
 4367poe    c2317841   1.106   1.528   2.926 -0.1816 -0.0050  0.3977
 4367poe    c2317842   1.081   1.626   2.811 -0.0298 -0.2134  0.1874
 4367poe     o217843   0.955   1.624   2.747 -0.1832  0.4548  0.4522
 4367poe    c3117844   0.943   1.538   2.636  0.0196 -0.0751  0.8371
 4368poe    c3117845   1.702   2.829   6.529 -0.1024 -0.5665 -0.4115
 4368poe     o217846   1.635   2.874   6.645 -0.6049 -0.2559 -0.8203
 4368poe    c2317847   1.509   2.811   6.642 -0.7550  0.0146 -0.3050
 4368poe    c2317848   1.446   2.813   6.782  0.2825  0.4339  0.1636
 4368poe     o217849   1.460   2.942   6.838  0.2163  0.5178 -0.0123
 4368poe    c2317850   1.373   2.970   6.946  0.1426  0.1531  0.0237
 4368poe    c2317851   1.408   3.110   6.999 -0.3938  0.2110  0.2332
 4368poe     o217852   1.548   3.108   7.018 -0.2365 -0.0208 -0.8579
 4368poe    c2317853   1.584   3.124   7.154 -0.4079 -0.3532 -0.7721
 4368poe    c2317854   1.663   3.000   7.201 -0.2771 -0.0868 -0.2871
 4368poe     o217855   1.775   2.968   7.122 -0.0624  0.7122 -0.3210
 4368poe    c3117856   1.818   2.842   7.168 -0.0286  0.8945  0.1561
 4369poe    c3117857   0.868   4.715   4.406 -0.0981 -0.3084  0.4008
 4369poe     o217858   0.764   4.720   4.311 -0.0895  0.3929  0.4216
 4369poe    c2317859   0.778   4.604   4.232 -0.4168  1.0658 -0.6387
 4369poe    c2317860   0.680   4.608   4.113 -0.3370  0.2740 -0.7399
 4369poe     o217861   0.558   4.636   4.179 -0.0715 -0.1326 -0.0642
 4369poe    c2317862   0.465   4.679   4.082 -0.1535  0.0393  0.0897
 4369poe    c2317863   0.330   4.670   4.156  0.2198 -1.3472  0.6305
 4369poe     o217864   0.353   4.734   4.280  1.0513 -0.6632  0.1363
 4369poe    c2317865   0.252   4.748   4.377  0.2678  0.0982 -0.7626
 4369poe    c2317866   0.186   4.614   4.418  0.2578  0.1591 -0.5796
 4369poe     o217867   0.280   4.546   4.497 -0.1625  0.0882 -0.1414
 4369poe    c3117868   0.214   4.442   4.566 -0.3572  0.1546 -0.2270
 4370poe    c3117869   0.532   5.519   3.218  0.3293  0.5944 -0.1719
 4370poe     o217870   0.489   5.653   3.228 -0.2180  0.3911  0.2509
 4370poe    c2317871   0.604   5.734   3.218  0.1289 -0.1313 -0.0457
 4370poe    c2317872   0.570   5.880   3.253 -0.2742 -0.1564 -0.3234
 4370poe     o217873   0.529   5.888   3.388 -0.5351 -0.1076 -0.4051
 4370poe    c2317874   0.422   5.977   3.413 -0.1707  0.2305 -0.0511
 4370poe    c2317875   0.350   5.965   3.549  0.2081 -0.1504  0.1200
 4370poe     o217876   0.260   5.858   3.562 -0.4117  0.3560  0.0404
 4370poe    c2317877   0.161   5.883   3.659 -0.2587  0.3395  0.2013
 4370poe    c2317878   0.208   5.834   3.797  0.1702  0.3199  0.0485
 4370poe     o217879   0.195   5.694   3.802  0.4671  0.2858 -0.0796
 4370poe    c3117880   0.220   5.632   3.926 -0.5739  0.2777  0.1414
 4371poe    c3117881   5.804   3.202   5.793 -0.4139  0.5583  0.5693
 4371poe     o217882   5.739   3.240   5.674  0.2196 -0.3572 -0.0832
 4371poe    c2317883   5.710   3.376   5.698 -0.1268 -0.4767  0.1867
 4371poe    c2317884   5.608   3.436   5.599  0.0889 -0.2934  0.0744
 4371poe     o217885   5.523   3.326   5.575 -0.1750 -0.0455 -0.1359
 4371poe    c2317886   5.431   3.362   5.475  0.2609 -0.0918 -0.5546
 4371poe    c2317887   5.347   3.238   5.439  0.0182 -0.3264  0.7804
 4371poe     o217888   5.423   3.120   5.431  0.4606  0.0153 -0.1819
 4371poe    c2317889   5.354   3.020   5.358 -0.0444 -0.3515  0.7730
 4371poe    c2317890   5.430   2.887   5.348 -0.0180 -0.2881  0.0282
 4371poe     o217891   5.460   2.820   5.469  0.2919 -0.1248  0.0413
 4371poe    c3117892   5.532   2.701   5.445  0.8430  0.2601 -0.2297
 4372poe    c3117893   0.811   3.013   1.241 -0.3101 -0.1138  0.1961
 4372poe     o217894   0.725   3.049   1.135 -0.1337 -0.1202  0.0507
 4372poe    c2317895   0.714   3.188   1.154  0.4122 -0.1277  0.4469
 4372poe    c2317896   0.645   3.255   1.033 -0.0655  0.3937  1.0038
 4372poe     o217897   0.511   3.212   1.038  0.2607 -0.8793 -0.3088
 4372poe    c2317898   0.437   3.283   0.941  0.1604 -0.6593 -0.0736
 4372poe    c2317899   0.288   3.250   0.921 -0.0304 -0.1259  0.4456
 4372poe     o217900   0.231   3.349   0.838 -0.0040  0.5500  1.2193
 4372poe    c2317901   0.092   3.352   0.859 -0.2398  0.3647 -0.2745
 4372poe    c2317902   0.021   3.437   0.752 -0.3306  0.4205 -0.1699
 4372poe     o217903   0.031   3.396   0.617  0.2773  0.1045 -0.0310
 4372poe    c3117904  -0.032   3.489   0.532 -0.4998 -0.2838  0.1182
 4373poe    c3117905   3.616   5.229   0.954  0.7258  0.1972  0.7198
 4373poe     o217906   3.686   5.184   0.841 -0.2112 -0.7947  0.5221
 4373poe    c2317907   3.615   5.176   0.719  0.0087 -0.3451  0.3621
 4373poe    c2317908   3.670   5.063   0.630  0.5768  0.0235  0.2396
 4373poe     o217909   3.794   5.077   0.565  0.5548 -0.2709  0.1325
 4373poe    c2317910   3.830   4.959   0.497  0.2115 -0.3178  0.0326
 4373poe    c2317911   3.983   4.969   0.488  0.1748  0.4314  0.1639
 4373poe     o217912   4.040   4.956   0.617  0.4508 -0.1992 -0.0142
 4373poe    c2317913   4.180   4.964   0.605  0.4614 -0.1045  0.1811
 4373poe    c2317914   4.249   5.061   0.703 -1.0003  0.2314  0.9120
 4373poe     o217915   4.249   5.196   0.663 -0.5382 -0.0152  0.0516
 4373poe    c3117916   4.374   5.248   0.624 -0.6992 -0.1846 -0.7010
 4374poe    c3117917   2.713   1.471   1.209  0.3202 -0.3734 -0.1431
 4374poe     o217918   2.823   1.424   1.134  0.2495 -0.1066 -0.4158
 4374poe    c2317919   2.867   1.297   1.178  0.1357 -0.0218 -0.0563
 4374poe    c2317920   2.787   1.170   1.141 -0.3558  0.3887 -0.4323
 4374poe     o217921   2.774   1.115   1.012  0.4395  0.0505 -0.3778
 4374poe    c2317922   2.895   1.092   0.944  0.7336  0.5811 -0.0427
 4374poe    c2317923   2.861   1.027   0.809  0.0719  0.3872  0.2149
 4374poe     o217924   2.777   1.116   0.738 -0.3475 -0.0222  0.1912
 4374poe    c2317925   2.732   1.058   0.618  0.7199 -0.5142  0.0234
 4374poe    c2317926   2.664   1.159   0.524  0.4915 -0.5797  0.1183
 4374poe     o217927   2.557   1.236   0.574  0.6561 -0.2929  0.0338
 4374poe    c3117928   2.539   1.350   0.494 -0.0207 -0.2520  0.2403
 4375poe    c3117929   6.906   7.563   3.744 -0.1986  0.0387  0.0317
 4375poe     o217930   7.004   7.472   3.790 -0.4197 -0.2367 -0.0399
 4375poe    c2317931   6.956   7.340   3.776 -0.1291 -0.3263 -0.1949
 4375poe    c2317932   7.078   7.252   3.811  0.2707  0.3587  0.1694
 4375poe     o217933   7.143   7.321   3.915  0.9874  0.9281 -0.6471
 4375poe    c2317934   7.255   7.245   3.952  0.5893  0.7309  0.1875
 4375poe    c2317935   7.294   7.315   4.083 -0.3719 -0.1123  0.9306
 4375poe     o217936   7.301   7.453   4.056 -0.3468 -0.2969 -0.0093
 4375poe    c2317937   7.392   7.514   4.144 -0.2630 -0.3065 -0.0898
 4375poe    c2317938   7.483   7.620   4.079 -0.0667 -0.1828  0.3807
 4375poe     o217939   7.414   7.722   4.010  0.3408 -0.0609  0.1511
 4375poe    c3117940   7.529   7.789   3.963  0.0214 -0.1526 -0.7675
 4376poe    c3117941   3.311   5.154   3.833 -0.1650  0.1068  0.1627
 4376poe     o217942   3.242   5.266   3.784 -0.0684 -0.2805 -0.8761
 4376poe    c2317943   3.316   5.354   3.703  0.6294  0.6410  0.7276
 4376poe    c2317944   3.229   5.480   3.683 -0.0784  0.0362 -0.0666
 4376poe     o217945   3.109   5.466   3.611 -0.4387  0.1802  0.4991
 4376poe    c2317946   3.108   5.552   3.500  0.3375 -0.0500  0.3136
 4376poe    c2317947   2.963   5.597   3.477  0.2662 -0.2260  0.4225
 4376poe     o217948   2.897   5.668   3.579  0.2815 -0.1955  0.4109
 4376poe    c2317949   2.947   5.800   3.583  0.0500 -0.0805 -0.3893
 4376poe    c2317950   2.890   5.899   3.687 -0.0347  0.2224 -0.7212
 4376poe     o217951   2.948   6.025   3.665  0.7456  0.0664  0.3553
 4376poe    c3117952   2.932   6.108   3.778 -0.2712 -0.1342  0.3727
 4377poe    c3117953   1.846   6.370   0.207  0.3660  0.0957 -0.1982
 4377poe     o217954   1.962   6.348   0.284  0.2373 -0.1715 -0.0791
 4377poe    c2317955   2.058   6.282   0.204  0.5980  0.1328  0.1016
 4377poe    c2317956   2.192   6.340   0.253  0.6660  0.1170 -0.0622
 4377poe     o217957   2.224   6.316   0.389 -0.0039 -0.3987  0.0092
 4377poe    c2317958   2.326   6.219   0.381  0.5741  0.2133 -0.1629
 4377poe    c2317959   2.380   6.182   0.521  0.1021  0.1957  0.0180
 4377poe     o217960   2.274   6.153   0.609  0.1160  0.1273  0.0121
 4377poe    c2317961   2.331   6.077   0.712 -0.0759 -0.2569 -0.1624
 4377poe    c2317962   2.259   6.035   0.842  0.3177  0.1366  0.1860
 4377poe     o217963   2.212   6.146   0.914 -0.3638  0.0208 -0.0789
 4377poe    c3117964   2.182   6.099   1.044 -0.1915  0.1337  0.0023
 4378poe    c3117965   6.104   6.424   5.938 -0.3741 -0.1162  0.1585
 4378poe     o217966   6.189   6.533   5.963 -0.7815  0.2850 -0.1779
 4378poe    c2317967   6.264   6.535   5.844  0.0477 -0.0260  0.3264
 4378poe    c2317968   6.385   6.626   5.871  0.3837 -0.2245 -0.4839
 4378poe     o217969   6.434   6.596   6.000  0.0257 -0.0656 -0.3111
 4378poe    c2317970   6.560   6.650   6.035  0.0231 -0.5042  0.3915
 4378poe    c2317971   6.583   6.607   6.181 -0.4439 -0.3979  0.5006
 4378poe     o217972   6.482   6.671   6.255 -0.0875  0.2051  0.4710
 4378poe    c2317973   6.489   6.647   6.393  0.1540 -0.2610  0.3801
 4378poe    c2317974   6.399   6.727   6.490 -0.0244  0.1678 -0.1393
 4378poe     o217975   6.267   6.681   6.474  0.3404 -0.9838  0.1020
 4378poe    c3117976   6.186   6.723   6.581  0.2680  0.4091 -0.4820
 4379poe    c3117977   3.264   7.233   0.213  0.1874  0.2266  0.4155
 4379poe     o217978   3.217   7.104   0.249  0.6703 -0.0874 -0.0745
 4379poe    c2317979   3.217   7.081   0.388 -0.4753 -0.1704 -0.0795
 4379poe    c2317980   3.183   6.935   0.421 -0.1108 -0.0500  0.8670
 4379poe     o217981   3.045   6.910   0.440 -0.2082 -0.2862 -0.0699
 4379poe    c2317982   3.010   6.785   0.497  0.0128 -0.0935  0.4982
 4379poe    c2317983   3.001   6.798   0.650  0.2964  0.2291  0.4895
 4379poe     o217984   2.895   6.869   0.710 -0.5968 -0.5105 -0.1988
 4379poe    c2317985   2.907   6.851   0.849 -0.6349  0.0476 -0.1218
 4379poe    c2317986   2.810   6.941   0.928  0.1201  0.2791  0.5571
 4379poe     o217987   2.671   6.923   0.908  0.2247  0.4493 -0.3780
 4379poe    c3117988   2.610   7.011   1.001 -0.3026  0.5491 -0.8141
 4380poe    c3117989   3.346   1.279   4.050  0.2130 -0.3358  0.0866
 4380poe     o217990   3.343   1.318   3.915  0.3566 -0.2613  0.1040
 4380poe    c2317991   3.336   1.208   3.826 -0.5806 -0.2745  0.1830
 4380poe    c2317992   3.365   1.266   3.687 -0.7261  0.3454  0.4063
 4380poe     o217993   3.468   1.347   3.636 -0.1913 -0.4983  0.1342
 4380poe    c2317994   3.437   1.360   3.499 -0.0067  0.7489  0.2040
 4380poe    c2317995   3.557   1.325   3.409 -0.4609 -0.2941 -0.0084
 4380poe     o217996   3.618   1.200   3.431 -0.1553 -0.2585 -0.6412
 4380poe    c2317997   3.690   1.173   3.313 -0.0076  0.0297 -0.6177
 4380poe    c2317998   3.776   1.046   3.329 -0.7051 -0.3063  0.5167
 4380poe     o217999   3.860   1.057   3.442 -0.1664  0.0770  0.0844
 4380poe    c3118000   3.955   0.954   3.432  0.1294  0.3173  0.4140
 4381poe    c3118001   6.174   2.653   5.514  0.7435  0.0248 -0.5820
 4381poe     o218002   6.078   2.719   5.434  0.1080 -0.5049 -0.2651
 4381poe    c2318003   5.984   2.790   5.512 -0.2204 -0.3440 -0.7999
 4381poe    c2318004   5.894   2.857   5.407 -0.2474  0.2463 -0.4028
 4381poe     o218005   5.881   2.784   5.287 -0.5074 -0.2785 -0.0584
 4381poe    c2318006   5.777   2.842   5.210 -0.1197  0.3416 -0.1254
 4381poe    c2318007   5.785   2.791   5.065 -0.6072  0.8284 -0.3260
 4381poe     o218008   5.923   2.776   5.039 -0.6935 -0.5641 -0.0706
 4381poe    c2318009   5.949   2.759   4.901  0.3243 -0.6078  0.1210
 4381poe    c2318010   6.093   2.802   4.870  0.1619 -0.3254 -0.2484
 4381poe     o218011   6.193   2.763   4.962 -0.5517  0.2264  0.7857
 4381poe    c3118012   6.292   2.681   4.903 -0.4979  0.0393  1.1331
 4382poe    c3118013   5.809   5.298   0.689 -0.5081  0.4633 -0.5924
 4382poe     o218014   5.788   5.365   0.567 -0.0863 -0.3615 -1.1273
 4382poe    c2318015   5.721   5.291   0.468  0.5319 -1.4008 -0.7802
 4382poe    c2318016   5.723   5.359   0.330  0.7055  0.3841  0.0793
 4382poe     o218017   5.643   5.475   0.328  0.1180 -0.0219 -0.3906
 4382poe    c2318018   5.649   5.557   0.213  0.3897  0.1097 -0.2825
 4382poe    c2318019   5.531   5.655   0.225  0.0455 -0.2717 -0.5397
 4382poe     o218020   5.412   5.585   0.253 -0.0353  0.0121 -0.1622
 4382poe    c2318021   5.304   5.675   0.260 -0.1214 -0.1309  0.4516
 4382poe    c2318022   5.190   5.609   0.181 -0.1914 -0.2117  0.6202
 4382poe     o218023   5.060   5.628   0.231 -0.1641  0.0225  0.6046
 4382poe    c3118024   4.977   5.555   0.143  0.0622  0.0197  0.3914
 4383poe    c3118025   3.292   0.744   2.494  0.4744 -0.7186  0.1003
 4383poe     o218026   3.424   0.758   2.445  0.3075 -0.1469 -0.1979
 4383poe    c2318027   3.478   0.628   2.440 -0.2842 -0.4087  0.0359
 4383poe    c2318028   3.576   0.608   2.558 -0.0620  0.0561 -0.0662
 4383poe     o218029   3.684   0.698   2.553 -0.0926  0.1151  0.3269
 4383poe    c2318030   3.752   0.707   2.676  0.7163 -0.4103 -0.0760
 4383poe    c2318031   3.888   0.780   2.673  0.5187  0.0136  0.8272
 4383poe     o218032   3.881   0.920   2.656 -0.7866 -0.1284  0.0278
 4383poe    c2318033   3.911   0.997   2.770  0.5727 -0.0997 -0.3287
 4383poe    c2318034   3.942   1.138   2.718 -0.1072  0.1398 -0.0967
 4383poe     o218035   3.845   1.151   2.616 -0.3824 -0.2408  0.1130
 4383poe    c3118036   3.858   1.264   2.532  0.5616 -0.3596  0.0878
 4384poe    c3118037   2.010   3.511   4.375  0.4407 -0.3021  0.7124
 4384poe     o218038   2.131   3.450   4.338  0.3655 -0.2044  0.2981
 4384poe    c2318039   2.133   3.317   4.385 -0.5082 -0.3074  0.0548
 4384poe    c2318040   2.258   3.240   4.338 -0.2096  0.1453  0.0958
 4384poe     o218041   2.302   3.265   4.206  0.0911 -0.8679 -0.0070
 4384poe    c2318042   2.223   3.195   4.112 -0.2271 -0.3998 -0.0904
 4384poe    c2318043   2.294   3.203   3.976 -0.1328 -0.6131 -0.0532
 4384poe     o218044   2.398   3.108   3.982 -0.0233 -0.5420 -0.6986
 4384poe    c2318045   2.498   3.110   3.882  0.4733  0.1683 -0.1940
 4384poe    c2318046   2.613   3.011   3.862  0.1658 -0.1879 -0.2120
 4384poe     o218047   2.692   3.002   3.979 -0.0049 -0.0535 -0.0877
 4384poe    c3118048   2.818   2.944   3.958  0.1296  0.4023 -0.5771
 4385poe    c3118049   5.697   0.154   4.708  0.0561 -0.1390  0.3571
 4385poe     o218050   5.732   0.275   4.771  0.0149  0.0383  0.0442
 4385poe    c2318051   5.864   0.312   4.737  0.2905 -0.4227  0.5782
 4385poe    c2318052   5.894   0.455   4.787 -0.8283  0.1860 -0.4427
 4385poe     o218053   5.881   0.480   4.925  0.5585  0.5198 -0.3596
 4385poe    c2318054   5.835   0.612   4.949 -0.1222  0.1995  0.1160
 4385poe    c2318055   5.881   0.634   5.095  0.7551 -0.2884 -0.0745
 4385poe     o218056   5.815   0.559   5.194 -0.2790 -0.1827 -0.6620
 4385poe    c2318057   5.822   0.624   5.319 -0.1341 -0.5980 -0.4535
 4385poe    c2318058   5.749   0.538   5.424 -0.0648 -0.1235 -0.0109
 4385poe     o218059   5.744   0.405   5.377 -0.0104 -0.1631  0.0948
 4385poe    c3118060   5.676   0.321   5.468 -0.0519 -0.0886  0.1325
 4386poe    c3118061   7.060   0.151   5.674 -0.7588  0.0861  0.0994
 4386poe     o218062   7.081   0.092   5.800 -0.4361  0.3712  0.1838
 4386poe    c2318063   7.207   0.136   5.844 -0.3763  0.0939  0.2931
 4386poe    c2318064   7.283   0.044   5.941 -0.4408  0.2514  0.4941
 4386poe     o218065   7.323  -0.089   5.913  0.3793  0.5542  0.1882
 4386poe    c2318066   7.217  -0.182   5.922  0.4829  0.4527  0.3519
 4386poe    c2318067   7.194  -0.285   6.033  0.2239  0.4846  0.3272
 4386poe     o218068   7.305  -0.372   6.037 -0.1560 -0.0356 -0.2287
 4386poe    c2318069   7.277  -0.480   6.124  0.3145  0.2041  0.2240
 4386poe    c2318070   7.368  -0.602   6.103 -0.9568 -0.8346  0.6407
 4386poe     o218071   7.343  -0.658   5.976 -0.2892 -0.8613  0.5181
 4386poe    c3118072   7.458  -0.724   5.927  0.1085  0.2920 -0.1696
 4387poe    c3118073   4.643   7.247   1.505 -0.7863  0.5078 -0.6264
 4387poe     o218074   4.511   7.214   1.543 -0.2101 -0.6052  0.5008
 4387poe    c2318075   4.430   7.329   1.541 -0.3678 -0.7232 -0.2273
 4387poe    c2318076   4.295   7.286   1.602 -0.2662 -0.3713  0.2560
 4387poe     o218077   4.272   7.168   1.528 -0.1678 -0.1987 -0.0567
 4387poe    c2318078   4.135   7.150   1.502 -0.2064 -0.5231  0.3427
 4387poe    c2318079   4.110   7.041   1.397  0.3977 -0.4374  0.1093
 4387poe     o218080   4.163   7.068   1.269  0.0322 -0.1599  0.0165
 4387poe    c2318081   4.115   6.997   1.157  0.1224 -0.0745 -0.0770
 4387poe    c2318082   4.220   6.989   1.044  0.5472 -0.6093  0.3543
 4387poe     o218083   4.344   6.976   1.111  0.5061  0.5216  0.6790
 4387poe    c3118084   4.446   7.008   1.020  0.1920  0.2841  0.2412
 4388poe    c3118085   2.907   0.709   3.179 -0.0233  0.5891 -0.3239
 4388poe     o218086   2.923   0.847   3.155 -0.0822  0.5720 -0.4648
 4388poe    c2318087   2.958   0.917   3.272  0.0099 -0.2296  0.0003
 4388poe    c2318088   3.038   1.041   3.227  0.1303 -0.1967  0.2973
 4388poe     o218089   2.967   1.106   3.123  0.4224 -0.1914  0.1006
 4388poe    c2318090   3.031   1.225   3.082 -0.4995 -0.0030 -0.8204
 4388poe    c2318091   2.948   1.292   2.971 -0.6990  0.0379 -0.6486
 4388poe     o218092   2.948   1.213   2.854  0.0347 -0.6407 -0.1996
 4388poe    c2318093   2.862   1.266   2.756  0.3849 -0.2384 -0.2886
 4388poe    c2318094   2.912   1.223   2.616  0.0370  0.0387 -0.5001
 4388poe     o218095   2.931   1.083   2.621  0.7258  0.1468  0.0833
 4388poe    c3118096   3.008   1.029   2.516  0.0833 -0.3344 -0.1478
 4389poe    c3118097   7.331   4.582   5.262 -0.4042 -0.7974 -0.4722
 4389poe     o218098   7.198   4.616   5.232 -0.3299 -0.0382  0.0463
 4389poe    c2318099   7.158   4.526   5.132 -0.2999 -0.2144  0.1927
 4389poe    c2318100   7.011   4.533   5.088 -0.3751  0.4708  0.5365
 4389poe     o218101   6.985   4.641   5.001  0.2245  0.6191  0.5356
 4389poe    c2318102   6.853   4.636   4.951  0.4255 -0.1621  0.0705
 4389poe    c2318103   6.816   4.758   4.864  0.4218  0.0820  0.4098
 4389poe     o218104   6.781   4.884   4.916 -0.2566  0.3756 -0.7237
 4389poe    c2318105   6.648   4.897   4.961 -0.0622 -0.1666  0.0358
 4389poe    c2318106   6.632   5.028   5.040 -0.0325 -0.1746  0.0547
 4389poe     o218107   6.723   5.050   5.146 -0.5270 -0.3467  0.5238
 4389poe    c3118108   6.663   5.043   5.273 -0.7285 -0.5465  0.4169
 4390poe    c3118109   5.110   6.727   6.924 -0.3204 -0.2086 -0.2717
 4390poe     o218110   5.114   6.772   6.791  0.0190  0.4670 -0.0374
 4390poe    c2318111   5.057   6.681   6.699  0.3554  0.1521  0.0685
 4390poe    c2318112   5.142   6.687   6.571  0.2392  0.0386 -0.0131
 4390poe     o218113   5.267   6.628   6.598  0.3655  0.3164  0.0111
 4390poe    c2318114   5.285   6.506   6.530  0.5182  0.2537  0.1598
 4390poe    c2318115   5.425   6.449   6.559  0.3192 -0.3396 -0.0238
 4390poe     o218116   5.417   6.363   6.670  0.0397  0.1255  0.3196
 4390poe    c2318117   5.541   6.297   6.681 -0.3128 -0.6060 -0.0462
 4390poe    c2318118   5.568   6.197   6.795 -0.2658 -0.1344  0.3584
 4390poe     o218119   5.586   6.257   6.922 -0.3855  0.4248  0.1157
 4390poe    c3118120   5.574   6.165   7.028 -0.0956  0.6031  0.3038
 4391poe    c3118121   4.131   0.381   0.741 -0.0380  0.1159 -0.7086
 4391poe     o218122   4.021   0.293   0.731  0.3045 -0.3796 -0.1562
 4391poe    c2318123   3.940   0.288   0.846  0.4583  0.8581  0.0183
 4391poe    c2318124   3.901   0.148   0.895 -0.1242  0.8445 -0.4666
 4391poe     o218125   3.813   0.094   0.799  0.5513 -0.3508 -0.4278
 4391poe    c2318126   3.771  -0.035   0.839 -0.4336  0.3153  0.7055
 4391poe    c2318127   3.673  -0.101   0.740  0.0996  0.0549  0.3504
 4391poe     o218128   3.724  -0.148   0.617 -0.3880  0.0668  0.1423
 4391poe    c2318129   3.633  -0.238   0.558 -0.0955 -0.1893  0.0786
 4391poe    c2318130   3.696  -0.334   0.456  0.4876  0.7382 -0.4557
 4391poe     o218131   3.794  -0.402   0.532  0.0490  0.3955 -0.1892
 4391poe    c3118132   3.782  -0.541   0.510  0.2239  0.5292 -1.1939
 4392poe    c3118133   1.164   5.599   7.137  0.4300 -0.3685 -0.4645
 4392poe     o218134   1.191   5.734   7.166 -0.0081 -0.3720 -0.0365
 4392poe    c2318135   1.309   5.774   7.099 -0.5113  0.3351 -0.5107
 4392poe    c2318136   1.337   5.925   7.112 -0.0893  0.2663 -0.6132
 4392poe     o218137   1.343   5.946   7.252  0.1758  0.0637 -0.5942
 4392poe    c2318138   1.390   6.073   7.290 -0.0298  0.0367 -0.2488
 4392poe    c2318139   1.377   6.073   7.444 -0.5691  0.5486 -0.2932
 4392poe     o218140   1.246   6.041   7.486 -0.6548  0.6738 -0.4655
 4392poe    c2318141   1.221   6.113   7.605  0.2934  0.0448  0.1264
 4392poe    c2318142   1.077   6.168   7.605  0.3583  0.2263 -0.5211
 4392poe     o218143   0.969   6.082   7.577  0.1493  0.3080  0.0158
 4392poe    c3118144   0.891   6.061   7.692  0.1700  0.7075  0.1058
 4393poe    c3118145   4.592   7.419   4.028 -0.1115  0.7136  0.5155
 4393poe     o218146   4.455   7.428   3.997 -0.1205  0.1620  0.3948
 4393poe    c2318147   4.379   7.332   4.067 -0.0340 -0.1595  0.0519
 4393poe    c2318148   4.232   7.367   4.095 -0.0447 -0.2436  0.1026
 4393poe     o218149   4.244   7.488   4.166  0.0985 -0.1722 -0.0421
 4393poe    c2318150   4.119   7.530   4.215  0.0706  0.0342 -0.2862
 4393poe    c2318151   4.128   7.636   4.327 -0.7209  0.1716 -0.3442
 4393poe     o218152   4.172   7.752   4.260 -0.5035  0.3853  0.1593
 4393poe    c2318153   4.229   7.847   4.346 -0.2216  0.1930  0.1850
 4393poe    c2318154   4.132   7.963   4.378 -0.2847  0.2850 -0.3333
 4393poe     o218155   4.034   7.927   4.473 -0.0061  0.2206 -0.0659
 4393poe    c3118156   3.939   8.027   4.502  0.3058  0.2736  0.7936
 4394poe    c3118157   1.390   1.054   5.349  0.2012  0.0182 -0.1716
 4394poe     o218158   1.269   0.982   5.364 -0.0202  0.4786  0.2604
 4394poe    c2318159   1.225   0.954   5.233  0.4611  0.0932  0.1760
 4394poe    c2318160   1.158   0.816   5.236  0.2573  0.1783 -0.4155
 4394poe     o218161   1.037   0.802   5.307  0.3212  0.5952 -0.2260
 4394poe    c2318162   1.003   0.666   5.314 -0.3196  0.7653  0.0507
 4394poe    c2318163   0.857   0.646   5.356 -0.4724  0.6224 -0.5369
 4394poe     o218164   0.835   0.677   5.492  0.3687 -0.1248 -0.2209
 4394poe    c2318165   0.701   0.665   5.533  0.1657  0.5624 -0.6720
 4394poe    c2318166   0.599   0.767   5.479 -0.2304  0.3433 -0.3477
 4394poe     o218167   0.625   0.898   5.527  0.2174 -0.1490  0.7814
 4394poe    c3118168   0.500   0.963   5.521  0.4070  0.2533  1.1614
 4395poe    c3118169   0.721   2.927   3.433  0.1179  0.5521  0.1936
 4395poe     o218170   0.647   2.811   3.402  0.2667  0.3131  0.7196
 4395poe    c2318171   0.742   2.709   3.382  0.6581  0.9482 -0.8659
 4395poe    c2318172   0.688   2.570   3.343  0.2611  0.8468  0.0152
 4395poe     o218173   0.609   2.515   3.447 -0.0680  0.2372 -0.5490
 4395poe    c2318174   0.628   2.376   3.433  0.4865  0.2508  0.0568
 4395poe    c2318175   0.554   2.320   3.556  0.3522  0.4034  0.0454
 4395poe     o218176   0.608   2.341   3.684 -0.4742  0.0930  0.4548
 4395poe    c2318177   0.534   2.283   3.789 -0.0993 -1.3348 -0.0366
 4395poe    c2318178   0.427   2.385   3.833  0.2832 -0.5774 -0.8232
 4395poe     o218179   0.324   2.424   3.745  0.0933  0.2535 -0.2522
 4395poe    c3118180   0.233   2.510   3.809  0.4951  0.3943  0.1329
 4396poe    c3118181   6.991   3.280   7.561 -0.2183  0.2134 -0.1640
 4396poe     o218182   6.958   3.399   7.493  0.2124  0.1280 -0.5233
 4396poe    c2318183   6.836   3.391   7.423 -0.1896  0.0001  0.1871
 4396poe    c2318184   6.797   3.518   7.345 -0.7690 -0.3764 -0.1434
 4396poe     o218185   6.769   3.618   7.441 -0.3283 -0.5477  0.1662
 4396poe    c2318186   6.684   3.713   7.381  0.7263  0.2921 -0.0275
 4396poe    c2318187   6.608   3.817   7.465 -0.2098 -0.4094  0.0096
 4396poe     o218188   6.479   3.777   7.507 -0.0420 -0.4490  0.5044
 4396poe    c2318189   6.398   3.884   7.551  0.5447  0.3399 -0.2872
 4396poe    c2318190   6.328   3.955   7.434 -0.5252 -0.1293  0.0513
 4396poe     o218191   6.232   3.873   7.373  0.1926 -0.8267 -0.1527
 4396poe    c3118192   6.165   3.932   7.263  0.0738 -0.2833  0.2093
 4397poe    c3118193   7.161   1.484   0.821  0.7583 -0.4455  0.1659
 4397poe     o218194   7.102   1.358   0.848 -0.2385 -0.0966 -0.3283
 4397poe    c2318195   7.203   1.271   0.896 -0.4010  0.1352  0.4461
 4397poe    c2318196   7.150   1.127   0.880  0.6490 -0.2209  0.1249
 4397poe     o218197   7.134   1.080   0.748 -0.5775 -0.0230  0.1967
 4397poe    c2318198   7.081   0.953   0.717  0.0787 -0.2773  0.1034
 4397poe    c2318199   7.179   0.845   0.765  0.0283 -0.4709 -0.2297
 4397poe     o218200   7.308   0.844   0.709  0.0171 -0.2765 -0.2594
 4397poe    c2318201   7.360   0.723   0.759  0.0290 -0.5908 -1.0087
 4397poe    c2318202   7.513   0.724   0.751  0.0578  0.5374 -0.4569
 4397poe     o218203   7.568   0.834   0.821  0.2148 -0.2691  0.7257
 4397poe    c3118204   7.708   0.830   0.810  0.1524  0.3481 -0.6088
 4398poe    c3118205   7.517   3.349   7.419 -0.1574 -0.0402  0.6673
 4398poe     o218206   7.518   3.463   7.336 -0.1042 -0.6257 -0.1480
 4398poe    c2318207   7.623   3.445   7.243  0.2437  0.5655 -0.0093
 4398poe    c2318208   7.631   3.560   7.142 -0.1980  0.2234 -0.4409
 4398poe     o218209   7.632   3.677   7.221 -0.7638  0.1346 -0.3029
 4398poe    c2318210   7.583   3.799   7.171  0.1430  0.4673 -0.3828
 4398poe    c2318211   7.516   3.890   7.275  0.0679  0.6512 -0.5915
 4398poe     o218212   7.616   3.961   7.343  0.1193 -0.0838  0.1132
 4398poe    c2318213   7.581   4.009   7.471 -0.1053 -0.6936  0.2841
 4398poe    c2318214   7.503   4.142   7.467  0.0424 -0.6302 -0.6937
 4398poe     o218215   7.375   4.112   7.415 -0.3313 -1.0828  0.4699
 4398poe    c3118216   7.297   4.225   7.384  0.6847 -0.3409  0.5789
 4399poe    c3118217   5.026   0.965   2.673  0.2871  0.2522  0.1688
 4399poe     o218218   5.057   0.912   2.799 -0.3058 -0.1988  0.1287
 4399poe    c2318219   5.149   0.805   2.790  0.4803  0.4773  0.0373
 4399poe    c2318220   5.154   0.732   2.926  0.3271  0.2906 -0.0577
 4399poe     o218221   5.027   0.705   2.983  0.5903 -0.0851  0.3532
 4399poe    c2318222   5.025   0.596   3.073  0.1293 -0.0269  0.4133
 4399poe    c2318223   4.912   0.586   3.177 -0.3426 -0.1285 -0.1010
 4399poe     o218224   4.947   0.654   3.295 -0.1268 -0.2965 -0.0664
 4399poe    c2318225   4.850   0.628   3.394 -0.2416  0.7833  0.1242
 4399poe    c2318226   4.909   0.679   3.527  0.2575  0.2581  0.1105
 4399poe     o218227   4.924   0.819   3.532  0.0722  0.2918 -0.2455
 4399poe    c3118228   4.941   0.872   3.661  0.4260  0.1061 -0.2166
 4400poe    c3118229   5.199   4.688   0.834  0.6656 -0.1214 -0.0654
 4400poe     o218230   5.116   4.767   0.751  0.1672 -0.1005  0.4450
 4400poe    c2318231   5.043   4.678   0.669  0.3514  0.1808 -0.0290
 4400poe    c2318232   4.996   4.754   0.544 -0.3759 -0.1966  0.0088
 4400poe     o218233   5.096   4.725   0.449 -0.5281 -0.3958 -0.0928
 4400poe    c2318234   5.074   4.788   0.325  0.1974  0.8978  0.4157
 4400poe    c2318235   5.183   4.800   0.217 -0.1739 -0.0921 -0.0784
 4400poe     o218236   5.229   4.669   0.191  0.0226 -0.0174 -0.1072
 4400poe    c2318237   5.335   4.661   0.099 -0.3908 -0.6403 -0.5353
 4400poe    c2318238   5.413   4.532   0.069  0.5928 -0.2656  0.3645
 4400poe     o218239   5.344   4.438  -0.010 -0.1354 -0.3372  1.0692
 4400poe    c3118240   5.432   4.332  -0.038  0.5464  0.5395 -0.2486
 4401poe    c3118241   2.128   5.557   6.685 -0.0909  0.0329  0.0502
 4401poe     o218242   2.229   5.597   6.774  0.1952  0.0890 -0.2972
 4401poe    c2318243   2.313   5.677   6.694  0.2723  0.5896  0.2775
 4401poe    c2318244   2.425   5.746   6.774  0.3548  0.1059  0.5766
 4401poe     o218245   2.374   5.875   6.798  0.0576  0.1197 -0.1181
 4401poe    c2318246   2.478   5.963   6.836 -0.0593  0.3303 -0.2874
 4401poe    c2318247   2.424   6.098   6.887 -0.1818  0.0880  0.2254
 4401poe     o218248   2.345   6.143   6.780 -0.7303  0.1061  0.6338
 4401poe    c2318249   2.269   6.251   6.829  0.1377  0.5067  1.1174
 4401poe    c2318250   2.129   6.259   6.763  0.5131 -0.1166  0.2249
 4401poe     o218251   2.077   6.129   6.776  0.0025 -0.0074 -0.6841
 4401poe    c3118252   1.971   6.124   6.683 -0.0529 -0.5161 -0.5988
 4402poe    c3118253   5.192   0.990   0.802 -0.3585  0.0763 -0.2036
 4402poe     o218254   5.193   1.047   0.931  0.6002 -0.4905  0.0468
 4402poe    c2318255   5.298   1.139   0.952  0.1770 -0.0875  0.4333
 4402poe    c2318256   5.281   1.225   1.078  0.8530  0.2292  0.3142
 4402poe     o218257   5.292   1.154   1.200  1.3099 -0.1681  0.0452
 4402poe    c2318258   5.247   1.241   1.301  0.5585  0.0277 -0.4467
 4402poe    c2318259   5.276   1.201   1.447 -0.0969 -0.3302 -0.4097
 4402poe     o218260   5.258   1.066   1.480 -0.2786 -0.3453 -0.5691
 4402poe    c2318261   5.331   1.029   1.595  0.0500 -0.5817 -0.8495
 4402poe    c2318262   5.302   0.891   1.657 -0.9724 -0.0565 -0.1198
 4402poe     o218263   5.339   0.774   1.587 -0.2154  0.1846 -0.1257
 4402poe    c3118264   5.352   0.664   1.674  0.1176 -0.0837 -0.5099
 4403poe    c3118265   2.591   3.684   0.600  0.0187 -0.1069  1.0837
 4403poe     o218266   2.531   3.566   0.553  0.2910  0.1538  0.0702
 4403poe    c2318267   2.403   3.564   0.611  0.1573 -0.0396 -0.2240
 4403poe    c2318268   2.342   3.425   0.636  0.1263 -0.1624 -0.9743
 4403poe     o218269   2.413   3.343   0.726 -0.2074  0.3232 -0.2658
 4403poe    c2318270   2.319   3.254   0.783  0.3582 -0.2792 -0.2640
 4403poe    c2318271   2.378   3.212   0.919  0.1662  0.5304  0.0787
 4403poe     o218272   2.506   3.154   0.935 -0.0657 -0.0268 -0.0503
 4403poe    c2318273   2.563   3.160   1.064 -0.0036  0.1432 -0.0849
 4403poe    c2318274   2.659   3.044   1.094 -0.6048 -0.4272 -0.3340
 4403poe     o218275   2.759   3.053   0.995 -0.3031 -0.2054 -0.0127
 4403poe    c3118276   2.835   2.934   0.986  0.6024  0.3935 -0.3259
 4404poe    c3118277   4.699   3.282   6.910 -0.2146  0.3616 -0.7598
 4404poe     o218278   4.584   3.317   6.983  0.0454 -0.3517  0.0106
 4404poe    c2318279   4.462   3.280   6.923 -0.1371  0.6123 -0.2326
 4404poe    c2318280   4.334   3.348   6.978 -0.4978  0.3531 -0.7527
 4404poe     o218281   4.331   3.482   6.936 -0.0031  0.5433 -0.1931
 4404poe    c2318282   4.197   3.526   6.925 -0.2294 -0.0219  0.2413
 4404poe    c2318283   4.122   3.482   6.798 -0.1071  0.4281  0.0086
 4404poe     o218284   4.097   3.344   6.784  0.6159  0.3163 -0.1766
 4404poe    c2318285   4.083   3.304   6.649  0.1072 -0.2413  0.0378
 4404poe    c2318286   4.147   3.164   6.639  0.1454 -0.1930 -0.3795
 4404poe     o218287   4.278   3.159   6.690 -0.0710 -0.4388  0.1557
 4404poe    c3118288   4.343   3.035   6.675 -0.1348 -0.4898  0.2975
 4405poe    c3118289   4.880   4.423   6.470  0.1314 -0.3078  0.3582
 4405poe     o218290   4.807   4.343   6.379  0.1070 -0.1238  0.2158
 4405poe    c2318291   4.674   4.314   6.416  0.0211  0.3763  0.3021
 4405poe    c2318292   4.566   4.411   6.364 -0.3322 -0.1872 -0.0204
 4405poe     o218293   4.526   4.366   6.237 -0.4370  0.3706 -0.1851
 4405poe    c2318294   4.440   4.462   6.180 -0.6894 -0.1416 -0.6848
 4405poe    c2318295   4.398   4.430   6.036 -0.6179  0.3174 -0.8099
 4405poe     o218296   4.512   4.448   5.955  0.1503 -0.1799  0.1400
 4405poe    c2318297   4.512   4.570   5.884  0.0871 -0.3855 -0.2166
 4405poe    c2318298   4.581   4.684   5.961  0.0591 -0.6351  0.1794
 4405poe     o218299   4.490   4.727   6.060 -0.0641  0.1778 -0.2742
 4405poe    c3118300   4.566   4.806   6.149 -0.2843  0.0853 -0.0009
 4406poe    c3118301   0.412   7.344   1.726  0.5594  0.7237 -0.2958
 4406poe     o218302   0.546   7.379   1.755  0.5421  0.4711  0.0987
 4406poe    c2318303   0.607   7.428   1.638  0.2896  0.8792  0.1355
 4406poe    c2318304   0.670   7.307   1.567  0.0708  0.5047  0.5707
 4406poe     o218305   0.729   7.223   1.664  1.3039  0.5538 -0.1202
 4406poe    c2318306   0.816   7.125   1.611  0.8170  0.1309 -0.1388
 4406poe    c2318307   0.887   7.066   1.734 -0.2638  0.3900  0.6286
 4406poe     o218308   0.970   7.159   1.800  0.2874  0.4467 -0.1352
 4406poe    c2318309   1.042   7.098   1.904  0.0237  0.2497 -0.0679
 4406poe    c2318310   1.145   7.187   1.976 -0.2658 -0.1117  0.8110
 4406poe     o218311   1.076   7.286   2.050 -0.4498  0.4554 -0.0986
 4406poe    c3118312   1.150   7.405   2.067  0.3285  0.0072 -0.3017
 4407poe    c3118313   4.204   4.240   4.322  0.2322  0.0915 -0.1094
 4407poe     o218314   4.229   4.184   4.449 -0.7733  0.1507  0.1249
 4407poe    c2318315   4.246   4.044   4.451  0.3428  0.2784  0.2118
 4407poe    c2318316   4.303   3.983   4.580  0.5715  0.1828  0.0650
 4407poe     o218317   4.440   3.985   4.615  0.5239  0.2940  0.2448
 4407poe    c2318318   4.520   3.916   4.521  0.4317  0.6076 -0.0646
 4407poe    c2318319   4.652   3.862   4.580  0.0611  0.0587  0.2706
 4407poe     o218320   4.649   3.753   4.670  0.4214 -0.0692  0.1302
 4407poe    c2318321   4.676   3.630   4.608  0.2921 -0.2740  0.4808
 4407poe    c2318322   4.631   3.506   4.688 -0.1499 -0.3020  0.1928
 4407poe     o218323   4.720   3.483   4.795  0.0580 -0.4596 -0.0130
 4407poe    c3118324   4.842   3.427   4.751  0.1676 -0.3098  0.1028
 4408poe    c3118325   6.063   1.286   3.656  0.4096 -0.5372  0.1359
 4408poe     o218326   6.014   1.221   3.541 -0.0244 -0.2705  0.1675
 4408poe    c2318327   5.919   1.135   3.599  0.1713 -0.7990 -0.2918
 4408poe    c2318328   5.856   1.056   3.483 -0.6983 -0.2152 -0.2201
 4408poe     o218329   5.950   1.002   3.393 -0.5533 -0.0041 -0.1931
 4408poe    c2318330   5.896   0.963   3.269 -0.2651 -0.4186 -0.1886
 4408poe    c2318331   6.019   0.893   3.207  0.1628 -0.1648  0.3651
 4408poe     o218332   6.136   0.971   3.202 -0.0537  0.1180 -0.3214
 4408poe    c2318333   6.239   0.931   3.113  0.1805  0.4566 -0.2018
 4408poe    c2318334   6.307   0.795   3.131 -0.4600  0.2404  0.6430
 4408poe     o218335   6.244   0.669   3.144 -0.1492 -0.0644 -0.7017
 4408poe    c3118336   6.303   0.545   3.110 -0.3936 -0.3144 -0.2205
 4409poe    c3118337   1.377   5.124   7.085 -0.1536  0.2670 -0.2780
 4409poe     o218338   1.386   5.030   7.190 -0.1488  0.3175 -0.2326
 4409poe    c2318339   1.512   5.017   7.251 -0.2233  0.3068 -0.0797
 4409poe    c2318340   1.489   4.905   7.354  0.2377 -0.0972 -0.4048
 4409poe     o218341   1.402   4.943   7.459 -0.1166 -0.5518 -0.5323
 4409poe    c2318342   1.365   4.835   7.542  0.8194 -0.4771 -0.0078
 4409poe    c2318343   1.288   4.879   7.667  0.3372  0.2084 -0.5382
 4409poe     o218344   1.205   4.981   7.616 -0.1300  0.0671 -0.0768
 4409poe    c2318345   1.084   4.999   7.685 -0.1028 -0.0112 -0.0085
 4409poe    c2318346   1.061   5.143   7.736 -0.3111 -0.0818  0.1023
 4409poe     o218347   1.160   5.188   7.826 -0.1108  0.3662 -0.3378
 4409poe    c3118348   1.123   5.319   7.860 -0.0761  0.4717 -0.6977
 4410poe    c3118349   1.531   1.403   2.704  0.1591 -0.2955 -0.3925
 4410poe     o218350   1.657   1.446   2.752  0.3127 -0.5261 -0.5889
 4410poe    c2318351   1.681   1.568   2.687  0.1634 -0.2264 -0.0876
 4410poe    c2318352   1.786   1.658   2.755  0.3166 -0.3888 -0.1101
 4410poe     o218353   1.912   1.595   2.754  0.5315  0.0374  0.0151
 4410poe    c2318354   2.025   1.679   2.751  0.0673  0.6547 -0.3583
 4410poe    c2318355   2.141   1.577   2.749 -0.0824  0.4715  0.0925
 4410poe     o218356   2.192   1.562   2.618  0.1738  0.9702  0.1324
 4410poe    c2318357   2.326   1.519   2.611 -0.0959  0.1693 -0.1803
 4410poe    c2318358   2.392   1.525   2.472 -0.2710 -0.0857 -0.2740
 4410poe     o218359   2.392   1.653   2.415  0.2136  0.1902  0.3343
 4410poe    c3118360   2.276   1.695   2.346  0.1998 -0.1027  0.1783
 4411poe    c3118361   0.498   5.227   7.038  0.0981  0.0254 -0.1615
 4411poe     o218362   0.409   5.253   6.932  0.2395  0.1124 -0.2594
 4411poe    c2318363   0.280   5.291   6.974  0.1677 -0.7005  0.2717
 4411poe    c2318364   0.196   5.353   6.860  0.3202  0.2344  0.6572
 4411poe     o218365   0.264   5.455   6.792 -0.3516 -0.1097 -0.5582
 4411poe    c2318366   0.185   5.553   6.729 -0.3542  0.0577 -0.2982
 4411poe    c2318367   0.264   5.679   6.688 -0.0570 -0.2036 -0.5296
 4411poe     o218368   0.367   5.650   6.597  0.4642  0.1642 -0.0585
 4411poe    c2318369   0.400   5.776   6.543  0.7713  0.0039 -0.2549
 4411poe    c2318370   0.511   5.788   6.437  0.6558  0.1015 -0.3660
 4411poe     o218371   0.484   5.695   6.334 -0.5934  0.0769 -0.0418
 4411poe    c3118372   0.570   5.711   6.223  0.4485  0.5087  0.8135
 4412poe    c3118373   1.353   4.268   5.727  0.0493  0.1643  0.0216
 4412poe     o218374   1.353   4.157   5.641  0.5563 -0.0177  0.2510
 4412poe    c2318375   1.256   4.193   5.546  0.3791  0.1421  0.4914
 4412poe    c2318376   1.262   4.096   5.426  0.1904  0.1151  0.5028
 4412poe     o218377   1.388   4.119   5.366 -0.1912  0.1278 -0.3075
 4412poe    c2318378   1.391   4.058   5.239  0.2397 -0.4063 -0.0423
 4412poe    c2318379   1.486   4.136   5.147 -0.0498  0.6629  0.5515
 4412poe     o218380   1.423   4.259   5.117 -0.2902  0.3955 -0.0691
 4412poe    c2318381   1.514   4.365   5.100 -0.1105  0.2456 -0.0467
 4412poe    c2318382   1.469   4.498   5.036  0.1465  0.2191 -0.2883
 4412poe     o218383   1.453   4.486   4.897 -0.2788 -0.1713 -0.2099
 4412poe    c3118384   1.402   4.604   4.840 -0.2682 -0.2718 -0.4322
 4413poe    c3118385   3.249   1.630   6.568 -0.4941  0.2292 -0.0487
 4413poe     o218386   3.352   1.706   6.626 -0.6437  0.1821  0.2765
 4413poe    c2318387   3.380   1.820   6.547 -0.2586  0.3477  0.6477
 4413poe    c2318388   3.489   1.915   6.600 -0.0246  0.3715  0.1273
 4413poe     o218389   3.438   2.001   6.700 -0.0970  0.5236 -0.0397
 4413poe    c2318390   3.542   2.060   6.775 -0.0681  0.0950  0.2609
 4413poe    c2318391   3.548   2.214   6.775 -0.4647  0.1098  0.4511
 4413poe     o218392   3.444   2.266   6.855 -0.0107  0.7189  0.6533
 4413poe    c2318393   3.466   2.401   6.889  0.0336  0.9146 -0.1270
 4413poe    c2318394   3.387   2.499   6.802 -0.6289  0.1905 -0.3536
 4413poe     o218395   3.249   2.476   6.821 -0.6028  0.0599 -0.3255
 4413poe    c3118396   3.167   2.567   6.751  0.0641  0.7220 -0.2616
 4414poe    c3118397   5.055   6.288   2.509  0.0629 -0.7082  0.7029
 4414poe     o218398   5.194   6.284   2.530  0.1651  0.7927  0.4606
 4414poe    c2318399   5.261   6.349   2.425 -0.2750  0.1643 -0.2179
 4414poe    c2318400   5.408   6.371   2.463 -0.2876  0.0654 -0.1115
 4414poe     o218401   5.503   6.267   2.459 -0.4919 -0.1323  0.1655
 4414poe    c2318402   5.620   6.302   2.531 -0.6168 -0.1611  0.3829
 4414poe    c2318403   5.737   6.203   2.525 -0.4586  0.0712 -0.5205
 4414poe     o218404   5.726   6.075   2.583  0.2997  0.2015 -0.0712
 4414poe    c2318405   5.725   6.069   2.724  0.4960  0.4585 -0.0579
 4414poe    c2318406   5.732   5.918   2.753 -0.4542  0.4519  0.1712
 4414poe     o218407   5.630   5.852   2.682  0.5624 -0.6313 -0.3129
 4414poe    c3118408   5.633   5.715   2.716  0.0259 -0.4008  0.7050
 4415poe    c3118409   4.372   1.829   5.893 -0.1823 -0.6943 -0.1088
 4415poe     o218410   4.399   1.713   5.969 -0.6474 -0.6017  0.2004
 4415poe    c2318411   4.391   1.745   6.106 -0.6198  0.1030  0.0430
 4415poe    c2318412   4.364   1.620   6.192  0.7697 -0.3122 -0.1029
 4415poe     o218413   4.245   1.557   6.152  0.5250  0.0913 -0.0168
 4415poe    c2318414   4.249   1.448   6.242 -0.1566 -0.3063 -0.4614
 4415poe    c2318415   4.105   1.418   6.289 -0.2142  0.1612 -0.3347
 4415poe     o218416   4.017   1.332   6.221  0.2284 -0.1426 -0.5282
 4415poe    c2318417   3.927   1.400   6.136 -0.3034 -0.2260 -0.0389
 4415poe    c2318418   3.812   1.483   6.196 -0.1927  0.0433 -0.1964
 4415poe     o218419   3.706   1.444   6.281 -0.2795 -0.3185 -0.4671
 4415poe    c3118420   3.595   1.529   6.262  0.0823  0.3617  0.3908
 4416poe    c3118421   3.642   4.882   7.261  0.1398  0.1730 -0.3726
 4416poe     o218422   3.581   4.876   7.135 -0.4918  0.0563 -0.0643
 4416poe    c2318423   3.472   4.966   7.138  0.1553  0.8513  0.2212
 4416poe    c2318424   3.424   4.996   6.995  0.0043  0.0285  0.0922
 4416poe     o218425   3.344   4.893   6.940 -0.1627  0.2932 -0.1625
 4416poe    c2318426   3.314   4.900   6.802 -0.1596 -0.0635 -0.1819
 4416poe    c2318427   3.230   4.777   6.762 -0.0700 -0.3880  0.6033
 4416poe     o218428   3.312   4.663   6.759  0.0659 -0.2817  0.1720
 4416poe    c2318429   3.312   4.577   6.647  0.0460  0.4936 -0.4278
 4416poe    c2318430   3.433   4.482   6.653 -0.1015  0.3314 -0.0118
 4416poe     o218431   3.463   4.449   6.787  0.6049  0.1566 -0.2090
 4416poe    c3118432   3.556   4.344   6.792  0.1695 -0.2061  0.4098
 4417poe    c3118433   5.676   5.992   4.215  0.4473 -0.1160  0.0875
 4417poe     o218434   5.709   5.873   4.284  0.7853  0.0527  0.2215
 4417poe    c2318435   5.659   5.764   4.209  0.2795  0.1859  0.3667
 4417poe    c2318436   5.660   5.623   4.269 -0.2276 -0.1632 -0.4270
 4417poe     o218437   5.792   5.607   4.316 -0.1030  0.4452 -0.5716
 4417poe    c2318438   5.818   5.473   4.283 -0.8128  0.0861  0.3032
 4417poe    c2318439   5.938   5.409   4.355 -0.3581  0.1921 -0.3490
 4417poe     o218440   6.054   5.480   4.320  0.0250  0.2636  0.9829
 4417poe    c2318441   6.160   5.467   4.412  0.4774 -0.2465  0.3974
 4417poe    c2318442   6.189   5.589   4.501  0.6168  0.1943 -0.2428
 4417poe     o218443   6.095   5.626   4.600  0.5399 -0.2269 -0.1562
 4417poe    c3118444   6.056   5.523   4.688  0.0091 -0.0172 -0.1436
 4418poe    c3118445   6.285   0.181   4.987  0.0661 -0.6008  0.2559
 4418poe     o218446   6.407   0.118   5.020  0.2030 -0.2172  0.4947
 4418poe    c2318447   6.527   0.179   4.976 -0.2772  0.3304 -0.0889
 4418poe    c2318448   6.641   0.184   5.079 -0.5475  0.4423  0.2080
 4418poe     o218449   6.705   0.058   5.085 -0.4620  0.4267 -0.8725
 4418poe    c2318450   6.839   0.093   5.111 -0.3050 -0.7835  0.0021
 4418poe    c2318451   6.946   0.008   5.039  0.6770  0.0937  0.3894
 4418poe     o218452   6.977  -0.119   5.092  0.1826 -0.2203 -0.0675
 4418poe    c2318453   7.050  -0.186   4.991 -0.2131 -0.7423 -0.0139
 4418poe    c2318454   7.130  -0.315   5.015  0.5585 -0.3005 -0.1742
 4418poe     o218455   7.046  -0.417   5.066  0.2586  0.2995  0.5668
 4418poe    c3118456   7.107  -0.544   5.072  0.1919  0.2465  0.1246
 4419poe    c3118457   6.899   3.964   4.528 -0.6422 -0.1081 -0.2723
 4419poe     o218458   6.835   3.989   4.651  0.1918  0.3037  0.0876
 4419poe    c2318459   6.758   4.107   4.643 -0.1937  0.0312 -0.2227
 4419poe    c2318460   6.701   4.152   4.779 -0.0984  0.5633 -0.3551
 4419poe     o218461   6.772   4.231   4.872 -0.7793  0.2505  0.4513
 4419poe    c2318462   6.714   4.218   4.999 -0.7891 -0.1360  0.4088
 4419poe    c2318463   6.820   4.206   5.110 -0.7298 -0.0474  0.3610
 4419poe     o218464   6.893   4.086   5.118  0.0262  0.3789  0.0306
 4419poe    c2318465   6.962   4.070   5.241  0.4490  0.9035 -0.1360
 4419poe    c2318466   7.017   3.930   5.272  0.1007  0.7485 -0.2109
 4419poe     o218467   6.925   3.851   5.343  0.5800  0.2867 -0.0974
 4419poe    c3118468   6.998   3.742   5.395  0.6126  0.3592  0.0083
 4420poe    c3118469   2.322   6.713   2.772  0.1837 -0.5644 -0.0446
 4420poe     o218470   2.249   6.808   2.699  0.1313 -0.7299 -0.2090
 4420poe    c2318471   2.335   6.885   2.618 -0.7653  0.0271 -0.4599
 4420poe    c2318472   2.254   7.005   2.564 -0.0751  0.6229 -0.1916
 4420poe     o218473   2.170   7.047   2.670  0.3317  0.4394  0.2068
 4420poe    c2318474   2.090   7.150   2.618 -0.5331 -0.5250 -0.4225
 4420poe    c2318475   1.994   7.182   2.734 -0.0073 -0.1870 -0.0748
 4420poe     o218476   1.944   7.062   2.791 -0.2135 -0.3015 -0.4909
 4420poe    c2318477   1.847   7.097   2.887  0.5050  0.7030 -0.1100
 4420poe    c2318478   1.756   6.977   2.920  0.3032  0.7120 -0.6316
 4420poe     o218479   1.840   6.880   2.980 -0.1342  0.7266  0.0011
 4420poe    c3118480   1.763   6.769   3.019  0.4269  0.4077  0.1986
 4421poe    c3118481   2.858   4.058   6.030 -0.3977  0.1099 -0.0873
 4421poe     o218482   2.800   4.135   6.133  0.0638  0.4874 -0.1062
 4421poe    c2318483   2.798   4.069   6.257  0.1295  0.4243 -0.1385
 4421poe    c2318484   2.786   4.145   6.391 -0.7139  0.1119 -0.0340
 4421poe     o218485   2.899   4.226   6.413 -0.1012 -0.7614  0.1073
 4421poe    c2318486   2.893   4.345   6.337  0.0051 -0.2769  0.8543
 4421poe    c2318487   2.974   4.463   6.394  0.1696  0.2327 -0.4117
 4421poe     o218488   2.896   4.557   6.464  0.7170  0.5006 -0.1594
 4421poe    c2318489   2.940   4.578   6.597  0.1955  0.5016  0.0157
 4421poe    c2318490   2.840   4.642   6.695 -0.2826 -0.1781 -0.0202
 4421poe     o218491   2.871   4.578   6.816  0.0036 -0.4370 -0.2300
 4421poe    c3118492   2.833   4.647   6.933  0.7058  0.1138 -0.3187
 4422poe    c3118493   0.599   3.435   6.150  0.2033  0.0976  0.1803
 4422poe     o218494   0.593   3.329   6.057  0.3137  0.1366  0.1285
 4422poe    c2318495   0.694   3.234   6.083  0.2064  0.1643  0.6643
 4422poe    c2318496   0.688   3.120   5.979  0.6229  0.3377  0.4461
 4422poe     o218497   0.679   3.163   5.846 -0.3991 -0.4143  0.2589
 4422poe    c2318498   0.576   3.095   5.777 -0.5093 -0.2943  0.3039
 4422poe    c2318499   0.502   3.189   5.681 -0.3789 -0.5215 -0.0228
 4422poe     o218500   0.439   3.292   5.755 -0.4894 -0.7918  0.2593
 4422poe    c2318501   0.428   3.402   5.668 -0.3126 -0.6726  0.3842
 4422poe    c2318502   0.370   3.522   5.745  0.2077 -0.3328  0.2516
 4422poe     o218503   0.425   3.523   5.875 -0.0676 -0.1340  0.3685
 4422poe    c3118504   0.393   3.645   5.938 -0.5093 -0.5563  0.9725
 4423poe    c3118505   1.402   6.376   1.093 -0.2270 -0.9412  0.0288
 4423poe     o218506   1.380   6.324   0.964 -0.0180 -0.5166 -0.1810
 4423poe    c2318507   1.244   6.288   0.954 -0.2484  0.2289  0.1854
 4423poe    c2318508   1.244   6.192   0.834  0.2842  0.2090  0.1958
 4423poe     o218509   1.343   6.093   0.817  0.1694  0.1593 -0.2062
 4423poe    c2318510   1.314   6.003   0.712  0.2221  0.0971 -0.1675
 4423poe    c2318511   1.418   5.890   0.708 -0.1355 -0.2099 -0.8840
 4423poe     o218512   1.432   5.821   0.830 -0.4137 -0.0261 -0.7463
 4423poe    c2318513   1.514   5.706   0.815  0.1924  0.2366  0.4659
 4423poe    c2318514   1.524   5.630   0.949 -0.3979 -0.2605  0.2332
 4423poe     o218515   1.498   5.715   1.058  0.0273  0.3715 -0.1505
 4423poe    c3118516   1.564   5.685   1.179  0.4412  0.9526 -0.2250
 4424poe    c3118517   3.157   0.116   4.851  0.5234 -0.0717 -0.2862
 4424poe     o218518   3.063   0.129   4.746 -0.0769 -0.6234  0.1707
 4424poe    c2318519   2.953   0.181   4.818  0.4288 -0.4930  0.8721
 4424poe    c2318520   2.822   0.120   4.762  0.4695  0.1023  0.1086
 4424poe     o218521   2.776   0.180   4.644  0.1975  0.3542  0.3415
 4424poe    c2318522   2.636   0.165   4.634  0.3225 -0.4479 -0.3163
 4424poe    c2318523   2.560   0.228   4.517  0.1182 -0.0549  0.0249
 4424poe     o218524   2.631   0.204   4.398 -0.6028  0.1610 -0.4602
 4424poe    c2318525   2.607   0.291   4.290 -0.1794  0.0587 -0.6381
 4424poe    c2318526   2.699   0.274   4.167  0.6234 -0.2327 -0.0035
 4424poe     o218527   2.834   0.308   4.193  0.5485 -0.0535  0.1490
 4424poe    c3118528   2.878   0.430   4.137  0.5592 -0.0552  0.1535
 4425poe    c3118529   4.782   3.597   2.161  0.3046 -0.3425 -0.4125
 4425poe     o218530   4.720   3.663   2.269 -0.0752 -0.1708 -0.7331
 4425poe    c2318531   4.737   3.800   2.242  0.1462  0.1029  0.6818
 4425poe    c2318532   4.724   3.875   2.376  0.1014  0.1674  0.6411
 4425poe     o218533   4.824   3.842   2.469  0.3417  0.3638  0.4547
 4425poe    c2318534   4.808   3.939   2.571 -0.3377  0.1638  0.5380
 4425poe    c2318535   4.895   3.907   2.694 -0.1572  0.3434  0.4567
 4425poe     o218536   4.872   3.783   2.757 -0.2068  0.6106  0.9706
 4425poe    c2318537   4.953   3.746   2.866 -0.0333 -0.4868  0.4800
 4425poe    c2318538   4.932   3.818   3.000  0.4884  0.8126 -0.1210
 4425poe     o218539   4.806   3.790   3.057  0.7108  0.2563  0.1021
 4425poe    c3118540   4.791   3.864   3.176  0.2072  0.3027  0.0109
 4426poe    c3118541   3.529   4.065   4.483  0.3517 -0.2330 -0.4950
 4426poe     o218542   3.625   4.168   4.480 -0.0894  0.1784 -0.3799
 4426poe    c2318543   3.733   4.145   4.393 -0.1689 -0.4557 -0.3129
 4426poe    c2318544   3.803   4.271   4.338  0.5080 -0.8904 -0.4542
 4426poe     o218545   3.705   4.348   4.273  0.4484 -0.0159  0.6475
 4426poe    c2318546   3.769   4.402   4.159  0.5568 -0.0996  0.6680
 4426poe    c2318547   3.854   4.530   4.158  0.1909  0.1466  0.0259
 4426poe     o218548   3.972   4.514   4.234  0.2891 -0.0986 -0.1780
 4426poe    c2318549   4.001   4.628   4.311 -0.1974  0.4104 -0.7387
 4426poe    c2318550   4.124   4.618   4.404 -0.8452 -0.3357  0.0564
 4426poe     o218551   4.111   4.563   4.533 -0.0292 -0.4390  0.0988
 4426poe    c3118552   4.077   4.657   4.632  0.8188  0.2659 -0.2642
 4427poe    c3118553   3.397   3.997   1.191 -0.5720 -0.1169  0.2653
 4427poe     o218554   3.318   4.104   1.241  0.1911  0.4418  0.2900
 4427poe    c2318555   3.256   4.158   1.127  0.1757 -0.0923  0.0408
 4427poe    c2318556   3.215   4.304   1.156 -0.0579  0.0109 -0.7626
 4427poe     o218557   3.113   4.288   1.252  0.5792 -0.1263 -0.0858
 4427poe    c2318558   3.081   4.414   1.307 -0.1870 -0.2457 -0.2429
 4427poe    c2318559   2.957   4.403   1.398  0.0233 -0.4340  0.0208
 4427poe     o218560   2.973   4.284   1.472  0.5241 -0.6987 -0.5042
 4427poe    c2318561   2.876   4.269   1.574  0.2521  0.3566 -0.5938
 4427poe    c2318562   2.941   4.232   1.709 -0.4043  0.5476 -0.2242
 4427poe     o218563   3.035   4.331   1.742 -0.1712  0.4081 -0.4604
 4427poe    c3118564   3.050   4.332   1.882 -0.6856  1.1562 -0.3999
 4428poe    c3118565   7.635   2.690   2.739 -0.3644  0.1560  0.2335
 4428poe     o218566   7.745   2.775   2.720  0.3147 -0.6587  0.4409
 4428poe    c2318567   7.748   2.896   2.793 -0.2909 -0.2243 -0.2305
 4428poe    c2318568   7.886   2.957   2.825 -0.4405  0.0441 -0.0960
 4428poe     o218569   7.951   3.024   2.720  0.1739 -0.0249  0.2353
 4428poe    c2318570   8.080   3.062   2.763  0.3226 -0.2396 -0.0215
 4428poe    c2318571   8.154   3.142   2.653 -0.4252  0.4405 -0.0448
 4428poe     o218572   8.146   3.053   2.544  0.5194 -0.1735  0.3700
 4428poe    c2318573   8.217   3.103   2.432 -0.1974  0.5824  0.2438
 4428poe    c2318574   8.224   2.987   2.331  0.5042  0.7908  0.0446
 4428poe     o218575   8.091   2.939   2.328  0.6903  0.2571  0.1437
 4428poe    c3118576   8.078   2.876   2.203 -0.1648  1.1252 -0.2172
 4429poe    c3118577   3.513   4.505   3.860 -0.2252  0.4335 -1.0930
 4429poe     o218578   3.423   4.456   3.764 -0.3830 -0.6792 -0.3947
 4429poe    c2318579   3.403   4.563   3.674 -0.5124  0.0544  0.4934
 4429poe    c2318580   3.300   4.526   3.566 -0.2964 -0.1689  0.3618
 4429poe     o218581   3.327   4.418   3.480  0.1650 -0.0395  0.3406
 4429poe    c2318582   3.408   4.447   3.369 -0.7679  0.2393 -0.2753
 4429poe    c2318583   3.439   4.321   3.286 -0.1352  0.0746  0.2049
 4429poe     o218584   3.535   4.248   3.358  0.2410  0.2570 -0.1064
 4429poe    c2318585   3.637   4.171   3.298 -0.0596  0.4968 -0.9288
 4429poe    c2318586   3.649   4.028   3.352 -0.5568  0.5601 -0.6461
 4429poe     o218587   3.590   3.918   3.287  0.0884 -0.2317  0.0780
 4429poe    c3118588   3.628   3.788   3.327 -0.0707 -0.5079 -0.6480
 4430poe    c3118589   2.186   2.878   4.399  0.4779 -0.7906 -0.6034
 4430poe     o218590   2.136   2.758   4.453 -0.1614 -0.2518  0.0228
 4430poe    c2318591   2.236   2.658   4.455  0.0651 -0.0201  0.4033
 4430poe    c2318592   2.155   2.542   4.517  0.0648 -0.0651  0.3182
 4430poe     o218593   2.056   2.481   4.438  0.0444  0.5187 -0.1165
 4430poe    c2318594   2.008   2.370   4.510  0.2669  0.5108  0.0184
 4430poe    c2318595   1.872   2.334   4.446  0.3711  0.5522 -0.2266
 4430poe     o218596   1.816   2.456   4.404 -0.5055  0.4647  0.6570
 4430poe    c2318597   1.694   2.428   4.341 -0.0539  0.2650 -0.1383
 4430poe    c2318598   1.633   2.557   4.285 -0.8139  0.1135  0.3230
 4430poe     o218599   1.499   2.544   4.241 -0.7112  0.4273 -0.0935
 4430poe    c3118600   1.460   2.638   4.143 -0.1425  0.5494 -0.2066
 4431poe    c3118601   7.503   4.405   6.474  0.5464  0.2000 -0.1680
 4431poe     o218602   7.488   4.334   6.353  0.1773  0.6498 -0.3912
 4431poe    c2318603   7.617   4.295   6.314  0.1818 -0.4622  0.6470
 4431poe    c2318604   7.629   4.244   6.169 -0.0325  0.0352  0.4473
 4431poe     o218605   7.558   4.126   6.140  0.6878 -0.3460  0.1880
 4431poe    c2318606   7.579   4.079   6.009  0.1538  0.0815 -0.0568
 4431poe    c2318607   7.491   3.954   5.987 -0.2898  0.5590 -1.0393
 4431poe     o218608   7.372   3.960   6.062  0.1350 -0.0937 -0.3058
 4431poe    c2318609   7.307   3.835   6.070 -0.3672  0.1994  0.2661
 4431poe    c2318610   7.171   3.845   6.142 -0.2334 -0.1595  0.5718
 4431poe     o218611   7.192   3.924   6.257  0.0091  0.4140  0.1393
 4431poe    c3118612   7.070   3.978   6.303 -0.4791 -0.0846 -0.5653
 4432poe    c3118613   3.353   7.597   6.402 -0.3026  0.0406  0.3910
 4432poe     o218614   3.413   7.587   6.529  0.2197 -0.0568  0.1446
 4432poe    c2318615   3.534   7.658   6.540  0.2835 -0.0419 -0.6588
 4432poe    c2318616   3.618   7.636   6.667 -0.1505  0.9627 -0.1888
 4432poe     o218617   3.543   7.682   6.777 -0.3422 -0.2697  0.2106
 4432poe    c2318618   3.637   7.732   6.869 -0.2422 -0.0331 -0.0205
 4432poe    c2318619   3.585   7.787   7.004  0.1162  0.1247  0.0546
 4432poe     o218620   3.494   7.696   7.061  0.1540 -0.1783 -0.3645
 4432poe    c2318621   3.447   7.738   7.187  0.3119 -0.4015 -0.2310
 4432poe    c2318622   3.307   7.683   7.220  0.0483  0.5354  0.2591
 4432poe     o218623   3.214   7.708   7.117  0.2841 -0.3679 -0.1851
 4432poe    c3118624   3.092   7.740   7.179  0.1673  0.1129 -0.6599
 4433poe    c3118625   5.226   0.557   5.465 -0.2372 -0.0429  0.4470
 4433poe     o218626   5.282   0.521   5.341  0.3967  0.1999  0.6606
 4433poe    c2318627   5.409   0.583   5.330  0.4274 -0.0133 -0.2519
 4433poe    c2318628   5.408   0.726   5.272 -0.4243  0.2051  0.2837
 4433poe     o218629   5.388   0.717   5.133 -1.0311 -0.3269  0.3988
 4433poe    c2318630   5.401   0.840   5.064 -0.7408 -0.3174  0.4718
 4433poe    c2318631   5.355   0.857   4.918 -0.3265 -0.1376  0.3612
 4433poe     o218632   5.219   0.887   4.902 -0.1138  0.6558 -0.0360
 4433poe    c2318633   5.185   0.888   4.765  0.5218  0.1005 -0.2039
 4433poe    c2318634   5.166   1.031   4.711 -0.5862  0.1776  0.3480
 4433poe     o218635   5.268   1.090   4.633  0.1448 -0.5159  0.7594
 4433poe    c3118636   5.376   1.148   4.701  0.4803 -0.1118 -0.1014
 4434poe    c3118637   2.369   2.670   4.119  0.2086 -0.8276  0.2212
 4434poe     o218638   2.352   2.546   4.055 -0.1279 -0.4300 -0.4610
 4434poe    c2318639   2.360   2.550   3.914 -0.3003 -0.2597 -0.4671
 4434poe    c2318640   2.365   2.419   3.833 -0.0642 -0.3376 -0.3263
 4434poe     o218641   2.473   2.337   3.875 -0.1141 -0.0036  0.4845
 4434poe    c2318642   2.484   2.223   3.792  0.3436 -0.0126  0.5589
 4434poe    c2318643   2.636   2.197   3.788  0.3111 -0.1454  0.1528
 4434poe     o218644   2.705   2.301   3.724 -0.3669  0.1348 -0.1315
 4434poe    c2318645   2.832   2.258   3.680  0.0586  1.4326 -0.2231
 4434poe    c2318646   2.955   2.316   3.753  0.8118 -0.0757 -0.2620
 4434poe     o218647   2.983   2.453   3.740 -0.5982  0.1945 -0.5707
 4434poe    c3118648   3.087   2.490   3.827 -0.2092  0.6073 -1.1988
 4435poe    c3118649   4.895   7.617   2.330 -0.5168 -0.0628  0.1870
 4435poe     o218650   4.938   7.622   2.464 -0.4253  0.2430  0.1470
 4435poe    c2318651   4.956   7.750   2.522  0.4297 -0.0394  0.5282
 4435poe    c2318652   4.996   7.740   2.670  0.4901  0.4000  0.5427
 4435poe     o218653   5.123   7.692   2.708  0.6910 -0.0776 -0.6781
 4435poe    c2318654   5.147   7.764   2.827 -0.5912 -0.0265 -0.4375
 4435poe    c2318655   5.267   7.693   2.893 -0.0034  0.2805 -1.1691
 4435poe     o218656   5.240   7.565   2.944 -0.2318  0.9086  0.3227
 4435poe    c2318657   5.152   7.561   3.054 -0.3277  0.1417  0.2262
 4435poe    c2318658   5.201   7.622   3.187 -0.3159 -0.1880  0.3748
 4435poe     o218659   5.321   7.562   3.232 -0.2262 -0.1068  0.2462
 4435poe    c3118660   5.382   7.618   3.346  0.1053  0.0490 -0.0064
 4436poe    c3118661   0.457   2.525   5.654  0.3394  0.0900  0.1651
 4436poe     o218662   0.326   2.474   5.656  0.2343  0.3364 -0.3043
 4436poe    c2318663   0.335   2.334   5.673 -0.1365  0.3316 -0.1396
 4436poe    c2318664   0.221   2.279   5.760 -0.0165  0.2361 -0.0416
 4436poe     o218665   0.101   2.266   5.686 -0.4292 -0.4676  0.7349
 4436poe    c2318666   0.023   2.152   5.716 -0.2163 -0.8324 -0.0908
 4436poe    c2318667  -0.106   2.148   5.632 -0.3181  0.0021  0.0159
 4436poe     o218668  -0.192   2.254   5.665 -0.0548  0.1089  0.3649
 4436poe    c2318669  -0.326   2.233   5.625  0.0832 -0.1583  0.0477
 4436poe    c2318670  -0.441   2.331   5.652 -0.2168 -0.4235 -0.2682
 4436poe     o218671  -0.440   2.447   5.573 -0.1726 -0.1581  0.1187
 4436poe    c3118672  -0.562   2.517   5.553 -0.1215 -0.0028  0.3470
 4437poe    c3118673   5.778   5.535   1.881 -0.5025 -0.0768 -0.1142
 4437poe     o218674   5.818   5.578   1.753 -0.2577 -0.0834 -0.0402
 4437poe    c2318675   5.688   5.605   1.705 -0.4940 -0.6049  0.3002
 4437poe    c2318676   5.680   5.745   1.642  0.0871 -0.4884  0.4783
 4437poe     o218677   5.726   5.843   1.732  0.3388  0.0615 -0.2366
 4437poe    c2318678   5.708   5.979   1.700  0.3273  0.0183 -0.4167
 4437poe    c2318679   5.792   6.050   1.592  0.2516  0.2964 -0.2930
 4437poe     o218680   5.930   6.050   1.618  0.1182 -0.4378  0.4635
 4437poe    c2318681   5.997   6.084   1.499 -0.0548 -0.0365  0.4772
 4437poe    c2318682   6.141   6.135   1.510 -0.1296  0.1805  0.4532
 4437poe     o218683   6.221   6.044   1.582  0.1988  0.0156 -0.1102
 4437poe    c3118684   6.343   6.109   1.610  0.0316  0.5644 -0.6403
 4438poe    c3118685   1.437   0.641   0.279  0.4602 -0.0190 -0.4055
 4438poe     o218686   1.398   0.613   0.411  0.7176 -0.1055 -0.3476
 4438poe    c2318687   1.423   0.725   0.493 -0.0092  0.0639 -0.3538
 4438poe    c2318688   1.348   0.718   0.628  0.0385 -0.5926 -0.3571
 4438poe     o218689   1.223   0.783   0.634  0.0656 -0.5729  0.0052
 4438poe    c2318690   1.167   0.776   0.763  0.6014  0.1078  0.2839
 4438poe    c2318691   1.032   0.702   0.772  0.4826  0.2824 -0.0479
 4438poe     o218692   1.045   0.565   0.740 -0.4447  0.1250  0.2291
 4438poe    c2318693   0.927   0.490   0.754  0.0381 -0.7866 -0.4688
 4438poe    c2318694   0.932   0.387   0.868  0.1570  0.2181  0.4462
 4438poe     o218695   0.972   0.255   0.838 -0.1649  0.1935  0.1180
 4438poe    c3118696   1.000   0.174   0.951  0.3680  0.1474 -0.0446
 4439poe    c3118697   2.031   2.794   4.786 -0.7103  0.0604 -0.3663
 4439poe     o218698   1.940   2.874   4.714 -0.7014  0.0733 -0.3634
 4439poe    c2318699   1.989   3.003   4.684  0.1236 -0.1316  0.0658
 4439poe    c2318700   1.886   3.082   4.601  0.1283 -0.1821  0.0113
 4439poe     o218701   1.835   3.012   4.489 -0.3392 -0.1428  0.1975
 4439poe    c2318702   1.756   3.097   4.408  0.0211  0.3225  0.3288
 4439poe    c2318703   1.700   3.016   4.290  0.1787  0.0799  0.4201
 4439poe     o218704   1.803   2.971   4.205 -0.1522  0.4722 -0.1972
 4439poe    c2318705   1.765   2.864   4.121 -0.7183  0.6303 -0.1424
 4439poe    c2318706   1.866   2.845   4.007  0.1173 -0.1748  0.7042
 4439poe     o218707   1.997   2.840   4.059  0.1973  0.4413  0.5782
 4439poe    c3118708   2.071   2.847   3.939 -0.9472  0.1420 -0.1684
 4440poe    c3118709   7.325   7.223   7.067  0.4557  0.6320  0.3673
 4440poe     o218710   7.196   7.270   7.097 -0.0360 -0.7644  0.5235
 4440poe    c2318711   7.198   7.368   7.198  0.2292  0.0848 -0.2846
 4440poe    c2318712   7.202   7.517   7.159  0.0653  0.1966  0.1178
 4440poe     o218713   7.076   7.530   7.097 -0.0912 -0.2040  0.3468
 4440poe    c2318714   7.067   7.651   7.025 -0.4800 -0.2232  0.3657
 4440poe    c2318715   6.923   7.697   6.996 -0.2629  0.6000  0.5852
 4440poe     o218716   6.843   7.598   6.936 -0.3398  0.2383  1.2750
 4440poe    c2318717   6.736   7.671   6.880  0.3892  0.1349 -0.3105
 4440poe    c2318718   6.645   7.577   6.798  0.5168 -0.6584  0.4297
 4440poe     o218719   6.683   7.530   6.670 -0.4827  0.2834 -0.2330
 4440poe    c3118720   6.637   7.619   6.571 -0.4197  0.6312  0.0456
 4441poe    c3118721   6.646   2.904   6.835  0.2606 -0.2646 -0.2303
 4441poe     o218722   6.554   3.009   6.848  0.1911 -0.3702  0.1385
 4441poe    c2318723   6.447   2.964   6.929 -0.8327  0.3985 -0.7651
 4441poe    c2318724   6.357   3.065   7.004 -0.1873 -0.0391  0.6245
 4441poe     o218725   6.280   3.142   6.915  0.3667 -0.6096 -0.3676
 4441poe    c2318726   6.183   3.187   7.006  0.5492 -0.4098 -0.2722
 4441poe    c2318727   6.108   3.320   6.985  0.4286 -0.3360  0.5876
 4441poe     o218728   6.203   3.423   6.972 -0.0024  0.0621  0.5516
 4441poe    c2318729   6.225   3.501   7.087  0.2588  0.3290  0.3232
 4441poe    c2318730   6.303   3.632   7.071  0.0389  0.4472  0.2174
 4441poe     o218731   6.428   3.587   7.022 -0.1178 -0.1152  0.3295
 4441poe    c3118732   6.522   3.690   7.043  0.4767 -0.5966  0.0664
 4442poe    c3118733   6.265   6.752   2.918 -0.0334 -0.3252  0.3640
 4442poe     o218734   6.159   6.833   2.965 -0.0479 -0.0983 -0.0629
 4442poe    c2318735   6.033   6.781   2.999  0.2648 -0.5921  0.3427
 4442poe    c2318736   5.970   6.879   3.100  0.1430  0.3578 -0.6453
 4442poe     o218737   5.939   7.001   3.038 -0.1374  0.4014 -0.4206
 4442poe    c2318738   5.811   6.996   2.978 -0.3020 -0.3492 -0.0193
 4442poe    c2318739   5.734   7.130   2.988 -0.4513 -0.4504  0.1819
 4442poe     o218740   5.753   7.183   3.118  0.5873  0.2027 -0.2211
 4442poe    c2318741   5.652   7.278   3.144  0.5286  0.1202 -0.1450
 4442poe    c2318742   5.711   7.379   3.244  0.1488  0.3993 -0.1987
 4442poe     o218743   5.834   7.434   3.202 -0.0112  0.4018 -0.6675
 4442poe    c3118744   5.917   7.483   3.305  0.3074 -1.3321 -0.0751
 4443poe    c3118745   1.051   4.833   6.895 -0.1712  0.0448  0.3937
 4443poe     o218746   0.939   4.821   6.810  0.2787 -0.4624 -0.1395
 4443poe    c2318747   0.821   4.878   6.863  0.4880  0.2952 -0.4803
 4443poe    c2318748   0.723   4.776   6.923  0.5971  0.6389  0.2864
 4443poe     o218749   0.748   4.770   7.062  0.0570  0.2646  0.3693
 4443poe    c2318750   0.646   4.705   7.134  0.1304 -0.2441  0.0236
 4443poe    c2318751   0.644   4.691   7.288 -0.6188 -0.2672  0.0174
 4443poe     o218752   0.626   4.811   7.360  0.3089 -0.1432  0.0468
 4443poe    c2318753   0.649   4.798   7.498 -0.9833 -0.1117  0.2685
 4443poe    c2318754   0.604   4.909   7.594  0.0387  0.1407  0.4642
 4443poe     o218755   0.463   4.914   7.589  0.0569 -0.3676 -0.7547
 4443poe    c3118756   0.413   5.046   7.594 -0.0086 -0.4333  0.5734
 4444poe    c3118757   4.734   0.622   3.918  0.1376 -0.4611 -0.4303
 4444poe     o218758   4.697   0.534   4.023 -0.8630  0.1707 -0.2310
 4444poe    c2318759   4.680   0.599   4.147  0.1823 -0.0125  0.0205
 4444poe    c2318760   4.557   0.686   4.178 -0.1802 -0.3585 -0.4282
 4444poe     o218761   4.445   0.601   4.175 -0.3052 -0.2167  0.1104
 4444poe    c2318762   4.328   0.680   4.174 -0.2622 -0.1497  0.5058
 4444poe    c2318763   4.210   0.587   4.138 -0.5387  0.4101 -0.0379
 4444poe     o218764   4.225   0.502   4.026 -0.2381  0.3610  0.0393
 4444poe    c2318765   4.103   0.434   4.011  0.1951 -0.4415  0.0938
 4444poe    c2318766   4.082   0.395   3.863  0.4970  0.1803 -0.1178
 4444poe     o218767   4.171   0.301   3.806 -0.0026 -0.5701  0.3161
 4444poe    c3118768   4.127   0.271   3.675  0.0816  0.3635  0.0630
 4445poe    c3118769   0.279   5.743   5.840  0.0149  0.3596  0.8832
 4445poe     o218770   0.312   5.633   5.759  0.1476  0.7462  0.4018
 4445poe    c2318771   0.425   5.565   5.809  0.2125  0.4118 -0.1886
 4445poe    c2318772   0.478   5.448   5.724  0.3505 -0.1802  0.6923
 4445poe     o218773   0.378   5.356   5.685  0.6160 -0.0567 -0.3151
 4445poe    c2318774   0.412   5.261   5.587  0.5851 -0.5268  0.1256
 4445poe    c2318775   0.291   5.208   5.507  0.3752 -0.2105  0.2318
 4445poe     o218776   0.195   5.144   5.589  0.2947 -0.2533  0.1043
 4445poe    c2318777   0.084   5.110   5.510 -0.3607  0.4249  0.7247
 4445poe    c2318778  -0.038   5.080   5.600 -0.0161  0.0748  1.0784
 4445poe     o218779  -0.082   5.202   5.656  0.1017  0.4054  0.4643
 4445poe    c3118780  -0.179   5.169   5.752 -0.5952 -0.0212 -0.3784
 4446poe    c3118781   4.826   4.418   4.235 -0.4505 -0.5710  0.4217
 4446poe     o218782   4.950   4.357   4.203 -0.3524  0.0479 -0.4138
 4446poe    c2318783   4.924   4.230   4.148 -0.1685 -0.3365  0.3612
 4446poe    c2318784   5.040   4.153   4.083 -0.4055 -0.4958  0.1209
 4446poe     o218785   5.158   4.137   4.160 -0.2497 -0.1180 -0.0392
 4446poe    c2318786   5.238   4.247   4.199 -0.3097 -0.1131  0.0709
 4446poe    c2318787   5.375   4.197   4.247 -0.2327 -0.3099 -0.3409
 4446poe     o218788   5.361   4.151   4.380  0.1176  0.4440 -0.0318
 4446poe    c2318789   5.349   4.010   4.384  1.2354  0.3273 -0.2927
 4446poe    c2318790   5.309   3.959   4.524  0.2187  0.2259 -0.6096
 4446poe     o218791   5.399   3.965   4.632 -0.1443  0.4540 -0.3165
 4446poe    c3118792   5.324   3.961   4.751  0.2871  0.7870 -0.0293
 4447poe    c3118793   0.217   3.785   0.753  0.3867  0.0009 -0.3101
 4447poe     o218794   0.338   3.727   0.711  0.6168  0.1856  0.0941
 4447poe    c2318795   0.429   3.696   0.814  0.1831  0.6092  0.6087
 4447poe    c2318796   0.563   3.648   0.756 -0.4146  0.1428 -0.4227
 4447poe     o218797   0.555   3.516   0.707 -0.3084 -0.0574  0.0839
 4447poe    c2318798   0.672   3.440   0.723 -0.5390 -0.4261  0.0346
 4447poe    c2318799   0.681   3.331   0.614 -0.5962 -0.2180 -0.1792
 4447poe     o218800   0.631   3.204   0.648 -0.2781 -0.1170  0.6955
 4447poe    c2318801   0.692   3.103   0.571  0.3603  0.2442  0.7155
 4447poe    c2318802   0.837   3.063   0.601  0.4401 -0.1233 -0.1098
 4447poe     o218803   0.843   2.978   0.714  0.3111  0.5157  0.3872
 4447poe    c3118804   0.831   3.029   0.845  0.0685  0.2014  0.4883
 4448poe    c3118805   4.719   2.520   0.355 -0.1257  0.3664  0.0880
 4448poe     o218806   4.765   2.500   0.223 -0.2451 -0.2847  0.1378
 4448poe    c2318807   4.685   2.424   0.135  0.1088  0.1160 -0.5398
 4448poe    c2318808   4.724   2.429  -0.014 -0.3455  0.3625 -0.6540
 4448poe     o218809   4.701   2.556  -0.070 -0.0546  0.6458 -0.1379
 4448poe    c2318810   4.728   2.555  -0.208 -0.1382  0.0967 -0.1517
 4448poe    c2318811   4.880   2.559  -0.233 -0.1193  0.3971  0.0037
 4448poe     o218812   4.928   2.689  -0.209 -0.0502  0.3725 -0.0013
 4448poe    c2318813   5.065   2.675  -0.242 -0.0192  0.1275  0.2277
 4448poe    c2318814   5.134   2.805  -0.194  0.4857 -0.1093  0.1408
 4448poe     o218815   5.096   2.827  -0.060  0.6299 -0.2930  0.2126
 4448poe    c3118816   5.120   2.958  -0.016  0.0739 -0.2738  0.4689
 4449poe    c3118817   7.110   0.589   4.642 -0.6307  0.1078  0.4204
 4449poe     o218818   7.217   0.581   4.734 -0.0543 -0.8570 -0.3118
 4449poe    c2318819   7.338   0.554   4.667  0.0612 -0.4258 -0.2815
 4449poe    c2318820   7.434   0.526   4.784  0.1641  0.4816 -0.1457
 4449poe     o218821   7.363   0.467   4.891  0.2758 -0.0777 -0.3794
 4449poe    c2318822   7.438   0.477   5.010  0.1074 -0.0208 -0.2781
 4449poe    c2318823   7.368   0.392   5.118  0.0589  0.2463 -0.0996
 4449poe     o218824   7.239   0.439   5.151  0.2213  0.4399  0.2690
 4449poe    c2318825   7.189   0.367   5.262  0.3519  0.4211  0.3165
 4449poe    c2318826   7.048   0.419   5.298  0.2026 -0.1851  0.6094
 4449poe     o218827   6.956   0.394   5.194  0.2912 -0.4044  0.5819
 4449poe    c3118828   6.848   0.484   5.191  0.8622  0.2683 -0.1169
 4450poe    c3118829   1.451   2.649   6.162 -0.2203 -0.0451  0.0155
 4450poe     o218830   1.563   2.657   6.076 -0.0514 -0.1738  0.2247
 4450poe    c2318831   1.562   2.778   6.005 -0.6558 -0.3630 -0.0982
 4450poe    c2318832   1.677   2.761   5.903 -0.3972 -0.4635  0.2100
 4450poe     o218833   1.643   2.673   5.798  0.0978 -0.3745 -0.0270
 4450poe    c2318834   1.721   2.692   5.682 -0.3066 -0.0049 -0.2404
 4450poe    c2318835   1.681   2.596   5.569 -0.1627 -0.4363  0.0711
 4450poe     o218836   1.727   2.463   5.581 -0.5695 -0.5744  0.1142
 4450poe    c2318837   1.717   2.375   5.471  0.1681 -0.1634 -0.2903
 4450poe    c2318838   1.819   2.260   5.479 -0.0970 -0.4166 -0.4966
 4450poe     o218839   1.822   2.178   5.593 -0.8251  0.2272  0.0005
 4450poe    c3118840   1.897   2.058   5.586 -0.4769  0.4055  0.6407
 4451poe    c3118841   3.000   3.273   7.194  0.0165  0.5732 -0.4322
 4451poe     o218842   3.020   3.150   7.127  0.6949  0.4102  0.0631
 4451poe    c2318843   2.960   3.159   7.000  0.5224  0.1593  0.1248
 4451poe    c2318844   2.960   3.019   6.936  0.2588 -0.0619  0.6033
 4451poe     o218845   2.854   2.935   6.976  0.0849 -0.1451 -0.0180
 4451poe    c2318846   2.869   2.813   6.907  0.1097 -0.1120 -0.0703
 4451poe    c2318847   2.732   2.744   6.894 -0.1159  0.2465  0.4012
 4451poe     o218848   2.732   2.627   6.816 -0.2712  0.0400  0.7095
 4451poe    c2318849   2.604   2.569   6.808 -0.2761  0.0738  0.5441
 4451poe    c2318850   2.601   2.418   6.841 -1.0018 -0.1273 -0.4029
 4451poe     o218851   2.618   2.400   6.979  0.7748  0.4396 -0.5325
 4451poe    c3118852   2.581   2.268   7.011  1.0108  0.2211 -1.1374
 4452poe    c3118853   1.068   2.511   2.047  0.4061  0.0686 -0.2112
 4452poe     o218854   1.042   2.649   2.036 -0.3910 -0.0567  0.0787
 4452poe    c2318855   0.937   2.687   1.949 -0.5356 -0.3088  0.1413
 4452poe    c2318856   0.960   2.672   1.798 -0.3810 -0.1433  0.1477
 4452poe     o218857   1.052   2.754   1.729 -0.2676 -0.5169 -0.1471
 4452poe    c2318858   1.025   2.892   1.728 -0.1487 -0.4897  0.4523
 4452poe    c2318859   1.143   2.969   1.789 -0.3913 -0.1683  0.5174
 4452poe     o218860   1.262   2.970   1.713 -0.6595  0.2102  0.1009
 4452poe    c2318861   1.257   3.064   1.608 -0.0382  0.4792  0.3083
 4452poe    c2318862   1.292   3.210   1.643  0.3900  0.4411  0.0427
 4452poe     o218863   1.414   3.233   1.711  0.2740  0.5619  0.2090
 4452poe    c3118864   1.517   3.274   1.624  0.3787 -0.0224  0.0533
 4453poe    c3118865   1.379   1.165   0.860  0.0083  0.0658 -0.2901
 4453poe     o218866   1.369   1.206   0.726 -0.4028  0.2539 -0.2042
 4453poe    c2318867   1.279   1.314   0.730  0.3160  0.8420  0.7064
 4453poe    c2318868   1.310   1.404   0.609 -0.6340 -0.2979 -0.4097
 4453poe     o218869   1.285   1.355   0.479 -0.2062 -0.3805 -0.4630
 4453poe    c2318870   1.193   1.433   0.405 -0.5334  0.0053  0.3391
 4453poe    c2318871   1.128   1.370   0.280 -0.7052 -0.1928  0.5286
 4453poe     o218872   1.074   1.246   0.320 -0.7989 -0.1311  0.5945
 4453poe    c2318873   1.011   1.183   0.211  0.5627 -0.0509 -0.2564
 4453poe    c2318874   0.904   1.087   0.266  0.7093 -0.0476  0.0356
 4453poe     o218875   0.928   0.975   0.348  0.0313 -0.2700 -0.0591
 4453poe    c3118876   0.812   0.935   0.418  0.1714  0.3447  0.5382
 4454poe    c3118877   2.710   4.323   5.310  0.3098  0.2515  0.1763
 4454poe     o218878   2.817   4.236   5.342  0.4787  0.3023 -0.2374
 4454poe    c2318879   2.780   4.103   5.318  0.0257  0.3566  0.1285
 4454poe    c2318880   2.774   4.048   5.174 -0.3246 -0.1285  0.3248
 4454poe     o218881   2.652   4.086   5.115 -0.0848 -0.4224 -0.3672
 4454poe    c2318882   2.658   4.111   4.976  0.0444 -0.0535 -0.2956
 4454poe    c2318883   2.535   4.180   4.915 -0.0522  0.4250  0.4294
 4454poe     o218884   2.420   4.104   4.887  0.3896 -0.0942  0.0115
 4454poe    c2318885   2.312   4.114   4.976  0.3354  0.1142 -0.0778
 4454poe    c2318886   2.202   4.013   4.937  0.2453 -0.0951  0.6944
 4454poe     o218887   2.241   3.878   4.947 -0.3827 -0.3077  0.3433
 4454poe    c3118888   2.227   3.828   5.079 -0.3189 -0.6473  0.2238
 4455poe    c3118889   5.897   1.683   3.425  0.8398  0.2555  0.2846
 4455poe     o218890   5.944   1.624   3.306 -0.2885  0.2212 -0.1559
 4455poe    c2318891   5.931   1.484   3.319  0.4860  0.1377 -0.1947
 4455poe    c2318892   5.966   1.400   3.195 -0.4690 -0.3497 -0.1444
 4455poe     o218893   6.104   1.389   3.171 -0.3828 -0.5858  0.4606
 4455poe    c2318894   6.112   1.327   3.045 -0.0889  0.1982  0.0876
 4455poe    c2318895   6.255   1.344   2.989 -0.2366 -0.4968 -0.5290
 4455poe     o218896   6.333   1.295   3.096  0.0069  0.3978 -0.2895
 4455poe    c2318897   6.450   1.231   3.049 -0.2022  0.0967 -0.4035
 4455poe    c2318898   6.550   1.258   3.163 -0.0821 -0.5076 -0.3623
 4455poe     o218899   6.481   1.240   3.285 -0.0481  0.2516 -0.2220
 4455poe    c3118900   6.566   1.237   3.397 -0.2892  0.7034 -0.0286
 4456poe    c3118901   7.586   0.673   5.376 -0.8185  0.2894  0.0224
 4456poe     o218902   7.603   0.708   5.511  0.3200 -0.4463  0.0898
 4456poe    c2318903   7.481   0.699   5.582  0.5304 -0.1578  0.4957
 4456poe    c2318904   7.492   0.787   5.708  0.1287 -0.0977  0.4917
 4456poe     o218905   7.506   0.927   5.701 -0.2327 -0.0706  0.2754
 4456poe    c2318906   7.564   0.997   5.808  0.3295  0.3606 -0.2986
 4456poe    c2318907   7.552   1.146   5.770 -0.5771  0.4781  0.4032
 4456poe     o218908   7.419   1.176   5.734 -0.5497 -0.2340 -0.3254
 4456poe    c2318909   7.400   1.298   5.665  0.1280  0.4455  0.6679
 4456poe    c2318910   7.266   1.304   5.590  0.6968  0.7062 -0.3365
 4456poe     o218911   7.255   1.232   5.470  0.0549  0.1799  0.0385
 4456poe    c3118912   7.120   1.231   5.427  0.1935 -0.2696 -0.4044
 4457poe    c3118913   3.730   6.411   4.730  0.5770  0.0040  0.1350
 4457poe     o218914   3.869   6.433   4.743  0.5226  0.6862 -0.3718
 4457poe    c2318915   3.944   6.411   4.626  0.2539  0.1110 -0.4372
 4457poe    c2318916   3.969   6.548   4.560 -1.1030  0.4789 -0.2183
 4457poe     o218917   4.040   6.626   4.653 -0.5180 -0.0652 -0.2037
 4457poe    c2318918   4.067   6.757   4.611  0.3541  0.0648  0.7147
 4457poe    c2318919   4.179   6.819   4.696  0.0883  0.6481  0.6501
 4457poe     o218920   4.297   6.742   4.702 -0.5600 -0.3455  0.9669
 4457poe    c2318921   4.373   6.789   4.811 -0.0373  0.6334  0.1986
 4457poe    c2318922   4.488   6.687   4.824 -0.2182  0.3038 -0.7224
 4457poe     o218923   4.417   6.566   4.836  0.0446  0.2570  0.4069
 4457poe    c3118924   4.483   6.489   4.935  0.9083  0.1270 -0.2583
 4458poe    c3118925   6.919   0.090   7.425 -0.1911  0.0094 -0.5008
 4458poe     o218926   6.785   0.089   7.468 -0.0972  0.5049 -0.2023
 4458poe    c2318927   6.800   0.070   7.607  0.1637  0.3556 -0.2523
 4458poe    c2318928   6.664   0.084   7.677  0.5109  0.1569  0.4800
 4458poe     o218929   6.587  -0.034   7.687  0.1832  0.2932 -0.2926
 4458poe    c2318930   6.466   0.002   7.749  0.1195 -0.3249 -0.0463
 4458poe    c2318931   6.352  -0.098   7.776 -0.4354  0.4149  0.3901
 4458poe     o218932   6.276  -0.111   7.658  0.6616 -0.3970 -0.2457
 4458poe    c2318933   6.178  -0.212   7.664 -0.2788  0.4989 -0.1868
 4458poe    c2318934   6.140  -0.261   7.523 -0.1810  0.2194 -0.1162
 4458poe     o218935   6.247  -0.322   7.454 -0.2296 -0.0885  0.0774
 4458poe    c3118936   6.223  -0.460   7.444 -0.3404 -0.0324 -0.4331
 4459poe    c3118937   0.297   6.345   4.745  0.0314  0.2163  0.0724
 4459poe     o218938   0.413   6.285   4.798 -0.0291  0.1666  0.1486
 4459poe    c2318939   0.389   6.179   4.888  0.0630 -0.3851 -0.4733
 4459poe    c2318940   0.520   6.105   4.925  0.4222  0.2381 -0.4828
 4459poe     o218941   0.618   6.189   4.981  0.0307  0.2646  0.1811
 4459poe    c2318942   0.745   6.129   4.991 -0.2554 -0.3324  0.2490
 4459poe    c2318943   0.825   6.189   5.109 -0.0549 -0.2970  0.0949
 4459poe     o218944   0.912   6.086   5.151 -0.1287 -0.3377  0.1473
 4459poe    c2318945   0.949   6.110   5.285 -0.7188  0.5388  0.1617
 4459poe    c2318946   1.048   6.222   5.323 -0.5950  0.2336  0.7475
 4459poe     o218947   1.029   6.291   5.445 -0.2603 -0.0641  0.9696
 4459poe    c3118948   1.108   6.407   5.436 -0.6758  0.1204 -0.7246
 4460poe    c3118949   4.106   2.229   1.477  0.2710 -0.0213  1.0539
 4460poe     o218950   4.134   2.366   1.492 -0.1090  0.1509  0.2390
 4460poe    c2318951   4.168   2.423   1.367 -0.1221 -0.1885  0.0808
 4460poe    c2318952   4.136   2.572   1.347  0.6389 -0.0938 -0.4699
 4460poe     o218953   4.168   2.678   1.435  0.0123 -0.2993  0.0181
 4460poe    c2318954   4.211   2.788   1.357 -0.2927 -0.2625 -0.0994
 4460poe    c2318955   4.215   2.900   1.463  0.0453  0.1829 -0.5780
 4460poe     o218956   4.336   2.955   1.509 -0.2425  0.2867  0.0656
 4460poe    c2318957   4.396   3.051   1.425  0.7379 -0.3792 -0.0100
 4460poe    c2318958   4.400   3.191   1.490 -0.1904 -0.4344  0.1758
 4460poe     o218959   4.290   3.269   1.446 -0.3837 -0.7713  0.0549
 4460poe    c3118960   4.270   3.376   1.535 -0.1849 -0.3838 -0.3611
 4461poe    c3118961   2.068   5.987   4.032  0.7562  0.1151 -0.2346
 4461poe     o218962   2.194   6.048   4.041  0.5200  0.5918 -0.1295
 4461poe    c2318963   2.172   6.186   4.062  0.2827  0.4608  0.5148
 4461poe    c2318964   2.184   6.243   3.919  0.5575 -0.7712  0.0332
 4461poe     o218965   2.066   6.216   3.847  0.4159 -0.3040  0.0860
 4461poe    c2318966   1.939   6.269   3.876  0.7183  0.2437  0.4284
 4461poe    c2318967   1.920   6.409   3.815  0.0534  0.0319  0.1393
 4461poe     o218968   1.966   6.406   3.682  0.8028  0.5987  0.3779
 4461poe    c2318969   1.934   6.532   3.626 -0.1897  0.2903  0.2393
 4461poe    c2318970   1.976   6.553   3.480  0.6476 -0.8747  0.2978
 4461poe     o218971   1.890   6.498   3.383  0.2448 -0.0338  0.1728
 4461poe    c3118972   1.924   6.556   3.259  0.1814 -0.1322  0.1099
 4462poe    c3118973   6.314   2.802   2.883 -0.4159 -0.6873  0.6155
 4462poe     o218974   6.273   2.778   2.750  0.3940 -0.3275  0.2931
 4462poe    c2318975   6.335   2.670   2.685 -0.6493 -0.5440 -0.3805
 4462poe    c2318976   6.300   2.642   2.538 -0.2376 -0.5722 -0.4765
 4462poe     o218977   6.163   2.669   2.517 -0.2350 -0.3515 -0.2261
 4462poe    c2318978   6.115   2.619   2.394  0.4203  0.3312 -0.7640
 4462poe    c2318979   5.989   2.688   2.339 -0.4405 -0.0879  0.6483
 4462poe     o218980   5.859   2.656   2.384 -0.4647 -0.3567  0.3887
 4462poe    c2318981   5.814   2.703   2.509 -0.3543  0.2242  0.2118
 4462poe    c2318982   5.800   2.855   2.529 -0.1528  0.2290  0.3129
 4462poe     o218983   5.678   2.900   2.474 -0.1386 -0.1114  0.0047
 4462poe    c3118984   5.677   3.041   2.472  0.3414 -0.0918  0.7196
 4463poe    c3118985   0.127   3.534   5.412  0.0089  0.1164  0.5679
 4463poe     o218986   0.055   3.420   5.453 -0.0369 -0.0745 -0.0351
 4463poe    c2318987   0.011   3.461   5.580 -0.0266  0.3638 -0.1722
 4463poe    c2318988  -0.047   3.341   5.657  0.4627  0.0195 -0.3389
 4463poe     o218989   0.037   3.228   5.673  0.3835 -0.0900 -0.6878
 4463poe    c2318990  -0.028   3.145   5.767  0.6096  0.2043 -0.2700
 4463poe    c2318991   0.079   3.040   5.804  0.0419 -0.1564  0.3545
 4463poe     o218992   0.111   2.961   5.692 -0.1820  0.1877  0.0431
 4463poe    c2318993   0.216   2.868   5.710 -0.1402  0.2245 -0.0106
 4463poe    c2318994   0.199   2.783   5.583  0.6331  0.0661 -0.0128
 4463poe     o218995   0.167   2.871   5.478  0.2321 -0.2789 -0.1809
 4463poe    c3118996   0.121   2.808   5.360 -0.2108  0.6416 -0.5087
 4464poe    c3118997   6.511   5.501   3.798 -0.0827 -0.2615 -0.2817
 4464poe     o218998   6.631   5.427   3.809  0.0605  0.0345  0.1830
 4464poe    c2318999   6.654   5.387   3.942 -0.9963 -0.0958  0.3366
 4464poe    c2319000   6.712   5.245   3.954 -0.3307  0.1132 -0.3389
 4464poe     o219001   6.615   5.151   3.914 -0.4685  0.1040  0.0174
 4464poe    c2319002   6.548   5.073   4.011 -0.0799 -0.3278 -0.0582
 4464poe    c2319003   6.455   4.964   3.954  0.4778 -0.6081 -0.4400
 4464poe     o219004   6.348   5.019   3.881  0.4026  0.0927  0.1801
 4464poe    c2319005   6.262   4.914   3.844 -0.1941  0.5906  0.1387
 4464poe    c2319006   6.206   4.947   3.704 -0.5217  0.5131  0.2501
 4464poe     o219007   6.115   5.055   3.707 -0.4217  0.5986  0.1892
 4464poe    c3119008   6.039   5.058   3.588  0.1419 -0.2337 -0.2025
 4465poe    c3119009   5.831   4.459   4.057 -0.0169 -0.2472  0.1693
 4465poe     o219010   5.929   4.398   3.976  0.0964  0.5582 -0.3103
 4465poe    c2319011   5.954   4.268   4.024  0.0803  0.4160 -0.6873
 4465poe    c2319012   6.068   4.219   3.933 -0.0090 -0.3605 -0.3909
 4465poe     o219013   6.026   4.204   3.799 -0.4273  0.1811 -0.3212
 4465poe    c2319014   6.116   4.143   3.710  0.1262  0.0266  0.3371
 4465poe    c2319015   6.062   4.171   3.569  0.0858 -0.2108  0.3039
 4465poe     o219016   5.986   4.290   3.568 -0.0025 -0.2667 -0.2965
 4465poe    c2319017   5.954   4.353   3.446  0.2246  0.6136  0.0842
 4465poe    c2319018   5.846   4.284   3.360  0.5006 -0.3665  0.5030
 4465poe     o219019   5.849   4.312   3.222 -0.2730 -0.5680  0.4415
 4465poe    c3119020   5.733   4.296   3.143 -0.0114  0.7028 -0.2371
 4466poe    c3119021   4.058   2.688   0.785  0.2123  0.7209 -0.1344
 4466poe     o219022   3.984   2.631   0.679  0.4693  0.3459 -0.1137
 4466poe    c2319023   3.849   2.611   0.713  0.3718  0.4461 -0.4400
 4466poe    c2319024   3.746   2.583   0.602  0.1220 -0.1804 -0.0543
 4466poe     o219025   3.713   2.693   0.520 -0.4060 -0.2635  0.0401
 4466poe    c2319026   3.596   2.658   0.450 -0.3962  0.2095 -0.2144
 4466poe    c2319027   3.514   2.767   0.377 -0.4605  0.6200  0.4607
 4466poe     o219028   3.568   2.865   0.291 -0.1061  0.2144  0.2170
 4466poe    c2319029   3.456   2.925   0.230  0.0244  0.3297  0.0893
 4466poe    c2319030   3.517   3.009   0.117 -0.0754  0.2471 -0.0277
 4466poe     o219031   3.421   3.056   0.026 -0.2291 -0.4680 -0.2390
 4466poe    c3119032   3.348   3.168   0.071  0.0584  0.0217 -0.9694
 4467poe    c3119033   0.486   6.710   1.675 -0.8335 -0.1499  0.1835
 4467poe     o219034   0.523   6.577   1.645 -0.1263  0.0840  0.0077
 4467poe    c2319035   0.657   6.572   1.687 -0.4008  0.0004  0.9004
 4467poe    c2319036   0.718   6.444   1.627 -0.7240  0.0595  0.4389
 4467poe     o219037   0.671   6.315   1.660  0.2032 -0.2832  0.4650
 4467poe    c2319038   0.631   6.244   1.545 -0.2026  0.0887  0.3720
 4467poe    c2319039   0.541   6.121   1.565  0.1947 -0.2002  0.3759
 4467poe     o219040   0.414   6.152   1.618  0.3673 -0.4909  0.9633
 4467poe    c2319041   0.325   6.042   1.616  0.1248 -0.2934  0.9523
 4467poe    c2319042   0.177   6.082   1.634  0.0466 -0.1173 -0.0405
 4467poe     o219043   0.153   6.169   1.742  0.0350 -0.6268  0.3695
 4467poe    c3119044   0.015   6.199   1.740  0.2920  0.5697 -0.6568
 4468poe    c3119045   3.412   6.941   5.966 -0.3938  0.3463  0.4881
 4468poe     o219046   3.309   6.864   5.908  0.3674 -0.4270  0.1308
 4468poe    c2319047   3.213   6.837   6.008  0.1294 -0.1735 -0.0263
 4468poe    c2319048   3.078   6.803   5.942 -0.4850 -0.0458  1.1404
 4468poe     o219049   3.019   6.905   5.863  0.4412  0.0924  0.6093
 4468poe    c2319050   2.897   6.865   5.806  0.4307 -0.1033  0.7648
 4468poe    c2319051   2.835   6.974   5.716  0.2927 -0.0841  0.8818
 4468poe     o219052   2.781   7.089   5.778  0.3322  0.1590  0.4694
 4468poe    c2319053   2.667   7.066   5.857  0.6752 -0.6880  0.7300
 4468poe    c2319054   2.652   7.183   5.957  0.6246 -0.0920  0.0310
 4468poe     o219055   2.749   7.211   6.055  0.5754 -0.3725  0.1605
 4468poe    c3119056   2.728   7.343   6.099 -0.2444 -0.4872  0.1243
 4469poe    c3119057   1.543   3.718   1.538  0.4142 -0.2601 -0.3206
 4469poe     o219058   1.597   3.771   1.419  0.5036 -0.2306 -0.2668
 4469poe    c2319059   1.592   3.910   1.439  0.5184 -0.1937 -0.5199
 4469poe    c2319060   1.623   3.976   1.303  0.2798  0.8142 -0.0991
 4469poe     o219061   1.756   3.968   1.257  0.2006 -0.0567 -0.2015
 4469poe    c2319062   1.781   4.036   1.136  0.0698 -0.7309 -0.6128
 4469poe    c2319063   1.924   3.987   1.105  0.1887 -0.4457 -0.5205
 4469poe     o219064   1.932   3.848   1.083  0.1704 -0.5654  0.2154
 4469poe    c2319065   2.065   3.816   1.049  0.4357  0.1747  0.5426
 4469poe    c2319066   2.065   3.668   1.008 -1.2990  0.3804 -0.2980
 4469poe     o219067   2.005   3.603   1.118 -0.6806 -0.2069 -0.2966
 4469poe    c3119068   2.007   3.462   1.111  0.0768 -0.2441  0.4828
 4470poe    c3119069   3.003   3.826   3.579 -0.1531  0.4918  0.1718
 4470poe     o219070   3.143   3.815   3.573 -0.1990 -0.1796  0.2464
 4470poe    c2319071   3.194   3.705   3.502 -0.2466 -0.2458  0.3159
 4470poe    c2319072   3.347   3.690   3.500 -0.2034  0.2178 -0.2071
 4470poe     o219073   3.382   3.650   3.631  0.4011  0.1063 -0.3993
 4470poe    c2319074   3.520   3.627   3.649  0.4424  0.4943 -0.2291
 4470poe    c2319075   3.591   3.496   3.612  0.0679  0.0771  0.5029
 4470poe     o219076   3.652   3.519   3.487 -0.0257  0.0888  0.4592
 4470poe    c2319077   3.732   3.413   3.437  0.3474  0.3869  0.4203
 4470poe    c2319078   3.800   3.446   3.302  0.5538 -0.4950  0.3036
 4470poe     o219079   3.912   3.527   3.329  0.4352 -0.1955 -0.0894
 4470poe    c3119080   3.959   3.590   3.212 -0.6556  0.7351 -0.0404
 4471poe    c3119081   1.822   6.546   1.213 -0.8518  0.1408  0.0889
 4471poe     o219082   1.852   6.580   1.347 -0.0506  0.0574 -0.0629
 4471poe    c2319083   1.836   6.461   1.421  0.1693  0.3726  0.4921
 4471poe    c2319084   1.807   6.506   1.566 -0.5157 -0.1499  0.5235
 4471poe     o219085   1.912   6.510   1.660 -0.2315  0.0243  0.2002
 4471poe    c2319086   1.861   6.471   1.785  0.3278 -0.2039  0.3609
 4471poe    c2319087   1.975   6.441   1.885  0.3111  0.4812  0.5865
 4471poe     o219088   2.023   6.310   1.870  0.4221  0.6374 -0.5377
 4471poe    c2319089   2.097   6.276   1.985  0.2498  0.8432 -0.3649
 4471poe    c2319090   2.236   6.222   1.947  0.0870  0.2003 -0.0678
 4471poe     o219091   2.313   6.334   1.910 -0.0146  0.1814 -0.3393
 4471poe    c3119092   2.451   6.309   1.917  0.0965  0.7635 -0.3828
 4472poe    c3119093   6.472   7.432   7.090 -0.0538 -0.4991  0.3740
 4472poe     o219094   6.395   7.537   7.143 -0.2724 -0.2744 -0.3858
 4472poe    c2319095   6.256   7.523   7.120 -0.2614  0.0414 -0.6653
 4472poe    c2319096   6.202   7.666   7.137  0.2513  0.1466  0.1811
 4472poe     o219097   6.213   7.708   7.271 -0.2756 -0.4322  0.4100
 4472poe    c2319098   6.133   7.823   7.273  0.4723  0.1212 -0.4622
 4472poe    c2319099   6.123   7.891   7.411  0.1470 -0.2081 -0.3206
 4472poe     o219100   6.250   7.917   7.466 -0.1589  0.3197  0.1408
 4472poe    c2319101   6.247   8.028   7.553 -0.1697  0.4087  0.0275
 4472poe    c2319102   6.380   8.060   7.626  0.2192 -0.9964 -0.0412
 4472poe     o219103   6.479   8.094   7.531  0.1647  0.1307  0.2931
 4472poe    c3119104   6.516   8.225   7.566 -0.2133  0.2056  0.4170
 4473poe    c3119105   7.402   6.026   0.501 -0.1074 -0.1270  0.3374
 4473poe     o219106   7.421   6.147   0.571  0.0382 -0.2127  0.4455
 4473poe    c2319107   7.358   6.133   0.696 -0.3007 -0.2284  0.2725
 4473poe    c2319108   7.399   6.254   0.781 -0.3989 -0.2074  0.2914
 4473poe     o219109   7.342   6.371   0.726 -0.4606 -0.1161  0.5481
 4473poe    c2319110   7.345   6.495   0.791  0.6449  0.4654 -0.5682
 4473poe    c2319111   7.318   6.619   0.704  0.2405  0.4547 -0.4620
 4473poe     o219112   7.394   6.608   0.586  0.4356 -0.3276 -0.2645
 4473poe    c2319113   7.364   6.706   0.489 -0.6996 -0.4868 -0.0791
 4473poe    c2319114   7.464   6.726   0.374 -0.2642 -0.2258  0.3394
 4473poe     o219115   7.505   6.605   0.313 -0.1525 -0.1018  0.1703
 4473poe    c3119116   7.616   6.620   0.227 -0.0431  0.3767  0.3902
 4474poe    c3119117   1.790   7.518   3.893 -0.7701  0.2291  0.4002
 4474poe     o219118   1.807   7.399   3.819 -0.4120  0.3493  0.2888
 4474poe    c2319119   1.689   7.338   3.771 -0.1792 -0.2549  0.4638
 4474poe    c2319120   1.666   7.200   3.834 -0.4920 -0.2319  0.4009
 4474poe     o219121   1.628   7.207   3.969 -0.8703  0.2052  0.2723
 4474poe    c2319122   1.551   7.097   4.011 -0.1380 -0.4176 -0.0064
 4474poe    c2319123   1.403   7.121   4.043  0.0298 -0.0027  0.4663
 4474poe     o219124   1.340   7.184   3.934 -0.0123 -0.4906  0.2079
 4474poe    c2319125   1.200   7.176   3.947 -0.0126 -0.5970  0.1406
 4474poe    c2319126   1.117   7.137   3.823  0.5739 -0.3870 -0.3194
 4474poe     o219127   1.108   7.002   3.784 -0.7839 -0.2822 -0.4014
 4474poe    c3119128   1.207   6.958   3.695 -0.0184  0.4317  0.0837
 4475poe    c3119129   3.656   5.560   6.118  0.1383  0.1266  0.0346
 4475poe     o219130   3.769   5.587   6.197  0.2393 -0.7529  0.1917
 4475poe    c2319131   3.823   5.707   6.147  0.3433 -0.7416  0.3296
 4475poe    c2319132   3.926   5.754   6.251  0.2325 -0.2168  0.2034
 4475poe     o219133   4.044   5.678   6.261  0.0270 -0.5338  0.2171
 4475poe    c2319134   4.133   5.729   6.358  0.0683  0.4169 -0.3098
 4475poe    c2319135   4.253   5.642   6.400 -0.1227  0.3941  0.1891
 4475poe     o219136   4.197   5.529   6.465  0.0354  0.0084 -0.3325
 4475poe    c2319137   4.277   5.457   6.557  0.1300 -0.6176 -0.9018
 4475poe    c2319138   4.234   5.314   6.595 -0.2976 -0.2698 -0.0610
 4475poe     o219139   4.334   5.264   6.681 -0.4083  0.0745  0.2716
 4475poe    c3119140   4.296   5.137   6.729 -0.2942 -0.0862 -0.0673
 4476poe    c3119141   0.802   3.017   4.578 -0.9026 -0.3538 -0.1542
 4476poe     o219142   0.714   3.083   4.489 -0.7040  0.1749  0.0357
 4476poe    c2319143   0.799   3.123   4.384 -0.4011  0.3440  0.3424
 4476poe    c2319144   0.736   3.227   4.290  0.1286 -0.3825 -0.8536
 4476poe     o219145   0.723   3.358   4.341 -0.2191 -0.7418  0.0099
 4476poe    c2319146   0.609   3.417   4.281 -0.2305 -0.4145  0.3518
 4476poe    c2319147   0.565   3.547   4.350 -0.2384  0.2028 -0.7965
 4476poe     o219148   0.650   3.658   4.339  0.1714 -0.0573 -0.2953
 4476poe    c2319149   0.595   3.776   4.393 -0.0974 -0.2484 -0.1503
 4476poe    c2319150   0.693   3.895   4.390 -0.6618  0.2190 -0.1455
 4476poe     o219151   0.804   3.887   4.476 -0.2340  0.5667 -0.6583
 4476poe    c3119152   0.911   3.973   4.442  0.3180  0.1901  0.0957
 4477poe    c3119153   6.079   1.823   0.186  0.2981 -0.0375 -0.2871
 4477poe     o219154   6.070   1.805   0.326 -0.1653  0.4275 -0.2514
 4477poe    c2319155   6.158   1.707   0.377 -0.1182  0.7318  0.2535
 4477poe    c2319156   6.307   1.747   0.387  0.4382 -1.1200 -0.2318
 4477poe     o219157   6.391   1.747   0.274  0.4400 -0.2426 -0.2368
 4477poe    c2319158   6.410   1.616   0.226  0.0558 -0.4720  0.2278
 4477poe    c2319159   6.465   1.612   0.082 -0.0891  0.5658  0.1335
 4477poe     o219160   6.584   1.686   0.072  0.0054  0.4148  0.1341
 4477poe    c2319161   6.654   1.632  -0.038  0.2218 -0.0284  0.4890
 4477poe    c2319162   6.801   1.676  -0.058  0.2517 -0.5322 -0.4487
 4477poe     o219163   6.896   1.620   0.030  0.3900  0.6232  0.1496
 4477poe    c3119164   7.026   1.623  -0.022  0.2237 -0.1483 -0.3211
 4478poe    c3119165   7.631   3.146   1.461  0.1231 -0.3587  0.2545
 4478poe     o219166   7.678   3.067   1.355  0.3883  0.2323 -0.0714
 4478poe    c2319167   7.791   3.000   1.407  0.0154 -0.4592 -0.1447
 4478poe    c2319168   7.876   2.938   1.294  0.1482 -0.7058  0.0895
 4478poe     o219169   7.811   2.855   1.200 -0.3916  0.0701 -0.2361
 4478poe    c2319170   7.800   2.718   1.232  0.2180  0.1544  0.3654
 4478poe    c2319171   7.717   2.640   1.129  0.3379 -0.1074  0.4668
 4478poe     o219172   7.588   2.696   1.116  0.3296 -0.1159  0.5102
 4478poe    c2319173   7.508   2.608   1.040  0.3091 -0.0644  0.4721
 4478poe    c2319174   7.364   2.660   1.027  0.2787 -0.1032  0.6535
 4478poe     o219175   7.362   2.794   0.984 -0.0923 -0.3341 -0.0736
 4478poe    c3119176   7.231   2.844   0.978 -0.1533 -0.4313  0.4026
 4479poe    c3119177   2.070   5.757   5.577 -0.4884  0.3782 -0.6368
 4479poe     o219178   2.116   5.884   5.534 -0.2748  0.5386  0.0477
 4479poe    c2319179   2.048   5.932   5.420 -0.2811  0.0146 -0.1741
 4479poe    c2319180   2.080   6.081   5.399 -0.0609  0.0458  0.3634
 4479poe     o219181   1.993   6.169   5.466 -0.4515  0.0095 -0.0973
 4479poe    c2319182   2.006   6.298   5.410 -0.2853  0.0959  0.1410
 4479poe    c2319183   2.054   6.385   5.528  0.3188 -0.1466  0.0788
 4479poe     o219184   1.961   6.387   5.634  1.0146 -0.2687  0.6917
 4479poe    c2319185   1.997   6.484   5.731  0.2508 -0.0958  0.8068
 4479poe    c2319186   1.994   6.438   5.878 -0.6360 -0.2637  0.7405
 4479poe     o219187   1.861   6.422   5.922 -1.0639 -0.0346 -0.4301
 4479poe    c3119188   1.826   6.386   6.054  0.1077 -0.3619 -0.2007
 4480poe    c3119189   3.406   4.843   5.670  0.2193 -0.3716  0.2478
 4480poe     o219190   3.480   4.830   5.551  0.3524 -0.0338  0.2936
 4480poe    c2319191   3.415   4.905   5.451  0.0515 -0.1307  0.4183
 4480poe    c2319192   3.509   4.884   5.332 -0.0558 -0.0601  0.3211
 4480poe     o219193   3.602   4.778   5.342  0.1755  0.1042 -0.0462
 4480poe    c2319194   3.648   4.749   5.212  0.0456 -0.3806  0.0120
 4480poe    c2319195   3.757   4.640   5.197  0.0767 -0.3933  0.3292
 4480poe     o219196   3.705   4.525   5.258 -0.4050 -0.2534  0.1869
 4480poe    c2319197   3.801   4.425   5.235 -0.5060 -0.1216 -0.8601
 4480poe    c2319198   3.769   4.298   5.316 -0.3225  0.3554 -0.0307
 4480poe     o219199   3.727   4.324   5.448 -0.4041 -0.1183  0.0388
 4480poe    c3119200   3.730   4.202   5.519  0.1772 -0.3051 -0.3059
 4481poe    c3119201   0.943   7.093   0.903  0.9595  0.2329 -0.1540
 4481poe     o219202   1.053   7.047   0.978  0.1931 -1.2853  0.0601
 4481poe    c2319203   1.145   7.152   0.990 -0.3754 -0.6886 -0.7004
 4481poe    c2319204   1.270   7.082   1.048 -0.2034  0.4541  0.3548
 4481poe     o219205   1.226   7.010   1.161  0.0027 -0.0924  0.0898
 4481poe    c2319206   1.332   6.960   1.239  0.4526 -0.3493 -0.6706
 4481poe    c2319207   1.272   6.947   1.381  0.1018 -0.5541 -0.8358
 4481poe     o219208   1.150   6.878   1.387 -0.0435 -0.2253  0.1951
 4481poe    c2319209   1.126   6.844   1.521 -0.2772  0.2735  0.2821
 4481poe    c2319210   0.982   6.788   1.524 -0.0019 -0.4488  0.3085
 4481poe     o219211   0.896   6.869   1.447 -0.0155 -0.6801  0.0784
 4481poe    c3119212   0.790   6.792   1.395 -0.8424  0.0846  0.5914
 4482poe    c3119213   4.255   3.749   2.186  0.0727  0.7901  0.1273
 4482poe     o219214   4.151   3.664   2.229  0.1215  0.5468 -0.2294
 4482poe    c2319215   4.116   3.574   2.127 -0.2557  0.8601 -0.3764
 4482poe    c2319216   4.019   3.467   2.183  0.7933  0.2335  0.2882
 4482poe     o219217   4.066   3.435   2.312  0.3139 -0.1626  0.3643
 4482poe    c2319218   3.978   3.347   2.379  0.1138 -0.4382 -0.2524
 4482poe    c2319219   4.011   3.381   2.525  0.2545  0.4918 -0.4945
 4482poe     o219220   4.149   3.395   2.549  0.2546 -0.4418  0.0785
 4482poe    c2319221   4.182   3.384   2.686 -0.4977 -0.4685  0.2618
 4482poe    c2319222   4.316   3.454   2.715 -0.4465 -0.1501 -0.7139
 4482poe     o219223   4.323   3.593   2.695 -0.1190 -0.1012 -0.2710
 4482poe    c3119224   4.337   3.669   2.813  0.4509  0.0826 -0.4565
 4483poe    c3119225   6.850   6.544   3.136 -0.3232  0.1699 -0.2119
 4483poe     o219226   6.946   6.565   3.035 -0.4257 -0.2573 -0.4027
 4483poe    c2319227   6.980   6.433   3.000  0.4292 -0.0541 -0.3696
 4483poe    c2319228   7.052   6.424   2.864  0.4188 -0.3543 -0.3550
 4483poe     o219229   6.959   6.468   2.768 -0.2224 -0.0188  0.4107
 4483poe    c2319230   6.998   6.431   2.638  0.4672  0.0185  0.6048
 4483poe    c2319231   6.920   6.503   2.526  1.2795  0.1613  0.1183
 4483poe     o219232   6.969   6.630   2.489  0.1203  0.5069 -0.2639
 4483poe    c2319233   6.930   6.636   2.354 -0.2461 -0.2762 -0.2019
 4483poe    c2319234   7.028   6.731   2.281  0.3448 -0.4108  0.4146
 4483poe     o219235   7.019   6.867   2.314  0.7664 -0.2980  0.0705
 4483poe    c3119236   7.038   6.947   2.199 -0.2555  0.6023  0.5040
 4484poe    c3119237   2.811   2.394   3.298  0.1016 -1.0695 -0.5897
 4484poe     o219238   2.712   2.308   3.349 -0.0412 -0.4550  0.1922
 4484poe    c2319239   2.586   2.371   3.345  0.3035  0.2478  0.3021
 4484poe    c2319240   2.474   2.295   3.419  0.2456 -0.2331 -0.2723
 4484poe     o219241   2.429   2.171   3.369  0.1523 -0.2649 -0.1088
 4484poe    c2319242   2.345   2.177   3.256 -0.2391  0.0840  0.1947
 4484poe    c2319243   2.304   2.028   3.257 -0.1715  0.0609 -0.3852
 4484poe     o219244   2.411   1.937   3.273 -0.4739 -0.3093 -0.4624
 4484poe    c2319245   2.374   1.808   3.232 -0.5361 -0.5845  0.4305
 4484poe    c2319246   2.489   1.709   3.255 -0.1366 -0.3907 -0.6496
 4484poe     o219247   2.594   1.745   3.168  0.2396 -0.0792 -0.0808
 4484poe    c3119248   2.711   1.675   3.204 -0.1416 -0.4303  0.4838
 4485poe    c3119249   0.253   0.880   4.090  0.4921 -0.3931 -0.1660
 4485poe     o219250   0.336   0.989   4.126 -0.0384 -0.0323 -0.0261
 4485poe    c2319251   0.456   0.951   4.189 -0.0618 -0.2265 -0.0957
 4485poe    c2319252   0.560   0.903   4.087  0.3522 -0.3694  0.3888
 4485poe     o219253   0.631   1.006   4.023  0.3518 -0.5602  0.0777
 4485poe    c2319254   0.551   1.078   3.932 -0.1452 -0.4108  0.6273
 4485poe    c2319255   0.643   1.186   3.871 -0.7813 -0.6107 -0.7265
 4485poe     o219256   0.754   1.137   3.800 -0.0357  0.6772 -0.4852
 4485poe    c2319257   0.828   1.242   3.742  0.7868  0.4955  0.2184
 4485poe    c2319258   0.888   1.192   3.610  0.4530  0.4645  0.0789
 4485poe     o219259   0.996   1.101   3.610 -0.1331 -0.2533 -0.7519
 4485poe    c3119260   1.120   1.164   3.633  0.1430 -0.9388 -0.3474
 4486poe    c3119261   2.053   2.651   0.263 -0.0275 -0.1046  0.8490
 4486poe     o219262   2.175   2.614   0.202 -0.3621 -0.2763  0.2719
 4486poe    c2319263   2.292   2.606   0.280  0.0649 -0.0833 -0.3506
 4486poe    c2319264   2.346   2.741   0.331  0.3837 -0.3098 -0.0807
 4486poe     o219265   2.278   2.813   0.432 -0.2725  0.0160 -0.7462
 4486poe    c2319266   2.292   2.953   0.430  0.8165 -0.0838 -0.7267
 4486poe    c2319267   2.199   3.032   0.336 -0.3269 -0.0794  0.3832
 4486poe     o219268   2.095   3.085   0.415 -0.5113  0.1065  0.0198
 4486poe    c2319269   2.002   3.172   0.355 -0.2819  0.4094  0.1018
 4486poe    c2319270   1.884   3.232   0.434 -0.4527  0.3093 -0.0776
 4486poe     o219271   1.932   3.316   0.536 -0.0665 -0.2138  0.1793
 4486poe    c3119272   1.884   3.445   0.502  0.3001  0.0409  0.6116
 4487poe    c3119273   3.389   4.291   5.582 -0.0563 -0.3314 -0.3790
 4487poe     o219274   3.305   4.398   5.547  0.1181 -0.1731 -0.3174
 4487poe    c2319275   3.166   4.376   5.533 -0.0605  0.2825  0.6717
 4487poe    c2319276   3.079   4.486   5.470 -0.7589 -0.6630 -0.0526
 4487poe     o219277   3.105   4.496   5.332 -0.0269 -0.0020  0.1239
 4487poe    c2319278   2.998   4.568   5.276 -0.1887 -0.2571  0.1069
 4487poe    c2319279   3.061   4.650   5.162  0.7140 -0.0330  0.7587
 4487poe     o219280   3.146   4.567   5.085 -0.4507 -0.3887 -0.1727
 4487poe    c2319281   3.188   4.616   4.960 -0.5138  0.1928  0.0319
 4487poe    c2319282   3.288   4.516   4.898 -0.4006  0.3108  0.0230
 4487poe     o219283   3.388   4.511   4.998  0.0527 -0.0942 -0.4438
 4487poe    c3119284   3.519   4.504   4.947  0.1263 -0.0305 -0.2656
 4488poe    c3119285   2.294   0.925   7.011 -0.4555 -0.3443  0.0937
 4488poe     o219286   2.395   0.827   7.013 -0.1149 -0.0056 -0.1988
 4488poe    c2319287   2.421   0.762   6.891 -0.1486 -0.2153 -0.0961
 4488poe    c2319288   2.554   0.685   6.876 -0.2758 -0.4307 -0.1132
 4488poe     o219289   2.559   0.559   6.940  0.3420 -0.4161 -0.1335
 4488poe    c2319290   2.497   0.452   6.873  0.2043 -0.0543 -0.5909
 4488poe    c2319291   2.518   0.318   6.946 -0.0540  0.3010  0.1363
 4488poe     o219292   2.433   0.295   7.057  0.1228 -0.1371  0.1836
 4488poe    c2319293   2.447   0.160   7.092  0.0181 -0.0708  0.4794
 4488poe    c2319294   2.432   0.145   7.245 -0.4093  0.0204  0.4497
 4488poe     o219295   2.513   0.234   7.320 -0.1854  0.2575 -0.0692
 4488poe    c3119296   2.644   0.184   7.335 -0.2319  0.0281 -0.3946
 4489poe    c3119297   6.868   4.153   1.718 -0.5160 -0.2635 -0.1696
 4489poe     o219298   6.831   4.246   1.619  0.1448 -0.0023 -0.1756
 4489poe    c2319299   6.922   4.248   1.512 -0.0087 -0.1767 -0.3090
 4489poe    c2319300   6.835   4.310   1.401 -0.4747  0.1434  0.2327
 4489poe     o219301   6.754   4.416   1.449 -0.3784  0.2892  0.0726
 4489poe    c2319302   6.664   4.452   1.347  0.0499  0.3553 -0.2872
 4489poe    c2319303   6.594   4.582   1.391  0.0985  0.1311  0.4521
 4489poe     o219304   6.563   4.558   1.527 -0.3594 -0.3583  0.2639
 4489poe    c2319305   6.485   4.667   1.570  0.3393  0.2833 -0.0656
 4489poe    c2319306   6.456   4.635   1.718 -0.4377 -0.0703 -0.2902
 4489poe     o219307   6.394   4.510   1.743 -0.4281 -0.0190 -0.0036
 4489poe    c3119308   6.254   4.517   1.756 -0.4097  0.2051  0.0829
 4490poe    c3119309   5.106   1.937   3.324 -0.0938  0.2098 -0.5665
 4490poe     o219310   5.020   1.946   3.435  0.4607 -0.2516 -0.0904
 4490poe    c2319311   5.097   1.973   3.549 -0.1723  0.1735  0.2405
 4490poe    c2319312   5.065   1.886   3.672 -0.0510  0.2424  0.3216
 4490poe     o219313   4.926   1.898   3.696 -0.5072 -0.2699 -1.8595
 4490poe    c2319314   4.861   1.776   3.720  0.0804 -0.2787 -0.1952
 4490poe    c2319315   4.735   1.777   3.631 -0.1321 -0.1642  0.1061
 4490poe     o219316   4.763   1.756   3.495  0.1716  0.0769  0.1303
 4490poe    c2319317   4.666   1.699   3.410  0.0339 -0.3644  0.5826
 4490poe    c2319318   4.758   1.661   3.292  0.1535 -0.3381  0.6671
 4490poe     o219319   4.829   1.776   3.254 -0.4215 -0.2306 -0.1235
 4490poe    c3119320   4.885   1.756   3.126 -0.3758  0.7389 -0.2591
 4491poe    c3119321   4.454   2.600   6.545  0.4412 -0.0620 -0.1525
 4491poe     o219322   4.331   2.607   6.475  0.4335  0.1031 -0.1233
 4491poe    c2319323   4.341   2.607   6.334  0.1420  0.3471 -0.1449
 4491poe    c2319324   4.199   2.608   6.274 -0.2325 -0.5542  0.6887
 4491poe     o219325   4.141   2.736   6.287  0.5232 -0.1101 -0.1451
 4491poe    c2319326   4.028   2.750   6.203  0.2322 -0.1019  0.2465
 4491poe    c2319327   3.982   2.895   6.228  0.1493 -0.1311  0.2665
 4491poe     o219328   3.940   2.931   6.357 -0.1742 -0.0944  0.1500
 4491poe    c2319329   3.867   3.051   6.342 -0.7202 -0.4163  0.1731
 4491poe    c2319330   3.772   3.093   6.456 -0.7783  0.6585 -0.2583
 4491poe     o219331   3.835   3.128   6.576 -0.7110 -0.0565 -0.0805
 4491poe    c3119332   3.752   3.154   6.687  0.1600 -0.3403  0.6587
 4492poe    c3119333   2.539   3.149   2.559 -0.4017 -0.2337  0.2488
 4492poe     o219334   2.570   3.286   2.562 -0.1164 -0.3001  0.3824
 4492poe    c2319335   2.458   3.362   2.602 -0.5675 -0.3548 -0.7468
 4492poe    c2319336   2.473   3.510   2.564 -0.8890 -0.1331 -0.0301
 4492poe     o219337   2.457   3.541   2.427  0.0519  0.2590 -0.0637
 4492poe    c2319338   2.319   3.569   2.416  0.0161  0.1057  0.0014
 4492poe    c2319339   2.303   3.611   2.269 -0.0495  0.1093  0.0095
 4492poe     o219340   2.365   3.510   2.192  0.5008 -0.0928  0.7112
 4492poe    c2319341   2.349   3.550   2.058 -0.6058 -0.3921  0.7469
 4492poe    c2319342   2.456   3.473   1.979 -0.2197  0.2040  0.6820
 4492poe     o219343   2.593   3.493   2.004 -0.1951 -0.1820  0.8640
 4492poe    c3119344   2.652   3.367   1.981  0.1386  0.0039  0.6964
 4493poe    c3119345   7.045   0.586   1.216 -0.6164  0.3016  0.0021
 4493poe     o219346   7.072   0.642   1.343  0.4618  0.3264 -0.2249
 4493poe    c2319347   6.983   0.594   1.442  0.5410  0.0309 -0.2949
 4493poe    c2319348   6.994   0.678   1.571 -0.7230 -0.3253  0.0542
 4493poe     o219349   6.912   0.793   1.570  0.0294  0.2230  0.6145
 4493poe    c2319350   6.954   0.899   1.486  0.1752 -0.3495 -0.0432
 4493poe    c2319351   6.984   1.036   1.548 -0.6106  0.0653 -0.5567
 4493poe     o219352   6.879   1.123   1.586 -0.1596  0.5770 -0.4685
 4493poe    c2319353   6.775   1.137   1.492 -0.2432  0.0377 -0.4595
 4493poe    c2319354   6.655   1.215   1.548  0.0302 -0.1917  0.4609
 4493poe     o219355   6.593   1.147   1.655  0.3743 -0.7355  0.3217
 4493poe    c3119356   6.501   1.053   1.604  0.5880 -0.4150 -0.6754
 4494poe    c3119357   2.901   0.194   2.548  0.2075  0.2257 -0.4074
 4494poe     o219358   2.833   0.103   2.631  0.4842  0.2989 -0.0964
 4494poe    c2319359   2.875   0.111   2.765  0.0365  0.0897  0.0578
 4494poe    c2319360   2.777   0.056   2.871  0.1019  0.2116  0.1817
 4494poe     o219361   2.778  -0.084   2.890 -0.3296  0.2300  0.3557
 4494poe    c2319362   2.683  -0.105   2.991  0.0204  0.0421  0.6499
 4494poe    c2319363   2.687  -0.251   3.039 -0.2456  0.1083  0.8816
 4494poe     o219364   2.817  -0.300   3.063 -0.1464  0.0945  0.3315
 4494poe    c2319365   2.802  -0.429   3.118  0.0603 -0.1295 -0.1306
 4494poe    c2319366   2.929  -0.514   3.096 -0.0885 -0.3548 -0.1248
 4494poe     o219367   3.032  -0.455   3.173 -0.1010 -0.4173 -0.0594
 4494poe    c3119368   3.151  -0.530   3.174 -0.2014 -0.5849 -0.5429
 4495poe    c3119369   1.891   4.609   4.389  0.7171  0.2637  0.2677
 4495poe     o219370   1.907   4.579   4.526 -0.2936  0.1870  0.3805
 4495poe    c2319371   1.804   4.508   4.590 -0.2553  0.0622  0.3037
 4495poe    c2319372   1.863   4.478   4.729 -0.2111 -0.2517  0.2176
 4495poe     o219373   1.888   4.597   4.800 -0.1023 -0.1219 -0.0422
 4495poe    c2319374   1.861   4.590   4.938 -0.0795 -0.0103 -0.0319
 4495poe    c2319375   1.942   4.686   5.027 -0.3003 -0.0938  0.2586
 4495poe     o219376   1.968   4.817   4.984 -0.3263 -0.0844  0.2730
 4495poe    c2319377   2.074   4.889   5.044 -0.2226  0.1077 -0.1335
 4495poe    c2319378   2.104   4.909   5.194 -0.0252  0.3322 -0.2034
 4495poe     o219379   2.006   4.989   5.255 -0.2701 -0.1300  0.0179
 4495poe    c3119380   2.060   5.036   5.377 -0.8283 -0.4211  0.3789
 4496poe    c3119381   6.823   1.957   6.318  0.5023  0.2431 -0.3076
 4496poe     o219382   6.917   1.920   6.416  0.2431  0.0406 -0.1337
 4496poe    c2319383   7.031   1.864   6.355  0.1188 -0.8074  0.4020
 4496poe    c2319384   7.123   1.839   6.476  0.1826 -0.2910  0.4609
 4496poe     o219385   7.091   1.731   6.561 -0.7999 -0.1637  0.2648
 4496poe    c2319386   7.121   1.597   6.528  0.6978  0.3252 -0.4767
 4496poe    c2319387   7.077   1.498   6.637 -0.8387  1.2820 -0.1993
 4496poe     o219388   6.938   1.502   6.663 -0.8339  0.2030  0.0554
 4496poe    c2319389   6.897   1.395   6.745 -0.0606 -0.2240 -0.1079
 4496poe    c2319390   6.749   1.412   6.782 -0.0341 -0.2446  0.0082
 4496poe     o219391   6.669   1.392   6.667  0.1837 -0.7502 -0.0574
 4496poe    c3119392   6.536   1.410   6.708  0.3506 -0.3320  0.3109
 4497poe    c3119393   4.252   3.235   1.003 -0.4353 -0.1195  0.7009
 4497poe     o219394   4.236   3.375   0.999  0.3834 -0.0440 -0.0427
 4497poe    c2319395   4.335   3.453   1.062  0.4114  0.4849 -0.7217
 4497poe    c2319396   4.268   3.569   1.137  0.2175 -0.2002  0.1758
 4497poe     o219397   4.229   3.687   1.070 -0.3721 -0.1840  0.5314
 4497poe    c2319398   4.204   3.789   1.164 -0.3372  0.3542 -0.0412
 4497poe    c2319399   4.109   3.897   1.110 -0.2253  0.4890  0.0309
 4497poe     o219400   3.979   3.846   1.128  0.1837 -0.6579 -0.2487
 4497poe    c2319401   3.899   3.928   1.045 -0.2366 -0.8867 -0.0697
 4497poe    c2319402   3.752   3.888   1.020 -0.4461 -0.2534  0.1258
 4497poe     o219403   3.737   3.778   0.933 -0.0365 -0.1689 -0.0552
 4497poe    c3119404   3.603   3.775   0.888 -0.0427  0.2107 -0.0687
 4498poe    c3119405   7.005   1.255   4.713  0.0823  0.2488 -0.6612
 4498poe     o219406   6.889   1.284   4.638 -0.3676 -0.2242 -0.1692
 4498poe    c2319407   6.860   1.422   4.629 -0.2415 -0.1817  0.0754
 4498poe    c2319408   6.744   1.446   4.531  0.3079  0.6125 -0.3962
 4498poe     o219409   6.787   1.404   4.404  0.3867 -0.2763 -0.0788
 4498poe    c2319410   6.708   1.421   4.289 -0.0887 -0.2786  0.2462
 4498poe    c2319411   6.797   1.381   4.170 -0.1058  0.4882 -0.0280
 4498poe     o219412   6.843   1.249   4.184 -0.8370  0.2751  0.4197
 4498poe    c2319413   6.860   1.188   4.058 -0.5268  0.1570  0.5188
 4498poe    c2319414   6.738   1.131   3.982 -0.5282  0.3720  0.3570
 4498poe     o219415   6.689   1.025   4.061  0.3691 -0.8541 -0.6802
 4498poe    c3119416   6.565   0.979   4.012 -0.2244 -0.6224  0.5680
 4499poe    c3119417   5.519   2.495   0.989 -0.2875 -0.2653 -0.1326
 4499poe     o219418   5.551   2.416   0.877  0.1896  0.0177 -0.1946
 4499poe    c2319419   5.614   2.303   0.934  0.2050 -0.0455 -0.3351
 4499poe    c2319420   5.667   2.208   0.826  0.8162 -0.6567  0.4908
 4499poe     o219421   5.559   2.151   0.756  0.5878 -0.1454  0.4253
 4499poe    c2319422   5.569   2.048   0.659  0.5596  0.5815 -0.3635
 4499poe    c2319423   5.437   2.013   0.588  0.6128 -0.2595 -0.0594
 4499poe     o219424   5.379   2.122   0.520  0.2667 -0.4346 -0.0444
 4499poe    c2319425   5.276   2.079   0.434  0.3546  0.2872 -0.5242
 4499poe    c2319426   5.222   2.195   0.348 -0.2711  0.2566 -0.1805
 4499poe     o219427   5.140   2.168   0.237 -0.2409  0.0793 -0.1615
 4499poe    c3119428   5.115   2.286   0.163 -0.3764  0.3149  0.2613
 4500poe    c3119429   5.307   2.406   7.486 -0.6282 -0.8922 -0.0157
 4500poe     o219430   5.378   2.341   7.383 -0.2139 -0.0457 -0.2746
 4500poe    c2319431   5.306   2.232   7.330  0.3889 -0.4736 -0.2263
 4500poe    c2319432   5.374   2.180   7.202 -0.2161  0.0056 -0.7495
 4500poe     o219433   5.496   2.112   7.221  0.0291  0.6706  0.0967
 4500poe    c2319434   5.476   1.974   7.239  0.4608  0.5385 -0.4149
 4500poe    c2319435   5.605   1.904   7.193  0.1560 -0.4556  0.2024
 4500poe     o219436   5.638   1.897   7.056 -0.4412  0.0578  0.0296
 4500poe    c2319437   5.760   1.832   7.026 -0.0426  0.7660  0.0938
 4500poe    c2319438   5.881   1.926   7.010  0.4606  0.1269  0.1227
 4500poe     o219439   5.883   2.023   6.907  0.0202 -0.0012 -0.0084
 4500poe    c3119440   5.967   2.132   6.937 -0.4921  0.3785  0.0643
 4501poe    c3119441   5.260   5.489   3.616 -0.5700 -0.8047  0.7686
 4501poe     o219442   5.173   5.538   3.716 -0.8472  0.5786 -0.1234
 4501poe    c2319443   5.204   5.675   3.725 -0.2897  0.4524 -0.0666
 4501poe    c2319444   5.104   5.735   3.825  0.2275  0.3774  0.5033
 4501poe     o219445   5.119   5.707   3.962 -0.7061  0.3778  0.6113
 4501poe    c2319446   5.242   5.722   4.028 -0.2440  0.3359 -0.2323
 4501poe    c2319447   5.223   5.702   4.180  0.2714 -0.4955 -0.2702
 4501poe     o219448   5.213   5.566   4.212  0.3937 -0.3989  0.1819
 4501poe    c2319449   5.187   5.562   4.351 -0.0530 -0.0538  0.1078
 4501poe    c2319450   5.213   5.418   4.399  0.4225 -0.0508 -0.1398
 4501poe     o219451   5.349   5.379   4.400  0.5563  0.4007 -0.2870
 4501poe    c3119452   5.351   5.250   4.457 -0.7121  0.4110 -0.1916
 4502poe    c3119453   1.152   2.237   2.697  0.6115 -0.1561 -0.5093
 4502poe     o219454   1.126   2.374   2.717  0.1074 -0.2873 -0.2449
 4502poe    c2319455   0.995   2.400   2.764  0.2252  0.0535 -0.1092
 4502poe    c2319456   0.923   2.511   2.685 -0.5692 -0.2816  0.1414
 4502poe     o219457   0.880   2.468   2.557 -0.1053 -0.3549  0.0094
 4502poe    c2319458   0.794   2.559   2.493  0.2950  0.2722  0.3459
 4502poe    c2319459   0.763   2.520   2.347 -0.1789  0.1015  0.4889
 4502poe     o219460   0.745   2.382   2.328  0.4466  0.0906 -0.0833
 4502poe    c2319461   0.673   2.348   2.212 -0.5024  0.4718  0.3775
 4502poe    c2319462   0.640   2.197   2.215  0.3797  0.2606 -0.1868
 4502poe     o219463   0.753   2.112   2.208 -0.3482 -0.7954  0.5548
 4502poe    c3119464   0.724   2.022   2.104  0.4649  0.3255 -0.6877
 4503poe    c3119465   3.247   1.895   0.644  0.4425  0.5187 -0.1248
 4503poe     o219466   3.186   1.840   0.530 -0.4971  0.2458  0.4991
 4503poe    c2319467   3.066   1.770   0.555 -0.5533  0.2026  0.1139
 4503poe    c2319468   2.979   1.770   0.428  0.0083 -0.8765 -0.2765
 4503poe     o219469   2.934   1.897   0.387 -0.1174 -0.7408  0.2810
 4503poe    c2319470   2.829   1.894   0.293  0.0840 -0.2201  0.0388
 4503poe    c2319471   2.868   1.879   0.145 -0.2739  0.1754 -0.0991
 4503poe     o219472   2.961   1.964   0.080  0.1056 -0.5132 -0.4674
 4503poe    c2319473   3.014   1.904  -0.036 -0.4542 -0.3947 -0.7912
 4503poe    c2319474   3.117   1.979  -0.123 -0.2291 -0.6395 -0.7378
 4503poe     o219475   3.245   1.985  -0.064 -0.5377 -0.3142 -0.0843
 4503poe    c3119476   3.343   1.930  -0.149 -0.0239 -0.5606  0.6604
 4504poe    c3119477   0.805   3.555   3.377  0.1855 -0.1951  0.2519
 4504poe     o219478   0.840   3.684   3.330  0.1196 -0.3436 -0.1994
 4504poe    c2319479   0.805   3.703   3.194  0.3615  1.1319 -0.0641
 4504poe    c2319480   0.662   3.739   3.150  0.1686  0.3968 -0.0506
 4504poe     o219481   0.606   3.856   3.206  0.3757  0.5023 -0.0649
 4504poe    c2319482   0.512   3.904   3.112  0.0281 -0.0944 -0.0242
 4504poe    c2319483   0.372   3.925   3.173 -0.0782  0.4136 -0.4385
 4504poe     o219484   0.312   3.798   3.181 -0.0647  0.3996 -0.5700
 4504poe    c2319485   0.178   3.776   3.217  0.3872 -0.4058  0.6945
 4504poe    c2319486   0.141   3.628   3.196 -0.1778 -0.0969 -0.5706
 4504poe     o219487   0.213   3.530   3.267 -0.1178  0.3609  0.0015
 4504poe    c3119488   0.214   3.530   3.408  0.1077  0.3594  0.0014
 4505poe    c3119489   4.098   3.916   5.584  0.1253 -0.5127 -0.8098
 4505poe     o219490   4.121   3.779   5.560  0.2475 -0.6978  0.2928
 4505poe    c2319491   4.003   3.703   5.566 -0.3159  0.1615  0.3546
 4505poe    c2319492   4.049   3.560   5.601  0.0455  0.2383  0.1962
 4505poe     o219493   4.166   3.533   5.528  0.3238  0.3141  0.6076
 4505poe    c2319494   4.241   3.419   5.562  0.8141  0.3746 -0.2241
 4505poe    c2319495   4.306   3.421   5.702  0.1339 -0.2963  0.1092
 4505poe     o219496   4.362   3.550   5.713 -0.1175 -0.0994 -0.8245
 4505poe    c2319497   4.467   3.553   5.807  0.3373  0.0544 -1.3324
 4505poe    c2319498   4.564   3.673   5.811 -0.0763  0.3681 -0.1042
 4505poe     o219499   4.632   3.683   5.934 -0.1864 -0.2520  0.0125
 4505poe    c3119500   4.757   3.745   5.913 -0.3828  0.1030 -0.1222
 4506poe    c3119501   7.087   6.097   6.493 -0.3802 -0.2502  0.0807
 4506poe     o219502   7.056   6.160   6.370 -0.3624 -0.3707  0.0140
 4506poe    c2319503   6.928   6.218   6.369 -0.2760 -0.1902 -0.5447
 4506poe    c2319504   6.925   6.371   6.391 -0.5146 -0.2801  0.0715
 4506poe     o219505   7.022   6.453   6.329 -0.5717  0.0647  0.4357
 4506poe    c2319506   6.987   6.589   6.323 -0.1770  0.1402 -0.2260
 4506poe    c2319507   7.043   6.679   6.211  0.3790 -0.1800 -0.2079
 4506poe     o219508   6.968   6.642   6.097 -0.3631  0.1093  0.1797
 4506poe    c2319509   7.034   6.706   5.991 -1.0499  0.4001 -0.0750
 4506poe    c2319510   7.010   6.646   5.850 -0.0822  0.2480 -0.1821
 4506poe     o219511   6.892   6.686   5.783 -0.1932 -0.4062 -0.3815
 4506poe    c3119512   6.915   6.684   5.644  1.0590 -0.4369 -0.1898
 4507poe    c3119513   1.749   0.175   6.222 -0.4576  0.0373  0.2194
 4507poe     o219514   1.720   0.233   6.097  0.5695  0.3038  0.0900
 4507poe    c2319515   1.773   0.161   5.988  0.2509 -0.0682  0.1786
 4507poe    c2319516   1.796   0.273   5.885  0.1972 -0.3818 -0.1755
 4507poe     o219517   1.690   0.331   5.812  0.0473 -0.3315  0.0818
 4507poe    c2319518   1.724   0.449   5.743 -0.3211 -0.1084  0.2751
 4507poe    c2319519   1.597   0.493   5.668 -0.2659 -0.2972  0.0701
 4507poe     o219520   1.491   0.504   5.760  0.3171  0.5554  0.6457
 4507poe    c2319521   1.371   0.545   5.699  0.1844 -0.3045  0.3267
 4507poe    c2319522   1.268   0.538   5.813  0.4628  0.4348  0.6297
 4507poe     o219523   1.299   0.424   5.890 -0.1506 -0.3684 -0.2871
 4507poe    c3119524   1.198   0.409   5.987 -0.1042  0.0577 -0.1716
 4508poe    c3119525   5.155   4.778   7.041  0.5837 -0.1086  0.1499
 4508poe     o219526   5.207   4.869   6.948  0.1157  0.1668  0.1528
 4508poe    c2319527   5.100   4.924   6.875 -0.0748 -0.2355  0.1284
 4508poe    c2319528   5.135   5.037   6.777  0.0352 -0.4642 -0.0968
 4508poe     o219529   5.230   5.125   6.832 -0.1043 -0.3396 -0.0560
 4508poe    c2319530   5.290   5.217   6.743  0.5564 -0.2449  0.4749
 4508poe    c2319531   5.398   5.304   6.809  0.3787  0.1630  0.2342
 4508poe     o219532   5.517   5.243   6.857  0.2872  0.1836  0.4883
 4508poe    c2319533   5.593   5.347   6.913  0.1863  0.3432  0.3328
 4508poe    c2319534   5.736   5.302   6.950  0.2659  0.3602  0.0529
 4508poe     o219535   5.755   5.231   7.070  0.3999  0.4179  0.0657
 4508poe    c3119536   5.870   5.153   7.048  0.0347 -0.0983 -0.0329
 4509poe    c3119537   3.183   1.977   4.006  0.3705  0.5584 -0.5175
 4509poe     o219538   3.220   2.009   4.139  0.1330  0.1211 -0.3420
 4509poe    c2319539   3.264   2.142   4.153  0.5875 -0.0502 -0.1311
 4509poe    c2319540   3.156   2.229   4.220  0.3082 -0.5637  0.0871
 4509poe     o219541   3.052   2.242   4.126  0.1035 -0.0266  0.3815
 4509poe    c2319542   2.929   2.286   4.179 -0.1089 -0.0981 -0.0536
 4509poe    c2319543   2.810   2.209   4.117 -0.0510 -0.1347 -0.1190
 4509poe     o219544   2.815   2.072   4.148  0.1274 -0.1874 -0.3734
 4509poe    c2319545   2.701   2.017   4.086 -0.4349  0.3120  0.1969
 4509poe    c2319546   2.664   1.878   4.142  0.1554  0.1870  0.2849
 4509poe     o219547   2.744   1.766   4.113  0.3224  0.3383  0.1584
 4509poe    c3119548   2.744   1.728   3.977  0.0480 -0.6270  0.4243
 4510poe    c3119549   5.631   0.433   2.796  0.4303 -0.4118  0.0058
 4510poe     o219550   5.709   0.550   2.791  0.0380 -0.1731 -0.6461
 4510poe    c2319551   5.617   0.651   2.827  0.1405 -0.1633 -0.4090
 4510poe    c2319552   5.696   0.783   2.840 -0.3927  0.1154  0.0299
 4510poe     o219553   5.814   0.773   2.764 -0.2122 -0.7348  0.4074
 4510poe    c2319554   5.908   0.874   2.789 -0.9667  0.1300 -0.1831
 4510poe    c2319555   5.996   0.919   2.671 -0.3969 -0.3145  0.0639
 4510poe     o219556   6.036   0.797   2.613  0.6710 -0.3274  0.7972
 4510poe    c2319557   6.120   0.829   2.504 -0.3312 -0.1331  0.0607
 4510poe    c2319558   6.181   0.690   2.478  0.5779  0.3210 -0.2698
 4510poe     o219559   6.081   0.598   2.441  0.6793  0.1861 -0.2071
 4510poe    c3119560   6.124   0.475   2.386  0.1595 -0.2007  0.2294
 4511poe    c3119561   0.266   4.566   1.478  0.0301  0.1561 -0.2949
 4511poe     o219562   0.268   4.469   1.376 -0.1004 -0.0160 -0.1357
 4511poe    c2319563   0.137   4.419   1.364 -0.1871  0.3321 -0.6536
 4511poe    c2319564   0.127   4.292   1.278  0.7529 -0.0133 -0.2706
 4511poe     o219565   0.167   4.329   1.148  0.9413 -0.5437 -0.3622
 4511poe    c2319566   0.064   4.300   1.056  0.0210  0.5152  0.3250
 4511poe    c2319567   0.087   4.349   0.912 -0.6249  0.1283  0.0888
 4511poe     o219568   0.073   4.488   0.892  0.2499  0.1253 -0.6260
 4511poe    c2319569   0.063   4.541   0.762  0.0488  0.2062 -0.5782
 4511poe    c2319570  -0.028   4.662   0.737 -0.3301  0.0809  0.1588
 4511poe     o219571  -0.023   4.701   0.601 -1.3899  0.6080  0.2659
 4511poe    c3119572  -0.121   4.644   0.517 -0.4703 -0.3578 -0.1573
 4512poe    c3119573   5.087   4.678   3.106  0.4390 -0.4195 -0.0716
 4512poe     o219574   5.009   4.748   3.012  0.2523 -0.4862  0.0349
 4512poe    c2319575   4.956   4.874   3.046 -0.0791 -0.5885 -0.0980
 4512poe    c2319576   4.854   4.927   2.943  0.0526 -0.2242 -0.0425
 4512poe     o219577   4.729   4.862   2.954 -0.1590  0.1215 -0.4039
 4512poe    c2319578   4.623   4.954   2.935  0.0650  0.5092  0.2006
 4512poe    c2319579   4.578   4.958   2.788 -0.3986 -0.4136  0.3050
 4512poe     o219580   4.535   4.833   2.740  0.2316 -0.4782 -0.1064
 4512poe    c2319581   4.575   4.814   2.606  0.2155  0.1434 -0.2007
 4512poe    c2319582   4.536   4.680   2.542  0.5721  0.0126 -0.1445
 4512poe     o219583   4.571   4.553   2.593  0.7424 -0.3409 -1.1129
 4512poe    c3119584   4.491   4.451   2.538 -0.0586 -0.6239  0.5187
 4513poe    c3119585   4.297   4.854   3.138 -0.4804  0.7604 -0.3939
 4513poe     o219586   4.249   4.947   3.233 -0.3820 -0.3069  0.7268
 4513poe    c2319587   4.372   4.998   3.279 -0.1259 -0.1709 -0.0957
 4513poe    c2319588   4.373   4.971   3.430 -0.0407 -0.0517 -0.0753
 4513poe     o219589   4.267   5.041   3.491 -0.3196 -0.4803 -0.0638
 4513poe    c2319590   4.262   4.996   3.625  0.0756  0.0654  0.1389
 4513poe    c2319591   4.139   4.912   3.664 -0.2405  0.3904 -0.1400
 4513poe     o219592   4.018   4.981   3.643 -0.5177 -0.3055 -0.8543
 4513poe    c2319593   3.912   4.930   3.721 -0.2385  0.7326  0.2247
 4513poe    c2319594   3.781   4.968   3.650 -0.4122 -0.4842 -0.1331
 4513poe     o219595   3.777   4.894   3.531  0.6323  0.2732 -0.6629
 4513poe    c3119596   3.647   4.854   3.493  0.3997 -0.1871  0.5702
 4514poe    c3119597   5.778   6.374   3.449  0.1036 -0.6828  0.5571
 4514poe     o219598   5.868   6.319   3.355  0.5104  0.1328  0.4597
 4514poe    c2319599   5.962   6.422   3.335  0.5038  0.1051  0.2900
 4514poe    c2319600   6.049   6.379   3.215  0.2389 -0.2130  0.2080
 4514poe     o219601   6.099   6.254   3.257  0.8571  0.1757  0.6474
 4514poe    c2319602   6.160   6.168   3.163  0.4354  0.2966  0.2601
 4514poe    c2319603   6.162   6.023   3.216  0.1595  0.0181 -0.4743
 4514poe     o219604   6.040   5.971   3.262  0.3727 -0.3322 -0.3044
 4514poe    c2319605   6.049   5.834   3.296 -0.2055 -0.4551 -0.6269
 4514poe    c2319606   5.927   5.788   3.377  0.1602 -0.4991 -0.0944
 4514poe     o219607   5.805   5.796   3.307 -0.3590 -0.4390  0.7928
 4514poe    c3119608   5.740   5.670   3.310 -1.0486 -0.1622 -1.0112
 4515poe    c3119609   1.709   5.099   0.017  0.5117 -0.8687 -0.1705
 4515poe     o219610   1.848   5.106   0.038  0.4749  0.4481 -0.2734
 4515poe    c2319611   1.899   5.235   0.013 -0.2355  0.8877  0.5292
 4515poe    c2319612   2.052   5.231   0.030 -0.2030 -0.5507  0.0364
 4515poe     o219613   2.075   5.185   0.161 -0.2407  0.2492  0.3302
 4515poe    c2319614   2.211   5.158   0.183 -0.2831 -0.0602  0.2149
 4515poe    c2319615   2.221   5.092   0.322 -0.5412  0.2876  0.4002
 4515poe     o219616   2.185   4.955   0.324  0.0102  0.1376  0.3989
 4515poe    c2319617   2.216   4.898   0.449  0.1734 -0.0292  0.2819
 4515poe    c2319618   2.160   4.754   0.456 -0.3320  0.1531  0.0751
 4515poe     o219619   2.239   4.653   0.399 -0.0999  0.5010 -0.2214
 4515poe    c3119620   2.269   4.661   0.261 -0.6695  0.6692 -0.3376
 4516poe    c3119621   7.450   5.672   5.972  0.2613  0.8380  0.0841
 4516poe     o219622   7.428   5.772   5.874  0.0484  0.2965 -0.4279
 4516poe    c2319623   7.486   5.738   5.750  0.0754  0.2702 -0.4079
 4516poe    c2319624   7.471   5.824   5.624 -0.3854  0.4554 -0.2276
 4516poe     o219625   7.582   5.911   5.628 -0.2027  0.2063  0.1382
 4516poe    c2319626   7.603   5.983   5.509  0.4525 -0.2244 -0.0106
 4516poe    c2319627   7.692   6.107   5.526 -0.1090  0.1961 -0.1085
 4516poe     o219628   7.644   6.202   5.618 -1.1100 -0.0912 -0.3297
 4516poe    c2319629   7.691   6.331   5.588  0.2131 -0.4384  0.2083
 4516poe    c2319630   7.628   6.440   5.676 -0.3674 -0.4432 -0.1963
 4516poe     o219631   7.645   6.428   5.816 -0.1756  0.3403 -0.1442
 4516poe    c3119632   7.575   6.520   5.896  0.2312  0.6502 -0.1409
 4517poe    c3119633   2.853   6.767   0.098  0.0420 -0.1924  0.4385
 4517poe     o219634   2.909   6.887   0.050 -0.6456 -0.1980 -0.3937
 4517poe    c2319635   2.872   6.907  -0.085 -0.3861 -0.5447 -0.5175
 4517poe    c2319636   2.893   7.047  -0.145  0.1384 -0.3247  0.1593
 4517poe     o219637   3.023   7.098  -0.163  0.0016  0.2296  0.7276
 4517poe    c2319638   3.036   7.179  -0.277  0.5121 -0.2337  0.4532
 4517poe    c2319639   3.163   7.266  -0.284  0.1127  0.3361  0.2166
 4517poe     o219640   3.284   7.196  -0.298 -0.2710 -0.1654 -0.7317
 4517poe    c2319641   3.378   7.302  -0.302 -0.5305  0.1272  0.4472
 4517poe    c2319642   3.522   7.268  -0.257 -0.3815 -0.0598 -0.1614
 4517poe     o219643   3.527   7.250  -0.118  0.4313 -0.0690 -0.1861
 4517poe    c3119644   3.601   7.349  -0.049  0.1419 -0.1011  0.1784
 4518poe    c3119645   3.053   5.510   4.477  0.1029  0.1447 -0.1598
 4518poe     o219646   2.953   5.417   4.441  0.2280  0.1729 -0.5953
 4518poe    c2319647   2.963   5.294   4.510 -0.3892  0.3067 -0.2597
 4518poe    c2319648   2.833   5.211   4.501 -0.3191  0.1078  0.5006
 4518poe     o219649   2.733   5.263   4.585 -0.3132  0.4760  0.2820
 4518poe    c2319650   2.613   5.205   4.540 -0.0470  0.1951 -0.0712
 4518poe    c2319651   2.500   5.290   4.600  0.3945  0.4995  0.3354
 4518poe     o219652   2.499   5.417   4.539  0.4130  0.3024 -0.0725
 4518poe    c2319653   2.366   5.440   4.497  0.0769 -0.1762  0.6954
 4518poe    c2319654   2.387   5.484   4.350 -0.3435  0.1766  0.7377
 4518poe     o219655   2.395   5.624   4.338  0.2555  0.0878  0.0682
 4518poe    c3119656   2.373   5.659   4.203 -0.7771 -0.3827  0.1039
 4519poe    c3119657   7.550   4.195   2.048 -0.1705 -0.4666 -0.2202
 4519poe     o219658   7.635   4.087   2.014  0.3674 -0.0901 -0.0872
 4519poe    c2319659   7.586   4.022   1.898 -0.7416  0.4462  0.0685
 4519poe    c2319660   7.602   3.871   1.919  0.0939  0.5376  0.1222
 4519poe     o219661   7.539   3.843   2.041 -0.0273  0.3020  0.0070
 4519poe    c2319662   7.512   3.707   2.068 -0.0856  0.3950  0.4342
 4519poe    c2319663   7.449   3.694   2.208  0.6236 -0.7822  0.6565
 4519poe     o219664   7.545   3.743   2.299  0.3153  0.5191  0.3001
 4519poe    c2319665   7.554   3.682   2.426  0.3854 -0.2681 -0.0758
 4519poe    c2319666   7.637   3.759   2.530  0.1968 -0.1302 -0.0264
 4519poe     o219667   7.609   3.895   2.501 -0.0628 -0.1683  0.0414
 4519poe    c3119668   7.687   3.983   2.579  0.1020 -0.1705 -0.1213
 4520poe    c3119669   1.540   6.088   4.913  0.3736 -0.7634 -0.2075
 4520poe     o219670   1.607   6.130   5.030 -0.7356  0.1421  0.1265
 4520poe    c2319671   1.527   6.181   5.134  0.1960  0.7426  0.5680
 4520poe    c2319672   1.464   6.320   5.110 -0.4445  0.3582 -0.0393
 4520poe     o219673   1.358   6.348   5.022  0.2468 -0.1612 -1.0545
 4520poe    c2319674   1.385   6.476   4.968  0.3741  0.3096  0.1036
 4520poe    c2319675   1.427   6.467   4.820 -0.2638  0.7461 -0.1031
 4520poe     o219676   1.355   6.370   4.748  0.1723  0.0654  0.3759
 4520poe    c2319677   1.443   6.306   4.659  0.1057  0.3254  0.1232
 4520poe    c2319678   1.377   6.251   4.531 -0.3687  0.4749  0.3009
 4520poe     o219679   1.283   6.146   4.542  0.4612 -0.2871  0.2366
 4520poe    c3119680   1.251   6.124   4.406 -0.2391  0.2836  0.3039
 4521poe    c3119681   0.067   2.569   4.188  0.3654 -0.0736  0.5847
 4521poe     o219682   0.020   2.691   4.137  0.5884 -0.0334  0.4753
 4521poe    c2319683  -0.077   2.723   4.234 -0.4410 -0.1839 -0.4971
 4521poe    c2319684  -0.129   2.866   4.209  0.7209  0.3200 -0.0845
 4521poe     o219685  -0.124   2.874   4.068  0.0832  0.2442 -0.1131
 4521poe    c2319686  -0.228   2.957   4.020  0.2392  0.5376  0.0533
 4521poe    c2319687  -0.231   2.940   3.867  0.0792  0.7401  0.0336
 4521poe     o219688  -0.104   2.962   3.811  0.1417 -0.8438 -0.4941
 4521poe    c2319689  -0.093   2.989   3.672 -0.0821 -0.1222 -0.3760
 4521poe    c2319690  -0.111   2.868   3.579  0.1878  0.2237 -0.8805
 4521poe     o219691  -0.001   2.780   3.570  0.0156 -0.0780 -0.1693
 4521poe    c3119692  -0.029   2.663   3.496 -1.0633  0.1065 -0.0572
 4522poe    c3119693   1.070   0.189   3.517  0.7341 -0.6468  0.7430
 4522poe     o219694   1.126   0.192   3.388 -0.6634  0.1333  0.1365
 4522poe    c2319695   1.266   0.184   3.377 -0.6451  0.2210  0.3001
 4522poe    c2319696   1.300   0.181   3.227 -1.0488  0.4079  0.2050
 4522poe     o219697   1.243   0.299   3.174 -0.9464  0.4371  0.1591
 4522poe    c2319698   1.261   0.301   3.034 -0.2960 -0.0960  0.2304
 4522poe    c2319699   1.196   0.430   2.981 -0.9618 -0.2545  0.6420
 4522poe     o219700   1.226   0.539   3.065 -0.0250  0.1352 -0.1676
 4522poe    c2319701   1.152   0.651   3.023  0.0013  0.2419  0.0666
 4522poe    c2319702   1.197   0.769   3.111  0.0665  0.3913 -0.1656
 4522poe     o219703   1.149   0.749   3.242  0.0904  0.1160 -0.1983
 4522poe    c3119704   1.212   0.827   3.341 -0.0323  0.0559 -0.0726
 4523poe    c3119705   5.068   7.167   2.141 -0.0202 -1.0481 -0.7016
 4523poe     o219706   5.056   7.174   2.281 -0.1821 -0.1609 -0.7537
 4523poe    c2319707   4.921   7.156   2.319  0.0442 -0.0210  0.1464
 4523poe    c2319708   4.910   7.105   2.464  0.2007 -0.1461  0.1156
 4523poe     o219709   4.955   7.213   2.542  0.3683  0.0334 -0.2246
 4523poe    c2319710   4.947   7.212   2.683 -0.4297  0.0821 -0.2614
 4523poe    c2319711   5.044   7.319   2.735 -0.1927 -0.3042  0.1019
 4523poe     o219712   5.183   7.300   2.740 -0.0690  0.4872 -0.0697
 4523poe    c2319713   5.227   7.204   2.834  0.0816  0.2688 -0.3615
 4523poe    c2319714   5.368   7.232   2.888  0.0744  0.0186 -0.2126
 4523poe     o219715   5.456   7.254   2.779 -0.0903  0.6912 -0.2114
 4523poe    c3119716   5.501   7.139   2.711 -0.6037 -0.2312  0.9759
 4524poe    c3119717   1.865   7.532   7.318 -0.3597  0.3131 -0.3014
 4524poe     o219718   1.801   7.581   7.434 -0.8859 -0.4225 -0.2747
 4524poe    c2319719   1.847   7.497   7.537 -0.4137  0.1193 -0.0417
 4524poe    c2319720   1.828   7.551   7.680  0.5125 -0.3029  0.2537
 4524poe     o219721   1.861   7.687   7.695  0.0419 -0.1275 -0.2319
 4524poe    c2319722   1.792   7.725   7.812 -0.3895  0.0858 -0.5566
 4524poe    c2319723   1.836   7.870   7.842 -0.0329 -0.1917  0.2864
 4524poe     o219724   1.778   7.972   7.764 -0.2272 -0.0429  0.6218
 4524poe    c2319725   1.844   8.096   7.780 -0.5842  0.1768  0.4046
 4524poe    c2319726   1.771   8.215   7.715 -0.0364  0.3578  0.1114
 4524poe     o219727   1.753   8.191   7.577 -0.0050 -0.0697  0.1797
 4524poe    c3119728   1.691   8.307   7.527  0.5850  0.2006  0.0728
 4525poe    c3119729   6.983   5.862   6.190  0.0009 -0.0565  0.2552
 4525poe     o219730   6.995   5.868   6.050 -0.2813  0.3660  0.2481
 4525poe    c2319731   6.873   5.812   6.005 -0.2173  0.4037  0.0236
 4525poe    c2319732   6.897   5.738   5.872 -0.6447  0.1790  0.0704
 4525poe     o219733   6.964   5.826   5.784 -0.4418 -0.0765 -0.0313
 4525poe    c2319734   7.018   5.768   5.667  0.2513  0.1077  0.1972
 4525poe    c2319735   7.028   5.881   5.563 -0.7252 -0.0750 -0.1064
 4525poe     o219736   7.112   5.983   5.613  0.6334 -1.0150 -0.3970
 4525poe    c2319737   7.155   6.063   5.506 -0.8177  0.2759 -0.0500
 4525poe    c2319738   7.207   6.195   5.566  0.6861 -0.1868 -0.3070
 4525poe     o219739   7.125   6.256   5.663  0.4531  0.1134 -0.6922
 4525poe    c3119740   7.189   6.366   5.722  0.1320 -0.1379  0.1401
 4526poe    c3119741   6.956   5.342   7.460 -0.2152 -0.0486  0.3405
 4526poe     o219742   7.025   5.366   7.580  0.0250  0.5033  0.0964
 4526poe    c2319743   7.072   5.249   7.643  0.4162  0.7464  0.2574
 4526poe    c2319744   7.088   5.284   7.793 -0.1914  0.2598  0.4397
 4526poe     o219745   6.969   5.337   7.846 -0.1462  0.3888  0.4135
 4526poe    c2319746   6.985   5.360   7.984  0.5357 -0.1155  0.4234
 4526poe    c2319747   6.847   5.396   8.042  0.6883  0.4686  0.4271
 4526poe     o219748   6.801   5.513   7.978 -0.3387 -0.7528 -1.1127
 4526poe    c2319749   6.668   5.526   8.023  0.0516 -0.0862 -0.1251
 4526poe    c2319750   6.622   5.672   8.001 -0.1461 -0.1875 -0.3921
 4526poe     o219751   6.649   5.699   7.865  0.1073 -0.2478 -0.3545
 4526poe    c3119752   6.582   5.814   7.819  0.3186 -0.0531 -0.1776
 4527poe    c3119753   1.162   7.051   6.928 -0.1090 -0.3362  0.3083
 4527poe     o219754   1.044   7.070   7.002 -0.0264 -0.4105  0.4623
 4527poe    c2319755   1.031   7.211   6.999 -0.1047 -0.4195  0.3777
 4527poe    c2319756   0.923   7.244   7.103  0.1460  0.3085  0.4136
 4527poe     o219757   0.942   7.171   7.223  0.1518  0.0646  0.2656
 4527poe    c2319758   0.839   7.181   7.319 -0.0051  0.0364  0.1010
 4527poe    c2319759   0.863   7.089   7.439 -0.4865  0.2161  0.3380
 4527poe     o219760   0.879   6.951   7.414 -0.6012  0.2804 -0.1001
 4527poe    c2319761   0.896   6.878   7.534  1.2989  0.1109 -0.4352
 4527poe    c2319762   0.913   6.727   7.509 -0.1248 -0.0985 -0.2379
 4527poe     o219763   1.046   6.732   7.462 -0.0512  0.2315 -0.0014
 4527poe    c3119764   1.098   6.603   7.442  0.6618  0.5719 -0.3778
 4528poe    c3119765   2.282   7.325   0.398  0.0497 -0.2315 -0.3581
 4528poe     o219766   2.246   7.194   0.361 -0.1548 -0.3476  0.2449
 4528poe    c2319767   2.332   7.141   0.262 -0.0115 -0.3010  0.3438
 4528poe    c2319768   2.451   7.059   0.314  0.0731 -0.3469  0.0753
 4528poe     o219769   2.558   7.132   0.371  0.0402 -0.2286 -0.0139
 4528poe    c2319770   2.661   7.156   0.278 -0.0551 -0.6868 -0.2428
 4528poe    c2319771   2.765   7.253   0.336 -0.4547 -0.5955  0.3264
 4528poe     o219772   2.779   7.223   0.473  0.6412 -0.4585  0.2594
 4528poe    c2319773   2.884   7.296   0.533  0.4551 -0.0694  0.1194
 4528poe    c2319774   2.871   7.273   0.685  0.6373  0.3354  0.1962
 4528poe     o219775   2.744   7.329   0.711  0.4230 -0.2964  0.5306
 4528poe    c3119776   2.710   7.315   0.847  0.2019  0.0844  0.5154
 4529poe    c3119777   4.898   5.702   1.003  0.4565 -0.1671 -0.0702
 4529poe     o219778   4.924   5.837   0.974  0.0509 -0.0618  0.0471
 4529poe    c2319779   5.063   5.851   0.957  0.0322 -0.2802 -0.2974
 4529poe    c2319780   5.119   5.994   0.947 -0.6656  0.0119 -0.0325
 4529poe     o219781   5.145   6.044   0.818 -0.2117 -0.0266  0.0429
 4529poe    c2319782   5.191   6.177   0.816 -0.7051  0.1485  0.3102
 4529poe    c2319783   5.315   6.234   0.887 -0.4256  0.1461 -0.1741
 4529poe     o219784   5.310   6.244   1.028  0.1052  0.3879 -0.1692
 4529poe    c2319785   5.431   6.295   1.078  0.2128  0.0777 -0.1137
 4529poe    c2319786   5.428   6.333   1.227  0.2776  0.5594 -0.2323
 4529poe     o219787   5.348   6.446   1.256  0.3102  0.5075  0.0637
 4529poe    c3119788   5.349   6.473   1.394  0.2762  0.2979  0.1060
 4530poe    c3119789   0.085   4.751   1.977  0.2206 -0.0152  0.1985
 4530poe     o219790  -0.029   4.810   2.036  0.3506 -0.5388  0.9745
 4530poe    c2319791  -0.128   4.710   2.054 -0.6492  0.1364 -0.6083
 4530poe    c2319792  -0.232   4.774   2.148  0.0928  0.2907  0.1210
 4530poe     o219793  -0.296   4.886   2.092 -0.0451  0.0433 -0.2209
 4530poe    c2319794  -0.415   4.896   2.168  0.5576 -0.0366  0.7442
 4530poe    c2319795  -0.520   4.981   2.094  0.8913 -0.7366 -0.5719
 4530poe     o219796  -0.472   5.108   2.056  0.1064 -0.4350 -0.5707
 4530poe    c2319797  -0.575   5.200   2.028  0.3122  0.2047  0.6817
 4530poe    c2319798  -0.530   5.308   1.927  0.0825 -0.2030  0.1367
 4530poe     o219799  -0.523   5.268   1.792 -0.5585  0.4038 -0.0823
 4530poe    c3119800  -0.597   5.350   1.705 -0.5393 -0.5194 -0.9795
 4531poe    c3119801   3.723   4.391   7.195 -0.1047  0.1485 -0.5562
 4531poe     o219802   3.593   4.444   7.184 -0.0761  0.3662  0.1542
 4531poe    c2319803   3.490   4.394   7.265 -0.2357 -0.0614 -0.3132
 4531poe    c2319804   3.458   4.248   7.227 -0.3755 -0.2168  0.3896
 4531poe     o219805   3.371   4.244   7.116 -0.0027 -0.0832  0.0945
 4531poe    c2319806   3.382   4.115   7.058 -0.1631  0.0582 -0.2518
 4531poe    c2319807   3.288   4.090   6.939  0.1164 -0.6127 -0.3334
 4531poe     o219808   3.351   4.137   6.821 -0.4006 -0.0408 -0.3854
 4531poe    c2319809   3.367   4.029   6.732 -0.5997 -0.7132  0.3840
 4531poe    c2319810   3.413   4.067   6.590 -0.0790 -0.0936  0.7185
 4531poe     o219811   3.312   4.112   6.504  0.3701 -0.1152  0.1777
 4531poe    c3119812   3.355   4.141   6.373 -0.3734 -1.0537 -0.2892
 4532poe    c3119813   0.638   1.157   7.235 -0.3708  0.2638  0.1914
 4532poe     o219814   0.587   1.162   7.104 -0.2912  0.5419  0.1694
 4532poe    c2319815   0.689   1.212   7.021 -0.0824 -0.0861  0.0400
 4532poe    c2319816   0.628   1.238   6.882 -0.5910  0.0654  0.2913
 4532poe     o219817   0.626   1.121   6.803  0.2749 -0.0051  0.3647
 4532poe    c2319818   0.734   1.053   6.745 -0.1073 -0.3181  0.0117
 4532poe    c2319819   0.707   0.901   6.751 -0.1155 -0.3132  0.0967
 4532poe     o219820   0.646   0.869   6.627 -0.0672  0.4771 -0.1417
 4532poe    c2319821   0.608   0.733   6.630 -0.2082  0.5145 -0.2344
 4532poe    c2319822   0.594   0.682   6.486 -0.3835 -0.7173  0.2037
 4532poe     o219823   0.478   0.725   6.418 -0.1490 -0.4939 -0.0617
 4532poe    c3119824   0.504   0.776   6.290 -0.3592  0.5521  0.3049
 4533poe    c3119825   3.021   6.470   3.309 -0.1413 -0.8544 -0.2574
 4533poe     o219826   3.159   6.500   3.315 -0.3452 -0.0142  0.5478
 4533poe    c2319827   3.231   6.381   3.290  0.0698  0.3583 -0.0467
 4533poe    c2319828   3.258   6.290   3.411 -0.1881  0.1638 -0.1339
 4533poe     o219829   3.368   6.337   3.485  0.0654 -0.1730 -0.2929
 4533poe    c2319830   3.377   6.248   3.594  0.2194  0.4275  0.1934
 4533poe    c2319831   3.499   6.277   3.683  0.5694  0.0279 -0.1500
 4533poe     o219832   3.483   6.360   3.796 -0.2483 -0.7537  0.3205
 4533poe    c2319833   3.594   6.355   3.884 -0.0427 -0.2439  0.0943
 4533poe    c2319834   3.577   6.423   4.021  0.4435 -0.7398  0.4013
 4533poe     o219835   3.470   6.371   4.097  0.0160 -0.0768  0.2551
 4533poe    c3119836   3.463   6.429   4.225  0.0612  0.3907  0.0490
 4534poe    c3119837   4.847   0.183   5.992  0.7103  0.3672  0.1708
 4534poe     o219838   4.871   0.104   6.106 -0.0577 -0.1203 -0.0011
 4534poe    c2319839   4.926  -0.024   6.084  0.5136  0.1412 -0.1131
 4534poe    c2319840   4.896  -0.123   6.198 -0.4265  0.4246 -0.0979
 4534poe     o219841   4.973  -0.100   6.315 -0.0128 -0.1689 -0.2489
 4534poe    c2319842   4.945  -0.204   6.406  0.3128 -0.1964 -0.1799
 4534poe    c2319843   5.027  -0.187   6.535 -0.2684 -0.2766  0.2064
 4534poe     o219844   5.163  -0.165   6.504 -0.2782 -0.3506  0.1132
 4534poe    c2319845   5.241  -0.175   6.621 -0.1864 -0.1281  0.0724
 4534poe    c2319846   5.327  -0.302   6.629 -0.2973 -0.2083 -0.0114
 4534poe     o219847   5.277  -0.432   6.651  0.0575 -0.2738  0.4415
 4534poe    c3119848   5.203  -0.493   6.547  0.7805 -0.3225 -0.0455
 4535poe    c3119849   3.933   2.587   4.845 -0.3164 -1.1803  0.1082
 4535poe     o219850   4.049   2.522   4.894  0.6554  0.1612 -0.3384
 4535poe    c2319851   4.045   2.388   4.849  0.7722  0.1915 -0.4390
 4535poe    c2319852   4.178   2.325   4.804  0.3632 -0.7551 -0.3440
 4535poe     o219853   4.266   2.286   4.907  0.1140  0.4885  0.3606
 4535poe    c2319854   4.337   2.173   4.862 -0.7274  0.0403  0.1411
 4535poe    c2319855   4.458   2.127   4.946 -0.3933 -0.1511 -0.4371
 4535poe     o219856   4.565   2.217   4.927 -0.3188 -0.3564 -1.0061
 4535poe    c2319857   4.682   2.162   4.982 -0.0922  0.7477 -0.3574
 4535poe    c2319858   4.793   2.268   4.974  0.1616  0.4630 -0.6206
 4535poe     o219859   4.787   2.364   5.077 -0.1067  0.0909 -0.2901
 4535poe    c3119860   4.903   2.441   5.096 -0.1822  0.1043  0.1245
 4536poe    c3119861   3.811   0.646   1.677  0.0783 -0.4054 -0.4933
 4536poe     o219862   3.880   0.685   1.561  0.5172  0.5545  0.0741
 4536poe    c2319863   3.789   0.730   1.464  0.0232 -0.5505  0.0092
 4536poe    c2319864   3.838   0.761   1.321  0.0768 -0.0116  0.1431
 4536poe     o219865   3.927   0.871   1.318 -0.1881  0.1944 -0.2196
 4536poe    c2319866   3.884   0.979   1.239 -0.1913  0.1867 -0.2282
 4536poe    c2319867   3.992   1.084   1.207  0.3669 -0.2695  0.1406
 4536poe     o219868   3.965   1.199   1.286  0.2878 -0.1530 -0.0559
 4536poe    c2319869   4.079   1.281   1.295  0.3786 -0.3168  0.2906
 4536poe    c2319870   4.071   1.433   1.319  0.1472 -0.2143 -0.4071
 4536poe     o219871   4.024   1.450   1.451  0.2386 -0.3703 -0.3542
 4536poe    c3119872   4.122   1.478   1.549  0.2142 -0.4804 -0.2984
 4537poe    c3119873   5.644   7.619   6.521 -0.0621 -0.4711 -0.0354
 4537poe     o219874   5.576   7.530   6.435 -0.3568 -0.4302  0.1541
 4537poe    c2319875   5.655   7.429   6.377  0.0495  0.1656 -0.3407
 4537poe    c2319876   5.568   7.319   6.313  0.2455 -0.1503 -0.0652
 4537poe     o219877   5.511   7.345   6.186  0.3840  0.9076  0.0818
 4537poe    c2319878   5.400   7.432   6.196 -0.4836 -0.1436 -0.1697
 4537poe    c2319879   5.418   7.519   6.070  0.2332 -0.3527 -0.2201
 4537poe     o219880   5.519   7.616   6.053  0.3079 -0.4018 -0.0496
 4537poe    c2319881   5.650   7.571   6.025  0.5470  0.1035  0.2357
 4537poe    c2319882   5.747   7.690   6.016  0.4487  0.1371 -0.4175
 4537poe     o219883   5.793   7.715   6.147  0.1722 -0.7178 -0.1472
 4537poe    c3119884   5.862   7.837   6.163 -0.7526 -0.1077 -0.6961
 4538poe    c3119885   3.431   6.045   7.383 -0.4868 -0.1208 -0.3240
 4538poe     o219886   3.517   5.987   7.287  0.1430  0.2783 -0.0117
 4538poe    c2319887   3.527   6.072   7.175  0.1906  0.1868 -0.0766
 4538poe    c2319888   3.530   6.006   7.036 -0.1513  0.3633 -0.1699
 4538poe     o219889   3.658   5.966   6.994 -0.0208  0.6813 -0.0760
 4538poe    c2319890   3.636   5.914   6.864  0.2921  0.6070 -0.0987
 4538poe    c2319891   3.767   5.855   6.808 -0.3561 -0.6866 -0.2857
 4538poe     o219892   3.848   5.934   6.724 -0.3525 -0.2795  0.1018
 4538poe    c2319893   3.790   5.965   6.599 -0.6905 -0.2818  0.2559
 4538poe    c2319894   3.837   6.085   6.514  0.1318 -0.8287 -0.0723
 4538poe     o219895   3.961   6.089   6.447  0.3965  0.2017  0.4592
 4538poe    c3119896   3.970   6.197   6.356  0.0047 -0.4932 -0.4242
 4539poe    c3119897   6.395   0.274   0.976 -0.1878  0.0669 -0.2549
 4539poe     o219898   6.354   0.399   0.925  0.0773  0.0804 -0.4397
 4539poe    c2319899   6.465   0.460   0.863  0.1649  0.2089 -0.1583
 4539poe    c2319900   6.429   0.532   0.732 -0.2741  0.3049  0.0131
 4539poe     o219901   6.351   0.650   0.744  0.3567  0.7546 -0.2539
 4539poe    c2319902   6.325   0.693   0.612 -0.1706  0.0873 -0.3767
 4539poe    c2319903   6.196   0.774   0.591 -0.3825  0.1136  0.9585
 4539poe     o219904   6.209   0.914   0.598 -0.1580  0.1273  0.3185
 4539poe    c2319905   6.144   0.973   0.488 -0.1039 -0.2083  0.1049
 4539poe    c2319906   6.137   1.125   0.514  0.2529 -0.2576  0.5050
 4539poe     o219907   6.264   1.186   0.511 -0.0585  0.3753  0.0776
 4539poe    c3119908   6.263   1.286   0.411 -0.3555  0.0232 -0.2759
 4540poe    c3119909   3.736   4.224   1.411 -0.0096  0.6609  0.3177
 4540poe     o219910   3.860   4.255   1.471  0.0025  0.0150  0.6371
 4540poe    c2319911   3.858   4.267   1.611  0.3069 -1.1462  0.7510
 4540poe    c2319912   3.993   4.325   1.657  0.1145 -0.1405  0.0899
 4540poe     o219913   4.104   4.271   1.590  0.1948 -0.0676  0.1626
 4540poe    c2319914   4.224   4.329   1.634  0.3058  0.1200 -0.3780
 4540poe    c2319915   4.327   4.269   1.536  0.2746  0.4245 -0.5997
 4540poe     o219916   4.278   4.275   1.404 -0.4157 -0.7134 -0.4010
 4540poe    c2319917   4.389   4.285   1.317 -0.1305 -0.1885  0.0188
 4540poe    c2319918   4.361   4.263   1.167 -0.4126  0.0069  0.0416
 4540poe     o219919   4.252   4.343   1.125  0.1088  0.7988  0.1669
 4540poe    c3119920   4.226   4.348   0.987 -0.4954  0.7541  0.2742
 4541poe    c3119921   4.239   0.544   0.005  0.1915  0.6411 -0.2045
 4541poe     o219922   4.153   0.541   0.117  0.2321  0.2555 -0.1845
 4541poe    c2319923   4.044   0.631   0.112 -0.0723 -0.0558  0.6119
 4541poe    c2319924   3.993   0.660   0.254 -0.0303 -0.1415  0.6449
 4541poe     o219925   3.951   0.543   0.320  0.5007 -0.2809  0.7377
 4541poe    c2319926   3.860   0.560   0.426 -0.1771  0.4240  0.0546
 4541poe    c2319927   3.800   0.425   0.471  0.5542  0.0625 -0.0410
 4541poe     o219928   3.693   0.383   0.389 -0.1615  0.3387  0.7324
 4541poe    c2319929   3.634   0.259   0.422 -0.1204 -0.0406 -0.5771
 4541poe    c2319930   3.732   0.157   0.360  0.4845 -0.0366  0.3555
 4541poe     o219931   3.712   0.137   0.222  0.1998  0.1148  0.3747
 4541poe    c3119932   3.716  -0.000   0.192 -0.0560  0.1247  0.2875
 4542poe    c3119933   2.859   0.386   6.749  0.1423  0.6982 -0.0520
 4542poe     o219934   2.955   0.352   6.651 -0.0812  0.1305 -0.0781
 4542poe    c2319935   2.935   0.403   6.521 -0.3536  0.0011 -0.0866
 4542poe    c2319936   3.034   0.372   6.408  0.5588  0.7739  0.4824
 4542poe     o219937   3.025   0.462   6.300  0.2363  0.3164  0.1228
 4542poe    c2319938   3.089   0.424   6.180 -0.2156 -0.3387  0.0858
 4542poe    c2319939   3.041   0.307   6.091 -0.0460  0.5117 -1.1468
 4542poe     o219940   2.918   0.320   6.023 -0.8130 -0.0896  0.0861
 4542poe    c2319941   2.868   0.188   6.022 -0.0200 -0.3972 -0.0769
 4542poe    c2319942   2.717   0.185   5.995  0.0198 -0.7980 -0.2600
 4542poe     o219943   2.675   0.224   5.866 -0.1369  0.0784  0.0483
 4542poe    c3119944   2.543   0.275   5.866 -0.0696  0.2516 -0.3350
 4543poe    c3119945   7.311   3.279   2.700 -0.0687  0.6679  0.0912
 4543poe     o219946   7.262   3.148   2.680  0.5169  0.5255 -0.4388
 4543poe    c2319947   7.241   3.116   2.544  0.6480 -0.5018 -0.2271
 4543poe    c2319948   7.185   2.973   2.539 -0.2209 -0.1581 -0.3986
 4543poe     o219949   7.052   2.964   2.587  0.0124 -0.7788  0.1386
 4543poe    c2319950   6.994   2.844   2.541 -0.6026 -0.5541  0.3139
 4543poe    c2319951   6.960   2.739   2.648 -0.0465  0.0600  1.1033
 4543poe     o219952   6.857   2.782   2.735 -0.5793  0.2474  0.3927
 4543poe    c2319953   6.858   2.710   2.857 -0.2528 -0.6905 -0.1524
 4543poe    c2319954   6.744   2.736   2.957 -0.0014 -0.0905 -0.0185
 4543poe     o219955   6.759   2.850   3.039  0.1708 -0.1434  0.0239
 4543poe    c3119956   6.675   2.848   3.152  0.4709 -0.3546  0.2481
 4544poe    c3119957   5.325   6.404   2.014  0.2979 -0.0525 -0.0002
 4544poe     o219958   5.303   6.532   2.069 -0.0789  0.0333 -0.3478
 4544poe    c2319959   5.175   6.540   2.127  0.1953  0.1861  0.2439
 4544poe    c2319960   5.172   6.687   2.174  0.0624  0.5627 -0.9122
 4544poe     o219961   5.289   6.727   2.242 -0.2372  0.3240 -0.2477
 4544poe    c2319962   5.251   6.787   2.364 -0.1416 -0.0941 -0.0108
 4544poe    c2319963   5.347   6.757   2.481 -0.7124 -0.2899  0.4151
 4544poe     o219964   5.477   6.804   2.451 -0.8292 -0.0398  0.2924
 4544poe    c2319965   5.567   6.761   2.551 -0.3499 -0.4990 -0.3215
 4544poe    c2319966   5.718   6.783   2.532 -0.3078 -0.5482 -0.0436
 4544poe     o219967   5.767   6.726   2.414 -0.1176 -0.4933  0.0084
 4544poe    c3119968   5.902   6.704   2.450 -0.0179 -0.8365 -0.5463
 4545poe    c3119969   2.141   6.824   7.267  0.3853 -0.4529 -0.1874
 4545poe     o219970   2.267   6.868   7.222  0.2423 -0.3257 -0.4708
 4545poe    c2319971   2.337   6.896   7.341  0.4513  0.1884 -0.7145
 4545poe    c2319972   2.465   6.957   7.280  0.3440  1.1817  0.0256
 4545poe     o219973   2.503   6.893   7.161  0.0608  0.0811  0.5126
 4545poe    c2319974   2.607   6.974   7.109  0.0825 -0.0168  0.4024
 4545poe    c2319975   2.683   6.890   7.005 -0.6261  0.5059 -0.5530
 4545poe     o219976   2.598   6.831   6.909 -0.3640 -0.1257 -0.4026
 4545poe    c2319977   2.665   6.722   6.851  0.3018  0.6016 -1.0114
 4545poe    c2319978   2.562   6.642   6.769  0.6404 -0.4592 -0.4237
 4545poe     o219979   2.508   6.722   6.666 -0.6340 -0.3051  0.3556
 4545poe    c3119980   2.394   6.661   6.609 -0.2906 -0.6307  0.0176
 4546poe    c3119981   2.674   1.509   1.879  0.4565 -0.1921 -0.2822
 4546poe     o219982   2.686   1.445   2.004  0.0499  0.3067  0.0124
 4546poe    c2319983   2.600   1.479   2.111 -0.3254  0.5572 -0.3655
 4546poe    c2319984   2.618   1.618   2.174 -0.4262  0.1263  0.6306
 4546poe     o219985   2.743   1.610   2.239 -0.1043  0.4247  0.0563
 4546poe    c2319986   2.724   1.689   2.355 -0.8337 -0.2975  0.4355
 4546poe    c2319987   2.863   1.711   2.416 -0.4749  0.0735 -0.5071
 4546poe     o219988   2.923   1.590   2.456 -0.2237  0.4540  0.2868
 4546poe    c2319989   3.053   1.599   2.511 -0.0850  0.0168  0.0333
 4546poe    c2319990   3.175   1.670   2.450  0.1713 -0.1963  0.2943
 4546poe     o219991   3.241   1.621   2.336  0.0683  0.8624 -0.2330
 4546poe    c3119992   3.377   1.631   2.372 -0.1775 -0.1014  1.0055
 4547poe    c3119993   7.083   2.926   0.590 -0.3401  0.4214 -0.6786
 4547poe     o219994   7.176   2.967   0.493  0.4938  0.3488  0.0779
 4547poe    c2319995   7.312   2.930   0.503  0.3268 -0.2486  0.1699
 4547poe    c2319996   7.404   2.984   0.392  0.1304 -0.2043  0.0288
 4547poe     o219997   7.463   3.098   0.449  0.0595 -0.2541  0.2017
 4547poe    c2319998   7.547   3.160   0.354  0.0088 -0.4367  0.0383
 4547poe    c2319999   7.480   3.255   0.252 -0.2904 -0.1007  0.5433
 4547poe     o220000   7.429   3.380   0.292 -0.4098 -0.0147  0.1250
 4547poe    c2320001   7.304   3.406   0.233 -0.2708  0.0224 -0.1549
 4547poe    c2320002   7.228   3.520   0.304 -0.4702  0.2532 -0.7371
 4547poe     o220003   7.134   3.462   0.391 -0.4692  0.1801 -0.7849
 4547poe    c3120004   7.067   3.557   0.471 -0.5525 -0.4610 -0.0705
 4548poe    c3120005   0.643   1.283   4.457 -0.2716  0.5902  0.0833
 4548poe     o220006   0.673   1.276   4.320  0.0623  0.7712  0.1463
 4548poe    c2320007   0.802   1.223   4.302 -0.3882 -0.1808 -0.3535
 4548poe    c2320008   0.865   1.261   4.167 -0.0365  0.3475 -0.0482
 4548poe     o220009   1.005   1.245   4.160  0.0043  0.8190 -0.3233
 4548poe    c2320010   1.045   1.146   4.068 -0.3821  0.2999  0.0608
 4548poe    c2320011   1.197   1.143   4.043 -0.4263 -0.3351 -0.1563
 4548poe     o220012   1.240   1.261   3.977 -0.0733 -0.1100  0.4640
 4548poe    c2320013   1.350   1.237   3.891 -0.0267  0.0115  0.4902
 4548poe    c2320014   1.407   1.365   3.828  0.3329 -0.4393 -0.1090
 4548poe     o220015   1.457   1.442   3.936 -0.6413 -0.2211  0.2005
 4548poe    c3120016   1.428   1.579   3.929 -0.4950 -0.2251 -0.6560
 4549poe    c3120017   2.044   0.239   5.273 -0.1737 -0.1659  0.4071
 4549poe     o220018   1.977   0.129   5.329 -0.2022 -0.1407  0.4229
 4549poe    c2320019   2.052   0.076   5.436  0.2601  0.2337  0.2839
 4549poe    c2320020   1.946  -0.016   5.500  0.0816 -0.1070 -0.4934
 4549poe     o220021   1.912  -0.130   5.424 -0.2785 -0.0695 -0.3906
 4549poe    c2320022   1.823  -0.222   5.483 -0.2133 -0.2844 -0.6264
 4549poe    c2320023   1.762  -0.321   5.382 -0.4011 -0.2630 -0.5339
 4549poe     o220024   1.860  -0.396   5.315 -0.1220 -0.2132 -0.1855
 4549poe    c2320025   1.859  -0.535   5.337  0.1344 -0.2693 -0.5084
 4549poe    c2320026   1.961  -0.608   5.247  0.4568  0.0197 -0.3785
 4549poe     o220027   1.900  -0.657   5.130 -0.4316 -0.4102  0.2505
 4549poe    c3120028   1.873  -0.794   5.146 -0.2381 -0.5015 -0.1850
 4550poe    c3120029   2.252   2.190   6.629 -0.0619 -0.1161 -0.4547
 4550poe     o220030   2.210   2.064   6.582 -0.4151  0.0171 -0.5059
 4550poe    c2320031   2.324   1.984   6.557 -0.2185  0.1763 -0.1317
 4550poe    c2320032   2.315   1.890   6.436 -0.2721  0.1406 -0.1000
 4550poe     o220033   2.315   1.954   6.310  0.3115  0.2622 -0.0431
 4550poe    c2320034   2.253   1.873   6.213  0.8580  0.0798 -0.2415
 4550poe    c2320035   2.237   1.936   6.073 -0.0388 -0.4219 -0.3709
 4550poe     o220036   2.128   2.023   6.052  0.4123  0.2844  0.1732
 4550poe    c2320037   2.135   2.054   5.914  0.1261 -0.2164  0.0416
 4550poe    c2320038   2.060   2.182   5.871  0.0875 -0.1688  0.2482
 4550poe     o220039   2.075   2.296   5.953  0.3189 -0.1088  0.1251
 4550poe    c3120040   2.012   2.407   5.893  0.0952  0.0067  0.5666
 4551poe    c3120041   2.688   5.045   0.794  0.3047 -0.2453 -0.0871
 4551poe     o220042   2.704   4.963   0.680 -0.1378  0.4202 -0.6340
 4551poe    c2320043   2.677   4.826   0.698  0.5885  0.3316 -0.1702
 4551poe    c2320044   2.668   4.753   0.563 -0.0170 -0.6999  0.4159
 4551poe     o220045   2.596   4.835   0.474  0.7850 -0.1706  0.2431
 4551poe    c2320046   2.598   4.789   0.341 -0.7130 -0.1602  0.1934
 4551poe    c2320047   2.570   4.906   0.245 -0.6281 -0.3936 -0.1175
 4551poe     o220048   2.674   5.001   0.254 -0.5297 -0.4702 -0.4350
 4551poe    c2320049   2.689   5.076   0.136 -0.1631 -0.1476 -0.1845
 4551poe    c2320050   2.784   5.195   0.162 -0.4403  0.0436 -0.0433
 4551poe     o220051   2.746   5.273   0.273  0.0537  0.0294  0.1411
 4551poe    c3120052   2.725   5.412   0.258 -1.0337 -0.1230  0.1252
 4552poe    c3120053   6.648   5.607   4.240  0.4211  0.6745 -0.1072
 4552poe     o220054   6.712   5.662   4.128  0.5942  0.4002 -0.1433
 4552poe    c2320055   6.709   5.803   4.115  0.6038  0.4223  0.0979
 4552poe    c2320056   6.750   5.852   3.975  0.3892  0.0069 -0.1114
 4552poe     o220057   6.885   5.890   3.966  0.3426  0.2628  0.2612
 4552poe    c2320058   6.990   5.800   3.993 -0.0360 -0.2351  0.0790
 4552poe    c2320059   7.029   5.704   3.879 -0.1109 -0.0783 -0.0783
 4552poe     o220060   7.119   5.765   3.789  0.2151 -0.1397  0.2061
 4552poe    c2320061   7.175   5.683   3.690  0.0443  0.2764 -0.2382
 4552poe    c2320062   7.264   5.738   3.576  0.0421  0.1793 -0.2872
 4552poe     o220063   7.398   5.766   3.611 -0.0027  0.1200 -0.0680
 4552poe    c3120064   7.458   5.838   3.506  0.8396 -0.0176  0.3088
 4553poe    c3120065   5.040   5.366   1.107  0.2237 -0.0316  0.0724
 4553poe     o220066   5.031   5.257   1.018  0.7775  0.2009 -0.2752
 4553poe    c2320067   4.949   5.285   0.907  0.1009 -0.3716  0.0652
 4553poe    c2320068   4.944   5.161   0.816 -0.6966 -0.0519 -0.3359
 4553poe     o220069   4.871   5.052   0.866 -0.1177 -0.1885  0.2268
 4553poe    c2320070   4.734   5.064   0.834 -0.1342 -0.2506  0.2721
 4553poe    c2320071   4.651   4.952   0.898  0.0030 -0.2654  0.4257
 4553poe     o220072   4.661   4.822   0.844  0.0970  0.1418 -0.5558
 4553poe    c2320073   4.766   4.755   0.909 -0.0391  0.0169 -0.4628
 4553poe    c2320074   4.750   4.603   0.886 -0.0497 -0.0401 -0.0838
 4553poe     o220075   4.635   4.532   0.927 -0.0866  0.3132  0.4438
 4553poe    c3120076   4.534   4.557   0.832 -0.3553 -0.9404  0.3866
 4554poe    c3120077   2.352   2.365   6.119  0.2573  0.0488  0.2461
 4554poe     o220078   2.427   2.413   6.010  0.2438 -0.0307  0.2017
 4554poe    c2320079   2.436   2.553   5.994 -0.0728 -0.0637 -0.2865
 4554poe    c2320080   2.514   2.574   5.863  0.0699  0.1169 -0.1733
 4554poe     o220081   2.627   2.493   5.887  0.0411  0.1741  0.1572
 4554poe    c2320082   2.759   2.537   5.868 -0.0911  0.1356 -0.9172
 4554poe    c2320083   2.870   2.430   5.876 -0.0240  0.2966  0.9120
 4554poe     o220084   2.810   2.312   5.828  0.6420  0.1367  0.4599
 4554poe    c2320085   2.874   2.260   5.713  0.3237  0.0482  0.3228
 4554poe    c2320086   2.841   2.118   5.663 -0.2902  0.1112  0.5382
 4554poe     o220087   2.701   2.112   5.641 -0.2463  0.0152  0.2856
 4554poe    c3120088   2.678   1.979   5.602 -0.1986  0.0575  0.1112
 4555poe    c3120089   5.893   1.922   7.523  0.5254 -0.5323  0.1610
 4555poe     o220090   5.983   2.030   7.510 -0.2426  0.0728 -0.1843
 4555poe    c2320091   6.014   2.061   7.376 -0.1906  0.4449 -0.0892
 4555poe    c2320092   6.127   2.162   7.350  0.4913 -0.3194 -0.1607
 4555poe     o220093   6.094   2.296   7.380  0.3009 -0.2719 -0.5770
 4555poe    c2320094   6.215   2.366   7.359  0.0866  0.3132  0.0919
 4555poe    c2320095   6.216   2.513   7.407  0.1388  0.2221  0.3689
 4555poe     o220096   6.208   2.510   7.548 -0.0423 -0.2567  0.3501
 4555poe    c2320097   6.247   2.628   7.612  0.4342 -0.3716  0.2739
 4555poe    c2320098   6.192   2.671   7.750  0.3103  0.4248 -0.0151
 4555poe     o220099   6.057   2.709   7.760  0.1698  0.0593 -0.4952
 4555poe    c3120100   6.055   2.802   7.866  0.9958 -0.2377 -0.2108
 4556poe    c3120101   0.880   6.826   3.349 -0.0938  0.2487  0.2735
 4556poe     o220102   0.869   6.737   3.457 -0.1604  0.0587  0.1094
 4556poe    c2320103   0.731   6.720   3.481 -0.1666 -1.0392 -0.6365
 4556poe    c2320104   0.712   6.591   3.562 -0.8526 -0.4508  0.1491
 4556poe     o220105   0.746   6.611   3.697  0.9904 -0.2727 -0.3242
 4556poe    c2320106   0.739   6.493   3.775 -0.1770 -0.2486 -0.3833
 4556poe    c2320107   0.787   6.515   3.920  0.2172 -0.0768 -0.5391
 4556poe     o220108   0.920   6.560   3.931  0.3267 -0.4677 -0.2584
 4556poe    c2320109   0.986   6.523   4.050  0.2299 -0.0795 -0.0846
 4556poe    c2320110   1.120   6.598   4.052  0.1085  0.1309  0.3561
 4556poe     o220111   1.110   6.721   3.982 -0.1515 -0.0840  0.0151
 4556poe    c3120112   1.218   6.807   4.007 -0.6519  0.4657  0.3298
 4557poe    c3120113   5.097   2.791   3.829 -0.0067 -0.1683  0.0524
 4557poe     o220114   5.184   2.860   3.741 -0.0870 -0.4006 -0.2132
 4557poe    c2320115   5.114   2.914   3.632  0.1008  0.7381  0.2135
 4557poe    c2320116   5.206   2.947   3.513  0.4142 -0.3723  0.1418
 4557poe     o220117   5.297   3.050   3.544 -0.2694  0.3943 -0.3591
 4557poe    c2320118   5.367   3.086   3.427 -0.4882  0.2080 -0.5486
 4557poe    c2320119   5.469   3.201   3.423 -0.1571 -0.0376  0.4394
 4557poe     o220120   5.593   3.161   3.477 -0.1797  0.3188  0.7624
 4557poe    c2320121   5.693   3.217   3.395 -0.5547 -0.3654 -0.1848
 4557poe    c2320122   5.828   3.176   3.458 -0.7043 -0.3418  0.1528
 4557poe     o220123   5.862   3.039   3.455 -0.6471 -0.3233 -0.0661
 4557poe    c3120124   5.990   3.015   3.507 -0.5775 -0.6480 -0.3835
 4558poe    c3120125   3.341   5.020   2.258  0.3576 -0.0668  0.4272
 4558poe     o220126   3.314   5.050   2.393  0.4208 -0.1250  0.4528
 4558poe    c2320127   3.210   4.963   2.431  0.6269 -0.5886 -0.0246
 4558poe    c2320128   3.173   4.954   2.581  0.0361 -0.0076 -0.1279
 4558poe     o220129   3.283   4.902   2.652 -0.3786 -0.6543  0.0402
 4558poe    c2320130   3.273   4.890   2.792  0.7678 -0.3697  0.1556
 4558poe    c2320131   3.250   4.742   2.829  0.1015 -0.1124  0.7991
 4558poe     o220132   3.365   4.665   2.804  0.2885  0.3914  0.0738
 4558poe    c2320133   3.344   4.533   2.848  0.7077  0.3693  0.2119
 4558poe    c2320134   3.469   4.443   2.837  0.5155  0.1079  0.1755
 4558poe     o220135   3.488   4.418   2.699 -0.1415 -0.0006  0.1002
 4558poe    c3120136   3.576   4.310   2.676 -0.0928 -0.0294  0.4109
 4559poe    c3120137   5.057   5.217   1.739  0.0898 -0.4932 -0.3777
 4559poe     o220138   5.172   5.144   1.705  0.1231 -0.5103 -0.2319
 4559poe    c2320139   5.180   5.102   1.570  0.2368 -0.4717 -0.2369
 4559poe    c2320140   5.109   4.967   1.552 -0.6821 -0.0111 -0.1493
 4559poe     o220141   5.151   4.865   1.640 -0.1947  0.1462 -0.1990
 4559poe    c2320142   5.066   4.826   1.745 -0.1357  0.1043 -0.1666
 4559poe    c2320143   5.101   4.679   1.775  0.1686  0.2737  0.3263
 4559poe     o220144   5.235   4.663   1.818  0.0538 -0.1339  0.5345
 4559poe    c2320145   5.264   4.545   1.890  1.0617  0.0346  0.4198
 4559poe    c2320146   5.225   4.574   2.036  0.0428 -0.1615  0.1971
 4559poe     o220147   5.247   4.470   2.129  0.0045 -0.1958  0.1678
 4559poe    c3120148   5.225   4.491   2.266  0.0495  0.3347  0.0968
 4560poe    c3120149   6.479   2.290   3.569  0.0103  0.5105  0.0290
 4560poe     o220150   6.573   2.190   3.600 -0.5103 -0.0462 -0.1709
 4560poe    c2320151   6.701   2.220   3.549 -0.0490  0.1437  1.0554
 4560poe    c2320152   6.811   2.125   3.601  0.4385 -0.0137 -0.2174
 4560poe     o220153   6.819   2.139   3.741  0.0104  0.2463 -0.2169
 4560poe    c2320154   6.920   2.059   3.799 -0.1372  0.3243  0.1506
 4560poe    c2320155   6.942   2.106   3.944 -0.3578 -0.0088  0.2919
 4560poe     o220156   6.818   2.122   4.008 -0.3492 -0.1803  0.3522
 4560poe    c2320157   6.834   2.184   4.134  0.4131 -0.1913  0.2658
 4560poe    c2320158   6.752   2.124   4.250  0.9741 -0.7482  0.3798
 4560poe     o220159   6.773   1.987   4.274 -0.0272 -0.7908  1.0967
 4560poe    c3120160   6.692   1.895   4.203  0.1113 -0.0328 -0.0767
 4561poe    c3120161   2.914   6.426   0.625  0.3731 -0.6169 -0.4260
 4561poe     o220162   2.919   6.476   0.494 -0.5481  0.4403 -0.0756
 4561poe    c2320163   2.846   6.387   0.412 -0.1412  0.0512 -0.0209
 4561poe    c2320164   2.770   6.463   0.302 -0.4633  0.3437  0.4012
 4561poe     o220165   2.657   6.522   0.363 -0.7464 -0.5663  0.7787
 4561poe    c2320166   2.556   6.555   0.270 -0.0190  0.2767  0.2681
 4561poe    c2320167   2.433   6.634   0.316 -0.0088  0.3087  0.2414
 4561poe     o220168   2.351   6.680   0.211  0.0380  0.0397  0.0862
 4561poe    c2320169   2.231   6.748   0.242 -0.0678 -0.0391 -0.1435
 4561poe    c2320170   2.153   6.784   0.115  0.2961  0.0653 -0.3391
 4561poe     o220171   2.051   6.879   0.135  0.1813 -0.0343 -0.4465
 4561poe    c3120172   1.931   6.823   0.185  0.1032 -0.0181 -0.6171
 4562poe    c3120173   0.677   0.296   6.123 -0.1981 -0.6295  0.4073
 4562poe     o220174   0.574   0.285   6.028  0.1578  0.3478 -0.1058
 4562poe    c2320175   0.549   0.148   6.008  0.7704  0.3268 -0.7470
 4562poe    c2320176   0.470   0.152   5.876 -0.4573  0.5506 -0.0187
 4562poe     o220177   0.361   0.240   5.866 -0.4643  0.5399 -0.0376
 4562poe    c2320178   0.312   0.246   5.734 -0.2063  0.2703 -0.1454
 4562poe    c2320179   0.225   0.373   5.726 -0.0839  0.3198 -0.7330
 4562poe     o220180   0.301   0.475   5.787  0.0182 -0.2266  0.0636
 4562poe    c2320181   0.213   0.585   5.798  0.4397  0.0700  0.5100
 4562poe    c2320182   0.267   0.692   5.894  0.4711  0.6343 -0.1307
 4562poe     o220183   0.387   0.738   5.835  0.5230 -0.0251 -0.5451
 4562poe    c3120184   0.427   0.868   5.871  0.1882 -0.1041  0.1326
 4563poe    c3120185   0.600   1.439   2.968  0.1185 -0.0997  0.3467
 4563poe     o220186   0.565   1.500   2.846 -0.4456  0.1121  0.6121
 4563poe    c2320187   0.565   1.408   2.739 -0.1191  0.3776  0.3819
 4563poe    c2320188   0.477   1.460   2.625  0.2525 -0.1352 -0.1479
 4563poe     o220189   0.496   1.597   2.596  0.0265  0.0172  0.4055
 4563poe    c2320190   0.412   1.658   2.500  0.1937  0.1469  0.3416
 4563poe    c2320191   0.486   1.784   2.451  0.2250 -0.0000  0.0132
 4563poe     o220192   0.518   1.876   2.553 -0.1678  0.1003  0.0460
 4563poe    c2320193   0.590   1.991   2.516 -0.1965  0.1473  0.1347
 4563poe    c2320194   0.621   2.062   2.649 -0.3881  0.3191  0.0884
 4563poe     o220195   0.713   1.979   2.717 -0.1539  0.1053 -0.4741
 4563poe    c3120196   0.812   2.063   2.772  0.1534 -0.5947  0.0628
 4564poe    c3120197   0.579   5.293   3.548  1.2125 -0.8074 -0.3461
 4564poe     o220198   0.571   5.185   3.459 -0.1836 -0.7344 -0.3189
 4564poe    c2320199   0.599   5.061   3.521  1.3020 -0.2998 -0.0914
 4564poe    c2320200   0.587   4.944   3.422  0.4103 -0.0371 -0.3048
 4564poe     o220201   0.450   4.912   3.409  0.3076 -0.0352  0.6888
 4564poe    c2320202   0.422   4.784   3.356  0.1443  0.4131 -0.3414
 4564poe    c2320203   0.269   4.764   3.357  0.1180  0.6027  0.6866
 4564poe     o220204   0.183   4.834   3.270  0.3473  0.4332  0.3205
 4564poe    c2320205   0.209   4.818   3.133 -0.0022 -0.6652  0.3727
 4564poe    c2320206   0.085   4.857   3.050  0.2993  0.3762  0.3967
 4564poe     o220207   0.060   4.996   3.042 -0.6080  0.1794 -0.2563
 4564poe    c3120208   0.125   5.063   2.937 -0.3793  0.1622 -0.1257
 4565poe    c3120209   3.337   2.687   6.242 -0.1143 -0.5389 -0.7126
 4565poe     o220210   3.260   2.624   6.341  0.0235 -0.1431 -0.3528
 4565poe    c2320211   3.299   2.490   6.359  0.3958  0.0275  0.1429
 4565poe    c2320212   3.223   2.404   6.461  0.0953 -0.5052 -0.5206
 4565poe     o220213   3.084   2.389   6.443  0.0053 -0.2245 -0.0705
 4565poe    c2320214   3.027   2.315   6.549  0.0671 -0.6288 -0.3158
 4565poe    c2320215   2.875   2.298   6.557 -0.0308  0.3655  0.1354
 4565poe     o220216   2.799   2.415   6.537 -0.1092  0.2455 -0.2746
 4565poe    c2320217   2.737   2.396   6.412 -0.5761  0.3201 -0.0601
 4565poe    c2320218   2.627   2.500   6.387 -0.5099  0.4439  0.1676
 4565poe     o220219   2.665   2.630   6.350  0.0437  0.0738 -0.5760
 4565poe    c3120220   2.549   2.710   6.351  0.1095  0.1648 -0.1850
 4566poe    c3120221   4.961   2.731   2.695 -0.7181 -0.1726 -0.0525
 4566poe     o220222   4.995   2.841   2.776  0.6967 -0.1593 -0.6272
 4566poe    c2320223   5.089   2.826   2.880  0.5558  0.0102 -0.4730
 4566poe    c2320224   5.114   2.953   2.964 -0.5456  0.2361 -0.4701
 4566poe     o220225   5.190   3.048   2.893 -0.5253  0.0571 -0.6881
 4566poe    c2320226   5.153   3.165   2.961 -0.4803 -0.1864 -0.2427
 4566poe    c2320227   5.167   3.297   2.882 -0.4434  0.1985  0.3934
 4566poe     o220228   5.070   3.280   2.781  0.1303  0.3220 -0.1871
 4566poe    c2320229   5.051   3.412   2.737 -0.4529  0.4798  0.5112
 4566poe    c2320230   4.969   3.427   2.608 -0.7129  0.0939  0.6318
 4566poe     o220231   5.027   3.388   2.485 -0.9297  0.7039  0.3349
 4566poe    c3120232   4.934   3.425   2.385 -0.4524  0.4874 -0.1899
 4567poe    c3120233   3.286   3.561   0.993  0.1521  0.2748  0.3543
 4567poe     o220234   3.329   3.429   0.970  0.0810  0.3072  0.0199
 4567poe    c2320235   3.217   3.343   0.969  0.0402  0.3605  0.0386
 4567poe    c2320236   3.244   3.236   0.862 -0.4002  0.2709  0.0140
 4567poe     o220237   3.233   3.295   0.735 -0.2463  0.0631 -0.0987
 4567poe    c2320238   3.287   3.221   0.629 -0.1248  0.0303 -0.0134
 4567poe    c2320239   3.248   3.307   0.507 -0.0235 -0.3740 -0.3333
 4567poe     o220240   3.109   3.317   0.484 -0.0073 -0.0402 -0.2791
 4567poe    c2320241   3.085   3.441   0.421 -0.4478 -0.2904 -0.6068
 4567poe    c2320242   3.095   3.453   0.268 -0.2011  0.3025 -0.5480
 4567poe     o220243   3.229   3.427   0.232 -0.3969 -0.9268 -0.4450
 4567poe    c3120244   3.259   3.524   0.135 -0.1660 -0.9193 -0.3678
 4568poe    c3120245   3.134   5.697   2.567 -0.5587  0.1894  0.8165
 4568poe     o220246   3.251   5.763   2.610 -0.1640 -0.1465  0.2639
 4568poe    c2320247   3.228   5.792   2.746 -0.3288  0.1180  0.1811
 4568poe    c2320248   3.365   5.840   2.799 -0.0933  0.0664 -0.3770
 4568poe     o220249   3.395   5.963   2.736  0.3457  0.1168 -0.0711
 4568poe    c2320250   3.339   6.079   2.793 -0.2395 -0.4043  0.4289
 4568poe    c2320251   3.421   6.117   2.917  0.1163  0.0094  0.0728
 4568poe     o220252   3.542   6.177   2.877  0.0780 -0.1682 -0.3069
 4568poe    c2320253   3.594   6.226   2.998 -0.1168 -0.4778 -0.0951
 4568poe    c2320254   3.731   6.291   2.972 -0.2422 -0.4601 -0.7316
 4568poe     o220255   3.840   6.205   2.945  0.2363 -0.1574  0.1770
 4568poe    c3120256   3.950   6.291   2.927  0.2926 -0.2068  0.2910
 4569poe    c3120257   6.222   5.027   4.309  0.6763  0.2560 -0.3190
 4569poe     o220258   6.140   4.984   4.202 -0.5100  0.1742  0.5952
 4569poe    c2320259   6.082   5.090   4.130 -0.3211 -0.2693 -0.2174
 4569poe    c2320260   5.958   5.041   4.053 -0.0192 -0.0276 -0.8670
 4569poe     o220261   5.854   5.013   4.144  0.3225 -0.1109 -0.4980
 4569poe    c2320262   5.781   4.898   4.108 -0.3828  0.1062  0.2255
 4569poe    c2320263   5.721   4.829   4.232 -0.0925 -0.6673 -0.0560
 4569poe     o220264   5.818   4.758   4.306  0.0610 -0.3527  0.0502
 4569poe    c2320265   5.753   4.699   4.416  0.3407 -0.3795  0.2015
 4569poe    c2320266   5.802   4.557   4.450 -0.0081 -0.5855 -0.1462
 4569poe     o220267   5.723   4.470   4.373  0.1735 -0.4856 -0.4471
 4569poe    c3120268   5.740   4.341   4.427  0.4244 -0.4463 -0.4304
 4570poe    c3120269   0.944   0.076   1.940  0.3849  0.1549 -0.4065
 4570poe     o220270   1.074   0.029   1.971  0.1521 -0.2424 -0.0207
 4570poe    c2320271   1.165   0.025   1.863  0.2791  0.1627  0.0693
 4570poe    c2320272   1.261   0.143   1.842  0.1213  0.3158  0.1992
 4570poe     o220273   1.355   0.164   1.945 -0.2472 -0.5795  0.7293
 4570poe    c2320274   1.486   0.128   1.907  0.0231  0.0156  1.0869
 4570poe    c2320275   1.552   0.230   1.813 -1.0056  0.0033  0.3395
 4570poe     o220276   1.543   0.353   1.882  0.6492  0.6009 -0.4456
 4570poe    c2320277   1.486   0.451   1.799 -0.4331 -0.1147 -0.5699
 4570poe    c2320278   1.517   0.588   1.861 -0.0094 -0.4019 -0.1395
 4570poe     o220279   1.435   0.605   1.975  0.3057  0.0537  0.0238
 4570poe    c3120280   1.461   0.738   2.014  0.0880  0.0100  0.3180
 4571poe    c3120281   5.865   6.263   7.378  0.4888 -0.6077  0.7586
 4571poe     o220282   5.956   6.370   7.378  0.0836 -0.2595  0.5461
 4571poe    c2320283   6.076   6.304   7.345  0.2081  0.0630  0.3512
 4571poe    c2320284   6.189   6.309   7.449  0.8461 -0.1397 -0.3284
 4571poe     o220285   6.269   6.425   7.459 -0.4885  0.7356  0.4054
 4571poe    c2320286   6.370   6.428   7.557 -0.5010  0.7991  0.4153
 4571poe    c2320287   6.472   6.541   7.533  0.0814  0.3027  0.5379
 4571poe     o220288   6.550   6.512   7.419 -0.1084 -0.2758  0.5496
 4571poe    c2320289   6.654   6.607   7.422 -0.3542  0.0510 -0.8037
 4571poe    c2320290   6.796   6.547   7.426  0.0650  1.0683  0.1802
 4571poe     o220291   6.831   6.485   7.304  0.4043  0.4508  0.5851
 4571poe    c3120292   6.949   6.411   7.322  0.2244  0.0312  0.0484
 4572poe    c3120293   1.806   1.329   7.456 -0.1013 -0.1257 -0.4944
 4572poe     o220294   1.698   1.405   7.409 -0.1541 -0.2163 -0.5200
 4572poe    c2320295   1.591   1.313   7.401 -0.3064 -0.0683 -0.2080
 4572poe    c2320296   1.468   1.366   7.325 -0.3243  0.6009  0.2730
 4572poe     o220297   1.488   1.414   7.194 -0.2335 -0.0342  0.0474
 4572poe    c2320298   1.389   1.379   7.100  0.0728  0.3055 -0.4051
 4572poe    c2320299   1.413   1.264   7.000  0.2041  0.4721 -0.5675
 4572poe     o220300   1.304   1.198   6.940  0.0796  0.1738 -0.0182
 4572poe    c2320301   1.237   1.112   7.030  0.2691  0.2369  0.1838
 4572poe    c2320302   1.232   0.965   6.987 -0.4098  0.4484 -0.4862
 4572poe     o220303   1.181   0.948   6.857 -0.6582 -0.1906 -0.3083
 4572poe    c3120304   1.165   0.811   6.827 -0.3158 -0.2939 -0.0159
 4573poe    c3120305   5.391   1.889   1.380 -0.3549  0.1906  0.4716
 4573poe     o220306   5.323   1.885   1.257 -0.0999 -0.2592  0.3416
 4573poe    c2320307   5.300   2.021   1.227 -1.0628 -0.3773  0.4979
 4573poe    c2320308   5.209   2.041   1.104  0.0989  0.7612 -0.2050
 4573poe     o220309   5.076   2.006   1.137  0.3244 -0.1764 -0.2845
 4573poe    c2320310   4.976   2.094   1.092  0.2501 -0.0286  0.1617
 4573poe    c2320311   4.840   2.024   1.075 -0.0365  0.4611  0.4451
 4573poe     o220312   4.852   1.898   1.013  0.0178  0.2705  0.8381
 4573poe    c2320313   4.738   1.817   0.995  0.1486  0.0694  0.9198
 4573poe    c2320314   4.783   1.670   1.000  0.2859  0.0668 -0.1581
 4573poe     o220315   4.868   1.637   1.108 -0.0862  0.0414  0.1257
 4573poe    c3120316   4.913   1.504   1.098 -0.8803 -0.1795 -0.6337
 4574poe    c3120317   4.751   1.339   1.555 -0.6179  0.8359  0.5627
 4574poe     o220318   4.783   1.310   1.689  0.7873 -0.0333  0.0640
 4574poe    c2320319   4.703   1.378   1.783  0.5499  0.2883 -0.3689
 4574poe    c2320320   4.632   1.262   1.856  1.1931 -0.0041 -0.2040
 4574poe     o220321   4.728   1.198   1.937  0.6120 -0.4847  0.1108
 4574poe    c2320322   4.696   1.063   1.965  0.0328 -0.5318 -0.7388
 4574poe    c2320323   4.794   0.989   2.057 -0.6387 -0.7762 -0.2163
 4574poe     o220324   4.811   1.041   2.187  0.4295 -0.3219 -0.5269
 4574poe    c2320325   4.927   1.003   2.258  0.2178 -0.2148 -0.1227
 4574poe    c2320326   5.059   1.072   2.221  0.2922  0.1070  0.7202
 4574poe     o220327   5.092   1.039   2.088  0.0371  0.3389  0.5970
 4574poe    c3120328   5.149   0.911   2.069  0.0903  0.4124  0.2510
 4575poe    c3120329   5.559   6.091   2.092  0.3864  0.0260  0.4692
 4575poe     o220330   5.526   5.960   2.135  0.7755 -0.1535  0.2288
 4575poe    c2320331   5.575   5.866   2.042  0.5589 -0.3234  0.2858
 4575poe    c2320332   5.529   5.720   2.057  0.4383 -0.3117  0.0198
 4575poe     o220333   5.594   5.649   2.160  0.5823 -0.2921 -0.0563
 4575poe    c2320334   5.530   5.525   2.183  0.0878  0.0308  0.3483
 4575poe    c2320335   5.378   5.521   2.206  0.0415 -0.3425 -0.0029
 4575poe     o220336   5.353   5.559   2.340 -0.3234 -0.4196 -0.0484
 4575poe    c2320337   5.240   5.502   2.401 -0.7041  0.0503 -0.3077
 4575poe    c2320338   5.247   5.353   2.441 -0.3441  0.0746 -0.2840
 4575poe     o220339   5.253   5.269   2.328 -0.5809 -0.2261 -0.0718
 4575poe    c3120340   5.248   5.132   2.362  0.7702 -0.1595  0.4538
 4576poe    c3120341   3.388   7.181   1.692  0.4244 -0.1322 -0.4734
 4576poe     o220342   3.472   7.215   1.584  0.1565  0.3424 -0.5347
 4576poe    c2320343   3.401   7.168   1.472 -0.3044 -0.5827  0.1327
 4576poe    c2320344   3.481   7.217   1.350 -0.1868 -0.0588  0.4199
 4576poe     o220345   3.609   7.161   1.332 -0.3040 -0.2126  0.0515
 4576poe    c2320346   3.618   7.117   1.199  0.5173  0.1765 -0.0313
 4576poe    c2320347   3.759   7.130   1.138  0.3523 -0.0715 -0.4716
 4576poe     o220348   3.777   7.267   1.112 -0.0193  0.2240  0.7512
 4576poe    c2320349   3.890   7.306   1.038 -0.6066  0.5805  0.0277
 4576poe    c2320350   3.951   7.426   1.114 -0.9120  0.6013  0.2402
 4576poe     o220351   4.016   7.405   1.237  0.2238  0.0886 -0.4344
 4576poe    c3120352   4.156   7.393   1.226  0.2634  0.2096 -0.0732
 4577poe    c3120353   4.335   6.170   3.517  0.1341 -0.3067 -0.2590
 4577poe     o220354   4.384   6.091   3.623 -0.2162 -0.1940 -0.0127
 4577poe    c2320355   4.351   6.144   3.750 -0.3380  0.0140 -0.1302
 4577poe    c2320356   4.438   6.073   3.855 -0.2530  0.1880 -0.0835
 4577poe     o220357   4.404   5.940   3.886  0.7265 -0.0881 -0.1381
 4577poe    c2320358   4.327   5.927   4.003  0.6934  0.3791 -0.1087
 4577poe    c2320359   4.388   5.863   4.129  1.1654  0.5058 -0.2743
 4577poe     o220360   4.411   5.726   4.104 -0.4619  0.1648  0.0189
 4577poe    c2320361   4.430   5.657   4.225 -0.5655 -0.7787 -0.4971
 4577poe    c2320362   4.551   5.565   4.245 -0.6012 -0.6202  0.5336
 4577poe     o220363   4.557   5.442   4.175 -0.2155  0.2020 -0.9155
 4577poe    c3120364   4.514   5.344   4.266  0.2052  0.3818 -0.5145
 4578poe    c3120365   7.491   2.023   2.245 -0.1529 -0.1679  0.2567
 4578poe     o220366   7.456   2.117   2.145  0.1652 -0.4628 -0.1392
 4578poe    c2320367   7.316   2.137   2.144  0.3071  0.6734  0.4568
 4578poe    c2320368   7.256   2.230   2.038  0.0715 -0.2710 -0.2549
 4578poe     o220369   7.299   2.363   2.057  0.0069 -0.2351 -0.3568
 4578poe    c2320370   7.295   2.442   1.940 -0.5587  0.0606 -0.1399
 4578poe    c2320371   7.380   2.569   1.962 -0.2200 -0.2188  0.1637
 4578poe     o220372   7.361   2.615   2.094  0.1964  0.1241  0.1042
 4578poe    c2320373   7.401   2.750   2.109  0.5453  0.1093 -0.6485
 4578poe    c2320374   7.362   2.805   2.247  0.4653 -0.2079 -0.5444
 4578poe     o220375   7.452   2.746   2.338 -0.0042  0.3183  0.2805
 4578poe    c3120376   7.558   2.833   2.373  0.1849  0.0597  0.3513
 4579poe    c3120377   0.404   2.734   5.074  0.0739  0.4626 -0.1967
 4579poe     o220378   0.423   2.739   4.934  0.4530  0.2111 -0.1563
 4579poe    c2320379   0.419   2.615   4.868  0.3570  0.2311 -0.1887
 4579poe    c2320380   0.536   2.586   4.772  0.2356 -0.6446 -0.0837
 4579poe     o220381   0.664   2.557   4.825  0.1211 -0.7620  0.1319
 4579poe    c2320382   0.763   2.546   4.725 -0.4522  0.0579 -0.5451
 4579poe    c2320383   0.741   2.435   4.621  0.0337 -0.5139 -0.0402
 4579poe     o220384   0.741   2.304   4.673 -0.5339 -0.1305  0.9645
 4579poe    c2320385   0.735   2.199   4.579  0.5757  0.1234  0.5948
 4579poe    c2320386   0.686   2.065   4.638 -0.2608  0.0684 -0.1962
 4579poe     o220387   0.555   2.061   4.690 -0.0453 -0.1578  0.3383
 4579poe    c3120388   0.441   2.085   4.612  0.0138 -0.2966  0.2078
 4580poe    c3120389   3.676   1.983   4.239 -0.5400  0.6822  0.3297
 4580poe     o220390   3.805   1.997   4.293 -0.2035 -0.3977 -0.1714
 4580poe    c2320391   3.907   2.057   4.216  0.4136 -0.3056  0.7023
 4580poe    c2320392   3.968   1.987   4.093 -0.5074  0.2441 -0.0826
 4580poe     o220393   4.013   1.857   4.121 -1.0495  0.0437 -0.1183
 4580poe    c2320394   4.045   1.782   4.006  0.3868  0.0486  0.2590
 4580poe    c2320395   4.134   1.664   4.052 -0.1779 -0.5960 -0.2841
 4580poe     o220396   4.082   1.575   4.147  0.1583  0.1250  0.5879
 4580poe    c2320397   4.164   1.463   4.171 -0.0097 -0.1437 -0.0932
 4580poe    c2320398   4.122   1.361   4.278  0.7123 -0.2025  0.1415
 4580poe     o220399   4.186   1.379   4.403 -0.0823  0.0284  0.5246
 4580poe    c3120400   4.132   1.289   4.497  0.2170  0.3827  1.0349
 4581poe    c3120401   3.839   4.118   2.010  0.5526 -0.6752 -0.0281
 4581poe     o220402   3.946   4.207   1.992 -0.2709  0.2298 -0.5158
 4581poe    c2320403   4.054   4.151   2.063 -0.5303  0.0404 -0.2697
 4581poe    c2320404   4.175   4.245   2.077 -0.3814 -0.1301 -0.4008
 4581poe     o220405   4.143   4.377   2.115 -0.6100 -0.2929 -0.0237
 4581poe    c2320406   4.213   4.416   2.231  0.0775  0.1912 -0.5898
 4581poe    c2320407   4.151   4.551   2.270 -0.4203 -0.2310  0.0948
 4581poe     o220408   4.138   4.643   2.164  0.9701  0.4621  0.5078
 4581poe    c2320409   4.058   4.747   2.217  0.0748 -0.1579  0.3970
 4581poe    c2320410   4.007   4.813   2.088 -0.0209  0.2709  0.6524
 4581poe     o220411   3.961   4.705   2.010  0.4798  0.1642  0.4987
 4581poe    c3120412   3.898   4.754   1.894  1.2129 -0.1892 -0.0519
 4582poe    c3120413   3.667   2.945   4.714 -0.8009 -0.1538  0.0431
 4582poe     o220414   3.591   3.063   4.708 -0.3748  0.1204 -0.0190
 4582poe    c2320415   3.456   3.026   4.689 -0.4270  0.7646 -1.0096
 4582poe    c2320416   3.369   3.108   4.787  0.6783 -0.3574  0.9957
 4582poe     o220417   3.361   3.245   4.754 -0.6461 -0.7281 -0.3919
 4582poe    c2320418   3.347   3.322   4.872  0.3672 -0.1768 -0.6163
 4582poe    c2320419   3.305   3.460   4.819 -0.0621 -0.1078 -0.1012
 4582poe     o220420   3.419   3.507   4.751  0.0896  0.0234  0.2382
 4582poe    c2320421   3.404   3.635   4.693  0.4721  0.1641  0.4505
 4582poe    c2320422   3.524   3.641   4.597 -0.2437  0.6421 -0.4258
 4582poe     o220423   3.496   3.552   4.491  0.1682 -0.4247  0.3411
 4582poe    c3120424   3.592   3.567   4.389 -0.3877 -0.7397 -0.2316
 4583poe    c3120425   2.815   3.401   6.514 -0.2723  0.1990  0.1263
 4583poe     o220426   2.874   3.376   6.389 -0.1200 -0.2137  0.2766
 4583poe    c2320427   3.009   3.413   6.375 -0.1612 -0.2229 -0.1810
 4583poe    c2320428   3.080   3.342   6.259 -0.0189  0.5895 -0.5976
 4583poe     o220429   3.035   3.356   6.126 -0.5143  0.5695 -0.4339
 4583poe    c2320430   3.066   3.243   6.047  0.2457  0.7497 -0.4039
 4583poe    c2320431   2.956   3.188   5.953  0.0817  0.2900  0.0531
 4583poe     o220432   2.858   3.117   6.026 -0.2013  0.2617 -0.3566
 4583poe    c2320433   2.744   3.123   5.943  0.0063 -0.6207 -0.7092
 4583poe    c2320434   2.616   3.067   6.009  0.1664 -0.0710  0.0699
 4583poe     o220435   2.562   3.152   6.108 -0.4265 -0.6021  0.2002
 4583poe    c3120436   2.471   3.075   6.184 -0.2560 -0.3820  0.6273
 4584poe    c3120437   5.175   4.086   5.612  0.2087 -0.9274  0.1091
 4584poe     o220438   5.259   4.176   5.681 -0.3029  0.0972 -0.5767
 4584poe    c2320439   5.380   4.214   5.619 -0.0792  0.4356  0.0646
 4584poe    c2320440   5.473   4.262   5.733  0.4758 -0.3281 -0.0600
 4584poe     o220441   5.494   4.157   5.823 -0.3448 -0.1373  0.3674
 4584poe    c2320442   5.579   4.193   5.930 -0.0013 -0.2436  0.1330
 4584poe    c2320443   5.586   4.070   6.023 -0.2468 -0.5428 -0.2442
 4584poe     o220444   5.461   4.009   6.049 -0.5125  0.3735  0.6497
 4584poe    c2320445   5.490   3.897   6.130 -0.0943 -0.0391 -0.0554
 4584poe    c2320446   5.369   3.802   6.139 -0.5986  0.5785 -0.2080
 4584poe     o220447   5.334   3.740   6.017 -0.8311  0.6608 -0.1837
 4584poe    c3120448   5.228   3.650   6.038 -0.1042 -0.0832  0.3877
 4585poe    c3120449   6.642   3.169   4.362 -0.3973  0.5224 -0.2575
 4585poe     o220450   6.567   3.170   4.482 -0.2031  0.1313 -0.1311
 4585poe    c2320451   6.638   3.194   4.602  0.1339 -0.4076 -0.2192
 4585poe    c2320452   6.551   3.190   4.728  0.2041  0.0788 -0.1534
 4585poe     o220453   6.475   3.072   4.734 -0.7943  0.7161 -0.0669
 4585poe    c2320454   6.410   3.048   4.857  0.2585  0.3136  0.4259
 4585poe    c2320455   6.284   3.133   4.883 -0.1448 -0.0189 -0.3863
 4585poe     o220456   6.179   3.126   4.789  0.1409 -0.3817 -0.6794
 4585poe    c2320457   6.054   3.163   4.842  0.2991 -0.5506 -0.1872
 4585poe    c2320458   5.951   3.158   4.728  0.0797 -0.2523 -0.0017
 4585poe     o220459   5.923   3.024   4.695 -0.2052 -0.1632 -0.1306
 4585poe    c3120460   5.892   2.997   4.560 -0.3890 -0.7409  0.0258
 4586poe    c3120461   3.378   3.692   7.034  0.1442 -0.3431  0.2479
 4586poe     o220462   3.478   3.638   6.951 -0.2955 -1.1161  0.2103
 4586poe    c2320463   3.444   3.660   6.816  0.4674  0.4547  0.2602
 4586poe    c2320464   3.574   3.640   6.736  0.2908 -0.0035  0.0878
 4586poe     o220465   3.549   3.631   6.598  0.0344  0.8193  0.0786
 4586poe    c2320466   3.653   3.572   6.523 -0.4369 -0.3347  0.3088
 4586poe    c2320467   3.606   3.548   6.379 -0.3564  0.0348  0.2206
 4586poe     o220468   3.591   3.677   6.323  0.4406  0.1106  0.1791
 4586poe    c2320469   3.593   3.647   6.185  0.4318  0.2816  0.1416
 4586poe    c2320470   3.642   3.767   6.102  0.3337  0.0039 -0.3167
 4586poe     o220471   3.763   3.815   6.155 -0.2036  0.2574  0.7133
 4586poe    c3120472   3.825   3.886   6.050  0.3132 -0.6992  0.3537
 4587poe    c3120473   3.807   7.265   1.753 -0.6986  0.0904 -0.3057
 4587poe     o220474   3.861   7.387   1.707 -0.0153 -0.0059  0.2261
 4587poe    c2320475   3.930   7.450   1.813 -0.1568  0.2376  0.1740
 4587poe    c2320476   3.846   7.564   1.872 -0.1402  0.2531  0.1680
 4587poe     o220477   3.820   7.675   1.789  0.0348  0.4076  0.3176
 4587poe    c2320478   3.807   7.789   1.870 -0.3504  0.1296  0.6512
 4587poe    c2320479   3.761   7.920   1.803 -0.8437  0.2065  1.1353
 4587poe     o220480   3.625   7.930   1.770 -0.5015  0.4956 -0.2448
 4587poe    c2320481   3.527   7.902   1.868  0.2268 -0.3283  0.2537
 4587poe    c2320482   3.382   7.925   1.822  0.3239 -0.2578 -0.0152
 4587poe     o220483   3.361   7.863   1.697  0.0343 -0.4622  0.1336
 4587poe    c3120484   3.227   7.862   1.653  0.0733 -0.3832  0.0124
 4588poe    c3120485   5.666   4.332   7.277 -0.7471 -0.0455 -0.5758
 4588poe     o220486   5.765   4.351   7.178  0.0120 -0.3744  0.1039
 4588poe    c2320487   5.846   4.236   7.170  0.2418 -0.2023 -0.0347
 4588poe    c2320488   5.888   4.216   7.024 -0.8001  0.4386 -0.4330
 4588poe     o220489   6.022   4.255   7.004 -0.7142  0.0338 -0.6647
 4588poe    c2320490   6.052   4.254   6.866  1.0321  0.4564 -0.3078
 4588poe    c2320491   6.024   4.386   6.791 -0.6256 -0.0760 -0.6566
 4588poe     o220492   5.893   4.431   6.817 -0.4779 -0.1178  0.1952
 4588poe    c2320493   5.900   4.563   6.767  0.3810 -0.3340 -0.2707
 4588poe    c2320494   5.763   4.592   6.703  0.1262  0.3096  0.5467
 4588poe     o220495   5.658   4.619   6.793 -0.1287  0.4060  0.2225
 4588poe    c3120496   5.544   4.675   6.730  0.0078  0.2912 -0.1305
 4589poe    c3120497   2.967   0.074   0.726 -0.4285  0.5405 -0.3035
 4589poe     o220498   3.087   0.008   0.760 -0.2889  0.8155 -0.2630
 4589poe    c2320499   3.107   0.009   0.900  0.9517  0.2240 -0.4258
 4589poe    c2320500   3.252   0.015   0.950  0.9344 -0.2300 -0.3214
 4589poe     o220501   3.307   0.143   0.970 -0.3647  0.3513 -0.3765
 4589poe    c2320502   3.340   0.221   0.857 -0.3294 -0.3732 -0.8773
 4589poe    c2320503   3.448   0.328   0.888 -0.6531 -0.2352 -0.2028
 4589poe     o220504   3.398   0.450   0.937  0.0462 -0.0949  0.1748
 4589poe    c2320505   3.490   0.543   0.990 -0.2369  0.3025 -0.0207
 4589poe    c2320506   3.548   0.505   1.128 -0.0050  1.0697  0.0925
 4589poe     o220507   3.459   0.483   1.234 -0.3160 -0.0468 -0.3847
 4589poe    c3120508   3.532   0.489   1.354 -0.0148  0.0422 -0.5721
 4590poe    c3120509   4.878   3.986   7.053 -0.1477 -0.4311 -0.7763
 4590poe     o220510   4.752   3.953   7.107 -0.2648  0.3499 -0.5618
 4590poe    c2320511   4.717   4.055   7.198 -0.0860 -0.4662  0.4289
 4590poe    c2320512   4.563   4.071   7.201 -0.0639 -0.1148 -0.1966
 4590poe     o220513   4.491   3.982   7.283  0.3449 -0.0682  0.2196
 4590poe    c2320514   4.359   4.031   7.277  0.1839 -0.5068  0.1679
 4590poe    c2320515   4.303   4.019   7.420  0.6625 -0.0501  0.3961
 4590poe     o220516   4.233   3.901   7.454  0.0890  0.1192 -0.1674
 4590poe    c2320517   4.096   3.903   7.423 -0.0392 -0.0284  0.3780
 4590poe    c2320518   4.068   3.755   7.453  0.2717 -0.2134 -0.2480
 4590poe     o220519   4.048   3.743   7.592  0.3102  1.0512 -0.1228
 4590poe    c3120520   3.987   3.620   7.624  0.1612  1.0037 -0.5836
 4591poe    c3120521   0.274   7.568   5.082  0.7008 -0.2903 -0.0518
 4591poe     o220522   0.341   7.671   5.014  0.0195  0.5452  0.5246
 4591poe    c2320523   0.477   7.648   5.045  0.0585  0.2980  0.1813
 4591poe    c2320524   0.575   7.762   5.008 -0.1913  0.5125  0.1753
 4591poe     o220525   0.573   7.816   4.878  0.1248 -0.5565 -0.2832
 4591poe    c2320526   0.669   7.919   4.878  0.0223 -0.4614 -0.2331
 4591poe    c2320527   0.711   7.964   4.737 -0.3529  0.7552  0.0286
 4591poe     o220528   0.596   8.002   4.665 -0.4426 -0.7047 -0.6538
 4591poe    c2320529   0.640   8.025   4.534  0.2406  0.1181 -0.2903
 4591poe    c2320530   0.520   8.013   4.438  0.2969 -0.3921 -0.2974
 4591poe     o220531   0.529   8.065   4.307  0.2305  0.4570  0.0329
 4591poe    c3120532   0.529   8.206   4.301  0.4757  0.4796  0.4799
 4592poe    c3120533   5.393   1.752   5.950  0.9353 -1.1455  0.7463
 4592poe     o220534   5.262   1.711   5.984  0.4855  0.0396  0.4902
 4592poe    c2320535   5.193   1.790   6.078 -0.4690 -0.4186  0.1826
 4592poe    c2320536   5.046   1.742   6.084 -0.6599  0.1019 -0.2451
 4592poe     o220537   4.965   1.765   5.971  0.0497 -0.7843 -0.9509
 4592poe    c2320538   4.834   1.728   6.006 -0.0516  0.0782 -0.3787
 4592poe    c2320539   4.733   1.725   5.889  0.0600  0.7213 -0.4949
 4592poe     o220540   4.734   1.617   5.798  0.2551  0.4161 -0.1362
 4592poe    c2320541   4.681   1.660   5.675 -0.4547  0.0610  0.0427
 4592poe    c2320542   4.690   1.584   5.541 -0.4048  0.2644 -0.0693
 4592poe     o220543   4.606   1.471   5.551  0.4962 -0.3672  0.5098
 4592poe    c3120544   4.550   1.423   5.431 -0.2972  0.2033  0.6484
 4593poe    c3120545   0.843   2.143   0.661  0.2473  0.0034 -0.1749
 4593poe     o220546   0.827   2.108   0.526  0.3112 -0.2722 -0.1121
 4593poe    c2320547   0.728   2.008   0.528 -0.1693  0.1947 -0.1713
 4593poe    c2320548   0.690   1.946   0.392 -0.2584  0.0370 -0.0749
 4593poe     o220549   0.801   1.878   0.337  0.3418  0.5489  0.4801
 4593poe    c2320550   0.791   1.738   0.340 -0.5362  0.6127  1.0253
 4593poe    c2320551   0.711   1.659   0.234  0.9865  0.5689 -0.1314
 4593poe     o220552   0.777   1.639   0.111  0.1195 -0.3522 -0.4568
 4593poe    c2320553   0.729   1.537   0.027 -0.1514  0.1995 -0.9766
 4593poe    c2320554   0.842   1.492  -0.068 -0.0184 -0.3997 -0.5439
 4593poe     o220555   0.853   1.578  -0.180  0.2564  0.2267 -0.0448
 4593poe    c3120556   0.992   1.586  -0.205  0.3990 -0.1646  0.5831
 4594poe    c3120557   5.464   0.909   7.577  0.2582  0.5230  1.1358
 4594poe     o220558   5.390   1.028   7.585 -0.5624  0.1091 -0.0220
 4594poe    c2320559   5.327   1.030   7.711 -0.0070  0.2223  0.2584
 4594poe    c2320560   5.192   1.101   7.687 -0.1068 -0.1888 -0.4152
 4594poe     o220561   5.208   1.239   7.663  0.5482 -0.1466  0.2146
 4594poe    c2320562   5.218   1.317   7.780  0.1083  0.1457  0.0574
 4594poe    c2320563   5.197   1.467   7.750  0.7237  0.2151 -0.0413
 4594poe     o220564   5.068   1.496   7.698  0.7878  0.3377 -0.1327
 4594poe    c2320565   5.041   1.629   7.658 -0.2103  0.2878  0.3489
 4594poe    c2320566   4.902   1.637   7.593  0.1393  0.2071 -0.4173
 4594poe     o220567   4.889   1.539   7.493  0.6579  0.4687 -0.7437
 4594poe    c3120568   4.785   1.557   7.399 -0.3245 -0.0400  0.2219
 4595poe    c3120569   1.719   3.550   3.257  0.1858  0.1653 -0.0238
 4595poe     o220570   1.604   3.571   3.178  0.4137  0.5604 -0.2584
 4595poe    c2320571   1.573   3.708   3.165  0.4846  0.5568 -0.4652
 4595poe    c2320572   1.459   3.707   3.062  0.1898 -0.0190 -0.1428
 4595poe     o220573   1.496   3.653   2.937  0.3064  0.0124 -0.1219
 4595poe    c2320574   1.403   3.656   2.832  0.7006 -0.5509 -0.4975
 4595poe    c2320575   1.417   3.784   2.747  0.3832 -0.5422 -0.5390
 4595poe     o220576   1.529   3.785   2.661  1.0694 -0.4417  0.3356
 4595poe    c2320577   1.519   3.894   2.573 -0.0043 -0.2608  0.6622
 4595poe    c2320578   1.575   3.844   2.438 -0.1529 -0.2483  0.5950
 4595poe     o220579   1.494   3.745   2.380 -0.1306  0.1014 -0.0404
 4595poe    c3120580   1.547   3.698   2.259  0.1246  0.7697 -0.1956
 4596poe    c3120581   2.061   4.269   6.068  0.3091  0.2326  0.2064
 4596poe     o220582   1.999   4.348   6.167 -0.0041 -0.0315  0.2186
 4596poe    c2320583   1.949   4.266   6.271 -0.7849 -0.5876 -0.5710
 4596poe    c2320584   1.862   4.356   6.360 -0.1672 -0.1903 -0.3577
 4596poe     o220585   1.929   4.441   6.450 -0.0167  0.0771 -0.7165
 4596poe    c2320586   1.848   4.553   6.476 -0.0326 -0.0199 -0.3338
 4596poe    c2320587   1.927   4.684   6.489 -0.7585  0.4020 -0.1310
 4596poe     o220588   2.007   4.712   6.377  0.0086  0.4845  0.4311
 4596poe    c2320589   2.042   4.849   6.384 -0.1026  0.5209  0.2749
 4596poe    c2320590   2.061   4.904   6.241 -0.3742  0.4768  0.2209
 4596poe     o220591   2.191   4.869   6.198 -0.5443 -0.1765  0.2208
 4596poe    c3120592   2.211   4.905   6.063 -0.3729 -0.3416  0.2032
 4597poe    c3120593   0.384   6.080   6.204  0.0221  0.5125 -0.2984
 4597poe     o220594   0.474   6.114   6.307 -0.1241 -0.5318  0.1897
 4597poe    c2320595   0.404   6.199   6.395 -0.1675 -0.6533  0.2733
 4597poe    c2320596   0.476   6.218   6.530 -0.1777 -0.3603  0.2404
 4597poe     o220597   0.463   6.105   6.613 -1.0192 -0.0608  0.5325
 4597poe    c2320598   0.543   6.118   6.729  0.1393 -0.1919 -0.2289
 4597poe    c2320599   0.592   5.984   6.785 -0.1244 -0.3869 -0.4636
 4597poe     o220600   0.635   6.015   6.915 -0.5090  0.0595 -0.4436
 4597poe    c2320601   0.667   5.910   7.003 -0.0105  0.2750 -0.3635
 4597poe    c2320602   0.706   5.943   7.149 -0.7005 -0.3516 -0.0344
 4597poe     o220603   0.605   6.002   7.228 -0.1477  0.9341 -0.2734
 4597poe    c3120604   0.642   6.037   7.360 -0.3476  0.9420 -0.2196
 4598poe    c3120605   2.891   0.548   0.911  0.3739  0.2412  0.3742
 4598poe     o220606   2.761   0.602   0.912  0.2046 -0.1269 -0.3834
 4598poe    c2320607   2.692   0.602   1.035 -0.1496  0.7615 -0.5726
 4598poe    c2320608   2.560   0.678   1.011 -0.6989  0.1135  0.3121
 4598poe     o220609   2.460   0.633   0.922 -0.0250  0.1079 -0.4560
 4598poe    c2320610   2.386   0.514   0.936 -0.3079  0.2714 -0.5409
 4598poe    c2320611   2.287   0.523   1.053  0.4744  0.3238  0.1315
 4598poe     o220612   2.172   0.592   1.010  0.3861  0.1238  0.0424
 4598poe    c2320613   2.116   0.657   1.123  0.4043  0.0489  0.0946
 4598poe    c2320614   1.997   0.744   1.079  0.0631  0.0636  1.0337
 4598poe     o220615   2.031   0.845   0.987 -0.1065 -0.1386  0.7480
 4598poe    c3120616   1.920   0.927   0.957  0.1040 -0.1270 -0.0182
 4599poe    c3120617   1.127   0.940   4.393 -0.1706 -0.6631 -0.0581
 4599poe     o220618   1.169   1.057   4.459  0.1549 -0.4684 -0.5980
 4599poe    c2320619   1.273   1.025   4.549 -0.3075 -0.5542 -0.0852
 4599poe    c2320620   1.408   0.991   4.482 -0.0047  0.0694  0.2049
 4599poe     o220621   1.485   1.101   4.438 -0.4968  0.5362  0.4854
 4599poe    c2320622   1.616   1.057   4.410 -0.6666  0.4412 -0.1891
 4599poe    c2320623   1.721   1.162   4.449  0.4748 -0.3308 -1.1170
 4599poe     o220624   1.682   1.284   4.390  0.4259  0.0895 -0.2271
 4599poe    c2320625   1.756   1.387   4.452  0.0454  0.0746  0.2572
 4599poe    c2320626   1.738   1.527   4.392 -0.1881  0.0416  0.2494
 4599poe     o220627   1.616   1.590   4.424  0.1020  0.5857  0.2948
 4599poe    c3120628   1.627   1.722   4.374  0.1588  0.4727  0.0086
 4600poe    c3120629   7.000   0.523   3.519  0.2779 -0.2381  0.0785
 4600poe     o220630   7.071   0.503   3.639  0.2679  0.2581  0.1676
 4600poe    c2320631   7.079   0.367   3.673 -0.2418  0.1054 -0.3111
 4600poe    c2320632   7.199   0.294   3.608 -0.1554  0.4183 -0.5031
 4600poe     o220633   7.324   0.350   3.639  0.2940 -0.9868  0.3081
 4600poe    c2320634   7.432   0.281   3.580  0.4188 -0.7416  0.2470
 4600poe    c2320635   7.576   0.334   3.593  0.1702  0.0990 -0.3388
 4600poe     o220636   7.577   0.458   3.525 -0.1124  0.2181 -0.1301
 4600poe    c2320637   7.697   0.519   3.566  0.0543 -0.2414  0.0751
 4600poe    c2320638   7.676   0.668   3.535  0.6373 -0.1551  0.0746
 4600poe     o220639   7.574   0.724   3.615 -0.0313 -0.4263 -0.5733
 4600poe    c3120640   7.553   0.863   3.598 -0.2159 -0.4031 -0.1723
 4601poe    c3120641   0.785   5.677   1.338 -0.8157 -0.7739 -0.4014
 4601poe     o220642   0.814   5.734   1.212  0.6296 -0.6788 -0.0512
 4601poe    c2320643   0.710   5.700   1.123  0.8318 -0.3947 -0.3956
 4601poe    c2320644   0.715   5.799   1.004 -0.5462  0.0851 -0.0822
 4601poe     o220645   0.842   5.788   0.944 -0.7159 -0.4171 -0.3585
 4601poe    c2320646   0.877   5.907   0.878 -0.9195 -0.4719 -0.5668
 4601poe    c2320647   0.958   5.862   0.755  0.7506 -0.5208  0.5165
 4601poe     o220648   0.923   5.738   0.698 -0.2272 -0.0451  0.0740
 4601poe    c2320649   0.865   5.755   0.570  0.2195 -0.2695 -0.1580
 4601poe    c2320650   0.853   5.623   0.491  0.5733 -0.2178 -0.3008
 4601poe     o220651   0.764   5.546   0.568  0.3251 -0.1474 -0.5152
 4601poe    c3120652   0.741   5.420   0.510  0.2673 -0.3587 -0.0336
 4602poe    c3120653   6.879   2.906   5.404  0.3218 -0.2306 -0.4376
 4602poe     o220654   6.995   2.955   5.468 -0.2623  0.4421  0.1220
 4602poe    c2320655   6.961   3.079   5.525 -0.3411  0.2797  0.4334
 4602poe    c2320656   7.062   3.144   5.621  0.3345  0.0761 -0.1357
 4602poe     o220657   7.084   3.074   5.742 -0.0499  0.0794 -0.0640
 4602poe    c2320658   7.177   3.135   5.828 -0.0572  0.0342 -0.0244
 4602poe    c2320659   7.191   3.053   5.958  0.0483  0.3941  0.1930
 4602poe     o220660   7.246   2.925   5.935 -0.3177  0.3396 -0.3911
 4602poe    c2320661   7.333   2.881   6.036  0.2053  0.6141 -0.7185
 4602poe    c2320662   7.420   2.763   5.992 -0.1449  0.1420 -0.1603
 4602poe     o220663   7.528   2.785   5.904  0.1141  0.5873  0.2644
 4602poe    c3120664   7.589   2.658   5.888 -0.2765  0.4338 -0.0271
 4603poe    c3120665   3.488   5.622   3.965  0.1894  0.3716 -0.1200
 4603poe     o220666   3.520   5.485   3.956 -0.5071  0.1983 -0.0430
 4603poe    c2320667   3.656   5.472   3.921 -0.3805  0.3312  0.3913
 4603poe    c2320668   3.722   5.352   3.991  0.7440  0.4111 -0.4977
 4603poe     o220669   3.753   5.385   4.125 -0.0229  0.0945 -0.2365
 4603poe    c2320670   3.782   5.273   4.205 -0.0697  0.3789  0.1799
 4603poe    c2320671   3.829   5.306   4.348  0.8851  0.6247 -0.1837
 4603poe     o220672   3.943   5.390   4.345  1.2361  0.1493 -0.3135
 4603poe    c2320673   3.984   5.456   4.463  0.7411 -0.2957  0.1130
 4603poe    c2320674   4.081   5.572   4.435 -0.2951  0.5662  0.0104
 4603poe     o220675   4.025   5.693   4.392 -0.0213  0.5219 -0.4762
 4603poe    c3120676   4.006   5.782   4.500 -0.0402 -0.6784  0.5213
 4604poe    c3120677   5.187   2.771   5.008 -0.0514 -0.2958  0.0887
 4604poe     o220678   5.088   2.773   4.907  0.5841  0.4240 -0.5281
 4604poe    c2320679   5.059   2.649   4.846  0.2764  0.3900 -0.3167
 4604poe    c2320680   4.985   2.656   4.711 -0.2913 -0.1739 -0.0378
 4604poe     o220681   4.857   2.711   4.690 -0.1057  0.1378 -0.3640
 4604poe    c2320682   4.790   2.676   4.571 -0.3828  0.3201 -0.2643
 4604poe    c2320683   4.638   2.700   4.577 -0.4565 -0.1079 -0.4116
 4604poe     o220684   4.633   2.840   4.584  0.2008 -0.0864 -0.2574
 4604poe    c2320685   4.508   2.883   4.534  0.1477 -0.1311 -0.1621
 4604poe    c2320686   4.450   3.012   4.596 -0.0700 -0.2425 -0.1347
 4604poe     o220687   4.535   3.124   4.592 -0.8243  0.3411 -0.0459
 4604poe    c3120688   4.532   3.197   4.472  0.7245  0.0619 -0.2791
 4605poe    c3120689   4.252   2.842   1.895 -0.2577  0.0093 -0.2541
 4605poe     o220690   4.300   2.739   1.977  0.1926  0.6857  0.3463
 4605poe    c2320691   4.430   2.700   1.939 -0.3198 -0.3744 -0.3738
 4605poe    c2320692   4.453   2.578   1.848 -0.2690 -0.2252 -0.5636
 4605poe     o220693   4.415   2.589   1.713 -0.1490 -0.2910 -0.6033
 4605poe    c2320694   4.513   2.661   1.642  0.3966 -0.4528 -0.0256
 4605poe    c2320695   4.522   2.611   1.496  0.3796 -0.4509 -0.0273
 4605poe     o220696   4.561   2.475   1.493  0.9016 -0.3225  0.6690
 4605poe    c2320697   4.638   2.441   1.380 -0.1474  0.3015 -0.2596
 4605poe    c2320698   4.601   2.301   1.327 -0.4413  0.3069 -0.0672
 4605poe     o220699   4.467   2.271   1.292 -0.2929 -0.2272 -0.1830
 4605poe    c3120700   4.424   2.341   1.178 -0.1982  0.0898 -0.0263
 4606poe    c3120701   4.535   6.567   0.967  0.4451 -0.7222 -0.4354
 4606poe     o220702   4.650   6.623   0.909 -0.1380  0.0150 -0.9047
 4606poe    c2320703   4.651   6.756   0.862  0.4277  0.1568 -0.5067
 4606poe    c2320704   4.560   6.778   0.740 -0.2918 -0.3950 -0.0754
 4606poe     o220705   4.610   6.716   0.624  0.4054 -0.4847  0.2649
 4606poe    c2320706   4.516   6.665   0.532  0.4658 -0.5385  0.2329
 4606poe    c2320707   4.579   6.579   0.420  0.4016  0.3250 -0.4788
 4606poe     o220708   4.646   6.464   0.467  0.0675  0.1995 -0.3010
 4606poe    c2320709   4.784   6.480   0.487  0.0774 -0.6602  0.3325
 4606poe    c2320710   4.868   6.352   0.467  0.0575 -0.5762 -0.2944
 4606poe     o220711   4.810   6.246   0.540 -0.7323  0.0491 -0.0015
 4606poe    c3120712   4.859   6.128   0.481 -0.6517  0.5097 -0.8725
 4607poe    c3120713   5.414   5.816   3.375  0.6324  0.5193 -0.1096
 4607poe     o220714   5.285   5.873   3.370  0.1425 -0.5743 -0.0705
 4607poe    c2320715   5.186   5.772   3.375 -0.1996 -0.2620 -0.4632
 4607poe    c2320716   5.063   5.803   3.288 -0.6896 -0.8119  0.0237
 4607poe     o220717   5.072   5.818   3.148 -1.3745  0.5601  0.1047
 4607poe    c2320718   5.109   5.707   3.069  0.0280  0.6878  0.5593
 4607poe    c2320719   5.105   5.740   2.919  0.4611 -0.0937  0.3694
 4607poe     o220720   5.190   5.849   2.890  0.0006 -0.0258 -0.7425
 4607poe    c2320721   5.177   5.873   2.751  0.2258 -0.6394 -0.8740
 4607poe    c2320722   5.280   5.978   2.705 -0.2087  0.4323  0.5133
 4607poe     o220723   5.339   6.038   2.818  0.0906  0.1221  0.5264
 4607poe    c3120724   5.347   6.177   2.796 -0.1959  0.1076  0.3246
 4608poe    c3120725   4.218   2.068   3.049  0.0040  0.1718  0.0578
 4608poe     o220726   4.089   2.012   3.059  0.0798  0.0267  0.2389
 4608poe    c2320727   4.033   2.039   3.185 -0.3787  0.0083  0.0422
 4608poe    c2320728   3.925   1.936   3.221 -0.4594  0.2641  0.5434
 4608poe     o220729   3.801   1.955   3.156  0.1080  0.4387 -0.5036
 4608poe    c2320730   3.727   2.045   3.236  1.0582  0.7901 -0.0006
 4608poe    c2320731   3.608   2.098   3.155  0.5120 -0.6636 -0.1817
 4608poe     o220732   3.652   2.190   3.059 -0.2490  0.2104  0.2860
 4608poe    c2320733   3.552   2.267   2.996 -0.2996  0.2574  0.4232
 4608poe    c2320734   3.615   2.352   2.884 -0.3293 -0.1337  0.1073
 4608poe     o220735   3.742   2.391   2.929 -0.2886  0.1207 -0.2185
 4608poe    c3120736   3.746   2.527   2.967 -0.1058 -0.1086  0.6052
 4609poe    c3120737   7.444   3.379   1.792 -0.1969  0.1812  1.0254
 4609poe     o220738   7.360   3.283   1.731  0.3960  0.4508 -0.2520
 4609poe    c2320739   7.306   3.309   1.604 -0.2679  0.0971 -0.0459
 4609poe    c2320740   7.274   3.172   1.541 -0.4489  0.0411  0.1673
 4609poe     o220741   7.177   3.105   1.618 -0.4742 -0.2055 -0.0751
 4609poe    c2320742   7.175   2.966   1.596 -0.5342 -0.1569 -0.3717
 4609poe    c2320743   7.098   2.900   1.712  0.4620  0.0045  0.3880
 4609poe     o220744   7.153   2.952   1.831  0.3456 -0.0821  0.4792
 4609poe    c2320745   7.100   2.893   1.948 -0.1441  0.3913  0.4998
 4609poe    c2320746   6.962   2.941   1.998 -0.5193 -0.1792  0.0376
 4609poe     o220747   6.971   3.081   2.013  0.0533 -0.2831  0.7792
 4609poe    c3120748   6.845   3.115   2.067 -0.3679  0.2459 -0.4870
 4610poe    c3120749   7.621   0.256   2.696  0.3666  0.4237  0.1459
 4610poe     o220750   7.615   0.393   2.663  0.0328  0.2672 -0.4580
 4610poe    c2320751   7.658   0.409   2.530  0.2303 -0.2666 -0.4596
 4610poe    c2320752   7.655   0.560   2.501  0.0287 -0.0444  0.6602
 4610poe     o220753   7.526   0.608   2.531 -0.2386 -0.2300 -0.1629
 4610poe    c2320754   7.504   0.741   2.491  0.2319 -0.0279  0.2498
 4610poe    c2320755   7.357   0.762   2.529  0.3621  0.0069  0.7430
 4610poe     o220756   7.334   0.782   2.667 -0.5063  0.3099  0.5614
 4610poe    c2320757   7.304   0.918   2.684 -0.4221  0.4052 -0.0210
 4610poe    c2320758   7.296   0.970   2.829  0.2539 -0.0779  0.1946
 4610poe     o220759   7.190   0.906   2.897  0.2538 -0.2964 -0.0105
 4610poe    c3120760   7.192   0.932   3.036  0.0047 -0.0719 -0.0489
 4611poe    c3120761   5.320   5.111   0.599  0.4115 -0.0753 -0.0171
 4611poe     o220762   5.323   5.236   0.663  0.5974 -0.1727  0.1670
 4611poe    c2320763   5.364   5.342   0.580  0.7230 -0.1075  0.3121
 4611poe    c2320764   5.369   5.470   0.666  0.0408  0.1261  0.0161
 4611poe     o220765   5.464   5.499   0.766  0.5930  0.0001 -0.4669
 4611poe    c2320766   5.447   5.460   0.900 -0.3342 -0.4721 -0.7164
 4611poe    c2320767   5.343   5.521   0.996  0.3398 -0.0048 -0.2696
 4611poe     o220768   5.407   5.614   1.080 -0.3444  0.5832 -0.3872
 4611poe    c2320769   5.319   5.653   1.182 -0.1573 -0.1857  0.0774
 4611poe    c2320770   5.377   5.775   1.257 -0.6655 -0.1976  0.4979
 4611poe     o220771   5.373   5.901   1.193  0.2096 -0.6485 -0.4788
 4611poe    c3120772   5.277   5.993   1.240  0.6439 -0.1143 -0.6269
 4612poe    c3120773   2.567   1.995   0.542  0.0158 -0.0863  0.1005
 4612poe     o220774   2.539   2.132   0.557  0.2776 -0.0085 -0.1098
 4612poe    c2320775   2.534   2.163   0.695  0.0254 -0.4188 -0.0248
 4612poe    c2320776   2.541   2.311   0.738  0.2622 -0.1195 -1.0466
 4612poe     o220777   2.432   2.389   0.694 -0.2374 -0.4426 -0.4106
 4612poe    c2320778   2.455   2.527   0.714 -0.3349 -0.5001  0.1153
 4612poe    c2320779   2.432   2.570   0.860 -0.3502  0.0444 -0.0447
 4612poe     o220780   2.309   2.528   0.916 -0.1922  0.5072  0.6528
 4612poe    c2320781   2.314   2.536   1.057 -0.0500 -0.0087  0.6778
 4612poe    c2320782   2.249   2.656   1.129 -0.7557  0.5244 -0.7986
 4612poe     o220783   2.277   2.783   1.076  0.2696  0.6053 -0.1066
 4612poe    c3120784   2.312   2.889   1.162 -0.5315  0.3625  0.5328
 4613poe    c3120785   0.766   4.606   5.537 -0.2035  0.2820 -0.4256
 4613poe     o220786   0.723   4.473   5.516 -0.0948  0.2242 -0.2785
 4613poe    c2320787   0.658   4.423   5.630 -0.4911 -0.0755 -0.6337
 4613poe    c2320788   0.627   4.272   5.635 -0.6033 -0.0409 -0.2146
 4613poe     o220789   0.548   4.235   5.525 -0.0290 -0.7394 -0.4024
 4613poe    c2320790   0.511   4.100   5.538  0.0599 -0.7047  0.2499
 4613poe    c2320791   0.444   4.062   5.404 -0.4170  0.5343  0.1265
 4613poe     o220792   0.335   4.150   5.388 -0.6884  0.1683 -0.0418
 4613poe    c2320793   0.264   4.129   5.268 -0.1514  0.6479 -0.4461
 4613poe    c2320794   0.123   4.190   5.274 -0.2305  0.4414 -0.2072
 4613poe     o220795   0.142   4.323   5.316 -0.0565  0.2840  0.2210
 4613poe    c3120796   0.014   4.383   5.321 -0.0211  0.3666  0.1253
 4614poe    c3120797   5.008   6.379   1.696 -0.4403  0.6908  0.0582
 4614poe     o220798   4.918   6.329   1.793  0.2163  0.0261  0.3325
 4614poe    c2320799   4.952   6.219   1.875  0.4133 -0.2355 -0.0979
 4614poe    c2320800   4.888   6.250   2.011  0.3513  0.2521 -0.2348
 4614poe     o220801   4.749   6.258   1.991  0.2621 -0.2191  0.1550
 4614poe    c2320802   4.670   6.271   2.107  0.2316 -0.0869  0.1201
 4614poe    c2320803   4.691   6.390   2.203 -0.0314  0.4175 -0.4461
 4614poe     o220804   4.693   6.512   2.131  0.1576  0.7225  0.0666
 4614poe    c2320805   4.706   6.625   2.214  0.3758  0.4717  0.3749
 4614poe    c2320806   4.719   6.765   2.153 -0.2096  0.3952  0.0681
 4614poe     o220807   4.593   6.813   2.111 -0.3253  0.0734  0.0494
 4614poe    c3120808   4.588   6.899   2.000 -0.1418 -0.1233 -0.1127
 4615poe    c3120809   4.788   1.069   4.297  0.4008 -0.5357  0.3176
 4615poe     o220810   4.921   1.112   4.279  0.1402 -0.0988 -0.6163
 4615poe    c2320811   4.931   1.238   4.216 -0.0976  0.1856 -0.0886
 4615poe    c2320812   5.076   1.275   4.180  0.2620 -0.2343  0.8860
 4615poe     o220813   5.129   1.205   4.069  0.1327  0.4573  0.3783
 4615poe    c2320814   5.209   1.286   3.987 -0.0026 -0.4271 -0.6421
 4615poe    c2320815   5.251   1.203   3.863 -0.0463 -0.0943 -0.8819
 4615poe     o220816   5.299   1.076   3.899 -0.3453  0.1040  0.2911
 4615poe    c2320817   5.339   1.017   3.777 -0.1208 -0.1530  0.4868
 4615poe    c2320818   5.390   0.872   3.780 -0.3318 -0.2556 -0.4417
 4615poe     o220819   5.294   0.790   3.843 -0.3985  0.1644  0.0138
 4615poe    c3120820   5.309   0.661   3.787  0.5489  0.1896  0.1798
 4616poe    c3120821   3.013   2.101   3.176  0.4420 -0.1199 -0.0759
 4616poe     o220822   2.921   2.119   3.071  0.6737 -0.0367 -0.2675
 4616poe    c2320823   2.973   2.189   2.961  0.5403  0.1811 -0.1920
 4616poe    c2320824   2.870   2.295   2.916  0.3019 -0.0807 -0.2653
 4616poe     o220825   2.745   2.232   2.935  0.1892  0.1312 -0.3074
 4616poe    c2320826   2.637   2.322   2.926 -0.0376 -0.1308 -0.2196
 4616poe    c2320827   2.513   2.260   2.860 -0.1980 -0.1859  0.1287
 4616poe     o220828   2.418   2.193   2.940 -0.1803 -0.1574  0.1735
 4616poe    c2320829   2.311   2.138   2.866 -0.3650  0.1040  0.2463
 4616poe    c2320830   2.316   1.984   2.870 -0.3388  0.0458 -1.4396
 4616poe     o220831   2.440   1.928   2.835 -0.1358  0.4677 -1.3959
 4616poe    c3120832   2.414   1.790   2.826  0.5678  0.1885  0.3459
 4617poe    c3120833   1.779   1.286   0.364  0.6612 -0.3902  0.1622
 4617poe     o220834   1.788   1.377   0.472  0.4200 -0.3369  0.1380
 4617poe    c2320835   1.663   1.441   0.457  0.7057  0.2543  0.2393
 4617poe    c2320836   1.661   1.522   0.588  0.0431 -0.2183  0.5317
 4617poe     o220837   1.722   1.453   0.695  0.4390 -0.6869  0.0108
 4617poe    c2320838   1.690   1.524   0.813  0.1686  0.1608 -0.5601
 4617poe    c2320839   1.773   1.458   0.924  0.4244 -0.0552 -0.8781
 4617poe     o220840   1.909   1.495   0.936  0.3583 -0.1830  0.3823
 4617poe    c2320841   1.946   1.495   1.072 -0.1750  0.0088  0.5302
 4617poe    c2320842   2.095   1.534   1.073 -0.1652 -0.0188  0.1054
 4617poe     o220843   2.118   1.667   1.031  0.0198 -0.0257  0.1827
 4617poe    c3120844   2.248   1.704   1.069  0.3498 -0.4423 -0.5162
 4618poe    c3120845   1.656   3.203   0.855 -0.3416  0.1903  0.1986
 4618poe     o220846   1.693   3.120   0.747 -0.0470  0.2227  0.2748
 4618poe    c2320847   1.794   3.029   0.787  0.0005  0.3064  0.3444
 4618poe    c2320848   1.894   2.994   0.676 -0.3110  0.0915  0.1304
 4618poe     o220849   1.879   2.883   0.590 -0.2680  0.1892 -0.0040
 4618poe    c2320850   1.763   2.882   0.510 -0.3134 -0.3023  0.0637
 4618poe    c2320851   1.758   2.750   0.431 -0.1051  0.0550 -0.5487
 4618poe     o220852   1.749   2.632   0.506  0.5606  0.2791 -0.1081
 4618poe    c2320853   1.613   2.595   0.504  0.6862 -0.2252  0.2779
 4618poe    c2320854   1.591   2.448   0.464 -0.0462  0.0497 -0.3752
 4618poe     o220855   1.612   2.362   0.574 -0.3764  0.1690 -0.2162
 4618poe    c3120856   1.596   2.229   0.529 -0.6968  0.3651 -0.6947
 4619poe    c3120857   7.248   5.995   4.883  0.2566  0.1507  0.3304
 4619poe     o220858   7.217   6.016   4.747 -0.1745  0.2723  0.4479
 4619poe    c2320859   7.181   6.147   4.710 -0.5075  0.1694  0.4062
 4619poe    c2320860   7.164   6.177   4.560 -0.9935 -0.3829  0.3471
 4619poe     o220861   7.048   6.112   4.513 -0.9511  0.0795 -0.4121
 4619poe    c2320862   7.065   6.082   4.376 -0.3890 -0.8480 -0.1477
 4619poe    c2320863   6.976   5.970   4.319 -0.3304 -0.7457 -0.4398
 4619poe     o220864   6.999   5.846   4.382  0.4707 -0.4247 -0.0917
 4619poe    c2320865   6.900   5.812   4.476 -0.3066  0.1293 -0.6906
 4619poe    c2320866   6.905   5.658   4.488 -0.4521  0.2106  0.6380
 4619poe     o220867   7.038   5.619   4.508 -0.2736  0.5174  0.0949
 4619poe    c3120868   7.054   5.486   4.553  0.3715  0.6034  0.1385
 4620poe    c3120869   5.281   2.942   5.739 -0.1661  0.1545  0.1478
 4620poe     o220870   5.364   3.047   5.785  0.2173 -0.2725  0.4331
 4620poe    c2320871   5.306   3.102   5.901 -0.0361  0.4334 -0.0251
 4620poe    c2320872   5.417   3.185   5.968 -0.1335  0.0400  0.6261
 4620poe     o220873   5.524   3.110   6.022  0.1990 -0.0624 -0.1664
 4620poe    c2320874   5.522   3.123   6.162  0.2852  0.0921 -0.1784
 4620poe    c2320875   5.650   3.188   6.218  0.1345 -0.2010  0.5224
 4620poe     o220876   5.765   3.106   6.224  0.2487 -0.0822  0.0351
 4620poe    c2320877   5.761   3.013   6.331  0.0001  0.0408  0.1346
 4620poe    c2320878   5.819   3.061   6.465  0.3276 -0.5062  0.1938
 4620poe     o220879   5.957   3.067   6.440  0.2997 -0.2737  0.0971
 4620poe    c3120880   6.007   3.091   6.569  0.7610  0.2727 -0.1747
 4621poe    c3120881   4.920   6.335   6.794  0.0160  0.0296 -0.9146
 4621poe     o220882   4.933   6.216   6.719 -0.6292 -0.2971 -0.5156
 4621poe    c2320883   4.962   6.245   6.584 -0.7445 -0.3207 -0.5454
 4621poe    c2320884   5.042   6.132   6.516  0.1598 -0.1603  0.2259
 4621poe     o220885   4.978   6.011   6.548  0.3435 -0.2060  0.4200
 4621poe    c2320886   5.037   5.895   6.495 -0.1734 -0.1625 -0.2684
 4621poe    c2320887   4.940   5.780   6.527 -0.1360 -0.2081 -0.3171
 4621poe     o220888   4.927   5.790   6.667 -0.1436 -0.3894 -0.3050
 4621poe    c2320889   4.852   5.687   6.728 -0.5136  0.1394  0.1454
 4621poe    c2320890   4.922   5.646   6.859 -0.4009 -0.0216  0.0348
 4621poe     o220891   4.973   5.755   6.932 -0.6322 -0.2435  0.5349
 4621poe    c3120892   5.081   5.701   7.006  0.3343 -0.2644 -0.8576
 4622poe    c3120893   5.784   5.831   6.940  0.0539  0.2686  0.1315
 4622poe     o220894   5.887   5.817   6.845 -0.2687 -0.3758 -0.1325
 4622poe    c2320895   5.859   5.900   6.734 -0.1229 -0.0752  0.0527
 4622poe    c2320896   5.975   5.891   6.634 -0.1584  0.3941 -0.0308
 4622poe     o220897   5.982   5.756   6.595 -0.6632  0.3974 -0.1362
 4622poe    c2320898   6.109   5.733   6.538 -0.6325 -0.2762  0.1942
 4622poe    c2320899   6.124   5.593   6.475 -0.3074 -0.0739 -0.1863
 4622poe     o220900   6.084   5.496   6.570 -0.3226  0.0138 -0.1025
 4622poe    c2320901   6.094   5.361   6.531 -0.3287  0.1518 -0.5903
 4622poe    c2320902   6.024   5.282   6.643 -0.1970  0.8847  0.0165
 4622poe     o220903   5.885   5.304   6.633 -0.3295 -0.0916 -0.4052
 4622poe    c3120904   5.808   5.196   6.587  0.1378 -0.4159 -0.4365
 4623poe    c3120905   2.109   3.745   5.479 -0.7408 -0.0910  0.2237
 4623poe     o220906   2.133   3.867   5.544  0.4935 -0.2882  0.1592
 4623poe    c2320907   2.270   3.897   5.563  0.3657  0.0696  0.5245
 4623poe    c2320908   2.348   3.947   5.440  0.1028 -0.3065  0.2010
 4623poe     o220909   2.294   4.076   5.423 -0.3783 -0.5780 -0.3629
 4623poe    c2320910   2.351   4.150   5.317 -0.1556  0.2337  0.3090
 4623poe    c2320911   2.332   4.303   5.318  0.1628  0.2744  0.2577
 4623poe     o220912   2.203   4.360   5.323  0.0288 -0.0510  0.5946
 4623poe    c2320913   2.198   4.500   5.334  0.1418 -0.0303  0.4050
 4623poe    c2320914   2.050   4.541   5.352  0.0823 -0.1542  0.1978
 4623poe     o220915   1.964   4.455   5.282  0.2197  0.0299 -0.2018
 4623poe    c3120916   1.826   4.483   5.295  0.2238  0.0969 -0.2986
 4624poe    c3120917   0.944   4.042   1.996  0.0267  0.0342 -0.2738
 4624poe     o220918   0.968   4.138   2.096 -0.2830 -0.2255  0.0495
 4624poe    c2320919   0.891   4.127   2.214  0.4237 -0.2827  0.5146
 4624poe    c2320920   0.952   4.064   2.340  0.3514 -0.1445  0.6191
 4624poe     o220921   0.984   3.927   2.333  0.1776 -0.1512 -0.1921
 4624poe    c2320922   1.123   3.905   2.348  0.2917  0.4099 -0.4070
 4624poe    c2320923   1.141   3.753   2.362 -0.4970  0.3384 -0.1402
 4624poe     o220924   1.106   3.698   2.487 -0.0259  0.0911 -0.1174
 4624poe    c2320925   1.129   3.560   2.498 -0.9525 -0.0729 -0.2375
 4624poe    c2320926   1.089   3.492   2.631  0.1274  0.3334  0.3070
 4624poe     o220927   0.957   3.509   2.677  0.2429  0.8397  0.4578
 4624poe    c3120928   0.911   3.398   2.750  0.4485  0.1079 -0.4976
 4625poe    c3120929   6.512   4.096   7.113  0.7795  0.5111 -0.0731
 4625poe     o220930   6.447   4.220   7.099 -0.2779 -0.0324 -0.1029
 4625poe    c2320931   6.452   4.257   6.963 -0.7200  0.1977 -0.0575
 4625poe    c2320932   6.460   4.410   6.971  0.2114  0.1298  0.3769
 4625poe     o220933   6.356   4.445   7.059  0.0491 -0.0315  0.2470
 4625poe    c2320934   6.361   4.580   7.096  0.3887 -0.0313  0.1951
 4625poe    c2320935   6.249   4.635   7.186  0.3871  0.1544  0.0816
 4625poe     o220936   6.260   4.549   7.298 -0.1056 -0.0799 -0.0473
 4625poe    c2320937   6.154   4.582   7.385  0.3018  0.5537  0.2149
 4625poe    c2320938   6.148   4.491   7.509  0.0196  0.0605 -0.1578
 4625poe     o220939   6.139   4.356   7.472  0.7209 -0.0869  0.2031
 4625poe    c3120940   6.108   4.294   7.595  0.6343  0.1781  0.3154
 4626poe    c3120941   5.433   7.096   2.179  0.0241  0.4028  0.9511
 4626poe     o220942   5.569   7.131   2.173  0.2581 -0.6660 -0.5310
 4626poe    c2320943   5.645   7.038   2.247 -0.2341 -0.0696  0.7654
 4626poe    c2320944   5.783   7.091   2.292 -0.0616  0.4443 -0.3217
 4626poe     o220945   5.757   7.187   2.392 -0.1121 -0.1563  0.2510
 4626poe    c2320946   5.863   7.281   2.391  0.1874 -0.4940 -0.3133
 4626poe    c2320947   5.841   7.366   2.517 -0.0058 -0.4562 -0.3716
 4626poe     o220948   5.751   7.475   2.512  0.5026 -0.0222 -0.1908
 4626poe    c2320949   5.754   7.574   2.611 -0.2786 -0.4619  0.2826
 4626poe    c2320950   5.620   7.648   2.598 -0.2391 -0.4743 -0.1913
 4626poe     o220951   5.589   7.713   2.477 -0.2523 -0.2999 -0.0948
 4626poe    c3120952   5.625   7.850   2.475  0.1288 -0.4011 -0.6677
 4627poe    c3120953   1.883   5.274   0.426  0.3210  0.1628  0.2197
 4627poe     o220954   1.910   5.237   0.559  0.1811  0.1343  0.2405
 4627poe    c2320955   1.831   5.130   0.607  0.3035  0.2540  0.7139
 4627poe    c2320956   1.820   5.117   0.760  0.3638  0.4854  0.7391
 4627poe     o220957   1.945   5.068   0.804  0.4687 -0.3747 -0.4570
 4627poe    c2320958   1.975   5.104   0.937  0.0541  0.1867 -0.5123
 4627poe    c2320959   2.126   5.126   0.952 -0.0528  0.7585 -0.2164
 4627poe     o220960   2.162   5.246   0.887  0.8344  0.4228 -0.3665
 4627poe    c2320961   2.260   5.302   0.970  0.5083 -0.3415  0.5533
 4627poe    c2320962   2.312   5.440   0.923 -0.2936 -0.0656  0.4664
 4627poe     o220963   2.235   5.557   0.941 -0.4872 -0.2493  0.8630
 4627poe    c3120964   2.229   5.600   1.075 -0.3544  0.1044  0.7560
 4628poe    c3120965   7.305   4.547   4.493 -0.4418  0.1764  0.3420
 4628poe     o220966   7.329   4.613   4.371 -0.4894  0.1972  0.3440
 4628poe    c2320967   7.439   4.558   4.301 -0.9902  0.2075 -0.4659
 4628poe    c2320968   7.473   4.637   4.174  0.1712  0.1292 -0.2157
 4628poe     o220969   7.553   4.749   4.204 -0.2255  0.2232  0.4999
 4628poe    c2320970   7.551   4.849   4.105 -0.3718 -0.0726  0.2036
 4628poe    c2320971   7.600   4.982   4.165 -0.4835  0.1332 -0.1586
 4628poe     o220972   7.506   4.993   4.269  0.0157  0.1396  0.2969
 4628poe    c2320973   7.556   5.064   4.380  0.1582 -0.2635  0.4896
 4628poe    c2320974   7.466   5.041   4.503 -0.0084  0.0946  0.4353
 4628poe     o220975   7.329   5.063   4.476 -0.0260 -0.3217  0.1783
 4628poe    c3120976   7.270   5.125   4.587 -0.4763  0.1546 -0.3248
 4629poe    c3120977   6.284   2.442   4.585  0.4788  0.1133  0.1502
 4629poe     o220978   6.230   2.407   4.459  0.2375  0.4696  0.1532
 4629poe    c2320979   6.316   2.354   4.361  0.3101  0.0057  0.4629
 4629poe    c2320980   6.358   2.206   4.376  0.1610 -0.0796  0.0699
 4629poe     o220981   6.254   2.115   4.350  0.1163 -0.0682  0.2072
 4629poe    c2320982   6.324   1.997   4.383 -0.5144 -0.3558  0.5396
 4629poe    c2320983   6.228   1.878   4.370 -0.5706 -0.2883  0.3388
 4629poe     o220984   6.171   1.883   4.241  0.1564  0.2268  0.0312
 4629poe    c2320985   6.077   1.782   4.212 -0.0043  0.3174  0.2382
 4629poe    c2320986   6.036   1.782   4.064 -0.3071  0.2654  0.3203
 4629poe     o220987   5.975   1.901   4.021  0.4729  0.2479 -0.8840
 4629poe    c3120988   5.927   1.895   3.888 -0.3976  0.4800 -0.5854
 4630poe    c3120989   1.699   4.170   0.380  0.6613 -0.2581 -0.6307
 4630poe     o220990   1.737   4.148   0.246  0.5012  1.0073 -0.9003
 4630poe    c2320991   1.853   4.067   0.239 -0.2725 -0.1990 -0.0447
 4630poe    c2320992   1.908   4.047   0.097  0.3658  0.2208  0.1395
 4630poe     o220993   1.856   3.940   0.020  0.4187  0.6193 -0.4568
 4630poe    c2320994   1.944   3.884  -0.075  0.3884  0.4096 -0.3615
 4630poe    c2320995   1.865   3.784  -0.161  0.0599  0.5004 -0.1689
 4630poe     o220996   1.765   3.865  -0.218 -0.1304  0.1626 -0.3149
 4630poe    c2320997   1.683   3.798  -0.311 -0.4996  0.0824  0.0649
 4630poe    c2320998   1.548   3.804  -0.236 -0.5273  0.1014  0.0142
 4630poe     o220999   1.520   3.942  -0.230 -0.1080  0.1842  0.1253
 4630poe    c3121000   1.383   3.960  -0.258 -0.1038 -0.8609 -0.6300
 4631poe    c3121001   2.373   6.502   3.745  0.2876 -0.1110 -0.4766
 4631poe     o221002   2.494   6.563   3.785  0.1285 -0.1114  0.0128
 4631poe    c2321003   2.600   6.495   3.721 -0.2076 -0.9470  0.3373
 4631poe    c2321004   2.740   6.522   3.779 -0.0718 -0.5530 -0.1690
 4631poe     o221005   2.801   6.647   3.759  0.0123 -0.6474 -0.5124
 4631poe    c2321006   2.930   6.653   3.814 -0.1578 -0.1106 -0.1595
 4631poe    c2321007   3.000   6.789   3.799 -0.0378 -0.0888  0.5554
 4631poe     o221008   2.928   6.904   3.838  0.0236  0.2111 -0.1899
 4631poe    c2321009   2.994   7.026   3.814  0.0228  0.2956  0.2236
 4631poe    c2321010   3.116   7.060   3.901  0.1657 -0.4831  0.3273
 4631poe     o221011   3.075   7.111   4.026 -0.3089 -0.8969  0.3441
 4631poe    c3121012   3.184   7.130   4.114  0.1020 -0.1237 -0.3238
 4632poe    c3121013   4.108   2.592   3.803 -0.4031  0.0266  0.5154
 4632poe     o221014   3.985   2.546   3.854 -0.3680 -0.6050  0.0480
 4632poe    c2321015   3.907   2.656   3.895 -0.1504 -0.5274  0.2543
 4632poe    c2321016   3.802   2.610   3.998 -0.0801  0.3908  0.7483
 4632poe     o221017   3.697   2.528   3.951  0.3515 -0.0469  0.5453
 4632poe    c2321018   3.598   2.501   4.049 -0.1826 -0.3419 -0.0711
 4632poe    c2321019   3.485   2.421   3.983 -0.2454 -0.2514 -0.0721
 4632poe     o221020   3.536   2.322   3.897 -0.0065 -0.4777  0.3277
 4632poe    c2321021   3.434   2.264   3.819 -0.3741  0.4301  0.1243
 4632poe    c2321022   3.482   2.122   3.782 -0.4000  0.3777  0.2884
 4632poe     o221023   3.491   2.023   3.881  0.4787  0.0123 -0.1510
 4632poe    c3121024   3.610   1.950   3.859  0.4534 -0.1335  0.1790
 4633poe    c3121025   1.950   3.005   5.074  0.5878 -0.6183  0.9886
 4633poe     o221026   1.857   3.060   5.164 -0.1988 -0.2018 -0.0612
 4633poe    c2321027   1.731   3.000   5.149 -0.0894 -0.2565 -0.8241
 4633poe    c2321028   1.639   3.042   5.265  0.2917 -0.5200 -0.4250
 4633poe     o221029   1.663   2.977   5.388  0.1472  0.8599  0.3467
 4633poe    c2321030   1.591   3.027   5.499  0.2122 -0.0588  0.8104
 4633poe    c2321031   1.605   3.174   5.542  0.3565  0.2458 -0.2572
 4633poe     o221032   1.725   3.205   5.609  0.7133 -0.3017 -0.6342
 4633poe    c2321033   1.731   3.337   5.660  0.2343 -0.5157 -0.0114
 4633poe    c2321034   1.862   3.345   5.741  0.1434  0.4151  0.0505
 4633poe     o221035   1.973   3.317   5.658  0.0677  0.1787  0.0268
 4633poe    c3121036   2.090   3.307   5.735 -0.0112  0.1291  0.1410
 4634poe    c3121037   0.122   1.610   7.469  0.1487 -0.3232  0.2643
 4634poe     o221038   0.070   1.509   7.385  0.4605 -0.4925  0.2720
 4634poe    c2321039  -0.028   1.424   7.439  0.2802  0.4031  1.3972
 4634poe    c2321040  -0.168   1.470   7.396  0.5306 -0.2091 -0.1558
 4634poe     o221041  -0.268   1.416   7.480  0.4017  0.3791  0.0754
 4634poe    c2321042  -0.295   1.278   7.469 -0.4985  0.5673 -0.1812
 4634poe    c2321043  -0.408   1.244   7.568 -0.4846  0.4366 -0.2110
 4634poe     o221044  -0.527   1.301   7.520 -0.4219  0.3685 -0.4485
 4634poe    c2321045  -0.626   1.248   7.605 -0.2951  0.1436 -0.4408
 4634poe    c2321046  -0.762   1.299   7.555 -0.0476  0.6801 -0.5784
 4634poe     o221047  -0.809   1.224   7.445 -0.5510 -0.0603  0.1272
 4634poe    c3121048  -0.920   1.280   7.378 -0.8516 -0.1449  0.5460
 4635poe    c3121049   2.869   3.886   3.942  0.4704 -0.1125 -0.2432
 4635poe     o221050   2.906   3.846   4.072  0.2492  0.1303 -0.1047
 4635poe    c2321051   2.997   3.937   4.131 -0.3372  0.0610  0.9159
 4635poe    c2321052   3.110   3.876   4.217  0.3043 -0.1126 -0.0404
 4635poe     o221053   3.057   3.818   4.334 -0.0012 -0.1982 -0.2187
 4635poe    c2321054   3.138   3.800   4.448 -0.1032 -0.9054 -0.2539
 4635poe    c2321055   3.068   3.706   4.549 -0.7221  0.1010  0.2773
 4635poe     o221056   3.064   3.568   4.520 -0.1476  0.0818  0.2646
 4635poe    c2321057   2.985   3.506   4.619 -0.4900  0.1115  0.0114
 4635poe    c2321058   2.968   3.356   4.589  0.0499  0.0130  0.1900
 4635poe     o221059   3.052   3.266   4.659  0.2964 -0.0683 -0.2017
 4635poe    c3121060   3.062   3.146   4.586 -0.0620 -0.2449  0.0353
 4636poe    c3121061   2.029   2.591   3.485  0.4286  0.1227 -0.1534
 4636poe     o221062   1.926   2.683   3.512  0.0416 -0.4239  0.2253
 4636poe    c2321063   1.830   2.623   3.597  0.2878 -0.0894  0.7412
 4636poe    c2321064   1.699   2.703   3.604  0.2387 -0.0467 -0.4250
 4636poe     o221065   1.689   2.825   3.674 -0.2910 -0.3834  0.1013
 4636poe    c2321066   1.566   2.890   3.652 -0.1049  0.1202  0.5225
 4636poe    c2321067   1.561   3.028   3.583  0.3514 -0.3741 -0.5101
 4636poe     o221068   1.611   3.030   3.451  0.5654  0.6252 -0.4209
 4636poe    c2321069   1.597   3.160   3.399  0.0195  0.7408  0.0095
 4636poe    c2321070   1.645   3.167   3.253  0.5613 -0.2315  0.1356
 4636poe     o221071   1.773   3.113   3.276  0.3977 -0.2201  1.1122
 4636poe    c3121072   1.871   3.191   3.211 -0.5650 -0.1238 -0.2434
 4637poe    c3121073   0.840   3.602   1.167  0.2397  0.2031 -0.2845
 4637poe     o221074   0.748   3.633   1.269  0.3085 -0.0655 -0.1399
 4637poe    c2321075   0.825   3.638   1.387 -0.0907  0.2889  0.1087
 4637poe    c2321076   0.745   3.662   1.516  0.2433 -0.1640  0.4045
 4637poe     o221077   0.639   3.572   1.537  0.1051 -0.1872 -0.3621
 4637poe    c2321078   0.674   3.447   1.593 -0.1056 -0.2535 -0.3772
 4637poe    c2321079   0.740   3.435   1.732 -0.3533  0.0588 -0.2302
 4637poe     o221080   0.635   3.430   1.827 -0.5133  0.1351 -0.4016
 4637poe    c2321081   0.597   3.303   1.872  0.2455  0.2718  0.6710
 4637poe    c2321082   0.482   3.309   1.975 -0.3081 -0.1168  0.0865
 4637poe     o221083   0.361   3.368   1.932 -0.5724 -0.5391  0.2451
 4637poe    c3121084   0.290   3.301   1.830 -0.0462 -0.4441 -0.1952
 4638poe    c3121085   1.890   6.653   0.498  0.9254  0.4717 -0.6425
 4638poe     o221086   1.928   6.704   0.624 -0.2692 -0.1588 -0.0031
 4638poe    c2321087   1.952   6.843   0.615 -0.7107 -0.1206 -0.6700
 4638poe    c2321088   1.839   6.928   0.676 -0.0166  0.0642  0.3911
 4638poe     o221089   1.844   6.930   0.817 -0.1250  0.4029  0.3930
 4638poe    c2321090   1.772   7.032   0.882 -0.6130  0.3765 -0.1027
 4638poe    c2321091   1.789   7.032   1.035  0.7923 -0.2862 -0.2464
 4638poe     o221092   1.912   7.092   1.072 -0.0067  1.1516  0.1470
 4638poe    c2321093   1.903   7.101   1.212  0.4730 -0.9113  0.3465
 4638poe    c2321094   2.007   7.206   1.255 -0.3192  0.0974 -0.1320
 4638poe     o221095   2.130   7.140   1.277 -0.3360  0.0405 -0.2102
 4638poe    c3121096   2.241   7.225   1.297 -0.4296  0.2380 -0.5132
 4639poe    c3121097   5.614   3.458   2.015 -0.0537  0.3620 -0.2004
 4639poe     o221098   5.485   3.466   2.071 -0.1148 -0.6570 -0.1795
 4639poe    c2321099   5.494   3.516   2.202 -0.0418 -1.1603  0.0121
 4639poe    c2321100   5.351   3.540   2.254 -0.0161 -0.3827 -0.2488
 4639poe     o221101   5.282   3.651   2.204 -0.1401 -0.2377  0.2400
 4639poe    c2321102   5.177   3.686   2.292 -0.0876 -0.4023  0.3694
 4639poe    c2321103   5.227   3.776   2.406  0.2060  0.0710 -0.1255
 4639poe     o221104   5.274   3.698   2.514 -0.1447 -0.0983 -0.0954
 4639poe    c2321105   5.375   3.755   2.594 -0.2287 -0.3221  0.1707
 4639poe    c2321106   5.421   3.637   2.682  0.5699 -0.2535 -0.1418
 4639poe     o221107   5.446   3.530   2.594 -0.0225 -0.3293 -0.2200
 4639poe    c3121108   5.524   3.433   2.660 -0.2110 -0.2656  0.0963
 4640poe    c3121109   4.242   0.500   1.618 -0.6426  0.0427 -0.0143
 4640poe     o221110   4.294   0.615   1.556 -0.3291 -0.0648  0.0490
 4640poe    c2321111   4.348   0.592   1.428 -0.2319 -0.0030  0.0780
 4640poe    c2321112   4.425   0.719   1.388  0.0694 -0.2244 -0.0424
 4640poe     o221113   4.356   0.831   1.439  0.6165 -0.1143  0.4631
 4640poe    c2321114   4.401   0.952   1.381  0.2006 -0.1751  0.0114
 4640poe    c2321115   4.405   1.066   1.484  0.0050 -0.1657  0.0098
 4640poe     o221116   4.293   1.052   1.568  0.0894 -0.0082  0.1505
 4640poe    c2321117   4.290   1.161   1.657 -0.7282  0.0574  0.0549
 4640poe    c2321118   4.246   1.145   1.804  0.1073  0.0182  0.3040
 4640poe     o221119   4.355   1.093   1.877  0.2364 -0.0227  0.0829
 4640poe    c3121120   4.340   1.098   2.017  0.8265  0.3653  0.1361
 4641poe    c3121121   4.007   3.163   4.548  0.4268  0.4731 -0.2341
 4641poe     o221122   4.025   3.089   4.429 -0.1569 -0.2322  0.1137
 4641poe    c2321123   4.059   2.957   4.468  1.1775  0.0753  0.0147
 4641poe    c2321124   4.066   2.869   4.342  0.3988 -0.0598  0.0654
 4641poe     o221125   4.163   2.932   4.263  0.1357  0.2080 -0.0449
 4641poe    c2321126   4.224   2.856   4.161  0.3833 -0.2187  0.4198
 4641poe    c2321127   4.362   2.918   4.128 -0.0152  0.2047 -0.4785
 4641poe     o221128   4.342   3.057   4.112  0.2377  0.3039  0.0617
 4641poe    c2321129   4.425   3.107   4.009  0.2154  0.3295  0.0562
 4641poe    c2321130   4.395   3.258   4.015  0.1522  0.3158  0.0917
 4641poe     o221131   4.259   3.271   4.049  0.2279 -0.0343  0.5569
 4641poe    c3121132   4.207   3.402   4.046 -1.0071 -0.5055  0.9030
 4642poe    c3121133   3.784   3.328   7.006 -0.0028  0.2791  0.4036
 4642poe     o221134   3.816   3.287   7.137  0.6474  0.2937  0.2478
 4642poe    c2321135   3.820   3.395   7.229  0.4932  0.3364  0.2031
 4642poe    c2321136   3.883   3.356   7.364  0.7095  0.1029  0.0361
 4642poe     o221137   3.795   3.274   7.437  0.4284  0.1140 -0.2870
 4642poe    c2321138   3.844   3.223   7.559 -0.9359 -0.0721  0.1994
 4642poe    c2321139   3.870   3.073   7.536 -0.1008  0.0646  0.2185
 4642poe     o221140   3.758   3.005   7.483  0.4413 -0.2641 -0.5137
 4642poe    c2321141   3.781   2.866   7.476 -0.5150 -0.4781  0.3657
 4642poe    c2321142   3.666   2.787   7.411 -0.5873 -0.1542  0.0960
 4642poe     o221143   3.680   2.771   7.271 -0.4494 -0.2325  0.1180
 4642poe    c3121144   3.586   2.698   7.195  0.1028 -1.2197  0.3716
 4643poe    c3121145   5.760   0.511   3.316  0.6064  0.0256 -0.0159
 4643poe     o221146   5.794   0.426   3.422  0.2523 -0.2951 -0.1581
 4643poe    c2321147   5.724   0.304   3.409  0.5653 -0.4756 -0.1690
 4643poe    c2321148   5.693   0.244   3.547 -0.6016  0.2693 -0.0973
 4643poe     o221149   5.809   0.188   3.603 -0.5982  0.9245  0.5727
 4643poe    c2321150   5.775   0.134   3.729 -0.1168 -0.7371  0.0239
 4643poe    c2321151   5.886   0.091   3.827  0.0065 -0.6747 -0.0871
 4643poe     o221152   5.990   0.186   3.834 -0.2891 -0.3525 -0.0388
 4643poe    c2321153   6.026   0.198   3.970 -0.3517  0.1679 -0.0677
 4643poe    c2321154   6.157   0.279   3.982 -0.1796 -0.1077 -0.0669
 4643poe     o221155   6.269   0.204   3.942 -0.3876 -0.6752  0.4095
 4643poe    c3121156   6.379   0.269   4.002 -0.2743 -0.0681 -0.4424
 4644poe    c3121157   5.906   7.258   5.945 -0.2301 -0.0909 -0.2207
 4644poe     o221158   5.942   7.204   6.071  0.7279 -0.5680 -0.6863
 4644poe    c2321159   5.927   7.065   6.083  0.8782 -0.5408 -0.1512
 4644poe    c2321160   5.943   7.024   6.230  0.2674  0.1662  0.1116
 4644poe     o221161   5.923   7.144   6.302  0.0016  0.3379 -0.2438
 4644poe    c2321162   5.940   7.106   6.437 -0.2692 -0.0405 -0.3149
 4644poe    c2321163   5.938   7.227   6.532 -0.1062 -0.6648  0.4919
 4644poe     o221164   6.039   7.305   6.473 -0.5073 -0.2039  0.4026
 4644poe    c2321165   6.077   7.403   6.567 -0.0527  0.0060  0.0044
 4644poe    c2321166   6.190   7.496   6.518 -0.4915  0.3911 -0.2796
 4644poe     o221167   6.162   7.567   6.399 -0.8648  0.1959 -0.3113
 4644poe    c3121168   6.266   7.659   6.371 -0.6021 -0.0681 -0.2176
 4645poe    c3121169   1.533   6.693   2.400  0.4574  0.2040  0.1390
 4645poe     o221170   1.477   6.818   2.435  0.1405  0.1382 -0.1307
 4645poe    c2321171   1.358   6.843   2.364  0.2598  1.0264 -0.0248
 4645poe    c2321172   1.327   6.986   2.315 -0.1854  0.6449 -0.8872
 4645poe     o221173   1.263   7.061   2.416 -0.0764 -0.3909 -0.0239
 4645poe    c2321174   1.205   7.179   2.365 -0.3255 -0.5415 -0.0934
 4645poe    c2321175   1.146   7.247   2.489 -0.0116 -0.1973 -0.1307
 4645poe     o221176   1.210   7.219   2.612 -0.7148 -0.1516  0.2508
 4645poe    c2321177   1.115   7.228   2.716 -0.4500 -0.0650  0.4850
 4645poe    c2321178   1.162   7.259   2.860 -0.3945 -0.1987  0.4961
 4645poe     o221179   1.184   7.133   2.919 -0.5875  0.0255  1.0528
 4645poe    c3121180   1.284   7.137   3.018  0.3003  0.3352  0.1632
 4646poe    c3121181   4.415   2.096   1.687 -0.2066  0.0174  0.1173
 4646poe     o221182   4.318   2.006   1.736  0.1127 -0.0808  0.5805
 4646poe    c2321183   4.366   1.886   1.793  0.2408 -0.2066  0.2105
 4646poe    c2321184   4.253   1.787   1.824  0.1404 -0.1453  0.0445
 4646poe     o221185   4.167   1.829   1.928  0.1003 -0.4542  0.1369
 4646poe    c2321186   4.090   1.734   1.998  0.0815 -0.6414 -0.1360
 4646poe    c2321187   4.034   1.798   2.127  0.3394 -0.2253 -0.2282
 4646poe     o221188   3.989   1.923   2.082 -0.2486 -0.2579  0.2704
 4646poe    c2321189   3.938   1.995   2.193 -0.9854  0.2575 -0.3896
 4646poe    c2321190   3.888   2.136   2.155 -0.1663  0.5269 -0.4936
 4646poe     o221191   3.756   2.144   2.107 -0.3780 -0.5924 -0.1434
 4646poe    c3121192   3.702   2.274   2.096 -0.4359 -0.5102  1.0189
 4647poe    c3121193   6.626   4.981   3.058  0.3132 -0.9364 -0.5220
 4647poe     o221194   6.648   4.919   3.183 -0.1517  0.0565  0.0714
 4647poe    c2321195   6.580   4.982   3.289 -0.3964 -0.4156  0.1987
 4647poe    c2321196   6.551   4.891   3.410  0.1671  0.2420  0.8407
 4647poe     o221197   6.663   4.850   3.484  0.4132 -0.8418 -0.0993
 4647poe    c2321198   6.634   4.747   3.575 -0.0148 -0.6720 -0.0440
 4647poe    c2321199   6.764   4.745   3.658 -0.1044 -0.0854  0.1183
 4647poe     o221200   6.878   4.721   3.578 -0.0819  0.0394  0.1134
 4647poe    c2321201   6.999   4.744   3.646 -0.3310  0.8039  0.3072
 4647poe    c2321202   7.115   4.787   3.555 -0.2261  0.1553  0.1335
 4647poe     o221203   7.107   4.919   3.507  0.2172  0.0176 -0.3335
 4647poe    c3121204   7.228   4.945   3.439  0.6300 -0.1164  0.3459
 4648poe    c3121205   4.717   4.942   5.320 -0.8135 -0.8345 -0.5047
 4648poe     o221206   4.671   4.901   5.194  0.1900 -0.9982 -0.8269
 4648poe    c2321207   4.564   4.809   5.200  0.1055 -0.8800 -0.5330
 4648poe    c2321208   4.476   4.797   5.074 -0.7103  0.2571 -0.0884
 4648poe     o221209   4.542   4.765   4.954 -0.3063 -0.3611  0.2906
 4648poe    c2321210   4.450   4.701   4.868  0.0221  0.0129 -0.3487
 4648poe    c2321211   4.500   4.574   4.795 -1.1471 -0.3704 -0.5115
 4648poe     o221212   4.588   4.586   4.685  0.0970  0.2673  0.5161
 4648poe    c2321213   4.513   4.607   4.568 -0.2229 -0.6778  0.5441
 4648poe    c2321214   4.609   4.640   4.452 -0.7441  0.1629  0.3368
 4648poe     o221215   4.666   4.769   4.445  0.4776 -0.3593  0.2903
 4648poe    c3121216   4.758   4.772   4.338  0.4218 -0.3051  0.2443
 4649poe    c3121217   6.958   4.838   6.821 -0.0047 -0.6269  0.0522
 4649poe     o221218   6.981   4.711   6.878 -0.1993 -0.2878  0.9028
 4649poe    c2321219   6.879   4.616   6.857  0.0120 -0.3103 -0.0206
 4649poe    c2321220   6.938   4.480   6.900  0.1185 -0.1648  0.2914
 4649poe     o221221   6.990   4.503   7.029 -0.2392 -0.0111  0.4108
 4649poe    c2321222   7.093   4.416   7.068  0.2803  0.5908  0.4051
 4649poe    c2321223   7.232   4.435   7.005 -0.1367  0.4032 -0.5874
 4649poe     o221224   7.300   4.549   7.053  0.0236 -0.0690  0.3205
 4649poe    c2321225   7.436   4.551   7.017  0.0040 -0.2181  0.2390
 4649poe    c2321226   7.528   4.520   7.137 -0.5895 -0.0615  0.7351
 4649poe     o221227   7.528   4.632   7.223 -0.1461  0.2175  0.3783
 4649poe    c3121228   7.629   4.609   7.319 -0.1746 -1.0195  0.1378
 4650poe    c3121229   2.801   5.320   7.478  0.3170 -0.3651 -0.0478
 4650poe     o221230   2.849   5.224   7.387 -0.1493 -0.4943 -0.1595
 4650poe    c2321231   2.817   5.091   7.421 -0.3381 -0.3368  0.2810
 4650poe    c2321232   2.796   5.021   7.285  0.0736  0.4137 -0.1765
 4650poe     o221233   2.911   5.055   7.210  0.0432  0.7045 -0.0941
 4650poe    c2321234   2.881   5.084   7.075 -0.0553 -0.5282 -0.3476
 4650poe    c2321235   3.017   5.108   7.006 -0.0538  0.0164 -0.1569
 4650poe     o221236   3.079   5.202   7.090 -0.2453 -0.0405  0.0499
 4650poe    c2321237   3.174   5.267   7.009  0.0668 -0.3987  0.1271
 4650poe    c2321238   3.266   5.361   7.089 -0.1867 -0.0283 -0.0116
 4650poe     o221239   3.332   5.302   7.199 -0.4742  0.0568  0.2073
 4650poe    c3121240   3.425   5.392   7.252 -0.4317  0.6688 -0.8750
 4651poe    c3121241   5.321   4.753   2.778 -0.3087  0.0099 -0.2064
 4651poe     o221242   5.424   4.830   2.835 -0.1448 -0.1190 -0.3244
 4651poe    c2321243   5.495   4.903   2.738 -0.3363  0.4191 -0.0635
 4651poe    c2321244   5.585   5.014   2.796 -0.2506  0.0064  0.6117
 4651poe     o221245   5.701   4.964   2.858 -0.1780 -0.1232  0.3745
 4651poe    c2321246   5.760   5.055   2.949  0.2547  0.2339 -0.2587
 4651poe    c2321247   5.911   5.034   2.968  0.1887  0.0370  0.0425
 4651poe     o221248   5.937   4.935   3.066  0.5337  0.2070  0.1255
 4651poe    c2321249   6.074   4.945   3.094  0.4917  0.1859  0.3386
 4651poe    c2321250   6.115   4.852   3.210  0.5658 -0.3209 -0.0896
 4651poe     o221251   6.095   4.717   3.175 -0.2308 -0.2622  0.1174
 4651poe    c3121252   6.158   4.649   3.281  1.2761  0.3196 -0.3801
 4652poe    c3121253   4.717   4.984   1.869 -1.0183 -0.1531 -0.4045
 4652poe     o221254   4.654   5.021   1.989  0.1495 -0.0932  0.2091
 4652poe    c2321255   4.516   5.049   1.980  0.0322 -0.6334  0.2739
 4652poe    c2321256   4.469   5.084   2.122  0.2122  0.5935  0.0425
 4652poe     o221257   4.555   5.192   2.150  0.7887  0.0732  0.2977
 4652poe    c2321258   4.524   5.255   2.272  0.4955 -0.3631  0.4493
 4652poe    c2321259   4.660   5.280   2.339  0.5510  0.0170  0.1923
 4652poe     o221260   4.726   5.159   2.366 -0.0608 -0.3286  0.1551
 4652poe    c2321261   4.831   5.171   2.459  0.0829  0.1356 -0.0627
 4652poe    c2321262   4.904   5.042   2.505  0.7939  0.4732 -0.2269
 4652poe     o221263   4.968   4.966   2.405  0.9360  0.7089 -0.3157
 4652poe    c3121264   5.052   4.860   2.441 -0.2129  0.0224  0.4210
 4653poe    c3121265   4.274   2.311   6.778  0.4667 -0.0141  0.3666
 4653poe     o221266   4.157   2.363   6.720  0.6024 -0.1348 -0.0164
 4653poe    c2321267   4.156   2.332   6.582  0.2624 -0.2753  0.0163
 4653poe    c2321268   4.029   2.387   6.515  0.4648  0.3530  0.1435
 4653poe     o221269   3.992   2.505   6.582 -0.5334 -0.1535  0.5006
 4653poe    c2321270   3.867   2.551   6.535 -0.4133 -0.3130  0.0185
 4653poe    c2321271   3.816   2.681   6.600  0.2856  0.0476 -0.1447
 4653poe     o221272   3.817   2.669   6.741 -0.0574  0.3875 -0.1109
 4653poe    c2321273   3.776   2.793   6.793  0.1732  0.4836 -0.1547
 4653poe    c2321274   3.836   2.814   6.934 -0.0440 -0.2422  0.0532
 4653poe     o221275   3.973   2.844   6.919 -0.1493  0.1326 -0.1817
 4653poe    c3121276   4.024   2.900   7.038  0.1800  0.1003 -0.3071
 4654poe    c3121277   0.607   5.238   4.714  0.3604  0.0490  0.4026
 4654poe     o221278   0.625   5.121   4.790 -0.0721  0.0302  0.4785
 4654poe    c2321279   0.763   5.106   4.812 -0.0019  0.2311  0.1701
 4654poe    c2321280   0.789   4.992   4.912  0.0176  0.4135  0.3708
 4654poe     o221281   0.717   5.004   5.033 -0.4868 -0.0322  0.1182
 4654poe    c2321282   0.759   4.913   5.132 -0.3859  0.3339  0.4161
 4654poe    c2321283   0.688   4.936   5.266  0.1330  0.2025  0.7197
 4654poe     o221284   0.549   4.910   5.270  0.1801 -0.2952 -0.4799
 4654poe    c2321285   0.508   4.845   5.388 -0.0630 -0.0483 -0.4276
 4654poe    c2321286   0.375   4.770   5.367 -0.2370  0.2376 -0.3464
 4654poe     o221287   0.367   4.653   5.289  0.3598  0.0494 -0.1294
 4654poe    c3121288   0.239   4.656   5.229  0.3905 -0.1794 -0.2065
 4655poe    c3121289   0.319   3.871   3.574  0.1791  0.2372  0.0097
 4655poe     o221290   0.440   3.935   3.610  0.1431  0.0234  0.5240
 4655poe    c2321291   0.455   3.946   3.750  0.3195 -0.4751  0.5475
 4655poe    c2321292   0.589   4.001   3.801  0.2439  0.1074  0.1379
 4655poe     o221293   0.712   3.937   3.775  0.4227  0.6230 -0.2855
 4655poe    c2321294   0.725   3.811   3.836  0.4463  0.7680  0.0089
 4655poe    c2321295   0.864   3.756   3.801  0.0781 -0.2330  0.0959
 4655poe     o221296   0.881   3.697   3.674 -0.2504  0.1106 -0.1087
 4655poe    c2321297   0.982   3.599   3.679 -0.2783  0.0599 -0.5068
 4655poe    c2321298   0.963   3.456   3.733  0.4937  0.1299 -0.0292
 4655poe     o221299   0.931   3.469   3.870  0.5300  0.2426 -0.0309
 4655poe    c3121300   0.898   3.343   3.925 -0.0202  0.2868 -0.2554
 4656poe    c3121301   3.056   6.444   0.965 -0.0240 -0.5386 -0.6893
 4656poe     o221302   3.144   6.417   1.072 -0.1835  0.4417 -0.2960
 4656poe    c2321303   3.061   6.442   1.183 -0.1463 -0.1913 -0.1223
 4656poe    c2321304   3.120   6.388   1.315 -0.5767  0.0416  0.1668
 4656poe     o221305   3.248   6.439   1.346 -0.3823 -0.2760 -0.1170
 4656poe    c2321306   3.352   6.355   1.393 -0.1276 -0.1682 -0.4785
 4656poe    c2321307   3.467   6.445   1.439 -0.3425 -0.0445 -0.1762
 4656poe     o221308   3.541   6.484   1.325 -0.3471 -0.1967 -0.2309
 4656poe    c2321309   3.670   6.529   1.357 -0.0498 -0.7910 -0.5756
 4656poe    c2321310   3.726   6.665   1.311 -0.3668 -0.3778  0.2273
 4656poe     o221311   3.647   6.771   1.361  0.0648  0.1092 -0.1110
 4656poe    c3121312   3.722   6.864   1.435 -0.1110 -0.4409  0.7651
 4657poe    c3121313   4.729   2.437   6.947 -0.0154  0.3380 -0.4370
 4657poe     o221314   4.588   2.446   6.953  0.0128  0.3963  0.3001
 4657poe    c2321315   4.545   2.574   6.912  0.1321  0.4485  0.3352
 4657poe    c2321316   4.396   2.587   6.951 -0.1197  0.3994 -0.5889
 4657poe     o221317   4.352   2.565   7.083 -0.2833 -0.0999 -0.7272
 4657poe    c2321318   4.356   2.688   7.151 -0.2997 -0.5206  0.0502
 4657poe    c2321319   4.292   2.668   7.290 -0.4150 -0.2298  0.0406
 4657poe     o221320   4.164   2.616   7.261 -0.3851 -0.4861  0.3687
 4657poe    c2321321   4.096   2.573   7.377 -0.4103 -1.0452  0.1520
 4657poe    c2321322   3.945   2.580   7.351 -0.5076  0.0082  0.9339
 4657poe     o221323   3.909   2.473   7.267  0.4043  0.2956  0.1669
 4657poe    c3121324   3.852   2.359   7.328 -0.4655  0.1478 -0.8923
 4658poe    c3121325   3.449   1.668   0.209  0.2921  0.4416  0.6741
 4658poe     o221326   3.457   1.776   0.299 -0.4048  0.5943  0.5556
 4658poe    c2321327   3.561   1.773   0.393 -0.2211 -0.2336  0.3292
 4658poe    c2321328   3.567   1.895   0.487  0.1643  0.1191 -0.1510
 4658poe     o221329   3.549   2.016   0.417 -0.1803  0.1233 -0.0584
 4658poe    c2321330   3.560   2.137   0.488 -0.7337 -0.2883  0.7347
 4658poe    c2321331   3.680   2.226   0.450 -1.0038 -0.1856  0.1175
 4658poe     o221332   3.678   2.265   0.315 -0.4963  0.2185  0.2260
 4658poe    c2321333   3.754   2.177   0.235  0.0398  0.2872  0.6580
 4658poe    c2321334   3.756   2.212   0.085 -0.4230 -0.1164  0.5556
 4658poe     o221335   3.637   2.210   0.010  0.0324  0.3586 -0.1940
 4658poe    c3121336   3.593   2.341  -0.020 -0.1480  0.2857 -0.2509
 4659poe    c3121337   0.790   4.409   3.320 -0.0820 -0.1636  0.0245
 4659poe     o221338   0.827   4.328   3.211  0.3367 -0.1284  0.1387
 4659poe    c2321339   0.787   4.384   3.088 -0.3941  0.1660  0.5018
 4659poe    c2321340   0.814   4.321   2.950  0.1646  0.4592  0.4744
 4659poe     o221341   0.766   4.192   2.920 -0.0389  0.5785  0.2935
 4659poe    c2321342   0.696   4.191   2.798  0.6168 -0.4057 -0.0821
 4659poe    c2321343   0.682   4.058   2.721  0.2979 -0.4424  0.0357
 4659poe     o221344   0.579   3.978   2.774  0.0936 -0.0170  0.2816
 4659poe    c2321345   0.524   3.884   2.685 -0.5832  0.8690 -0.2590
 4659poe    c2321346   0.440   3.780   2.763  0.3586 -0.2552 -0.7124
 4659poe     o221347   0.519   3.702   2.849 -0.4568  0.0493  0.3326
 4659poe    c3121348   0.441   3.614   2.927 -0.2656 -0.1471  0.3042
 4660poe    c3121349   1.301   5.309   2.718 -0.1274 -0.0017 -0.1802
 4660poe     o221350   1.275   5.339   2.583  0.1926  0.8583 -0.0549
 4660poe    c2321351   1.156   5.409   2.555  0.0100  0.4682 -0.2602
 4660poe    c2321352   1.185   5.558   2.530 -0.0830  0.6224  0.5193
 4660poe     o221353   1.208   5.562   2.391 -0.4427  0.0264  0.4395
 4660poe    c2321354   1.176   5.684   2.328  0.3179 -0.0125 -0.0397
 4660poe    c2321355   1.249   5.816   2.361 -0.2571  0.4419 -0.5459
 4660poe     o221356   1.374   5.816   2.295 -0.2409  0.1492 -0.5199
 4660poe    c2321357   1.424   5.948   2.300 -0.4661  0.2097  0.3630
 4660poe    c2321358   1.527   5.968   2.187 -0.1558  0.1047  0.6264
 4660poe     o221359   1.569   5.836   2.160  0.5276  0.5044 -0.3296
 4660poe    c3121360   1.655   5.845   2.049  0.0948  1.0553 -0.6249
 4661poe    c3121361   0.434   1.838   3.957 -0.5874  0.1873 -0.6312
 4661poe     o221362   0.386   1.821   3.825 -0.1528  0.2765 -0.8033
 4661poe    c2321363   0.476   1.836   3.717  0.4443  0.4152 -0.2950
 4661poe    c2321364   0.454   1.726   3.612 -0.1037  0.4763 -0.2482
 4661poe     o221365   0.327   1.752   3.556 -0.1115 -0.1190 -0.5171
 4661poe    c2321366   0.311   1.676   3.438  0.1836 -0.4272 -0.3601
 4661poe    c2321367   0.182   1.714   3.364  0.0141 -0.4463 -0.0759
 4661poe     o221368   0.069   1.705   3.448 -0.3486 -0.0527 -0.5110
 4661poe    c2321369  -0.044   1.758   3.384 -0.5280 -0.0764 -0.2162
 4661poe    c2321370  -0.152   1.810   3.481 -0.4319  0.2264 -0.2707
 4661poe     o221371  -0.102   1.918   3.557 -0.5491  0.0393  0.0742
 4661poe    c3121372  -0.191   1.939   3.664 -1.0453  0.3170 -0.3915
 4662poe    c3121373   3.109   5.877   6.277 -0.4201  0.0485 -0.2301
 4662poe     o221374   3.150   6.012   6.283  0.1168 -0.1510  0.7797
 4662poe    c2321375   3.039   6.083   6.335 -0.0001 -0.1546  0.5348
 4662poe    c2321376   3.092   6.218   6.387  0.0655  0.2792 -0.6225
 4662poe     o221377   3.152   6.271   6.271  0.6916  0.2961 -0.2936
 4662poe    c2321378   3.209   6.394   6.310  0.4526  0.2456  0.2273
 4662poe    c2321379   3.239   6.462   6.175  0.5203  0.4138  0.3260
 4662poe     o221380   3.335   6.397   6.095  0.5425  0.4608  0.3143
 4662poe    c2321381   3.392   6.464   5.985  0.4394 -0.3190 -0.2286
 4662poe    c2321382   3.420   6.378   5.861  0.5361 -0.3981 -0.1512
 4662poe     o221383   3.319   6.288   5.823  0.4194 -0.3127 -0.0447
 4662poe    c3121384   3.365   6.182   5.741 -0.4752 -0.1590 -0.7647
 4663poe    c3121385   4.043   7.198   5.948  0.2059  0.2202  0.2435
 4663poe     o221386   4.133   7.284   5.883 -0.0516  0.2826 -0.0363
 4663poe    c2321387   4.260   7.252   5.936 -0.1949 -0.2051  0.0199
 4663poe    c2321388   4.361   7.368   5.946  0.1308 -0.4827 -0.0338
 4663poe     o221389   4.337   7.435   6.068  0.5937 -0.0531 -0.1738
 4663poe    c2321390   4.441   7.524   6.102  0.7102 -0.0954 -0.4133
 4663poe    c2321391   4.476   7.514   6.252  0.2300 -0.2766 -0.3103
 4663poe     o221392   4.541   7.392   6.283  0.5445 -0.1272 -0.3801
 4663poe    c2321393   4.487   7.345   6.404 -0.0271 -0.0565 -0.6040
 4663poe    c2321394   4.550   7.212   6.449  0.3574  0.1841 -0.4271
 4663poe     o221395   4.687   7.203   6.481  0.1288 -0.4593  0.3897
 4663poe    c3121396   4.696   7.121   6.596  0.6361  0.1628  0.7991
 4664poe    c3121397   1.497   0.229   5.432 -0.4461 -0.0706 -0.7222
 4664poe     o221398   1.451   0.167   5.313 -0.1000 -1.1257 -0.3204
 4664poe    c2321399   1.315   0.186   5.285  0.0609  0.1736 -0.2799
 4664poe    c2321400   1.280   0.111   5.155  0.7407 -0.1259 -0.2927
 4664poe     o221401   1.294  -0.029   5.170 -0.7963 -0.2401  0.2923
 4664poe    c2321402   1.174  -0.096   5.202 -0.8973  0.3265  1.1466
 4664poe    c2321403   1.191  -0.246   5.235  0.3992  0.2836  0.3475
 4664poe     o221404   1.283  -0.293   5.140  0.2403  0.1872  0.2418
 4664poe    c2321405   1.251  -0.426   5.104 -0.3731  0.3551  0.1586
 4664poe    c2321406   1.319  -0.542   5.178 -0.4813 -0.1730 -0.5567
 4664poe     o221407   1.460  -0.539   5.184 -0.4793 -0.3339 -0.5050
 4664poe    c3121408   1.501  -0.660   5.243 -0.3270 -0.1093 -0.1508
 4665poe    c3121409   3.914   2.566   5.390 -0.2474 -0.0158 -0.0407
 4665poe     o221410   3.997   2.452   5.381  0.5209  0.5216  0.1845
 4665poe    c2321411   4.088   2.486   5.278 -0.1516  0.2802 -0.4986
 4665poe    c2321412   4.166   2.373   5.208 -0.2747 -0.0184 -0.1598
 4665poe     o221413   4.262   2.325   5.300 -0.2321 -0.3663 -0.3831
 4665poe    c2321414   4.270   2.187   5.273  0.1003 -0.3198 -0.5293
 4665poe    c2321415   4.346   2.093   5.368  0.2484  0.2144 -0.1128
 4665poe     o221416   4.281   2.054   5.486  0.4259 -0.3180 -0.1885
 4665poe    c2321417   4.351   1.949   5.550 -0.6308 -0.4294  0.8186
 4665poe    c2321418   4.310   1.804   5.521 -0.2102 -0.4302  0.2162
 4665poe     o221419   4.205   1.752   5.600  0.2812 -0.4750  0.8501
 4665poe    c3121420   4.152   1.632   5.548 -0.0084 -0.0057  0.0333
 4666poe    c3121421   2.007   5.696   7.554  0.5760  0.4227  0.6424
 4666poe     o221422   2.137   5.717   7.504  0.3572 -0.1628 -0.1926
 4666poe    c2321423   2.199   5.839   7.541  0.0725 -0.0704 -0.0176
 4666poe    c2321424   2.350   5.825   7.566  0.1403 -0.0480 -0.4061
 4666poe     o221425   2.432   5.786   7.459  0.2879 -0.2708 -0.2141
 4666poe    c2321426   2.571   5.803   7.477  0.2603  0.0551 -0.2966
 4666poe    c2321427   2.634   5.674   7.423 -0.1054 -0.1105 -0.3291
 4666poe     o221428   2.567   5.645   7.302 -0.4287 -1.1768  0.0914
 4666poe    c2321429   2.628   5.530   7.249 -0.4367 -1.4828  0.7343
 4666poe    c2321430   2.572   5.466   7.121  0.4550 -0.0214 -0.4141
 4666poe     o221431   2.435   5.443   7.145  0.3964  0.5062 -0.2331
 4666poe    c3121432   2.364   5.391   7.035  0.4309 -0.3568  0.1417
 4667poe    c3121433   0.635   0.779   7.377 -0.4431  0.1361  0.4919
 4667poe     o221434   0.520   0.709   7.421 -0.5418  0.3591  0.5878
 4667poe    c2321435   0.540   0.574   7.387  0.4340  0.6445 -0.0156
 4667poe    c2321436   0.415   0.488   7.411  0.6183  0.3443 -0.1307
 4667poe     o221437   0.300   0.521   7.337  0.3142  0.1291  0.2403
 4667poe    c2321438   0.205   0.418   7.358 -0.4180  0.8424  0.4628
 4667poe    c2321439   0.114   0.403   7.235  0.2505 -0.1030  0.0777
 4667poe     o221440   0.185   0.372   7.117  0.2046 -0.0022  0.0236
 4667poe    c2321441   0.227   0.237   7.109 -0.5958 -0.2597  0.0585
 4667poe    c2321442   0.357   0.219   7.029 -0.3469  0.6079  0.2496
 4667poe     o221443   0.356   0.203   6.889  0.2692  0.6729  0.2356
 4667poe    c3121444   0.479   0.231   6.824  0.4432  0.2278  0.3713
 4668poe    c3121445   6.414   6.038   4.851  0.1353  0.0178  0.0968
 4668poe     o221446   6.284   6.024   4.904 -0.1898  0.2975 -0.6134
 4668poe    c2321447   6.230   5.910   4.842 -0.7163  0.2886 -0.1495
 4668poe    c2321448   6.110   5.840   4.908 -0.2453 -0.0169  0.3958
 4668poe     o221449   6.139   5.791   5.037  0.3611 -0.3552  0.1331
 4668poe    c2321450   6.021   5.732   5.086  0.1053  0.2569  0.2689
 4668poe    c2321451   6.043   5.618   5.188  0.2517 -0.1188 -0.1767
 4668poe     o221452   6.115   5.506   5.143  1.0354  0.4313 -0.3290
 4668poe    c2321453   6.149   5.425   5.253  0.5976  0.3440 -0.2540
 4668poe    c2321454   6.203   5.286   5.215 -0.3874 -0.1599  0.1581
 4668poe     o221455   6.110   5.197   5.156  0.2966 -0.8415  0.0886
 4668poe    c3121456   6.163   5.118   5.053  0.5112 -0.4305 -0.1170
 4669poe    c3121457   4.701   5.792   3.670 -0.2221 -0.6070  0.7715
 4669poe     o221458   4.565   5.831   3.663 -0.0618 -0.1287  0.2692
 4669poe    c2321459   4.512   5.796   3.537  0.0225 -0.2879  0.2780
 4669poe    c2321460   4.359   5.787   3.533  0.0317 -0.2179 -0.2081
 4669poe     o221461   4.313   5.740   3.658 -0.0575  0.3196 -0.0370
 4669poe    c2321462   4.183   5.684   3.657  0.0503  0.0686 -0.2088
 4669poe    c2321463   4.069   5.783   3.628  0.0947  0.0273 -0.5329
 4669poe     o221464   4.054   5.864   3.743  0.7188  0.1609 -0.5426
 4669poe    c2321465   3.961   5.966   3.717  0.7006  0.1015 -0.7116
 4669poe    c2321466   3.906   6.034   3.844  0.4945 -0.5524 -0.4464
 4669poe     o221467   3.803   5.964   3.911  0.2445  0.5565  0.3537
 4669poe    c3121468   3.676   6.004   3.865  0.3333  0.6506  0.1867
 4670poe    c3121469   2.108   5.406   1.364  0.1956 -0.5608  0.3542
 4670poe     o221470   2.061   5.393   1.496  0.0889 -0.1614  0.3579
 4670poe    c2321471   1.925   5.424   1.517  0.0209  0.1064 -0.4545
 4670poe    c2321472   1.875   5.357   1.646  0.3237  0.3125 -0.2310
 4670poe     o221473   1.940   5.399   1.765  0.1641  0.3853 -0.1695
 4670poe    c2321474   1.888   5.318   1.867 -0.3280  0.4771 -0.3404
 4670poe    c2321475   1.976   5.342   1.992  0.1884 -0.2143 -0.5615
 4670poe     o221476   2.116   5.336   1.983  0.2386 -0.4663  0.2638
 4670poe    c2321477   2.184   5.403   2.086  0.3453 -0.6970  0.3449
 4670poe    c2321478   2.330   5.356   2.072  0.5435  0.0016  0.0300
 4670poe     o221479   2.369   5.384   1.939 -0.5183 -0.5429 -0.4122
 4670poe    c3121480   2.503   5.342   1.935 -0.2670  0.2139 -0.1372
 4671poe    c3121481   4.354   1.007   2.856  0.5908  0.5064  0.5021
 4671poe     o221482   4.393   0.964   2.728 -0.5612  0.0161  0.3074
 4671poe    c2321483   4.343   0.833   2.707 -0.1356 -0.1607  0.3808
 4671poe    c2321484   4.339   0.796   2.558 -0.1784  0.4446  0.2302
 4671poe     o221485   4.219   0.845   2.502 -0.4664 -0.3843  0.1117
 4671poe    c2321486   4.234   0.918   2.382 -0.3604 -0.9029 -0.1923
 4671poe    c2321487   4.105   0.911   2.298 -0.7436 -0.1426  0.3251
 4671poe     o221488   4.101   0.780   2.248  0.2282  0.0197 -0.1888
 4671poe    c2321489   3.979   0.733   2.195 -0.0576 -0.1782  0.6413
 4671poe    c2321490   3.989   0.586   2.151 -0.5124 -0.0861  0.2173
 4671poe     o221491   4.044   0.566   2.023 -0.1474  0.2960  0.3104
 4671poe    c3121492   4.017   0.443   1.959  0.5003  0.0559  0.4865
 4672poe    c3121493   1.577   6.756   6.722 -0.3191  0.1202  0.0759
 4672poe     o221494   1.490   6.689   6.633 -0.1622 -0.0342  0.0393
 4672poe    c2321495   1.523   6.552   6.628  0.0580  0.0150  0.1165
 4672poe    c2321496   1.459   6.501   6.497  0.0852 -0.2319  0.1982
 4672poe     o221497   1.489   6.585   6.388 -0.2892  0.0898  0.3411
 4672poe    c2321498   1.414   6.526   6.284  0.1618  0.2030 -0.0522
 4672poe    c2321499   1.435   6.622   6.165  0.1153  0.0758 -0.1644
 4672poe     o221500   1.448   6.754   6.213  0.0031 -0.1031  0.3625
 4672poe    c2321501   1.452   6.831   6.096  0.4398 -0.1391  0.3506
 4672poe    c2321502   1.390   6.967   6.134 -0.0816 -0.3685  0.3296
 4672poe     o221503   1.271   6.948   6.206 -0.1603 -0.1984  0.2424
 4672poe    c3121504   1.189   7.057   6.244  0.0673 -0.0153  0.2095
 4673poe    c3121505   0.490   2.857   0.427 -0.2699 -0.0274  0.3538
 4673poe     o221506   0.498   2.769   0.537 -0.4901 -0.0706  0.3348
 4673poe    c2321507   0.605   2.679   0.525 -0.2520  0.1694  0.6543
 4673poe    c2321508   0.629   2.555   0.613  0.3636 -0.3642 -0.2496
 4673poe     o221509   0.732   2.582   0.706  0.2150  0.3504 -0.2877
 4673poe    c2321510   0.699   2.529   0.833  0.0295 -0.4168 -0.6489
 4673poe    c2321511   0.754   2.608   0.953 -0.1895 -0.4287 -0.5401
 4673poe     o221512   0.894   2.593   0.937 -0.0454 -0.0569  0.3163
 4673poe    c2321513   0.963   2.670   1.032 -0.4898 -0.0861  0.6694
 4673poe    c2321514   1.100   2.620   1.082 -0.2283 -0.6530 -0.5808
 4673poe     o221515   1.101   2.509   1.169  0.2239 -0.0618  0.1797
 4673poe    c3121516   1.029   2.503   1.290  0.1933  0.6047  0.1991
 4674poe    c3121517   6.072   5.431   3.947  0.0411 -0.2195  0.0678
 4674poe     o221518   5.965   5.372   3.877 -0.3870  0.3417  0.2441
 4674poe    c2321519   5.841   5.432   3.906 -0.6590 -0.0618 -0.0700
 4674poe    c2321520   5.721   5.380   3.824 -0.0738 -0.4621 -0.6818
 4674poe     o221521   5.661   5.270   3.889 -0.4390  0.1725  0.0792
 4674poe    c2321522   5.576   5.212   3.792 -0.0464 -0.4666  0.1159
 4674poe    c2321523   5.508   5.078   3.825 -0.3655 -0.3969 -0.2552
 4674poe     o221524   5.393   5.108   3.901 -0.0102 -0.5111  0.3358
 4674poe    c2321525   5.398   5.049   4.029  0.0818 -0.1265  0.5073
 4674poe    c2321526   5.279   5.053   4.126 -0.2799 -0.1889  0.0667
 4674poe     o221527   5.158   4.993   4.086 -0.2916 -0.2525  0.1965
 4674poe    c3121528   5.160   4.884   4.175 -0.9324 -0.4682 -0.0450
 4675poe    c3121529   3.810   5.550   1.099  0.9703  0.6852  0.0602
 4675poe     o221530   3.726   5.649   1.154 -0.1624 -0.4049  0.3301
 4675poe    c2321531   3.720   5.764   1.073 -0.6861 -0.3649  0.4223
 4675poe    c2321532   3.685   5.892   1.152 -0.3092 -0.0056  0.0098
 4675poe     o221533   3.759   5.911   1.271 -0.3436 -0.2309  0.0689
 4675poe    c2321534   3.734   6.033   1.337  0.5762  0.3584 -0.6492
 4675poe    c2321535   3.828   6.057   1.457  0.0159  0.6546 -0.2635
 4675poe     o221536   3.960   6.060   1.408  0.3658  0.3550  0.6402
 4675poe    c2321537   4.056   6.080   1.509 -0.0298 -0.3100  1.1556
 4675poe    c2321538   4.202   6.108   1.466 -0.5455  0.5012 -0.1172
 4675poe     o221539   4.275   6.006   1.401 -1.0817 -0.0085  0.0673
 4675poe    c3121540   4.235   5.992   1.266 -0.4893 -0.5675 -0.0529
 4676poe    c3121541   1.428   6.266   6.913  0.0121 -0.6853  0.1886
 4676poe     o221542   1.367   6.350   7.008 -0.2301 -0.1046 -0.4736
 4676poe    c2321543   1.297   6.450   6.939  0.0313  0.3923 -0.0298
 4676poe    c2321544   1.321   6.592   6.995  0.1650  0.3795 -0.0551
 4676poe     o221545   1.451   6.628   7.035 -0.1418  0.1703  1.1667
 4676poe    c2321546   1.449   6.765   7.069  0.1001  0.4829 -0.0327
 4676poe    c2321547   1.586   6.797   7.131  0.5293 -0.0117 -0.7095
 4676poe     o221548   1.620   6.689   7.215 -0.0819  0.4865  0.1897
 4676poe    c2321549   1.725   6.722   7.303  0.1739  0.4265 -0.0920
 4676poe    c2321550   1.677   6.694   7.447 -0.8569  0.3041 -0.4556
 4676poe     o221551   1.639   6.559   7.462 -0.3838  0.2149 -0.0539
 4676poe    c3121552   1.616   6.517   7.595  0.2409  0.3771  0.1099
 4677poe    c3121553   5.476   1.931   6.625  0.8276 -0.5036 -0.4034
 4677poe     o221554   5.552   2.038   6.677 -0.5991  0.1170  0.4659
 4677poe    c2321555   5.481   2.078   6.792 -0.0411 -0.2414  0.9411
 4677poe    c2321556   5.580   2.171   6.865  0.5650 -0.2075  0.0950
 4677poe     o221557   5.618   2.264   6.767  0.1491 -0.0995  0.0344
 4677poe    c2321558   5.636   2.387   6.835  0.3104 -0.1052  0.0018
 4677poe    c2321559   5.722   2.481   6.749  0.5765  0.1715  0.5676
 4677poe     o221560   5.655   2.506   6.627  0.1823  0.2136  0.7922
 4677poe    c2321561   5.591   2.632   6.630 -0.2946 -0.0152  0.2535
 4677poe    c2321562   5.497   2.646   6.509 -0.3870 -0.3246  0.2882
 4677poe     o221563   5.389   2.556   6.499 -0.3319 -0.3310 -0.2547
 4677poe    c3121564   5.390   2.478   6.381 -0.7469 -0.5052 -0.1485
 4678poe    c3121565   0.044   6.407   2.818  0.2600  0.2876 -0.0740
 4678poe     o221566  -0.036   6.366   2.710 -0.2151 -0.1427  0.4295
 4678poe    c2321567  -0.161   6.426   2.731  0.2332  0.8934  0.2013
 4678poe    c2321568  -0.214   6.452   2.588  0.3867  0.1640  0.0079
 4678poe     o221569  -0.135   6.540   2.512  0.0854  0.6131  0.2128
 4678poe    c2321570  -0.152   6.503   2.377  0.5064 -0.3949  0.4315
 4678poe    c2321571  -0.036   6.560   2.294 -0.0322 -0.0947 -0.1168
 4678poe     o221572  -0.013   6.696   2.321 -0.2601 -0.0487 -0.1509
 4678poe    c2321573   0.127   6.713   2.320 -0.2856  0.1408 -0.3779
 4678poe    c2321574   0.134   6.860   2.365 -0.0189  0.2413 -0.7434
 4678poe     o221575   0.052   6.861   2.479 -0.2708  0.3697 -0.9240
 4678poe    c3121576   0.059   6.995   2.523  0.5466  0.0801 -0.1505
 4679poe    c3121577   7.210   6.658   3.342  0.1205 -0.6254 -0.0796
 4679poe     o221578   7.303   6.745   3.281 -0.2367  0.0503  0.3307
 4679poe    c2321579   7.425   6.676   3.268  0.2340  0.8651  0.3687
 4679poe    c2321580   7.520   6.737   3.164  0.7331 -0.1342  0.2209
 4679poe     o221581   7.526   6.878   3.169  0.0643 -0.0986  0.0537
 4679poe    c2321582   7.572   6.952   3.280  0.0116  0.1343 -0.0795
 4679poe    c2321583   7.606   7.101   3.257 -0.3180  0.2331  0.0741
 4679poe     o221584   7.738   7.122   3.212 -0.2547 -0.0832  0.1089
 4679poe    c2321585   7.791   7.239   3.270  0.6345 -0.7255  0.6246
 4679poe    c2321586   7.935   7.275   3.231  0.3384 -0.1829  0.0146
 4679poe     o221587   7.918   7.305   3.094 -0.1819  0.4533  0.2136
 4679poe    c3121588   8.040   7.326   3.025 -0.1807 -0.0859  0.0488
 4680poe    c3121589   3.344   7.072   4.400 -0.1956 -0.1135  0.5154
 4680poe     o221590   3.344   7.184   4.486 -0.1018  0.1776  0.1419
 4680poe    c2321591   3.472   7.207   4.541  0.2259 -0.2182 -0.4377
 4680poe    c2321592   3.488   7.333   4.627 -0.2723 -0.1093 -0.4980
 4680poe     o221593   3.478   7.449   4.548  0.4778  0.3365  0.0458
 4680poe    c2321594   3.474   7.565   4.629  0.7365  0.3647  0.0176
 4680poe    c2321595   3.468   7.692   4.542  0.4151  0.1374 -0.2970
 4680poe     o221596   3.392   7.649   4.431 -0.2581  0.6130 -0.0283
 4680poe    c2321597   3.387   7.752   4.334 -0.4246  0.4973 -0.1416
 4680poe    c2321598   3.514   7.811   4.271 -0.2215 -0.0084 -0.2074
 4680poe     o221599   3.567   7.913   4.352  0.5307 -0.3054 -0.3077
 4680poe    c3121600   3.668   7.976   4.276  0.4415  0.1659 -0.0407
 4681poe    c3121601   4.432   3.274   6.319 -0.1998  1.0707 -0.3679
 4681poe     o221602   4.537   3.260   6.226  0.3865  0.3308  0.3863
 4681poe    c2321603   4.492   3.306   6.101  0.1954  0.7075  0.5920
 4681poe    c2321604   4.620   3.291   6.017  0.0953 -0.1866  0.5865
 4681poe     o221605   4.678   3.166   6.045  0.0673 -0.2557  0.3404
 4681poe    c2321606   4.806   3.182   5.988  0.2529 -0.3485  0.7268
 4681poe    c2321607   4.904   3.073   6.033  0.2588 -0.5565  0.2127
 4681poe     o221608   4.921   3.046   6.170 -0.1435 -0.4246  0.2893
 4681poe    c2321609   4.982   2.921   6.194 -0.0728 -0.5498 -0.5287
 4681poe    c2321610   4.962   2.874   6.339  0.8395  0.4809 -0.0611
 4681poe     o221611   4.832   2.851   6.387  0.8102  0.6090 -0.0777
 4681poe    c3121612   4.854   2.776   6.505 -0.0943  0.3854 -0.0417
 4682poe    c3121613   7.461   3.271   5.269  0.0541 -0.2934  0.3281
 4682poe     o221614   7.558   3.293   5.169 -0.7353  0.4101 -0.2951
 4682poe    c2321615   7.575   3.423   5.116 -0.2902  0.4794  0.0182
 4682poe    c2321616   7.468   3.460   5.012 -0.1323 -0.0908 -0.3518
 4682poe     o221617   7.496   3.413   4.882  0.2848 -0.2619 -0.2024
 4682poe    c2321618   7.407   3.447   4.778  0.4315  0.4804 -0.0960
 4682poe    c2321619   7.457   3.395   4.642  0.1904  0.0357 -0.0181
 4682poe     o221620   7.461   3.254   4.647  0.5842  0.0536  0.1805
 4682poe    c2321621   7.512   3.207   4.524  0.2024 -0.4162  0.2027
 4682poe    c2321622   7.657   3.158   4.531  0.5204  0.5270  0.3003
 4682poe     o221623   7.684   3.043   4.608  0.8977  0.4742  0.0946
 4682poe    c3121624   7.741   2.937   4.534  0.0286 -0.2095  0.3894
 4683poe    c3121625   6.648   0.285   2.630 -0.4103 -0.0286 -0.2919
 4683poe     o221626   6.747   0.186   2.612 -0.0436  0.2502  0.1469
 4683poe    c2321627   6.860   0.201   2.693  0.2075 -0.3411 -0.0886
 4683poe    c2321628   6.851   0.197   2.847  0.0668  0.0157 -0.0866
 4683poe     o221629   6.953   0.264   2.917 -0.0080 -0.0752  0.1124
 4683poe    c2321630   6.953   0.240   3.056 -0.3918 -0.2586  0.0801
 4683poe    c2321631   6.827   0.277   3.136 -0.6320  0.4046 -0.5909
 4683poe     o221632   6.836   0.418   3.136  0.1888  0.3581 -0.2234
 4683poe    c2321633   6.735   0.479   3.214  0.1303 -0.0735  0.0469
 4683poe    c2321634   6.725   0.633   3.211  0.0354 -0.0853 -0.4342
 4683poe     o221635   6.847   0.690   3.254 -0.4487  0.3520  0.3944
 4683poe    c3121636   6.850   0.830   3.238 -0.3971  0.3077 -0.0090
 4684poe    c3121637   4.888   7.225   6.880  1.0336 -0.6728  0.5055
 4684poe     o221638   5.014   7.287   6.870  0.5618  0.1336 -0.5087
 4684poe    c2321639   5.030   7.346   6.997 -0.1181 -0.2757 -0.2294
 4684poe    c2321640   5.159   7.426   7.022 -0.0399 -0.2054 -0.8403
 4684poe     o221641   5.128   7.554   6.971 -0.1854  0.0541 -0.1095
 4684poe    c2321642   5.203   7.650   7.042  0.0549  0.3153 -0.7126
 4684poe    c2321643   5.147   7.793   7.022  0.2958  0.4394 -0.5038
 4684poe     o221644   5.043   7.831   7.108 -0.0069 -0.1758 -0.5952
 4684poe    c2321645   5.001   7.965   7.094  0.3220  0.0587  0.5756
 4684poe    c2321646   4.873   8.003   7.170 -0.0943 -0.1855  0.0003
 4684poe     o221647   4.761   7.940   7.113 -0.2044  0.2425 -0.2612
 4684poe    c3121648   4.645   8.012   7.148  0.0511  0.4935  0.0728
 4685poe    c3121649   5.379   3.118   7.291  0.0563  0.0676 -0.2083
 4685poe     o221650   5.436   3.159   7.413 -0.2820  0.0832 -0.0556
 4685poe    c2321651   5.387   3.282   7.460  0.0234  0.1791  0.0142
 4685poe    c2321652   5.350   3.270   7.609  0.3233  0.6618  0.1309
 4685poe     o221653   5.444   3.193   7.681 -0.6476 -0.4855  0.2079
 4685poe    c2321654   5.426   3.173   7.819 -0.7079  0.3311  0.3193
 4685poe    c2321655   5.543   3.215   7.911 -0.0482 -0.2062 -0.2650
 4685poe     o221656   5.669   3.162   7.875 -0.0265 -0.0677 -0.3968
 4685poe    c2321657   5.761   3.183   7.980 -0.2487 -0.1494 -0.1823
 4685poe    c2321658   5.881   3.270   7.934 -0.1199 -0.2090  0.0401
 4685poe     o221659   5.836   3.365   7.841  0.0919  0.1605  0.3143
 4685poe    c3121660   5.930   3.456   7.788 -0.2109  0.0235 -0.4817
 4686poe    c3121661   2.529   1.869   1.952 -0.3547 -0.0411 -0.7491
 4686poe     o221662   2.650   1.932   1.915 -0.1518  0.1226  0.1652
 4686poe    c2321663   2.650   2.069   1.948  0.0354  0.2068 -0.1873
 4686poe    c2321664   2.716   2.149   1.834  0.3516 -0.3925 -0.4340
 4686poe     o221665   2.618   2.176   1.737  0.2267  0.0535 -0.1846
 4686poe    c2321666   2.642   2.150   1.601 -0.2182 -0.5905 -0.1466
 4686poe    c2321667   2.673   2.006   1.559  0.4037 -0.5062  0.0181
 4686poe     o221668   2.800   1.989   1.498  0.1451 -0.3947 -0.5552
 4686poe    c2321669   2.825   1.856   1.459  0.3855 -0.3155 -0.6673
 4686poe    c2321670   2.964   1.799   1.493  0.2622 -0.0780  0.2450
 4686poe     o221671   2.982   1.756   1.627  0.0810  0.3879  0.4203
 4686poe    c3121672   3.072   1.650   1.647 -0.5550 -0.2548 -0.0761
 4687poe    c3121673   3.422   7.164   3.573 -0.4788  0.1978  0.6038
 4687poe     o221674   3.302   7.238   3.587 -0.4640  0.4410 -0.4543
 4687poe    c2321675   3.296   7.299   3.714  0.1052  0.4406 -0.4221
 4687poe    c2321676   3.174   7.391   3.732 -0.1462 -0.1297  0.9144
 4687poe     o221677   3.046   7.332   3.729 -0.2944  0.2087  0.2804
 4687poe    c2321678   2.938   7.420   3.708 -0.3841  0.2030  0.6924
 4687poe    c2321679   2.802   7.352   3.682 -0.2691  0.1116  0.3204
 4687poe     o221680   2.810   7.260   3.575  0.2804 -0.2880  0.6970
 4687poe    c2321681   2.691   7.183   3.570  0.1368 -0.0268  0.0690
 4687poe    c2321682   2.709   7.055   3.486  0.0719 -0.3496  0.5401
 4687poe     o221683   2.819   6.983   3.536  0.6698  0.3517  0.2625
 4687poe    c3121684   2.862   6.885   3.443 -0.4286  0.0824  0.0288
 4688poe    c3121685   4.001   5.243   2.967  0.4482 -0.4094 -0.2967
 4688poe     o221686   3.919   5.342   3.025  0.8160 -0.6859  0.7056
 4688poe    c2321687   3.946   5.470   2.974 -0.4681 -0.5384  0.3603
 4688poe    c2321688   3.842   5.579   3.005 -0.1051 -0.1060  0.0732
 4688poe     o221689   3.715   5.560   2.946 -0.1517  0.2474  0.0573
 4688poe    c2321690   3.617   5.659   2.971 -0.6722 -0.1646 -0.3202
 4688poe    c2321691   3.516   5.600   3.072 -0.4633  0.0845  0.0377
 4688poe     o221692   3.467   5.471   3.046 -0.3637  0.1178 -0.3324
 4688poe    c2321693   3.398   5.427   3.161  0.6661 -1.0032 -0.1191
 4688poe    c2321694   3.491   5.406   3.282  0.4030  0.6276  0.3850
 4688poe     o221695   3.592   5.310   3.257 -0.1534  0.1724 -0.1421
 4688poe    c3121696   3.668   5.269   3.368 -0.0832  0.0123 -0.2495
 4689poe    c3121697   0.515   1.087   3.531 -0.4453 -0.0557  0.7140
 4689poe     o221698   0.387   1.029   3.515  0.0304 -0.8339 -0.3974
 4689poe    c2321699   0.309   1.032   3.632 -0.0492  0.4435 -0.4644
 4689poe    c2321700   0.248   1.168   3.671  0.7936  0.6595  0.1152
 4689poe     o221701   0.346   1.244   3.739  0.2966  0.9227  0.5431
 4689poe    c2321702   0.308   1.373   3.781 -0.4378  0.7329  0.4864
 4689poe    c2321703   0.391   1.443   3.890  0.0802  0.5119  0.2412
 4689poe     o221704   0.388   1.383   4.018  0.1790 -0.0653 -0.0248
 4689poe    c2321705   0.447   1.464   4.117  0.1272 -0.0458 -0.0103
 4689poe    c2321706   0.369   1.460   4.250  1.0478  0.0558  0.5419
 4689poe     o221707   0.242   1.515   4.219  0.8553 -0.5878  0.1808
 4689poe    c3121708   0.159   1.511   4.333  0.3414 -0.4874 -0.1891
 4690poe    c3121709   6.549   4.531   2.486  0.2105  0.6130 -0.0644
 4690poe     o221710   6.617   4.446   2.576 -0.3198  0.1112 -0.1326
 4690poe    c2321711   6.640   4.324   2.510  0.8363  0.2474 -0.0092
 4690poe    c2321712   6.705   4.214   2.595 -0.1846 -0.5928 -0.2743
 4690poe     o221713   6.632   4.159   2.702  0.1355  0.1515  0.3401
 4690poe    c2321714   6.703   4.053   2.763  0.3336 -0.0539 -0.2469
 4690poe    c2321715   6.641   3.988   2.887 -0.1064  0.4794 -0.1847
 4690poe     o221716   6.519   3.918   2.875  0.2096 -0.0874 -0.1229
 4690poe    c2321717   6.463   3.905   3.004 -0.4530 -0.2232 -0.4203
 4690poe    c2321718   6.315   3.864   3.007 -0.3637 -0.5113  0.0770
 4690poe     o221719   6.292   3.730   2.966 -0.1839 -0.3032 -0.7251
 4690poe    c3121720   6.308   3.626   3.060 -0.4915  0.0880 -0.2314
 4691poe    c3121721   4.816   3.697   0.532  0.3800  0.0861 -0.0290
 4691poe     o221722   4.841   3.569   0.586  0.0314  0.1242  0.2249
 4691poe    c2321723   4.976   3.546   0.617  0.1291  0.1659 -0.1730
 4691poe    c2321724   4.981   3.411   0.689  0.5469 -0.0347 -0.5704
 4691poe     o221725   4.936   3.301   0.612 -0.3635 -0.2585  0.2542
 4691poe    c2321726   5.053   3.240   0.562  0.0342  0.7065 -0.0230
 4691poe    c2321727   5.026   3.160   0.434  0.0941  0.3333  0.1966
 4691poe     o221728   4.959   3.037   0.449  0.5506  0.1054  0.3873
 4691poe    c2321729   4.892   2.990   0.333  0.1518 -0.1382  0.7138
 4691poe    c2321730   4.769   2.906   0.370  0.4209 -0.5872  0.5996
 4691poe     o221731   4.667   2.980   0.434  0.5829 -0.3333  0.5650
 4691poe    c3121732   4.558   2.900   0.474  0.2023  0.0440  0.2889
 4692poe    c3121733   2.050   1.725   7.599 -0.0573 -0.1121  0.2928
 4692poe     o221734   2.007   1.728   7.465 -0.0477  0.4858  0.2969
 4692poe    c2321735   2.045   1.843   7.393  0.2597 -0.0492 -0.4065
 4692poe    c2321736   2.177   1.853   7.314  0.2284  0.7243 -0.3647
 4692poe     o221737   2.173   1.780   7.194 -0.0784  0.0580  0.0396
 4692poe    c2321738   2.270   1.823   7.100 -0.3465  0.1554 -0.1932
 4692poe    c2321739   2.297   1.735   6.977 -0.6226  0.0275 -0.1642
 4692poe     o221740   2.183   1.710   6.898 -0.6096 -0.4339 -0.0403
 4692poe    c2321741   2.219   1.629   6.788  0.1212 -0.0383 -0.1019
 4692poe    c2321742   2.081   1.573   6.750  0.1557 -0.1779 -0.0218
 4692poe     o221743   2.022   1.492   6.849 -0.0772  0.2301  0.1736
 4692poe    c3121744   1.905   1.435   6.794 -0.0076  0.0121  0.2504
 4693poe    c3121745   2.311   2.349   1.688  0.3245 -0.6735 -0.1016
 4693poe     o221746   2.321   2.339   1.828 -0.0090  0.2180 -0.0087
 4693poe    c2321747   2.250   2.223   1.864 -0.1500  0.1975 -0.3480
 4693poe    c2321748   2.262   2.191   2.015 -0.8754  0.1708 -0.2958
 4693poe     o221749   2.187   2.286   2.088 -0.0871  0.1272  0.5889
 4693poe    c2321750   2.166   2.241   2.220  0.6956 -0.2682  0.5818
 4693poe    c2321751   2.082   2.346   2.294  0.1100 -0.0279 -0.4094
 4693poe     o221752   2.140   2.473   2.275  0.2408 -0.0397 -0.0804
 4693poe    c2321753   2.052   2.567   2.332  0.3854 -0.2928  0.5750
 4693poe    c2321754   2.128   2.692   2.285  0.3062 -0.3985  0.1609
 4693poe     o221755   2.155   2.682   2.147 -0.0798  0.2406  0.0334
 4693poe    c3121756   2.231   2.793   2.104 -0.1059  0.3181  0.1879
 4694poe    c3121757   1.399   2.866   0.739 -0.2728 -0.1708  0.1761
 4694poe     o221758   1.362   2.888   0.605  0.0198 -0.8149 -0.0176
 4694poe    c2321759   1.269   2.993   0.585  1.3631  0.3812 -0.1186
 4694poe    c2321760   1.262   3.023   0.434 -0.5817 -0.0039 -0.1260
 4694poe     o221761   1.207   2.906   0.377 -0.5645  0.1750 -0.5088
 4694poe    c2321762   1.271   2.891   0.252 -0.6660 -0.2078 -0.5153
 4694poe    c2321763   1.234   2.763   0.174 -0.3450 -0.4115 -0.3386
 4694poe     o221764   1.265   2.648   0.249  0.2488 -0.3607 -0.5037
 4694poe    c2321765   1.248   2.534   0.167 -1.3704 -0.1748 -0.4656
 4694poe    c2321766   1.256   2.400   0.242  0.2361  0.1226 -0.0598
 4694poe     o221767   1.160   2.396   0.345 -0.3209 -0.2657 -0.5832
 4694poe    c3121768   1.174   2.275   0.417  0.2088  0.1021 -0.0543
 4695poe    c3121769   0.128   6.136   7.610 -0.0132  0.2669 -0.3666
 4695poe     o221770   0.051   6.026   7.654  0.7144 -0.2904 -0.4633
 4695poe    c2321771   0.087   5.996   7.787 -0.0477  0.1981 -0.1384
 4695poe    c2321772   0.015   5.866   7.825 -0.2264  0.6958  1.2712
 4695poe     o221773  -0.121   5.885   7.793 -0.1489 -0.2925  0.2834
 4695poe    c2321774  -0.196   5.770   7.825 -0.4049 -0.1803  0.0949
 4695poe    c2321775  -0.333   5.830   7.790 -0.1947 -0.0009 -0.4252
 4695poe     o221776  -0.350   5.867   7.655  0.2396  0.7143 -0.2930
 4695poe    c2321777  -0.476   5.922   7.623 -0.1742  0.2228  0.4483
 4695poe    c2321778  -0.478   5.983   7.481  0.4096 -0.1104  0.2898
 4695poe     o221779  -0.459   5.889   7.379 -0.1839  0.5966 -0.4887
 4695poe    c3121780  -0.551   5.787   7.349  0.4412 -0.2260  0.3323
 4696poe    c3121781   3.643   6.404   6.412  1.0026 -0.2518 -0.1103
 4696poe     o221782   3.660   6.479   6.531 -0.2630  0.0071 -0.0810
 4696poe    c2321783   3.559   6.473   6.629  0.1812  0.1363  0.3852
 4696poe    c2321784   3.530   6.345   6.711  0.0715  0.0915  0.2761
 4696poe     o221785   3.437   6.258   6.651 -0.0181  0.4156 -0.0642
 4696poe    c2321786   3.361   6.210   6.760  0.4697 -0.5473 -0.1339
 4696poe    c2321787   3.237   6.132   6.712  0.2129  0.1499 -0.6222
 4696poe     o221788   3.256   6.020   6.628  0.5412 -0.4173  0.1982
 4696poe    c2321789   3.304   5.906   6.696 -0.1055 -0.6542  0.2563
 4696poe    c2321790   3.372   5.812   6.595  0.0216 -0.1125 -0.1644
 4696poe     o221791   3.504   5.833   6.550 -0.0702  0.1115 -0.3344
 4696poe    c3121792   3.544   5.749   6.444 -0.4471 -0.4599 -0.0330
 4697poe    c3121793   3.210   3.046   5.112  0.5265 -0.1922  0.2259
 4697poe     o221794   3.123   3.155   5.087  0.8859 -0.1467 -0.8959
 4697poe    c2321795   3.006   3.133   5.013  0.2069 -0.2063  0.1699
 4697poe    c2321796   2.939   3.256   4.948 -0.1087 -0.4134  0.0965
 4697poe     o221797   2.881   3.345   5.042 -0.6023 -0.0295 -0.5649
 4697poe    c2321798   2.840   3.477   5.016 -0.2755  0.1355 -0.2479
 4697poe    c2321799   2.942   3.587   4.981  0.0446  0.1319  0.6466
 4697poe     o221800   3.049   3.599   5.072  0.5005  0.0807  0.1215
 4697poe    c2321801   3.140   3.705   5.047 -0.5967  1.0640  0.1890
 4697poe    c2321802   3.225   3.742   5.170 -0.1547  0.3728  0.0972
 4697poe     o221803   3.318   3.640   5.199 -0.2668  0.2355 -0.0272
 4697poe    c3121804   3.428   3.703   5.260 -0.3080  0.3617 -0.0845
 4698poe    c3121805   2.053   0.410   1.870  0.6599 -0.2476 -0.1792
 4698poe     o221806   2.074   0.276   1.830  0.6957 -0.2745 -0.0705
 4698poe    c2321807   1.968   0.210   1.765 -0.1000  0.5070  0.4121
 4698poe    c2321808   2.007   0.063   1.742 -0.7865  0.4913 -0.7289
 4698poe     o221809   2.116   0.047   1.654 -0.0542  0.7104  0.1286
 4698poe    c2321810   2.121   0.106   1.527 -0.3674 -0.0298 -0.2351
 4698poe    c2321811   2.257   0.126   1.456 -0.2144  0.4247  0.1825
 4698poe     o221812   2.362   0.160   1.543 -0.1926 -0.0570  0.3442
 4698poe    c2321813   2.406   0.293   1.526  1.0002 -0.4485  0.2600
 4698poe    c2321814   2.537   0.320   1.602  0.8097  0.3297  0.3132
 4698poe     o221815   2.498   0.308   1.737 -0.1530  0.0637  0.0191
 4698poe    c3121816   2.570   0.393   1.824 -0.0332  0.1046 -0.1190
 4699poe    c3121817   5.784   4.281   0.281  0.0669  0.0916 -0.2381
 4699poe     o221818   5.776   4.338   0.410 -0.2212  0.1014 -0.2577
 4699poe    c2321819   5.778   4.479   0.406 -0.1889  0.1216  0.3555
 4699poe    c2321820   5.833   4.544   0.535 -0.5975  0.3965  0.3908
 4699poe     o221821   5.810   4.682   0.552 -0.3367  0.5348 -0.3013
 4699poe    c2321822   5.872   4.735   0.667 -0.7022  0.6118 -0.1362
 4699poe    c2321823   5.876   4.889   0.668  0.0470  0.5951  0.4418
 4699poe     o221824   5.926   4.955   0.554  0.2829  0.1187  0.2692
 4699poe    c2321825   6.066   4.940   0.545  0.4141  1.0733  0.6282
 4699poe    c2321826   6.115   4.954   0.399 -0.0581 -0.0617  0.3502
 4699poe     o221827   6.050   4.859   0.317  0.3876 -0.2324  0.1918
 4699poe    c3121828   6.145   4.764   0.276  0.2639 -0.2462 -0.0622
 4700poe    c3121829   3.704   5.182   5.554  0.1652 -0.0713 -0.2436
 4700poe     o221830   3.580   5.180   5.620  0.3389  0.0553  0.0894
 4700poe    c2321831   3.517   5.306   5.615  0.4677  0.1232  0.1666
 4700poe    c2321832   3.381   5.297   5.687 -0.0290  0.4972 -0.7004
 4700poe     o221833   3.394   5.273   5.825  0.0128 -0.0519 -0.7940
 4700poe    c2321834   3.271   5.288   5.894  0.1522 -0.5988 -0.4203
 4700poe    c2321835   3.259   5.211   6.027 -0.3430  0.5934  0.2496
 4700poe     o221836   3.353   5.234   6.129  0.0343  0.1819 -0.0004
 4700poe    c2321837   3.314   5.176   6.251 -0.5670  0.0668 -0.2467
 4700poe    c2321838   3.433   5.197   6.347 -0.1488  0.5672 -0.8691
 4700poe     o221839   3.557   5.142   6.309  0.2232  0.8829 -0.1298
 4700poe    c3121840   3.635   5.150   6.425  0.0737 -0.0401  0.0426
 4701poe    c3121841   7.044   4.202   2.322 -0.1705  0.0313 -0.1096
 4701poe     o221842   7.113   4.202   2.444 -0.2866 -0.0156 -0.0437
 4701poe    c2321843   7.132   4.072   2.496  0.2780 -0.1143 -0.4892
 4701poe    c2321844   7.236   4.081   2.608 -0.2245  0.3730 -0.0550
 4701poe     o221845   7.196   4.137   2.731 -0.1760 -0.7134  0.4673
 4701poe    c2321846   7.312   4.183   2.798 -0.2191 -0.5625  0.4387
 4701poe    c2321847   7.322   4.126   2.940 -0.0919 -0.5875  0.4199
 4701poe     o221848   7.211   4.175   3.013  0.0298 -0.4539  0.5150
 4701poe    c2321849   7.214   4.141   3.149 -0.0996  0.8268  0.8473
 4701poe    c2321850   7.077   4.124   3.219 -0.2406  0.3412  0.4558
 4701poe     o221851   7.080   4.071   3.349  0.0334  0.5142  0.5210
 4701poe    c3121852   6.947   4.088   3.393 -0.2022  0.3182 -0.1005
 4702poe    c3121853   6.135   7.562   1.920  0.1675  0.0452 -0.6390
 4702poe     o221854   6.001   7.574   1.962  0.3029 -0.5523 -0.0199
 4702poe    c2321855   5.994   7.570   2.103 -0.0858  0.7850  0.0212
 4702poe    c2321856   5.873   7.655   2.144 -0.1859  0.9953 -0.6878
 4702poe     o221857   5.750   7.617   2.088 -0.0151 -0.1313 -0.3136
 4702poe    c2321858   5.644   7.681   2.155  0.3817  0.5183 -0.3010
 4702poe    c2321859   5.535   7.725   2.056 -0.6294 -0.0863  0.5199
 4702poe     o221860   5.522   7.621   1.962  0.1136 -0.0772  0.3992
 4702poe    c2321861   5.413   7.629   1.873  0.1507 -0.0981  0.3515
 4702poe    c2321862   5.376   7.501   1.796 -0.0291  0.4291 -0.4564
 4702poe     o221863   5.487   7.445   1.729 -0.4555 -0.2418 -0.6141
 4702poe    c3121864   5.471   7.311   1.690  0.5012 -0.2946 -0.8358
 4703poe    c3121865   5.712   3.908   2.727  0.6172  0.1580  0.2175
 4703poe     o221866   5.844   3.951   2.703  0.6348  0.2488  0.4769
 4703poe    c2321867   5.863   4.083   2.749 -0.3436  0.4831  0.2402
 4703poe    c2321868   5.934   4.166   2.641 -0.1710 -0.3213 -0.2713
 4703poe     o221869   5.933   4.297   2.694 -0.0540 -0.3382 -0.2279
 4703poe    c2321870   6.017   4.379   2.617 -0.0167 -0.0565  0.1114
 4703poe    c2321871   6.162   4.401   2.666 -0.0607 -0.5083  0.4472
 4703poe     o221872   6.263   4.303   2.664  0.4356  0.0042  0.1595
 4703poe    c2321873   6.362   4.336   2.759  0.3723 -0.4863  0.3993
 4703poe    c2321874   6.349   4.279   2.901 -0.2092 -0.4027  0.3829
 4703poe     o221875   6.292   4.367   2.996 -0.2549  0.0576 -0.0666
 4703poe    c3121876   6.384   4.430   3.083  0.0624  0.1014 -0.4297
 4704poe    c3121877   4.440   7.498   3.666 -0.4780  0.2616  0.0124
 4704poe     o221878   4.450   7.559   3.539  0.2408 -0.1456 -0.1294
 4704poe    c2321879   4.323   7.531   3.483 -0.2291  0.8274  0.4343
 4704poe    c2321880   4.314   7.594   3.343  0.2796 -0.3665 -0.1433
 4704poe     o221881   4.214   7.527   3.270  0.0812 -0.0028 -0.2076
 4704poe    c2321882   4.212   7.598   3.148  0.3155  0.2117 -0.0865
 4704poe    c2321883   4.072   7.629   3.090  0.5025 -0.4196 -0.8852
 4704poe     o221884   3.988   7.525   3.045 -0.1164 -0.0534 -0.5837
 4704poe    c2321885   3.854   7.561   3.020 -0.3584 -0.0717  0.6309
 4704poe    c2321886   3.759   7.442   3.038  0.0486 -0.4176  0.4940
 4704poe     o221887   3.748   7.404   3.174 -0.0356 -0.5960  0.4379
 4704poe    c3121888   3.629   7.332   3.195 -0.5779  0.1369 -0.0904
 4705poe    c3121889   2.161   0.247   3.335  0.5852 -0.4361 -0.3117
 4705poe     o221890   2.052   0.337   3.323  0.3060 -0.7179  0.0906
 4705poe    c2321891   1.953   0.265   3.254 -0.6291  0.0242  0.6398
 4705poe    c2321892   1.837   0.361   3.222 -0.5962 -0.2131 -0.2042
 4705poe     o221893   1.873   0.457   3.125  0.0222  0.2058  0.4356
 4705poe    c2321894   1.766   0.533   3.074 -0.0463 -0.3855 -0.3039
 4705poe    c2321895   1.766   0.573   2.925  0.2171 -0.4055 -0.3095
 4705poe     o221896   1.884   0.647   2.900  0.0331 -0.0114 -0.0142
 4705poe    c2321897   1.893   0.700   2.770 -0.4106  0.5807  0.1951
 4705poe    c2321898   2.026   0.764   2.727 -0.0500 -0.1010  0.2807
 4705poe     o221899   2.112   0.656   2.702 -0.0745 -0.0778  0.0921
 4705poe    c3121900   2.191   0.700   2.594  0.0933  0.1817  0.3209
 4706poe    c3121901   2.559   0.655   6.401 -0.7900 -0.7103 -0.0705
 4706poe     o221902   2.616   0.556   6.318 -0.1646 -0.0140 -0.4907
 4706poe    c2321903   2.609   0.423   6.365 -0.1437  0.2062  0.1443
 4706poe    c2321904   2.484   0.357   6.303 -0.0260  0.0012  0.1262
 4706poe     o221905   2.361   0.420   6.328  0.2733  0.4140  0.5820
 4706poe    c2321906   2.306   0.444   6.200  0.4824 -0.0240  0.4090
 4706poe    c2321907   2.162   0.498   6.194  0.5054 -0.0955 -1.0808
 4706poe     o221908   2.140   0.624   6.254 -0.1137 -0.3851 -0.6907
 4706poe    c2321909   2.046   0.620   6.358  0.8256 -0.2133  0.1869
 4706poe    c2321910   2.043   0.761   6.420  0.3655  0.1159 -0.5628
 4706poe     o221911   1.970   0.866   6.361 -0.5512 -0.1491  0.0706
 4706poe    c3121912   1.983   0.978   6.446 -0.4353 -0.2126  0.1363
 4707poe    c3121913   7.355   5.466   7.338 -0.1737 -0.0700 -0.3161
 4707poe     o221914   7.488   5.463   7.385 -0.4237 -0.3910  0.3928
 4707poe    c2321915   7.482   5.456   7.526 -0.2135  0.1817  0.4337
 4707poe    c2321916   7.611   5.441   7.609  0.3799 -0.0249 -0.5068
 4707poe     o221917   7.695   5.554   7.615  0.4115 -0.0739  0.0412
 4707poe    c2321918   7.830   5.515   7.633  0.3464  0.1112  0.9362
 4707poe    c2321919   7.915   5.641   7.610  0.8856 -0.4120  0.0383
 4707poe     o221920   7.930   5.682   7.476  0.3765  0.4737  0.2436
 4707poe    c2321921   8.060   5.658   7.427  0.2889  0.0055  0.2425
 4707poe    c2321922   8.066   5.587   7.291 -0.0629  0.0879  0.1843
 4707poe     o221923   8.051   5.681   7.186 -0.6281 -0.1092  0.0828
 4707poe    c3121924   8.065   5.625   7.058  0.8910 -0.4650  0.3785
 4708poe    c3121925   3.259   7.398   5.633 -0.6518 -0.1403 -0.2479
 4708poe     o221926   3.313   7.358   5.756 -0.0906 -0.5941 -0.6391
 4708poe    c2321927   3.450   7.333   5.733  0.0184 -0.4865 -0.1239
 4708poe    c2321928   3.533   7.391   5.850  0.1078 -0.6706 -0.0959
 4708poe     o221929   3.511   7.320   5.970 -0.2813  0.5545  0.5749
 4708poe    c2321930   3.582   7.384   6.074  0.3028  0.7063  0.0894
 4708poe    c2321931   3.550   7.306   6.203 -0.1830  0.5250 -0.1380
 4708poe     o221932   3.413   7.303   6.235  0.0146 -0.0828  0.6561
 4708poe    c2321933   3.405   7.180   6.303 -0.0420 -0.4087  0.0677
 4708poe    c2321934   3.263   7.139   6.348 -0.1814  0.4454  0.4138
 4708poe     o221935   3.183   7.120   6.234  0.0491  0.8748  0.1765
 4708poe    c3121936   3.057   7.078   6.280  0.2283 -0.4252 -0.4691
 4709poe    c3121937   4.594   7.548   4.879 -0.2010  0.0117 -0.7852
 4709poe     o221938   4.517   7.650   4.938  0.5466 -0.2727  0.7483
 4709poe    c2321939   4.594   7.734   5.021  0.8535 -0.1973  0.3892
 4709poe    c2321940   4.527   7.856   5.087 -0.1937 -0.4426 -0.1904
 4709poe     o221941   4.485   7.940   4.982 -0.4612 -0.4557 -0.0939
 4709poe    c2321942   4.387   8.034   5.021 -0.0517  0.0726 -0.3170
 4709poe    c2321943   4.244   7.979   5.005 -0.2392  0.4061  0.1618
 4709poe     o221944   4.214   7.877   5.097  0.1681  0.0768 -0.0634
 4709poe    c2321945   4.086   7.820   5.079  0.0029  0.3932  0.0995
 4709poe    c2321946   4.078   7.709   5.186  0.8016 -0.0386 -0.2816
 4709poe     o221947   4.167   7.602   5.165  0.1806 -0.5265 -0.4716
 4709poe    c3121948   4.174   7.533   5.288 -0.4776  0.1654 -0.0396
 4710poe    c3121949   2.738   5.867   6.148 -0.6841 -0.2960 -0.1349
 4710poe     o221950   2.704   5.910   6.019  0.0003 -0.0176 -0.2304
 4710poe    c2321951   2.619   5.811   5.963 -0.0545 -0.2402  0.2471
 4710poe    c2321952   2.621   5.780   5.813  0.8121 -0.0155  0.2065
 4710poe     o221953   2.750   5.761   5.758  0.7599  0.8212 -0.2332
 4710poe    c2321954   2.732   5.767   5.618 -0.0142 -0.1777 -0.1970
 4710poe    c2321955   2.828   5.864   5.546 -0.1009 -0.0005 -0.0752
 4710poe     o221956   2.821   6.002   5.573  0.2944 -0.1363  0.7580
 4710poe    c2321957   2.926   6.083   5.525 -0.2522 -0.3679 -0.8826
 4710poe    c2321958   2.935   6.230   5.571  0.2902 -0.6355 -0.1231
 4710poe     o221959   2.974   6.266   5.702  0.0860 -0.6384 -0.0615
 4710poe    c3121960   2.975   6.404   5.734  0.5509 -0.4500 -0.8572
 4711poe    c3121961   2.486   3.890   6.279  0.0504 -0.2335  0.0487
 4711poe     o221962   2.541   3.895   6.409  1.1434 -0.2764 -0.4046
 4711poe    c2321963   2.617   3.778   6.430 -0.0348 -1.0617 -0.4615
 4711poe    c2321964   2.707   3.763   6.554 -0.0921  0.1212 -0.2695
 4711poe     o221965   2.831   3.829   6.542 -0.2360  0.5237  0.3949
 4711poe    c2321966   2.917   3.787   6.645 -0.2896 -0.6782 -0.0389
 4711poe    c2321967   3.062   3.817   6.603 -0.4679 -0.3550 -0.4279
 4711poe     o221968   3.091   3.752   6.481 -0.1771 -0.3190 -0.3803
 4711poe    c2321969   3.228   3.761   6.453 -0.3207  0.5902 -0.8095
 4711poe    c2321970   3.254   3.692   6.318  0.4632 -0.3619 -0.1848
 4711poe     o221971   3.175   3.741   6.212  0.1033 -0.4294  0.0506
 4711poe    c3121972   3.236   3.841   6.134  0.2744 -0.2656  0.3950
 4712poe    c3121973   3.796   6.696   2.955 -0.6701  0.0742 -0.5057
 4712poe     o221974   3.849   6.815   2.900  0.1177  0.0431  0.1619
 4712poe    c2321975   3.786   6.923   2.965  0.5029  0.1321  0.3916
 4712poe    c2321976   3.865   7.053   2.941 -0.3161  0.5907  0.1448
 4712poe     o221977   3.995   7.025   2.987 -0.2746 -0.4683 -0.5959
 4712poe    c2321978   4.087   7.096   2.906  0.1421 -0.3731 -0.0427
 4712poe    c2321979   4.237   7.076   2.934  0.1176 -0.0273  0.3465
 4712poe     o221980   4.283   6.970   2.853 -0.4303  0.0211 -0.0350
 4712poe    c2321981   4.384   6.894   2.915 -0.9184 -0.8236 -0.2627
 4712poe    c2321982   4.410   6.746   2.879  0.5474 -0.6196 -0.1276
 4712poe     o221983   4.295   6.666   2.895  0.3481 -0.2673  0.2495
 4712poe    c3121984   4.332   6.530   2.896  0.0305 -0.3595 -0.2652
 4713poe    c3121985   0.446   4.375   0.156  0.0741  0.4376 -0.1686
 4713poe     o221986   0.339   4.284   0.156  0.1600  0.3348 -0.4318
 4713poe    c2321987   0.247   4.327   0.255  0.0572  0.2715 -0.4994
 4713poe    c2321988   0.123   4.237   0.243  0.6479 -0.5532 -0.5014
 4713poe     o221989   0.169   4.112   0.288  0.7438 -0.2468  0.2673
 4713poe    c2321990   0.053   4.034   0.310  0.1218  0.4340 -0.5359
 4713poe    c2321991   0.078   3.884   0.335 -0.4140  0.3908 -0.2426
 4713poe     o221992   0.143   3.813   0.232 -0.1933 -0.1149  0.2459
 4713poe    c2321993   0.171   3.681   0.273  0.2367 -0.0763  0.0790
 4713poe    c2321994   0.191   3.587   0.152  0.2526  0.2636 -0.1819
 4713poe     o221995   0.105   3.611   0.043 -0.2754 -0.2779  0.1124
 4713poe    c3121996  -0.026   3.563   0.067 -0.2679 -0.6241 -0.5069
 4714poe    c3121997   0.748   0.308   6.509 -0.0184  0.0556  0.3385
 4714poe     o221998   0.884   0.335   6.483 -0.1854 -0.1313 -0.7834
 4714poe    c2321999   0.934   0.430   6.575 -0.4577 -0.2591 -0.4999
 4714poe    c2322000   1.084   0.464   6.566 -0.4815  0.0868  0.3660
 4714poe     o222001   1.182   0.371   6.608 -0.2421  0.0818 -0.1959
 4714poe    c2322002   1.309   0.366   6.548 -0.1077  0.3181  0.0698
 4714poe    c2322003   1.310   0.348   6.396  0.4002 -0.5417  0.1654
 4714poe     o222004   1.295   0.216   6.347 -0.4812 -0.5204  0.3606
 4714poe    c2322005   1.416   0.149   6.322 -0.4761 -0.4809  0.2772
 4714poe    c2322006   1.387   0.023   6.239  0.0184 -0.0139 -0.6162
 4714poe     o222007   1.291  -0.055   6.307  0.1923 -0.0592 -0.4219
 4714poe    c3122008   1.273  -0.189   6.267 -0.1384  0.0749 -0.7303
 4715poe    c3122009   7.203   6.219   3.877 -0.5593 -0.0030  0.0840
 4715poe     o222010   7.123   6.335   3.886 -0.1834  0.2664 -0.0119
 4715poe    c2322011   6.993   6.304   3.933 -0.2720 -0.0651 -0.4611
 4715poe    c2322012   6.930   6.427   4.002  0.0230 -0.4536  0.5294
 4715poe     o222013   6.961   6.534   3.915 -0.4267 -0.4990  0.3123
 4715poe    c2322014   6.922   6.663   3.958  0.0283 -0.4788  0.6639
 4715poe    c2322015   6.937   6.780   3.860 -0.3127 -0.3299  0.7897
 4715poe     o222016   7.064   6.819   3.814 -0.4694 -0.2831  0.3890
 4715poe    c2322017   7.065   6.883   3.688  0.2725  0.0592  0.5609
 4715poe    c2322018   7.208   6.892   3.633  0.0326  0.3206 -0.0266
 4715poe     o222019   7.303   6.959   3.713 -0.1090  0.0823  0.3456
 4715poe    c3122020   7.412   7.015   3.641 -0.0012 -0.2428  0.2557
 4716poe    c3122021   1.185   4.931   4.994 -0.2793 -0.2730  0.2404
 4716poe     o222022   1.180   5.070   4.974  0.1002 -0.2965 -0.0286
 4716poe    c2322023   1.111   5.153   5.066 -0.1416 -0.0695 -0.4123
 4716poe    c2322024   1.143   5.303   5.053 -0.4027  0.0324  0.1115
 4716poe     o222025   1.263   5.312   5.126 -0.1504  0.4738 -0.3503
 4716poe    c2322026   1.304   5.445   5.149  0.0260  0.3715 -0.0716
 4716poe    c2322027   1.225   5.539   5.243 -0.3103 -0.2154  0.2392
 4716poe     o222028   1.097   5.586   5.208 -0.2031  0.0016  0.1428
 4716poe    c2322029   1.034   5.680   5.292  0.1350  0.1617  0.2204
 4716poe    c2322030   0.919   5.752   5.220  0.0693 -0.4303 -0.2743
 4716poe     o222031   0.824   5.669   5.157 -0.1853 -0.1308 -0.2915
 4716poe    c3122032   0.700   5.736   5.153  0.1412  0.4810 -0.3071
 4717poe    c3122033   5.163   5.179   0.109  0.3581  0.0865 -0.6187
 4717poe     o222034   5.069   5.165   0.005 -0.6729 -0.4237  0.3519
 4717poe    c2322035   4.935   5.197   0.034 -0.3265  1.0847  0.3924
 4717poe    c2322036   4.845   5.180  -0.090  0.1462 -0.1315  0.1993
 4717poe     o222037   4.807   5.048  -0.121 -0.2679  0.1569 -0.5565
 4717poe    c2322038   4.691   5.039  -0.201 -0.4277  0.8110 -0.4021
 4717poe    c2322039   4.672   5.089  -0.345  0.4955  0.5467 -0.6248
 4717poe     o222040   4.742   5.011  -0.439  0.3200  0.0246 -0.3275
 4717poe    c2322041   4.745   5.072  -0.567 -0.4770  0.5313 -0.1146
 4717poe    c2322042   4.839   5.194  -0.559 -0.2210  0.2901  0.7262
 4717poe     o222043   4.774   5.317  -0.533 -0.3787  0.4865 -0.5296
 4717poe    c3122044   4.889   5.392  -0.505 -0.2470  0.2231 -0.3607
 4718poe    c3122045   3.621   6.764   4.714  0.2006 -0.0359  0.2003
 4718poe     o222046   3.673   6.762   4.845  0.0413  0.7225  0.2792
 4718poe    c2322047   3.801   6.820   4.852  0.5226 -0.3269  0.3993
 4718poe    c2322048   3.782   6.964   4.902 -0.2152 -0.1680 -0.3298
 4718poe     o222049   3.740   6.989   5.034 -0.4714 -0.1972 -0.4041
 4718poe    c2322050   3.777   7.119   5.074 -1.2497 -0.3459  0.8269
 4718poe    c2322051   3.682   7.187   5.175 -0.5770  0.7508  0.7370
 4718poe     o222052   3.679   7.122   5.300 -0.0777 -0.2216  0.2572
 4718poe    c2322053   3.555   7.151   5.362  0.1533  1.0512  0.1538
 4718poe    c2322054   3.527   7.074   5.492  0.4925 -0.4567 -0.6413
 4718poe     o222055   3.640   7.091   5.575 -0.1882 -0.0848  0.2334
 4718poe    c3122056   3.633   7.011   5.691 -0.1068 -0.2096  0.1523
 4719poe    c3122057   2.295   1.263   6.936 -0.6126  0.2821 -0.2143
 4719poe     o222058   2.355   1.334   7.042 -0.3411 -0.2070 -0.0344
 4719poe    c2322059   2.315   1.268   7.160 -0.1857 -0.0040  0.1319
 4719poe    c2322060   2.265   1.365   7.269 -0.3296 -0.2177  0.2550
 4719poe     o222061   2.373   1.389   7.355 -0.2324 -0.0581  0.0885
 4719poe    c2322062   2.339   1.497   7.439 -0.4313  0.1783 -0.2935
 4719poe    c2322063   2.470   1.565   7.486 -0.3985  0.3923 -0.6928
 4719poe     o222064   2.536   1.639   7.386 -0.0490  0.6617 -0.2610
 4719poe    c2322065   2.651   1.707   7.431  0.0495 -0.1019  0.6701
 4719poe    c2322066   2.710   1.807   7.329 -0.2273 -0.3371  0.2781
 4719poe     o222067   2.687   1.759   7.199  0.2123 -0.5097  0.2650
 4719poe    c3122068   2.779   1.809   7.104 -0.4697  0.6695  0.2128
 4720poe    c3122069   3.840   1.688   2.632  0.3000  0.2565 -0.3206
 4720poe     o222070   3.920   1.786   2.569 -0.0013  0.8154  0.1552
 4720poe    c2322071   4.051   1.751   2.531 -0.5544  0.0387 -1.0882
 4720poe    c2322072   4.145   1.863   2.578 -0.5607 -0.3987 -0.0154
 4720poe     o222073   4.117   1.977   2.501  0.0688  0.0932  0.4653
 4720poe    c2322074   4.182   2.094   2.543 -0.2911  0.6064 -0.3819
 4720poe    c2322075   4.215   2.193   2.429  0.6703  0.4521 -0.2510
 4720poe     o222076   4.291   2.302   2.477  0.2639  0.4891  0.3232
 4720poe    c2322077   4.406   2.322   2.399  0.4047 -1.0150  0.1118
 4720poe    c2322078   4.515   2.396   2.479 -0.0327  0.0864 -0.2850
 4720poe     o222079   4.471   2.527   2.507  0.0475  0.1045 -0.2419
 4720poe    c3122080   4.543   2.581   2.615  0.5577 -0.3056 -0.3750
 4721poe    c3122081   0.511   7.554   7.146  0.3040  0.1521  0.0612
 4721poe     o222082   0.496   7.414   7.156 -0.0845  0.1857 -0.0532
 4721poe    c2322083   0.395   7.389   7.252 -0.4832 -0.5463 -0.6472
 4721poe    c2322084   0.392   7.237   7.276 -0.0864 -0.3576  0.7081
 4721poe     o222085   0.383   7.174   7.150  0.1173 -0.1139  0.5705
 4721poe    c2322086   0.375   7.034   7.164  0.0465 -0.0696  0.9913
 4721poe    c2322087   0.268   6.991   7.062  0.5457  0.5323  0.1949
 4721poe     o222088   0.285   7.058   6.939 -0.2192  0.7035  0.1719
 4721poe    c2322089   0.200   6.991   6.849 -0.1517  0.7305  0.0886
 4721poe    c2322090   0.194   7.068   6.715 -0.3290 -0.0999 -0.3880
 4721poe     o222091   0.108   7.179   6.724  0.3815  0.3890  0.5273
 4721poe    c3122092   0.125   7.262   6.611  0.1225 -0.3310 -0.0463
 4722poe    c3122093   0.470   5.728   0.331 -0.5366  0.2308 -0.1287
 4722poe     o222094   0.391   5.742   0.447 -0.4559  0.2653 -0.0768
 4722poe    c2322095   0.442   5.697   0.570  0.1488  0.0721 -0.3960
 4722poe    c2322096   0.333   5.688   0.678  1.0803 -0.3728  0.5243
 4722poe     o222097   0.277   5.559   0.686 -0.4601  0.2758  0.5540
 4722poe    c2322098   0.159   5.548   0.610 -0.5969  0.3089  0.7628
 4722poe    c2322099   0.126   5.407   0.558 -0.0440  0.4481  0.0239
 4722poe     o222100   0.195   5.378   0.439  0.1755  0.0737  0.2390
 4722poe    c2322101   0.170   5.245   0.400 -0.0602  0.1834  0.0182
 4722poe    c2322102   0.291   5.199   0.318 -0.4331  0.0676 -0.4748
 4722poe     o222103   0.399   5.171   0.404 -0.4459  0.2611 -0.3944
 4722poe    c3122104   0.508   5.144   0.318 -0.1317  0.0631  0.0618
 4723poe    c3122105   1.297   2.850   5.436  0.8627 -0.2087  0.4834
 4723poe     o222106   1.234   2.896   5.553 -0.1268 -0.1344 -0.0654
 4723poe    c2322107   1.151   3.008   5.530  0.1351  0.0615 -0.0650
 4723poe    c2322108   1.090   3.063   5.660 -0.8008  0.0775 -0.5015
 4723poe     o222109   1.163   3.160   5.732 -0.3130 -0.1858 -0.6408
 4723poe    c2322110   1.078   3.199   5.837  0.3869 -0.5614  0.0768
 4723poe    c2322111   1.149   3.299   5.929 -0.0139  0.3881 -0.6275
 4723poe     o222112   1.154   3.435   5.892  0.5556  0.6986  0.5158
 4723poe    c2322113   1.194   3.526   5.991  0.5501  0.5034  0.6971
 4723poe    c2322114   1.089   3.630   6.035 -1.0257 -0.7503 -0.0024
 4723poe     o222115   1.059   3.733   5.943  0.1020 -0.2382  0.1883
 4723poe    c3122116   1.138   3.850   5.951  0.3661 -0.3604 -0.5588
 4724poe    c3122117   4.859   4.371   3.624  0.3831  0.6024  0.5713
 4724poe     o222118   4.970   4.415   3.550 -0.0044  0.5361 -0.0607
 4724poe    c2322119   5.024   4.310   3.474 -0.0820  0.5177 -0.0907
 4724poe    c2322120   4.985   4.328   3.326 -0.3342  0.6700 -0.0049
 4724poe     o222121   4.846   4.310   3.312 -0.1364 -0.5028 -0.5428
 4724poe    c2322122   4.816   4.345   3.178  0.0046 -0.2891 -0.5185
 4724poe    c2322123   4.665   4.336   3.148 -0.1409  0.4882 -0.0478
 4724poe     o222124   4.613   4.439   3.230 -0.5748 -0.1254  0.4623
 4724poe    c2322125   4.476   4.426   3.259 -0.5987  0.0473  0.4282
 4724poe    c2322126   4.444   4.476   3.401 -0.3055  0.2516  0.4230
 4724poe     o222127   4.472   4.394   3.512 -0.8123  0.4006  0.6647
 4724poe    c3122128   4.447   4.466   3.630  0.5236  0.1862  1.0950
 4725poe    c3122129   6.312   3.288   0.408 -0.4010 -0.0030  1.1340
 4725poe     o222130   6.320   3.185   0.504  0.4127 -0.6190  0.4268
 4725poe    c2322131   6.252   3.208   0.625  0.3011 -0.4998  0.3421
 4725poe    c2322132   6.358   3.236   0.733  0.2535 -0.0166  0.2671
 4725poe     o222133   6.415   3.362   0.706  0.0650 -0.0135 -0.1236
 4725poe    c2322134   6.422   3.437   0.825  0.3021 -0.2951  0.0412
 4725poe    c2322135   6.488   3.575   0.802  0.0297 -0.2425 -0.4403
 4725poe     o222136   6.626   3.565   0.774  0.1531 -0.3147  0.1751
 4725poe    c2322137   6.715   3.587   0.881  0.1764  0.4234  0.0104
 4725poe    c2322138   6.861   3.601   0.833  0.0536  1.1112 -0.1709
 4725poe     o222139   6.870   3.717   0.754 -0.4293  0.3990 -1.3048
 4725poe    c3122140   7.005   3.758   0.765 -0.2709 -0.4345  0.1615
 4726poe    c3122141   4.551   5.850   5.995  0.9338 -0.1687 -0.1482
 4726poe     o222142   4.609   5.782   6.104 -0.1332 -0.2869  0.3552
 4726poe    c2322143   4.713   5.697   6.063 -0.0238  0.1091 -0.1985
 4726poe    c2322144   4.797   5.651   6.183 -0.7265 -0.0901  0.2291
 4726poe     o222145   4.764   5.521   6.225 -0.7180 -0.2504 -0.2458
 4726poe    c2322146   4.856   5.482   6.324 -0.7027  0.4045  0.0014
 4726poe    c2322147   4.804   5.371   6.417  0.2297  0.1688  0.2562
 4726poe     o222148   4.818   5.244   6.358 -0.0866  0.3704 -0.2646
 4726poe    c2322149   4.751   5.135   6.418 -0.2823  0.9493  0.5815
 4726poe    c2322150   4.809   5.083   6.551 -0.2483  0.3583  0.3358
 4726poe     o222151   4.808   5.166   6.665  0.3252  0.1893  0.4664
 4726poe    c3122152   4.677   5.180   6.715  0.0987 -1.4909  0.4080
 4727poe    c3122153   6.344   2.001   1.571  0.5170 -0.0487 -0.0117
 4727poe     o222154   6.338   2.135   1.616  0.2608 -0.0914  0.0886
 4727poe    c2322155   6.309   2.127   1.753  0.7622 -0.8123  0.1605
 4727poe    c2322156   6.291   2.252   1.841  0.3161 -0.5127 -0.3458
 4727poe     o222157   6.171   2.322   1.820  0.1044 -0.7076  0.1873
 4727poe    c2322158   6.114   2.360   1.943  0.4196  0.5485 -0.0444
 4727poe    c2322159   5.968   2.404   1.924  0.4141  0.3840 -0.3841
 4727poe     o222160   5.934   2.491   1.819  0.3112  0.2848 -0.4328
 4727poe    c2322161   5.793   2.484   1.809  0.3326 -0.2851 -0.3588
 4727poe    c2322162   5.736   2.597   1.723  0.4745  0.0121 -0.0633
 4727poe     o222163   5.809   2.611   1.604 -0.2335  0.0673 -0.4963
 4727poe    c3122164   5.747   2.711   1.526  0.6078  0.6494 -0.4254
 4728poe    c3122165   1.352   0.403   2.667 -0.0802 -0.4408 -1.0514
 4728poe     o222166   1.328   0.535   2.625 -0.4981  0.0095  0.5228
 4728poe    c2322167   1.194   0.526   2.584 -0.1590  0.0162 -0.6283
 4728poe    c2322168   1.137   0.669   2.575  0.2820  0.2290 -0.1211
 4728poe     o222169   1.210   0.743   2.479 -0.1618  0.0903 -0.5713
 4728poe    c2322170   1.152   0.866   2.441  0.3605  0.5461  0.0826
 4728poe    c2322171   1.227   0.901   2.311 -0.2235 -0.0589 -0.4213
 4728poe     o222172   1.362   0.910   2.349 -0.2942  0.2352 -0.2395
 4728poe    c2322173   1.447   0.980   2.260  0.0395  0.0537 -0.0650
 4728poe    c2322174   1.587   0.979   2.323 -0.0215  0.0298  0.0709
 4728poe     o222175   1.620   0.848   2.364 -1.0726 -0.0784  0.5850
 4728poe    c3122176   1.759   0.827   2.369 -0.9225  0.6257 -0.4319
 4729poe    c3122177   3.372   0.343   2.961 -0.7069 -0.1948 -0.4578
 4729poe     o222178   3.493   0.344   2.888 -0.3948 -0.4462  0.0435
 4729poe    c2322179   3.603   0.347   2.976 -0.3368 -0.0408 -0.0390
 4729poe    c2322180   3.737   0.339   2.900  0.0255  0.3318  0.5563
 4729poe     o222181   3.740   0.233   2.807 -0.1136  0.5947  0.2518
 4729poe    c2322182   3.850   0.235   2.719  0.1177  0.2415  0.5301
 4729poe    c2322183   3.846   0.136   2.601  0.0246  0.9562 -0.0735
 4729poe     o222184   3.741   0.175   2.516 -0.5952 -0.0865  0.1948
 4729poe    c2322185   3.722   0.098   2.399  0.3674 -0.1649  0.0816
 4729poe    c2322186   3.661   0.201   2.302  0.5761 -0.0603  0.0609
 4729poe     o222187   3.750   0.299   2.254  0.1060  0.3023 -0.0820
 4729poe    c3122188   3.687   0.395   2.174 -0.1010  0.1229 -0.1351
 4730poe    c3122189   3.162   7.058   2.404  0.5661  0.2116 -0.6019
 4730poe     o222190   3.199   7.030   2.271 -0.0287 -0.1949 -0.6886
 4730poe    c2322191   3.340   7.026   2.281 -0.0845  0.0657  0.3923
 4730poe    c2322192   3.384   6.879   2.296 -0.4086 -0.2086 -1.1156
 4730poe     o222193   3.353   6.805   2.181 -0.4044 -0.8388 -0.7153
 4730poe    c2322194   3.394   6.671   2.169  1.1823 -0.3937 -0.4806
 4730poe    c2322195   3.380   6.628   2.022 -0.2234  0.5819 -0.6516
 4730poe     o222196   3.249   6.620   1.970 -0.4012  0.1169 -0.1460
 4730poe    c2322197   3.255   6.539   1.855  0.0844  0.3033 -0.2573
 4730poe    c2322198   3.175   6.597   1.737 -0.6466  0.3198  0.2385
 4730poe     o222199   3.241   6.712   1.688  0.4010 -0.4041 -0.0678
 4730poe    c3122200   3.208   6.724   1.552 -1.2259 -0.0249  0.3463
 4731poe    c3122201   3.742   1.183   4.542  0.0336 -1.2528  0.0507
 4731poe     o222202   3.780   1.227   4.671  0.0466  0.0211 -0.3730
 4731poe    c2322203   3.771   1.367   4.669  0.2179  0.0325 -0.3551
 4731poe    c2322204   3.862   1.433   4.775 -0.2438 -0.1526  0.1599
 4731poe     o222205   3.833   1.375   4.901 -0.3993 -0.5631 -0.0615
 4731poe    c2322206   3.896   1.434   5.012 -0.3211 -0.4697 -0.1545
 4731poe    c2322207   3.834   1.360   5.132  0.2513 -0.7083 -0.0009
 4731poe     o222208   3.842   1.221   5.107 -0.0687 -0.6370 -0.5094
 4731poe    c2322209   3.834   1.145   5.225  0.0287 -0.4169 -0.3619
 4731poe    c2322210   3.691   1.141   5.283  0.3836 -0.5015  0.5345
 4731poe     o222211   3.597   1.119   5.181  0.4134 -0.0051  0.3946
 4731poe    c3122212   3.458   1.125   5.206  0.0062  0.1859 -1.6743
 4732poe    c3122213   1.813   6.079   1.087 -0.3492 -0.3642  0.1680
 4732poe     o222214   1.794   5.951   1.032 -0.4119 -0.5680  0.6579
 4732poe    c2322215   1.905   5.866   1.051  0.0338 -0.1671 -0.1051
 4732poe    c2322216   1.885   5.734   0.974  0.0147 -0.0256 -0.3415
 4732poe     o222217   1.826   5.755   0.847  0.4675  0.1129 -0.5331
 4732poe    c2322218   1.896   5.671   0.758  0.3357  0.0404 -0.5675
 4732poe    c2322219   1.827   5.710   0.625 -0.3751  0.2917 -0.1299
 4732poe     o222220   1.867   5.840   0.591  0.1477  0.2840  0.4298
 4732poe    c2322221   1.777   5.881   0.491  0.3705 -0.3462 -0.0367
 4732poe    c2322222   1.802   6.022   0.433  0.3294 -0.2855  0.0930
 4732poe     o222223   1.766   6.130   0.515 -0.5863 -0.1076 -0.5304
 4732poe    c3122224   1.630   6.169   0.513 -0.6711 -0.3674  0.0817
 4733poe    c3122225   6.672   2.708   4.892 -0.4710 -0.5576 -0.0809
 4733poe     o222226   6.701   2.726   4.755  0.6067 -0.0638  0.2056
 4733poe    c2322227   6.824   2.794   4.765  0.5568  0.1162 -0.3765
 4733poe    c2322228   6.909   2.800   4.636  0.2094 -0.2279 -0.6227
 4733poe     o222229   6.934   2.665   4.603  0.1521 -0.4664  0.2646
 4733poe    c2322230   6.996   2.655   4.477 -0.2584  0.0248  0.0214
 4733poe    c2322231   6.918   2.694   4.349 -0.0086 -0.2378 -0.2138
 4733poe     o222232   6.964   2.638   4.228  0.5449  0.0767 -0.1567
 4733poe    c2322233   6.885   2.654   4.112  0.3253 -0.1673 -0.0441
 4733poe    c2322234   6.945   2.605   3.980  0.4229  0.0903 -0.0966
 4733poe     o222235   7.070   2.654   3.935  0.4581  0.1688  0.0877
 4733poe    c3122236   7.177   2.567   3.965 -0.1890 -0.7330 -0.1765
 4734poe    c3122237   7.129   0.867   3.501 -0.0841 -0.9919  0.0292
 4734poe     o222238   7.138   0.850   3.640  0.0032 -0.1378  0.1307
 4734poe    c2322239   7.186   0.973   3.690  0.6751 -0.3386 -0.0061
 4734poe    c2322240   7.188   0.952   3.843  0.5652 -0.1578  0.0217
 4734poe     o222241   7.249   0.825   3.850  0.1522 -0.3497  0.1454
 4734poe    c2322242   7.322   0.803   3.968  0.5133  0.0590  0.0013
 4734poe    c2322243   7.337   0.655   4.008  0.0682 -0.1299 -0.5243
 4734poe     o222244   7.216   0.588   4.036  0.0399 -0.0594 -0.4783
 4734poe    c2322245   7.223   0.449   4.059 -0.0772 -0.0258 -0.2391
 4734poe    c2322246   7.085   0.385   4.081 -0.0039 -0.2562 -0.4419
 4734poe     o222247   6.995   0.390   3.973 -0.2543  0.0750 -0.2208
 4734poe    c3122248   6.904   0.283   3.983 -0.1095  0.0095  0.4431
 4735poe    c3122249   6.816   1.687   4.914  0.0695  0.0595 -0.4856
 4735poe     o222250   6.896   1.775   4.838  0.1972 -0.2841 -0.7526
 4735poe    c2322251   7.017   1.707   4.812  0.3941 -0.3522  0.3029
 4735poe    c2322252   7.134   1.807   4.813 -0.1636  0.3200 -0.2716
 4735poe     o222253   7.131   1.884   4.931  0.2145 -0.4072  0.2199
 4735poe    c2322254   7.267   1.896   4.967  0.2426  0.3884 -0.1510
 4735poe    c2322255   7.295   1.961   5.104  0.8205 -0.0174 -0.0713
 4735poe     o222256   7.219   2.080   5.110  0.7332 -0.0580 -0.3501
 4735poe    c2322257   7.258   2.164   5.216 -0.2074  0.1264 -0.1358
 4735poe    c2322258   7.145   2.267   5.233 -0.3286 -0.0972  0.4591
 4735poe     o222259   7.152   2.364   5.131 -0.4808 -0.1860  0.3636
 4735poe    c3122260   7.119   2.497   5.162  0.3700  0.0756  0.1681
 4736poe    c3122261   0.469   0.311   2.217 -0.3649  0.2518  0.1770
 4736poe     o222262   0.511   0.230   2.109  1.1759  0.7117  0.4102
 4736poe    c2322263   0.474   0.286   1.985  0.2510 -0.4192  0.1670
 4736poe    c2322264   0.468   0.178   1.875 -0.7854  0.3823 -0.5759
 4736poe     o222265   0.369   0.086   1.916 -0.2143  0.0609  0.0975
 4736poe    c2322266   0.309   0.001   1.821 -0.5619  0.4956 -0.0708
 4736poe    c2322267   0.209  -0.094   1.890  0.2394 -0.0152  0.3938
 4736poe     o222268   0.073  -0.056   1.887  0.3112  0.1991 -0.2744
 4736poe    c2322269   0.038   0.024   1.997 -0.4750 -0.5552  0.0254
 4736poe    c2322270   0.022  -0.051   2.131 -0.0466 -0.8099 -0.0673
 4736poe     o222271   0.146  -0.077   2.194  0.4888  1.0448 -0.2944
 4736poe    c3122272   0.209   0.026   2.267  0.6443  0.7238  0.0309
 4737poe    c3122273   2.482   7.364   3.372 -0.0618 -0.0700  0.2500
 4737poe     o222274   2.358   7.419   3.412 -0.2032  0.0879 -0.3873
 4737poe    c2322275   2.290   7.334   3.502  0.0021  0.2349 -0.0920
 4737poe    c2322276   2.172   7.398   3.576 -0.2785  0.3330 -0.6182
 4737poe     o222277   2.065   7.423   3.487 -0.8795 -0.1415 -0.0422
 4737poe    c2322278   1.971   7.518   3.530 -0.0579  0.5089  0.3606
 4737poe    c2322279   1.881   7.554   3.410 -0.0732  0.1974  0.2774
 4737poe     o222280   1.837   7.434   3.352  0.3775  0.3191 -0.3235
 4737poe    c2322281   1.698   7.439   3.326  0.3399  0.1995 -0.1451
 4737poe    c2322282   1.654   7.307   3.261 -0.1915  0.2864  0.0337
 4737poe     o222283   1.667   7.200   3.353  0.4410  0.0874 -0.2828
 4737poe    c3122284   1.632   7.074   3.301  0.0878  0.5023 -1.0760
 4738poe    c3122285   5.276   5.847   6.143  0.0652 -0.2777 -0.2774
 4738poe     o222286   5.406   5.902   6.151  0.0244 -0.1959 -0.1746
 4738poe    c2322287   5.399   6.035   6.197 -0.6163 -0.1678 -0.3386
 4738poe    c2322288   5.483   6.115   6.096 -0.4176  0.1281  0.0561
 4738poe     o222289   5.606   6.050   6.112 -0.4587  0.0161 -0.0800
 4738poe    c2322290   5.709   6.144   6.135 -0.7077  0.2991 -0.1181
 4738poe    c2322291   5.818   6.123   6.028 -0.5908 -0.2309  0.1007
 4738poe     o222292   5.797   6.171   5.898 -0.4403 -0.4150  0.0083
 4738poe    c2322293   5.900   6.129   5.810  0.1533  0.0911  0.4502
 4738poe    c2322294   5.893   6.167   5.661 -0.0289  0.0347  0.4441
 4738poe     o222295   5.947   6.297   5.651  0.4607 -0.1938  0.0572
 4738poe    c3122296   6.012   6.304   5.526  0.0568 -0.3281 -0.1617
 4739poe    c3122297   1.449   4.144   4.249  0.6134  0.4943  0.3577
 4739poe     o222298   1.420   4.067   4.364  0.1489  0.1321  0.0020
 4739poe    c2322299   1.442   3.928   4.358  0.0259  0.0862  0.5825
 4739poe    c2322300   1.382   3.846   4.474 -0.8314  0.0480  0.1161
 4739poe     o222301   1.390   3.705   4.474 -0.1042  0.0789 -0.3912
 4739poe    c2322302   1.260   3.649   4.470 -0.0295 -0.0955 -0.3930
 4739poe    c2322303   1.275   3.496   4.467 -0.0342 -0.0944 -0.4873
 4739poe     o222304   1.299   3.432   4.590  0.2655  0.3615 -0.3076
 4739poe    c2322305   1.286   3.292   4.580  0.0640  0.3500  0.0935
 4739poe    c2322306   1.326   3.213   4.706  0.0540  0.1763 -0.0127
 4739poe     o222307   1.237   3.252   4.808  0.2385  0.0020  0.2159
 4739poe    c3122308   1.177   3.146   4.880 -0.3639 -0.3115 -0.7278
 4740poe    c3122309   1.131   5.049   1.703  0.2013  0.0638 -0.3666
 4740poe     o222310   1.236   5.076   1.794 -0.2580  0.1637  0.1387
 4740poe    c2322311   1.362   5.085   1.731 -0.5695  0.1457 -0.5022
 4740poe    c2322312   1.469   5.153   1.818  0.0119 -0.6586 -0.5836
 4740poe     o222313   1.429   5.287   1.832  1.0188 -0.4099  0.0463
 4740poe    c2322314   1.534   5.379   1.814  0.8967 -0.0931  0.8960
 4740poe    c2322315   1.503   5.528   1.787  0.0301 -0.3388  0.5032
 4740poe     o222316   1.419   5.572   1.891 -0.0723 -0.7113  0.5819
 4740poe    c2322317   1.351   5.685   1.840  0.6413 -0.3943  0.3200
 4740poe    c2322318   1.235   5.730   1.931  0.5983 -0.6922  0.4146
 4740poe     o222319   1.122   5.647   1.922  0.0378  0.1450 -0.6340
 4740poe    c3122320   1.016   5.710   1.991  0.8106  0.6375  0.1155
 4741poe    c3122321   1.898   6.878   1.911  0.3679  0.0404  0.8053
 4741poe     o222322   1.805   6.783   1.956 -0.1292  0.1490  0.0278
 4741poe    c2322323   1.666   6.798   1.933 -0.1564 -0.0102  0.0815
 4741poe    c2322324   1.605   6.864   2.057 -0.5135 -0.3391  0.0820
 4741poe     o222325   1.605   7.005   2.063  0.4549 -0.3513  0.4696
 4741poe    c2322326   1.516   7.071   1.976  0.4051 -0.5680  0.3569
 4741poe    c2322327   1.528   7.222   2.004  0.6653 -0.5249  0.0162
 4741poe     o222328   1.479   7.266   2.129  0.3474 -0.1117 -0.2534
 4741poe    c2322329   1.544   7.382   2.175  0.6224 -0.3250 -0.1062
 4741poe    c2322330   1.504   7.447   2.308  0.1054 -0.0337 -0.4029
 4741poe     o222331   1.389   7.528   2.288 -0.2883 -0.3489  0.5404
 4741poe    c3122332   1.322   7.548   2.411 -0.6885 -0.0479  0.2732
 4742poe    c3122333   2.651   2.242   1.198  0.2093  0.1027  0.4347
 4742poe     o222334   2.735   2.351   1.169 -0.2739  0.1194 -0.9641
 4742poe    c2322335   2.676   2.472   1.211 -0.0570 -0.0565 -0.1401
 4742poe    c2322336   2.736   2.589   1.132  0.4316 -0.1328  0.1129
 4742poe     o222337   2.712   2.593   0.993  0.5485 -0.3418  0.0870
 4742poe    c2322338   2.818   2.526   0.927 -0.0481 -0.5441 -0.6836
 4742poe    c2322339   2.870   2.597   0.801 -0.3143  0.5490 -0.1908
 4742poe     o222340   2.971   2.522   0.738 -0.5325  0.4100 -0.3758
 4742poe    c2322341   3.016   2.606   0.634 -0.2696  0.7931  0.0425
 4742poe    c2322342   3.055   2.519   0.513 -0.5485 -0.1349  0.6153
 4742poe     o222343   3.159   2.424   0.526 -0.1096  0.2503 -0.0248
 4742poe    c3122344   3.223   2.384   0.407 -0.4309  0.5256 -0.2930
 4743poe    c3122345   2.591   3.370   7.273 -0.2350  0.2290  0.3315
 4743poe     o222346   2.493   3.269   7.266  0.3831 -0.3431 -0.2538
 4743poe    c2322347   2.559   3.149   7.300  0.5937 -0.0938  0.2259
 4743poe    c2322348   2.466   3.027   7.285  0.7021 -0.0916 -0.5245
 4743poe     o222349   2.452   2.998   7.148  0.7025  0.0132 -0.5479
 4743poe    c2322350   2.365   2.889   7.125  0.6610  0.1065 -0.8286
 4743poe    c2322351   2.321   2.846   6.984  0.2742 -0.3112 -0.5811
 4743poe     o222352   2.262   2.944   6.901  0.4973  0.4178  0.1011
 4743poe    c2322353   2.217   2.886   6.780  0.7363 -0.1959  0.3001
 4743poe    c2322354   2.164   3.012   6.708  0.4224 -0.5227 -0.0460
 4743poe     o222355   2.030   3.035   6.745  0.4785  0.0614 -0.1929
 4743poe    c3122356   1.998   3.169   6.718  0.3515 -0.0304 -0.5070
 4744poe    c3122357   2.518   3.960   2.355  0.4409 -0.4308 -1.0788
 4744poe     o222358   2.636   4.028   2.392 -0.0087 -0.3334  0.2075
 4744poe    c2322359   2.615   4.163   2.428  0.3543 -0.3017  0.3012
 4744poe    c2322360   2.715   4.258   2.361 -0.2247  0.4127  0.4322
 4744poe     o222361   2.841   4.265   2.425  0.1224 -0.1988 -0.1613
 4744poe    c2322362   2.921   4.357   2.354 -0.0201  0.6624  0.7606
 4744poe    c2322363   3.071   4.356   2.389  0.1852  0.0291 -0.0917
 4744poe     o222364   3.137   4.240   2.344 -0.0212 -0.0202 -0.2716
 4744poe    c2322365   3.275   4.262   2.362 -0.0245  0.0417 -0.3218
 4744poe    c2322366   3.363   4.143   2.319 -0.3483 -0.3522  0.0940
 4744poe     o222367   3.353   4.019   2.384 -0.0499 -0.1745  0.4862
 4744poe    c3122368   3.400   4.028   2.517 -0.5516  0.6605  0.6124
 4745poe    c3122369   2.441   0.169   3.137 -0.3386 -0.2258  0.2889
 4745poe     o222370   2.387   0.076   3.045 -0.5907  0.0765  0.1306
 4745poe    c2322371   2.328   0.140   2.935 -0.0419  0.2306 -0.0795
 4745poe    c2322372   2.295   0.023   2.841 -0.1441  0.0065  0.2340
 4745poe     o222373   2.411  -0.014   2.770 -0.5362 -0.4994 -0.1558
 4745poe    c2322374   2.400  -0.144   2.718  0.0539 -0.7959  0.4443
 4745poe    c2322375   2.519  -0.206   2.642  0.5295 -0.0259  0.5562
 4745poe     o222376   2.564  -0.132   2.531 -0.7788 -0.4114 -0.2528
 4745poe    c2322377   2.692  -0.157   2.477 -0.4330  0.7957 -0.0385
 4745poe    c2322378   2.688  -0.100   2.334 -0.7984  0.8449 -0.0093
 4745poe     o222379   2.633   0.029   2.339 -0.8085  0.8398  0.0142
 4745poe    c3122380   2.671   0.077   2.211 -0.2695 -0.1742 -0.2130
 4746poe    c3122381   4.785   2.168   4.245  0.6434 -0.5469 -0.0316
 4746poe     o222382   4.872   2.125   4.348  0.4427  0.6004  0.6449
 4746poe    c2322383   4.800   2.140   4.468  0.1114 -0.0125  0.5259
 4746poe    c2322384   4.898   2.188   4.576  0.3162  0.2011  0.2451
 4746poe     o222385   5.005   2.108   4.619  0.2055 -0.2406 -0.2959
 4746poe    c2322386   4.981   2.012   4.720  0.3434 -0.3165 -0.3353
 4746poe    c2322387   5.110   1.930   4.740  0.4163 -0.1765 -0.2351
 4746poe     o222388   5.137   1.828   4.647 -0.2042 -0.3829 -0.1942
 4746poe    c2322389   5.111   1.705   4.710  0.0537 -0.3968 -0.1142
 4746poe    c2322390   5.220   1.637   4.795  0.1620  0.1817  0.2185
 4746poe     o222391   5.296   1.564   4.701 -0.4671 -0.3762  0.1294
 4746poe    c3122392   5.413   1.529   4.773 -0.4374 -0.4349  0.0529
 4747poe    c3122393   4.023   5.259   5.288  0.0502 -0.0390  0.1939
 4747poe     o222394   4.050   5.144   5.366  0.2110  0.1894  0.4764
 4747poe    c2322395   4.177   5.084   5.362  0.0144 -0.2024 -0.1733
 4747poe    c2322396   4.292   5.170   5.419  0.3669 -0.7008 -0.1319
 4747poe     o222397   4.293   5.191   5.558  0.4208 -1.1271 -0.0662
 4747poe    c2322398   4.400   5.272   5.601 -0.0696 -0.3399 -0.3126
 4747poe    c2322399   4.541   5.210   5.611  0.3610  0.5591 -0.6597
 4747poe     o222400   4.587   5.166   5.737 -0.0270 -0.1825 -0.7711
 4747poe    c2322401   4.726   5.151   5.721  0.0158 -0.3490 -0.2626
 4747poe    c2322402   4.808   5.112   5.845  0.5325  0.4268 -0.3532
 4747poe     o222403   4.816   5.208   5.948  0.5863 -0.0934  0.1325
 4747poe    c3122404   4.927   5.184   6.032  0.5854 -0.2333  0.0935
 4748poe    c3122405   1.446   4.483   3.049  0.0531 -0.4524 -0.0201
 4748poe     o222406   1.455   4.582   2.950 -0.1872 -0.2811  0.1285
 4748poe    c2322407   1.386   4.541   2.835  0.0327 -0.0028 -0.1047
 4748poe    c2322408   1.369   4.661   2.740 -0.3965 -0.1170 -0.1742
 4748poe     o222409   1.283   4.759   2.794 -0.1059 -0.0264  0.1267
 4748poe    c2322410   1.273   4.876   2.715 -1.0836 -0.1762  0.0152
 4748poe    c2322411   1.168   4.975   2.768 -1.1408 -0.3146  0.1623
 4748poe     o222412   1.208   5.045   2.883  0.1926 -0.2006 -0.3504
 4748poe    c2322413   1.091   5.077   2.956  0.6036  0.4315  0.0413
 4748poe    c2322414   1.125   5.162   3.080 -0.2831  0.4714  0.2594
 4748poe     o222415   1.169   5.071   3.179  0.7568  0.5257 -0.1461
 4748poe    c3122416   1.196   5.131   3.304  0.4014 -0.0420  0.2040
 4749poe    c3122417   4.607   4.260   4.563  0.0516  0.0093  0.0961
 4749poe     o222418   4.718   4.256   4.649 -0.0900  0.3688  0.2970
 4749poe    c2322419   4.818   4.333   4.585 -0.0994 -0.0183 -0.1858
 4749poe    c2322420   4.967   4.300   4.607  0.0027  0.5334 -0.0529
 4749poe     o222421   4.990   4.273   4.743 -0.2832  0.0970 -0.0884
 4749poe    c2322422   5.128   4.248   4.758 -0.3750 -0.7422 -0.5722
 4749poe    c2322423   5.150   4.219   4.908 -0.0808 -0.2138 -0.5108
 4749poe     o222424   5.078   4.103   4.942  0.4895 -0.4103  0.0617
 4749poe    c2322425   5.084   4.059   5.075  0.2018  0.3054  0.3164
 4749poe    c2322426   5.066   3.906   5.068  0.2850  0.3155 -0.1647
 4749poe     o222427   4.937   3.855   5.042  0.3424 -0.1269  0.3844
 4749poe    c3122428   4.919   3.715   5.042 -0.2274 -0.0578 -0.0337
 4750poe    c3122429   5.624   1.635   7.459 -0.2659 -0.4207  0.1212
 4750poe     o222430   5.487   1.660   7.440 -0.0638  0.1356 -0.6834
 4750poe    c2322431   5.433   1.710   7.561  0.4437  0.2758 -0.5118
 4750poe    c2322432   5.416   1.860   7.592  0.3886  0.1651 -0.0102
 4750poe     o222433   5.534   1.927   7.630  0.4044 -0.0965  0.4107
 4750poe    c2322434   5.504   2.060   7.665 -0.0522 -0.1877  0.3689
 4750poe    c2322435   5.624   2.151   7.691  0.3547 -0.4206 -0.6442
 4750poe     o222436   5.717   2.111   7.790 -0.2000  0.3899  0.2241
 4750poe    c2322437   5.691   2.137   7.926 -0.3774 -0.1132  0.2887
 4750poe    c2322438   5.786   2.061   8.021 -0.1641 -0.2165 -0.0052
 4750poe     o222439   5.739   1.931   8.044 -0.7519 -0.0658 -0.3376
 4750poe    c3122440   5.819   1.868   8.141  0.0733  0.3421 -0.7489
 4751poe    c3122441   1.663   2.261   7.084 -1.0588 -0.2760  0.5806
 4751poe     o222442   1.780   2.212   7.145 -0.3343  0.1483 -0.4516
 4751poe    c2322443   1.893   2.292   7.119 -0.1065  0.1313  0.4544
 4751poe    c2322444   2.016   2.236   7.193 -0.1555 -0.9917 -0.2993
 4751poe     o222445   2.032   2.284   7.324 -0.0230 -0.1039 -0.6365
 4751poe    c2322446   2.081   2.416   7.333  0.0756 -0.1635 -0.2751
 4751poe    c2322447   2.076   2.482   7.472 -0.3152 -0.1119 -0.3130
 4751poe     o222448   2.132   2.407   7.577  0.6750 -0.0352 -0.7770
 4751poe    c2322449   2.053   2.300   7.623  0.6963  0.3542  0.1819
 4751poe    c2322450   2.044   2.290   7.777  0.5122 -0.2184  0.1341
 4751poe     o222451   1.967   2.189   7.838  0.3449 -0.3916 -0.3572
 4751poe    c3122452   1.966   2.208   7.978 -0.6290 -0.2056 -0.3873
 4752poe    c3122453   0.538   4.338   3.572 -0.5087  0.3417  0.0738
 4752poe     o222454   0.534   4.339   3.713  0.2776  0.5178  0.1014
 4752poe    c2322455   0.627   4.430   3.767  0.2952  0.6009 -0.0687
 4752poe    c2322456   0.700   4.342   3.870 -0.5559 -0.6183 -0.4930
 4752poe     o222457   0.621   4.310   3.983  0.0522  0.9023  0.3809
 4752poe    c2322458   0.697   4.240   4.079  0.4406  0.3572 -0.3120
 4752poe    c2322459   0.604   4.193   4.193  0.6719 -0.5310 -0.4865
 4752poe     o222460   0.510   4.100   4.144 -0.0247 -0.3341  0.4549
 4752poe    c2322461   0.411   4.090   4.244 -0.0099  0.0049  0.5068
 4752poe    c2322462   0.310   3.990   4.183  0.0838 -0.0482  0.4382
 4752poe     o222463   0.255   4.030   4.060  0.2926  0.0001  0.3603
 4752poe    c3122464   0.179   3.921   4.015  0.1001  0.4769 -0.4817
 4753poe    c3122465   0.425   2.436   0.058  0.3063  0.1020 -0.4716
 4753poe     o222466   0.408   2.312   0.123 -0.4276  0.3905 -0.0908
 4753poe    c2322467   0.356   2.203   0.050 -0.5730  0.6657 -0.4017
 4753poe    c2322468   0.205   2.222   0.032 -0.7154  0.3452  0.4190
 4753poe     o222469   0.167   2.324  -0.058 -0.4471 -0.2556 -0.3833
 4753poe    c2322470   0.067   2.400   0.005 -0.4393 -0.2321 -0.3995
 4753poe    c2322471  -0.022   2.486  -0.087 -0.0252  0.2677 -0.3342
 4753poe     o222472  -0.115   2.427  -0.175 -0.3088 -0.0191  0.1565
 4753poe    c2322473  -0.215   2.358  -0.103 -0.4316  0.3852  0.3764
 4753poe    c2322474  -0.299   2.242  -0.159 -0.0377 -0.0978  0.7666
 4753poe     o222475  -0.239   2.119  -0.189 -0.6237 -0.2732  0.2891
 4753poe    c3122476  -0.314   2.038  -0.277 -0.2148  0.4409 -0.7369
 4754poe    c3122477   5.351   0.293   6.659 -0.4041 -0.3109  0.6965
 4754poe     o222478   5.258   0.315   6.555  0.1734 -0.1571  0.2080
 4754poe    c2322479   5.226   0.451   6.539  0.0990 -0.1554  0.3715
 4754poe    c2322480   5.314   0.534   6.444 -0.5935 -0.0107 -0.1534
 4754poe     o222481   5.296   0.495   6.309 -0.0939  0.2625 -0.3013
 4754poe    c2322482   5.412   0.500   6.229  0.0761 -0.1680 -0.0865
 4754poe    c2322483   5.371   0.515   6.081 -0.1553  0.3090  0.0249
 4754poe     o222484   5.295   0.407   6.033 -0.4359  0.4218  0.2098
 4754poe    c2322485   5.232   0.445   5.913 -0.3833  0.2370  0.1219
 4754poe    c2322486   5.266   0.351   5.796 -0.4106  0.4903 -0.0909
 4754poe     o222487   5.397   0.375   5.749 -0.2676 -0.0568  0.0247
 4754poe    c3122488   5.485   0.275   5.796 -0.0814 -0.0116 -0.2266
 4755poe    c3122489   0.328   7.601   1.283 -0.3636 -0.4463  0.2152
 4755poe     o222490   0.247   7.623   1.396  0.0572 -0.8167  0.5954
 4755poe    c2322491   0.144   7.527   1.398 -0.3312 -0.4369 -0.4099
 4755poe    c2322492   0.031   7.553   1.500 -0.2082 -0.3051 -0.3053
 4755poe     o222493  -0.050   7.655   1.446  0.3550  0.1422 -0.3131
 4755poe    c2322494  -0.186   7.637   1.481  0.1867  0.6562 -0.6821
 4755poe    c2322495  -0.267   7.760   1.438  0.2945  0.8614 -0.3099
 4755poe     o222496  -0.277   7.788   1.300 -0.1986  0.0297 -0.4536
 4755poe    c2322497  -0.373   7.700   1.246 -0.0683 -0.1359 -0.4182
 4755poe    c2322498  -0.393   7.733   1.096  0.3621 -0.1574 -0.4824
 4755poe     o222499  -0.288   7.715   1.004  0.4036 -0.1072 -0.4453
 4755poe    c3122500  -0.340   7.646   0.892 -0.3017 -0.2654 -0.0263
 4756poe    c3122501   5.562   2.516   4.747  0.2093 -0.6444  0.5466
 4756poe     o222502   5.494   2.638   4.727  0.4782 -0.6639 -0.5734
 4756poe    c2322503   5.585   2.745   4.713  0.0326 -0.2755 -0.5341
 4756poe    c2322504   5.500   2.860   4.656 -0.3564 -0.1150  0.3616
 4756poe     o222505   5.474   2.831   4.520 -0.0136 -0.1264  0.2985
 4756poe    c2322506   5.386   2.920   4.455  0.0382 -0.5732 -0.3834
 4756poe    c2322507   5.348   2.883   4.310  0.5644 -1.2924 -0.3462
 4756poe     o222508   5.232   2.802   4.301 -0.2778 -0.2162  0.4950
 4756poe    c2322509   5.238   2.717   4.189 -0.0360  0.3391  0.0800
 4756poe    c2322510   5.115   2.625   4.185  0.2223 -0.0304  0.5051
 4756poe     o222511   5.133   2.525   4.284 -0.6694 -0.0533  0.6534
 4756poe    c3122512   5.038   2.421   4.279  0.1216 -0.7569 -0.0255
 4757poe    c3122513   4.369   6.167   5.054 -0.2767  1.0795  0.3304
 4757poe     o222514   4.240   6.156   4.997  0.2264 -0.1455 -0.6281
 4757poe    c2322515   4.258   6.075   4.883 -0.3204 -1.1388 -0.0115
 4757poe    c2322516   4.127   6.023   4.821 -0.6636  0.2321 -0.4701
 4757poe     o222517   4.055   5.936   4.907 -0.3007 -0.0707 -0.4726
 4757poe    c2322518   3.929   5.928   4.845 -0.1281 -0.5062 -0.7731
 4757poe    c2322519   3.850   5.810   4.907  0.5526 -0.3730  0.3805
 4757poe     o222520   3.916   5.690   4.873  0.8843 -0.0256 -0.2387
 4757poe    c2322521   3.839   5.575   4.904  0.3296  0.2956 -0.4050
 4757poe    c2322522   3.874   5.429   4.870  0.2712  0.1972 -0.0398
 4757poe     o222523   4.003   5.395   4.916  0.2281 -0.0760 -0.1216
 4757poe    c3122524   4.059   5.268   4.891  0.2322 -0.0172 -0.4180
 4758poe    c3122525   5.659   2.378   1.337 -0.4478 -0.5694 -1.3016
 4758poe     o222526   5.790   2.357   1.290 -0.0355  0.2408 -0.5606
 4758poe    c2322527   5.864   2.476   1.300  0.5310 -0.1719  0.3211
 4758poe    c2322528   5.994   2.469   1.218 -0.0448  0.2403 -0.6474
 4758poe     o222529   6.088   2.567   1.257  0.7902 -0.6494 -0.3936
 4758poe    c2322530   6.160   2.618   1.147 -0.2086 -0.0434 -0.7761
 4758poe    c2322531   6.240   2.748   1.169 -0.4116 -0.1348  0.6424
 4758poe     o222532   6.168   2.863   1.206 -0.0608  0.1699  0.3982
 4758poe    c2322533   6.252   2.972   1.234 -0.0500  0.0875  0.6979
 4758poe    c2322534   6.171   3.080   1.308 -0.3525  0.4425 -0.1375
 4758poe     o222535   6.139   3.031   1.436 -0.0559  0.4450 -0.0617
 4758poe    c3122536   6.093   3.132   1.523 -0.5944 -0.6651  0.9725
 4759poe    c3122537   1.142   2.549   5.156  0.0747 -0.4414  0.1534
 4759poe     o222538   1.033   2.460   5.169  0.0135 -0.4043 -0.0945
 4759poe    c2322539   0.920   2.513   5.104  0.0913  0.1580  0.2201
 4759poe    c2322540   0.805   2.414   5.132 -0.6045  0.7490 -0.5410
 4759poe     o222541   0.805   2.295   5.057 -0.0255  0.5735 -0.2594
 4759poe    c2322542   0.680   2.232   5.073  0.3173 -0.0437  0.0850
 4759poe    c2322543   0.672   2.085   5.028 -0.6879  0.0087  0.0680
 4759poe     o222544   0.771   1.999   5.080 -0.0705  0.5271 -0.2301
 4759poe    c2322545   0.755   1.859   5.070  0.4817  0.3830  0.7310
 4759poe    c2322546   0.875   1.802   4.994 -0.1211 -0.0095  0.0597
 4759poe     o222547   0.848   1.797   4.855  0.3937 -0.3350 -0.0332
 4759poe    c3122548   0.758   1.698   4.813  0.4649 -0.4529  0.0915
 4760poe    c3122549   4.302   1.040   0.049 -0.6645 -0.4203  0.4198
 4760poe     o222550   4.415   1.056  -0.034 -0.5963  0.0540  0.5994
 4760poe    c2322551   4.414   0.964  -0.141  0.3184  0.5250  0.1831
 4760poe    c2322552   4.432   1.036  -0.276  0.4745 -0.8982 -0.5729
 4760poe     o222553   4.342   1.142  -0.299  1.3027  0.0405  0.3970
 4760poe    c2322554   4.347   1.181  -0.435  0.6911  0.2863  0.4435
 4760poe    c2322555   4.272   1.313  -0.459  0.4059 -0.0519 -0.5439
 4760poe     o222556   4.334   1.419  -0.390 -0.7526  0.1435  0.2175
 4760poe    c2322557   4.402   1.502  -0.481  0.3476 -0.3336  0.5885
 4760poe    c2322558   4.395   1.650  -0.438 -0.0799 -0.1090 -0.2173
 4760poe     o222559   4.264   1.694  -0.407 -0.0761 -0.4623  0.3201
 4760poe    c3122560   4.285   1.825  -0.359  0.6938 -0.2908 -0.4580
 4761poe    c3122561   7.352   2.086   0.809 -0.2280  0.3123  0.4002
 4761poe     o222562   7.267   2.149   0.903 -0.6651 -0.5532  0.5977
 4761poe    c2322563   7.348   2.197   1.008 -0.1555  0.5772 -0.2938
 4761poe    c2322564   7.401   2.110   1.123 -0.2953 -0.3115 -0.8974
 4761poe     o222565   7.323   2.066   1.232 -0.0471 -0.1855 -0.6664
 4761poe    c2322566   7.196   2.009   1.207 -0.3144  0.0620  0.0877
 4761poe    c2322567   7.112   2.048   1.329 -0.5019  0.4684 -0.1694
 4761poe     o222568   7.159   1.985   1.446 -0.1634  0.4402 -0.3199
 4761poe    c2322569   7.108   2.046   1.562  0.3981  0.1623  0.0743
 4761poe    c2322570   7.163   2.002   1.699  0.8544 -0.5905 -0.3473
 4761poe     o222571   7.130   1.871   1.739  0.4852 -0.1995  0.6698
 4761poe    c3122572   7.019   1.860   1.825  0.0712 -0.4746  0.1097
 4762poe    c3122573   5.437   2.740   1.877  0.2509  0.2098  0.0086
 4762poe     o222574   5.307   2.694   1.906  0.1292  0.3443 -0.3118
 4762poe    c2322575   5.213   2.731   1.808 -0.3443  0.3495  0.1384
 4762poe    c2322576   5.075   2.671   1.838 -0.0641 -0.2998  0.1573
 4762poe     o222577   5.069   2.531   1.846  0.2343 -0.2905  0.5411
 4762poe    c2322578   4.947   2.476   1.802  0.0642  0.0118  0.6354
 4762poe    c2322579   4.977   2.325   1.789 -0.2944  0.0054 -0.1921
 4762poe     o222580   4.956   2.238   1.898  0.2130 -0.3994 -0.4204
 4762poe    c2322581   4.924   2.106   1.858  0.3883 -0.4638 -0.3500
 4762poe    c2322582   4.828   2.038   1.956  0.5970  0.1515  0.2960
 4762poe     o222583   4.698   2.093   1.954  0.6352  0.2381  0.2265
 4762poe    c3122584   4.609   2.010   2.025 -1.0163  0.8419 -1.0748
 4763poe    c3122585   3.743   7.431   4.006  0.2971 -0.6709 -0.2015
 4763poe     o222586   3.634   7.342   4.006  0.3000 -0.6744 -0.2842
 4763poe    c2322587   3.668   7.223   3.939  0.1110 -0.5531 -0.5997
 4763poe    c2322588   3.662   7.094   4.024 -0.2363 -0.1240  0.0396
 4763poe     o222589   3.697   6.976   3.955 -0.2553  0.1165 -0.3905
 4763poe    c2322590   3.697   6.868   4.046  0.0381  0.5586  0.1365
 4763poe    c2322591   3.812   6.774   4.005 -0.1943  0.2551  0.1795
 4763poe     o222592   3.930   6.850   3.998 -0.1228  0.1836  0.6044
 4763poe    c2322593   4.030   6.751   4.011 -0.4964 -0.1748  0.7655
 4763poe    c2322594   4.174   6.788   3.971 -0.7478 -0.0988 -0.0915
 4763poe     o222595   4.222   6.898   4.044  0.3915 -0.0727 -0.8511
 4763poe    c3122596   4.320   6.957   3.962  0.2178  0.5444 -0.6212
 4764poe    c3122597   6.769   5.874   4.970  0.2002  0.9071  0.2432
 4764poe     o222598   6.735   5.777   5.065 -0.1465  0.8410  0.0542
 4764poe    c2322599   6.601   5.731   5.062  0.2028 -0.1993  0.0470
 4764poe    c2322600   6.589   5.580   5.092  0.8074 -0.5335 -1.3146
 4764poe     o222601   6.644   5.547   5.217 -0.8312  0.2138 -0.3738
 4764poe    c2322602   6.641   5.409   5.246 -0.0450  0.3765  0.5419
 4764poe    c2322603   6.703   5.408   5.387  0.2265  0.4066  0.4231
 4764poe     o222604   6.605   5.450   5.480 -0.0392  0.2340  0.2209
 4764poe    c2322605   6.675   5.504   5.589  0.6913 -0.2513 -0.0023
 4764poe    c2322606   6.579   5.551   5.700 -0.3874 -0.1553 -0.9539
 4764poe     o222607   6.511   5.671   5.673 -0.1888  0.2023  0.1039
 4764poe    c3122608   6.434   5.711   5.785  0.1596 -0.2054  0.4966
 4765poe    c3122609   5.714   0.414   4.351  0.1140  0.7760  0.4568
 4765poe     o222610   5.737   0.537   4.286  0.0376  0.5592  0.0196
 4765poe    c2322611   5.729   0.518   4.146  0.1123  0.1152  0.0754
 4765poe    c2322612   5.701   0.654   4.080  0.2166  0.0129 -0.1777
 4765poe     o222613   5.822   0.726   4.072 -0.0618  0.5160  0.1613
 4765poe    c2322614   5.795   0.849   4.008  0.1799  0.1790 -0.5964
 4765poe    c2322615   5.913   0.947   4.001  0.2596  0.1299 -0.0238
 4765poe     o222616   5.970   0.975   4.126  0.2096  0.0916  0.0077
 4765poe    c2322617   6.006   1.111   4.142  0.4468  0.0398 -0.0834
 4765poe    c2322618   6.052   1.134   4.287  0.3248  0.9093 -0.1759
 4765poe     o222619   6.187   1.104   4.315  0.1289  0.1678  0.0243
 4765poe    c3122620   6.223   1.132   4.448  0.3539 -0.5070  0.1082
 4766poe    c3122621   6.296   7.538   5.926 -0.0771 -0.0399 -0.3758
 4766poe     o222622   6.293   7.524   5.786 -0.2060 -0.4581 -0.3307
 4766poe    c2322623   6.207   7.620   5.729 -0.4701 -0.9544 -0.7764
 4766poe    c2322624   6.292   7.673   5.612 -0.1870  0.4581  0.0469
 4766poe     o222625   6.308   7.585   5.503  0.0788 -0.0092  0.4554
 4766poe    c2322626   6.402   7.627   5.406 -0.4588  0.5984  0.1890
 4766poe    c2322627   6.550   7.648   5.441 -0.3037  0.1517 -0.1954
 4766poe     o222628   6.615   7.537   5.497  0.0445  0.2897 -0.3219
 4766poe    c2322629   6.738   7.561   5.563 -0.2152  0.3414  0.1485
 4766poe    c2322630   6.783   7.432   5.633 -0.1135  0.4574  0.2985
 4766poe     o222631   6.705   7.367   5.732  0.2507 -0.2307  0.1388
 4766poe    c3122632   6.702   7.441   5.852  0.0209  0.4913 -0.3052
 4767poe    c3122633   7.490   1.564   6.207  0.4513 -0.0353  0.2603
 4767poe     o222634   7.470   1.701   6.237  0.1065 -0.1493  0.5511
 4767poe    c2322635   7.455   1.779   6.121  0.1574 -0.0667  0.6005
 4767poe    c2322636   7.471   1.930   6.150  0.6263 -0.0837  0.4351
 4767poe     o222637   7.601   1.986   6.152  0.7431 -0.2943 -0.6339
 4767poe    c2322638   7.598   2.122   6.114  0.4669  0.0008  0.4063
 4767poe    c2322639   7.716   2.208   6.163  0.7604  0.1360 -0.5234
 4767poe     o222640   7.738   2.258   6.292 -0.2859  0.1772 -0.3515
 4767poe    c2322641   7.627   2.328   6.342  0.0015  0.5961 -0.2934
 4767poe    c2322642   7.666   2.426   6.454 -0.1815 -0.1319  0.4167
 4767poe     o222643   7.764   2.517   6.407 -0.1093 -0.0945  0.6398
 4767poe    c3122644   7.829   2.592   6.507 -0.2552  0.6167  0.2080
 4768poe    c3122645   1.341   1.632   0.917  0.2174  0.5934  0.2697
 4768poe     o222646   1.264   1.749   0.908 -0.3420  0.1771 -0.4863
 4768poe    c2322647   1.187   1.762   0.791  0.3210  0.0510 -0.9379
 4768poe    c2322648   1.044   1.770   0.846  0.7015  0.0944  0.0591
 4768poe     o222649   1.023   1.869   0.945 -0.2697 -0.4221  0.3879
 4768poe    c2322650   0.888   1.907   0.959 -0.2268 -0.4235  0.8290
 4768poe    c2322651   0.894   2.032   1.049 -0.0107  0.3521 -0.2383
 4768poe     o222652   0.971   2.006   1.164 -0.0906 -0.5668 -0.3839
 4768poe    c2322653   0.966   2.108   1.262 -0.6342 -0.7607 -0.2058
 4768poe    c2322654   1.085   2.101   1.359 -0.4612  0.4345 -0.3197
 4768poe     o222655   1.207   2.143   1.302  0.0122 -0.1755  0.2336
 4768poe    c3122656   1.283   2.188   1.412 -0.1333  0.3767  0.1122
 4769poe    c3122657   2.760   4.399   0.231 -0.6279 -0.2727  0.2887
 4769poe     o222658   2.792   4.262   0.220 -0.0394 -0.1298  0.1575
 4769poe    c2322659   2.736   4.186   0.325 -0.2236  0.0076  0.1610
 4769poe    c2322660   2.642   4.072   0.283  0.4334 -0.6095  0.3279
 4769poe     o222661   2.689   3.983   0.185  0.2390 -0.0317 -0.2988
 4769poe    c2322662   2.582   3.920   0.118 -0.1314 -0.1015  0.3488
 4769poe    c2322663   2.627   3.780   0.072 -0.1567 -0.0846  0.2721
 4769poe     o222664   2.718   3.779  -0.036 -0.3951 -0.0918  0.0711
 4769poe    c2322665   2.732   3.646  -0.082  0.0421 -0.0369  0.0444
 4769poe    c2322666   2.876   3.611  -0.126  0.3102  0.4038  0.5534
 4769poe     o222667   2.940   3.706  -0.208 -0.3088  0.1759 -0.2106
 4769poe    c3122668   3.056   3.641  -0.255  0.1772  0.6698  0.3021
 4770poe    c3122669   2.383   5.256   7.481 -0.6492  0.3067  1.1370
 4770poe     o222670   2.415   5.127   7.530  0.5516  0.1056 -0.1338
 4770poe    c2322671   2.327   5.033   7.473  0.2722  0.1931  0.1553
 4770poe    c2322672   2.326   4.885   7.513  0.5252  0.1308 -0.0754
 4770poe     o222673   2.456   4.830   7.507  0.3844 -0.1466 -0.7422
 4770poe    c2322674   2.463   4.695   7.547  0.2922 -0.0296 -0.3251
 4770poe    c2322675   2.608   4.648   7.523  0.3991  0.4482 -0.6361
 4770poe     o222676   2.689   4.722   7.612 -0.2133  0.4921 -0.1044
 4770poe    c2322677   2.813   4.658   7.635  0.0187  0.6140 -0.9628
 4770poe    c2322678   2.927   4.744   7.693  0.3718 -0.7320  0.4086
 4770poe     o222679   2.898   4.765   7.829  0.4163  0.0924  0.2967
 4770poe    c3122680   2.982   4.865   7.883 -0.1358  0.4752  0.4465
 4771poe    c3122681   6.402   5.211   0.112 -0.0392 -0.2606  0.0982
 4771poe     o222682   6.391   5.252   0.247  1.3897  0.4352  0.0234
 4771poe    c2322683   6.408   5.151   0.344  0.3358  0.0363 -0.1919
 4771poe    c2322684   6.426   5.212   0.484 -0.9363 -0.4571  0.1998
 4771poe     o222685   6.318   5.298   0.511 -0.6166 -0.0038  0.0560
 4771poe    c2322686   6.322   5.347   0.643  0.2288 -0.1648  0.0942
 4771poe    c2322687   6.182   5.407   0.667  0.2909  0.1782 -0.3985
 4771poe     o222688   6.149   5.536   0.618 -0.5855 -0.0310 -0.3735
 4771poe    c2322689   6.194   5.649   0.689 -0.4104 -0.4175  0.1397
 4771poe    c2322690   6.171   5.776   0.605  0.2823 -0.4754 -0.1413
 4771poe     o222691   6.239   5.739   0.487  0.7484  0.1540 -0.0757
 4771poe    c3122692   6.190   5.845   0.408 -0.3670 -0.2677  0.0352
 4772poe    c3122693   4.598   7.542   6.678 -0.3463  0.1023  0.4686
 4772poe     o222694   4.688   7.611   6.762 -0.3187  0.9509 -0.2482
 4772poe    c2322695   4.805   7.655   6.696 -0.0622 -0.1737 -0.5577
 4772poe    c2322696   4.887   7.733   6.800 -0.3962 -0.0848 -0.3589
 4772poe     o222697   4.810   7.846   6.833  0.2226  0.2930 -0.1986
 4772poe    c2322698   4.808   7.959   6.748 -0.5145  0.4871  0.0665
 4772poe    c2322699   4.752   8.085   6.816  0.1543  0.3491  0.8884
 4772poe     o222700   4.615   8.072   6.848 -0.1460 -0.0387 -0.5221
 4772poe    c2322701   4.520   8.058   6.745 -0.0213  0.1413 -0.6639
 4772poe    c2322702   4.377   8.018   6.786 -0.2486  0.5058 -1.0943
 4772poe     o222703   4.307   8.127   6.841 -0.2805 -0.0641  0.0173
 4772poe    c3122704   4.273   8.100   6.975  0.0218 -0.3259  0.0417
 4773poe    c3122705   3.655   4.481   2.326 -0.8226  0.1138  0.1342
 4773poe     o222706   3.681   4.613   2.369 -0.3485  0.0487  0.0540
 4773poe    c2322707   3.604   4.704   2.293  0.1750  0.2828 -0.1990
 4773poe    c2322708   3.676   4.839   2.305  0.0767  0.3058  0.1315
 4773poe     o222709   3.655   4.895   2.433  0.4040 -0.0244  0.3306
 4773poe    c2322710   3.756   4.989   2.463  0.2359  0.1426  0.3747
 4773poe    c2322711   3.774   5.044   2.606  0.0181 -0.7003  0.7293
 4773poe     o222712   3.770   4.941   2.702 -0.0101 -1.1223  0.2775
 4773poe    c2322713   3.782   4.984   2.835 -0.2005  0.1246 -0.0976
 4773poe    c2322714   3.810   4.860   2.921 -0.3476 -0.1342 -0.4216
 4773poe     o222715   3.755   4.744   2.862  0.0886 -0.3880 -0.3384
 4773poe    c3122716   3.774   4.633   2.946 -0.2723 -0.5526 -0.4726
 4774poe    c3122717   4.371   0.938   4.546  0.4395 -0.1683  0.6790
 4774poe     o222718   4.359   1.050   4.630 -0.0929  0.2511  0.0513
 4774poe    c2322719   4.308   1.018   4.758 -0.7700 -0.1488 -0.3094
 4774poe    c2322720   4.295   1.135   4.857  0.1882 -0.1888 -0.1250
 4774poe     o222721   4.420   1.196   4.885  0.0570  0.0906 -0.1458
 4774poe    c2322722   4.405   1.277   4.999 -0.0189  1.2875 -0.9840
 4774poe    c2322723   4.552   1.318   5.018  0.1802  0.1955 -0.0593
 4774poe     o222724   4.613   1.363   4.899  0.4318 -0.0026 -0.0077
 4774poe    c2322725   4.745   1.408   4.920  0.2205  0.2252  0.8787
 4774poe    c2322726   4.817   1.396   4.784 -0.0828  0.0528  0.7314
 4774poe     o222727   4.798   1.269   4.725 -0.3039  0.2628  0.3517
 4774poe    c3122728   4.863   1.263   4.600  0.6137  0.5134  0.8013
 4775poe    c3122729   3.824   3.322   4.293 -0.4903 -0.4511  0.0952
 4775poe     o222730   3.788   3.256   4.173 -0.6657  0.1438 -0.1839
 4775poe    c2322731   3.722   3.337   4.078 -0.2275  0.3091 -0.3512
 4775poe    c2322732   3.811   3.384   3.962  0.0968  0.5193 -0.0213
 4775poe     o222733   3.883   3.274   3.909 -0.6527  0.1382 -0.2618
 4775poe    c2322734   3.881   3.271   3.768  0.4686  0.2554 -0.2881
 4775poe    c2322735   3.907   3.128   3.718  0.1162  0.1187 -0.0820
 4775poe     o222736   3.796   3.061   3.662  0.1710 -0.0253 -0.0184
 4775poe    c2322737   3.867   2.960   3.593 -0.0782 -0.0848 -0.1907
 4775poe    c2322738   3.821   2.947   3.447 -0.5407 -0.4736 -0.0126
 4775poe     o222739   3.744   2.831   3.427 -0.6538 -0.4289  0.1627
 4775poe    c3122740   3.689   2.816   3.298  0.4532 -0.1582 -0.3498
 4776poe    c3122741   2.210   2.488   2.623  0.0494 -0.1184  0.0390
 4776poe     o222742   2.193   2.622   2.664  0.5132  0.0265 -0.2376
 4776poe    c2322743   2.312   2.695   2.640  0.2796  0.1615 -0.9988
 4776poe    c2322744   2.325   2.829   2.716  0.0127 -0.2036 -0.2965
 4776poe     o222745   2.223   2.922   2.689 -0.0454 -0.0707  0.3672
 4776poe    c2322746   2.230   3.031   2.778  0.1154  0.3792 -0.1894
 4776poe    c2322747   2.097   3.109   2.782  0.1985  0.4838  0.7834
 4776poe     o222748   1.997   3.036   2.850  0.5065 -0.4837  0.2323
 4776poe    c2322749   1.888   3.125   2.856  0.7651 -0.1542  0.0746
 4776poe    c2322750   1.773   3.059   2.777  0.2731  0.2153  0.4725
 4776poe     o222751   1.769   2.923   2.810  0.2297  0.0842 -0.0570
 4776poe    c3122752   1.645   2.865   2.775  0.5266 -0.4323 -0.2617
 4777poe    c3122753   6.195   2.190   3.750  0.0915 -0.2422 -0.0981
 4777poe     o222754   6.121   2.224   3.635  0.4190  0.3207 -0.1446
 4777poe    c2322755   6.086   2.361   3.646  0.3568  0.3413 -0.6011
 4777poe    c2322756   6.003   2.428   3.534  0.1439  0.5112 -0.3410
 4777poe     o222757   6.074   2.432   3.412  0.5968 -0.0692 -0.1057
 4777poe    c2322758   6.061   2.566   3.370  0.7392  0.1175  0.4297
 4777poe    c2322759   6.014   2.579   3.223  0.1918 -0.0739  0.5845
 4777poe     o222760   6.100   2.503   3.141  0.2462  0.2032  0.3856
 4777poe    c2322761   6.066   2.516   3.005 -0.4441 -0.3317  0.5028
 4777poe    c2322762   6.120   2.397   2.923 -0.4339 -0.2961  0.4580
 4777poe     o222763   6.055   2.278   2.964 -0.2161 -0.3889  0.5371
 4777poe    c3122764   6.094   2.165   2.889 -0.5889  0.0668 -0.3634
 4778poe    c3122765   0.679   5.424   5.388  0.6121 -0.3642 -0.2810
 4778poe     o222766   0.581   5.379   5.297  0.1652 -0.3652  0.1911
 4778poe    c2322767   0.649   5.332   5.182 -0.3295 -0.3345 -0.1166
 4778poe    c2322768   0.576   5.376   5.054  0.2323  0.9173 -0.0196
 4778poe     o222769   0.451   5.311   5.054  0.2620  0.8588 -0.2489
 4778poe    c2322770   0.361   5.376   4.967  0.0990  0.1800 -0.5977
 4778poe    c2322771   0.272   5.269   4.901  0.4222 -0.2059 -0.4113
 4778poe     o222772   0.346   5.163   4.844  0.0562 -0.5058 -0.3249
 4778poe    c2322773   0.250   5.094   4.766 -0.1047 -0.4348 -0.1913
 4778poe    c2322774   0.321   4.985   4.683  0.3176  0.0694 -0.4977
 4778poe     o222775   0.424   4.935   4.765  0.2926 -0.2289 -0.6502
 4778poe    c3122776   0.413   4.794   4.761  0.2395 -0.2653  0.3830
 4779poe    c3122777   2.620   6.155   1.118  0.1172 -0.1799 -0.4406
 4779poe     o222778   2.640   6.031   1.181 -0.3915 -0.3659 -0.6345
 4779poe    c2322779   2.726   5.940   1.115  0.8412  0.2978  0.0081
 4779poe    c2322780   2.722   5.807   1.194 -0.2314  0.1348 -0.2924
 4779poe     o222781   2.752   5.822   1.331 -0.1229 -0.0640 -0.2943
 4779poe    c2322782   2.739   5.695   1.391 -0.0046 -0.0758 -0.2927
 4779poe    c2322783   2.785   5.684   1.537 -0.3093 -0.7299 -0.2433
 4779poe     o222784   2.697   5.736   1.635  0.1933  0.2988 -0.3256
 4779poe    c2322785   2.608   5.651   1.704  0.9276 -0.1559  0.0784
 4779poe    c2322786   2.515   5.743   1.786  0.4963 -0.1349 -0.4299
 4779poe     o222787   2.484   5.855   1.706 -0.1411 -0.0547 -0.0801
 4779poe    c3122788   2.357   5.902   1.743  0.0000  0.3326 -0.0861
 4780poe    c3122789   6.722   3.552   0.146  0.5632 -0.4747  0.1640
 4780poe     o222790   6.604   3.615   0.190  0.4011 -0.8333  0.2521
 4780poe    c2322791   6.486   3.552   0.144  0.2262  0.1065 -0.6309
 4780poe    c2322792   6.358   3.638   0.149  0.7312  0.8224  0.2040
 4780poe     o222793   6.323   3.659   0.284 -0.2442  0.3391  0.0298
 4780poe    c2322794   6.226   3.761   0.275  0.0662  0.6535  0.2243
 4780poe    c2322795   6.155   3.796   0.408 -0.0124 -0.1952  0.4089
 4780poe     o222796   6.233   3.854   0.511  0.7450 -0.2691 -0.1112
 4780poe    c2322797   6.206   3.814   0.643  0.3874  0.1301 -0.0611
 4780poe    c2322798   6.197   3.924   0.750 -0.6758 -0.5515  0.5760
 4780poe     o222799   6.078   4.000   0.742  0.0289  0.5209 -0.0335
 4780poe    c3122800   6.070   4.095   0.846 -0.5710  0.0765  0.3379
 4781poe    c3122801   0.412   1.812   7.438 -0.4834 -0.0466 -0.8682
 4781poe     o222802   0.530   1.883   7.409 -0.3203  0.0334 -0.0503
 4781poe    c2322803   0.557   1.837   7.278  0.2907 -0.0302  0.0970
 4781poe    c2322804   0.668   1.904   7.196  0.3956  0.2909  0.5023
 4781poe     o222805   0.647   2.012   7.108  0.4967 -0.3885 -0.3661
 4781poe    c2322806   0.542   1.994   7.015  0.1132 -0.1072  0.0033
 4781poe    c2322807   0.570   2.046   6.873  0.7518 -0.2237  0.0811
 4781poe     o222808   0.562   2.184   6.844  0.9047 -0.3442 -0.5579
 4781poe    c2322809   0.537   2.189   6.705  0.3666 -0.0887 -0.4564
 4781poe    c2322810   0.592   2.322   6.650  0.2629  0.2814  0.3276
 4781poe     o222811   0.523   2.440   6.688  0.3795  0.4369  0.0593
 4781poe    c3122812   0.576   2.551   6.620 -0.0681  0.2218 -0.6514
 4782poe    c3122813   6.051   4.851   2.477  0.0699  0.3190  0.2681
 4782poe     o222814   6.146   4.940   2.531  0.3917 -0.0877  0.3754
 4782poe    c2322815   6.090   5.011   2.639 -0.1037 -0.0200  0.0740
 4782poe    c2322816   6.173   5.135   2.677  0.2490 -0.1893 -0.1380
 4782poe     o222817   6.299   5.099   2.729  0.5326  0.3088 -0.4687
 4782poe    c2322818   6.378   5.215   2.723  0.3641  0.4570  0.0748
 4782poe    c2322819   6.522   5.175   2.759  0.0571 -0.3604  0.4176
 4782poe     o222820   6.578   5.147   2.632  0.1157  0.0504  0.3521
 4782poe    c2322821   6.717   5.125   2.638  0.1771  0.3899  0.2165
 4782poe    c2322822   6.767   5.096   2.496 -0.3171  0.4351  0.0300
 4782poe     o222823   6.697   4.980   2.458  0.1836  0.2928 -0.4685
 4782poe    c3122824   6.781   4.868   2.480  0.5164  0.6399  0.0294
 4783poe    c3122825   4.148   7.033   2.063 -0.3032 -0.0646  0.0772
 4783poe     o222826   4.270   7.028   2.134 -0.1180  0.6776 -0.1785
 4783poe    c2322827   4.281   7.142   2.215 -0.1496  0.3692  0.2647
 4783poe    c2322828   4.418   7.142   2.286 -0.1826  0.5861  0.3279
 4783poe     o222829   4.430   7.029   2.368  0.2664  0.3563 -0.0515
 4783poe    c2322830   4.541   7.039   2.455  0.5562 -0.4980 -0.3089
 4783poe    c2322831   4.547   7.152   2.560 -0.1098 -0.5828 -0.1748
 4783poe     o222832   4.433   7.167   2.641 -0.3513 -0.2137 -0.5797
 4783poe    c2322833   4.428   7.294   2.703  0.1475 -0.0537 -0.8689
 4783poe    c2322834   4.339   7.405   2.645  0.3208  0.8454  0.5420
 4783poe     o222835   4.392   7.446   2.521 -0.3622  0.1905  0.0238
 4783poe    c3122836   4.304   7.522   2.441 -0.7766  0.1536  0.4451
 4784poe    c3122837   5.254   6.680   3.757  0.1644  0.3893 -0.2396
 4784poe     o222838   5.131   6.742   3.784 -0.3673 -0.5302 -0.5038
 4784poe    c2322839   5.104   6.738   3.922  0.0768  0.4579 -0.3824
 4784poe    c2322840   4.956   6.774   3.945 -0.0277 -0.1165 -0.1482
 4784poe     o222841   4.854   6.691   3.894 -0.1846  0.1697 -0.3024
 4784poe    c2322842   4.733   6.760   3.873 -0.4105 -0.2875 -0.5118
 4784poe    c2322843   4.622   6.688   3.793 -0.2946 -0.4247 -0.5493
 4784poe     o222844   4.652   6.686   3.656 -0.1611 -0.7743 -0.5153
 4784poe    c2322845   4.556   6.621   3.575 -0.2104 -0.8573 -0.3912
 4784poe    c2322846   4.595   6.647   3.428  0.1498 -0.2436 -0.1933
 4784poe     o222847   4.590   6.781   3.384  0.4474  0.0966  0.7747
 4784poe    c3122848   4.574   6.768   3.244 -0.2623  0.3896  0.8238
 4785poe    c3122849   2.371   0.605   4.151  0.1898 -0.1286  0.0276
 4785poe     o222850   2.365   0.736   4.101  0.7992 -0.1233 -0.0325
 4785poe    c2322851   2.239   0.748   4.040  0.6609  0.3069  0.3252
 4785poe    c2322852   2.224   0.875   3.954  0.8740 -0.1043 -0.3307
 4785poe     o222853   2.269   0.980   4.036 -0.5689  0.3061 -0.0424
 4785poe    c2322854   2.291   1.101   3.966  0.1032 -0.1225 -0.5803
 4785poe    c2322855   2.329   1.215   4.061 -0.0870 -0.5413  0.0038
 4785poe     o222856   2.422   1.171   4.158  0.0487  0.0099  0.1268
 4785poe    c2322857   2.509   1.277   4.192 -0.2926  0.1102  0.6915
 4785poe    c2322858   2.620   1.233   4.290  0.0366  0.2315  0.3754
 4785poe     o222859   2.559   1.243   4.417 -0.2077  0.5525  0.2364
 4785poe    c3122860   2.670   1.256   4.505  0.1596 -0.3838 -0.0851
 4786poe    c3122861   5.922   6.946   7.363 -0.7163  0.1499 -0.0200
 4786poe     o222862   5.806   6.940   7.443 -0.6550  0.1216  0.0678
 4786poe    c2322863   5.838   6.899   7.574 -0.1947  0.3422  0.0260
 4786poe    c2322864   5.801   6.753   7.608 -0.0498  0.4377  0.5983
 4786poe     o222865   5.669   6.713   7.632  0.0324 -0.0650  0.2268
 4786poe    c2322866   5.662   6.575   7.660  0.3777 -0.2490 -0.5751
 4786poe    c2322867   5.529   6.535   7.728  0.4818 -0.2584 -0.3781
 4786poe     o222868   5.413   6.551   7.651  0.2853 -0.5174 -0.1386
 4786poe    c2322869   5.300   6.507   7.722  0.2662  0.2575  0.3242
 4786poe    c2322870   5.157   6.557   7.692  0.2907 -0.1941 -0.6060
 4786poe     o222871   5.098   6.515   7.572 -0.0942 -0.3490 -0.3654
 4786poe    c3122872   4.957   6.517   7.562 -0.0792  0.7165 -0.4729
 4787poe    c3122873   0.790   1.539   2.318 -0.5660  1.1465 -0.0216
 4787poe     o222874   0.661   1.489   2.348 -0.1068 -0.2716 -0.3488
 4787poe    c2322875   0.623   1.408   2.239 -0.2111 -0.1981 -0.3671
 4787poe    c2322876   0.475   1.367   2.243 -0.3833  0.4366 -0.2231
 4787poe     o222877   0.441   1.263   2.331 -0.1517 -0.0458 -0.7028
 4787poe    c2322878   0.311   1.208   2.328  0.1966 -0.8774 -0.8143
 4787poe    c2322879   0.315   1.126   2.459 -0.3963 -0.1460 -0.3335
 4787poe     o222880   0.405   1.018   2.467 -0.0415  0.1860  0.1895
 4787poe    c2322881   0.359   0.923   2.560  0.0364  0.5554  0.6097
 4787poe    c2322882   0.445   0.802   2.600 -0.2634 -0.0089 -0.4234
 4787poe     o222883   0.477   0.724   2.487 -0.5347  0.1287 -0.5949
 4787poe    c3122884   0.618   0.714   2.478 -0.5033  0.0296 -0.0313
 4788poe    c3122885   3.094   4.776   0.718  0.3196 -0.3938  0.0318
 4788poe     o222886   3.139   4.892   0.785 -0.3213 -0.2891  0.2880
 4788poe    c2322887   3.081   5.009   0.731  0.0315 -0.3752 -0.2864
 4788poe    c2322888   3.179   5.124   0.760  0.0611 -0.4796  0.0385
 4788poe     o222889   3.288   5.123   0.671 -0.1561  0.2591 -0.2443
 4788poe    c2322890   3.240   5.180   0.551 -0.2061  0.0214 -0.3395
 4788poe    c2322891   3.337   5.142   0.439 -0.3455  0.1045 -0.4888
 4788poe     o222892   3.345   5.001   0.448 -0.6612  0.1279  0.1631
 4788poe    c2322893   3.403   4.960   0.326 -0.5986 -0.5318  0.4113
 4788poe    c2322894   3.395   4.807   0.310  0.6172 -0.5085 -0.5447
 4788poe     o222895   3.422   4.736   0.429  0.6904 -0.1259 -0.3289
 4788poe    c3122896   3.398   4.597   0.420 -0.1331  0.0099 -0.2869
 4789poe    c3122897   0.992   4.090   6.592  0.6484  0.0213 -0.4572
 4789poe     o222898   1.089   3.990   6.566  0.3284 -0.2549 -0.5963
 4789poe    c2322899   1.067   3.944   6.435  0.3713  0.0377 -0.7073
 4789poe    c2322900   1.121   3.799   6.427  0.0948 -0.0835 -0.3676
 4789poe     o222901   1.049   3.725   6.523 -0.0624 -0.0575 -0.4651
 4789poe    c2322902   1.065   3.588   6.493  0.2972 -0.1042 -0.0735
 4789poe    c2322903   0.981   3.498   6.586 -0.3631  0.4297 -0.1433
 4789poe     o222904   1.022   3.531   6.717 -0.6118 -0.2595  0.1129
 4789poe    c2322905   0.983   3.442   6.819 -0.5874 -0.2644  0.1178
 4789poe    c2322906   0.970   3.506   6.958 -0.0754 -0.3954  0.2273
 4789poe     o222907   0.887   3.619   6.963  0.3426 -0.0831  0.2128
 4789poe    c3122908   0.839   3.640   7.094 -0.1391 -0.0330  0.0299
 4790poe    c3122909   1.357   5.316   6.639 -0.2280 -0.1136  0.4763
 4790poe     o222910   1.257   5.355   6.547  0.7258  0.6214 -0.2861
 4790poe    c2322911   1.208   5.476   6.599  0.8710  0.3929  0.3963
 4790poe    c2322912   1.069   5.525   6.556  0.7103 -0.0898  0.3639
 4790poe     o222913   1.009   5.625   6.636  0.4613 -0.1375  0.2383
 4790poe    c2322914   0.923   5.702   6.555  0.1881  0.1593  0.8019
 4790poe    c2322915   0.932   5.851   6.593  0.0587  0.3761 -0.0067
 4790poe     o222916   1.048   5.902   6.532  0.1680  0.0460 -0.0778
 4790poe    c2322917   1.106   6.025   6.569  0.0031  0.1557 -0.1859
 4790poe    c2322918   1.240   6.014   6.645 -0.3388  0.2494  0.4353
 4790poe     o222919   1.243   5.947   6.768 -1.1237 -0.0982  0.2725
 4790poe    c3122920   1.318   5.833   6.734 -0.5166  0.5009 -0.4154
 4791poe    c3122921   1.049   4.513   5.011 -0.2907  0.2464 -0.0646
 4791poe     o222922   1.079   4.375   5.014  0.1731  0.3573  0.6186
 4791poe    c2322923   1.054   4.313   5.138  0.1688  0.1592  0.5192
 4791poe    c2322924   1.011   4.169   5.106  0.5635  0.1516  0.0054
 4791poe     o222925   1.079   4.117   4.994 -0.1586  0.2025 -0.4667
 4791poe    c2322926   1.114   3.985   5.028 -0.1881  0.2601 -0.2070
 4791poe    c2322927   1.192   3.908   4.920 -0.4347  0.1536 -0.3097
 4791poe     o222928   1.317   3.971   4.909 -0.2483 -0.1246  0.1894
 4791poe    c2322929   1.415   3.881   4.862  0.0076  0.4846 -0.4611
 4791poe    c2322930   1.560   3.929   4.846  0.4426 -0.4298  0.6151
 4791poe     o222931   1.551   4.012   4.732  0.7487 -0.3014  0.6830
 4791poe    c3122932   1.675   4.077   4.713  0.1983  0.6504  0.2997
 4792poe    c3122933   2.306   0.827   2.149 -0.2584  0.1901 -0.1489
 4792poe     o222934   2.244   0.947   2.108 -0.1783  0.1932 -0.2594
 4792poe    c2322935   2.138   0.923   2.018 -0.0959 -0.3108 -0.2280
 4792poe    c2322936   2.003   0.897   2.088  0.2913 -0.2603  0.5445
 4792poe     o222937   1.949   1.004   2.163  0.0895  0.0403 -0.0229
 4792poe    c2322938   1.897   1.103   2.076  0.1072 -0.1002 -0.1944
 4792poe    c2322939   1.801   1.178   2.169  0.4313  0.0649  0.0094
 4792poe     o222940   1.857   1.250   2.277 -0.4170  0.6504  0.0699
 4792poe    c2322941   1.757   1.319   2.350 -0.8584  0.2766 -0.1746
 4792poe    c2322942   1.755   1.461   2.292  0.1480  0.2653 -0.2596
 4792poe     o222943   1.875   1.533   2.311  0.1541  0.1311  0.2211
 4792poe    c3122944   1.837   1.668   2.312  0.2977  0.1723  0.1955
 4793poe    c3122945   0.459   6.561   2.023 -0.1753 -0.3910 -0.0877
 4793poe     o222946   0.584   6.502   1.992 -0.3867 -0.6212 -0.5083
 4793poe    c2322947   0.690   6.542   2.076 -0.6580  0.2764 -0.5807
 4793poe    c2322948   0.821   6.480   2.025 -0.6000  0.0715 -0.1891
 4793poe     o222949   0.824   6.340   2.036  0.2297  0.0554 -0.5021
 4793poe    c2322950   0.940   6.280   1.983  0.2705  0.0522 -0.4091
 4793poe    c2322951   0.921   6.220   1.842  0.1030 -0.1329 -0.3082
 4793poe     o222952   1.032   6.151   1.790  0.4467  0.0477  0.1789
 4793poe    c2322953   1.008   6.090   1.665  0.0292  0.6386 -0.0288
 4793poe    c2322954   0.931   5.957   1.671  0.2385  0.5366  0.3948
 4793poe     o222955   0.793   5.966   1.699  0.0095 -0.3969 -0.3841
 4793poe    c3122956   0.721   5.845   1.699  0.2733 -0.5544  0.5931
 4794poe    c3122957   2.320   4.766   4.027  0.2413 -0.3009 -0.4155
 4794poe     o222958   2.229   4.680   3.964 -0.0546  0.6763 -1.3400
 4794poe    c2322959   2.293   4.557   3.938 -0.2885  0.1574  0.4237
 4794poe    c2322960   2.185   4.479   3.860  0.1531  0.0608 -0.0992
 4794poe     o222961   2.059   4.499   3.919  0.3475  0.2494  0.2624
 4794poe    c2322962   1.960   4.434   3.841  0.4529  0.1718  0.1929
 4794poe    c2322963   1.825   4.501   3.871  0.2934 -0.1112  0.1018
 4794poe     o222964   1.845   4.640   3.858  0.2059 -0.1344 -0.3063
 4794poe    c2322965   1.725   4.710   3.882  0.2924 -0.2539  0.5143
 4794poe    c2322966   1.732   4.861   3.850  0.1808 -0.3076  0.2323
 4794poe     o222967   1.801   4.927   3.954 -0.1885 -0.1653  0.3892
 4794poe    c3122968   1.783   5.066   3.934  0.2087 -0.1385  0.2121
 4795poe    c3122969   3.862   1.952   7.439 -0.2850  0.1377 -0.4056
 4795poe     o222970   3.794   1.837   7.394  0.3496 -0.2113 -0.4758
 4795poe    c2322971   3.830   1.724   7.471 -0.5169  0.0619  0.3443
 4795poe    c2322972   3.742   1.602   7.438  0.0785 -0.2576 -0.0796
 4795poe     o222973   3.774   1.556   7.308  0.1166 -0.3026 -0.0542
 4795poe    c2322974   3.674   1.463   7.271 -0.6489  0.5590 -0.1902
 4795poe    c2322975   3.623   1.456   7.126 -0.1600 -0.0735 -0.3344
 4795poe     o222976   3.743   1.484   7.057 -0.0070  0.2769  0.0721
 4795poe    c2322977   3.726   1.436   6.926 -0.0112 -0.0027  0.1745
 4795poe    c2322978   3.804   1.518   6.822 -0.2783  0.1578  0.0968
 4795poe     o222979   3.793   1.658   6.837 -0.5578  0.0729  0.7146
 4795poe    c3122980   3.855   1.713   6.723 -0.5440 -0.7438  0.3181
 4796poe    c3122981   3.104   5.673   3.107  0.4746  0.3913  0.1076
 4796poe     o222982   3.037   5.667   2.983  0.3707 -0.4508  0.1954
 4796poe    c2322983   2.898   5.694   2.988  0.4547  0.0236  0.0693
 4796poe    c2322984   2.810   5.675   2.864  0.0323  0.0859  0.3576
 4796poe     o222985   2.807   5.544   2.810 -0.3551  0.4235 -0.4609
 4796poe    c2322986   2.790   5.560   2.671  0.0135  0.3607 -0.5141
 4796poe    c2322987   2.814   5.436   2.582 -0.1352 -0.2306  0.2540
 4796poe     o222988   2.947   5.393   2.591  0.0420  0.1596 -0.4189
 4796poe    c2322989   2.971   5.302   2.486 -0.0916  0.5302 -0.7719
 4796poe    c2322990   3.057   5.356   2.371  0.3213 -0.2835 -0.8541
 4796poe     o222991   3.190   5.378   2.414  0.0229  0.6766 -0.4010
 4796poe    c3122992   3.275   5.420   2.311  1.0492 -0.3346  0.0173
 4797poe    c3122993   6.214   2.872   7.324  0.6949  0.2500 -0.3434
 4797poe     o222994   6.083   2.887   7.273  0.4787 -0.3901  0.0130
 4797poe    c2322995   6.067   2.817   7.151  0.0855  0.6893 -0.5666
 4797poe    c2322996   5.924   2.832   7.096 -0.3737 -0.0516  0.3702
 4797poe     o222997   5.914   2.962   7.042  0.1098  0.0094  0.4207
 4797poe    c2322998   5.782   3.008   7.020  0.2728 -0.0253 -0.6908
 4797poe    c2322999   5.758   3.159   7.008  0.6219  0.0622 -0.3218
 4797poe     o223000   5.773   3.217   7.135  0.1999 -0.0657 -0.2099
 4797poe    c2323001   5.765   3.358   7.139  0.2197 -0.0571 -0.4584
 4797poe    c2323002   5.809   3.424   7.271 -0.1549 -0.1872 -0.2676
 4797poe     o223003   5.780   3.562   7.274 -0.0613 -0.1737  0.2449
 4797poe    c3123004   5.891   3.635   7.320 -0.0884  0.1363 -0.1797
 4798poe    c3123005   5.068   4.156   2.147 -0.1885 -0.5326 -0.2116
 4798poe     o223006   5.076   4.164   2.006 -0.1266 -0.3401 -0.1975
 4798poe    c2323007   4.955   4.219   1.959 -0.4191 -0.3118  0.5720
 4798poe    c2323008   4.874   4.122   1.872 -0.3164  0.2501 -0.1652
 4798poe     o223009   4.808   4.013   1.934 -0.7068  0.8049  0.4071
 4798poe    c2323010   4.692   3.960   1.873  0.1389  0.0724 -0.6184
 4798poe    c2323011   4.687   3.809   1.846  0.4745 -0.0191 -0.1735
 4798poe     o223012   4.750   3.774   1.725  0.5854 -0.2702 -0.0453
 4798poe    c2323013   4.697   3.656   1.668 -0.7605  0.1960  0.2106
 4798poe    c2323014   4.717   3.530   1.753  0.0236 -0.1404 -0.4693
 4798poe     o223015   4.853   3.500   1.777 -0.1257 -0.2642  0.2158
 4798poe    c3123016   4.870   3.382   1.852  0.1634 -0.0986  0.4120
 4799poe    c3123017   1.742   4.053   1.813  0.4305 -0.1775 -0.3781
 4799poe     o223018   1.729   4.036   1.952 -0.2774  0.2707 -0.3873
 4799poe    c2323019   1.746   3.910   2.012  0.3356  0.3486 -0.3896
 4799poe    c2323020   1.867   3.900   2.107  0.3689  0.8338 -0.3780
 4799poe     o223021   1.857   3.991   2.213  0.6193  0.2443  0.1557
 4799poe    c2323022   1.969   3.970   2.296  0.6570 -0.3507 -0.0430
 4799poe    c2323023   1.988   4.081   2.401  0.7430 -0.2684 -0.1449
 4799poe     o223024   1.917   4.059   2.521  0.7485  0.0024 -0.0914
 4799poe    c2323025   1.928   4.161   2.617 -0.2908  0.3775 -0.3508
 4799poe    c2323026   1.854   4.123   2.746 -0.3099 -0.1648 -0.5208
 4799poe     o223027   1.714   4.134   2.735 -0.3337 -0.0925 -0.1514
 4799poe    c3123028   1.668   4.203   2.849 -0.0736 -0.1861  0.0126
 4800poe    c3123029   4.336   6.181   0.940 -0.3905  0.6462  0.2154
 4800poe     o223030   4.467   6.138   0.971 -0.5170  0.3603  0.3590
 4800poe    c2323031   4.506   6.155   1.105  0.0393 -0.7618  0.3497
 4800poe    c2323032   4.634   6.071   1.120  0.1551 -0.6888 -0.1857
 4800poe     o223033   4.742   6.109   1.037  0.0213  0.4146  0.1329
 4800poe    c2323034   4.852   6.170   1.101  0.1301  0.7264 -0.3435
 4800poe    c2323035   4.865   6.319   1.066 -0.2422  0.9226  0.3323
 4800poe     o223036   4.890   6.358   0.933  0.2250  0.1739  0.1926
 4800poe    c2323037   4.925   6.494   0.922 -0.5010  0.3043 -0.5793
 4800poe    c2323038   5.035   6.560   1.007 -0.7409  0.4295 -0.3646
 4800poe     o223039   4.996   6.584   1.140  0.3439  0.1364  0.0201
 4800poe    c3123040   5.103   6.634   1.216  0.3874 -0.2329  0.2063
 4801poe    c3123041   6.846   2.742   5.831 -0.2426  0.2265  0.6257
 4801poe     o223042   6.766   2.858   5.845 -0.4897  0.1122  0.1915
 4801poe    c2323043   6.663   2.843   5.749  0.1526 -0.0625 -0.4801
 4801poe    c2323044   6.582   2.974   5.749  0.5033  0.1635  0.1987
 4801poe     o223045   6.652   3.075   5.680  0.0840  0.2143 -0.1570
 4801poe    c2323046   6.576   3.193   5.694 -0.6096 -0.2576  0.1252
 4801poe    c2323047   6.660   3.316   5.653 -0.2698 -0.5840 -0.1557
 4801poe     o223048   6.763   3.352   5.742 -0.2421 -0.3904 -0.2650
 4801poe    c2323049   6.815   3.477   5.703  0.1083 -0.4970 -0.1470
 4801poe    c2323050   6.959   3.504   5.749  0.0234 -0.8752  0.3485
 4801poe     o223051   6.989   3.514   5.887 -0.2290  0.0216  0.3427
 4801poe    c3123052   7.122   3.559   5.899 -0.0934 -0.4129  0.4842
 4802poe    c3123053   0.208   5.908   2.834 -0.0140 -0.0761  0.0255
 4802poe     o223054   0.294   6.009   2.789 -0.4799  0.2311 -0.1903
 4802poe    c2323055   0.287   6.117   2.879  0.1534 -0.0023  0.1447
 4802poe    c2323056   0.424   6.187   2.867  0.3051 -0.4028 -0.5259
 4802poe     o223057   0.459   6.203   2.732 -0.2633 -0.3824 -0.6740
 4802poe    c2323058   0.573   6.282   2.704 -0.3024 -0.1932 -0.3077
 4802poe    c2323059   0.649   6.216   2.587  0.3779  0.3815 -0.1915
 4802poe     o223060   0.574   6.188   2.471 -0.2350  0.5102  0.1690
 4802poe    c2323061   0.662   6.159   2.365 -0.3458  0.5256  0.0728
 4802poe    c2323062   0.587   6.152   2.230  0.2575  0.4356 -0.2624
 4802poe     o223063   0.503   6.044   2.197  0.4515  0.0115  0.6058
 4802poe    c3123064   0.557   5.993   2.078 -1.1003 -0.0734 -0.0771
 4803poe    c3123065   0.792   7.438   1.145  0.0149  0.9904 -0.0825
 4803poe     o223066   0.759   7.443   1.008  0.3117  0.5328 -0.1723
 4803poe    c2323067   0.621   7.422   0.984  0.2307  0.9332 -0.0731
 4803poe    c2323068   0.558   7.462   0.849  0.7209  0.5278 -0.4280
 4803poe     o223069   0.613   7.384   0.745  0.3766 -0.1322 -0.1229
 4803poe    c2323070   0.558   7.261   0.706 -0.1344  0.0767 -0.0649
 4803poe    c2323071   0.587   7.223   0.560 -0.3968 -0.3092 -0.0190
 4803poe     o223072   0.519   7.304   0.467  0.3538 -0.0153 -0.3245
 4803poe    c2323073   0.539   7.244   0.341 -0.2742  0.0762 -0.4759
 4803poe    c2323074   0.439   7.134   0.302  0.2878 -0.5993 -0.0535
 4803poe     o223075   0.303   7.159   0.274  0.2803 -0.1949  0.3298
 4803poe    c3123076   0.272   7.277   0.203  0.1112 -0.1495  0.4793
 4804poe    c3123077   0.813   4.134   0.145  0.0721  0.4082  1.0569
 4804poe     o223078   0.864   4.056   0.250 -0.2879 -1.0480  0.1814
 4804poe    c2323079   0.898   3.934   0.188  0.3834 -1.0706  0.5795
 4804poe    c2323080   1.010   3.863   0.265  1.3193  0.1165  0.3506
 4804poe     o223081   0.975   3.818   0.394 -0.0250 -0.2550 -0.1237
 4804poe    c2323082   1.080   3.783   0.482 -0.0160 -0.0078 -0.0348
 4804poe    c2323083   1.021   3.748   0.619  0.3190  0.0300  0.1187
 4804poe     o223084   0.969   3.855   0.695 -0.6353 -0.4079  0.0984
 4804poe    c2323085   0.932   3.796   0.818  0.0784  0.0642  0.5495
 4804poe    c2323086   0.903   3.897   0.929  0.0100  0.0993  0.4997
 4804poe     o223087   0.779   3.964   0.924 -0.3252 -0.5484  0.1527
 4804poe    c3123088   0.748   3.996   1.058 -0.3731 -0.0368  0.0207
 4805poe    c3123089   0.203   3.897   6.263  0.0594 -0.3072  0.4040
 4805poe     o223090   0.132   3.916   6.384 -0.4675 -0.1107  0.0668
 4805poe    c2323091   0.197   4.016   6.459 -0.0444 -0.4718  0.1844
 4805poe    c2323092   0.141   4.009   6.602 -0.1802 -0.1490  0.1483
 4805poe     o223093   0.162   3.884   6.664 -0.6909 -0.2535  0.1154
 4805poe    c2323094   0.111   3.872   6.795 -0.3226  0.2039  0.3020
 4805poe    c2323095   0.193   3.937   6.908 -0.2141  0.0352  0.3219
 4805poe     o223096   0.299   3.851   6.943  0.1057  0.4514  0.3817
 4805poe    c2323097   0.394   3.907   7.031  0.3500 -0.1684  0.5166
 4805poe    c2323098   0.510   3.811   7.061  0.0310 -0.7693 -0.1414
 4805poe     o223099   0.616   3.840   6.972 -0.5496 -0.0069 -0.5999
 4805poe    c3123100   0.702   3.945   7.010 -0.2318 -0.5737  0.2773
 4806poe    c3123101   1.218   4.057   0.657  0.4273 -0.0052  0.0595
 4806poe     o223102   1.351   4.023   0.689  0.5443  0.0216 -0.3866
 4806poe    c2323103   1.363   3.937   0.800 -0.2219  0.4149  0.0119
 4806poe    c2323104   1.510   3.892   0.816 -0.2932  0.0441 -0.3516
 4806poe     o223105   1.577   3.843   0.702  0.2086  0.1472 -0.1015
 4806poe    c2323106   1.716   3.847   0.729  0.1830  0.4145 -0.0069
 4806poe    c2323107   1.788   3.846   0.593  0.3706 -0.0466  0.0954
 4806poe     o223108   1.707   3.769   0.507 -0.1685  0.0214  0.5387
 4806poe    c2323109   1.769   3.757   0.381 -0.9484 -0.0737  0.1558
 4806poe    c2323110   1.691   3.682   0.271 -0.2890 -0.1726 -0.2503
 4806poe     o223111   1.562   3.737   0.263 -0.3038 -0.1650  0.0242
 4806poe    c3123112   1.522   3.713   0.130  0.7756 -0.7049 -0.2076
 4807poe    c3123113   3.180   2.952   1.355  0.1814 -0.4333 -0.4637
 4807poe     o223114   3.093   2.853   1.405  0.0826 -0.1600 -0.0906
 4807poe    c2323115   2.965   2.913   1.413  0.2575  0.2447 -0.2969
 4807poe    c2323116   2.859   2.802   1.407 -0.1588  0.6108  0.1190
 4807poe     o223117   2.904   2.702   1.496 -0.0597  0.7294  0.2014
 4807poe    c2323118   2.803   2.649   1.578  0.0063 -0.2759 -0.3583
 4807poe    c2323119   2.867   2.518   1.628 -0.2819 -0.2093  0.1904
 4807poe     o223120   2.914   2.437   1.523 -0.3629 -0.1740  0.1266
 4807poe    c2323121   3.005   2.341   1.572 -0.0826 -0.2005 -0.4334
 4807poe    c2323122   3.055   2.255   1.455  0.3138 -0.0308 -0.3897
 4807poe     o223123   3.127   2.333   1.363 -0.4125  0.5617 -0.4567
 4807poe    c3123124   3.229   2.279   1.282 -0.3916 -0.0796 -0.0089
 4808poe    c3123125   7.525   5.343   4.790  0.6968  0.2612  0.0258
 4808poe     o223126   7.478   5.465   4.737  0.2525  0.1182  0.0871
 4808poe    c2323127   7.442   5.555   4.840 -0.4753 -0.1470  0.0750
 4808poe    c2323128   7.457   5.698   4.783 -0.0287 -0.1674  0.1400
 4808poe     o223129   7.585   5.751   4.758 -0.2355  0.0822 -0.4099
 4808poe    c2323130   7.562   5.890   4.749 -0.6751  0.0155 -0.3388
 4808poe    c2323131   7.593   5.947   4.609  0.7892 -0.3124 -0.1679
 4808poe     o223132   7.505   5.896   4.511  0.2347 -0.0381  0.1848
 4808poe    c2323133   7.559   5.922   4.383 -0.4864  0.1528 -0.0889
 4808poe    c2323134   7.486   5.879   4.255  0.7512 -0.5369 -0.5782
 4808poe     o223135   7.419   5.984   4.190  0.0119 -0.4715  0.2712
 4808poe    c3123136   7.376   5.952   4.059  0.4979 -0.8130  0.1940
 4809poe    c3123137   5.107   4.722   5.919 -0.5650 -0.1700 -0.3643
 4809poe     o223138   5.132   4.857   5.884 -0.0093 -0.2372 -0.2403
 4809poe    c2323139   5.228   4.894   5.980 -0.4080  0.7096 -0.1963
 4809poe    c2323140   5.362   4.948   5.928  0.0440  0.0838  0.3057
 4809poe     o223141   5.374   5.088   5.915  0.4379 -0.0185 -0.5678
 4809poe    c2323142   5.439   5.136   6.031  0.1140  0.1278 -0.4445
 4809poe    c2323143   5.421   5.289   6.025 -0.4339  0.0709 -0.2871
 4809poe     o223144   5.288   5.336   6.020 -0.3621  0.2620 -0.3774
 4809poe    c2323145   5.287   5.466   5.965 -0.3159  0.3209 -0.2394
 4809poe    c2323146   5.164   5.525   5.893 -0.3406  0.3285 -0.1905
 4809poe     o223147   5.145   5.472   5.764  0.3090  0.2676 -0.2617
 4809poe    c3123148   5.042   5.534   5.691  0.2667  0.0142 -0.4185
 4810poe    c3123149   2.236   7.628   6.786  0.2923 -0.2291 -0.1916
 4810poe     o223150   2.158   7.530   6.851  0.5002 -0.3719 -0.1564
 4810poe    c2323151   2.036   7.519   6.782  0.2315  0.0624  0.2451
 4810poe    c2323152   2.039   7.404   6.680 -0.0648 -0.0544  0.3674
 4810poe     o223153   2.032   7.271   6.728  0.5041 -0.2379 -0.0432
 4810poe    c2323154   1.911   7.201   6.708  0.4641  0.0032 -0.6596
 4810poe    c2323155   1.902   7.123   6.576 -0.0043 -0.5465 -0.3057
 4810poe     o223156   1.929   7.203   6.463 -0.0301 -0.6513 -0.3859
 4810poe    c2323157   1.844   7.199   6.350  0.0943 -0.1074 -0.5003
 4810poe    c2323158   1.695   7.226   6.378  0.3077  0.5059  0.0894
 4810poe     o223159   1.631   7.111   6.429  0.5246  0.2012 -0.3217
 4810poe    c3123160   1.499   7.148   6.461  0.6150  0.1650  0.0990
 4811poe    c3123161   0.134   0.768   0.356  0.2281  0.6956  0.3965
 4811poe     o223162   0.227   0.664   0.338  0.0295  0.5703  0.0776
 4811poe    c2323163   0.256   0.643   0.201 -0.0227  0.6992  0.0464
 4811poe    c2323164   0.305   0.499   0.175 -0.5384  0.3953  0.7179
 4811poe     o223165   0.420   0.472   0.252 -0.2626  0.6603  0.3975
 4811poe    c2323166   0.544   0.535   0.227  0.2933 -0.4849  0.2238
 4811poe    c2323167   0.649   0.477   0.323  1.1895  0.0011 -0.4473
 4811poe     o223168   0.629   0.338   0.328  0.0543  0.1525 -0.5188
 4811poe    c2323169   0.733   0.275   0.400 -0.2887 -0.2280 -0.3514
 4811poe    c2323170   0.691   0.127   0.390 -0.2291 -0.2732  0.0564
 4811poe     o223171   0.552   0.112   0.373 -0.3145 -0.0550  0.5511
 4811poe    c3123172   0.530  -0.022   0.409 -0.3857  0.0490  0.9086
 4812poe    c3123173   4.733   5.955   4.245 -0.2594 -0.4420 -0.1960
 4812poe     o223174   4.832   6.041   4.191 -0.0700 -0.5449 -0.0146
 4812poe    c2323175   4.884   5.977   4.076 -0.4936 -0.3034 -0.3432
 4812poe    c2323176   5.026   6.037   4.075 -0.7038  0.2053 -0.1091
 4812poe     o223177   5.023   6.176   4.099 -0.0464  0.2436 -0.2295
 4812poe    c2323178   5.142   6.238   4.056 -0.3779  0.6892 -0.5204
 4812poe    c2323179   5.165   6.374   4.123 -0.4780  0.3011  0.3072
 4812poe     o223180   5.151   6.366   4.263 -0.0548 -0.6752  0.2952
 4812poe    c2323181   5.198   6.471   4.344  0.5814 -0.5520 -0.2249
 4812poe    c2323182   5.129   6.608   4.329  0.0628 -0.7540  0.2952
 4812poe     o223183   4.990   6.587   4.344 -0.0694 -0.2411 -0.2067
 4812poe    c3123184   4.946   6.721   4.350  0.3804 -0.1371  1.1301
 4813poe    c3123185   5.699   4.549   1.382 -0.2587 -0.6239  0.2388
 4813poe     o223186   5.709   4.606   1.511  0.1429  0.3309 -0.1990
 4813poe    c2323187   5.826   4.552   1.568  0.0284 -0.0138 -0.2892
 4813poe    c2323188   5.837   4.608   1.711 -0.5116  0.2873 -0.3595
 4813poe     o223189   5.838   4.748   1.716  0.0916  0.2812 -0.0984
 4813poe    c2323190   5.795   4.799   1.841  0.2340 -0.1572  0.1297
 4813poe    c2323191   5.833   4.948   1.852 -0.4180  0.0348 -0.1939
 4813poe     o223192   5.971   4.974   1.860 -0.3500 -0.4510  0.2599
 4813poe    c2323193   5.979   5.115   1.855 -0.1495 -0.4726 -0.0772
 4813poe    c2323194   6.017   5.162   1.997 -0.3034 -0.6882  0.0369
 4813poe     o223195   6.152   5.134   2.027 -0.2216 -0.1648  0.1727
 4813poe    c3123196   6.236   5.233   1.973  0.6774 -0.7504  0.4764
 4814poe    c3123197   4.917   6.963   3.068 -0.2520  0.0114  0.2259
 4814poe     o223198   4.947   6.950   3.205  0.0724 -0.0920  0.1454
 4814poe    c2323199   5.083   6.970   3.236  0.1204 -0.1890 -0.0048
 4814poe    c2323200   5.113   6.949   3.385  0.8736  0.3973 -0.0661
 4814poe     o223201   5.054   7.056   3.456 -0.6736 -0.4514 -0.0307
 4814poe    c2323202   5.105   7.054   3.587 -0.5317 -0.5877 -0.0887
 4814poe    c2323203   5.035   7.162   3.671 -0.5209 -0.2393 -0.5275
 4814poe     o223204   4.897   7.134   3.672 -0.5114 -0.2703  0.4495
 4814poe    c2323205   4.822   7.223   3.752  0.0636 -0.3255  1.0627
 4814poe    c2323206   4.679   7.171   3.733  0.1886 -0.2933 -0.0340
 4814poe     o223207   4.665   7.158   3.593  0.1772  0.8910 -0.1527
 4814poe    c3123208   4.535   7.161   3.539 -0.1134 -0.5053  0.4338
 4815poe    c3123209   2.955   2.873   3.132  0.2440 -0.0919  0.2373
 4815poe     o223210   2.832   2.907   3.074  0.3347 -0.0330  0.0797
 4815poe    c2323211   2.806   2.853   2.945 -0.2827  0.1389  0.1268
 4815poe    c2323212   2.850   2.934   2.821  0.1522 -0.0214  0.1739
 4815poe     o223213   2.783   3.057   2.816  0.1871 -0.0055  0.0982
 4815poe    c2323214   2.857   3.158   2.880 -0.2953  0.2225  0.3040
 4815poe    c2323215   2.797   3.299   2.859 -0.2933  0.1550 -0.1441
 4815poe     o223216   2.806   3.384   2.970 -0.2160  0.3513 -0.3003
 4815poe    c2323217   2.735   3.504   2.944 -0.1093  0.5222  0.1896
 4815poe    c2323218   2.699   3.588   3.068 -0.1429  0.6380  0.1005
 4815poe     o223219   2.595   3.539   3.150 -0.1316  0.1370 -0.1854
 4815poe    c3123220   2.583   3.611   3.270 -0.4923 -0.1522 -0.0448
 4816poe    c3123221   7.454   5.556   1.192 -0.0606 -0.5887 -0.1655
 4816poe     o223222   7.446   5.426   1.138  0.4168 -0.6999  0.0283
 4816poe    c2323223   7.382   5.417   1.012 -0.0066 -0.0516  0.1940
 4816poe    c2323224   7.353   5.282   0.945 -0.5484  0.2022 -0.0852
 4816poe     o223225   7.233   5.239   1.006 -0.2833 -0.6164 -0.1257
 4816poe    c2323226   7.240   5.112   1.067  0.3152 -0.2992  0.4787
 4816poe    c2323227   7.139   5.067   1.175 -0.0662  0.2731  0.3706
 4816poe     o223228   7.170   5.103   1.307 -0.3752  0.4350  0.3985
 4816poe    c2323229   7.198   4.985   1.380 -0.5232  0.1292 -0.0356
 4816poe    c2323230   7.150   5.001   1.526 -0.2468  0.3137  0.0343
 4816poe     o223231   7.011   4.986   1.541 -0.2262 -0.0634 -0.1398
 4816poe    c3123232   6.983   4.915   1.659  0.0536 -0.5594 -0.3671
 4817poe    c3123233   6.803   3.073   3.933 -0.0446  0.1016  0.1486
 4817poe     o223234   6.742   3.167   3.848 -0.0904  0.1507  0.2361
 4817poe    c2323235   6.613   3.193   3.899 -0.2403 -0.0754 -0.0259
 4817poe    c2323236   6.546   3.288   3.798  0.0926 -0.1482 -0.3180
 4817poe     o223237   6.611   3.410   3.776 -0.2685  0.0929 -0.0666
 4817poe    c2323238   6.552   3.456   3.656 -0.8946 -0.2995  0.0929
 4817poe    c2323239   6.539   3.607   3.632  0.1422 -0.2125  0.0570
 4817poe     o223240   6.659   3.680   3.618  0.2099 -0.2906  0.2260
 4817poe    c2323241   6.746   3.654   3.510 -0.5445  0.1123 -0.4935
 4817poe    c2323242   6.898   3.657   3.534 -0.5488  0.0504 -0.4581
 4817poe     o223243   6.934   3.559   3.628 -0.1424  0.3886 -0.2570
 4817poe    c3123244   7.015   3.618   3.727  0.3059 -0.2991 -0.2020
 4818poe    c3123245   2.577   4.003   7.392  0.2977  0.4926  0.4745
 4818poe     o223246   2.697   4.035   7.325  0.3724 -0.9026 -0.1045
 4818poe    c2323247   2.753   4.140   7.402  0.0729 -0.3697 -0.6033
 4818poe    c2323248   2.898   4.187   7.390 -0.0160  0.0431 -0.1124
 4818poe     o223249   2.987   4.089   7.439  0.4384  0.3435 -0.3254
 4818poe    c2323250   3.120   4.098   7.393  0.3524  1.1979 -0.4367
 4818poe    c2323251   3.212   4.032   7.498  0.3990  0.3428 -1.0014
 4818poe     o223252   3.234   4.125   7.602 -0.0433  0.4193 -0.9766
 4818poe    c2323253   3.364   4.112   7.654 -0.1864  0.3011 -0.6471
 4818poe    c2323254   3.381   4.195   7.782  0.4708 -0.9056  0.0642
 4818poe     o223255   3.288   4.159   7.881  0.2603 -0.3137  0.0827
 4818poe    c3123256   3.303   4.241   7.995  0.2335  0.3254 -0.3727
 4819poe    c3123257   3.067   0.796   6.079 -0.5056  0.3408 -0.1715
 4819poe     o223258   3.024   0.905   6.157 -0.3530  0.4617 -0.2548
 4819poe    c2323259   3.026   1.011   6.065 -0.0131  0.1374 -0.6269
 4819poe    c2323260   2.935   1.130   6.102  0.2651  0.1080  0.1732
 4819poe     o223261   2.973   1.185   6.226  0.4685  0.6089 -0.1075
 4819poe    c2323262   2.882   1.284   6.268 -0.3662 -0.2012  0.0314
 4819poe    c2323263   2.896   1.313   6.418 -0.0467 -0.1936  0.0009
 4819poe     o223264   2.893   1.199   6.501  0.5122 -0.2040  0.0073
 4819poe    c2323265   2.873   1.240   6.634  0.0451 -0.6046  0.0647
 4819poe    c2323266   2.735   1.215   6.697 -0.0002  0.0745  0.2486
 4819poe     o223267   2.727   1.086   6.755 -0.3175  0.0844  0.2292
 4819poe    c3123268   2.599   1.062   6.808 -0.1996 -0.4647  0.2648
 4820poe    c3123269   2.728   5.112   6.657 -0.2499  0.2534 -0.0344
 4820poe     o223270   2.676   5.177   6.543 -0.2631  0.0247 -0.1581
 4820poe    c2323271   2.589   5.084   6.482 -0.6062  0.0094  0.3458
 4820poe    c2323272   2.517   5.130   6.354 -0.0369  0.3378  0.1381
 4820poe     o223273   2.425   5.235   6.374 -0.3183 -0.0770  1.0654
 4820poe    c2323274   2.311   5.232   6.291  0.9551 -0.1767 -0.7366
 4820poe    c2323275   2.249   5.372   6.274  0.9081 -0.0565  0.3512
 4820poe     o223276   2.312   5.454   6.179  0.3391  0.3838  0.3501
 4820poe    c2323277   2.259   5.471   6.049  0.5572  0.6293  0.2913
 4820poe    c2323278   2.134   5.561   6.040  0.2623  0.1939  0.0185
 4820poe     o223279   2.151   5.700   6.051  0.3088  0.1756  0.1734
 4820poe    c3123280   2.023   5.757   6.034  0.3018  0.0681 -0.1449
 4821poe    c3123281   2.137   6.637   4.132  0.0943  0.1475  0.2344
 4821poe     o223282   2.267   6.608   4.085  0.0736  0.3157  0.0699
 4821poe    c2323283   2.369   6.633   4.179 -0.1050 -0.4409  0.4722
 4821poe    c2323284   2.507   6.585   4.131 -0.1890  0.1009 -0.3216
 4821poe     o223285   2.533   6.446   4.141 -0.3177  0.1012  0.0091
 4821poe    c2323286   2.666   6.420   4.104 -0.2225 -0.5138  0.7551
 4821poe    c2323287   2.695   6.269   4.094 -0.0503 -0.4125 -0.5008
 4821poe     o223288   2.612   6.208   3.997  0.1494  0.1105 -1.0067
 4821poe    c2323289   2.599   6.070   4.022  0.8860  0.2156  0.0186
 4821poe    c2323290   2.483   6.005   3.945  0.6156  0.7805 -0.0528
 4821poe     o223291   2.498   5.945   3.818  0.4473  0.2593  0.1716
 4821poe    c3123292   2.379   5.876   3.790  0.2609  0.3882  0.6266
 4822poe    c3123293   6.709   1.629   1.714  0.6009 -0.4149  0.2490
 4822poe     o223294   6.645   1.658   1.836 -0.0936  0.0978 -0.2316
 4822poe    c2323295   6.514   1.706   1.818 -0.2045 -0.1276 -0.0406
 4822poe    c2323296   6.406   1.610   1.765 -0.4877 -0.0305  0.3535
 4822poe     o223297   6.292   1.677   1.717 -0.3225 -0.0694 -0.0962
 4822poe    c2323298   6.173   1.604   1.732 -0.2931  0.0040  0.5069
 4822poe    c2323299   6.054   1.692   1.687 -0.0392  0.2665  0.3441
 4822poe     o223300   6.047   1.688   1.546  0.1035 -0.0195  0.3430
 4822poe    c2323301   5.962   1.786   1.491 -0.0219 -0.4455 -0.2307
 4822poe    c2323302   5.894   1.744   1.359 -0.2590  0.6161 -0.4602
 4822poe     o223303   5.961   1.746   1.235  0.1049  1.0226 -0.2612
 4822poe    c3123304   5.885   1.735   1.116 -0.2951 -0.6259  0.1285
 4823poe    c3123305   6.834   0.172   1.851 -0.3155  0.0572  0.1931
 4823poe     o223306   6.931   0.095   1.918 -0.0166  0.2144 -0.0521
 4823poe    c2323307   6.990   0.163   2.027  0.0271  0.4661 -0.2315
 4823poe    c2323308   7.136   0.129   2.061 -0.1419 -0.6137 -0.5195
 4823poe     o223309   7.232   0.185   1.974  0.4613  0.3866  0.7468
 4823poe    c2323310   7.254   0.109   1.857 -0.0500  0.2127  0.7588
 4823poe    c2323311   7.317  -0.030   1.877  0.2546  0.1797 -0.3686
 4823poe     o223312   7.264  -0.123   1.785 -0.7188 -0.2071  0.5659
 4823poe    c2323313   7.320  -0.252   1.780  0.1272  0.1821 -0.3450
 4823poe    c2323314   7.246  -0.328   1.667 -0.5422 -0.6524  0.6321
 4823poe     o223315   7.296  -0.314   1.536 -0.2961 -0.0278  0.7862
 4823poe    c3123316   7.219  -0.396   1.451  0.3893 -0.1173  0.2490
 4824poe    c3123317   5.334   5.824   4.655 -0.2316  0.4074  0.0208
 4824poe     o223318   5.276   5.890   4.544  0.4151  0.4958 -0.2716
 4824poe    c2323319   5.345   6.009   4.517  0.4465  0.5840  0.1918
 4824poe    c2323320   5.316   6.128   4.610 -0.2767  0.6623 -0.1267
 4824poe     o223321   5.192   6.193   4.597 -0.6649  0.0158  0.2985
 4824poe    c2323322   5.170   6.269   4.714 -0.2422 -0.1160  0.4638
 4824poe    c2323323   5.069   6.384   4.700  0.0575  0.2336  1.1159
 4824poe     o223324   4.941   6.337   4.664  0.2551  0.2985  0.3075
 4824poe    c2323325   4.877   6.450   4.609 -0.6012 -0.2085  0.2456
 4824poe    c2323326   4.745   6.397   4.548 -0.6897  0.4040 -0.0991
 4824poe     o223327   4.655   6.379   4.654 -0.0035 -0.4886  0.3432
 4824poe    c3123328   4.575   6.270   4.612 -0.5847  0.2996 -0.6366
 4825poe    c3123329   0.693   0.395   4.019  0.0809  0.1803  0.7639
 4825poe     o223330   0.778   0.290   4.060  0.1308 -0.1206 -0.0938
 4825poe    c2323331   0.737   0.159   4.028 -0.3525  0.0549 -0.2068
 4825poe    c2323332   0.824   0.037   4.064  0.1309  0.4046 -0.1816
 4825poe     o223333   0.947   0.045   3.994  0.3855 -0.3822  0.1720
 4825poe    c2323334   1.012  -0.079   3.980  0.1481 -0.4523 -0.3025
 4825poe    c2323335   1.101  -0.066   3.855  0.5785 -0.3353  0.0135
 4825poe     o223336   1.218   0.002   3.892  0.4033  0.0914 -0.2096
 4825poe    c2323337   1.302   0.009   3.779 -0.2611  0.3814 -0.6913
 4825poe    c2323338   1.427   0.085   3.827 -0.1005 -0.1885 -0.2063
 4825poe     o223339   1.486   0.031   3.944  0.5795  0.2967 -0.3228
 4825poe    c3123340   1.574   0.131   3.991  0.5150  0.2926 -0.1953
 4826poe    c3123341   3.360   5.699   5.050  0.0215 -0.7109 -0.4075
 4826poe     o223342   3.254   5.764   4.983 -0.0619  0.1192  0.5077
 4826poe    c2323343   3.228   5.890   5.042 -0.2113  0.6410 -0.6471
 4826poe    c2323344   3.097   5.968   5.018 -0.3661  0.5232 -0.2020
 4826poe     o223345   2.992   5.885   5.061 -0.0111  0.4009  0.4365
 4826poe    c2323346   2.858   5.927   5.055 -0.2661 -0.3632  0.6930
 4826poe    c2323347   2.759   5.814   5.091 -0.2526 -0.5282  0.2233
 4826poe     o223348   2.796   5.693   5.029  0.2030  0.0915 -0.7312
 4826poe    c2323349   2.690   5.603   5.053  0.6982 -0.4491 -0.5327
 4826poe    c2323350   2.670   5.465   4.988  0.1127 -0.3068 -0.6612
 4826poe     o223351   2.793   5.404   5.021  0.0011 -0.0574  0.2417
 4826poe    c3123352   2.792   5.279   4.957 -0.5293 -0.2253  0.5671
 4827poe    c3123353   4.849   7.494   0.130  0.1743 -0.1504  0.2198
 4827poe     o223354   4.864   7.521   0.267 -0.0361  0.2110  0.1725
 4827poe    c2323355   4.786   7.632   0.307 -0.5417 -0.0608 -0.0556
 4827poe    c2323356   4.776   7.620   0.461 -0.3226  0.2690 -0.0156
 4827poe     o223357   4.892   7.649   0.536 -0.0541  0.1072 -0.3614
 4827poe    c2323358   4.896   7.788   0.559  0.0108  0.0139  0.1973
 4827poe    c2323359   4.959   7.802   0.699  0.3653 -0.0686  0.0458
 4827poe     o223360   4.887   7.768   0.815  0.0126 -0.3979 -0.2653
 4827poe    c2323361   4.973   7.786   0.926 -0.6297 -0.5301  0.2567
 4827poe    c2323362   4.896   7.857   1.039 -0.2433  0.3336 -0.0181
 4827poe     o223363   4.781   7.788   1.083  0.0291 -0.1185 -0.0196
 4827poe    c3123364   4.697   7.861   1.169 -0.9009  0.3474 -1.2906
 4828poe    c3123365   0.188   6.315   0.823 -0.0568 -0.4909  0.1083
 4828poe     o223366   0.089   6.306   0.923  0.0146  0.0188  0.2274
 4828poe    c2323367   0.145   6.259   1.043 -0.0718 -0.1034  0.2209
 4828poe    c2323368   0.072   6.340   1.152 -0.7335  0.3852 -0.5819
 4828poe     o223369   0.096   6.479   1.155  0.2125  0.2299 -0.5062
 4828poe    c2323370   0.203   6.520   1.237  0.1292  0.1702 -0.3685
 4828poe    c2323371   0.206   6.668   1.281 -0.3854 -0.0184  0.3275
 4828poe     o223372   0.079   6.716   1.319 -0.3046 -0.1818  0.8091
 4828poe    c2323373   0.074   6.856   1.307  0.0092 -0.2420 -0.0696
 4828poe    c2323374  -0.059   6.924   1.344  0.3013  0.5735 -0.4879
 4828poe     o223375  -0.155   6.849   1.273  0.6372  0.0341 -0.3801
 4828poe    c3123376  -0.253   6.938   1.225 -0.0561 -0.3690  0.2810
 4829poe    c3123377   4.384   0.605   2.045  0.1868  0.4502 -1.1327
 4829poe     o223378   4.482   0.594   2.147 -0.7201  0.8626 -0.1937
 4829poe    c2323379   4.553   0.715   2.154  0.5058  0.1515 -0.1698
 4829poe    c2323380   4.674   0.685   2.245  0.1876  0.0256  0.2117
 4829poe     o223381   4.645   0.645   2.377  0.4812 -0.6458  0.0768
 4829poe    c2323382   4.681   0.756   2.456 -0.5290  0.2637 -0.7049
 4829poe    c2323383   4.709   0.689   2.592 -0.4091  0.2253 -0.7484
 4829poe     o223384   4.608   0.594   2.616  0.1098 -0.1144  0.1560
 4829poe    c2323385   4.634   0.507   2.724  0.9043 -0.4248 -0.2734
 4829poe    c2323386   4.557   0.377   2.753 -0.4017  0.3212 -0.3356
 4829poe     o223387   4.563   0.309   2.630  0.3247 -0.3980  0.0933
 4829poe    c3123388   4.503   0.184   2.655  0.3464 -0.4290 -0.0081
 4830poe    c3123389   3.292   2.933   1.999 -0.0597  0.0022  0.0326
 4830poe     o223390   3.415   2.867   2.014 -0.0962  0.0329  0.4963
 4830poe    c2323391   3.409   2.730   1.980  0.4827  0.0204  0.4272
 4830poe    c2323392   3.534   2.665   2.041  0.6931  0.2225  0.2159
 4830poe     o223393   3.481   2.634   2.168 -0.2538 -0.1112 -0.2489
 4830poe    c2323394   3.587   2.591   2.251 -0.2256  0.1350 -0.1543
 4830poe    c2323395   3.558   2.632   2.397  0.8676 -0.6996  0.3079
 4830poe     o223396   3.458   2.546   2.446 -0.2274 -0.1017 -0.8172
 4830poe    c2323397   3.440   2.574   2.583 -0.1589  0.2781 -0.8830
 4830poe    c2323398   3.309   2.651   2.607 -0.2335 -0.2100  0.3745
 4830poe     o223399   3.202   2.563   2.634 -0.3570 -0.0187  0.5075
 4830poe    c3123400   3.086   2.642   2.652 -0.4264  0.0233 -0.1143
 4831poe    c3123401   4.746   2.830   3.680 -0.3667 -0.1437 -0.8935
 4831poe     o223402   4.774   2.749   3.568 -0.2184 -0.5921 -0.5355
 4831poe    c2323403   4.756   2.609   3.564 -0.5199 -0.5686 -0.0808
 4831poe    c2323404   4.836   2.527   3.666 -0.0470  0.9117  0.7770
 4831poe     o223405   4.976   2.514   3.651 -0.1560 -0.1771  0.5743
 4831poe    c2323406   5.009   2.377   3.648 -0.6695 -0.2962  0.0341
 4831poe    c2323407   5.119   2.335   3.549 -0.3146  0.5472  0.0618
 4831poe     o223408   5.087   2.337   3.412  0.3751 -0.1335 -0.1130
 4831poe    c2323409   5.093   2.468   3.361 -0.1084 -0.0352  0.0863
 4831poe    c2323410   5.047   2.497   3.217 -0.0939 -0.4292  0.0036
 4831poe     o223411   4.907   2.485   3.212 -0.0888 -0.3803 -0.2879
 4831poe    c3123412   4.861   2.555   3.099  0.1549  0.0847 -0.1036
 4832poe    c3123413   3.307   0.451   6.668 -0.5586  0.0300 -0.3993
 4832poe     o223414   3.374   0.564   6.617 -0.1712 -0.3150 -0.6565
 4832poe    c2323415   3.511   0.533   6.602 -0.1058 -0.0984 -0.5154
 4832poe    c2323416   3.572   0.564   6.464  0.9685  0.0009 -0.0293
 4832poe     o223417   3.548   0.699   6.432  0.2159 -0.1036  0.0688
 4832poe    c2323418   3.560   0.729   6.295 -0.1173 -0.3510 -0.0125
 4832poe    c2323419   3.601   0.871   6.253 -0.1694 -0.3627 -0.1049
 4832poe     o223420   3.502   0.969   6.231  0.4513  0.2472 -0.2253
 4832poe    c2323421   3.557   1.098   6.216  0.3482  0.3753  0.4496
 4832poe    c2323422   3.464   1.204   6.153 -0.0138 -0.2395 -0.0593
 4832poe     o223423   3.352   1.233   6.233  0.4569  0.1284  0.4698
 4832poe    c3123424   3.279   1.346   6.190  0.4766 -0.1828 -0.4002
 4833poe    c3123425   4.111   0.656   6.186  0.3234  0.5807  0.3026
 4833poe     o223426   4.106   0.587   6.309  0.2365  0.0657  0.0145
 4833poe    c2323427   4.010   0.485   6.325 -0.4639  0.7424  0.1515
 4833poe    c2323428   3.997   0.439   6.471 -0.3003 -0.5811 -0.2365
 4833poe     o223429   3.932   0.538   6.549 -0.2631 -0.6161 -0.1608
 4833poe    c2323430   3.954   0.502   6.683 -0.8096 -0.0539  0.0806
 4833poe    c2323431   3.980   0.624   6.774 -0.5121 -0.1917  0.1787
 4833poe     o223432   4.085   0.708   6.729 -0.2206 -0.4914  0.2889
 4833poe    c2323433   4.099   0.815   6.819  0.3264 -0.2220 -0.1169
 4833poe    c2323434   4.246   0.826   6.863  0.2602  0.8315 -0.1194
 4833poe     o223435   4.309   0.815   6.737  0.2371 -0.5878 -0.0255
 4833poe    c3123436   4.450   0.810   6.742  0.2721  0.1843 -0.1364
 4834poe    c3123437   2.745   7.044   2.429 -0.4958  0.0396 -0.1971
 4834poe     o223438   2.731   6.933   2.516 -0.0295  0.1848  0.0663
 4834poe    c2323439   2.635   6.846   2.461 -0.2338  0.4855 -0.0561
 4834poe    c2323440   2.660   6.754   2.340  0.5341  0.4117  0.1573
 4834poe     o223441   2.734   6.645   2.390 -0.1482 -0.1349 -0.0107
 4834poe    c2323442   2.788   6.572   2.282 -0.7797 -0.5245 -0.0662
 4834poe    c2323443   2.873   6.447   2.309  0.2203  0.1529 -0.0290
 4834poe     o223444   3.002   6.484   2.353  0.4536  0.3222 -0.8365
 4834poe    c2323445   3.084   6.369   2.351 -0.3741 -0.2912 -0.1046
 4834poe    c2323446   3.194   6.385   2.456 -0.0674 -0.2064 -0.4375
 4834poe     o223447   3.277   6.271   2.468 -0.0515 -0.1557 -0.0518
 4834poe    c3123448   3.385   6.317   2.545  0.1050  0.3494 -0.5675
 4835poe    c3123449   7.482   7.106   4.361  0.3747 -0.0855  0.2534
 4835poe     o223450   7.492   7.078   4.499  0.2632  0.5429  0.3922
 4835poe    c2323451   7.393   7.139   4.578 -0.7934 -0.7965  0.1431
 4835poe    c2323452   7.403   7.140   4.732 -0.4734 -0.1008  0.1225
 4835poe     o223453   7.522   7.212   4.756 -0.3823 -0.1717 -0.1101
 4835poe    c2323454   7.551   7.259   4.886 -0.3257  0.4478 -0.3461
 4835poe    c2323455   7.465   7.386   4.902 -0.8768  0.1313 -0.7437
 4835poe     o223456   7.507   7.495   4.823  0.5890  0.2385  0.1536
 4835poe    c2323457   7.414   7.599   4.805  0.6730  0.3021  0.0857
 4835poe    c2323458   7.492   7.728   4.771  0.5813  0.3258 -0.0364
 4835poe     o223459   7.543   7.722   4.640  0.1928 -0.5285 -0.1604
 4835poe    c3123460   7.456   7.758   4.535 -0.0777 -0.3252  0.1322
 4836poe    c3123461   4.413   6.893   4.305 -0.0991 -0.4928 -0.1821
 4836poe     o223462   4.528   6.950   4.247 -0.0701 -0.1449  0.2131
 4836poe    c2323463   4.620   6.972   4.352  0.0754  0.5889 -0.0604
 4836poe    c2323464   4.723   7.086   4.342 -0.0340  0.7745  0.9022
 4836poe     o223465   4.687   7.222   4.333  0.5863  0.8867 -0.0600
 4836poe    c2323466   4.629   7.280   4.448  0.4911  0.5361  0.0713
 4836poe    c2323467   4.541   7.404   4.428 -0.3845 -0.0129  0.4667
 4836poe     o223468   4.605   7.528   4.408  0.3594 -0.4560  0.0892
 4836poe    c2323469   4.521   7.630   4.357  0.6148 -0.1998  0.1789
 4836poe    c2323470   4.562   7.772   4.399 -0.5628  0.1371  0.1950
 4836poe     o223471   4.681   7.808   4.332 -0.1754 -0.1979  0.6998
 4836poe    c3123472   4.723   7.931   4.386  0.1660 -0.0373  0.0742
 4837poe    c3123473   3.105   4.912   4.757  0.2750 -0.0873 -0.1427
 4837poe     o223474   3.110   4.829   4.643  0.3837 -0.4291  0.1102
 4837poe    c2323475   2.999   4.746   4.617 -0.2794  0.2820  0.6295
 4837poe    c2323476   2.879   4.810   4.544  0.1005  0.1441 -0.1261
 4837poe     o223477   2.889   4.822   4.404  0.3123  0.0262 -0.1223
 4837poe    c2323478   2.762   4.807   4.345 -0.0136  0.9299  0.3258
 4837poe    c2323479   2.752   4.889   4.215 -0.0267  0.3394 -0.0505
 4837poe     o223480   2.838   4.858   4.107 -0.1620 -0.3294  0.0313
 4837poe    c2323481   2.833   4.723   4.066  0.6460 -0.2632 -0.3103
 4837poe    c2323482   2.865   4.706   3.917 -0.5545 -0.4493 -0.5639
 4837poe     o223483   2.786   4.799   3.846  0.1794  0.6526  0.0209
 4837poe    c3123484   2.764   4.755   3.713 -0.1194  0.5502  0.1020
 4838poe    c3123485   5.140   7.063   6.160  0.2742 -0.1825 -0.5391
 4838poe     o223486   5.210   7.081   6.039  0.4156 -0.2277 -0.4641
 4838poe    c2323487   5.349   7.089   6.064  0.3255 -0.1591  0.0401
 4838poe    c2323488   5.421   6.955   6.042  0.5639 -0.0700  0.2695
 4838poe     o223489   5.416   6.889   5.917 -0.0111  0.3513  0.0643
 4838poe    c2323490   5.290   6.841   5.876  0.3975 -0.6178 -0.0770
 4838poe    c2323491   5.291   6.722   5.778 -0.2315 -0.1574 -0.6518
 4838poe     o223492   5.347   6.764   5.655 -0.2369  0.2996 -0.5013
 4838poe    c2323493   5.337   6.657   5.563 -0.2520  0.3162 -0.5186
 4838poe    c2323494   5.375   6.680   5.415  0.1401  0.8419 -0.3402
 4838poe     o223495   5.513   6.660   5.393 -0.0117 -0.0084 -0.5706
 4838poe    c3123496   5.542   6.690   5.259  0.3787 -0.2993 -0.5513
 4839poe    c3123497   2.907   5.248   5.703  0.1725  0.1511 -0.3657
 4839poe     o223498   2.970   5.300   5.588  0.5103  0.2194 -0.1471
 4839poe    c2323499   2.877   5.326   5.486 -0.0140 -0.0797  0.2490
 4839poe    c2323500   2.962   5.401   5.381  0.1982 -0.5660  0.0723
 4839poe     o223501   3.008   5.526   5.426 -0.4027 -0.3199  0.0116
 4839poe    c2323502   3.136   5.545   5.370 -0.7593  0.2092 -0.6470
 4839poe    c2323503   3.185   5.685   5.410  0.0448 -0.1343 -0.4225
 4839poe     o223504   3.225   5.683   5.546 -0.6562  0.0958 -0.2090
 4839poe    c2323505   3.335   5.769   5.566 -0.1234 -0.4912 -0.5800
 4839poe    c2323506   3.386   5.758   5.711 -0.1782  1.0650 -0.4270
 4839poe     o223507   3.292   5.792   5.810  0.0441  0.6589 -0.0713
 4839poe    c3123508   3.348   5.814   5.937  0.0283  0.6206 -0.0576
 4840poe    c3123509   2.236   7.033   6.187  0.7030 -0.5492 -0.9091
 4840poe     o223510   2.325   7.030   6.296  0.1143 -0.1856 -0.4123
 4840poe    c2323511   2.432   6.945   6.261  0.3104 -0.3100  0.4680
 4840poe    c2323512   2.518   6.949   6.389  0.3726  0.4873  0.4060
 4840poe     o223513   2.516   7.070   6.462  0.0107  0.3082  0.6914
 4840poe    c2323514   2.594   7.059   6.578  0.0026  0.2675  0.6933
 4840poe    c2323515   2.574   7.168   6.685  0.0623  0.2697  0.7025
 4840poe     o223516   2.439   7.163   6.727 -0.2842  0.0283 -0.3956
 4840poe    c2323517   2.402   7.269   6.813 -0.1726 -0.0141 -0.2935
 4840poe    c2323518   2.269   7.255   6.889  0.0376 -0.0445  0.0690
 4840poe     o223519   2.284   7.166   6.997  0.2031  0.9848  0.9110
 4840poe    c3123520   2.161   7.164   7.065 -0.1319 -0.2424  0.2959
 4841poe    c3123521   6.102   2.353   1.505 -0.0535  0.3264 -0.3933
 4841poe     o223522   6.243   2.353   1.508 -0.0436 -0.7393 -0.2714
 4841poe    c2323523   6.290   2.478   1.462 -0.1669 -0.5017  0.2367
 4841poe    c2323524   6.414   2.503   1.550  0.1844  0.7141 -0.5853
 4841poe     o223525   6.487   2.383   1.547 -0.0728  0.5507 -0.2963
 4841poe    c2323526   6.625   2.413   1.552 -0.0853  0.5740 -0.0593
 4841poe    c2323527   6.704   2.281   1.550  0.2131  0.7517  0.0800
 4841poe     o223528   6.696   2.205   1.432  0.4253  0.2876  0.3627
 4841poe    c2323529   6.753   2.076   1.431  0.1609  0.1697  0.4064
 4841poe    c2323530   6.698   2.003   1.307 -0.1584  0.3950  0.4166
 4841poe     o223531   6.559   2.009   1.282 -0.1329 -0.0333  0.1641
 4841poe    c3123532   6.521   1.953   1.159 -0.2514  0.3963  0.0028
 4842poe    c3123533   7.211   7.195   0.352  0.1492  0.5995 -0.3726
 4842poe     o223534   7.082   7.224   0.399 -0.0232  0.2104 -0.6023
 4842poe    c2323535   6.997   7.120   0.358 -0.1420  0.1818 -0.2869
 4842poe    c2323536   6.856   7.141   0.417  0.1331 -0.1331  0.4916
 4842poe     o223537   6.786   7.237   0.342  0.1150  0.1679  0.8868
 4842poe    c2323538   6.660   7.239   0.404 -0.3500 -0.2176 -0.0179
 4842poe    c2323539   6.594   7.377   0.389  0.0548  0.0273  0.4286
 4842poe     o223540   6.681   7.484   0.421 -0.1081  0.2205  0.2340
 4842poe    c2323541   6.654   7.542   0.547  0.0063  0.1416  0.2954
 4842poe    c2323542   6.754   7.656   0.572  0.2164 -0.0146  0.1701
 4842poe     o223543   6.876   7.601   0.616  0.0092 -0.0643  0.6853
 4842poe    c3123544   6.961   7.695   0.678 -0.3090  0.7353 -0.0666
 4843poe    c3123545   5.917   0.144   0.108  0.2026  0.6004 -0.3516
 4843poe     o223546   5.782   0.180   0.095  0.0915  0.1843 -0.3553
 4843poe    c2323547   5.727   0.225   0.217  0.2679 -0.6044  0.0224
 4843poe    c2323548   5.648   0.354   0.188  0.4175 -0.4745  0.1892
 4843poe     o223549   5.538   0.321   0.105 -0.0730  0.1298  0.5889
 4843poe    c2323550   5.461   0.436   0.078 -0.6291 -0.2723  0.4548
 4843poe    c2323551   5.367   0.416  -0.042  0.3773 -0.1303 -0.3687
 4843poe     o223552   5.268   0.317  -0.029 -0.0018  0.2756 -0.1365
 4843poe    c2323553   5.235   0.287  -0.163 -0.0298 -0.2470 -0.0162
 4843poe    c2323554   5.116   0.192  -0.182 -0.5931  0.3337  0.5195
 4843poe     o223555   5.149   0.056  -0.196  0.1248  0.5404  0.1625
 4843poe    c3123556   5.029  -0.013  -0.172  0.2812  0.2438  0.1113
 4844poe    c3123557   6.853   6.828   7.139  0.4119  0.1769  0.4434
 4844poe     o223558   6.875   6.943   7.217  0.1864  0.8002 -0.3959
 4844poe    c2323559   7.009   6.984   7.228  0.4193 -0.0582  0.0459
 4844poe    c2323560   7.090   6.899   7.327  0.6063  0.0167 -0.0424
 4844poe     o223561   7.082   6.936   7.463  0.2179 -0.2021 -0.0051
 4844poe    c2323562   7.162   6.854   7.544  0.5565 -0.0776 -0.2115
 4844poe    c2323563   7.193   6.894   7.690  0.2492  0.0869 -0.1916
 4844poe     o223564   7.278   7.003   7.715  0.3594 -0.0098 -0.1469
 4844poe    c2323565   7.414   6.976   7.687  0.3433 -0.2001 -0.0396
 4844poe    c2323566   7.476   7.066   7.579  0.3906  0.2087  0.3252
 4844poe     o223567   7.507   7.199   7.614 -0.2807  0.4245  0.1128
 4844poe    c3123568   7.610   7.242   7.528  0.1971  0.1564  0.5432
 4845poe    c3123569   5.762   6.424   0.442  0.1138 -0.5666  0.4433
 4845poe     o223570   5.872   6.485   0.506  0.0497 -0.0869  0.1021
 4845poe    c2323571   5.832   6.613   0.548  0.5503 -0.0324  0.4189
 4845poe    c2323572   5.878   6.622   0.694 -0.8375  0.1827  0.8567
 4845poe     o223573   6.012   6.591   0.726 -0.8169 -0.6375  0.0170
 4845poe    c2323574   6.035   6.575   0.865 -0.4921  0.7272  0.1312
 4845poe    c2323575   6.186   6.594   0.885 -0.2452 -0.6795 -0.2968
 4845poe     o223576   6.263   6.539   0.781 -0.1327  0.0756 -0.6159
 4845poe    c2323577   6.401   6.561   0.800 -0.1070  0.0352 -0.7557
 4845poe    c2323578   6.478   6.497   0.683  0.5345 -0.3547 -0.1276
 4845poe     o223579   6.397   6.530   0.573  0.5463  0.1354  0.0106
 4845poe    c3123580   6.467   6.489   0.457  0.4171  0.2452 -0.1077
 4846poe    c3123581   6.125   6.960   2.212  0.1416 -0.3887  0.4172
 4846poe     o223582   6.196   7.082   2.223  0.3699 -0.4456 -0.3471
 4846poe    c2323583   6.213   7.148   2.100  0.2694 -0.2769 -0.2703
 4846poe    c2323584   6.359   7.154   2.052  0.2720 -0.3514 -0.2707
 4846poe     o223585   6.438   7.217   2.150 -0.0447  0.6369 -0.6406
 4846poe    c2323586   6.574   7.246   2.124  0.1187  0.1652 -0.3089
 4846poe    c2323587   6.609   7.365   2.214  0.3236 -0.0345 -0.1227
 4846poe     o223588   6.603   7.350   2.354  0.5636  0.5120 -0.0487
 4846poe    c2323589   6.591   7.477   2.412  0.3624  0.5305 -0.1329
 4846poe    c2323590   6.608   7.491   2.565  0.1892  0.3978 -0.1011
 4846poe     o223591   6.503   7.454   2.652  0.2687 -0.4268 -0.3509
 4846poe    c3123592   6.530   7.489   2.786 -0.4902 -0.2416 -0.2429
 4847poe    c3123593   2.923   6.777   5.359  0.6656 -0.0179 -0.0775
 4847poe     o223594   2.884   6.795   5.225  0.6452 -0.4955 -0.1364
 4847poe    c2323595   2.990   6.740   5.151  1.0385  0.4541 -0.2893
 4847poe    c2323596   2.941   6.772   5.008 -0.9649  0.3125  0.3447
 4847poe     o223597   2.809   6.722   4.993 -0.7483 -0.0481 -0.3965
 4847poe    c2323598   2.780   6.724   4.855  0.0495 -0.3594 -0.5748
 4847poe    c2323599   2.633   6.689   4.828 -0.1224 -0.4068  0.3972
 4847poe     o223600   2.550   6.800   4.854 -0.6439 -0.5183 -0.7444
 4847poe    c2323601   2.427   6.749   4.900 -0.5178  0.1880  0.4039
 4847poe    c2323602   2.337   6.870   4.936 -0.2571  0.5742 -0.2325
 4847poe     o223603   2.406   6.951   5.028 -0.5052 -0.3407  0.7834
 4847poe    c3123604   2.326   7.065   5.049 -0.4582 -0.0736 -0.4177
 4848poe    c3123605   3.202   6.227   4.557  0.0763 -0.7393  0.9816
 4848poe     o223606   3.080   6.172   4.512  0.0714  0.3824 -0.4163
 4848poe    c2323607   3.036   6.231   4.392 -0.3459  0.8684 -0.0261
 4848poe    c2323608   3.112   6.201   4.261 -0.4188 -0.1537  0.1576
 4848poe     o223609   3.113   6.069   4.212  0.2421  0.0084 -0.2758
 4848poe    c2323610   3.191   6.040   4.098  0.6499 -0.3225  0.0858
 4848poe    c2323611   3.210   5.890   4.068 -0.0666 -0.3714 -0.1380
 4848poe     o223612   3.085   5.831   4.039 -0.3380 -0.0181  0.2980
 4848poe    c2323613   3.104   5.697   4.001 -0.1730  0.1178 -0.0976
 4848poe    c2323614   2.964   5.633   4.009 -0.0881 -0.0047  0.4047
 4848poe     o223615   2.862   5.683   3.925 -0.1201 -0.3974  0.2085
 4848poe    c3123616   2.762   5.589   3.892 -0.4138 -0.0033 -0.0232
 4849poe    c3123617   7.041   3.130   6.577  0.3869  0.2315  0.2526
 4849poe     o223618   6.911   3.178   6.603  0.4077  0.1924  0.4314
 4849poe    c2323619   6.917   3.259   6.718  0.2700 -0.0740  0.6257
 4849poe    c2323620   6.806   3.365   6.731 -0.3795 -0.5079 -1.0920
 4849poe     o223621   6.805   3.465   6.632 -0.1518  0.5212 -0.0800
 4849poe    c2323622   6.752   3.581   6.693 -0.1572  0.4009  0.1419
 4849poe    c2323623   6.718   3.691   6.591  0.3152  0.1167 -0.3244
 4849poe     o223624   6.582   3.688   6.556  0.2519  0.1707 -0.0822
 4849poe    c2323625   6.547   3.772   6.448  0.4177  0.5573  0.1611
 4849poe    c2323626   6.404   3.829   6.451  0.1088 -0.1939 -0.0461
 4849poe     o223627   6.301   3.732   6.453 -0.1734  0.0989 -0.1802
 4849poe    c3123628   6.203   3.783   6.540 -0.2626  0.1109 -0.2882
 4850poe    c3123629   0.555   2.701   2.901 -0.2142  0.1675  0.0338
 4850poe     o223630   0.614   2.793   2.991 -0.2386  0.2564 -0.0407
 4850poe    c2323631   0.706   2.880   2.929  0.2446 -0.0704  0.2123
 4850poe    c2323632   0.741   3.002   3.015 -0.4448  0.4295 -0.2068
 4850poe     o223633   0.650   3.109   2.998 -0.3612  0.5396  0.0321
 4850poe    c2323634   0.647   3.198   3.107 -0.2541  0.5621  0.0171
 4850poe    c2323635   0.515   3.261   3.155 -0.4745  0.2605 -0.1931
 4850poe     o223636   0.418   3.161   3.176  0.1032 -0.1993  0.3435
 4850poe    c2323637   0.302   3.219   3.233 -0.2116 -0.4064 -0.0746
 4850poe    c2323638   0.174   3.134   3.236 -0.4659 -0.0270 -0.2196
 4850poe     o223639   0.189   3.018   3.314 -0.5364  0.2833  0.2614
 4850poe    c3123640   0.097   2.919   3.275 -0.4567  0.4188 -0.2765
 4851poe    c3123641   7.453   2.286   7.085  0.5828  0.1613 -0.0304
 4851poe     o223642   7.503   2.410   7.039  0.0527  0.2506 -0.3695
 4851poe    c2323643   7.438   2.444   6.918  0.3861 -0.4476 -0.7489
 4851poe    c2323644   7.505   2.564   6.849  0.2050 -0.1162 -0.3533
 4851poe     o223645   7.542   2.653   6.951  0.1402  0.0038 -0.4347
 4851poe    c2323646   7.595   2.762   6.879 -0.2920  0.3074 -0.2977
 4851poe    c2323647   7.635   2.882   6.966  0.5253 -0.1913  0.0302
 4851poe     o223648   7.733   2.848   7.061 -0.0479 -0.6180  0.4693
 4851poe    c2323649   7.727   2.924   7.180  0.2682  0.5240 -0.2359
 4851poe    c2323650   7.835   2.874   7.278 -0.2194 -0.0094  0.0358
 4851poe     o223651   7.971   2.881   7.242 -0.1921 -0.1451  0.1146
 4851poe    c3123652   8.039   2.791   7.328  1.0322  0.0128 -0.6588
 4852poe    c3123653   3.025   1.087   5.110  0.0855  0.2452 -0.0089
 4852poe     o223654   3.135   0.999   5.120  0.3466  0.5850  0.1267
 4852poe    c2323655   3.182   0.967   4.991 -0.1019 -0.1342  0.1369
 4852poe    c2323656   3.267   0.839   5.008 -0.4059 -0.2920  0.5067
 4852poe     o223657   3.386   0.847   5.083  0.1001  0.0046 -0.3062
 4852poe    c2323658   3.470   0.735   5.065 -0.2290 -0.3188  0.1435
 4852poe    c2323659   3.578   0.730   5.174 -0.2622 -0.4492  0.1704
 4852poe     o223660   3.529   0.704   5.304 -0.1425 -0.2870  0.2490
 4852poe    c2323661   3.619   0.738   5.408 -0.0599 -0.5607  0.2671
 4852poe    c2323662   3.572   0.707   5.551  0.0225  0.0627  0.4271
 4852poe     o223663   3.460   0.791   5.571 -0.3694 -0.3446 -0.0379
 4852poe    c3123664   3.399   0.785   5.698 -0.4015  0.1769 -0.0290
 4853poe    c3123665   4.419   0.857   0.873 -0.4029  0.0495 -0.4217
 4853poe     o223666   4.474   0.737   0.824  0.2099  0.3231 -0.4069
 4853poe    c2323667   4.443   0.653   0.933  0.4564  0.2109 -0.4223
 4853poe    c2323668   4.523   0.521   0.929  0.1590  0.0183 -0.1386
 4853poe     o223669   4.487   0.473   0.801 -0.0484 -0.2151  0.0083
 4853poe    c2323670   4.585   0.378   0.765  0.2965  0.0501  0.2338
 4853poe    c2323671   4.546   0.334   0.622  0.1077  0.0084  0.2969
 4853poe     o223672   4.522   0.449   0.543  0.1456  0.0715  0.3770
 4853poe    c2323673   4.495   0.412   0.410 -1.0031  0.5565  0.4636
 4853poe    c2323674   4.519   0.527   0.310  0.8526 -0.1847  0.0083
 4853poe     o223675   4.430   0.630   0.347  0.3576 -0.3716 -0.6488
 4853poe    c3123676   4.449   0.734   0.254  0.6903  0.4640  0.3442
 4854poe    c3123677   5.296   1.813   4.118  0.1997 -0.1764 -0.5731
 4854poe     o223678   5.162   1.773   4.139  0.0543  0.6397  0.1271
 4854poe    c2323679   5.110   1.683   4.044  0.2468 -0.4243  1.0169
 4854poe    c2323680   4.958   1.660   4.051  0.0299  0.5298 -0.2972
 4854poe     o223681   4.915   1.618   4.178 -0.1910  0.1192 -0.5048
 4854poe    c2323682   4.775   1.621   4.198 -0.1097  0.1292  0.0823
 4854poe    c2323683   4.740   1.567   4.338 -0.1260 -0.0010  0.0289
 4854poe     o223684   4.790   1.630   4.454  0.6145  0.1662 -0.3742
 4854poe    c2323685   4.745   1.760   4.485  0.0677 -0.2090  0.4437
 4854poe    c2323686   4.648   1.770   4.604  0.1752 -0.3262  0.5404
 4854poe     o223687   4.710   1.853   4.700  0.4107  0.1479 -0.0235
 4854poe    c3123688   4.659   1.835   4.830  0.8532  0.1458  0.1533
 4855poe    c3123689   1.821   1.159   3.350 -0.1157 -0.1923  0.2991
 4855poe     o223690   1.881   1.286   3.336 -0.4256  0.0134  0.8004
 4855poe    c2323691   2.013   1.308   3.380 -0.0138 -0.5282 -0.1286
 4855poe    c2323692   2.065   1.443   3.327 -0.0835 -0.6166 -0.4224
 4855poe     o223693   1.999   1.555   3.380  0.6959 -0.1068 -0.5085
 4855poe    c2323694   2.031   1.682   3.328  0.9253  0.0949  0.1142
 4855poe    c2323695   2.005   1.718   3.181 -0.1122  0.6362  0.4208
 4855poe     o223696   1.867   1.700   3.155  0.0338  0.2320 -0.1064
 4855poe    c2323697   1.841   1.569   3.111 -0.2676  0.2936 -0.1118
 4855poe    c2323698   1.707   1.504   3.154 -0.1100 -0.1059 -0.2167
 4855poe     o223699   1.584   1.566   3.124 -0.0477  0.3578  0.4763
 4855poe    c3123700   1.474   1.481   3.146 -0.0483  0.1536 -0.3108
 4856poe    c3123701   6.869   6.589   4.365  0.5351 -0.3057  0.0880
 4856poe     o223702   6.865   6.634   4.499  0.3726  0.3944 -0.1491
 4856poe    c2323703   6.868   6.519   4.580  0.2176  0.5912  0.1385
 4856poe    c2323704   6.987   6.519   4.677  0.4181  0.5207 -0.1071
 4856poe     o223705   6.977   6.641   4.747  0.4387  0.2841  0.3114
 4856poe    c2323706   7.056   6.657   4.862  0.9120 -0.3577  0.0879
 4856poe    c2323707   7.049   6.545   4.967 -0.3226 -0.3234  0.0554
 4856poe     o223708   6.921   6.524   5.021 -0.7913 -0.2730 -1.0141
 4856poe    c2323709   6.927   6.425   5.121  0.5098  0.3178 -0.4878
 4856poe    c2323710   6.836   6.311   5.071  0.5662 -0.1983  0.5612
 4856poe     o223711   6.709   6.369   5.087  0.2784 -0.3932 -0.9231
 4856poe    c3123712   6.606   6.278   5.055 -0.2450  0.0483 -0.4947
 4857poe    c3123713   5.291   4.051   3.736  0.4962 -0.6370  0.5074
 4857poe     o223714   5.326   4.045   3.599  0.2148  0.2188  0.3862
 4857poe    c2323715   5.377   4.167   3.551 -0.0730  0.0752 -0.2862
 4857poe    c2323716   5.451   4.163   3.416 -0.2203  0.2352 -0.3729
 4857poe     o223717   5.380   4.081   3.326 -0.2495  0.0615 -0.1939
 4857poe    c2323718   5.451   4.037   3.212  0.5746  0.0649  0.3103
 4857poe    c2323719   5.397   3.921   3.126  0.1448 -0.1628  0.8754
 4857poe     o223720   5.423   3.800   3.195  0.1966 -0.5106  0.2582
 4857poe    c2323721   5.378   3.691   3.118  0.8317 -0.3206 -0.3836
 4857poe    c2323722   5.399   3.557   3.190 -0.5275 -0.4464 -0.1915
 4857poe     o223723   5.528   3.538   3.243 -0.4055 -0.0627 -0.3444
 4857poe    c3123724   5.641   3.561   3.161  0.1559  0.3556  0.5221
 4858poe    c3123725   3.284   2.433   1.838 -0.0341 -0.4323  0.2128
 4858poe     o223726   3.331   2.502   1.724  0.5895 -0.6948  0.3083
 4858poe    c2323727   3.468   2.485   1.694  0.4552 -0.1338 -0.6522
 4858poe    c2323728   3.510   2.584   1.583  0.0304  0.8089  0.0147
 4858poe     o223729   3.549   2.713   1.623  0.7740  0.4758  0.3916
 4858poe    c2323730   3.568   2.775   1.497  0.1561 -0.3152 -0.1025
 4858poe    c2323731   3.544   2.923   1.533 -0.0819 -0.3301 -0.1993
 4858poe     o223732   3.644   3.004   1.591 -0.2013 -0.1762 -0.2113
 4858poe    c2323733   3.751   3.044   1.509 -0.0770  0.0142  0.0410
 4858poe    c2323734   3.848   3.135   1.586 -0.4516  0.2987  0.1775
 4858poe     o223735   3.870   3.060   1.703  0.4656 -0.3796 -0.4140
 4858poe    c3123736   4.005   3.084   1.737  0.1714 -0.0882  0.5779
 4859poe    c3123737   3.660   0.167   1.159  0.2939  0.3444 -0.1050
 4859poe     o223738   3.560   0.082   1.110  0.5566 -0.0073 -0.0385
 4859poe    c2323739   3.547  -0.044   1.173 -0.0983  0.0237 -0.1045
 4859poe    c2323740   3.446  -0.030   1.289  0.0122 -0.0852  0.0045
 4859poe     o223741   3.313  -0.019   1.246 -0.0499 -0.6141  0.0576
 4859poe    c2323742   3.221  -0.101   1.314 -0.8453  0.0345 -0.2134
 4859poe    c2323743   3.113  -0.016   1.384 -0.5300  0.1061  0.1881
 4859poe     o223744   3.014  -0.092   1.450 -0.1757 -0.1040  0.4866
 4859poe    c2323745   2.912  -0.006   1.498 -0.6290 -0.3539 -0.0178
 4859poe    c2323746   2.803  -0.060   1.593 -1.0890  0.4171 -0.1031
 4859poe     o223747   2.836  -0.084   1.728 -0.3314 -0.0506 -0.3632
 4859poe    c3123748   2.814   0.028   1.811 -0.0064 -0.1111 -0.1932
 4860poe    c3123749   0.064   1.010   5.409 -0.3445  0.4098  0.0220
 4860poe     o223750   0.162   1.070   5.326  0.1884 -0.1301  0.2531
 4860poe    c2323751   0.194   1.193   5.386  0.1911 -0.0583  0.1042
 4860poe    c2323752   0.266   1.286   5.287 -0.0432 -0.4479 -0.4380
 4860poe     o223753   0.405   1.267   5.299 -0.0568 -0.0747  0.3798
 4860poe    c2323754   0.480   1.376   5.251 -0.3433 -0.0103  0.0807
 4860poe    c2323755   0.506   1.379   5.099  0.1177 -0.2494  0.1551
 4860poe     o223756   0.632   1.318   5.079 -0.0105 -0.4370 -0.0841
 4860poe    c2323757   0.670   1.313   4.943  0.3816 -0.2817  0.0190
 4860poe    c2323758   0.795   1.230   4.909 -0.0037 -0.5784 -0.6995
 4860poe     o223759   0.916   1.294   4.942 -0.1653 -0.6338  0.0158
 4860poe    c3123760   1.025   1.233   4.875  0.0579 -0.0318 -0.1771
 4861lim     li23761   5.026   3.010   0.866 -1.2706 -1.3298  0.4166
 4862lim     li23762   5.741   5.353   5.268  0.2441  0.4148  0.7617
 4863lim     li23763   0.965   6.557   4.751  0.4711  0.6456 -0.6847
 4864lim     li23764   3.061   7.329   3.275 -0.1756 -0.2443  0.3884
 4865lim     li23765   2.737   4.186   6.919 -0.8664 -1.3679 -0.8471
 4866lim     li23766   4.560   6.417   6.548 -0.0340  0.2642  0.2873
 4867lim     li23767   0.824   2.295   0.191 -0.5545  0.4887 -0.2314
 4868lim     li23768   3.605   1.127   0.291 -1.6562  0.0540  0.8751
 4869lim     li23769   7.572   3.903   2.320  1.1877  0.2068 -0.8354
 4870lim     li23770   0.290   3.805   7.480 -0.0774 -0.0834 -0.6962
 4871lim     li23771   7.305   5.019   4.300  0.1758  0.4111 -0.6322
 4872lim     li23772   5.619   1.224   5.576 -0.0771 -0.8812  0.0042
 4873lim     li23773   1.903   2.461   0.827  0.4796 -0.0033  0.2815
 4874lim     li23774   6.897   3.224   3.411  0.1122 -0.6320 -1.0555
 4875lim     li23775   2.920   1.000   2.806  0.4842 -0.4227 -0.0068
 4876lim     li23776   2.373   6.809   7.084  0.0339 -0.7036  0.0402
 4877lim     li23777   0.552   6.800   2.935 -0.2514  0.3361  0.8142
 4878lim     li23778   0.485   5.058   4.880  0.1262 -0.0666 -0.2292
 4879lim     li23779   4.122   2.001   1.954 -0.7126  0.7831  0.9356
 4880lim     li23780   4.017   2.490   5.858  1.2516  0.1255 -0.1486
 4881lim     li23781   2.262   7.604   1.734  0.4392  0.0944 -0.1945
 4882lim     li23782   3.912   4.296   0.381  1.0939  0.4040  0.9586
 4883lim     li23783   3.791   1.369   3.756 -0.9235 -1.5744 -0.1075
 4884lim     li23784   2.170   2.501   2.098  0.7028 -0.3944  0.6594
 4885lim     li23785   1.198   2.009   3.852  1.3262 -0.7913  0.1461
 4886lim     li23786   1.622   5.344   4.262 -0.8805 -2.1405 -0.9212
 4887lim     li23787   6.636   3.870   0.458  0.4912  0.4569  0.2734
 4888lim     li23788   4.945   3.745   3.873 -0.1727  0.3609  0.1253
 4889lim     li23789   1.345   5.812   4.912  0.3147 -0.6883 -0.5248
 4890lim     li23790   0.696   4.564   6.047 -1.3095 -0.3001 -0.7483
 4891lim     li23791   1.016   2.200   6.627 -0.4283 -0.7794  0.1406
 4892lim     li23792   6.541   2.015   7.407  0.5614 -1.0082 -0.1870
 4893lim     li23793   0.538   6.837   4.234 -0.2957  1.6635  0.7525
 4894lim     li23794   4.578   0.470   2.485  1.0819  1.2612 -0.6512
 4895lim     li23795   4.062   6.235   6.842 -0.8814 -0.5923 -0.0674
 4896lim     li23796   4.837   1.892   3.405 -0.5422 -0.7092  0.5268
 4897lim     li23797   5.840   4.617   2.875  0.3262  0.7917 -0.2997
 4898lim     li23798   5.993   0.665   6.914  1.0028 -0.0549 -1.0356
 4899lim     li23799   1.969   0.385   7.082 -0.1741 -0.0607  0.0696
 4900lim     li23800   1.475   0.383   5.901  1.7704 -0.9779 -1.3503
 4901lim     li23801   6.681   3.471   3.934  1.0363 -1.2342 -0.0082
 4902lim     li23802   0.251   4.871   7.311 -0.3295  0.0506  0.2159
 4903lim     li23803   5.948   6.130   3.337 -0.7283 -1.6791  0.7774
 4904lim     li23804   6.892   1.500   0.367  0.4063 -0.8119 -0.2116
 4905lim     li23805   5.216   0.321   5.007  0.7646 -0.0643  0.2793
 4906lim     li23806   5.847   0.610   2.702 -0.2196 -0.5524 -0.8787
 4907lim     li23807   4.672   1.204   6.073 -0.4794 -1.0223  0.4225
 4908lim     li23808   3.635   3.609   1.422 -0.1515 -0.8824  0.9512
 4909lim     li23809   5.557   7.282   4.220 -0.2434  0.2125  0.3781
 4910lim     li23810   0.071   3.010   5.534 -0.5244 -0.3619  0.4126
 4911lim     li23811   6.764   1.295   1.950  0.4227 -0.3096  1.1188
 4912lim     li23812   0.179   6.163   6.870 -0.0325  0.2095  0.1123
 4913lim     li23813   1.770   1.332   1.583 -0.0232  0.5898 -1.1036
 4914lim     li23814   4.087   4.560   2.021 -0.2717  0.2023  0.4747
 4915lim     li23815   6.254   3.403   4.391  0.6901 -0.1323 -0.2301
 4916lim     li23816   7.107   3.759   7.458 -0.4556 -0.2152  0.1350
 4917lim     li23817   1.363   3.522   5.604  1.0114  0.0490 -0.2840
 4918lim     li23818   4.156   5.350   0.694 -0.1946  0.9993 -0.0961
 4919lim     li23819   4.966   0.941   3.414 -1.2380  0.0992 -0.6931
 4920lim     li23820   7.223   3.124   1.793  0.1734  0.6393 -0.0900
 4921lim     li23821   3.417   3.059   3.724 -0.1397  0.1771 -1.0681
 4922lim     li23822   2.410   0.913   4.148 -1.2515 -0.6314  0.3316
 4923lim     li23823   7.027   4.868   7.558 -0.1186  0.5411 -0.7492
 4924lim     li23824   1.249   5.056   7.471  0.5210 -0.5429  0.3487
 4925lim     li23825   0.347   2.947   2.497  0.9503 -0.1662 -0.0450
 4926lim     li23826   1.728   5.397   5.348 -0.8339 -0.0460  0.3117
 4927lim     li23827   6.095   3.037   6.083 -1.5562 -0.0398 -0.9354
 4928lim     li23828   2.677   3.247   4.256  0.6570 -0.9575 -0.6259
 4929lim     li23829   0.345   0.929   3.362 -0.1748  0.0234 -0.6038
 4930lim     li23830   1.438   2.722   2.146 -0.2778  0.3768  0.8680
 4931lim     li23831   5.382   6.711   7.411  0.2029 -0.9029 -0.3299
 4932lim     li23832   4.262   0.801   1.582  0.7067  0.1157 -0.3381
 4933lim     li23833   4.177   7.521   5.012  0.6176  0.7678 -0.7539
 4934lim     li23834   4.948   1.783   1.156 -0.1558 -0.4873 -0.0522
 4935lim     li23835   7.092   5.036   5.002 -0.0999 -0.9248 -0.5261
 4936lim     li23836   1.087   0.327   3.259 -0.7396 -0.4637 -0.1785
 4937lim     li23837   4.596   4.438   7.479 -0.4351  0.4940  0.2459
 4938lim     li23838   6.029   4.379   5.763  0.3488  0.5383 -0.8588
 4939lim     li23839   1.978   7.328   3.354  0.2678  0.5365 -0.5221
 4940lim     li23840   5.738   4.526   5.072 -0.1203  0.6141 -1.2143
 4941lim     li23841   6.310   0.544   1.618 -0.3007  0.3209 -0.4088
 4942lim     li23842   5.202   0.839   3.994 -0.6106  0.3067  0.4106
 4943lim     li23843   1.801   6.327   2.295 -0.4597  0.1979 -0.2059
 4944lim     li23844   6.441   3.342   6.667 -0.1428  0.5941  0.0247
 4945lim     li23845   3.636   0.968   6.748  0.8067  0.5165  0.9939
 4946lim     li23846   0.232   5.187   0.979  0.8001 -0.2173  0.9733
 4947lim     li23847   4.194   3.546   2.366 -0.6062  0.9906  0.7301
 4948lim     li23848   1.857   6.205   5.649 -0.4031  1.1176  1.1526
 4949lim     li23849   6.893   4.339   0.616 -1.3850 -0.9968 -1.2643
 4950lim     li23850   3.909   5.862   2.699  0.2952  0.2363  0.5564
 4951lim     li23851   1.500   1.937   5.265 -1.1760 -1.0061 -0.1559
 4952lim     li23852   1.738   1.392   6.284 -0.4473 -0.5556 -0.6943
 4953lim     li23853   0.015   5.473   3.594  0.9614  0.0915  0.4454
 4954lim     li23854   1.328   5.647   6.031 -0.5066  0.8953  0.3133
 4955lim     li23855   1.635   2.990   6.780  1.8876  0.1870  0.1797
 4956lim     li23856   5.785   6.866   6.797  1.5695  0.5045  0.0055
 4957lim     li23857   4.240   5.696   5.110 -1.2534 -0.9381  0.3105
 4958lim     li23858   6.479   0.037   7.249  0.3496 -0.0637 -0.1892
 4959lim     li23859   2.842   2.701   6.381  1.2940 -0.7383 -1.1724
 4960lim     li23860   7.143   5.746   4.441  0.5677  0.1309  1.7666
 4961lim     li23861   4.791   3.922   4.980  0.0487 -0.2300  0.3929
 4962lim     li23862   3.824   1.199   4.940 -0.6040  1.4648 -0.0563
 4963lim     li23863   2.032   4.698   4.632  0.5392 -0.7706  0.8624
 4964lim     li23864   4.982   1.385   2.750  0.1838 -1.6073 -0.0588
 4965lim     li23865   4.133   5.141   3.434 -0.4628  0.2983 -0.7530
 4966lim     li23866   3.240   6.143   6.182  0.1317 -1.0142  0.7275
 4967lim     li23867   3.609   6.668   3.402  0.2584 -0.7541 -1.0225
 4968lim     li23868   4.261   7.230   0.031  0.2746  1.1413  0.1178
 4969lim     li23869   4.507   0.603   5.377  0.1913  0.8501  0.4730
 4970lim     li23870   5.260   6.078   5.211 -1.2057 -0.6767  0.7915
 4971lim     li23871   0.653   2.350   7.179 -0.0759  1.3906  0.1458
 4972lim     li23872   3.546   6.345   0.523 -0.9805 -0.2989 -0.3091
 4973lim     li23873   1.395   7.614   1.090  0.1898 -0.7281 -0.2100
 4974lim     li23874   3.779   7.465   1.569 -0.3691  0.0518  0.3353
 4975lim     li23875   4.813   7.085   3.524 -1.0131  1.1233  0.1523
 4976lim     li23876   0.897   5.072   0.696  0.2235 -0.9973  0.6068
 4977lim     li23877   1.101   0.410   4.549  0.6782  0.2153 -1.0903
 4978lim     li23878   6.261   0.656   4.387  0.2333 -0.1151 -0.4160
 4979lim     li23879   3.070   2.680   1.470  1.7594  0.5662 -0.1143
 4980lim     li23880   0.765   5.629   4.217  0.3420 -1.0095 -1.1574
 4981lim     li23881   3.922   6.999   7.413  0.5799 -0.0117  0.3598
 4982lim     li23882   5.285   7.619   0.467 -0.1809 -0.3125 -0.4053
 4983lim     li23883   0.491   5.092   6.585  0.5864 -1.0962  0.7831
 4984lim     li23884   0.737   6.708   0.396  1.0221  0.3472 -0.8404
 4985lim     li23885   3.307   4.139   3.684 -0.7166 -0.7295 -0.0110
 4986lim     li23886   5.810   0.447   0.850 -0.4165 -0.7135  0.6619
 4987lim     li23887   0.418   1.170   7.062 -1.1343 -0.9808 -0.9117
 4988lim     li23888   1.780   0.948   5.660 -0.7987  0.0617 -0.2926
 4989lim     li23889   2.030   1.231   2.352 -0.2271  0.1082  0.6860
 4990lim     li23890   6.506   5.375   6.160  0.3976  0.3326  0.0016
 4991lim     li23891   0.633   2.283   6.118 -0.7255 -1.0613  0.1752
 4992lim     li23892   1.774   0.092   4.421  0.1728  0.5537  0.2443
 4993lim     li23893   4.481   5.301   6.037  0.5397  0.0347  0.1000
 4994lim     li23894   2.767   6.582   2.807 -0.8786  1.1907  0.3372
 4995lim     li23895   2.543   2.393   4.568 -0.2889  0.3232 -0.1746
 4996lim     li23896   2.463   4.331   1.049 -0.1189  0.9076 -0.1088
 4997lim     li23897   4.681   7.161   5.918 -0.4807  0.3865  1.0429
 4998lim     li23898   2.734   6.781   5.136  0.0754  0.1567  0.2038
 4999lim     li23899   3.290   0.439   1.236  0.1797  0.4631 -0.6861
 5000lim     li23900   4.069   7.510   6.824 -1.5111 -1.2743 -1.2615
 5001lim     li23901   3.201   5.820   2.046 -0.6454  1.4051 -0.7286
 5002lim     li23902   6.607   1.447   5.355  0.6394  0.3907  0.3456
 5003lim     li23903   2.978   5.215   7.253 -0.2269  0.2085  0.3292
 5004lim     li23904   1.644   2.144   7.575 -0.0873 -0.9642 -1.5573
 5005lim     li23905   0.376   2.843   0.929  0.8521 -0.2276  1.3210
 5006lim     li23906   2.386   0.351   7.387 -0.1204  0.2809 -0.7006
 5007lim     li23907   3.568   3.293   5.539  0.8677  0.1431  0.3260
 5008lim     li23908   2.348   7.133   6.450 -0.4192  0.3654  0.6591
 5009lim     li23909   2.830   0.594   5.736  0.7639 -0.1139  0.2646
 5010lim     li23910   4.910   6.006   6.711  0.9695 -0.0050 -1.2112
 5011lim     li23911   4.202   0.758   6.602 -0.1375 -0.9701  0.9897
 5012lim     li23912   6.234   2.762   1.756  0.2263 -0.2099  0.0099
 5013lim     li23913   1.940   2.873   2.834  0.2227  0.8106 -0.4858
 5014lim     li23914   5.335   7.440   2.436 -0.2005 -0.0942  0.7649
 5015lim     li23915   5.586   5.846   6.135  0.5932 -0.2111  0.3395
 5016lim     li23916   4.501   0.197   3.974 -1.3031  0.3029  0.2413
 5017lim     li23917   3.185   7.226   5.808 -0.4486 -0.1441  0.2139
 5018lim     li23918   5.989   7.276   6.239 -0.7620  0.4543 -1.4168
 5019lim     li23919   6.398   3.844   5.109  0.3570 -0.5316 -1.0008
 5020lim     li23920   6.306   4.928   2.434  1.1203  0.3225 -0.9317
 5021lim     li23921   5.607   5.407   7.417  0.7023  0.5000 -0.2317
 5022lim     li23922   2.607   7.194   0.538  0.1388 -0.6213 -1.1500
 5023lim     li23923   3.740   2.950   1.828  0.1869 -0.0521 -0.4316
 5024lim     li23924   6.379   7.522   3.955  0.6242  0.5873 -0.4941
 5025lim     li23925   0.541   1.679   2.780 -0.5474  0.1652  0.9277
 5026lim     li23926   7.173   7.207   0.734  0.6885  0.8413  1.0187
 5027lim     li23927   5.829   2.525   7.521 -0.3376 -0.1475  0.4366
 5028lim     li23928   0.169   6.763   5.445  0.2851  0.1765  0.4752
 5029lim     li23929   0.366   7.228   6.984 -0.4677 -0.2670  0.4033
 5030lim     li23930   2.718   5.738   4.557 -0.2035  1.1947  0.9281
 5031lim     li23931   3.070   1.550   4.134 -0.3225  0.4408 -0.3896
 5032lim     li23932   2.684   0.103   0.266  0.2537  0.2161 -0.3483
 5033lim     li23933   4.189   3.154   4.154 -0.4687  0.9980 -0.2141
 5034lim     li23934   6.451   7.063   2.554  0.5712  0.1493 -0.9814
 5035lim     li23935   0.911   3.690   2.709  0.5644 -0.3291  0.5938
 5036lim     li23936   6.733   1.323   0.779  0.1360  0.5827  0.5920
 5037lim     li23937   1.045   0.576   1.275 -0.1878  0.6506 -0.0159
 5038lim     li23938   2.651   3.283   2.393  0.6418 -0.5094  0.6109
 5039lim     li23939   7.122   6.512   3.815  0.0335  1.3285  0.1119
 5040lim     li23940   3.722   4.765   2.688  0.3529  1.7750  0.4815
 5041lim     li23941   0.850   4.122   0.413  1.0531 -0.8730  0.4134
 5042lim     li23942   0.459   3.333   5.925 -0.7483 -0.0038  0.5708
 5043lim     li23943   2.968   3.850   2.396 -0.1863 -0.0052  1.1128
 5044lim     li23944   0.225   3.655   4.993 -0.4776 -0.3890  0.5999
 5045lim     li23945   1.672   3.609   1.358 -0.1576  0.3257 -0.2250
 5046lim     li23946   4.695   4.860   4.898  0.0458  0.6922 -0.3071
 5047lim     li23947   3.247   2.019   0.111  0.9380 -0.1136 -0.5321
 5048lim     li23948   1.822   6.323   3.385 -0.7982 -0.5408 -0.2221
 5049lim     li23949   3.897   1.853   5.826  0.0049 -0.2514 -0.3733
 5050lim     li23950   4.071   6.286   5.481 -0.6042 -0.8222 -1.3304
 5051lim     li23951   0.556   1.535   0.919 -1.1582  1.5106 -0.2347
 5052lim     li23952   2.912   5.153   3.925 -0.4206  0.7887  0.0515
 5053lim     li23953   2.320   7.374   5.281 -0.6400  1.0955 -0.2051
 5054lim     li23954   1.511   3.812   3.593 -0.2409  1.6777  0.2375
 5055lim     li23955   5.384   3.704   7.286  0.2487  0.3648 -0.3552
 5056lim     li23956   0.101   7.455   2.848 -0.4296  0.6809 -0.3646
 5057lim     li23957   4.655   3.130   6.215 -0.5357 -0.8490 -0.8061
 5058lim     li23958   1.398   5.859   1.014  0.2100  0.0002 -0.3151
 5059lim     li23959   0.159   2.307   1.858 -1.8969 -0.9082  0.0768
 5060lim     li23960   4.790   0.254   1.705 -0.2214 -0.2156 -0.0760
 5061lim     li23961   7.424   6.324   0.551  0.1522 -0.6146 -0.1784
 5062lim     li23962   7.247   1.393   2.661  0.5663  0.2683 -0.2494
 5063lim     li23963   3.106   2.171   2.176  0.7663 -0.7868 -0.3116
 5064lim     li23964   7.092   5.960   5.844  0.0237 -0.1862  0.6241
 5065lim     li23965   6.931   7.234   6.855  0.1789 -0.3059  1.2833
 5066lim     li23966   4.600   1.226   4.786  0.1524  0.9168  0.0877
 5067lim     li23967   5.336   2.405   2.159  0.5835  0.6492 -0.0398
 5068lim     li23968   2.259   0.612   3.180 -0.2611  0.2121  0.3971
 5069lim     li23969   3.540   3.577   2.804 -0.0536  1.1858 -1.2381
 5070lim     li23970   2.013   7.378   4.160  1.2517  0.1912 -0.0746
 5071lim     li23971   4.608   2.902   3.085 -0.0684 -0.4326  0.9588
 5072lim     li23972   4.747   0.146   6.991 -0.2119 -0.2127 -0.4062
 5073lim     li23973   6.781   2.409   6.368  0.4317 -1.3926 -0.7301
 5074lim     li23974   2.925   4.155   0.133  0.5182 -0.0377  0.4993
 5075lim     li23975   6.378   2.241   1.485 -0.2025 -0.9384 -0.3686
 5076lim     li23976   4.488   0.612   0.670  0.2199 -0.6237  0.0569
 5077lim     li23977   3.769   4.041   6.452 -0.3564 -0.5260 -0.0374
 5078lim     li23978   5.564   5.904   2.512 -0.9560  0.8907  0.0814
 5079lim     li23979   3.086   2.068   6.949 -0.1870  0.0929 -0.0650
 5080lim     li23980   0.843   6.438   5.697  0.2510  0.6123 -0.3459
 5081lim     li23981   2.078   6.917   2.758  0.4727  0.0217 -1.2583
 5082lim     li23982   2.327   3.268   7.196 -0.4100 -1.0002  1.0844
 5083lim     li23983   3.482   5.336   2.751 -0.0486 -0.3044 -0.0968
 5084lim     li23984   0.363   4.336   3.789 -0.5041  0.1629  1.0479
 5085lim     li23985   5.671   7.527   1.936 -0.5693 -0.1580 -1.1568
 5086lim     li23986   0.029   6.779   3.969 -0.7868  0.0206 -1.5963
 5087lim     li23987   6.028   2.132   6.100  0.6562  0.2011  0.0597
 5088lim     li23988   6.071   2.413   4.411  0.5930 -2.0314  0.1677
 5089lim     li23989   6.705   7.321   5.152  0.9353  0.6431 -0.4654
 5090lim     li23990   6.965   0.569   2.413  0.9091 -0.5920 -0.3209
 5091lim     li23991   2.713   5.190   0.425  0.4441  0.4654 -0.3953
 5092lim     li23992   3.398   4.579   6.895 -0.4080  0.2773 -0.0783
 5093lim     li23993   1.139   2.496   3.904  0.8931  0.2379 -0.9719
 5094lim     li23994   7.119   2.716   0.027  0.1672 -0.1210  0.4973
 5095lim     li23995   5.796   6.462   1.136 -0.5901  0.4040  0.6423
 5096lim     li23996   6.676   4.391   1.610 -0.3481 -0.3003  1.9779
 5097lim     li23997   5.968   5.591   6.681  0.1007 -0.6391  0.7922
 5098lim     li23998   2.375   5.652   3.072  1.3112  0.7974  0.8071
 5099lim     li23999   1.254   2.516   5.666 -0.1794  0.4964  0.3004
 5100lim     li24000   5.752   4.199   0.529 -0.2185 -0.4098  1.9713
 5101lim     li24001   5.947   4.341   3.735  0.3269 -0.1782 -0.7063
 5102lim     li24002   1.659   3.602   4.580 -0.8632  1.3296 -0.7158
 5103lim     li24003   4.882   4.313   1.127 -0.2056 -1.6268  0.5019
 5104lim     li24004   1.911   4.430   2.033 -1.5615 -0.2698 -0.2747
 5105lim     li24005   3.758   1.016   2.564  1.4645  1.2256  0.2529
 5106lim     li24006   5.372   4.951   3.238 -0.4417  0.2968  1.1368
 5107lim     li24007   2.861   1.203   2.168 -0.0849  0.9602  0.4815
 5108lim     li24008   4.006   1.763   0.507 -0.1607  0.5368  0.5615
 5109lim     li24009   4.059   4.243   1.405 -0.9691  0.9411 -0.3000
 5110lim     li24010   1.189   1.850   1.046  0.7964  0.2031  1.2467
 5111lim     li24011   5.177   4.421   7.593 -0.1716 -1.0855  1.3943
 5112lim     li24012   1.214   1.819   2.072  0.0295 -0.0075  0.2155
 5113lim     li24013   4.033   2.515   6.751 -0.7306 -0.1829  0.4150
 5114lim     li24014   7.185   0.542   4.899 -0.7711  0.0928 -0.0964
 5115lim     li24015   3.626   4.738   5.509 -0.5000  0.6971  0.5127
 5116lim     li24016   7.053   3.073   2.933 -0.7302 -0.4862 -0.3632
 5117lim     li24017   5.632   0.845   0.933  0.5522  0.7963  0.1145
 5118lim     li24018   5.225   1.331   7.309  0.4423 -0.3738 -0.6706
 5119lim     li24019   6.521   6.454   7.096  0.2050 -0.1108 -1.2510
 5120lim     li24020   0.472   4.410   2.035  0.7660  0.2845 -0.1353
 5121lim     li24021   4.596   2.822   5.029 -0.2327  0.6622  0.1437
 5122lim     li24022   7.112   7.486   3.968  0.8892 -0.6289 -0.3228
 5123lim     li24023   6.476   5.704   1.143 -1.0994  0.0995 -0.3895
 5124lim     li24024   4.417   7.069   1.508  0.1038  0.0499  1.5374
 5125lim     li24025   0.928   0.944   3.650  0.0731  1.4759  0.7491
 5126lim     li24026   7.483   1.485   1.594 -0.0291 -0.1150 -0.0976
 5127lim     li24027   1.101   2.125   4.760 -0.8981 -0.6047 -0.7302
 5128lim     li24028   5.311   5.969   2.970  0.4706 -0.3148 -0.9098
 5129lim     li24029   6.339   4.336   7.196  0.3744  0.1309  0.2565
 5130lim     li24030   5.034   4.946   5.539 -0.4976  0.0747 -0.2392
 5131lim     li24031   4.052   7.130   3.353 -0.5319  0.0126 -0.2153
 5132lim     li24032   6.730   5.129   6.867  0.1037  0.6172 -0.4772
 5133lim     li24033   0.607   3.587   0.346 -0.7258 -0.6926 -0.2321
 5134lim     li24034   0.022   2.039   3.574  0.1758 -0.2083  0.0178
 5135lim     li24035   1.738   2.954   3.353  0.7578  0.2794  0.2502
 5136lim     li24036   6.354   5.868   5.408 -0.8486  1.4166 -0.0450
 5137lim     li24037   3.139   5.658   4.885 -0.6404 -0.3302  0.9236
 5138lim     li24038   3.067   4.173   1.381 -0.2274 -0.4001  0.7732
 5139lim     li24039   1.176   0.077   6.354 -0.1624  0.2782 -0.5515
 5140lim     li24040   1.616   5.436   2.416  1.9637  0.3259  0.0011
 5141lim     li24041   3.310   4.451   4.352  0.6719 -0.0923  0.4416
 5142lim     li24042   3.635   1.438   1.403  0.1194  0.2696  2.9223
 5143lim     li24043   4.362   0.648   3.585 -0.0382 -1.0272 -0.0036
 5144lim     li24044   7.574   0.792   7.208 -0.3446  0.2446 -0.9165
 5145lim     li24045   6.322   3.738   2.525 -0.6906 -0.5525 -0.3320
 5146lim     li24046   6.759   2.036   6.829  0.3182 -0.2192 -0.2590
 5147lim     li24047   2.809   1.110   7.113 -1.2108 -0.7550  0.3374
 5148lim     li24048   1.756   3.523   2.780 -1.2038  0.4097 -0.6844
 5149lim     li24049   4.533   3.314   0.375  0.1728 -1.6967 -1.0860
 5150lim     li24050   0.639   6.764   6.172 -0.3359 -0.0438 -0.6148
 5151lim     li24051   6.822   7.267   7.638  0.3034 -0.2278  1.3001
 5152lim     li24052   1.118   4.229   2.071 -0.5206 -0.4206  0.2460
 5153lim     li24053   2.560   4.784   2.780  0.6786  0.2632  0.0189
 5154lim     li24054   7.053   2.151   2.925  0.0907  0.1529  0.5495
 5155lim     li24055   2.229   6.011   6.747 -0.3738 -1.0674  0.1721
 5156lim     li24056   1.875   1.366   0.634  0.5192  0.2314 -0.7115
 5157lim     li24057   6.189   6.548   0.611  0.2513  0.6822  0.7891
 5158lim     li24058   1.466   3.225   1.896 -0.8667  0.5920 -1.1636
 5159lim     li24059   1.600   4.951   2.963 -0.3849 -0.5855  0.7482
 5160lim     li24060   2.227   5.355   1.825  0.3801  0.1234  0.3160
 5161lim     li24061   4.991   2.209   6.526  0.2017  0.3410  0.4376
 5162lim     li24062   4.894   6.203   4.232 -0.8388 -1.5991  0.3960
 5163lim     li24063   0.021   1.311   4.067  0.5507  0.9540  1.1912
 5164lim     li24064   0.819   3.992   3.440  0.6461 -0.1456 -0.6346
 5165lim     li24065   5.416   6.661   2.134 -1.5690  0.9062  0.2719
 5166lim     li24066   6.103   7.179   3.256 -1.3788 -0.3127 -0.6090
 5167lim     li24067   3.930   5.721   4.226 -0.2058  0.6547 -0.7676
 5168lim     li24068   1.540   6.511   7.123  0.6733  0.2718 -0.0907
 5169lim     li24069   3.653   6.687   5.187  1.0093  0.0429  0.6770
 5170lim     li24070   6.678   3.484   1.492  0.7271 -1.0813 -1.1827
 5171lim     li24071   1.884   3.165   5.522 -0.2898  0.3563 -0.2043
 5172lim     li24072   3.303   1.396   2.011  0.1406 -0.1563  0.5237
 5173lim     li24073   7.464   6.674   1.278  0.1459  0.8308 -0.3901
 5174lim     li24074   4.251   3.687   5.504 -0.4097  0.1106 -0.1111
 5175lim     li24075   5.111   3.324   1.547  0.2815  1.0698 -0.9300
 5176lim     li24076   6.381   5.892   2.807 -0.4401  0.1686 -1.1788
 5177lim     li24077   2.910   2.700   5.282  0.2941 -0.4008 -0.9962
 5178lim     li24078   2.777   0.881   0.107 -1.8090  0.0919 -0.3589
 5179lim     li24079   3.075   0.903   6.354  0.2731 -0.0626  0.5909
 5180lim     li24080   5.244   3.068   2.561  0.4641  0.5521  0.2553
 5181lim     li24081   5.876   5.768   4.343 -0.2263  0.8369 -0.3857
 5182lim     li24082   0.948   6.728   3.849  1.3198 -0.0599  0.5531
 5183lim     li24083   3.826   4.838   1.014 -0.0276 -0.0316 -0.6386
 5184lim     li24084   5.287   1.264   6.055 -0.5087  0.0286 -0.9937
 5185lim     li24085   1.405   0.759   2.439 -0.4116  0.3483  0.5937
 5186lim     li24086   0.017   0.305   1.226 -0.1723  0.6383 -0.4044
 5187lim     li24087   6.760   5.113   1.335  0.7869 -0.4657 -0.4339
 5188lim     li24088   4.293   3.012   2.586 -0.5699  0.6693  0.5772
 5189lim     li24089   5.079   6.927   5.219  0.2652 -0.3421  0.9796
 5190lim     li24090   6.332   3.116   2.604 -0.3722  0.1576 -0.0603
 5191lim     li24091   3.823   2.258   3.008 -0.6471  0.4308  1.1222
 5192lim     li24092   1.436   7.448   5.111 -0.0110 -1.1871 -1.3697
 5193lim     li24093   0.616   4.370   1.187 -0.6506 -0.6324  0.5957
 5194lim     li24094   6.775   2.215   0.733 -0.7081  0.7537 -0.7323
 5195lim     li24095   7.104   3.839   4.903 -0.5496  0.3784 -0.3600
 5196lim     li24096   6.516   6.841   1.218 -0.1143 -0.6296  0.8974
 5197lim     li24097   2.050   4.702   3.923  0.9069 -0.1745  0.0073
 5198lim     li24098   4.302   3.992   3.458  0.6563 -0.1063  0.4234
 5199lim     li24099   1.940   2.595   4.371 -0.0730 -1.1769  0.7669
 5200lim     li24100   4.991   3.047   4.582 -0.4571  0.1216  0.0194
 5201lim     li24101   5.558   2.793   3.695 -0.2756 -0.0542 -1.0829
 5202lim     li24102   3.303   7.581   2.569  0.4437 -0.2377 -0.7970
 5203lim     li24103   1.808   1.639   7.124 -0.3195  0.5101  1.7405
 5204lim     li24104   2.438   4.646   3.487  0.4888  0.4593 -0.3133
 5205lim     li24105   2.501   3.944   4.472  0.2969 -0.9901 -0.4364
 5206lim     li24106   2.992   6.898   1.947 -1.2864  0.3506  0.2406
 5207lim     li24107   7.603   4.987   2.029  0.1962 -0.7820 -0.8542
 5208lim     li24108   5.634   2.178   6.608 -0.1070  0.6887 -0.3837
 5209lim     li24109   7.079   6.970   3.035 -0.1388  0.8827  0.0148
 5210lim     li24110   7.479   5.544   1.604  0.8166 -1.6408  0.6086
 5211lim     li24111   3.892   5.199   7.584  0.0688  0.2648  1.0416
 5212lim     li24112   5.750   4.785   7.096  0.7284  0.7151 -0.0563
 5213lim     li24113   3.269   7.382   6.821 -1.3669  0.4970 -0.1307
 5214lim     li24114   0.020   3.060   4.786  0.6381 -0.2411 -0.6970
 5215lim     li24115   5.410   1.603   2.364 -0.9256  0.1282  0.0705
 5216lim     li24116   5.142   1.836   4.473 -0.0823 -0.5337 -1.0193
 5217lim     li24117   6.536   3.956   1.911 -0.7642  0.6629  0.1336
 5218lim     li24118   6.878   3.418   5.991 -0.1385 -0.1103 -0.0069
 5219lim     li24119   2.509   0.036   2.472  0.1506  0.3516 -0.0821
 5220lim     li24120   0.949   1.246   6.325 -0.0643  0.9028 -0.8797
 5221lim     li24121   3.944   2.371   3.802  1.4310  0.1351 -0.0890
 5222lim     li24122   7.244   0.548   2.869 -0.8830 -0.1994 -1.2416
 5223lim     li24123   7.389   4.054   6.215  0.1701  0.4545  0.3923
 5224lim     li24124   6.303   1.289   3.279  0.4457 -0.4144 -0.2794
 5225lim     li24125   2.523   4.583   6.393  0.0298 -0.1562 -0.3258
 5226lim     li24126   4.386   5.516   7.476 -1.1966 -0.4545 -1.1981
 5227lim     li24127   6.700   2.185   3.869 -0.7339 -0.4139  1.1155
 5228lim     li24128   3.262   0.448   4.564  0.1460  0.0685  0.9030
 5229lim     li24129   0.328   6.237   1.767  0.4715  0.1076 -0.8364
 5230lim     li24130   2.555   3.774   1.653  0.2854  0.3972 -0.3517
 5231lim     li24131   5.781   5.054   1.395 -0.1111 -0.7234 -0.4737
 5232lim     li24132   2.899   5.665   5.808 -0.5634 -0.3180  0.1758
 5233lim     li24133   6.923   4.770   5.796  0.2311 -0.6486  1.7006
 5234lim     li24134   4.135   6.320   1.904  1.3359  0.2815  0.0409
 5235lim     li24135   6.893   0.287   6.467  0.2104 -0.7668 -0.4237
 5236lim     li24136   6.529   6.066   2.357 -0.9990  0.3699  0.9181
 5237lim     li24137   4.687   4.695   2.986 -0.7687 -0.3045  0.5517
 5238lim     li24138   6.946   0.846   4.374  0.3365  0.2394 -1.2997
 5239lim     li24139   3.209   0.661   3.544  0.0261  0.6469 -0.2337
 5240lim     li24140   0.434   0.391   5.957  0.3985 -0.6107 -0.6697
 5241lim     li24141   6.282   6.590   6.107  0.7928  0.7203  0.9635
 5242lim     li24142   0.386   3.708   1.984  0.8794 -0.3586 -0.5930
 5243lim     li24143   0.496   3.440   6.462  0.4389  0.6618 -0.3368
 5244lim     li24144   5.235   0.209   6.407 -1.2092  0.0060  0.5975
 5245lim     li24145   5.430   3.636   3.551  0.1111  1.3617 -0.2512
 5246lim     li24146   6.160   5.545   0.448  0.0902 -0.1123 -0.5597
 5247lim     li24147   1.652   4.154   5.457  0.1598 -0.4983 -0.5201
 5248lim     li24148   2.298   4.641   5.824  1.2956  0.0013 -0.5582
 5249lim     li24149   6.359   6.566   4.627  0.7221 -1.0791  0.6006
 5250lim     li24150   5.346   4.041   5.926  0.2145 -0.3477  1.2913
 5251lim     li24151   4.609   6.072   0.844 -1.5599 -0.1147 -0.0074
 5252lim     li24152   6.341   4.442   4.403  0.5825 -0.2481  0.4108
 5253lim     li24153   7.559   6.727   2.516 -1.5920  0.0517  0.4363
 5254lim     li24154   7.566   2.572   7.119  0.4955 -0.4624  0.5463
 5255lim     li24155   6.213   1.442   1.215  0.6571  1.6772 -0.2086
 5256lim     li24156   5.510   2.494   0.710 -0.5200  0.5894  0.3206
 5257lim     li24157   3.881   1.591   7.175 -0.1250  0.1437 -0.2466
 5258lim     li24158   0.378   0.491   5.187  0.1321 -0.3518 -0.5886
 5259lim     li24159   7.075   4.198   3.709 -0.2228 -0.3801  0.1822
 5260lim     li24160   1.096   4.679   3.147 -0.0434  0.6110 -1.2977
 5261lim     li24161   0.469   0.275   0.345 -0.5922 -1.2638  0.6041
 5262lim     li24162   0.565   4.757   4.325 -0.1554  0.3964 -0.3418
 5263lim     li24163   0.374   1.864   6.226 -1.2987 -0.7860  0.0801
 5264lim     li24164   1.793   5.343   3.572 -0.2867  0.8752 -1.1069
 5265lim     li24165   5.800   0.382   5.210 -0.5063 -0.1625  0.3965
 5266lim     li24166   5.610   3.168   5.566  0.1483  0.0873 -0.4579
 5267lim     li24167   7.524   2.867   1.039  0.3440  0.3023 -0.0226
 5268lim     li24168   3.246   2.296   0.726 -1.1073 -0.5297 -0.3522
 5269lim     li24169   2.429   6.115   5.601 -0.0628 -0.8588 -0.1982
 5270lim     li24170   5.673   6.741   3.658 -0.9165  0.5789 -0.3325
 5271lim     li24171   7.549   2.058   4.714 -1.4559 -0.2240 -0.5758
 5272lim     li24172   2.867   1.961   5.255  0.6378  0.0590 -0.1986
 5273lim     li24173   0.289   5.565   2.077 -0.3351  0.5709  0.3944
 5274lim     li24174   4.666   3.635   7.264 -0.3053  0.0462 -0.7022
 5275lim     li24175   3.410   7.482   4.392 -1.2042  0.2968  0.0978
 5276lim     li24176   1.537   3.777   0.546 -0.4014 -0.7202  0.0151
 5277lim     li24177   6.960   4.422   2.821  0.0371  0.0168  0.5271
 5278lim     li24178   1.210   5.876   7.369  1.6623 -0.8577  0.3970
 5279lim     li24179   1.082   5.916   3.509 -0.7881 -0.7048  0.6294
 5280lim     li24180   0.270   0.150   4.639  0.0119 -0.7254 -0.6945
 5281lim     li24181   5.623   1.669   3.094  0.7434  0.5014 -0.0040
 5282lim     li24182   5.767   1.887   5.036 -0.7774 -0.1287  0.0489
 5283lim     li24183   5.561   5.649   0.730 -0.3665  0.1781 -0.6398
 5284lim     li24184   6.967   1.934   4.952 -0.4354 -1.2221  1.6443
 5285lim     li24185   4.811   6.123   4.927  0.3016  0.3155  0.2836
 5286lim     li24186   4.698   1.261   0.243  1.1994 -0.4035 -0.2378
 5287lim     li24187   2.886   6.194   0.008  0.4257 -0.0016 -0.7840
 5288lim     li24188   1.100   0.940   0.390  0.2377 -0.9329  0.1454
 5289lim     li24189   2.365   1.045   0.858  0.5886 -0.9563  0.3590
 5290lim     li24190   2.588   2.325   5.964  1.3390  0.7285  1.2754
 5291lim     li24191   1.866   1.302   4.021  0.4045 -0.0557  1.1029
 5292lim     li24192   7.487   5.185   2.667  0.5567  0.8441 -0.1253
 5293lim     li24193   6.651   5.318   3.654 -0.1884 -1.0351 -0.6168
 5294lim     li24194   3.999   0.483   5.818  0.4604  1.3384 -0.9243
 5295lim     li24195   6.699   6.168   3.354 -0.5572 -0.6591  0.1443
 5296lim     li24196   7.460   7.493   5.827  0.1161  0.5822 -1.0287
 5297lim     li24197   1.242   4.889   6.156 -0.3865  0.0754 -0.2236
 5298lim     li24198   1.242   1.426   4.373 -1.7766  0.6486  2.2090
 5299lim     li24199   2.416   5.757   7.293  1.1777 -0.0162 -1.1884
 5300lim     li24200   6.685   3.066   0.527 -0.3745  0.4115  0.5045
 5301lim     li24201   7.348   2.482   2.206 -1.2457 -0.5638  0.4349
 5302lim     li24202   5.682   0.064   7.582 -0.0598 -1.0017 -0.9878
 5303lim     li24203   5.985   4.053   6.362 -0.6861 -0.1644  0.3735
 5304lim     li24204   6.615   1.837   3.205  0.3417 -0.3618  0.5642
 5305lim     li24205   3.495   3.083   7.241 -0.2904 -0.6339 -1.2715
 5306lim     li24206   4.492   2.548   5.362  0.1510  0.8440  0.6287
 5307lim     li24207   2.664   5.505   6.425 -0.5245  0.1601 -0.0322
 5308lim     li24208   2.748   2.086   3.029  0.5322 -0.1461  0.5922
 5309lim     li24209   3.183   0.610   5.371 -0.3228 -0.0201  1.2559
 5310lim     li24210   5.330   0.750   1.383 -0.0646  0.3757  0.8456
 5311lim     li24211   4.919   7.549   4.439 -0.8233  1.1309 -1.7688
 5312lim     li24212   6.527   6.715   5.340 -0.7289  0.2992  2.1141
 5313lim     li24213   6.034   2.689   5.251 -0.1289 -0.1686 -0.7302
 5314lim     li24214   2.061   5.922   4.846 -0.1352  0.2021  0.1627
 5315lim     li24215   3.452   3.360   4.623 -0.7710  0.1593 -0.0148
 5316lim     li24216   1.097   2.575   0.626  0.1989 -0.6184  0.5497
 5317lim     li24217   1.874   6.193   0.639 -0.4375 -0.5761 -0.1781
 5318lim     li24218   2.745   3.239   0.640 -0.7077 -1.3365  1.2563
 5319lim     li24219   0.283   4.329   5.451 -0.1851 -0.1045 -0.0571
 5320lim     li24220   5.219   1.116   6.762 -0.2079  0.4276  0.6574
 5321lim     li24221   4.640   5.680   2.904 -0.0240 -0.0058 -0.1891
 5322lim     li24222   2.299   1.103   5.335  0.6246 -0.0459 -1.3782
 5323lim     li24223   2.631   3.223   3.266  0.1596  0.1409  0.1981
 5324lim     li24224   1.146   0.051   0.521 -0.1456 -0.4874  0.3411
 5325lim     li24225   2.059   3.938   6.483  0.2160 -0.1807  0.3643
 5326lim     li24226   3.544   0.521   0.052  0.3410  0.5672  0.4272
 5327lim     li24227   5.585   4.252   1.939 -0.5888 -1.0207  0.2284
 5328lim     li24228   0.856   3.540   4.761  0.5284 -0.4325 -0.4486
 5329lim     li24229   6.821   0.933   5.677  0.0415  0.1675  0.3651
 5330lim     li24230   3.285   4.461   5.148  0.3158 -1.1161  1.1080
 5331lim     li24231   1.555   1.804   1.859  0.5683  0.4649 -0.9324
 5332lim     li24232   1.673   4.007   7.486  0.1687  0.1543 -0.6614
 5333lim     li24233   4.084   4.750   6.134  0.5369  0.0433  0.4413
 5334lim     li24234   0.615   0.960   2.177 -0.6108 -1.1641 -0.3783
 5335lim     li24235   6.181   0.418   3.465 -0.3248 -0.2990  0.5489
 5336lim     li24236   4.933   2.747   7.595  0.7516  1.3866  0.4657
 5337lim     li24237   3.006   3.284   5.391  0.6405  0.7872  0.4487
 5338lim     li24238   3.648   1.801   4.560 -0.0651 -0.7398 -0.4331
 5339lim     li24239   7.620   6.946   4.528 -0.2127  0.3821  0.1523
 5340lim     li24240   4.274   6.564   4.736  0.5965  0.5125  0.5421
 5341lim     li24241   1.216   4.257   4.647  0.2884  0.5054 -0.2912
 5342lim     li24242   5.581   3.109   7.502 -0.1904  0.8245  0.3540
 5343lim     li24243   4.109   0.198   0.317  0.9633 -0.6024 -0.4577
 5344lim     li24244   1.838   4.780   0.197  0.4492  0.5733 -0.5727
 5345lim     li24245   1.332   0.383   6.976 -0.0806  0.5667 -0.7636
 5346lim     li24246   7.413   0.974   6.304 -1.3785 -0.1684 -1.0284
 5347lim     li24247   5.290   3.806   1.514 -0.3673  0.0306 -0.2128
 5348lim     li24248   5.640   7.387   1.329  0.5652 -0.5304 -0.5147
 5349lim     li24249   6.777   5.566   0.159 -0.0462  1.0314  0.5369
 5350lim     li24250   1.134   5.311   2.071  0.4177 -0.1817 -0.0280
 5351lim     li24251   2.763   1.475   0.761 -0.5414 -0.1778 -0.2006
 5352lim     li24252   6.129   5.731   1.823  0.6415 -0.7535 -0.6474
 5353lim     li24253   0.908   1.104   5.507 -0.5645  1.4267  0.0970
 5354lim     li24254   7.146   0.692   3.730 -0.8348 -0.4202  0.1041
 5355lim     li24255   1.046   6.966   1.132 -0.2697 -0.6004 -0.4879
 5356lim     li24256   4.203   6.867   2.593  0.1020 -2.4386  0.0364
 5357lim     li24257   1.331   7.089   2.576  0.1662 -0.3352  1.0139
 5358lim     li24258   7.188   6.224   6.259 -0.6135  0.3562  0.0366
 5359lim     li24259   5.118   5.435   3.851 -1.2417 -1.2547 -0.5280
 5360lim     li24260   7.114   0.878   7.112 -0.2706 -0.1126 -0.8425
 5361lim     li24261   0.648   7.362   1.924 -0.1644 -1.0169  0.6976
 5362lim     li24262   6.145   2.312   3.283 -0.1612  0.2173  0.1412
 5363lim     li24263   4.850   3.574   6.558  0.8361  0.4732 -0.1694
 5364lim     li24264   3.617   5.827   7.594 -0.9939  0.5430 -0.5340
 5365lim     li24265   3.746   3.073   0.598  1.4144 -0.0255  1.0544
 5366lim     li24266   5.773   6.837   5.714  0.2850  0.0886 -0.5911
 5367lim     li24267   0.813   3.195   7.245  0.4041  0.0505 -0.3374
 5368lim     li24268   2.652   5.907   1.662 -0.5641 -1.0328 -0.3925
 5369lim     li24269   2.799   3.677   6.111  1.0802 -0.4988 -1.0007
 5370lim     li24270   0.262   5.687   5.352  0.8811  0.3556  0.2245
 5371lim     li24271   3.948   5.825   2.147 -0.2614  0.1087  0.3220
 5372lim     li24272   4.163   5.445   1.506  0.3198  0.3956  0.7442
 5373lim     li24273   2.370   6.526   0.718  0.2781 -0.1959 -0.8547
 5374lim     li24274   1.330   0.236   2.097  0.4494  0.6968  0.1568
 5375lim     li24275   1.547   0.206   7.537  0.7823 -1.5580 -0.3177
 5376lim     li24276   2.416   4.883   1.798 -0.3988  0.5387  0.3809
 5377lim     li24277   1.445   4.903   0.623  0.3644 -0.3041 -0.6330
 5378lim     li24278   2.311   6.562   1.622 -0.6289  0.5840  0.0488
 5379lim     li24279   2.656   1.554   5.940  0.0201 -0.2772  0.1104
 5380lim     li24280   0.113   0.991   1.577  0.3681  0.1959  0.7948
 5381lim     li24281   0.012   2.879   3.930 -0.4752 -0.9521 -0.1781
 5382lim     li24282   1.490   6.756   6.383  0.8929  0.2606  1.2599
 5383lim     li24283   4.722   5.103   2.137 -0.3963  0.3080  0.9569
 5384lim     li24284   2.792   7.271   4.775 -0.2838 -0.3586  0.6338
 5385lim     li24285   0.218   5.213   5.945 -0.7624  0.4248 -0.3527
 5386lim     li24286   4.000   4.288   4.800 -0.3053 -0.3993  0.5136
 5387lim     li24287   1.038   3.759   6.687 -0.5110 -0.4183 -0.6334
 5388lim     li24288   7.575   5.873   7.322  0.8130 -1.1103 -0.0896
 5389lim     li24289   7.595   5.593   3.046 -0.8017 -0.0923 -0.2963
 5390lim     li24290   2.560   2.504   7.570  0.7180 -0.4771 -0.4686
 5391lim     li24291   4.417   5.807   3.782  0.8330 -0.9091  0.3710
 5392lim     li24292   4.241   2.394   0.570 -0.1886  1.0675 -0.2478
 5393lim     li24293   0.968   7.008   7.157 -1.3274  0.7072  0.5162
 5394lim     li24294   4.791   7.459   0.910  0.2709  1.2323 -0.6719
 5395lim     li24295   0.478   2.783   3.449 -0.0534  0.1153  0.1058
 5396lim     li24296   5.577   4.029   4.654  0.9953  0.5047 -0.6652
 5397lim     li24297   3.274   5.274   1.283 -0.5928  0.3330 -0.5231
 5398lim     li24298   1.551   1.936   3.143  0.9135  1.3110 -0.4129
 5399lim     li24299   3.195   2.145   4.993  0.3321  0.4324  0.1086
 5400lim     li24300   4.029   3.894   0.630  0.5615  0.3563  0.5212
 5401ntf    cn124301   5.593   3.425   5.108 -0.4769  0.2905 -0.4044
 5401ntf    sn224302   5.522   3.272   5.040  0.3426 -0.2923  0.0295
 5401ntf    nn324303   5.368   3.300   5.025  0.5127  0.5345 -0.2772
 5401ntf    sn224304   5.289   3.332   4.894 -0.3265  0.0235  0.0941
 5401ntf    cn124305   5.171   3.455   4.957 -0.2596  0.1816 -0.0843
 5401ntf    fn424306   5.722   3.429   5.136 -0.5281 -0.1262 -0.1115
 5401ntf    fn424307   5.573   3.527   5.026 -0.5703  0.4402 -0.1988
 5401ntf    fn424308   5.534   3.475   5.215  0.1104 -0.6584  0.3815
 5401ntf    on524309   5.597   3.253   4.919 -0.5095  0.3029 -0.6036
 5401ntf    on524310   5.548   3.182   5.149  0.2695 -0.7144 -0.3005
 5401ntf    on524311   5.200   3.228   4.849  0.1604 -0.6857  0.7496
 5401ntf    on524312   5.359   3.405   4.792  0.2952 -0.4381  0.1839
 5401ntf    fn424313   5.225   3.551   5.030  0.0946  0.1459 -0.2997
 5401ntf    fn424314   5.103   3.508   4.857  0.1544  1.2870  0.2140
 5401ntf    fn424315   5.082   3.400   5.039 -0.5209 -0.3923 -0.7496
 5402ntf    cn124316   3.061   0.970   4.600  0.1538 -0.0876  0.1438
 5402ntf    sn224317   2.891   0.931   4.650  0.0345  0.0317 -0.1673
 5402ntf    nn324318   2.821   0.906   4.512  0.2575  0.0815 -0.2885
 5402ntf    sn224319   2.807   0.781   4.419  0.0308 -0.1392  0.0420
 5402ntf    cn124320   2.669   0.695   4.500  0.0363 -0.0802  0.1135
 5402ntf    fn424321   3.155   0.958   4.693  0.1915  0.2233  0.1484
 5402ntf    fn424322   3.095   0.881   4.508  0.2195  0.2865 -0.1961
 5402ntf    fn424323   3.072   1.095   4.557  0.0124 -0.2161 -0.2685
 5402ntf    on524324   2.926   0.814   4.727 -0.4520 -0.3720 -0.5500
 5402ntf    on524325   2.847   1.050   4.720  0.3929 -0.0996  0.2891
 5402ntf    on524326   2.921   0.693   4.434 -0.0757 -0.2978 -0.0796
 5402ntf    on524327   2.762   0.791   4.282 -0.1328 -0.1156  0.0978
 5402ntf    fn424328   2.698   0.676   4.628 -0.0668 -0.3153  0.1023
 5402ntf    fn424329   2.562   0.772   4.503  0.2167  0.1768  0.0170
 5402ntf    fn424330   2.642   0.584   4.435  0.1686  0.2605 -0.5301
 5403ntf    cn124331   6.623   5.867   1.544  0.2093  0.1464 -0.2904
 5403ntf    sn224332   6.780   5.800   1.607  0.1378  0.4007  0.1600
 5403ntf    nn324333   6.877   5.890   1.524 -0.1251  0.5801  0.0450
 5403ntf    sn224334   7.007   5.841   1.450 -0.1951  0.4402  0.0153
 5403ntf    cn124335   6.944   5.825   1.280 -0.2272  0.1994  0.0497
 5403ntf    fn424336   6.605   5.829   1.418  0.4463  0.4594 -0.4187
 5403ntf    fn424337   6.519   5.819   1.611  0.1152  0.4927 -0.1862
 5403ntf    fn424338   6.621   5.998   1.534  0.0288  0.2021  0.4310
 5403ntf    on524339   6.776   5.831   1.748 -0.1745  0.4572  0.1392
 5403ntf    on524340   6.776   5.663   1.563  0.6232  0.6063 -0.5464
 5403ntf    on524341   7.066   5.712   1.478 -0.5269  0.2849  0.0011
 5403ntf    on524342   7.104   5.947   1.440 -0.3678  0.6494  0.5263
 5403ntf    fn424343   7.026   5.790   1.182 -0.6688 -0.3863 -0.1125
 5403ntf    fn424344   6.848   5.735   1.281 -0.4154  0.4032  0.6340
 5403ntf    fn424345   6.888   5.936   1.235 -0.2390  0.0316 -0.3482
 5404ntf    cn124346   1.414   0.841   7.528  0.3002 -0.0172  0.3626
 5404ntf    sn224347   1.292   0.972   7.500  0.3422 -0.0751 -0.0996
 5404ntf    nn324348   1.176   0.890   7.433  0.4900 -0.0420 -0.3985
 5404ntf    sn224349   1.027   0.938   7.450  0.4571 -0.2682 -0.0317
 5404ntf    cn124350   1.034   1.107   7.384 -0.1005 -0.3057 -0.1905
 5404ntf    fn424351   1.520   0.888   7.592  0.5593 -0.0181 -0.0626
 5404ntf    fn424352   1.363   0.752   7.611  0.1403 -0.3454 -0.0843
 5404ntf    fn424353   1.451   0.780   7.417 -0.1244 -0.7779  0.6340
 5404ntf    on524354   1.275   1.025   7.633 -0.3313  0.2446 -0.3075
 5404ntf    on524355   1.355   1.062   7.406  0.0083 -0.0296 -0.2802
 5404ntf    on524356   0.992   0.934   7.590 -1.0725  0.2892 -0.3803
 5404ntf    on524357   0.943   0.865   7.358 -0.1935  0.9513 -0.4275
 5404ntf    fn424358   1.103   1.180   7.470 -0.5479 -0.1736  0.0632
 5404ntf    fn424359   1.093   1.114   7.266  0.2808 -0.2560  0.0010
 5404ntf    fn424360   0.914   1.163   7.378 -0.0502 -0.1817 -0.0499
 5405ntf    cn124361   0.592   2.817   5.471 -0.0329 -0.1997 -0.0098
 5405ntf    sn224362   0.758   2.759   5.427 -0.0079 -0.1624  0.0349
 5405ntf    nn324363   0.763   2.801   5.276 -0.2150 -0.2391  0.0073
 5405ntf    sn224364   0.799   2.942   5.216 -0.1372 -0.3279 -0.1564
 5405ntf    cn124365   0.965   2.915   5.147 -0.0753  0.0905 -0.1736
 5405ntf    fn424366   0.498   2.740   5.418 -0.3270  0.0561  0.1340
 5405ntf    fn424367   0.569   2.816   5.602 -0.0322  0.4895  0.0008
 5405ntf    fn424368   0.574   2.943   5.433  0.0329 -0.0713  0.3790
 5405ntf    on524369   0.838   2.835   5.520  0.1395  0.4105 -0.5581
 5405ntf    on524370   0.749   2.616   5.446 -0.4204 -0.1889 -0.3392
 5405ntf    on524371   0.825   3.046   5.312 -0.1089 -0.9127  0.4786
 5405ntf    on524372   0.714   2.987   5.109  0.0851  0.3929 -0.0354
 5405ntf    fn424373   1.038   2.838   5.225 -0.3755 -0.2093 -0.1812
 5405ntf    fn424374   0.962   2.853   5.030  0.0469  0.6007 -0.4480
 5405ntf    fn424375   1.029   3.029   5.126  0.1496 -0.1234 -0.6836
 5406ntf    cn124376   4.495   5.235   1.238 -0.7044  0.5153  0.3205
 5406ntf    sn224377   4.389   5.297   1.104 -0.3087  0.0290 -0.2204
 5406ntf    nn324378   4.477   5.418   1.055 -0.1063  0.0339  0.1504
 5406ntf    sn224379   4.445   5.526   0.946  0.0730  0.1840  0.2483
 5406ntf    cn124380   4.457   5.676   1.050 -0.2428  0.2035  0.2591
 5406ntf    fn424381   4.521   5.325   1.332 -0.3225  0.7711 -0.0256
 5406ntf    fn424382   4.447   5.124   1.291 -0.0612  0.3585  0.5817
 5406ntf    fn424383   4.613   5.192   1.196 -0.8778 -0.1775  0.5358
 5406ntf    on524384   4.391   5.188   1.010  0.3448  0.0011 -0.1758
 5406ntf    on524385   4.257   5.325   1.154 -0.3804 -0.7971  0.0731
 5406ntf    on524386   4.312   5.542   0.891 -0.2479  0.1645  0.9988
 5406ntf    on524387   4.552   5.539   0.852 -0.0395  0.0747  0.1055
 5406ntf    fn424388   4.568   5.691   1.121 -0.1749 -0.2195  0.2468
 5406ntf    fn424389   4.439   5.782   0.974 -0.0094 -0.0731 -0.1876
 5406ntf    fn424390   4.356   5.672   1.135  0.4161 -0.9228  1.0206
 5407ntf    cn124391   4.709   1.931   7.209  0.0749  0.1082  0.3074
 5407ntf    sn224392   4.786   1.958   7.047  0.3971 -0.0354  0.4379
 5407ntf    nn324393   4.884   1.836   7.052 -0.0972 -0.4971 -0.6822
 5407ntf    sn224394   5.041   1.830   7.052 -0.0747 -0.0532  0.2103
 5407ntf    cn124395   5.090   1.851   7.226  0.3026 -0.4030  0.1474
 5407ntf    fn424396   4.603   2.010   7.222 -0.1262 -0.0571 -0.2737
 5407ntf    fn424397   4.666   1.807   7.226 -0.3116  0.1694 -0.1825
 5407ntf    fn424398   4.786   1.958   7.313 -0.0987  0.8074  0.2617
 5407ntf    on524399   4.672   1.929   6.964  0.2537  0.2909  0.5192
 5407ntf    on524400   4.839   2.092   7.039  0.2758 -0.0364 -0.5958
 5407ntf    on524401   5.107   1.947   7.000  0.1376 -0.0338  0.5187
 5407ntf    on524402   5.098   1.704   7.010  0.2529  0.1002  0.1867
 5407ntf    fn424403   5.016   1.940   7.289 -0.3280 -0.5200 -0.4162
 5407ntf    fn424404   5.091   1.735   7.290  0.3013 -0.3971  0.1578
 5407ntf    fn424405   5.214   1.897   7.233  0.1990 -0.0521 -0.2712
 5408ntf    cn124406   5.401   0.667   6.882 -0.3053 -0.2514  0.1396
 5408ntf    sn224407   5.270   0.606   6.992 -0.1451  0.0308  0.4884
 5408ntf    nn324408   5.214   0.743   7.044  0.5510  0.5212 -0.0426
 5408ntf    sn224409   5.245   0.810   7.183  0.0407  0.2552  0.2025
 5408ntf    cn124410   5.162   0.702   7.303  0.1735 -0.1613 -0.0782
 5408ntf    fn424411   5.429   0.583   6.784  0.6451 -0.1826  0.3405
 5408ntf    fn424412   5.357   0.775   6.821 -0.7523 -0.5612 -0.0942
 5408ntf    fn424413   5.519   0.690   6.939  0.1066  0.1111 -0.8413
 5408ntf    on524414   5.175   0.549   6.899  0.2134 -0.1158  0.2116
 5408ntf    on524415   5.344   0.521   7.081  0.0884 -0.5715 -0.2711
 5408ntf    on524416   5.170   0.932   7.203 -0.3197  0.0040  0.3939
 5408ntf    on524417   5.384   0.832   7.215  0.2416  0.2341 -0.6391
 5408ntf    fn424418   5.185   0.573   7.290  0.4320 -0.1019 -0.2216
 5408ntf    fn424419   5.168   0.740   7.430 -0.0499  0.3081 -0.2051
 5408ntf    fn424420   5.031   0.716   7.288  0.1560 -0.7338 -0.4851
 5409ntf    cn124421   1.905   1.968   1.343 -0.1969  0.0042  0.3615
 5409ntf    sn224422   1.895   2.144   1.387 -0.1393  0.1433 -0.1746
 5409ntf    nn324423   2.049   2.169   1.402 -0.0887 -0.1385 -0.2239
 5409ntf    sn224424   2.153   2.197   1.287 -0.2599  0.0576 -0.3314
 5409ntf    cn124425   2.266   2.055   1.294 -0.0455  0.2330 -0.2131
 5409ntf    fn424426   1.783   1.917   1.349  0.0072 -0.5216  0.0825
 5409ntf    fn424427   1.952   1.945   1.221  0.4204  0.3139  0.5424
 5409ntf    fn424428   1.982   1.899   1.425  0.1927  0.0106  0.0010
 5409ntf    on524429   1.834   2.212   1.275 -0.0495  0.3453 -0.0993
 5409ntf    on524430   1.822   2.160   1.510  0.0283  0.0041 -0.0573
 5409ntf    on524431   2.243   2.302   1.326 -0.3844  0.1740 -0.3573
 5409ntf    on524432   2.107   2.194   1.151 -0.2644  0.4625 -0.3385
 5409ntf    fn424433   2.369   2.068   1.211  0.4238 -0.1815  0.2963
 5409ntf    fn424434   2.315   2.044   1.417 -0.3735 -0.0174 -0.1047
 5409ntf    fn424435   2.208   1.940   1.264 -0.3530  0.2629  0.2635
 5410ntf    cn124436   2.303   4.502   4.960  0.0327 -0.1426  0.0196
 5410ntf    sn224437   2.304   4.535   4.781  0.0217  0.2407  0.0885
 5410ntf    nn324438   2.437   4.618   4.766  0.0450  0.2447  0.3058
 5410ntf    sn224439   2.457   4.773   4.765 -0.0762  0.2576 -0.4707
 5410ntf    cn124440   2.623   4.799   4.833 -0.0161 -0.4983 -0.3232
 5410ntf    fn424441   2.196   4.432   4.994  0.0626 -0.3788 -0.3707
 5410ntf    fn424442   2.412   4.439   5.002 -0.2304 -0.1383  0.7323
 5410ntf    fn424443   2.296   4.614   5.030  0.3220 -0.3838  0.4426
 5410ntf    on524444   2.320   4.400   4.733 -0.6315 -0.1120  0.8302
 5410ntf    on524445   2.189   4.613   4.744 -0.1757  0.1419  0.4820
 5410ntf    on524446   2.370   4.847   4.852 -0.5890 -0.4667 -0.3613
 5410ntf    on524447   2.462   4.818   4.628  0.9895 -0.4515 -0.6789
 5410ntf    fn424448   2.654   4.928   4.841 -0.7809 -0.3003 -0.5147
 5410ntf    fn424449   2.642   4.752   4.955  0.2553  0.0717 -0.1397
 5410ntf    fn424450   2.713   4.743   4.753  0.4387 -0.5036  0.1831
 5411ntf    cn124451   6.630   7.049   3.289  0.0775 -0.0421 -0.4184
 5411ntf    sn224452   6.604   6.875   3.241 -0.0121 -0.1360 -0.0342
 5411ntf    nn324453   6.564   6.826   3.385 -0.6376  0.0815 -0.1309
 5411ntf    sn224454   6.426   6.771   3.435 -0.3470 -0.3899  0.1630
 5411ntf    cn124455   6.422   6.620   3.334  0.0475 -0.2097 -0.1249
 5411ntf    fn424456   6.696   7.116   3.197 -0.1335 -0.0779 -0.5946
 5411ntf    fn424457   6.521   7.116   3.321  0.2824 -0.1501  0.5642
 5411ntf    fn424458   6.701   7.046   3.401  0.1473 -0.8531 -0.4725
 5411ntf    on524459   6.514   6.884   3.129 -0.0562  0.1768  0.0256
 5411ntf    on524460   6.741   6.842   3.209  0.2592  1.4305 -0.5825
 5411ntf    on524461   6.312   6.848   3.390  0.0645  0.0127 -0.1936
 5411ntf    on524462   6.423   6.723   3.571 -0.1892  0.0460  0.3238
 5411ntf    fn424463   6.307   6.556   3.340 -0.2373  0.3336  0.3257
 5411ntf    fn424464   6.446   6.644   3.206 -0.0929 -0.0508 -0.1210
 5411ntf    fn424465   6.519   6.534   3.361 -0.0832 -0.2806  0.1219
 5412ntf    cn124466   0.407   7.146   4.548 -0.1159 -0.1533 -0.3220
 5412ntf    sn224467   0.420   7.202   4.720  0.2432 -0.2520 -0.3152
 5412ntf    nn324468   0.497   7.084   4.789  0.1303  0.1314  0.4874
 5412ntf    sn224469   0.440   6.962   4.870 -0.2449  0.0337  0.0822
 5412ntf    cn124470   0.365   7.033   5.019  0.1202 -0.2286  0.3909
 5412ntf    fn424471   0.522   7.134   4.483 -0.1787  0.3291 -0.5268
 5412ntf    fn424472   0.365   7.022   4.529  0.6191 -0.4179 -0.2307
 5412ntf    fn424473   0.333   7.237   4.485  0.1790  0.4570  0.2010
 5412ntf    on524474   0.507   7.316   4.705  0.1967 -0.1626  0.0750
 5412ntf    on524475   0.280   7.214   4.754  0.2936 -1.0897  0.2159
 5412ntf    on524476   0.548   6.883   4.924 -0.5045 -0.4261 -0.0619
 5412ntf    on524477   0.340   6.894   4.791  0.0343  0.2441 -0.4570
 5412ntf    fn424478   0.440   7.133   5.063  0.4713 -0.3794  0.1377
 5412ntf    fn424479   0.244   7.085   5.008  0.2997  0.1390  0.1326
 5412ntf    fn424480   0.360   6.945   5.119  0.4375 -0.1652  0.4649
 5413ntf    cn124481   2.029   6.463   7.371 -0.7487  0.2017 -0.2091
 5413ntf    sn224482   2.011   6.325   7.254  0.0087 -0.1608  0.0917
 5413ntf    nn324483   1.993   6.202   7.350  0.6389  0.0598  0.4948
 5413ntf    sn224484   1.860   6.125   7.381  0.4260  0.3410  0.2852
 5413ntf    cn124485   1.809   6.195   7.540 -0.2931  0.1700  0.1334
 5413ntf    fn424486   2.110   6.553   7.317 -0.2893 -0.0257  0.0953
 5413ntf    fn424487   1.914   6.520   7.404 -0.4055  0.3144  0.8285
 5413ntf    fn424488   2.077   6.413   7.484 -0.0188  0.1895 -0.5161
 5413ntf    on524489   1.895   6.368   7.180  0.3865  0.4488 -0.1501
 5413ntf    on524490   2.132   6.332   7.176  0.3195  0.2159  0.6039
 5413ntf    on524491   1.886   5.984   7.400 -0.2207  0.0750 -0.7002
 5413ntf    on524492   1.757   6.160   7.286  0.4974  0.4269  0.2389
 5413ntf    fn424493   1.683   6.168   7.570 -0.3834  0.2169 -0.2063
 5413ntf    fn424494   1.882   6.147   7.639 -0.3281  0.0341  0.0931
 5413ntf    fn424495   1.818   6.327   7.543  0.1941  0.1398  0.0346
 5414ntf    cn124496   0.879   1.774   3.944  0.0819  0.0413  0.2162
 5414ntf    sn224497   0.901   1.636   4.062 -0.2148 -0.1102  0.0941
 5414ntf    nn324498   0.795   1.664   4.174 -0.3226 -0.4208  0.0715
 5414ntf    sn224499   0.828   1.694   4.325 -0.5385 -0.3177  0.0995
 5414ntf    cn124500   0.666   1.722   4.402 -0.2611  0.2379  0.4833
 5414ntf    fn424501   0.958   1.767   3.839 -0.2030 -0.0129  0.0042
 5414ntf    fn424502   0.759   1.801   3.897  0.1559  0.4777  0.2800
 5414ntf    fn424503   0.917   1.883   4.007  0.0139  0.3671 -0.3033
 5414ntf    on524504   0.863   1.533   3.968  1.0559  0.0736 -0.6437
 5414ntf    on524505   1.041   1.651   4.091 -0.0721 -0.3194 -0.4670
 5414ntf    on524506   0.900   1.818   4.342 -0.1476 -0.5202 -0.0510
 5414ntf    on524507   0.870   1.582   4.405 -0.3188  0.0676  0.5276
 5414ntf    fn424508   0.577   1.625   4.390  0.3821 -0.3482  0.3490
 5414ntf    fn424509   0.672   1.758   4.530 -0.3271  0.1479  0.5118
 5414ntf    fn424510   0.605   1.820   4.338 -0.6029 -0.5070 -0.3359
 5415ntf    cn124511   3.919   6.512   6.106 -0.2668  0.3524  0.0412
 5415ntf    sn224512   3.863   6.470   5.938 -0.0406  0.2324 -0.0044
 5415ntf    nn324513   3.772   6.344   5.955 -0.2583  0.4504  0.4682
 5415ntf    sn224514   3.831   6.200   5.976 -0.1787  0.3910 -0.1595
 5415ntf    cn124515   3.816   6.129   5.809 -0.3685  0.0538  0.0008
 5415ntf    fn424516   4.027   6.590   6.106 -0.0592  0.0703 -0.5501
 5415ntf    fn424517   3.811   6.566   6.161 -0.5357  0.1864 -0.3230
 5415ntf    fn424518   3.947   6.407   6.181  0.2529 -0.0129 -0.6551
 5415ntf    on524519   3.781   6.582   5.898 -0.0709 -0.0777 -0.8199
 5415ntf    on524520   3.980   6.460   5.854  0.3454 -0.8793  0.6420
 5415ntf    on524521   3.740   6.121   6.055  0.4013 -0.2001 -0.0691
 5415ntf    on524522   3.970   6.188   6.012 -0.2001  0.2073 -0.1385
 5415ntf    fn424523   3.688   6.123   5.776 -0.3796 -0.1091  0.0696
 5415ntf    fn424524   3.871   6.205   5.716  0.2674 -0.2236  0.1421
 5415ntf    fn424525   3.866   6.006   5.800  0.6377  0.4351  0.2779
 5416ntf    cn124526   2.871   3.460   3.661 -0.2599  0.4886  0.8378
 5416ntf    sn224527   2.917   3.310   3.753  0.0103  0.0093 -0.0644
 5416ntf    nn324528   3.060   3.359   3.797  0.2295  0.0340 -0.7998
 5416ntf    sn224529   3.122   3.365   3.941  0.2512  0.1065 -0.8124
 5416ntf    cn124530   3.126   3.543   3.980 -0.1440 -0.0411 -0.0738
 5416ntf    fn424531   2.944   3.468   3.551 -0.4943 -0.4478  0.6007
 5416ntf    fn424532   2.749   3.466   3.610  0.0378 -0.4627 -0.0314
 5416ntf    fn424533   2.881   3.575   3.724 -0.3097  0.7934  0.2914
 5416ntf    on524534   2.821   3.305   3.860  0.2578 -0.2619  0.1479
 5416ntf    on524535   2.920   3.204   3.656 -0.0159 -0.1622  0.1203
 5416ntf    on524536   3.260   3.326   3.938  0.2002 -0.1504  0.0459
 5416ntf    on524537   3.043   3.305   4.046  0.8378  0.4173 -0.1833
 5416ntf    fn424538   3.187   3.564   4.096  0.0239  0.3562 -0.2317
 5416ntf    fn424539   3.195   3.605   3.886  0.4760 -0.4650  0.0895
 5416ntf    fn424540   3.005   3.594   3.987  0.1118  0.5138  0.3944
 5417ntf    cn124541   3.394   6.545   2.905  0.2245 -0.2574  0.2418
 5417ntf    sn224542   3.287   6.670   2.826  0.3134 -0.2918  0.0660
 5417ntf    nn324543   3.388   6.790   2.843 -0.0833  0.1417 -0.5978
 5417ntf    sn224544   3.355   6.940   2.872  0.3190  0.0658  0.2746
 5417ntf    cn124545   3.435   7.015   2.727  0.1283 -0.2369  0.0149
 5417ntf    fn424546   3.325   6.434   2.923  0.2826 -0.3187  0.0902
 5417ntf    fn424547   3.508   6.508   2.850  0.2221  0.2063 -0.0859
 5417ntf    fn424548   3.415   6.581   3.030 -0.0112 -0.6132  0.3838
 5417ntf    on524549   3.269   6.628   2.690  0.0042 -0.2113  0.0827
 5417ntf    on524550   3.178   6.670   2.920 -0.1498 -1.1016 -0.4641
 5417ntf    on524551   3.434   6.987   2.984 -0.1877  0.2822  0.5448
 5417ntf    on524552   3.218   6.980   2.852  0.1193 -0.5604  0.3775
 5417ntf    fn424553   3.566   6.999   2.729  0.0682 -0.8112 -0.3223
 5417ntf    fn424554   3.391   6.969   2.611 -0.3236 -0.2768  0.2023
 5417ntf    fn424555   3.397   7.140   2.711 -0.0302 -0.2853  0.0063
 5418ntf    cn124556   5.244   2.943   6.617  0.2518  0.2384  0.0140
 5418ntf    sn224557   5.352   3.077   6.558  0.1853  0.2727 -0.0307
 5418ntf    nn324558   5.268   3.130   6.436 -0.0165 -0.4465 -0.2132
 5418ntf    sn224559   5.173   3.254   6.445  0.1281 -0.3472 -0.0415
 5418ntf    cn124560   5.176   3.323   6.277 -0.4002  0.0257  0.0968
 5418ntf    fn424561   5.126   2.979   6.666  0.0597 -0.4392  0.0557
 5418ntf    fn424562   5.218   2.854   6.523  0.2781 -0.2503  0.4673
 5418ntf    fn424563   5.298   2.875   6.717 -0.8469 -0.7837 -0.0625
 5418ntf    on524564   5.366   3.166   6.670  0.9387  0.6725 -0.4366
 5418ntf    on524565   5.470   3.010   6.509 -0.1646 -0.3535 -0.0285
 5418ntf    on524566   5.219   3.361   6.530  0.4249 -0.3643 -0.1816
 5418ntf    on524567   5.033   3.225   6.464 -0.0027  0.5744  0.4618
 5418ntf    fn424568   5.060   3.383   6.256 -0.1637  0.2530 -0.6191
 5418ntf    fn424569   5.277   3.407   6.261  0.0981 -0.4878  0.5044
 5418ntf    fn424570   5.188   3.227   6.186 -0.2482  0.2554 -0.1290
 5419ntf    cn124571   4.156   7.206   0.746 -0.1388  0.3259  0.3416
 5419ntf    sn224572   4.283   7.254   0.625 -0.1622 -0.1138  0.1442
 5419ntf    nn324573   4.256   7.408   0.611 -0.5937 -0.1682  0.3848
 5419ntf    sn224574   4.345   7.531   0.647  0.0229 -0.4458 -0.1739
 5419ntf    cn124575   4.292   7.579   0.814 -0.0239  0.2457 -0.3810
 5419ntf    fn424576   4.193   7.251   0.865 -0.3075  0.3774  0.3739
 5419ntf    fn424577   4.035   7.246   0.711 -0.1384  0.8165  0.8829
 5419ntf    fn424578   4.148   7.075   0.761  0.3020  0.2016 -0.4519
 5419ntf    on524579   4.413   7.213   0.673 -0.0885 -0.5175 -0.3767
 5419ntf    on524580   4.250   7.189   0.500  0.0823 -0.1892  0.1170
 5419ntf    on524581   4.299   7.647   0.575  0.2192 -0.4476 -0.3031
 5419ntf    on524582   4.488   7.512   0.651  0.1126  0.0430 -0.7474
 5419ntf    fn424583   4.323   7.702   0.851 -0.2382  0.1295  0.1987
 5419ntf    fn424584   4.163   7.565   0.836  0.0328  0.4215  0.0740
 5419ntf    fn424585   4.343   7.500   0.908 -0.4031  0.0554 -0.3340
 5420ntf    cn124586   7.103   5.579   6.658 -0.4280  0.4268 -0.1505
 5420ntf    sn224587   7.067   5.514   6.824 -0.1884  0.4428 -0.0928
 5420ntf    nn324588   6.961   5.622   6.866 -0.4269  0.2906 -0.3020
 5420ntf    sn224589   6.825   5.585   6.934 -0.3064  0.1465 -0.1391
 5420ntf    cn124590   6.814   5.724   7.051 -0.1506 -0.4627  0.6150
 5420ntf    fn424591   7.005   5.551   6.573 -0.3426  0.1973 -0.1767
 5420ntf    fn424592   7.123   5.709   6.649  0.0505  0.3641 -0.0102
 5420ntf    fn424593   7.204   5.515   6.601 -0.2818  0.2881  0.2578
 5420ntf    on524594   7.014   5.384   6.790 -0.5507  0.4334  0.4972
 5420ntf    on524595   7.194   5.530   6.892 -0.3290 -0.2748  0.3544
 5420ntf    on524596   6.834   5.468   7.018 -0.6365  0.1927 -0.0358
 5420ntf    on524597   6.707   5.598   6.853  0.2134  0.6638 -0.8178
 5420ntf    fn424598   6.761   5.830   6.990  0.4755 -0.2417  0.4450
 5420ntf    fn424599   6.744   5.699   7.160 -0.1228 -0.0538  0.7314
 5420ntf    fn424600   6.937   5.760   7.083 -0.0002 -0.0596 -0.3621
 5421ntf    cn124601   2.094   4.278   0.647 -0.1270  0.1864  0.2393
 5421ntf    sn224602   2.068   4.142   0.766  0.3893 -0.2599 -0.1565
 5421ntf    nn324603   2.128   4.032   0.671  0.2276 -0.0931 -0.4540
 5421ntf    sn224604   2.269   3.964   0.676 -0.0357 -0.6300 -0.2498
 5421ntf    cn124605   2.297   3.940   0.498  0.1797 -0.2156 -0.2721
 5421ntf    fn424606   2.033   4.255   0.532  0.4926  0.1742 -0.0885
 5421ntf    fn424607   2.043   4.394   0.685  0.1044  0.4231 -0.1817
 5421ntf    fn424608   2.222   4.296   0.620 -0.1781  0.1775 -0.0080
 5421ntf    on524609   2.134   4.179   0.888  0.3783 -0.2033 -0.1678
 5421ntf    on524610   1.924   4.138   0.768  0.3891 -0.2051 -0.0648
 5421ntf    on524611   2.267   3.829   0.728  0.0364 -0.1856  0.9396
 5421ntf    on524612   2.384   4.043   0.711 -0.2406 -0.1670 -0.6166
 5421ntf    fn424613   2.214   3.852   0.445 -0.0075  0.0733 -0.4666
 5421ntf    fn424614   2.276   4.049   0.426  0.0668  0.0494  0.1581
 5421ntf    fn424615   2.419   3.902   0.465  0.0642 -0.6301 -0.2250
 5422ntf    cn124616   0.802   1.151   0.940 -0.0646  0.2502  0.7350
 5422ntf    sn224617   0.936   1.230   0.846 -0.1914 -0.1476  0.2215
 5422ntf    nn324618   0.843   1.265   0.724 -0.3672  0.0333  0.4087
 5422ntf    sn224619   0.791   1.409   0.689  0.4325  0.1882 -0.1510
 5422ntf    cn124620   0.720   1.372   0.526  0.0040 -0.3104  0.1483
 5422ntf    fn424621   0.697   1.232   0.946  0.2584  0.7806 -0.5527
 5422ntf    fn424622   0.760   1.036   0.891 -0.1627  0.5555  0.0986
 5422ntf    fn424623   0.835   1.134   1.067  0.8168  0.2735  0.5194
 5422ntf    on524624   0.971   1.340   0.932 -0.4792 -0.3483  0.5999
 5422ntf    on524625   1.029   1.123   0.820  0.2936  0.1852  0.5760
 5422ntf    on524626   0.903   1.493   0.652  0.7532 -0.1748 -0.0051
 5422ntf    on524627   0.686   1.463   0.770  0.6123  0.3101  0.0020
 5422ntf    fn424628   0.667   1.478   0.467 -0.2513 -0.0510  0.8418
 5422ntf    fn424629   0.821   1.340   0.446 -0.3803 -0.0304 -0.4581
 5422ntf    fn424630   0.636   1.270   0.526 -0.5712  0.1584  0.6698
 5423ntf    cn124631   5.253   0.503   2.038  0.1529  0.1173  0.3759
 5423ntf    sn224632   5.085   0.475   2.102 -0.0039  0.1372 -0.0268
 5423ntf    nn324633   5.103   0.579   2.218  0.0355  0.0743  0.0231
 5423ntf    sn224634   5.062   0.569   2.369 -0.1191 -0.1523 -0.0325
 5423ntf    cn124635   5.199   0.479   2.448  0.1523  0.0507 -0.2647
 5423ntf    fn424636   5.282   0.423   1.937 -0.6507  0.2048  0.0738
 5423ntf    fn424637   5.270   0.629   2.002 -0.1745  0.2236  0.5891
 5423ntf    fn424638   5.344   0.475   2.130 -0.2072 -0.5335  0.5472
 5423ntf    on524639   4.990   0.515   2.001 -0.0546 -0.0324 -0.0477
 5423ntf    on524640   5.085   0.335   2.139 -0.0277  0.3316  0.7309
 5423ntf    on524641   4.953   0.480   2.397  0.2246 -0.5926 -0.0876
 5423ntf    on524642   5.049   0.695   2.438  0.7313 -0.2829  0.3932
 5423ntf    fn424643   5.183   0.471   2.579 -0.0967 -0.4708 -0.3200
 5423ntf    fn424644   5.213   0.350   2.418 -0.0133  0.0429 -0.3099
 5423ntf    fn424645   5.313   0.526   2.400  0.2538  0.1521  0.0735
 5424ntf    cn124646   7.000   3.951   5.800 -0.1230  0.2580  0.1044
 5424ntf    sn224647   6.827   3.979   5.846 -0.0460  0.2775  0.3785
 5424ntf    nn324648   6.849   4.053   5.983 -0.0442 -0.0616  0.5643
 5424ntf    sn224649   6.851   4.209   6.002  0.0325  0.0701 -0.4614
 5424ntf    cn124650   6.673   4.240   6.026  0.1495 -0.0899  0.6698
 5424ntf    fn424651   7.085   3.877   5.869 -0.3468 -0.2208 -0.1284
 5424ntf    fn424652   6.999   3.889   5.682  0.0834  0.2071  0.1279
 5424ntf    fn424653   7.067   4.065   5.797 -0.2068  0.3113  0.3101
 5424ntf    on524654   6.768   4.060   5.743  0.8880  0.0076 -0.3863
 5424ntf    on524655   6.772   3.846   5.859 -0.3629  0.3933  0.2304
 5424ntf    on524656   6.878   4.292   5.887  0.0351  0.3062 -0.2899
 5424ntf    on524657   6.904   4.254   6.128 -0.8367  0.3239 -0.1742
 5424ntf    fn424658   6.646   4.365   6.061 -0.1815 -0.1112  0.4978
 5424ntf    fn424659   6.600   4.217   5.918  0.2549 -0.4902  0.6817
 5424ntf    fn424660   6.627   4.160   6.120  0.4942  0.0327  0.9442
 5425ntf    cn124661   0.759   5.693   2.330 -0.2422  0.1379 -0.3701
 5425ntf    sn224662   0.758   5.568   2.463  0.1950  0.4320 -0.0905
 5425ntf    nn324663   0.796   5.651   2.591  0.0846  0.1633  0.1175
 5425ntf    sn224664   0.756   5.633   2.742 -0.4865  0.2636 -0.0202
 5425ntf    cn124665   0.661   5.786   2.769 -0.0392  0.4386  0.5687
 5425ntf    fn424666   0.869   5.766   2.329 -0.5907  0.6840  0.2837
 5425ntf    fn424667   0.738   5.640   2.211  0.1879 -0.5478 -0.1483
 5425ntf    fn424668   0.655   5.774   2.345 -0.3061  0.0097 -0.1161
 5425ntf    on524669   0.623   5.518   2.465  0.3595 -0.0132  0.0454
 5425ntf    on524670   0.868   5.480   2.433 -0.0927 -0.0784  0.3348
 5425ntf    on524671   0.869   5.645   2.829 -0.2352  0.6148 -0.3907
 5425ntf    on524672   0.666   5.524   2.772 -0.1110  0.0621  0.3724
 5425ntf    fn424673   0.717   5.888   2.706  0.0649  0.2616  0.3733
 5425ntf    fn424674   0.539   5.772   2.720  0.1451 -0.3064  0.3060
 5425ntf    fn424675   0.662   5.809   2.899  0.2292 -0.2300  0.6898
 5426ntf    cn124676   0.729   0.222   1.236  0.1700 -0.0796  0.0320
 5426ntf    sn224677   0.770   0.239   1.412 -0.2889  0.0063  0.1322
 5426ntf    nn324678   0.849   0.104   1.426 -0.5753 -0.1796 -0.0441
 5426ntf    sn224679   1.005   0.093   1.434 -0.5626  0.2057  0.2620
 5426ntf    cn124680   1.020  -0.084   1.477  0.0023  0.2139  0.1171
 5426ntf    fn424681   0.661   0.322   1.182  0.2959 -0.2274 -0.4062
 5426ntf    fn424682   0.845   0.213   1.173 -0.3138  0.3137 -0.9231
 5426ntf    fn424683   0.670   0.107   1.209 -0.0167  0.1352 -0.4999
 5426ntf    on524684   0.840   0.365   1.417 -1.2002  0.5107  0.4560
 5426ntf    on524685   0.640   0.231   1.475 -0.6206  0.8330 -0.4386
 5426ntf    on524686   1.055   0.172   1.544 -0.3983 -0.1484  0.4458
 5426ntf    on524687   1.072   0.107   1.308 -0.0836  0.0328  0.4934
 5426ntf    fn424688   1.012  -0.172   1.380  0.2550  0.0317  0.2626
 5426ntf    fn424689   1.142  -0.108   1.520 -0.0306  0.5133  0.3860
 5426ntf    fn424690   0.940  -0.118   1.577 -0.2006 -0.6831 -0.3472
 5427ntf    cn124691   5.817   3.793   0.136 -0.0693  0.1505  0.1040
 5427ntf    sn224692   5.670   3.761   0.034  0.0738  0.1132 -0.0908
 5427ntf    nn324693   5.700   3.856  -0.087  0.2842 -0.1413 -0.2378
 5427ntf    sn224694   5.690   4.010  -0.113 -0.5013 -0.1315  0.0905
 5427ntf    cn124695   5.860   4.047  -0.167 -0.3922 -0.1498  0.4216
 5427ntf    fn424696   5.915   3.731   0.073  0.0772 -0.0959  0.5694
 5427ntf    fn424697   5.848   3.922   0.135  0.0128  0.1299 -0.1374
 5427ntf    fn424698   5.820   3.757   0.263 -0.1330 -0.3348 -0.0316
 5427ntf    on524699   5.682   3.623  -0.006  0.2960 -0.1329  0.7918
 5427ntf    on524700   5.553   3.803   0.107  0.3689 -0.0201  0.4704
 5427ntf    on524701   5.671   4.090   0.005 -0.8158  0.3031 -0.2480
 5427ntf    on524702   5.618   4.039  -0.235 -0.2130  0.0897 -0.0306
 5427ntf    fn424703   5.952   4.002  -0.083 -0.1877  0.8574  0.7418
 5427ntf    fn424704   5.889   3.997  -0.286 -0.2453  0.3907  0.2267
 5427ntf    fn424705   5.878   4.178  -0.175 -0.8753 -0.0917  0.2880
 5428ntf    cn124706   5.994   1.196   4.820  0.2804 -0.2449  0.3515
 5428ntf    sn224707   5.961   1.148   4.992 -0.0536 -0.2665  0.2810
 5428ntf    nn324708   5.807   1.166   5.014 -0.0457 -0.2143  0.2965
 5428ntf    sn224709   5.725   1.282   5.081 -0.1497 -0.1714  0.0958
 5428ntf    cn124710   5.560   1.245   5.014 -0.1756  0.2221 -0.0608
 5428ntf    fn424711   5.958   1.319   4.788  0.4221 -0.3671 -0.2941
 5428ntf    fn424712   6.119   1.183   4.777  0.2473  0.1677  0.1266
 5428ntf    fn424713   5.920   1.123   4.739  0.3188  0.3582 -0.2347
 5428ntf    on524714   5.998   1.010   5.006  0.8509 -0.0447  0.1303
 5428ntf    on524715   6.050   1.237   5.063 -0.0124  0.1698 -0.3169
 5428ntf    on524716   5.749   1.412   5.024 -0.3916 -0.1343  0.0766
 5428ntf    on524717   5.714   1.263   5.224  0.4069 -0.7428  0.0661
 5428ntf    fn424718   5.555   1.239   4.882  0.9991 -0.5228 -0.0910
 5428ntf    fn424719   5.511   1.131   5.061 -0.2300  0.0228 -0.5881
 5428ntf    fn424720   5.468   1.334   5.048  0.1322  0.4202  0.2556
 5429ntf    cn124721   0.749   7.339   6.365 -0.3818 -0.1045 -0.0509
 5429ntf    sn224722   0.747   7.443   6.514  0.4799 -0.1303 -0.0180
 5429ntf    nn324723   0.628   7.541   6.485 -0.0027 -0.6304  0.2572
 5429ntf    sn224724   0.475   7.524   6.516 -0.0945  0.0024  0.1682
 5429ntf    cn124725   0.401   7.682   6.463  0.1423  0.0901  0.0986
 5429ntf    fn424726   0.786   7.410   6.261 -0.3096  0.3281  0.2676
 5429ntf    fn424727   0.835   7.239   6.372 -0.0805  0.1557 -0.0615
 5429ntf    fn424728   0.636   7.281   6.328 -0.0501 -0.3988 -0.6042
 5429ntf    on524729   0.728   7.354   6.625  0.3806 -0.1073 -0.0169
 5429ntf    on524730   0.875   7.509   6.508  0.5368 -0.2720 -0.3650
 5429ntf    on524731   0.452   7.513   6.658  0.1766 -0.3188  0.1886
 5429ntf    on524732   0.413   7.421   6.435 -0.1667 -0.0524  0.2923
 5429ntf    fn424733   0.270   7.669   6.467  0.1279  0.2901  0.2801
 5429ntf    fn424734   0.426   7.784   6.543 -0.0429 -0.1969  0.5261
 5429ntf    fn424735   0.438   7.724   6.343  0.2875 -0.5189 -0.0729
 5430ntf    cn124736   6.258   4.815   1.093  0.4878 -0.1577 -0.0189
 5430ntf    sn224737   6.206   4.771   1.261  0.4051  0.2567  0.0639
 5430ntf    nn324738   6.232   4.617   1.247 -0.4312  0.0990  0.1650
 5430ntf    sn224739   6.130   4.504   1.209 -0.0806 -0.1531 -0.0403
 5430ntf    cn124740   6.226   4.432   1.073  0.2073  0.8011 -0.3512
 5430ntf    fn424741   6.253   4.944   1.066 -0.2682 -0.2326 -0.2608
 5430ntf    fn424742   6.383   4.782   1.065  0.5882 -0.1796  0.4461
 5430ntf    fn424743   6.188   4.751   1.001 -0.1284  0.4776  0.0032
 5430ntf    on524744   6.297   4.834   1.353  0.4350 -0.2597  0.3916
 5430ntf    on524745   6.068   4.813   1.272  0.2302 -0.1893 -0.3685
 5430ntf    on524746   6.006   4.541   1.146  0.0135  0.3108  0.0449
 5430ntf    on524747   6.126   4.391   1.299  1.0325 -0.2899 -0.1563
 5430ntf    fn424748   6.334   4.500   1.040  0.6637  0.2100 -0.1033
 5430ntf    fn424749   6.271   4.310   1.099 -0.9607  0.3195 -0.5034
 5430ntf    fn424750   6.148   4.423   0.966  0.2766  0.0892 -0.3503
 5431ntf    cn124751   0.526   6.630   2.421  0.1442 -0.1465 -0.2528
 5431ntf    sn224752   0.694   6.695   2.443  0.0731  0.0368 -0.2440
 5431ntf    nn324753   0.689   6.783   2.313 -0.2876  0.6455  0.1780
 5431ntf    sn224754   0.740   6.930   2.293  0.3992  0.4220  0.2857
 5431ntf    cn124755   0.830   6.895   2.139  0.2842 -0.1585  0.3472
 5431ntf    fn424756   0.439   6.725   2.388  0.2120 -0.1966 -0.5789
 5431ntf    fn424757   0.522   6.537   2.327 -0.0224 -0.1048 -0.2883
 5431ntf    fn424758   0.485   6.562   2.526  0.8227  0.2093  0.2471
 5431ntf    on524759   0.677   6.764   2.568 -0.8623  0.6122 -0.6794
 5431ntf    on524760   0.772   6.574   2.433  0.0070 -0.0582  0.3617
 5431ntf    on524761   0.841   6.977   2.384  0.6260 -0.1946  0.3602
 5431ntf    on524762   0.648   7.026   2.240 -0.1742  0.0413  0.5819
 5431ntf    fn424763   0.909   6.999   2.115 -0.2369  0.2016  0.1713
 5431ntf    fn424764   0.912   6.792   2.125  0.2021 -0.1684 -0.0802
 5431ntf    fn424765   0.747   6.889   2.036 -0.2311  0.1216  0.7444
 5432ntf    cn124766   5.843   6.991   0.482 -0.1519 -0.1358 -0.0385
 5432ntf    sn224767   5.919   7.153   0.515 -0.0820 -0.2729  0.4813
 5432ntf    nn324768   6.072   7.120   0.522  0.0418  0.2075  0.0926
 5432ntf    sn224769   6.185   7.135   0.415  0.2538 -0.1002  0.2722
 5432ntf    cn124770   6.228   7.311   0.436 -0.0134  0.0115 -0.1154
 5432ntf    fn424771   5.885   6.944   0.366 -0.6357 -0.1036 -0.2306
 5432ntf    fn424772   5.860   6.896   0.573 -0.2278  0.3691  0.5128
 5432ntf    fn424773   5.713   7.008   0.461 -0.1575  0.3176  0.3136
 5432ntf    on524774   5.874   7.225   0.399  1.4062  0.6449  0.4538
 5432ntf    on524775   5.860   7.186   0.643 -0.5429  0.1408  0.1697
 5432ntf    on524776   6.153   7.121   0.275 -0.0602  0.2626  0.3084
 5432ntf    on524777   6.300   7.060   0.460  0.5897  0.5097  0.4462
 5432ntf    fn424778   6.297   7.330   0.547  0.4637 -0.0908 -0.3905
 5432ntf    fn424779   6.307   7.353   0.339 -0.1312  0.3306 -0.0743
 5432ntf    fn424780   6.123   7.391   0.444 -0.3336 -0.4141  0.0306
 5433ntf    cn124781   5.415   2.266   1.587 -0.0257  0.5108  0.2695
 5433ntf    sn224782   5.385   2.203   1.755  0.4011 -0.1504  0.1023
 5433ntf    nn324783   5.502   2.099   1.746  0.3778 -0.1400 -0.3605
 5433ntf    sn224784   5.610   2.061   1.854 -0.3527 -0.1312  0.3776
 5433ntf    cn124785   5.754   2.120   1.760 -0.3722 -0.1531  0.3333
 5433ntf    fn424786   5.314   2.349   1.564 -0.1819  0.2454 -0.0216
 5433ntf    fn424787   5.528   2.334   1.590  0.1448  0.2299  0.2120
 5433ntf    fn424788   5.419   2.175   1.491 -0.1685  0.1633  0.5881
 5433ntf    on524789   5.409   2.316   1.842 -0.2628 -0.2565  0.4335
 5433ntf    on524790   5.253   2.146   1.749  0.1411  0.4635 -0.1000
 5433ntf    on524791   5.632   1.920   1.870  0.3874 -0.0129  0.4146
 5433ntf    on524792   5.620   2.139   1.975 -0.1173  0.5870 -0.0961
 5433ntf    fn424793   5.729   2.215   1.672  0.0279 -0.0159  0.3654
 5433ntf    fn424794   5.853   2.165   1.835 -0.7346  0.4495  0.4502
 5433ntf    fn424795   5.797   2.009   1.702 -0.1328  0.2000 -0.1721
 5434ntf    cn124796   1.355   6.591   3.316  0.0446  0.3899 -0.1128
 5434ntf    sn224797   1.491   6.657   3.417  0.1836 -0.2811  0.1434
 5434ntf    nn324798   1.510   6.549   3.529  0.3877 -0.1840  0.2031
 5434ntf    sn224799   1.418   6.534   3.656  0.3681 -0.2211  0.1847
 5434ntf    cn124800   1.522   6.609   3.785  0.0622  0.3099  0.1238
 5434ntf    fn424801   1.374   6.464   3.284 -0.0618  0.4250 -0.3186
 5434ntf    fn424802   1.237   6.597   3.377  0.2591 -0.1436  0.3519
 5434ntf    fn424803   1.327   6.651   3.202  0.2134  0.3655 -0.1668
 5434ntf    on524804   1.598   6.655   3.320 -0.1169 -0.7606 -0.1835
 5434ntf    on524805   1.455   6.789   3.465 -0.5779 -0.3688 -0.1725
 5434ntf    on524806   1.411   6.395   3.694 -0.0481 -0.2258  0.0919
 5434ntf    on524807   1.293   6.605   3.660  0.5334  0.1146 -0.4403
 5434ntf    fn424808   1.452   6.655   3.888  0.1011  0.8215 -0.0763
 5434ntf    fn424809   1.607   6.521   3.833 -0.2932 -0.2109 -0.1936
 5434ntf    fn424810   1.593   6.711   3.739  0.3808  0.0462  0.0280
 5435ntf    cn124811   5.994   3.051   2.136  0.3556 -0.3723 -0.0600
 5435ntf    sn224812   5.898   2.923   2.050 -0.1731 -0.0981  0.1146
 5435ntf    nn324813   5.866   2.995   1.914 -0.0310 -0.0653  0.0978
 5435ntf    sn224814   5.734   3.045   1.844  0.0779 -0.0840 -0.1231
 5435ntf    cn124815   5.785   3.197   1.759 -0.1382 -0.2284 -0.5117
 5435ntf    fn424816   6.108   3.096   2.085  0.0667  0.5946  0.1312
 5435ntf    fn424817   5.926   3.165   2.136  0.1595 -0.4736 -1.0832
 5435ntf    fn424818   6.027   3.030   2.262 -0.1730  0.5806  0.2523
 5435ntf    on524819   5.991   2.816   2.023  0.3440  0.3263  0.1812
 5435ntf    on524820   5.791   2.891   2.140  0.0489  0.1847  0.4830
 5435ntf    on524821   5.621   3.076   1.929  0.4092 -0.4679  0.4678
 5435ntf    on524822   5.693   2.959   1.736 -0.5500  0.1798 -0.0975
 5435ntf    fn424823   5.797   3.306   1.834 -0.0328 -0.2900 -0.4400
 5435ntf    fn424824   5.895   3.174   1.689 -0.1537  0.4987 -0.7893
 5435ntf    fn424825   5.697   3.237   1.669 -0.0733  0.9914 -0.0515
 5436ntf    cn124826   7.075   7.378   3.333 -0.1557  0.4850  0.5120
 5436ntf    sn224827   7.242   7.312   3.365 -0.3558 -0.2463  0.0731
 5436ntf    nn324828   7.280   7.382   3.501  0.2163  0.2437 -0.3313
 5436ntf    sn224829   7.338   7.524   3.533  0.4946  0.0699 -0.0593
 5436ntf    cn124830   7.517   7.496   3.514  0.3854 -0.4218 -0.3745
 5436ntf    fn424831   7.007   7.301   3.251  0.8237  0.2423 -0.0847
 5436ntf    fn424832   7.006   7.378   3.446 -0.1629  0.6712  0.5079
 5436ntf    fn424833   7.079   7.498   3.277 -0.1230  0.4061  0.3447
 5436ntf    on524834   7.215   7.171   3.377 -0.2071 -0.2744  0.0745
 5436ntf    on524835   7.316   7.360   3.251 -0.0370 -0.7687  0.0560
 5436ntf    on524836   7.319   7.563   3.670 -0.4452 -0.0607 -0.1488
 5436ntf    on524837   7.317   7.621   3.428  0.1417  0.4675  0.3761
 5436ntf    fn424838   7.564   7.472   3.393  0.1107  0.1057 -0.5876
 5436ntf    fn424839   7.586   7.596   3.566 -0.3276 -0.4898  0.7582
 5436ntf    fn424840   7.541   7.394   3.596 -0.3971 -0.0836  0.2939
 5437ntf    cn124841   5.586   2.766   6.079 -0.0892  0.4259  0.1397
 5437ntf    sn224842   5.596   2.601   6.002 -0.0717  0.2346  0.5491
 5437ntf    nn324843   5.707   2.639   5.897 -0.0138 -0.4642  0.3553
 5437ntf    sn224844   5.856   2.589   5.893  0.0717 -0.1733 -0.1379
 5437ntf    cn124845   5.839   2.522   5.725  0.1097  0.1087 -0.2539
 5437ntf    fn424846   5.529   2.859   6.004 -0.3511  0.4589  0.3791
 5437ntf    fn424847   5.518   2.765   6.192 -0.2093  0.3016  0.0674
 5437ntf    fn424848   5.702   2.815   6.118  0.2032 -0.1539  0.0054
 5437ntf    on524849   5.641   2.523   6.114  0.4062 -0.3079 -0.0143
 5437ntf    on524850   5.468   2.568   5.945  0.0229  0.0471  0.4439
 5437ntf    on524851   5.883   2.464   5.960 -0.2899  0.1556  0.6353
 5437ntf    on524852   5.950   2.695   5.870 -0.5978  0.4489 -0.0580
 5437ntf    fn424853   5.957   2.488   5.676  0.1898  0.5560 -0.3743
 5437ntf    fn424854   5.757   2.419   5.709  0.0444  0.1001  0.1385
 5437ntf    fn424855   5.787   2.617   5.649 -0.6187 -0.3362 -0.3277
 5438ntf    cn124856   3.672   3.757   2.264 -0.2663 -0.2647  0.0025
 5438ntf    sn224857   3.623   3.598   2.337 -0.3599 -0.1985  0.0829
 5438ntf    nn324858   3.659   3.503   2.217 -0.3375  0.4846 -0.4537
 5438ntf    sn224859   3.555   3.438   2.120  0.0303  0.2110 -0.6658
 5438ntf    cn124860   3.629   3.491   1.963  0.7683  0.1130 -0.3561
 5438ntf    fn424861   3.630   3.850   2.348  0.1739 -0.0654  0.0029
 5438ntf    fn424862   3.803   3.769   2.249 -0.2914 -0.4516 -0.3859
 5438ntf    fn424863   3.619   3.794   2.149 -0.0962  0.5547  0.1850
 5438ntf    on524864   3.725   3.582   2.438 -0.4409  0.3683  0.2607
 5438ntf    on524865   3.484   3.613   2.374 -0.3141  0.0603  0.1547
 5438ntf    on524866   3.423   3.495   2.121 -0.2414 -0.3967  0.8198
 5438ntf    on524867   3.574   3.295   2.113 -0.1542  0.1420  0.0962
 5438ntf    fn424868   3.554   3.451   1.861  0.4912 -0.1533 -0.0478
 5438ntf    fn424869   3.618   3.621   1.941  0.2433  0.0139 -0.6952
 5438ntf    fn424870   3.754   3.454   1.938  0.8135  0.1442 -0.1776
 5439ntf    cn124871   2.526   3.337   6.864  0.0830 -0.0634 -0.1518
 5439ntf    sn224872   2.450   3.492   6.807  0.3252  0.0864 -0.0683
 5439ntf    nn324873   2.485   3.586   6.927  0.5091  0.1068 -0.1381
 5439ntf    sn224874   2.589   3.703   6.935  0.3205  0.2554  0.1432
 5439ntf    cn124875   2.554   3.764   7.103 -0.1373  0.2495  0.0517
 5439ntf    fn424876   2.486   3.291   6.981 -0.1649 -0.8131 -0.5182
 5439ntf    fn424877   2.513   3.240   6.774  0.2462  0.1104 -0.3638
 5439ntf    fn424878   2.657   3.345   6.881  0.1128 -0.0953 -0.3630
 5439ntf    on524879   2.513   3.527   6.682 -0.0021  0.7451 -0.0520
 5439ntf    on524880   2.310   3.457   6.803  0.3141  0.1008  0.1860
 5439ntf    on524881   2.562   3.825   6.863  0.0035  0.4153  0.5265
 5439ntf    on524882   2.729   3.667   6.943  0.4390  0.5729 -0.4391
 5439ntf    fn424883   2.558   3.666   7.191  0.0790  0.2292  0.0192
 5439ntf    fn424884   2.638   3.859   7.142  0.7218 -0.6693  0.4690
 5439ntf    fn424885   2.433   3.817   7.105 -0.3099 -0.1552  0.2338
 5440ntf    cn124886   5.523   2.332   3.535  0.1651  0.2225 -0.0861
 5440ntf    sn224887   5.542   2.356   3.355  0.2144 -0.1244 -0.1295
 5440ntf    nn324888   5.485   2.216   3.314 -0.0003 -0.1595  0.2800
 5440ntf    sn224889   5.557   2.081   3.279 -0.0023 -0.1127  0.0947
 5440ntf    cn124890   5.524   1.966   3.416  0.0526  0.0289  0.2265
 5440ntf    fn424891   5.512   2.450   3.592 -0.1479  0.1171  0.0739
 5440ntf    fn424892   5.412   2.267   3.567  0.1650  0.2686  0.0053
 5440ntf    fn424893   5.626   2.270   3.591  0.5140 -0.1292 -1.0902
 5440ntf    on524894   5.449   2.463   3.326  0.4973  0.2079  0.1715
 5440ntf    on524895   5.684   2.375   3.342  0.1068 -0.0341 -1.2742
 5440ntf    on524896   5.699   2.084   3.258 -0.0387  0.4661 -0.0803
 5440ntf    on524897   5.483   2.010   3.177 -0.2704 -0.0372  0.2344
 5440ntf    fn424898   5.633   1.906   3.459 -0.0135 -0.5163 -0.3583
 5440ntf    fn424899   5.462   2.018   3.521 -0.3278 -0.0347  0.0351
 5440ntf    fn424900   5.442   1.870   3.376 -0.3708  0.4739  0.0240
 5441ntf    cn124901   4.666   2.000   2.494  0.3334 -0.0315  0.4972
 5441ntf    sn224902   4.835   2.063   2.476  0.3133 -0.1227 -0.0344
 5441ntf    nn324903   4.820   2.191   2.566  0.9018  0.0901 -0.2311
 5441ntf    sn224904   4.918   2.311   2.586  0.2787  0.6087 -0.2525
 5441ntf    cn124905   4.987   2.284   2.752 -0.4814 -0.3036 -0.0760
 5441ntf    fn424906   4.640   1.977   2.621  0.3287  0.2100  0.5403
 5441ntf    fn424907   4.582   2.092   2.448 -0.2640 -0.4472  0.7388
 5441ntf    fn424908   4.652   1.892   2.418 -0.4900  0.5294 -0.1779
 5441ntf    on524909   4.918   1.964   2.539  0.0253  0.0944  0.7018
 5441ntf    on524910   4.847   2.094   2.336 -0.2293  0.7226  0.0993
 5441ntf    on524911   4.849   2.437   2.595 -0.6696  0.0412  0.6279
 5441ntf    on524912   5.028   2.329   2.495  0.5663  0.2641  0.0208
 5441ntf    fn424913   4.999   2.154   2.775  1.0598 -0.2934 -0.6841
 5441ntf    fn424914   5.103   2.344   2.778 -0.4342 -0.3171 -0.2567
 5441ntf    fn424915   4.915   2.329   2.854  0.5568  0.0873  0.5071
 5442ntf    cn124916   4.760   5.517   4.769 -0.2806 -0.3726  0.2500
 5442ntf    sn224917   4.748   5.669   4.671 -0.0239 -0.1817  0.5117
 5442ntf    nn324918   4.614   5.632   4.597  0.1374 -0.1041  0.1795
 5442ntf    sn224919   4.470   5.663   4.651  0.0070 -0.1132 -0.1567
 5442ntf    cn124920   4.454   5.839   4.609  0.1673 -0.0333  0.1131
 5442ntf    fn424921   4.656   5.500   4.849 -0.0376 -0.6443  0.5109
 5442ntf    fn424922   4.771   5.408   4.694  0.4603  0.2141 -0.5133
 5442ntf    fn424923   4.869   5.515   4.844  0.0708 -0.2099 -0.2535
 5442ntf    on524924   4.743   5.777   4.767 -0.5064  0.0853  0.1938
 5442ntf    on524925   4.854   5.674   4.574 -0.0754 -0.3263  0.4480
 5442ntf    on524926   4.436   5.652   4.791  0.2731  1.2363  0.0330
 5442ntf    on524927   4.367   5.609   4.567 -0.2029 -0.0588  0.0675
 5442ntf    fn424928   4.328   5.879   4.596  0.0516 -0.4192  0.0295
 5442ntf    fn424929   4.511   5.926   4.691  0.3394 -0.6224  0.6309
 5442ntf    fn424930   4.510   5.865   4.492  0.1547 -0.2275  0.0642
 5443ntf    cn124931   2.251   5.103   6.676 -0.3824 -0.3230 -0.3004
 5443ntf    sn224932   2.274   4.935   6.742 -0.4222 -0.1996  0.0287
 5443ntf    nn324933   2.363   4.971   6.866 -0.2605 -0.0062 -0.1427
 5443ntf    sn224934   2.471   4.873   6.927 -0.1977  0.1039 -0.0779
 5443ntf    cn124935   2.383   4.814   7.074 -0.1655 -0.0666 -0.1269
 5443ntf    fn424936   2.366   5.156   6.638 -0.3297  0.1750  0.5227
 5443ntf    fn424937   2.175   5.113   6.569 -0.2368  0.1196 -0.3648
 5443ntf    fn424938   2.199   5.190   6.761  0.3593  0.2223 -0.3921
 5443ntf    on524939   2.146   4.888   6.789 -0.5667  0.3130  0.1573
 5443ntf    on524940   2.331   4.885   6.620  0.3678 -1.1008  0.7508
 5443ntf    on524941   2.583   4.946   6.981 -0.3346  0.1729  0.1154
 5443ntf    on524942   2.500   4.755   6.849  0.8389  0.3912 -0.1379
 5443ntf    fn424943   2.442   4.716   7.141  0.1846  0.2629  0.0511
 5443ntf    fn424944   2.357   4.914   7.157  0.3738 -0.4070  0.4619
 5443ntf    fn424945   2.262   4.769   7.044 -0.5846  0.5636  0.5842
 5444ntf    cn124946   1.615   0.938   3.579 -0.3637  0.1333 -0.4255
 5444ntf    sn224947   1.502   0.826   3.668  0.1061  0.0722  0.0956
 5444ntf    nn324948   1.547   0.685   3.615 -0.1646 -0.1104  0.3517
 5444ntf    sn224949   1.456   0.561   3.584 -0.1483 -0.0678  0.1315
 5444ntf    cn124950   1.583   0.434   3.557 -0.4295 -0.3189 -0.0157
 5444ntf    fn424951   1.602   1.064   3.616  1.1459  0.0322  0.5325
 5444ntf    fn424952   1.735   0.907   3.624 -0.7593  0.0856  0.6357
 5444ntf    fn424953   1.615   0.920   3.448 -0.1429  0.0729 -0.4172
 5444ntf    on524954   1.544   0.840   3.805 -0.0103 -0.0651  0.1454
 5444ntf    on524955   1.368   0.868   3.636  0.0897  0.1722  0.2958
 5444ntf    on524956   1.378   0.574   3.463 -0.4447 -0.5958  0.2629
 5444ntf    on524957   1.387   0.498   3.694 -0.0653 -0.2864  0.0599
 5444ntf    fn424958   1.643   0.396   3.669 -0.1496 -0.1075 -0.0930
 5444ntf    fn424959   1.520   0.334   3.498 -0.2853 -0.1419 -0.4661
 5444ntf    fn424960   1.682   0.466   3.476 -0.2583  0.2287  0.4029
 5445ntf    cn124961   2.444   4.627   2.285  0.4433 -0.0016 -0.2707
 5445ntf    sn224962   2.269   4.623   2.239  0.3488 -0.1794  0.0949
 5445ntf    nn324963   2.203   4.745   2.313  0.5859 -0.0727  0.1279
 5445ntf    sn224964   2.143   4.873   2.244 -0.1408 -0.3267  0.2834
 5445ntf    cn124965   2.135   4.979   2.392 -0.1963  0.1726 -0.0748
 5445ntf    fn424966   2.460   4.683   2.404 -0.6703 -0.7750  0.2535
 5445ntf    fn424967   2.503   4.510   2.269 -0.0226 -0.2019 -0.5252
 5445ntf    fn424968   2.512   4.706   2.204 -0.5414  0.4984 -0.6280
 5445ntf    on524969   2.259   4.612   2.095 -0.1115  0.4685  0.0702
 5445ntf    on524970   2.225   4.509   2.315  1.0356 -0.2118  0.4439
 5445ntf    on524971   2.006   4.847   2.208 -0.3392  0.6925  0.2647
 5445ntf    on524972   2.228   4.948   2.155  0.2038 -0.3919  0.5537
 5445ntf    fn424973   2.067   4.921   2.490 -0.1116 -0.5232 -0.4183
 5445ntf    fn424974   2.256   5.012   2.433 -0.3908 -0.3370  0.9386
 5445ntf    fn424975   2.070   5.090   2.358 -0.4836  0.0545  0.0814
 5446ntf    cn124976   0.248   1.403   0.142  0.0488  0.2829  0.1581
 5446ntf    sn224977   0.344   1.307   0.022 -0.1967 -0.1136  0.2759
 5446ntf    nn324978   0.455   1.237   0.108  0.4047  0.1441 -0.2818
 5446ntf    sn224979   0.438   1.098   0.177  0.0079  0.4342  0.2156
 5446ntf    cn124980   0.490   0.976   0.052  0.0583  0.1152  0.5463
 5446ntf    fn424981   0.174   1.331   0.225 -0.5093 -0.0818 -0.6407
 5446ntf    fn424982   0.322   1.482   0.218  0.1645 -0.0730  0.4170
 5446ntf    fn424983   0.159   1.479   0.081  0.3761  0.0649 -0.6002
 5446ntf    on524984   0.258   1.216  -0.050 -0.1512  0.0571  0.0002
 5446ntf    on524985   0.404   1.406  -0.064 -0.2661 -0.7043 -0.4700
 5446ntf    on524986   0.306   1.063   0.223 -0.0143  0.7715  0.4103
 5446ntf    on524987   0.534   1.073   0.282  0.2417  0.1027 -0.0733
 5446ntf    fn424988   0.441   1.021  -0.062 -0.0253 -0.3779  0.3852
 5446ntf    fn424989   0.620   0.964   0.033 -0.0245 -0.4051  0.2797
 5446ntf    fn424990   0.439   0.854   0.065 -0.4406  0.2610 -0.0254
 5447ntf    cn124991   1.359   4.104   3.024  0.1262 -0.1627  0.0329
 5447ntf    sn224992   1.184   4.149   3.003  0.0983 -0.0077  0.5798
 5447ntf    nn324993   1.195   4.229   2.869  0.5970 -0.5729  0.2776
 5447ntf    sn224994   1.122   4.212   2.731  0.1435  0.2920  0.4026
 5447ntf    cn124995   1.268   4.242   2.627 -0.1824 -0.2086 -0.2120
 5447ntf    fn424996   1.413   4.056   2.914 -0.2082 -0.4762  0.0026
 5447ntf    fn424997   1.422   4.211   3.070 -0.1490  0.0954 -0.1937
 5447ntf    fn424998   1.370   4.011   3.118 -0.4139  0.2462  0.5041
 5447ntf    on524999   1.119   4.020   3.003  0.4055 -0.1660 -0.0614
 5447ntf    on525000   1.160   4.236   3.116 -0.3186  0.5456  0.0684
 5447ntf    on525001   1.032   4.318   2.693  0.5563  0.5381  0.0988
 5447ntf    on525002   1.088   4.076   2.695 -0.9043  0.5553  0.3515
 5447ntf    fn425003   1.363   4.153   2.653 -0.3336 -0.0419  0.9965
 5447ntf    fn425004   1.245   4.239   2.497 -0.4969 -0.4337 -0.1532
 5447ntf    fn425005   1.324   4.361   2.643  0.1351 -0.4627  0.6722
 5448ntf    cn125006   4.703   6.424   2.771  0.6064  0.0896 -0.2929
 5448ntf    sn225007   4.657   6.489   2.607 -0.2596  0.3084  0.0318
 5448ntf    nn325008   4.796   6.537   2.552 -0.3774  0.0076 -0.5354
 5448ntf    sn225009   4.860   6.681   2.549  0.1829 -0.2317  0.0054
 5448ntf    cn125010   5.011   6.664   2.649  0.2481  0.0126 -0.0518
 5448ntf    fn425011   4.725   6.519   2.860 -0.1404 -0.3721  0.3895
 5448ntf    fn425012   4.613   6.338   2.815  0.4013  0.4247 -0.0494
 5448ntf    fn425013   4.812   6.351   2.757  0.3569 -0.3175 -0.1227
 5448ntf    on525014   4.606   6.375   2.534  0.6193  0.0550 -0.2010
 5448ntf    on525015   4.565   6.597   2.633  0.0289  0.3980  0.7058
 5448ntf    on525016   4.783   6.788   2.608 -0.3173 -1.0680  0.9084
 5448ntf    on525017   4.913   6.720   2.421  0.2439 -0.8102 -0.1480
 5448ntf    fn425018   5.090   6.565   2.608  0.7418  0.2934  0.2116
 5448ntf    fn425019   5.080   6.777   2.653  0.4577 -0.1166  0.0183
 5448ntf    fn425020   4.980   6.636   2.774 -0.7335  0.1954 -0.2519
 5449ntf    cn125021   3.595   6.115   4.570 -0.2449  0.1441  0.5177
 5449ntf    sn225022   3.567   6.030   4.412 -0.0065  0.1440  0.4744
 5449ntf    nn325023   3.585   5.881   4.459  0.2848 -0.0331 -0.1886
 5449ntf    sn225024   3.488   5.760   4.432  0.2967 -0.0652 -0.0918
 5449ntf    cn125025   3.540   5.639   4.557 -0.1521  0.3012  0.4541
 5449ntf    fn425026   3.575   6.245   4.556 -0.2512  0.1062  0.1737
 5449ntf    fn425027   3.509   6.076   4.663 -0.0454 -0.8288  0.3015
 5449ntf    fn425028   3.719   6.106   4.615 -0.2979  0.0209  0.6404
 5449ntf    on525029   3.435   6.069   4.368  0.1016  0.2638  0.2539
 5449ntf    on525030   3.677   6.073   4.331 -0.1525 -0.1880  0.0947
 5449ntf    on525031   3.514   5.680   4.315 -0.1263 -0.1340 -0.1386
 5449ntf    on525032   3.350   5.785   4.466  0.4456 -0.1358  0.5765
 5449ntf    fn425033   3.654   5.591   4.510 -0.1581  0.1422  0.6039
 5449ntf    fn425034   3.575   5.701   4.668  0.8069 -0.0452  0.3549
 5449ntf    fn425035   3.455   5.541   4.578 -0.2270  0.3072  0.1861
 5450ntf    cn125036   4.547   3.800   0.865 -0.2114 -0.3508 -0.0388
 5450ntf    sn225037   4.503   3.976   0.878 -0.0005 -0.3241  0.3254
 5450ntf    nn325038   4.568   4.042   0.751 -0.2232 -0.7169  0.0039
 5450ntf    sn225039   4.497   4.067   0.613  0.0541  0.0729 -0.0004
 5450ntf    cn125040   4.628   4.170   0.541  0.2261 -0.2081 -0.0925
 5450ntf    fn425041   4.469   3.735   0.780 -0.4569  0.1036 -0.1644
 5450ntf    fn425042   4.675   3.792   0.831 -0.2064  0.2194 -0.1650
 5450ntf    fn425043   4.536   3.742   0.983 -0.3282  0.4660  0.3576
 5450ntf    on525044   4.359   3.966   0.873  0.0267 -0.8462  0.4736
 5450ntf    on525045   4.562   4.016   1.003  0.3143 -0.2025  0.1389
 5450ntf    on525046   4.380   4.152   0.608 -0.0508 -0.0670  0.0690
 5450ntf    on525047   4.491   3.952   0.526  0.6960 -0.1802  0.2788
 5450ntf    fn425048   4.630   4.291   0.595  0.5124  0.0095 -0.5818
 5450ntf    fn425049   4.749   4.118   0.535  0.4609  0.3223 -0.0090
 5450ntf    fn425050   4.606   4.202   0.414  0.5570  0.1693 -0.0571
 5451ntf    cn125051   3.220   2.870   5.882  0.1140 -0.1910 -0.4183
 5451ntf    sn225052   3.051   2.813   5.850 -0.1015  0.1754  0.0551
 5451ntf    nn325053   3.082   2.671   5.791 -0.3006  0.1449  0.0214
 5451ntf    sn225054   3.094   2.626   5.641  0.2833  0.1508  0.0646
 5451ntf    cn125055   3.190   2.473   5.662 -0.0642 -0.0727  0.0216
 5451ntf    fn425056   3.297   2.876   5.775  0.5916  0.4601 -0.0484
 5451ntf    fn425057   3.219   2.993   5.930  0.4219 -0.2726 -0.1988
 5451ntf    fn425058   3.294   2.799   5.966  0.1571  0.2222 -0.1014
 5451ntf    on525059   2.999   2.795   5.984 -0.2252  0.1738  0.0064
 5451ntf    on525060   2.993   2.911   5.762  0.0644 -0.2199 -0.5004
 5451ntf    on525061   3.184   2.706   5.561  0.1229 -0.0723 -0.3410
 5451ntf    on525062   2.969   2.584   5.584  0.3448 -0.5019  0.4040
 5451ntf    fn425063   3.304   2.490   5.726 -0.0273  0.2494 -0.1273
 5451ntf    fn425064   3.122   2.376   5.721 -0.3235 -0.1229 -0.3575
 5451ntf    fn425065   3.219   2.434   5.539 -0.3052  0.3090 -0.1589
 5452ntf    cn125066   2.726   3.191   0.025  0.0678  0.3680  0.5247
 5452ntf    sn225067   2.636   3.120   0.167 -0.2270  0.1312  0.2225
 5452ntf    nn325068   2.718   2.986   0.168  0.0197  0.2801  0.1278
 5452ntf    sn225069   2.761   2.899   0.291 -0.1027 -0.1999 -0.1674
 5452ntf    cn125070   2.924   2.956   0.348 -0.0693 -0.4786  0.0206
 5452ntf    fn425071   2.852   3.223   0.049  0.1353  0.2569  0.3140
 5452ntf    fn425072   2.751   3.108  -0.075 -0.4575 -0.0943  0.7655
 5452ntf    fn425073   2.666   3.303  -0.010  0.5186  0.5101  0.2082
 5452ntf    on525074   2.663   3.217   0.271  0.4626  0.2349 -0.0443
 5452ntf    on525075   2.507   3.107   0.106 -0.0451  0.0846 -0.1557
 5452ntf    on525076   2.787   2.761   0.259  0.4197 -0.0748 -0.2856
 5452ntf    on525077   2.676   2.925   0.404 -0.0734  0.5141 -0.3082
 5452ntf    fn425078   2.966   2.899   0.459 -0.3784 -0.4662  0.1444
 5452ntf    fn425079   3.019   2.948   0.256  0.5090  0.6214  0.5098
 5452ntf    fn425080   2.914   3.085   0.374  0.4834 -0.3988 -0.1389
 5453ntf    cn125081   2.586   5.584   2.293  0.0358 -0.1124 -0.2228
 5453ntf    sn225082   2.721   5.622   2.178  0.0986 -0.1514 -0.1617
 5453ntf    nn325083   2.678   5.766   2.132  0.2279 -0.1103 -0.1571
 5453ntf    sn225084   2.718   5.906   2.189 -0.1246  0.1034 -0.4277
 5453ntf    cn125085   2.562   5.996   2.167 -0.1284  0.1685 -0.1311
 5453ntf    fn425086   2.474   5.545   2.233  0.0667 -0.5834  0.0201
 5453ntf    fn425087   2.610   5.481   2.373  0.2665  0.0624 -0.0666
 5453ntf    fn425088   2.556   5.685   2.373  0.3209 -0.3681  0.2105
 5453ntf    on525089   2.837   5.624   2.264 -0.2087  0.1843  0.2522
 5453ntf    on525090   2.713   5.518   2.079  0.6892  0.0449 -0.4220
 5453ntf    on525091   2.814   5.977   2.108 -0.1821  0.5174 -0.1345
 5453ntf    on525092   2.737   5.914   2.331 -0.4985 -0.3113 -0.3515
 5453ntf    fn425093   2.582   6.121   2.207  0.1992  0.2127 -0.4280
 5453ntf    fn425094   2.517   6.008   2.043 -0.1088  0.0022 -0.1542
 5453ntf    fn425095   2.467   5.945   2.243  0.3923 -0.3405  0.1842
 5454ntf    cn125096   0.080   6.158   3.968  0.0172  0.0220  0.3153
 5454ntf    sn225097   0.091   6.323   3.894 -0.2177 -0.0399  0.1403
 5454ntf    nn325098  -0.038   6.306   3.806 -0.5837 -0.0004  0.6671
 5454ntf    sn225099  -0.079   6.398   3.686  0.2062 -0.2042  0.2366
 5454ntf    cn125100  -0.060   6.281   3.548  0.1652  0.1313 -0.0549
 5454ntf    fn425101  -0.031   6.092   3.937 -0.2128  0.1468  0.8501
 5454ntf    fn425102   0.180   6.079   3.934 -0.1792  0.0995 -0.4741
 5454ntf    fn425103   0.081   6.177   4.099  0.2425 -0.2541  0.3552
 5454ntf    on525104   0.070   6.411   4.006  0.0888 -0.2073  0.3305
 5454ntf    on525105   0.217   6.329   3.824 -0.2564  0.2748  0.0956
 5454ntf    on525106   0.015   6.505   3.667  0.2277 -0.1885  0.4349
 5454ntf    on525107  -0.220   6.426   3.679  0.3483  0.5046  0.0909
 5454ntf    fn425108  -0.128   6.172   3.580  0.5118 -0.0109  0.1992
 5454ntf    fn425109  -0.111   6.323   3.433 -0.2216  0.1534  0.1229
 5454ntf    fn425110   0.068   6.253   3.530  0.1582  0.0951 -0.0501
 5455ntf    cn125111   3.504   3.168   6.097  0.4725 -0.5096  0.2566
 5455ntf    sn225112   3.629   3.141   5.967  0.1150 -0.2917 -0.1347
 5455ntf    nn325113   3.751   3.212   6.035 -0.3297  0.4918 -0.1517
 5455ntf    sn225114   3.884   3.267   5.973  0.1065 -0.1216  0.2303
 5455ntf    cn125115   3.837   3.443   5.985 -0.0365 -0.1705  0.3932
 5455ntf    fn425116   3.381   3.121   6.086  0.3158  0.0645 -0.5980
 5455ntf    fn425117   3.544   3.121   6.214 -0.0797 -0.0876  0.6218
 5455ntf    fn425118   3.488   3.298   6.116  0.4582 -0.4948  0.1418
 5455ntf    on525119   3.633   2.997   5.958  0.6076 -0.2796 -0.1279
 5455ntf    on525120   3.581   3.201   5.845  0.0118 -0.2326 -0.0653
 5455ntf    on525121   3.906   3.245   5.832 -1.1159  0.4751 -0.0725
 5455ntf    on525122   3.999   3.243   6.057  0.1306 -0.3371  0.1359
 5455ntf    fn425123   3.910   3.522   5.908  0.0275 -0.6930 -0.0903
 5455ntf    fn425124   3.710   3.455   5.952 -0.0649  0.2260  0.6449
 5455ntf    fn425125   3.847   3.482   6.111  0.1135  0.5142  0.1732
 5456ntf    cn125126   6.998   5.443   2.497 -0.0331 -0.2653 -0.0319
 5456ntf    sn225127   6.993   5.624   2.483 -0.1128 -0.2371  0.3475
 5456ntf    nn325128   6.892   5.643   2.364  0.3632  0.4992  0.0481
 5456ntf    sn225129   6.889   5.765   2.265  0.5308  0.4537 -0.0129
 5456ntf    cn125130   6.936   5.671   2.117 -0.1313  0.0121  0.0555
 5456ntf    fn425131   6.877   5.398   2.527  0.0322 -0.4023  0.0229
 5456ntf    fn425132   7.040   5.390   2.384  0.3221  0.2860 -0.1632
 5456ntf    fn425133   7.069   5.393   2.597  0.0264  0.0026  0.0604
 5456ntf    on525134   6.939   5.668   2.609 -0.1578 -0.4130  0.3897
 5456ntf    on525135   7.128   5.658   2.445  0.0703 -0.8465  0.4524
 5456ntf    on525136   6.982   5.873   2.281  0.5816  0.4186 -0.0727
 5456ntf    on525137   6.756   5.801   2.223  0.5918  0.2923 -0.3469
 5456ntf    fn425138   7.061   5.629   2.127 -0.2119 -0.1884  0.2259
 5456ntf    fn425139   6.861   5.563   2.100  0.0488 -0.1916  0.5513
 5456ntf    fn425140   6.940   5.726   1.997 -0.2701  0.4550  0.2517
 5457ntf    cn125141   6.608   1.022   2.713 -0.2637  0.2616 -0.2463
 5457ntf    sn225142   6.462   0.926   2.665 -0.2352  0.0327  0.1215
 5457ntf    nn325143   6.442   0.818   2.777 -0.7493  0.1990  0.1968
 5457ntf    sn225144   6.510   0.678   2.797 -0.1518  0.3784 -0.5236
 5457ntf    cn125145   6.364   0.569   2.788  0.1112 -0.0367  0.1621
 5457ntf    fn425146   6.658   1.094   2.613  0.5409 -0.2631 -0.2310
 5457ntf    fn425147   6.581   1.104   2.813  0.5186  0.4432 -0.1726
 5457ntf    fn425148   6.707   0.944   2.754 -0.1649  0.5270  0.0208
 5457ntf    on525149   6.358   1.026   2.671  0.0598  0.4269 -1.0761
 5457ntf    on525150   6.498   0.885   2.532 -0.7340 -0.7838  0.2332
 5457ntf    on525151   6.558   0.656   2.931 -0.2714  0.1757 -0.5125
 5457ntf    on525152   6.597   0.622   2.696 -0.3158 -0.4185 -0.2367
 5457ntf    fn425153   6.253   0.641   2.802 -0.0832 -0.1982 -0.5420
 5457ntf    fn425154   6.360   0.500   2.676  0.5489  0.0390  0.0964
 5457ntf    fn425155   6.371   0.472   2.878  0.2269  0.2213  0.4341
 5458ntf    cn125156   6.442   3.249   1.973 -0.2609  0.0373 -0.3306
 5458ntf    sn225157   6.359   3.359   1.854 -0.2966  0.2402 -0.1194
 5458ntf    nn325158   6.251   3.416   1.952 -0.3014  0.6245 -0.3483
 5458ntf    sn225159   6.265   3.532   2.057 -0.1794  0.4259 -0.1461
 5458ntf    cn125160   6.190   3.448   2.199 -0.2078  0.6146 -0.0495
 5458ntf    fn425161   6.346   3.185   2.038 -0.5886  0.3012 -0.5515
 5458ntf    fn425162   6.509   3.152   1.913  0.5564  0.0435  0.5494
 5458ntf    fn425163   6.513   3.307   2.069 -0.9319 -0.5677  0.5511
 5458ntf    on525164   6.470   3.442   1.812 -0.2497  0.0196 -0.4326
 5458ntf    on525165   6.306   3.255   1.770  0.1078 -0.1420  0.0934
 5458ntf    on525166   6.176   3.642   2.031 -0.1768  0.4402 -0.0935
 5458ntf    on525167   6.396   3.564   2.108  0.0066  0.1088 -0.4177
 5458ntf    fn425168   6.087   3.507   2.257 -0.2404  0.2169  0.3016
 5458ntf    fn425169   6.147   3.325   2.173 -0.3308  0.6225  0.1147
 5458ntf    fn425170   6.272   3.428   2.301 -0.6303 -0.3663  0.1067
 5459ntf    cn125171   6.785   5.359   3.213 -0.3278  0.1941 -0.0545
 5459ntf    sn225172   6.863   5.479   3.101  0.1538  0.0240  0.0965
 5459ntf    nn325173   6.900   5.577   3.218  0.5534  0.3219 -0.2770
 5459ntf    sn225174   6.834   5.713   3.263  0.3531  0.0969  0.1102
 5459ntf    cn125175   6.981   5.816   3.294  0.4258 -0.0064  0.1113
 5459ntf    fn425176   6.691   5.422   3.281  0.2962  0.5967  0.4456
 5459ntf    fn425177   6.729   5.257   3.149 -0.1879 -0.1141  0.3093
 5459ntf    fn425178   6.863   5.301   3.303 -0.1204  0.2054 -0.2255
 5459ntf    on525179   6.976   5.412   3.041 -0.0905 -0.2393 -0.0691
 5459ntf    on525180   6.763   5.530   3.011  0.2013  0.3233  0.2145
 5459ntf    on525181   6.775   5.694   3.393 -0.1520  0.3546 -0.0818
 5459ntf    on525182   6.759   5.782   3.162  0.1085  0.1999  0.3631
 5459ntf    fn425183   7.060   5.843   3.191  0.1220  0.0838 -0.1011
 5459ntf    fn425184   6.960   5.929   3.359 -0.1123 -0.0632  0.0396
 5459ntf    fn425185   7.066   5.751   3.371  0.0522 -0.5784  0.0508
 5460ntf    cn125186   2.867   2.421   2.536  0.2021  0.6252  0.2253
 5460ntf    sn225187   2.690   2.467   2.537 -0.0014 -0.1432 -0.2381
 5460ntf    nn325188   2.620   2.326   2.538  0.4813 -0.3848  0.1195
 5460ntf    sn225189   2.583   2.245   2.409 -0.1249 -0.0168  0.0574
 5460ntf    cn125190   2.473   2.115   2.473 -0.0708 -0.1638 -0.1483
 5460ntf    fn425191   2.888   2.319   2.455 -0.8965  0.2800  0.3501
 5460ntf    fn425192   2.932   2.523   2.482 -0.0147  0.6070 -0.0758
 5460ntf    fn425193   2.927   2.399   2.652 -0.0871 -0.0060  0.2555
 5460ntf    on525194   2.686   2.535   2.663  0.2508 -0.0098 -0.2998
 5460ntf    on525195   2.676   2.541   2.414  0.6601 -0.2863 -0.4057
 5460ntf    on525196   2.688   2.175   2.340  0.1885  0.3922  0.1160
 5460ntf    on525197   2.497   2.331   2.332  0.4715  0.0679 -0.5170
 5460ntf    fn425198   2.417   2.043   2.377  0.2562 -0.2370 -0.2856
 5460ntf    fn425199   2.534   2.024   2.548 -0.2757 -0.5151 -0.4011
 5460ntf    fn425200   2.371   2.169   2.538  0.2587  0.2589  0.0211
 5461ntf    cn125201   3.030   4.712   2.106 -0.1682  0.0461 -0.4212
 5461ntf    sn225202   2.914   4.849   2.130 -0.0347  0.0841  0.0038
 5461ntf    nn325203   3.001   4.976   2.099  0.0684 -0.0763 -0.3647
 5461ntf    sn225204   2.984   5.084   1.987 -0.5368  0.2735  0.0592
 5461ntf    cn125205   3.099   5.018   1.862 -0.1689 -0.2104  0.6507
 5461ntf    fn425206   3.040   4.695   1.975 -0.5309  0.6009 -0.5236
 5461ntf    fn425207   3.150   4.743   2.152 -0.3878  0.0123  0.1869
 5461ntf    fn425208   2.986   4.601   2.164  0.9600 -0.2743 -0.1399
 5461ntf    on525209   2.812   4.806   2.037  0.0068 -0.0718  0.0306
 5461ntf    on525210   2.885   4.841   2.271  0.0869 -0.2078  0.0129
 5461ntf    on525211   3.044   5.212   2.018 -0.2376  0.2466 -0.3996
 5461ntf    on525212   2.858   5.095   1.916 -0.5797 -0.0223  0.0915
 5461ntf    fn425213   3.143   5.112   1.781  0.2053 -0.5136  0.5031
 5461ntf    fn425214   3.212   4.983   1.920 -0.0715 -0.1205  0.5137
 5461ntf    fn425215   3.052   4.913   1.797  0.4770  0.0431 -0.2450
 5462ntf    cn125216   1.014   2.281   3.204  0.0059 -0.2310  0.3883
 5462ntf    sn225217   1.180   2.260   3.273  0.0346  0.1771  0.4498
 5462ntf    nn325218   1.245   2.385   3.205  0.8321 -0.4060  0.1142
 5462ntf    sn225219   1.253   2.528   3.269 -0.2622 -0.1310 -0.3291
 5462ntf    cn125220   1.407   2.498   3.360 -0.1238 -0.1611 -0.5713
 5462ntf    fn425221   1.021   2.326   3.079 -0.0274 -0.5150  0.2842
 5462ntf    fn425222   0.951   2.165   3.205  0.0649 -0.2638  0.2852
 5462ntf    fn425223   0.930   2.365   3.263 -0.2409 -0.3280  0.1786
 5462ntf    on525224   1.166   2.264   3.416 -0.6538 -0.2097  0.3980
 5462ntf    on525225   1.235   2.142   3.211  0.4373  0.4862  0.2181
 5462ntf    on525226   1.155   2.560   3.370 -0.0496  0.6361 -0.3601
 5462ntf    on525227   1.295   2.627   3.172  0.1778  0.0242  0.0176
 5462ntf    fn425228   1.412   2.384   3.427  0.4563  0.2979  0.1885
 5462ntf    fn425229   1.525   2.513   3.301 -0.2431  0.3603 -0.6803
 5462ntf    fn425230   1.406   2.589   3.457 -0.1120 -0.4563 -0.2932
 5463ntf    cn125231   3.518   0.851   4.308 -0.1678  0.2923 -0.2740
 5463ntf    sn225232   3.601   0.891   4.152  0.4716  0.0118 -0.0092
 5463ntf    nn325233   3.738   0.943   4.209  0.3777 -0.0843  0.3057
 5463ntf    sn225234   3.837   1.045   4.142  0.1215  0.3065  0.5150
 5463ntf    cn125235   3.996   0.987   4.210  0.1379 -0.0281  0.1905
 5463ntf    fn425236   3.391   0.818   4.289  0.0061 -0.5728  0.0355
 5463ntf    fn425237   3.577   0.747   4.366 -0.2285  0.1681 -0.4340
 5463ntf    fn425238   3.524   0.956   4.389  0.2506 -0.0539  0.1506
 5463ntf    on525239   3.612   0.763   4.087 -0.0462  0.0068 -0.0879
 5463ntf    on525240   3.509   0.989   4.098 -0.4058 -0.8719 -0.1454
 5463ntf    on525241   3.809   1.181   4.181 -0.0554  0.4735 -0.1765
 5463ntf    on525242   3.855   1.032   4.000 -0.5075 -0.0752  0.4668
 5463ntf    fn425243   4.098   1.058   4.164  0.3680 -0.1441  0.5194
 5463ntf    fn425244   3.987   0.995   4.341 -0.1860  0.1338  0.1604
 5463ntf    fn425245   4.020   0.859   4.186  0.4574  0.0416  0.1426
 5464ntf    cn125246   1.144   2.904   6.126  0.0944  0.2556  0.2479
 5464ntf    sn225247   1.138   2.907   6.307 -0.2259  0.0409  0.2425
 5464ntf    nn325248   0.999   2.975   6.332 -0.2515  0.1718 -0.2528
 5464ntf    sn225249   0.964   3.122   6.375  0.2884  0.2812 -0.1773
 5464ntf    cn125250   0.981   3.104   6.555  0.1708 -0.1616 -0.2092
 5464ntf    fn425251   1.069   2.815   6.062  0.0143  0.6564 -0.2186
 5464ntf    fn425252   1.103   3.022   6.083  0.2115  0.2428  0.1015
 5464ntf    fn425253   1.266   2.895   6.075 -0.2240 -0.0673 -0.4811
 5464ntf    on525254   1.121   2.768   6.344 -0.5154 -0.2064 -0.7848
 5464ntf    on525255   1.250   2.980   6.360 -0.0765  0.2692 -0.3824
 5464ntf    on525256   0.823   3.153   6.369  0.2044 -0.1273 -0.3181
 5464ntf    on525257   1.053   3.231   6.346  0.3477  0.3243  0.1621
 5464ntf    fn425258   1.105   3.072   6.590  0.0390 -0.4124  0.0313
 5464ntf    fn425259   0.963   3.216   6.624 -0.0114 -0.3124 -0.0095
 5464ntf    fn425260   0.905   3.015   6.616  0.2901  0.0590  0.2713
 5465ntf    cn125261   2.851   0.034   5.173  0.2056 -0.2610  0.4172
 5465ntf    sn225262   2.696   0.122   5.211  0.1484 -0.1870  0.0160
 5465ntf    nn325263   2.731   0.244   5.119 -0.7565 -0.0109 -0.1061
 5465ntf    sn225264   2.780   0.390   5.147 -0.1300 -0.2139 -0.1209
 5465ntf    cn125265   2.705   0.478   5.007  0.1927 -0.0734 -0.2069
 5465ntf    fn425266   2.965   0.089   5.209  0.2185  0.0617 -0.1194
 5465ntf    fn425267   2.843  -0.076   5.247 -0.1139 -0.4381  0.1221
 5465ntf    fn425268   2.862  -0.006   5.048  0.0023 -0.2100  0.3826
 5465ntf    on525269   2.591   0.039   5.159 -0.3030 -0.3993  1.2280
 5465ntf    on525270   2.691   0.142   5.354 -0.0908 -0.0041 -0.0170
 5465ntf    on525271   2.920   0.412   5.120 -0.1584  0.4029  0.2071
 5465ntf    on525272   2.720   0.461   5.257 -0.3109  0.2523 -0.5169
 5465ntf    fn425273   2.716   0.610   5.000  0.1147 -0.0420  0.2292
 5465ntf    fn425274   2.760   0.433   4.895  0.2373  0.2204 -0.3059
 5465ntf    fn425275   2.576   0.450   5.016  0.1338  0.2249 -0.1130
 5466ntf    cn125276   1.749   5.003   2.353 -0.0506 -0.0074  0.1787
 5466ntf    sn225277   1.605   5.015   2.464  0.0622  0.1582  0.3074
 5466ntf    nn325278   1.490   5.040   2.360  0.2703 -0.0806  0.0190
 5466ntf    sn225279   1.388   4.935   2.305  0.1058  0.1440 -0.1054
 5466ntf    cn125280   1.238   5.019   2.365 -0.0263 -0.3328  0.2372
 5466ntf    fn425281   1.713   4.917   2.259  0.5951  0.3422 -0.4004
 5466ntf    fn425282   1.783   5.121   2.306 -0.3923  0.1145  0.2396
 5466ntf    fn425283   1.848   4.950   2.424 -0.2963  0.0813  0.5946
 5466ntf    on525284   1.607   4.886   2.528  0.1864  0.3467  0.6896
 5466ntf    on525285   1.628   5.129   2.550  0.5980  0.1659  0.1609
 5466ntf    on525286   1.386   4.801   2.358  0.0628  0.0802 -0.2669
 5466ntf    on525287   1.364   4.952   2.164 -0.1365 -0.1502 -0.1020
 5466ntf    fn425288   1.252   5.149   2.349 -0.3750 -0.3320 -0.0976
 5466ntf    fn425289   1.134   4.979   2.294  0.1706  0.1246 -0.3141
 5466ntf    fn425290   1.220   5.002   2.495  0.0054  0.1882  0.3098
 5467ntf    cn125291   0.369   4.317   2.663  0.3054 -0.0229  0.2570
 5467ntf    sn225292   0.348   4.451   2.543 -0.1478 -0.0994  0.2517
 5467ntf    nn325293   0.278   4.572   2.614 -0.2967  0.1438 -0.2990
 5467ntf    sn225294   0.128   4.619   2.602 -0.4710 -0.2741  0.1743
 5467ntf    cn125295   0.064   4.545   2.755  0.2215 -0.1078  0.5525
 5467ntf    fn425296   0.452   4.224   2.617  0.3392  0.2647 -0.2610
 5467ntf    fn425297   0.423   4.348   2.780 -0.5659  0.3023  0.5760
 5467ntf    fn425298   0.255   4.261   2.700  0.0609  0.1383 -0.2481
 5467ntf    on525299   0.485   4.484   2.513  0.0248 -0.7537  0.3033
 5467ntf    on525300   0.277   4.387   2.434  0.1107 -0.4614  0.2963
 5467ntf    on525301   0.053   4.552   2.499  0.1356 -0.5799 -0.0740
 5467ntf    on525302   0.114   4.762   2.612  0.5336 -0.1651  0.1342
 5467ntf    fn425303   0.083   4.415   2.768  0.2150 -0.1318  0.3301
 5467ntf    fn425304   0.127   4.590   2.862  0.5096 -0.5527  0.5729
 5467ntf    fn425305  -0.065   4.565   2.777  0.2139  0.6259 -0.1230
 5468ntf    cn125306   2.616   4.180   3.710 -0.0442  0.2649 -0.1077
 5468ntf    sn225307   2.440   4.137   3.727  0.0769 -0.0728  0.3035
 5468ntf    nn325308   2.428   4.045   3.600  0.2410  0.2782  0.0315
 5468ntf    sn225309   2.303   4.022   3.509  0.3507 -0.0234 -0.0449
 5468ntf    cn125310   2.358   4.102   3.355  0.0405  0.0888 -0.0985
 5468ntf    fn425311   2.661   4.243   3.817  0.2811  0.1607 -0.1834
 5468ntf    fn425312   2.691   4.074   3.685 -0.5029  0.0395 -0.5440
 5468ntf    fn425313   2.627   4.262   3.606  0.2078  0.5413  0.1363
 5468ntf    on525314   2.443   4.079   3.859  0.0440  0.1634  0.4084
 5468ntf    on525315   2.372   4.264   3.722  0.3501  0.0478 -0.4236
 5468ntf    on525316   2.188   4.104   3.542  0.0963 -0.4669  0.1778
 5468ntf    on525317   2.277   3.888   3.464 -0.5534  0.0086  0.3493
 5468ntf    fn425318   2.363   4.234   3.359  0.1147  0.0970 -0.4204
 5468ntf    fn425319   2.480   4.059   3.329 -0.0126  0.0413 -0.2683
 5468ntf    fn425320   2.295   4.060   3.246  0.2221 -0.2487 -0.0756
 5469ntf    cn125321   3.872   4.227   5.917 -0.2600 -0.2867  0.3627
 5469ntf    sn225322   3.804   4.331   6.050  0.0709  0.0703  0.2563
 5469ntf    nn325323   3.677   4.381   5.974  0.3002  0.0337 -0.1545
 5469ntf    sn225324   3.608   4.520   5.951  0.1541  0.0290  0.2436
 5469ntf    cn125325   3.460   4.495   6.054 -0.2003 -0.1046 -0.2956
 5469ntf    fn425326   3.988   4.170   5.945  0.0642  0.0258 -0.3251
 5469ntf    fn425327   3.790   4.130   5.880 -0.0881  0.0840 -1.0424
 5469ntf    fn425328   3.904   4.298   5.810 -0.3906 -0.1454  0.4166
 5469ntf    on525329   3.761   4.238   6.153 -1.0504  0.0443 -0.2258
 5469ntf    on525330   3.910   4.422   6.086  0.0010  0.1118  0.3566
 5469ntf    on525331   3.547   4.541   5.822 -0.3654  0.3426  0.5373
 5469ntf    on525332   3.682   4.629   6.010 -0.3336  0.3943  0.1928
 5469ntf    fn425333   3.355   4.561   6.008 -0.2144 -0.1940 -0.3937
 5469ntf    fn425334   3.430   4.369   6.080  0.5464 -0.3842 -0.7383
 5469ntf    fn425335   3.477   4.549   6.173  0.0202  0.7028 -0.6883
 5470ntf    cn125336   1.874   1.907   4.807 -0.0707 -0.3689  0.1917
 5470ntf    sn225337   1.996   1.894   4.941  0.0117 -0.3977  0.1136
 5470ntf    nn325338   1.930   1.996   5.040  0.1221 -0.5024  0.2952
 5470ntf    sn225339   1.936   2.152   5.032  0.4310 -0.5242  0.0624
 5470ntf    cn125340   2.057   2.170   5.167  0.1727 -0.5355  0.2966
 5470ntf    fn425341   1.900   1.825   4.707 -0.0530 -0.5729  0.3648
 5470ntf    fn425342   1.756   1.880   4.861 -0.2449  0.1159  0.0603
 5470ntf    fn425343   1.861   2.031   4.760 -0.1241 -0.3815  0.1736
 5470ntf    on525344   1.981   1.756   4.980  0.2330 -0.4553 -0.0028
 5470ntf    on525345   2.121   1.923   4.875 -0.2079  1.1307  0.3444
 5470ntf    on525346   1.820   2.211   5.095  0.4715 -0.2147 -0.1513
 5470ntf    on525347   1.999   2.212   4.917 -0.1453  0.4699  0.2453
 5470ntf    fn425348   2.076   2.296   5.201 -0.5679 -0.3802  0.1538
 5470ntf    fn425349   2.015   2.099   5.271 -0.4710  0.0421  0.4390
 5470ntf    fn425350   2.174   2.126   5.125  0.1914 -0.1718 -0.0354
 5471ntf    cn125351   0.383   4.320   6.119  0.1567 -0.2108 -0.2685
 5471ntf    sn225352   0.383   4.210   5.974 -0.1325 -0.2176 -0.2634
 5471ntf    nn325353   0.537   4.178   5.979 -0.1303 -0.2606 -0.5774
 5471ntf    sn225354   0.617   4.050   6.024 -0.1688 -0.1109 -0.0703
 5471ntf    cn125355   0.713   4.007   5.875  0.0025  0.0363 -0.0032
 5471ntf    fn425356   0.263   4.363   6.154  0.3772  0.0304  0.1974
 5471ntf    fn425357   0.420   4.253   6.227  0.1743  0.2308  0.0012
 5471ntf    fn425358   0.460   4.427   6.117  0.1456 -0.1881  0.2917
 5471ntf    on525359   0.288   4.108   6.013  0.0857 -0.1917  0.3531
 5471ntf    on525360   0.335   4.283   5.860 -0.2315 -0.3408 -0.3004
 5471ntf    on525361   0.544   3.930   6.056  0.4778 -0.3070  0.6845
 5471ntf    on525362   0.720   4.086   6.117 -0.8541  0.6526  0.4105
 5471ntf    fn425363   0.644   4.006   5.762  0.0222 -0.1195 -0.0134
 5471ntf    fn425364   0.807   4.095   5.844  0.0826 -0.1410 -0.2637
 5471ntf    fn425365   0.775   3.890   5.877  0.0415  0.0557 -0.1471
 5472ntf    cn125366   3.649   2.175   1.634  0.8999 -0.1213  0.1883
 5472ntf    sn225367   3.592   2.058   1.761 -0.0535  0.1689  0.0361
 5472ntf    nn325368   3.562   1.927   1.679  0.2902  0.2735 -0.2551
 5472ntf    sn225369   3.428   1.847   1.668  0.3320  0.1966 -0.2071
 5472ntf    cn125370   3.377   1.907   1.504 -0.3030  0.0035 -0.0834
 5472ntf    fn425371   3.681   2.294   1.681  0.1436  0.3357 -0.4324
 5472ntf    fn425372   3.756   2.133   1.569  0.6690  0.1752 -0.3911
 5472ntf    fn425373   3.560   2.202   1.539  0.9220  0.5758  0.3605
 5472ntf    on525374   3.714   2.053   1.838 -0.0371  0.6821  0.0439
 5472ntf    on525375   3.484   2.127   1.827  0.3163  0.5517  0.2397
 5472ntf    on525376   3.317   1.875   1.755  0.7348  0.2511  0.2867
 5472ntf    on525377   3.455   1.708   1.636 -0.5710  0.0117 -0.1805
 5472ntf    fn425378   3.262   1.854   1.466 -0.1783 -0.3878  0.0732
 5472ntf    fn425379   3.363   2.038   1.504  0.1273  0.0532  0.4547
 5472ntf    fn425380   3.460   1.866   1.409 -0.5717 -0.3721 -0.1606
 5473ntf    cn125381   2.372   7.039   3.077  0.0531  0.2735  0.2442
 5473ntf    sn225382   2.344   6.904   3.196 -0.0110  0.0185 -0.0601
 5473ntf    nn325383   2.490   6.849   3.213 -0.1156 -0.1849  0.1872
 5473ntf    sn225384   2.547   6.709   3.171 -0.2858 -0.1495 -0.1668
 5473ntf    cn125385   2.506   6.611   3.319  0.3929 -0.3155 -0.0864
 5473ntf    fn425386   2.453   7.005   2.979  0.2141  0.5067  0.2962
 5473ntf    fn425387   2.261   7.076   3.015  0.4561 -0.1564 -0.7436
 5473ntf    fn425388   2.410   7.152   3.134  0.3442  0.1785  0.2362
 5473ntf    on525389   2.304   6.967   3.319  0.4447  0.4515 -0.1279
 5473ntf    on525390   2.259   6.807   3.131  0.0417 -0.0567 -0.0164
 5473ntf    on525391   2.691   6.714   3.176 -0.3206  0.3613  0.4084
 5473ntf    on525392   2.494   6.633   3.061 -0.1708 -0.2275 -0.1691
 5473ntf    fn425393   2.527   6.483   3.293 -0.1318 -0.4036 -0.0819
 5473ntf    fn425394   2.579   6.641   3.425  0.1235  0.4920 -0.1228
 5473ntf    fn425395   2.377   6.619   3.345  0.5562  0.4576  0.5382
 5474ntf    cn125396   0.602   5.093   1.472  0.0497 -0.1117 -0.0007
 5474ntf    sn225397   0.751   5.111   1.575  0.0140 -0.3560  0.0943
 5474ntf    nn325398   0.700   5.188   1.701 -0.0535 -0.1038 -0.0874
 5474ntf    sn225399   0.677   5.342   1.726  0.5239 -0.0511  0.1499
 5474ntf    cn125400   0.846   5.390   1.772  0.4738  0.2258  0.0476
 5474ntf    fn425401   0.631   5.040   1.354  0.2129  0.4528 -0.2152
 5474ntf    fn425402   0.511   5.009   1.520  0.1347 -0.1811  0.0405
 5474ntf    fn425403   0.544   5.210   1.452 -0.3445 -0.3144 -0.0569
 5474ntf    on525404   0.788   4.977   1.615  0.1977 -0.3700 -0.1172
 5474ntf    on525405   0.838   5.193   1.495  0.1862 -0.4491  0.1849
 5474ntf    on525406   0.601   5.367   1.845  0.3255 -0.2951  0.0763
 5474ntf    on525407   0.645   5.421   1.610 -0.5338 -0.7620 -0.0548
 5474ntf    fn425408   0.859   5.395   1.903  0.1154  0.0458  0.0909
 5474ntf    fn425409   0.941   5.308   1.728  0.0865 -0.2885  0.1646
 5474ntf    fn425410   0.886   5.509   1.731 -0.0646  0.2805 -0.3219
 5475ntf    cn125411   3.045   6.686   4.569 -0.0023 -0.2630  0.3609
 5475ntf    sn225412   2.961   6.830   4.495 -0.0669 -0.5106 -0.0477
 5475ntf    nn325413   3.032   6.842   4.356  0.1700 -0.2973  0.0919
 5475ntf    sn225414   2.987   6.757   4.232 -0.3657  0.0514  0.0438
 5475ntf    cn125415   2.853   6.861   4.167 -0.2630  0.1512 -0.0083
 5475ntf    fn425416   3.176   6.703   4.567 -0.0309 -0.1124 -0.3379
 5475ntf    fn425417   3.006   6.663   4.694  0.1886  0.3765  0.5436
 5475ntf    fn425418   3.030   6.577   4.496  0.5812 -0.0449 -0.0907
 5475ntf    on525419   2.821   6.796   4.499 -0.2291  0.1653  0.2121
 5475ntf    on525420   3.006   6.939   4.578  0.0778 -0.0504 -0.7278
 5475ntf    on525421   2.915   6.637   4.268  0.2424 -0.2804  0.1619
 5475ntf    on525422   3.088   6.745   4.129  0.2812 -0.3677  0.7165
 5475ntf    fn425423   2.890   6.970   4.101 -0.3143  0.1207 -0.0877
 5475ntf    fn425424   2.770   6.808   4.078  0.0710 -0.1250 -0.1573
 5475ntf    fn425425   2.775   6.901   4.266 -0.0812  0.0622  0.1724
 5476ntf    cn125426   1.359   3.457   4.026 -0.3213 -0.2597 -0.2203
 5476ntf    sn225427   1.445   3.329   4.122  0.0786 -0.0227 -0.2583
 5476ntf    nn325428   1.317   3.247   4.161  0.2838 -0.2338 -0.0292
 5476ntf    sn225429   1.279   3.096   4.139  0.3197 -0.2254 -0.1483
 5476ntf    cn125430   1.121   3.099   4.229  0.3972 -0.2451 -0.0108
 5476ntf    fn425431   1.258   3.509   4.094  0.4844  0.4456  0.4566
 5476ntf    fn425432   1.438   3.559   3.994 -0.2688 -0.2670 -0.1125
 5476ntf    fn425433   1.302   3.409   3.916 -0.2274 -0.1241 -0.3286
 5476ntf    on525434   1.545   3.266   4.041  0.5142 -0.1780  0.3911
 5476ntf    on525435   1.495   3.393   4.241 -0.8572  0.3208 -0.0369
 5476ntf    on525436   1.363   2.999   4.204  0.5689  0.4960  0.6363
 5476ntf    on525437   1.226   3.074   4.007 -0.7738  0.2090  0.1999
 5476ntf    fn425438   1.148   3.141   4.351 -0.5046  0.1596  0.0610
 5476ntf    fn425439   1.036   3.182   4.171  0.2959 -0.3696 -0.0421
 5476ntf    fn425440   1.071   2.978   4.250  0.1841 -0.1580 -0.0065
 5477ntf    cn125441   2.416   2.956   5.733 -0.1314 -0.2248  0.3879
 5477ntf    sn225442   2.392   2.921   5.557 -0.0168 -0.1871  0.3648
 5477ntf    nn325443   2.369   2.766   5.565  0.1042 -0.2253  0.0110
 5477ntf    sn225444   2.412   2.656   5.462 -0.0217 -0.0610 -0.2202
 5477ntf    cn125445   2.340   2.503   5.530  0.1685 -0.1303 -0.1737
 5477ntf    fn425446   2.400   3.087   5.752  0.1174 -0.1833  0.3079
 5477ntf    fn425447   2.330   2.888   5.807 -0.5981  0.1445  0.1898
 5477ntf    fn425448   2.537   2.924   5.775  0.3607  0.9765 -0.0567
 5477ntf    on525449   2.276   3.001   5.526 -0.0433 -0.4866 -0.3268
 5477ntf    on525450   2.521   2.961   5.506  0.0921  0.2262  0.9525
 5477ntf    on525451   2.554   2.636   5.458  0.0298  0.2040  0.2640
 5477ntf    on525452   2.342   2.665   5.336 -0.0194  0.0462 -0.2133
 5477ntf    fn425453   2.218   2.526   5.576  0.5587 -0.3358  1.0049
 5477ntf    fn425454   2.345   2.414   5.432 -0.3629  0.3906 -0.6813
 5477ntf    fn425455   2.421   2.457   5.624 -0.3336 -0.1633  0.2487
 5478ntf    cn125456   6.826   2.059   2.232 -0.1970 -0.6288  0.0895
 5478ntf    sn225457   6.914   2.082   2.390 -0.0679  0.2723 -0.1117
 5478ntf    nn325458   7.052   2.010   2.367 -0.0164  0.3126  0.0756
 5478ntf    sn225459   7.094   1.859   2.360 -0.2570  0.2382  0.2046
 5478ntf    cn125460   7.140   1.839   2.185 -0.3567  0.3642  0.1643
 5478ntf    fn425461   6.697   2.088   2.239  0.1169  0.8430  0.0592
 5478ntf    fn425462   6.878   2.131   2.135  0.6185 -0.7593  0.4235
 5478ntf    fn425463   6.836   1.937   2.180 -0.0106 -0.5185 -0.1314
 5478ntf    on525464   6.929   2.225   2.402 -0.1324  0.2658  0.0411
 5478ntf    on525465   6.830   2.017   2.487  0.5177  0.0617  0.2619
 5478ntf    on525466   6.990   1.759   2.362 -0.0893  0.0726  0.5346
 5478ntf    on525467   7.207   1.832   2.446 -0.5829  0.3174  0.6599
 5478ntf    fn425468   7.100   1.949   2.122  0.2429  0.3333 -0.2739
 5478ntf    fn425469   7.270   1.834   2.165 -0.4500 -0.5573 -0.2425
 5478ntf    fn425470   7.095   1.726   2.133  0.2553  0.0468  0.3243
 5479ntf    cn125471   1.997   2.139   3.104  0.0494 -0.4027 -0.0003
 5479ntf    sn225472   1.851   2.239   3.143  0.1608 -0.1242 -0.2932
 5479ntf    nn325473   1.879   2.244   3.297 -0.2639 -0.0466 -0.2156
 5479ntf    sn225474   1.819   2.147   3.405  0.0051 -0.2022 -0.2023
 5479ntf    cn125475   1.850   2.250   3.552  0.0086 -0.0330 -0.3212
 5479ntf    fn425476   2.102   2.218   3.086 -0.3573  0.0216 -0.5064
 5479ntf    fn425477   2.030   2.046   3.193  0.4158 -0.0347  0.2546
 5479ntf    fn425478   1.990   2.086   2.983  0.5772 -0.1494 -0.1461
 5479ntf    on525479   1.879   2.367   3.084 -0.5074  0.1580 -0.0053
 5479ntf    on525480   1.737   2.166   3.093  0.1074  0.2207 -0.6854
 5479ntf    on525481   1.900   2.030   3.429 -0.2458 -0.3120  0.1318
 5479ntf    on525482   1.675   2.134   3.400  0.0055 -0.3140  0.0603
 5479ntf    fn425483   1.824   2.183   3.663  0.5936  0.7240  0.2808
 5479ntf    fn425484   1.974   2.293   3.560 -0.0646  0.0693  0.2993
 5479ntf    fn425485   1.775   2.359   3.563  0.0706 -0.0107 -0.1280
 5480ntf    cn125486   3.752   5.649   5.411  0.1016 -0.0550  0.3821
 5480ntf    sn225487   3.790   5.685   5.585  0.3024 -0.1015  0.3482
 5480ntf    nn325488   3.938   5.725   5.554  0.0036  0.4603 -0.3918
 5480ntf    sn225489   4.075   5.680   5.617 -0.2378  0.1133 -0.1119
 5480ntf    cn125490   4.171   5.834   5.617 -0.4606  0.2530 -0.1722
 5480ntf    fn425491   3.789   5.757   5.343  0.4945 -0.3577  0.1062
 5480ntf    fn425492   3.815   5.542   5.365  0.2572  0.5580 -0.8801
 5480ntf    fn425493   3.625   5.624   5.384  0.2868 -0.1661 -0.4379
 5480ntf    on525494   3.705   5.799   5.610 -0.0963 -0.2174 -0.4429
 5480ntf    on525495   3.764   5.565   5.662 -0.1795 -0.0320  0.2989
 5480ntf    on525496   4.143   5.586   5.531  0.5513  0.4567  0.1331
 5480ntf    on525497   4.067   5.646   5.757  0.1611  0.0387 -0.1067
 5480ntf    fn425498   4.129   5.906   5.719 -0.4272 -0.2748  0.2168
 5480ntf    fn425499   4.299   5.807   5.637 -0.5294 -0.0210 -0.1052
 5480ntf    fn425500   4.161   5.910   5.508 -0.4626  1.0223  0.3577
 5481ntf    cn125501   1.522   0.420   1.375  0.2292 -0.5142 -0.2394
 5481ntf    sn225502   1.571   0.576   1.296 -0.1576 -0.2282  0.0821
 5481ntf    nn325503   1.437   0.658   1.293  0.2029  0.3747  0.1661
 5481ntf    sn225504   1.340   0.669   1.169  0.1620 -0.0936  0.1537
 5481ntf    cn125505   1.391   0.835   1.115  0.2204 -0.1904 -0.0876
 5481ntf    fn425506   1.431   0.364   1.297  0.0609 -0.3646 -0.1536
 5481ntf    fn425507   1.616   0.328   1.378  0.6715 -0.0722 -0.4279
 5481ntf    fn425508   1.463   0.434   1.493  0.5701 -0.2563 -0.0991
 5481ntf    on525509   1.658   0.631   1.397 -0.3398 -0.2222  0.2368
 5481ntf    on525510   1.639   0.534   1.176 -0.4815 -0.1169 -0.1412
 5481ntf    on525511   1.201   0.677   1.207 -0.1294  0.4967 -1.0032
 5481ntf    on525512   1.372   0.583   1.059  0.0876 -0.0263  0.0798
 5481ntf    fn425513   1.368   0.926   1.208 -0.0795 -0.3602  0.0051
 5481ntf    fn425514   1.521   0.852   1.097  0.0285  0.7751 -0.5945
 5481ntf    fn425515   1.330   0.885   1.009 -0.0549 -0.4257 -0.0416
 5482ntf    cn125516   3.652   3.531   0.130 -0.0251  0.0071 -0.1329
 5482ntf    sn225517   3.647   3.504   0.309  0.2777  0.1184 -0.1075
 5482ntf    nn325518   3.531   3.600   0.354  0.0563 -0.3902  0.4265
 5482ntf    sn225519   3.528   3.694   0.480  0.0391  0.2377 -0.0372
 5482ntf    cn125520   3.411   3.817   0.415 -0.4524 -0.1757  0.0634
 5482ntf    fn425521   3.713   3.645   0.101  0.2869  0.0089  0.5305
 5482ntf    fn425522   3.707   3.430   0.064 -0.0031  0.0466 -0.1754
 5482ntf    fn425523   3.534   3.540   0.071 -0.1301  0.0083  0.0792
 5482ntf    on525524   3.611   3.365   0.319  0.1357  0.1395 -0.3260
 5482ntf    on525525   3.785   3.534   0.339  0.3484  0.1408 -0.4498
 5482ntf    on525526   3.640   3.778   0.516  0.1850  0.0304 -0.0067
 5482ntf    on525527   3.447   3.640   0.586 -0.6798  0.2451 -0.5680
 5482ntf    fn425528   3.293   3.763   0.388 -0.3088 -0.4928  0.0622
 5482ntf    fn425529   3.392   3.925   0.488 -0.5661 -0.3903  0.3541
 5482ntf    fn425530   3.448   3.858   0.295 -0.2715  0.1986  0.2474
 5483ntf    cn125531   3.437   0.174   5.730  0.0743  0.2810  0.1222
 5483ntf    sn225532   3.598   0.219   5.800  0.1685 -0.0901  0.1508
 5483ntf    nn325533   3.557   0.233   5.951  0.6017  0.9418  0.1827
 5483ntf    sn225534   3.511   0.357   6.036 -0.0790  0.4178  0.5893
 5483ntf    cn125535   3.492   0.267   6.193 -0.6246 -0.7420 -0.1335
 5483ntf    fn425536   3.366   0.100   5.814 -0.2290  0.5770  0.1307
 5483ntf    fn425537   3.359   0.268   5.679 -0.6437 -0.1972  0.3109
 5483ntf    fn425538   3.464   0.090   5.631  0.0392  0.4079  0.0056
 5483ntf    on525539   3.684   0.104   5.788  0.3026 -0.0272  0.4995
 5483ntf    on525540   3.634   0.342   5.734  0.1228 -0.3166 -0.3002
 5483ntf    on525541   3.375   0.394   6.008 -0.0283  0.2914  0.1722
 5483ntf    on525542   3.618   0.454   6.046 -0.0340  0.4043  0.2605
 5483ntf    fn425543   3.426   0.346   6.276 -0.0827 -0.8918  0.4408
 5483ntf    fn425544   3.405   0.168   6.171 -0.6839 -0.6063 -0.5241
 5483ntf    fn425545   3.601   0.222   6.251 -0.5504  0.0977  0.3834
 5484ntf    cn125546   6.305   4.264   0.270 -0.1388 -0.1156 -0.1027
 5484ntf    sn225547   6.318   4.332   0.439 -0.0879  0.1987 -0.2321
 5484ntf    nn325548   6.377   4.470   0.395 -0.9902  0.8454  0.5583
 5484ntf    sn225549   6.492   4.556   0.458 -0.2617  0.1478  0.1931
 5484ntf    cn125550   6.392   4.685   0.537 -0.2303  0.1545  0.2228
 5484ntf    fn425551   6.398   4.319   0.195 -0.6713 -0.2740 -0.8859
 5484ntf    fn425552   6.325   4.134   0.263  0.1268 -0.0897  0.1685
 5484ntf    fn425553   6.184   4.285   0.220  0.0539  0.0958 -0.4850
 5484ntf    on525554   6.182   4.338   0.486 -0.1388  0.0421 -0.3558
 5484ntf    on525555   6.408   4.241   0.505 -0.6059  0.1781  0.4510
 5484ntf    on525556   6.572   4.627   0.362 -0.2273  0.3274  0.3546
 5484ntf    on525557   6.562   4.497   0.570 -0.4060 -0.3674  0.0184
 5484ntf    fn425558   6.360   4.788   0.460  0.7778  0.0135 -0.3958
 5484ntf    fn425559   6.271   4.643   0.569 -0.1025 -0.3162  0.0840
 5484ntf    fn425560   6.455   4.745   0.637  0.6716  0.1779 -0.3514
 5485ntf    cn125561   5.622   1.422   3.976 -0.0801 -0.2798 -0.3414
 5485ntf    sn225562   5.714   1.384   4.127 -0.1907 -0.3492 -0.2911
 5485ntf    nn325563   5.653   1.499   4.215  0.5177 -0.3869  0.2599
 5485ntf    sn225564   5.531   1.471   4.309  0.0188  0.1359 -0.2246
 5485ntf    cn125565   5.615   1.433   4.466 -0.2861 -0.1123 -0.1209
 5485ntf    fn425566   5.662   1.339   3.881  0.6842 -0.0678 -0.2037
 5485ntf    fn425567   5.492   1.398   3.989  0.0187 -0.9846 -0.5894
 5485ntf    fn425568   5.640   1.546   3.933 -0.4360 -0.0634  0.1180
 5485ntf    on525569   5.675   1.248   4.157  0.2628 -0.4233 -0.0153
 5485ntf    on525570   5.852   1.417   4.103 -0.3738  0.5385 -0.1420
 5485ntf    on525571   5.443   1.357   4.297  0.0139  0.0964  0.1855
 5485ntf    on525572   5.472   1.598   4.344  0.2957  0.0758  0.4768
 5485ntf    fn425573   5.707   1.523   4.494 -0.4234 -0.2261  0.7153
 5485ntf    fn425574   5.523   1.431   4.561 -0.4919  0.3063 -0.3095
 5485ntf    fn425575   5.674   1.315   4.455  0.1009  0.0039  0.6861
 5486ntf    cn125576   0.031   4.207   4.292  0.0231  0.1243  0.1879
 5486ntf    sn225577  -0.110   4.096   4.324  0.0636 -0.0173 -0.1250
 5486ntf    nn325578  -0.177   4.145   4.457 -0.2621 -0.3388 -0.1707
 5486ntf    sn225579  -0.160   4.081   4.599 -0.3003  0.1826  0.0707
 5486ntf    cn125580  -0.175   4.234   4.695  0.1762  0.1995  0.1192
 5486ntf    fn425581   0.010   4.336   4.276  0.0502  0.1088  0.0284
 5486ntf    fn425582   0.118   4.193   4.391 -0.1686  0.3715  0.3911
 5486ntf    fn425583   0.092   4.168   4.181 -0.5548 -0.0526 -0.0760
 5486ntf    on525584  -0.191   4.124   4.207  0.5997  0.1475 -0.4628
 5486ntf    on525585  -0.042   3.969   4.326  0.1329  0.0229  0.0249
 5486ntf    on525586  -0.025   4.044   4.633 -0.3117  0.2856  0.2330
 5486ntf    on525587  -0.284   4.016   4.634 -0.2905  0.0545 -0.1346
 5486ntf    fn425588  -0.285   4.307   4.681 -0.2578 -0.3157  0.7601
 5486ntf    fn425589  -0.175   4.209   4.825 -0.4549  0.2054  0.1229
 5486ntf    fn425590  -0.065   4.303   4.671  0.5855 -0.6491 -0.4505
 5487ntf    cn125591   1.736   5.941   4.403 -0.4516  0.0523  0.2346
 5487ntf    sn225592   1.703   5.776   4.473  0.2891 -0.1702  0.0675
 5487ntf    nn325593   1.804   5.679   4.402  0.1962 -0.5450  0.4432
 5487ntf    sn225594   1.959   5.706   4.399  0.1485 -0.3066  0.0996
 5487ntf    cn125595   2.007   5.598   4.536  0.0291 -0.5235 -0.0285
 5487ntf    fn425596   1.831   5.999   4.475 -0.2483  0.4123 -0.3235
 5487ntf    fn425597   1.784   5.936   4.280 -0.5299 -0.4847  0.2214
 5487ntf    fn425598   1.630   6.020   4.403 -0.6305 -0.1836  0.2465
 5487ntf    on525599   1.720   5.789   4.616 -0.2275  0.1376  0.1029
 5487ntf    on525600   1.569   5.741   4.433 -0.0491  0.4452  0.6428
 5487ntf    on525601   2.009   5.839   4.424  0.2749 -0.3802  0.2346
 5487ntf    on525602   2.014   5.643   4.282 -0.0074 -0.6879  0.2297
 5487ntf    fn425603   1.911   5.565   4.621 -0.6117  0.3339 -0.4146
 5487ntf    fn425604   2.051   5.482   4.489 -0.1252 -0.1612 -1.0650
 5487ntf    fn425605   2.103   5.648   4.613 -0.0697 -0.4571  0.0517
 5488ntf    cn125606   4.942   3.683   1.033  0.4458 -0.6332 -0.0569
 5488ntf    sn225607   4.998   3.614   1.192 -0.1298 -0.2879  0.3012
 5488ntf    nn325608   4.874   3.524   1.224 -0.5998  0.2637  0.0356
 5488ntf    sn225609   4.852   3.371   1.201  0.1684  0.1227  0.2303
 5488ntf    cn125610   4.708   3.380   1.091  0.1039 -0.1429  0.2901
 5488ntf    fn425611   4.908   3.602   0.934 -0.3831  0.0046 -0.3049
 5488ntf    fn425612   4.837   3.762   1.047  0.9315  0.0319 -0.1686
 5488ntf    fn425613   5.038   3.761   0.988  0.0424 -0.1998 -0.1748
 5488ntf    on525614   5.121   3.546   1.158 -0.2283 -0.3391  0.0494
 5488ntf    on525615   5.007   3.731   1.277  0.8587 -0.0201 -0.1514
 5488ntf    on525616   4.812   3.316   1.328  0.2084  0.0965  0.2318
 5488ntf    on525617   4.956   3.303   1.127 -0.0897  0.6628 -0.6452
 5488ntf    fn425618   4.643   3.267   1.074 -0.1284  0.0092  0.1534
 5488ntf    fn425619   4.620   3.466   1.142 -0.1978 -0.1816 -0.1571
 5488ntf    fn425620   4.744   3.424   0.971 -0.8753 -0.1479 -0.0126
 5489ntf    cn125621   1.191   3.316   3.195 -0.0231  0.1431 -0.1460
 5489ntf    sn225622   1.172   3.137   3.176  0.0438  0.1007  0.1744
 5489ntf    nn325623   1.300   3.119   3.086 -0.0754  0.1230 -0.0015
 5489ntf    sn225624   1.317   3.152   2.934 -0.3214  0.1552 -0.0227
 5489ntf    cn125625   1.268   2.988   2.871 -0.2599 -0.0335  0.4155
 5489ntf    fn425626   1.310   3.341   3.248 -0.1556 -0.1739  0.3049
 5489ntf    fn425627   1.177   3.381   3.081 -0.1775  0.1034 -0.1505
 5489ntf    fn425628   1.099   3.361   3.280  0.1519 -0.1333  0.1930
 5489ntf    on525629   1.185   3.096   3.313  0.8933  0.3976  0.1835
 5489ntf    on525630   1.041   3.106   3.122  0.3475  0.0061 -0.5234
 5489ntf    on525631   1.456   3.169   2.902 -0.2324  1.1757  0.8644
 5489ntf    on525632   1.234   3.253   2.873 -0.4899 -0.3929 -0.7138
 5489ntf    fn425633   1.142   2.954   2.889 -0.2808 -0.1069  0.1376
 5489ntf    fn425634   1.289   2.985   2.740 -0.1255  0.3727  0.4239
 5489ntf    fn425635   1.339   2.886   2.917 -0.3213 -0.4606 -0.4205
 5490ntf    cn125636   3.670   2.242   4.929 -0.2704 -0.1784 -0.2339
 5490ntf    sn225637   3.665   2.128   4.787 -0.0757 -0.3271 -0.1217
 5490ntf    nn325638   3.687   2.232   4.672  0.3210 -0.2434  0.0286
 5490ntf    sn225639   3.600   2.276   4.548 -0.0257 -0.1069  0.3187
 5490ntf    cn125640   3.718   2.357   4.437 -0.1136 -0.0795  0.2454
 5490ntf    fn425641   3.668   2.172   5.041  0.1530  0.3495  0.1059
 5490ntf    fn425642   3.783   2.311   4.929 -0.2064 -0.2845  0.0061
 5490ntf    fn425643   3.571   2.330   4.933 -0.2620 -0.1542 -0.4862
 5490ntf    on525644   3.779   2.042   4.805  0.3390  0.2094 -0.1571
 5490ntf    on525645   3.531   2.074   4.796 -0.4473  0.4239 -0.9633
 5490ntf    on525646   3.510   2.385   4.579  0.3319  0.5417 -0.8697
 5490ntf    on525647   3.545   2.163   4.478 -0.0402 -0.2167  0.5075
 5490ntf    fn425648   3.645   2.416   4.344 -0.0039  0.1751  0.3199
 5490ntf    fn425649   3.796   2.447   4.495 -0.1911  0.2479 -0.1550
 5490ntf    fn425650   3.794   2.270   4.372 -0.3016  0.0506 -0.1534
 5491ntf    cn125651   6.229   4.344   5.154 -0.1118 -0.0886  0.1872
 5491ntf    sn225652   6.334   4.449   5.259  0.2009 -0.0622 -0.1481
 5491ntf    nn325653   6.368   4.571   5.166 -0.0961  0.2601  0.1667
 5491ntf    sn225654   6.271   4.694   5.155 -0.2646  0.1199  0.0842
 5491ntf    cn125655   6.325   4.786   5.302 -0.5112  0.1025  0.1853
 5491ntf    fn425656   6.216   4.220   5.198  0.5319 -0.3516 -0.3304
 5491ntf    fn425657   6.111   4.398   5.129 -0.0351 -0.1638 -0.3590
 5491ntf    fn425658   6.279   4.333   5.031 -0.4743 -0.2030  0.0498
 5491ntf    on525659   6.249   4.478   5.372  0.2810  1.1901 -0.3978
 5491ntf    on525660   6.450   4.370   5.290 -0.0205 -0.4208 -0.2278
 5491ntf    on525661   6.130   4.672   5.175 -0.3074  0.1053 -0.2296
 5491ntf    on525662   6.312   4.777   5.044  0.3358  0.2026  0.3671
 5491ntf    fn425663   6.286   4.746   5.422  0.9804 -0.2149  0.5713
 5491ntf    fn425664   6.457   4.791   5.308 -0.4825 -0.0258 -0.3129
 5491ntf    fn425665   6.284   4.912   5.302 -0.4757  0.1132  0.4355
 5492ntf    cn125666   3.172   5.789   0.742 -0.3005 -0.2109  0.1407
 5492ntf    sn225667   2.996   5.766   0.780 -0.3450 -0.0522  0.0340
 5492ntf    nn325668   2.959   5.913   0.820  0.3293  0.1781 -0.1891
 5492ntf    sn225669   2.918   6.030   0.724  0.0336  0.3869  0.1903
 5492ntf    cn125670   2.740   6.000   0.707  0.0634 -0.1667  0.8105
 5492ntf    fn425671   3.200   5.875   0.645 -0.4062 -0.0840  0.2217
 5492ntf    fn425672   3.239   5.839   0.845 -0.1975  0.2503 -0.1476
 5492ntf    fn425673   3.234   5.674   0.722 -0.4090 -0.2643  0.1111
 5492ntf    on525674   2.947   5.721   0.652 -0.2769 -0.5490  0.1778
 5492ntf    on525675   2.989   5.674   0.892 -0.4583  0.1803  0.2189
 5492ntf    on525676   2.978   6.043   0.594  0.1722  0.3482  0.2496
 5492ntf    on525677   2.910   6.153   0.800 -0.6731  0.0445  0.6890
 5492ntf    fn425678   2.710   5.871   0.697 -0.0478 -0.1068  0.3157
 5492ntf    fn425679   2.665   6.048   0.805 -0.4820  0.2131  0.2179
 5492ntf    fn425680   2.682   6.059   0.603 -0.1168 -0.2741  0.8489
 5493ntf    cn125681   6.806   4.118   6.478 -0.3394  0.0930 -0.0406
 5493ntf    sn225682   6.683   4.216   6.570 -0.4464  0.2241 -0.3234
 5493ntf    nn325683   6.604   4.255   6.440 -0.4008  0.5233 -0.2614
 5493ntf    sn225684   6.449   4.272   6.425 -0.4801  0.1046  0.0899
 5493ntf    cn125685   6.432   4.425   6.522  0.0796  0.1183  0.1683
 5493ntf    fn425686   6.755   4.040   6.384 -0.2159  0.3668 -0.3342
 5493ntf    fn425687   6.896   4.193   6.416 -0.2509 -0.0465 -0.0818
 5493ntf    fn425688   6.874   4.045   6.565  0.0716  0.7878  0.2289
 5493ntf    on525689   6.628   4.121   6.663  1.2400 -0.2159  0.2559
 5493ntf    on525690   6.771   4.317   6.623  0.5066 -0.8756  0.2295
 5493ntf    on525691   6.360   4.187   6.500 -0.0434 -0.2514  0.2130
 5493ntf    on525692   6.407   4.314   6.294 -0.2489  0.1272  0.0234
 5493ntf    fn425693   6.466   4.419   6.650  0.0758  0.0706  0.1672
 5493ntf    fn425694   6.502   4.521   6.464 -0.1005  0.2302  0.1349
 5493ntf    fn425695   6.303   4.454   6.520  0.0471 -0.0145  0.2560
 5494ntf    cn125696   4.922   6.196   6.068 -0.0064 -0.7086 -0.1820
 5494ntf    sn225697   5.017   6.257   5.925  0.1877  0.2735  0.3577
 5494ntf    nn325698   4.994   6.140   5.824  0.7666  0.4307  0.0393
 5494ntf    sn225699   5.054   5.995   5.822 -0.0681  0.0831  0.0471
 5494ntf    cn125700   5.036   5.944   5.649  0.0357  0.3022 -0.0269
 5494ntf    fn425701   4.978   6.091   6.124  0.1680 -0.7084 -0.3527
 5494ntf    fn425702   4.910   6.284   6.166 -0.4773 -0.3922 -0.5218
 5494ntf    fn425703   4.801   6.175   6.019 -0.0994  0.0078 -0.2805
 5494ntf    on525704   4.945   6.375   5.884 -0.0050 -0.0091 -0.1239
 5494ntf    on525705   5.152   6.276   5.975  0.5474 -0.2747 -0.3969
 5494ntf    on525706   4.968   5.905   5.895 -0.9600  0.2010 -0.8382
 5494ntf    on525707   5.194   5.976   5.848  0.0167  0.4520 -0.1378
 5494ntf    fn425708   4.911   5.950   5.608 -0.1957 -0.2097  0.6077
 5494ntf    fn425709   5.105   6.013   5.559  0.4437  0.1274  0.1483
 5494ntf    fn425710   5.080   5.820   5.636  0.1209  0.3345 -0.0491
 5495ntf    cn125711   7.010   6.565   0.466  0.5245 -0.3258  0.1156
 5495ntf    sn225712   6.917   6.717   0.502  0.3213 -0.4559  0.1368
 5495ntf    nn325713   6.883   6.757   0.354  0.6123 -0.0876  0.1682
 5495ntf    sn225714   6.741   6.789   0.293  0.4473 -0.1737  0.5051
 5495ntf    cn125715   6.713   6.652   0.178  0.4234  0.0009  0.3013
 5495ntf    fn425716   6.948   6.493   0.373  0.1890 -0.3554  0.3626
 5495ntf    fn425717   7.124   6.598   0.407  0.6830 -0.1218  0.5375
 5495ntf    fn425718   7.033   6.495   0.575 -0.1224  0.1097  0.5363
 5495ntf    on525719   6.803   6.674   0.579  0.1453  0.0068  0.1371
 5495ntf    on525720   7.015   6.802   0.563 -0.2376  0.4461 -0.2001
 5495ntf    on525721   6.751   6.906   0.208 -0.0927 -0.3732  0.1649
 5495ntf    on525722   6.628   6.789   0.382 -0.1509  0.3001 -0.2445
 5495ntf    fn425723   6.752   6.674   0.054  0.1097  0.0003  0.2003
 5495ntf    fn425724   6.773   6.539   0.213  0.1419 -0.3128 -0.2159
 5495ntf    fn425725   6.585   6.617   0.171  0.4090  0.0454  0.3439
 5496ntf    cn125726   7.467   6.373   4.323  0.1300  0.1313  0.2324
 5496ntf    sn225727   7.345   6.467   4.227 -0.3154 -0.4110  0.2565
 5496ntf    nn325728   7.290   6.558   4.343 -0.0873 -0.2993  0.2772
 5496ntf    sn225729   7.325   6.706   4.384 -0.3248 -0.1651  0.0016
 5496ntf    cn125730   7.195   6.795   4.294  0.0229 -0.0313 -0.3650
 5496ntf    fn425731   7.524   6.265   4.271  0.4621  0.2143  0.4195
 5496ntf    fn425732   7.569   6.440   4.374 -0.1561  0.4647  0.3753
 5496ntf    fn425733   7.413   6.320   4.432  0.5231  0.0295  0.3782
 5496ntf    on525734   7.416   6.531   4.119 -0.4375 -0.8494 -0.0823
 5496ntf    on525735   7.245   6.366   4.201 -0.3875 -0.1208 -0.6296
 5496ntf    on525736   7.453   6.742   4.329 -0.2393 -0.5446 -0.0493
 5496ntf    on525737   7.306   6.727   4.526 -0.4669  0.1303 -0.0618
 5496ntf    fn425738   7.178   6.754   4.169 -0.2613 -0.3633 -0.2188
 5496ntf    fn425739   7.080   6.793   4.359  0.3491 -0.4067  0.2060
 5496ntf    fn425740   7.225   6.923   4.278  0.1158 -0.0745 -0.5402
 5497ntf    cn125741   6.989   7.262   2.393 -0.4882 -0.2331  0.6780
 5497ntf    sn225742   7.027   7.379   2.526 -0.1846  0.0914  0.3075
 5497ntf    nn325743   7.177   7.413   2.493 -0.2556  0.3179  0.2113
 5497ntf    sn225744   7.308   7.336   2.534 -0.1791  0.3890  0.0970
 5497ntf    cn125745   7.390   7.348   2.372 -0.3289 -0.0108 -0.0102
 5497ntf    fn425746   6.983   7.317   2.273  0.2825  0.2680  0.8634
 5497ntf    fn425747   7.084   7.170   2.395  0.2404  0.5071  0.4870
 5497ntf    fn425748   6.871   7.206   2.416 -0.8589  0.3991  0.3371
 5497ntf    on525749   6.927   7.480   2.501 -0.6541 -0.2670  0.7132
 5497ntf    on525750   7.007   7.304   2.648  0.0017  0.2242  0.4198
 5497ntf    on525751   7.291   7.195   2.562  0.3339  0.1698 -0.6662
 5497ntf    on525752   7.394   7.416   2.616  0.4521  0.2723 -0.4450
 5497ntf    fn425753   7.520   7.325   2.377 -0.3226 -0.0126 -0.1710
 5497ntf    fn425754   7.338   7.257   2.291  0.1293 -0.0911 -0.2130
 5497ntf    fn425755   7.376   7.458   2.300  0.3104  0.0341 -0.0713
 5498ntf    cn125756   1.135   0.013   4.370  0.7293 -0.0219 -0.2361
 5498ntf    sn225757   1.173   0.086   4.532  0.1979 -0.4247  0.0717
 5498ntf    nn325758   1.098  -0.023   4.617  0.2006 -0.1622  0.4100
 5498ntf    sn225759   1.074  -0.011   4.772 -0.1828 -0.0651  0.3440
 5498ntf    cn125760   0.901  -0.065   4.784 -0.1518 -0.1311  0.4932
 5498ntf    fn425761   1.190   0.092   4.279 -0.1831  0.4599 -0.3728
 5498ntf    fn425762   1.189  -0.107   4.352  0.4927 -0.2177  0.3708
 5498ntf    fn425763   1.004   0.002   4.365  0.7518 -0.2701 -0.3391
 5498ntf    on525764   1.317   0.087   4.542  0.2013 -0.6342  0.0609
 5498ntf    on525765   1.102   0.211   4.530  0.2314 -0.4090 -0.1769
 5498ntf    on525766   1.074   0.122   4.826  0.0315  0.1426 -0.1623
 5498ntf    on525767   1.142  -0.114   4.846 -0.0315  0.1946  0.5677
 5498ntf    fn425768   0.851  -0.057   4.906  0.4423  0.2176  0.7184
 5498ntf    fn425769   0.826   0.014   4.709 -0.4490 -0.1116  0.8059
 5498ntf    fn425770   0.882  -0.186   4.734 -0.1933  0.0014  0.1852
 5499ntf    cn125771   3.215   2.074   5.643  0.1925 -0.3066  0.2870
 5499ntf    sn225772   3.205   2.015   5.815  0.2769 -0.4041  0.2591
 5499ntf    nn325773   3.339   1.935   5.827  0.4643 -0.0624  0.4636
 5499ntf    sn225774   3.362   1.785   5.868  0.2027 -0.2714 -0.1384
 5499ntf    cn125775   3.361   1.810   6.048  0.0012 -0.1169 -0.1604
 5499ntf    fn425776   3.130   2.174   5.625 -0.0676 -0.5098  0.3795
 5499ntf    fn425777   3.332   2.123   5.607 -0.2102  0.4030 -0.0689
 5499ntf    fn425778   3.191   1.970   5.564 -0.4012  0.2033 -0.2174
 5499ntf    on525779   3.213   2.136   5.892 -0.2636 -0.0907 -0.1653
 5499ntf    on525780   3.082   1.939   5.818 -0.2255  0.3842 -0.0851
 5499ntf    on525781   3.493   1.733   5.838  0.3763 -0.1202  0.3538
 5499ntf    on525782   3.257   1.688   5.851  0.4566 -0.5921  0.0911
 5499ntf    fn425783   3.249   1.863   6.094 -0.0407 -0.7801  0.5093
 5499ntf    fn425784   3.370   1.695   6.113  0.3375  0.2084  0.3757
 5499ntf    fn425785   3.462   1.887   6.086 -0.4190  0.5236 -0.3303
 5500ntf    cn125786   3.306   7.414   1.981 -0.2602 -0.1472  0.0992
 5500ntf    sn225787   3.164   7.522   1.949 -0.0932 -0.0166 -0.2113
 5500ntf    nn325788   3.219   7.658   2.005 -0.4730  0.2603 -0.5069
 5500ntf    sn225789   3.189   7.724   2.145  0.5558  0.0982 -0.2055
 5500ntf    cn125790   3.078   7.859   2.096  0.2231  0.1479  0.6728
 5500ntf    fn425791   3.279   7.287   1.953 -0.4334 -0.1452  0.2590
 5500ntf    fn425792   3.411   7.452   1.910  0.1199  0.1187  0.7931
 5500ntf    fn425793   3.346   7.412   2.107 -0.1904  0.3038  0.0857
 5500ntf    on525794   3.151   7.533   1.806  0.3525 -0.5279 -0.2910
 5500ntf    on525795   3.051   7.463   2.017  0.4518  0.3464  1.0469
 5500ntf    on525796   3.307   7.786   2.200 -0.0675  1.1219 -0.0162
 5500ntf    on525797   3.111   7.645   2.237 -0.0511  0.5403 -0.3342
 5500ntf    fn425798   3.074   7.944   2.197 -0.9126  0.4160  0.4234
 5500ntf    fn425799   3.114   7.922   1.985  0.0814 -0.1594  0.4494
 5500ntf    fn425800   2.953   7.818   2.084  0.3686  0.0255 -0.5217
 5501ntf    cn125801   3.079   1.556   7.432 -0.0661 -0.5031 -0.3526
 5501ntf    sn225802   3.167   1.631   7.292 -0.0880  0.0828 -0.0534
 5501ntf    nn325803   3.119   1.529   7.183 -0.1387 -0.2099  0.2385
 5501ntf    sn225804   3.195   1.454   7.068 -0.0754 -0.1251  0.2254
 5501ntf    cn125805   3.071   1.476   6.938 -0.2400  0.0309  0.4094
 5501ntf    fn425806   3.126   1.605   7.545 -0.0673 -0.7445 -0.2451
 5501ntf    fn425807   2.950   1.586   7.436  0.1290  0.2572  0.4897
 5501ntf    fn425808   3.093   1.425   7.449 -0.1688 -0.4055  0.5361
 5501ntf    on525809   3.111   1.763   7.278 -0.2902  0.0262  0.2105
 5501ntf    on525810   3.306   1.620   7.329 -0.0563 -0.2459 -0.2657
 5501ntf    on525811   3.190   1.311   7.083  0.3434 -0.1642  0.0179
 5501ntf    on525812   3.313   1.515   7.012 -0.2975  0.4130  0.3339
 5501ntf    fn425813   3.052   1.599   6.894 -0.5781 -0.2372 -0.2151
 5501ntf    fn425814   3.101   1.408   6.829 -0.0539  0.2128  0.3484
 5501ntf    fn425815   2.951   1.429   6.970 -0.2848 -0.2005 -0.0921
 5502ntf    cn125816   3.944   0.392   1.383 -0.1298  0.2878 -0.6148
 5502ntf    sn225817   4.033   0.236   1.356 -0.2311  0.0889  0.1595
 5502ntf    nn325818   4.184   0.277   1.366 -0.2243  0.0727  0.1203
 5502ntf    sn225819   4.308   0.209   1.297 -0.2057 -0.0568  0.2802
 5502ntf    cn125820   4.320   0.316   1.150 -0.1140 -0.2113  0.1745
 5502ntf    fn425821   3.973   0.471   1.282  0.4867  0.7689 -0.0726
 5502ntf    fn425822   3.812   0.386   1.391 -0.1122 -0.0694 -0.5520
 5502ntf    fn425823   3.985   0.452   1.494 -0.0515 -0.0251 -0.4745
 5502ntf    on525824   3.979   0.147   1.455  0.1662 -0.1779  0.1364
 5502ntf    on525825   3.994   0.202   1.221 -0.0119  0.3750  0.0209
 5502ntf    on525826   4.290   0.079   1.236  0.3645 -0.0975  0.1950
 5502ntf    on525827   4.438   0.229   1.357 -0.2451  0.2932  0.2504
 5502ntf    fn425828   4.424   0.295   1.071 -0.0861 -0.5426  0.2976
 5502ntf    fn425829   4.217   0.294   1.069 -0.2063  0.3086  0.1470
 5502ntf    fn425830   4.302   0.444   1.177 -0.3188 -0.1587 -0.2076
 5503ntf    cn125831   0.581   6.837   1.009 -0.1056  0.0169 -0.1359
 5503ntf    sn225832   0.455   6.964   1.042 -0.0954 -0.0725  0.2424
 5503ntf    nn325833   0.445   6.942   1.198  0.2521 -0.8277  0.1605
 5503ntf    sn225834   0.513   7.036   1.303 -0.2918 -0.1562 -0.0802
 5503ntf    cn125835   0.407   7.184   1.308  0.3477  0.3160 -0.4073
 5503ntf    fn425836   0.631   6.845   0.886 -0.5400  0.4165 -0.2899
 5503ntf    fn425837   0.687   6.848   1.087 -0.3740 -0.5767  0.3160
 5503ntf    fn425838   0.529   6.718   1.030 -0.1154  0.0820  0.2138
 5503ntf    on525839   0.513   7.084   0.988 -0.5695 -0.2129 -0.5836
 5503ntf    on525840   0.342   6.911   0.970 -0.2436  0.0821  0.3603
 5503ntf    on525841   0.645   7.085   1.269 -0.2957 -0.0848  0.0056
 5503ntf    on525842   0.498   6.988   1.438 -0.0969 -0.1631 -0.0613
 5503ntf    fn425843   0.484   7.291   1.322 -0.1994  0.7372 -0.5727
 5503ntf    fn425844   0.339   7.204   1.196  0.1159  0.7167 -0.1949
 5503ntf    fn425845   0.323   7.185   1.410  0.3887 -0.4804 -0.3625
 5504ntf    cn125846   4.993   4.033   0.233  0.1008 -0.1348  0.2338
 5504ntf    sn225847   4.889   3.915   0.143  0.0255  0.2834 -0.2304
 5504ntf    nn325848   4.992   3.798   0.159  0.3613  0.5992 -0.0705
 5504ntf    sn225849   5.089   3.721   0.062  0.1416 -0.0883  0.2506
 5504ntf    cn125850   5.219   3.658   0.172  0.3046 -0.1362  0.0310
 5504ntf    fn425851   5.097   4.087   0.172 -0.1483 -0.1298 -0.1875
 5504ntf    fn425852   4.932   4.143   0.275  0.2285 -0.2618  0.7615
 5504ntf    fn425853   5.040   3.980   0.345 -0.3143 -0.5422  0.2182
 5504ntf    on525854   4.770   3.911   0.226  0.2985  0.0746  0.1539
 5504ntf    on525855   4.884   3.978   0.014 -0.0614 -0.4624 -0.5975
 5504ntf    on525856   5.147   3.813  -0.033  0.5655 -0.7228 -0.1085
 5504ntf    on525857   5.017   3.605   0.015  0.5342 -0.0705 -0.3963
 5504ntf    fn425858   5.334   3.643   0.110  0.3325  0.2539 -0.0196
 5504ntf    fn425859   5.236   3.740   0.275 -0.4990  0.2268 -0.1161
 5504ntf    fn425860   5.180   3.543   0.225  0.1825 -0.3080 -0.4262
 5505ntf    cn125861   6.448   0.537   6.132  0.0222  0.6077 -0.3656
 5505ntf    sn225862   6.439   0.363   6.084  0.0291  0.4005  0.3662
 5505ntf    nn325863   6.553   0.345   5.977  0.1621 -0.1442  0.5948
 5505ntf    sn225864   6.582   0.437   5.853  0.0717 -0.4984  0.3067
 5505ntf    cn125865   6.582   0.318   5.716 -0.4542 -0.2890  0.1236
 5505ntf    fn425866   6.372   0.561   6.238  0.0470 -0.7346 -0.0278
 5505ntf    fn425867   6.571   0.573   6.166  0.3874 -0.6975 -0.2678
 5505ntf    fn425868   6.403   0.617   6.036 -0.1180  0.4839 -0.4030
 5505ntf    on525869   6.462   0.302   6.213 -0.0046  0.2255  0.2897
 5505ntf    on525870   6.304   0.353   6.034 -0.0068  0.6208  0.4191
 5505ntf    on525871   6.716   0.489   5.866 -0.0087 -0.1328 -0.2909
 5505ntf    on525872   6.478   0.530   5.817  0.6881  0.0413 -0.1074
 5505ntf    fn425873   6.694   0.247   5.718 -0.1115  0.2450  0.2026
 5505ntf    fn425874   6.483   0.231   5.726 -0.6002 -0.2204 -0.6761
 5505ntf    fn425875   6.585   0.377   5.597 -0.1800 -0.0335  0.2574
 5506ntf    cn125876   1.124   3.350   0.742  0.2301 -0.1250 -0.1724
 5506ntf    sn225877   1.160   3.470   0.874 -0.0981 -0.0290 -0.1703
 5506ntf    nn325878   1.235   3.368   0.966 -0.9812 -0.5898 -0.0551
 5506ntf    sn225879   1.225   3.344   1.121 -0.2482  0.1181  0.1143
 5506ntf    cn125880   1.197   3.164   1.112 -0.0355  0.0852  0.1041
 5506ntf    fn425881   1.059   3.244   0.786  0.3005  0.0476  0.3623
 5506ntf    fn425882   1.045   3.404   0.650  0.2357 -1.0319 -0.7180
 5506ntf    fn425883   1.230   3.303   0.678 -0.3322 -1.1406 -0.3655
 5506ntf    on525884   1.242   3.569   0.809 -1.0838  0.6309 -0.4369
 5506ntf    on525885   1.033   3.513   0.926 -0.0064 -0.0229  0.0483
 5506ntf    on525886   1.105   3.382   1.191 -0.1975  0.3131  0.0943
 5506ntf    on525887   1.346   3.373   1.194 -0.4990  0.1402  0.5241
 5506ntf    fn425888   1.073   3.137   1.075 -0.2126  0.4693  0.4182
 5506ntf    fn425889   1.279   3.101   1.029  0.6327  0.4633  0.4725
 5506ntf    fn425890   1.224   3.108   1.228  0.1584 -0.2324 -0.0912
 5507ntf    cn125891   7.244   6.750   5.439  0.6636  0.0295 -0.3196
 5507ntf    sn225892   7.309   6.903   5.514  0.0371  0.1376  0.0118
 5507ntf    nn325893   7.200   6.953   5.616  0.2044  0.0759  0.2233
 5507ntf    sn225894   7.120   7.088   5.617  0.1298  0.0344  0.0271
 5507ntf    cn125895   7.046   7.084   5.783 -0.2419 -0.0534 -0.1390
 5507ntf    fn425896   7.141   6.770   5.358 -0.4510 -0.4939  0.9185
 5507ntf    fn425897   7.342   6.700   5.367  0.6883 -0.7560  0.2441
 5507ntf    fn425898   7.204   6.653   5.520  0.2023 -0.1470 -0.7548
 5507ntf    on525899   7.424   6.849   5.582 -0.2628 -0.0582  0.3695
 5507ntf    on525900   7.342   6.988   5.403  0.3776  0.0642  0.0575
 5507ntf    on525901   7.006   7.081   5.529 -0.0623 -0.4566  0.3088
 5507ntf    on525902   7.202   7.206   5.625 -0.4540  0.4708 -0.3393
 5507ntf    fn425903   7.030   7.196   5.851 -0.0468  0.1021 -0.3520
 5507ntf    fn425904   6.932   7.017   5.772 -0.5289  0.4294 -0.1326
 5507ntf    fn425905   7.127   7.008   5.856 -0.6315 -0.3949 -0.0587
 5508ntf    cn125906   3.667   7.316   2.147 -0.2494 -0.1462 -0.1318
 5508ntf    sn225907   3.781   7.209   2.240 -0.0306  0.2535  0.0615
 5508ntf    nn325908   3.788   7.296   2.371 -0.1763 -0.7637  0.7590
 5508ntf    sn225909   3.921   7.352   2.434 -0.0000 -0.1511 -0.1337
 5508ntf    cn125910   3.867   7.379   2.605  0.0260 -0.2279 -0.1140
 5508ntf    fn425911   3.698   7.441   2.177 -0.4823 -0.0069 -0.4629
 5508ntf    fn425912   3.685   7.301   2.017 -0.4829  0.2307 -0.2081
 5508ntf    fn425913   3.539   7.294   2.174 -0.2561 -0.0366 -0.0731
 5508ntf    on525914   3.710   7.086   2.261 -0.3505  0.3716 -0.3237
 5508ntf    on525915   3.899   7.211   2.158 -0.4533  0.0747 -0.5616
 5508ntf    on525916   3.953   7.488   2.397 -0.3310 -0.2100 -0.6500
 5508ntf    on525917   4.028   7.257   2.455  0.1959  0.0686 -0.1362
 5508ntf    fn425918   3.853   7.264   2.669  0.2168 -0.1551  0.0660
 5508ntf    fn425919   3.950   7.451   2.680 -0.4239 -0.3115  0.4767
 5508ntf    fn425920   3.749   7.437   2.615  0.3627  0.5383 -0.4907
 5509ntf    cn125921   5.535   7.428   5.284  0.0359  0.1261 -0.1014
 5509ntf    sn225922   5.633   7.357   5.420 -0.1014  0.0370 -0.0491
 5509ntf    nn325923   5.709   7.486   5.466  0.5488 -0.2771 -0.2382
 5509ntf    sn225924   5.710   7.555   5.607 -0.2066 -0.3761 -0.1825
 5509ntf    cn125925   5.863   7.652   5.610 -0.4232 -0.0467  0.3972
 5509ntf    fn425926   5.458   7.526   5.331  0.0723  0.2503 -0.2997
 5509ntf    fn425927   5.609   7.478   5.187 -0.3330  0.4042 -0.2433
 5509ntf    fn425928   5.456   7.334   5.234 -0.2545  0.2178  0.1815
 5509ntf    on525929   5.528   7.301   5.501 -0.1726 -0.4499 -0.4666
 5509ntf    on525930   5.726   7.265   5.360 -0.1629  0.5985 -1.0315
 5509ntf    on525931   5.739   7.461   5.713  0.6651 -0.2962 -0.3413
 5509ntf    on525932   5.600   7.647   5.622 -0.1501 -0.2340 -0.6384
 5509ntf    fn425933   5.896   7.688   5.733 -0.6845 -0.0140  0.4588
 5509ntf    fn425934   5.966   7.583   5.563 -0.3143  0.3843 -0.0093
 5509ntf    fn425935   5.852   7.768   5.548  0.2183 -0.2547 -0.1175
 5510ntf    cn125936   1.688   3.671   6.901  0.0054  0.0431 -0.0503
 5510ntf    sn225937   1.679   3.531   7.016  0.1939 -0.0641 -0.1652
 5510ntf    nn325938   1.552   3.575   7.097  0.4695 -0.2082  0.3512
 5510ntf    sn225939   1.409   3.510   7.090  0.3724  0.0366  0.0348
 5510ntf    cn125940   1.303   3.650   7.139  0.3229  0.0789 -0.1902
 5510ntf    fn425941   1.807   3.684   6.845  0.1583 -0.0317  0.2544
 5510ntf    fn425942   1.597   3.683   6.806 -0.3148  0.3978  0.2976
 5510ntf    fn425943   1.676   3.783   6.971  0.1867  0.0467 -0.0222
 5510ntf    on525944   1.663   3.413   6.934 -0.3329  0.1099 -0.3141
 5510ntf    on525945   1.799   3.554   7.092 -0.1033  0.0066  0.2900
 5510ntf    on525946   1.387   3.401   7.182 -0.3010 -0.1443 -0.3367
 5510ntf    on525947   1.364   3.488   6.955 -0.3881  0.3409  0.2312
 5510ntf    fn425948   1.174   3.628   7.117  0.2428  0.1361  0.2101
 5510ntf    fn425949   1.316   3.673   7.269  0.2165  0.0995 -0.1829
 5510ntf    fn425950   1.335   3.757   7.070  0.1290  0.5659  0.4666
 5511ntf    cn125951   6.473   5.780   6.254  0.1348  0.2431  0.0851
 5511ntf    sn225952   6.456   5.935   6.348 -0.1345  0.1123  0.2521
 5511ntf    nn325953   6.303   5.966   6.335 -0.1073  0.1259 -0.0381
 5511ntf    sn225954   6.236   6.071   6.240  0.0992  0.1079 -0.2034
 5511ntf    cn125955   6.127   5.953   6.156  0.0707 -0.2962  0.4029
 5511ntf    fn425956   6.597   5.742   6.230  0.1122 -0.1845  0.6390
 5511ntf    fn425957   6.415   5.680   6.317 -0.3215  0.1189 -0.5186
 5511ntf    fn425958   6.412   5.792   6.137  0.1730 -0.4184 -0.0034
 5511ntf    on525959   6.497   5.883   6.477  0.6372  0.5047  0.1699
 5511ntf    on525960   6.551   6.026   6.288 -0.4684  0.3658  0.1099
 5511ntf    on525961   6.303   6.127   6.125  0.4999  0.0540  0.0008
 5511ntf    on525962   6.143   6.147   6.319 -0.0722 -0.1742 -0.1340
 5511ntf    fn425963   6.038   5.896   6.237  0.0997 -0.2626  0.4574
 5511ntf    fn425964   6.070   5.999   6.046  0.8068  0.1638  0.2120
 5511ntf    fn425965   6.203   5.857   6.107 -0.1388 -0.1816 -0.1507
 5512ntf    cn125966   0.223   2.136   0.774  0.8741  0.4508  0.3790
 5512ntf    sn225967   0.216   2.206   0.941  0.3322  0.5549  0.3146
 5512ntf    nn325968   0.341   2.123   0.988  0.0483 -0.3524 -0.5028
 5512ntf    sn225969   0.473   2.177   1.053 -0.3301  0.1967 -0.1782
 5512ntf    cn125970   0.561   2.199   0.895  0.1764 -0.0349  0.0691
 5512ntf    fn425971   0.169   2.015   0.778  0.5371  0.5973  0.3321
 5512ntf    fn425972   0.149   2.203   0.687 -0.2122 -0.5706  0.4753
 5512ntf    fn425973   0.341   2.117   0.718  0.8378  0.1648  0.3972
 5512ntf    on525974   0.236   2.345   0.908 -0.0187  0.4775 -0.2337
 5512ntf    on525975   0.089   2.160   0.990  0.2868 -0.2468 -0.5239
 5512ntf    on525976   0.548   2.081   1.130 -0.2283  0.6800  0.3329
 5512ntf    on525977   0.488   2.310   1.108  0.1305  0.1660 -0.2243
 5512ntf    fn425978   0.692   2.204   0.915  0.3003  0.2230 -0.7665
 5512ntf    fn425979   0.539   2.102   0.808  0.1155 -0.2066  0.2755
 5512ntf    fn425980   0.533   2.317   0.842  0.6775 -0.0270 -0.1845
 5513ntf    cn125981   5.648   0.579   1.899  0.1103  0.0807  0.0428
 5513ntf    sn225982   5.810   0.495   1.908 -0.0044 -0.1226  0.2109
 5513ntf    nn325983   5.789   0.383   1.801 -0.7377  0.2143 -0.0081
 5513ntf    sn225984   5.817   0.394   1.647 -0.2727  0.0356  0.0617
 5513ntf    cn125985   5.738   0.238   1.597  0.1446 -0.2704  0.3492
 5513ntf    fn425986   5.649   0.695   1.835 -0.3106  0.6156  0.9865
 5513ntf    fn425987   5.559   0.502   1.839  0.2180  0.3137 -0.4180
 5513ntf    fn425988   5.607   0.607   2.021  0.0258  0.1009  0.0100
 5513ntf    on525989   5.906   0.593   1.866  0.1498 -0.1923  0.4012
 5513ntf    on525990   5.824   0.451   2.045  0.3761  0.2260  0.2870
 5513ntf    on525991   5.954   0.383   1.605 -0.2167  0.1429  0.2168
 5513ntf    on525992   5.739   0.500   1.587  0.0303 -0.1385 -0.6444
 5513ntf    fn425993   5.802   0.125   1.623 -0.2899 -0.6034 -0.0071
 5513ntf    fn425994   5.615   0.224   1.643 -0.2240 -0.0930 -0.5572
 5513ntf    fn425995   5.715   0.238   1.466  0.0558  0.3647  0.3608
 5514ntf    cn125996   6.120   0.142   6.766  0.1967 -0.0652  0.1686
 5514ntf    sn225997   5.978   0.182   6.872  0.1180  0.5242 -0.1542
 5514ntf    nn325998   5.947   0.040   6.931 -0.2105  0.4790 -0.4278
 5514ntf    sn225999   5.811  -0.030   6.967  0.0091  0.0687 -0.3898
 5514ntf    cn126000   5.792  -0.155   6.836  0.3177  0.0553 -0.4224
 5514ntf    fn426001   6.211   0.063   6.820  0.2059 -0.1708  0.0007
 5514ntf    fn426002   6.072   0.086   6.656 -0.2062  0.5603  0.0207
 5514ntf    fn426003   6.180   0.252   6.722  0.0141 -0.0117  0.0504
 5514ntf    on526004   6.037   0.275   6.965  0.1564  0.2528  0.0951
 5514ntf    on526005   5.884   0.242   6.781  0.1727 -0.2810 -0.7523
 5514ntf    on526006   5.696   0.054   6.944 -0.1461 -0.1935 -0.5693
 5514ntf    on526007   5.814  -0.093   7.097 -0.2645  0.2733 -0.2831
 5514ntf    fn426008   5.669  -0.202   6.845  0.1699  0.2854 -1.1793
 5514ntf    fn426009   5.810  -0.108   6.714  0.1096 -0.2641 -0.5740
 5514ntf    fn426010   5.880  -0.252   6.855  0.4952  0.2897 -0.0326
 5515ntf    cn126011   4.525   4.209   4.024 -0.0828  0.1149 -0.0665
 5515ntf    sn226012   4.573   4.082   3.903 -0.2506  0.0350 -0.0486
 5515ntf    nn326013   4.538   3.953   3.985 -0.3316 -0.0224 -0.1719
 5515ntf    sn226014   4.448   3.831   3.949 -0.2520 -0.0164 -0.3963
 5515ntf    cn126015   4.330   3.837   4.088  0.0829 -0.1540 -0.1063
 5515ntf    fn426016   4.397   4.237   4.007  0.0461  0.5397 -0.3373
 5515ntf    fn426017   4.537   4.153   4.144  0.3285  0.2156 -0.0589
 5515ntf    fn426018   4.591   4.324   4.024  0.4818 -0.2024 -0.5492
 5515ntf    on526019   4.503   4.116   3.781 -0.2062  0.2591 -0.0120
 5515ntf    on526020   4.716   4.099   3.896 -0.3178  0.7597  0.2511
 5515ntf    on526021   4.517   3.705   3.965 -0.6080 -0.2575 -0.7316
 5515ntf    on526022   4.359   3.850   3.837  0.3600 -0.4331 -0.9638
 5515ntf    fn426023   4.256   3.946   4.082 -0.5068 -0.5294  0.2392
 5515ntf    fn426024   4.252   3.735   4.119 -0.2321  0.1933  0.2421
 5515ntf    fn426025   4.402   3.853   4.198  0.3158 -0.3229 -0.2320
 5516ntf    cn126026   5.247   2.794   0.410 -0.0622  0.5200 -0.2524
 5516ntf    sn226027   5.301   2.702   0.263 -0.3710  0.1300 -0.1252
 5516ntf    nn326028   5.438   2.643   0.313 -0.5694 -0.2048  0.0244
 5516ntf    sn226029   5.552   2.592   0.219 -0.6533 -0.0696 -0.1521
 5516ntf    cn126030   5.665   2.734   0.233 -0.1928 -0.4177 -0.3267
 5516ntf    fn426031   5.322   2.897   0.444  0.3563  0.0468  0.2779
 5516ntf    fn426032   5.121   2.832   0.399 -0.2728  0.1517  0.8200
 5516ntf    fn426033   5.247   2.716   0.517  0.0030  0.2954 -0.4157
 5516ntf    on526034   5.192   2.609   0.244 -0.2301 -0.0558 -0.0155
 5516ntf    on526035   5.314   2.815   0.174 -0.1764  0.2036 -0.0043
 5516ntf    on526036   5.524   2.590   0.077 -0.4337 -0.1768 -0.1946
 5516ntf    on526037   5.633   2.488   0.277 -0.3040  0.8086  0.9636
 5516ntf    fn426038   5.779   2.709   0.170 -0.0204 -0.1254 -0.1311
 5516ntf    fn426039   5.623   2.847   0.179 -0.1843 -0.1059  0.3213
 5516ntf    fn426040   5.699   2.755   0.359 -0.6986  0.2179 -0.2911
 5517ntf    cn126041   0.680   3.357   5.277 -0.3602 -0.2980  0.1100
 5517ntf    sn226042   0.620   3.529   5.291 -0.4322 -0.3140 -0.0072
 5517ntf    nn326043   0.758   3.588   5.336 -0.4777 -0.1334 -0.1042
 5517ntf    sn226044   0.873   3.651   5.249  0.0830 -0.5529  0.3215
 5517ntf    cn126045   0.943   3.773   5.365  0.0637 -0.1578 -0.0786
 5517ntf    fn426046   0.739   3.337   5.161 -0.0935  0.3360  0.1319
 5517ntf    fn426047   0.765   3.336   5.376 -0.2806 -0.2930  0.0419
 5517ntf    fn426048   0.583   3.267   5.278 -0.0645 -0.6168  0.0656
 5517ntf    on526049   0.583   3.565   5.156 -0.3669 -0.6780 -0.1265
 5517ntf    on526050   0.520   3.526   5.395  0.1453 -0.3291  0.5530
 5517ntf    on526051   0.831   3.728   5.134  0.2155 -0.6351  0.2184
 5517ntf    on526052   0.992   3.573   5.223  0.2483 -0.1309 -0.2045
 5517ntf    fn426053   0.991   3.707   5.469 -0.5736 -0.3936  0.0735
 5517ntf    fn426054   1.047   3.834   5.311  0.0210  0.1562  0.1939
 5517ntf    fn426055   0.850   3.853   5.413  0.1405 -0.4149  0.5042
 5518ntf    cn126056   3.813   7.558   3.490 -0.1085  0.0356  0.0001
 5518ntf    sn226057   3.656   7.533   3.578 -0.2401  0.5068 -0.0955
 5518ntf    nn326058   3.545   7.539   3.467 -0.0164 -0.4779 -0.3815
 5518ntf    sn226059   3.467   7.659   3.404  0.1793 -0.1619 -0.0240
 5518ntf    cn126060   3.387   7.725   3.553  0.4143  0.1338 -0.0287
 5518ntf    fn426061   3.799   7.652   3.397  0.4747  0.0113 -0.1174
 5518ntf    fn426062   3.906   7.600   3.574 -0.1807 -0.6251  0.4100
 5518ntf    fn426063   3.848   7.453   3.419  0.0506  0.1041 -0.0242
 5518ntf    on526064   3.669   7.402   3.638 -0.4231  0.4427 -0.1939
 5518ntf    on526065   3.658   7.642   3.672 -0.0674 -0.1924  0.7296
 5518ntf    on526066   3.364   7.606   3.318  0.3039 -0.6633  0.1389
 5518ntf    on526067   3.549   7.767   3.355 -0.1689  0.0585 -0.1243
 5518ntf    fn426068   3.277   7.796   3.532  0.3704  0.2234  0.4906
 5518ntf    fn426069   3.350   7.635   3.642  0.0294  0.0226 -0.2983
 5518ntf    fn426070   3.470   7.803   3.621  0.4682 -0.0871  0.1585
 5519ntf    cn126071   1.438   6.427   0.269 -0.0250  0.8791 -0.2494
 5519ntf    sn226072   1.323   6.470   0.404  0.0502 -0.1066  0.1320
 5519ntf    nn326073   1.208   6.374   0.359  0.1208 -0.4088  0.5903
 5519ntf    sn226074   1.057   6.372   0.404 -0.0992  0.3308 -0.0824
 5519ntf    cn126075   1.016   6.197   0.430  0.4747  0.1227 -0.5411
 5519ntf    fn426076   1.554   6.491   0.277  0.2061  0.3620  0.6277
 5519ntf    fn426077   1.464   6.298   0.280 -0.2088  0.8369 -0.3154
 5519ntf    fn426078   1.394   6.440   0.145 -0.2896 -0.1040 -0.2600
 5519ntf    on526079   1.400   6.430   0.520 -0.0130 -0.3298  0.0978
 5519ntf    on526080   1.302   6.612   0.391 -0.7112 -0.1857  0.4470
 5519ntf    on526081   0.974   6.413   0.295 -0.3535 -0.2170 -0.1002
 5519ntf    on526082   1.038   6.434   0.533  0.3448  0.1095  0.0929
 5519ntf    fn426083   1.067   6.129   0.329  0.8336  0.5512 -0.6497
 5519ntf    fn426084   1.076   6.157   0.541 -0.0477  0.1077 -0.2582
 5519ntf    fn426085   0.888   6.164   0.443  0.4422  0.5534  0.3090
 5520ntf    cn126086   2.921   4.810   3.121  0.4765  0.0641  0.0864
 5520ntf    sn226087   3.026   4.769   3.264  0.1177  0.0263  0.3404
 5520ntf    nn326088   3.072   4.915   3.297 -0.1760  0.3614 -0.7051
 5520ntf    sn226089   3.205   4.980   3.243  0.2471 -0.0706 -0.1913
 5520ntf    cn126090   3.323   4.918   3.366  0.0535  0.2614  0.1627
 5520ntf    fn426091   2.857   4.924   3.143  0.0455 -0.1295 -0.1638
 5520ntf    fn426092   2.980   4.826   3.004 -0.3739  0.4740 -0.2939
 5520ntf    fn426093   2.829   4.717   3.105  0.5087 -0.0666  0.6221
 5520ntf    on526094   2.935   4.717   3.364  0.4330 -0.2510  0.4848
 5520ntf    on526095   3.124   4.680   3.207 -0.0088 -0.3232  0.6610
 5520ntf    on526096   3.202   5.122   3.268 -0.4986 -0.1736  0.3177
 5520ntf    on526097   3.242   4.930   3.113 -0.4879 -0.2899 -0.3229
 5520ntf    fn426098   3.272   4.905   3.488 -0.4014  0.1319 -0.0384
 5520ntf    fn426099   3.366   4.796   3.338  0.0382  0.2219  0.3083
 5520ntf    fn426100   3.428   4.999   3.367  0.2706 -0.0160  0.0445
 5521ntf    cn126101   2.080   5.288   4.887  0.1170 -0.0149 -0.4789
 5521ntf    sn226102   2.086   5.453   4.963 -0.0092 -0.1917 -0.0868
 5521ntf    nn326103   2.093   5.422   5.117 -1.2429  0.0914  0.0432
 5521ntf    sn226104   2.123   5.524   5.232  0.2648  0.2164 -0.4299
 5521ntf    cn126105   2.304   5.512   5.233  0.2409 -0.1487 -0.1995
 5521ntf    fn426106   2.192   5.220   4.907  0.0042 -0.1656 -0.3588
 5521ntf    fn426107   1.983   5.214   4.937  0.3167 -0.0053 -0.0713
 5521ntf    fn426108   2.057   5.290   4.757 -0.1012  0.2214 -0.4365
 5521ntf    on526109   2.208   5.503   4.906  0.2005 -0.3578  0.2140
 5521ntf    on526110   1.963   5.517   4.924  0.1649 -0.0835 -0.4575
 5521ntf    on526111   2.077   5.472   5.359 -0.2696  1.7045  0.0083
 5521ntf    on526112   2.102   5.664   5.204  0.0557  0.3323  0.2791
 5521ntf    fn426113   2.353   5.478   5.114 -0.1720  0.1475 -0.4592
 5521ntf    fn426114   2.372   5.618   5.273  0.5963 -0.6682  0.5872
 5521ntf    fn426115   2.335   5.409   5.311 -0.2057 -0.0101  0.1605
 5522ntf    cn126116   3.556   1.389   5.878  0.2582  0.2094  0.6929
 5522ntf    sn226117   3.535   1.364   5.700  0.2040  0.1187  0.7125
 5522ntf    nn326118   3.664   1.283   5.661 -0.0855  0.0357 -0.0965
 5522ntf    sn226119   3.791   1.258   5.749 -0.1853  0.0050  0.0380
 5522ntf    cn126120   3.901   1.180   5.627 -0.3364  0.1414 -0.1847
 5522ntf    fn426121   3.646   1.480   5.911  0.4619  0.0749  0.5058
 5522ntf    fn426122   3.442   1.432   5.931 -0.0297  0.1883  0.0993
 5522ntf    fn426123   3.592   1.282   5.947 -0.0404 -0.3342  0.0140
 5522ntf    on526124   3.419   1.279   5.687  0.3425  0.1061 -0.6687
 5522ntf    on526125   3.530   1.494   5.638 -0.2662 -0.2413 -0.0180
 5522ntf    on526126   3.782   1.152   5.848 -0.3422  0.0915  0.1172
 5522ntf    on526127   3.858   1.380   5.785 -0.2241 -0.0625  0.3440
 5522ntf    fn426128   4.018   1.136   5.670 -0.0703  1.1216  0.1287
 5522ntf    fn426129   3.839   1.075   5.577 -0.0069 -0.3749  0.4801
 5522ntf    fn426130   3.932   1.257   5.524  0.2331 -0.0040 -0.1236
 5523ntf    cn126131   1.753   3.188   7.596 -0.4012  0.0969  0.0514
 5523ntf    sn226132   1.770   3.367   7.572 -0.2073  0.0651 -0.0584
 5523ntf    nn326133   1.890   3.395   7.669  0.0312  0.0449 -0.3482
 5523ntf    sn226134   2.043   3.416   7.640  0.1244 -0.2536 -0.0766
 5523ntf    cn126135   2.076   3.529   7.779  0.1225 -0.4394  0.0753
 5523ntf    fn426136   1.722   3.159   7.721  0.2506 -0.1780  0.1539
 5523ntf    fn426137   1.646   3.148   7.529 -0.3081  0.5379 -0.3747
 5523ntf    fn426138   1.855   3.114   7.556 -0.2067 -0.0653  0.8338
 5523ntf    on526139   1.781   3.386   7.429 -0.5107 -0.1130 -0.1072
 5523ntf    on526140   1.646   3.414   7.630 -0.1403  0.2728 -0.0817
 5523ntf    on526141   2.098   3.499   7.535  0.6872 -0.4889  0.0272
 5523ntf    on526142   2.125   3.301   7.670  0.2797  0.1375  1.0557
 5523ntf    fn426143   2.057   3.467   7.894 -0.1518 -0.5699 -0.0391
 5523ntf    fn426144   2.200   3.575   7.777  0.0516 -0.2585 -0.2696
 5523ntf    fn426145   1.996   3.634   7.781  0.8385  0.1387 -0.5967
 5524ntf    cn126146   1.930   2.628   6.760  0.1437 -0.6290 -0.3270
 5524ntf    sn226147   2.031   2.476   6.762  0.5724 -0.3392  0.0424
 5524ntf    nn326148   2.057   2.466   6.608  0.3231 -0.0769 -0.0189
 5524ntf    sn226149   2.161   2.535   6.513  0.1376  0.1815 -0.0344
 5524ntf    cn126150   2.051   2.610   6.390  0.1432 -0.0031 -0.1524
 5524ntf    fn426151   1.804   2.624   6.719 -0.2597  0.0643  0.8204
 5524ntf    fn426152   1.918   2.671   6.884  0.3804 -0.0646 -0.4997
 5524ntf    fn426153   1.977   2.727   6.687  0.7473 -0.5279  0.1933
 5524ntf    on526154   2.151   2.490   6.840  0.2035 -0.3544  0.6164
 5524ntf    on526155   1.935   2.376   6.803  0.0743  0.3793  0.6722
 5524ntf    on526156   2.235   2.447   6.426  0.1660 -0.0021  0.1744
 5524ntf    on526157   2.232   2.646   6.573 -0.3857  0.5889 -0.1559
 5524ntf    fn426158   2.116   2.665   6.289  0.0816  0.2648 -0.0477
 5524ntf    fn426159   1.962   2.530   6.333 -0.0910 -0.0631  0.2914
 5524ntf    fn426160   1.974   2.703   6.445  0.0679 -0.0844 -0.1206
 5525ntf    cn126161   3.558   3.151   3.085  0.0142  0.1752 -0.3340
 5525ntf    sn226162   3.387   3.152   3.147  0.0665  0.3393 -0.1944
 5525ntf    nn326163   3.341   3.302   3.146  0.4261  0.4490 -0.5049
 5525ntf    sn226164   3.214   3.367   3.079 -0.0886 -0.2914 -0.2568
 5525ntf    cn126165   3.080   3.294   3.179 -0.1734  0.2657  0.0382
 5525ntf    fn426166   3.633   3.237   3.151 -0.0492 -0.0509  0.0395
 5525ntf    fn426167   3.613   3.030   3.091 -0.3151  0.0392  0.0124
 5525ntf    fn426168   3.563   3.187   2.958  0.0690  0.0054 -0.3802
 5525ntf    on526169   3.311   3.081   3.047  0.0499 -0.2518  0.2305
 5525ntf    on526170   3.401   3.099   3.281 -0.2174  0.0528 -0.2774
 5525ntf    on526171   3.188   3.340   2.940  0.1613  0.0376 -0.3667
 5525ntf    on526172   3.209   3.505   3.120  0.4455 -0.3286 -0.0604
 5525ntf    fn426173   3.039   3.175   3.141  0.5367 -0.1436  0.5324
 5525ntf    fn426174   3.107   3.291   3.308  0.6872 -0.3998 -0.1502
 5525ntf    fn426175   2.975   3.375   3.188 -0.2336  0.2124 -0.1748
 5526ntf    cn126176   6.240   0.555   4.990  0.0227  0.0289 -0.0458
 5526ntf    sn226177   6.371   0.605   5.106 -0.0489 -0.0358  0.0636
 5526ntf    nn326178   6.279   0.639   5.229 -0.0446  0.9434 -0.1931
 5526ntf    sn226179   6.288   0.580   5.374 -0.4822  0.4499 -0.3665
 5526ntf    cn126180   6.203   0.420   5.350 -0.1302  0.0950  0.6668
 5526ntf    fn426181   6.190   0.656   4.921 -0.4684 -0.6059 -0.6346
 5526ntf    fn426182   6.289   0.483   4.891  0.3951  0.0389  0.1291
 5526ntf    fn426183   6.139   0.489   5.045  0.3189 -0.7840 -0.4602
 5526ntf    on526184   6.456   0.489   5.110  0.0415  0.0248 -0.1092
 5526ntf    on526185   6.420   0.727   5.047 -0.2432  0.2216  0.4289
 5526ntf    on526186   6.207   0.655   5.467 -0.3588  0.2081 -0.0612
 5526ntf    on526187   6.418   0.539   5.419 -0.6221  0.4664  0.0593
 5526ntf    fn426188   6.098   0.437   5.271 -0.1961 -0.0038  0.7334
 5526ntf    fn426189   6.276   0.332   5.283 -0.5927  0.3447 -0.1922
 5526ntf    fn426190   6.159   0.372   5.464 -0.3218 -0.7222  0.2550
 5527ntf    cn126191   2.526   3.621   5.396  0.0652 -0.8944  0.1221
 5527ntf    sn226192   2.695   3.622   5.463  0.0869 -0.1681  0.0601
 5527ntf    nn326193   2.680   3.497   5.557 -0.0639 -0.0231  0.2319
 5527ntf    sn226194   2.600   3.488   5.691  0.1629  0.1002  0.3763
 5527ntf    cn126195   2.498   3.340   5.661 -0.0523  0.1967  0.6260
 5527ntf    fn426196   2.477   3.500   5.373 -0.2768 -0.6187 -0.6582
 5527ntf    fn426197   2.438   3.675   5.478  0.4300  0.4286 -0.3233
 5527ntf    fn426198   2.518   3.694   5.286 -0.5466 -0.7665  0.2483
 5527ntf    on526199   2.782   3.592   5.352  0.0332  0.5711 -0.1920
 5527ntf    on526200   2.709   3.749   5.531 -1.1045 -0.0177  0.0539
 5527ntf    on526201   2.502   3.589   5.720  0.1891  0.1462  0.3029
 5527ntf    on526202   2.679   3.446   5.804 -0.0454  0.1331  0.5352
 5527ntf    fn426203   2.409   3.349   5.563  0.2787 -0.5432  0.2544
 5527ntf    fn426204   2.565   3.230   5.633  0.3157  0.5317  0.1651
 5527ntf    fn426205   2.420   3.308   5.762 -0.3275 -0.3086  0.2603
 5528ntf    cn126206   5.462   6.537   6.145 -0.0983 -0.0720  0.1336
 5528ntf    sn226207   5.592   6.629   6.232 -0.3197  0.3837 -0.0131
 5528ntf    nn326208   5.677   6.521   6.307 -0.1799  0.4373 -0.0924
 5528ntf    sn226209   5.810   6.558   6.382 -0.1754 -0.0709  0.1585
 5528ntf    cn126210   5.920   6.563   6.237 -0.2330 -0.2601  0.1069
 5528ntf    fn426211   5.385   6.472   6.231 -0.5130  0.9977  0.5839
 5528ntf    fn426212   5.378   6.614   6.077  0.6075  0.3928 -0.2243
 5528ntf    fn426213   5.507   6.449   6.057 -0.2716 -0.1411  0.1126
 5528ntf    on526214   5.652   6.688   6.114 -0.2260 -0.1482 -0.2318
 5528ntf    on526215   5.504   6.715   6.307 -0.0824  0.4001  0.2444
 5528ntf    on526216   5.854   6.445   6.459  0.2933 -0.0988 -0.1482
 5528ntf    on526217   5.816   6.691   6.436 -0.0133 -0.1828  0.4122
 5528ntf    fn426218   5.906   6.457   6.160  0.2635  0.1849 -0.6114
 5528ntf    fn426219   5.901   6.675   6.168 -0.5701 -0.2615  0.1944
 5528ntf    fn426220   6.044   6.557   6.284 -0.1872 -0.4479 -0.0369
 5529ntf    cn126221   0.198   2.953   0.099  0.0123 -0.1128  0.2286
 5529ntf    sn226222   0.180   3.115   0.018  0.0389 -0.2117  0.0246
 5529ntf    nn326223   0.310   3.116  -0.071  0.5883 -0.0977  0.8146
 5529ntf    sn226224   0.351   3.209  -0.189 -0.1608 -0.0730  0.5667
 5529ntf    cn126225   0.457   3.325  -0.097  0.2423  0.0038  0.0124
 5529ntf    fn426226   0.187   2.853   0.014 -0.6537  0.1473  0.0064
 5529ntf    fn426227   0.318   2.944   0.154  0.1778  0.3007 -0.0551
 5529ntf    fn426228   0.111   2.927   0.195  0.3082 -0.1262  0.4966
 5529ntf    on526229   0.060   3.103  -0.061 -0.3325  0.4922  0.4746
 5529ntf    on526230   0.190   3.213   0.124  0.4616 -0.2288  0.0051
 5529ntf    on526231   0.251   3.296  -0.246 -0.1172 -0.2009  0.2892
 5529ntf    on526232   0.443   3.149  -0.283 -0.1591  0.4217  0.2483
 5529ntf    fn426233   0.485   3.440  -0.157  0.5686  0.0864  0.3207
 5529ntf    fn426234   0.410   3.361   0.021 -0.1354  0.6606 -0.3330
 5529ntf    fn426235   0.575   3.269  -0.074  0.2409 -0.0947 -0.2147
 5530ntf    cn126236   3.938   0.663   5.007  0.0199  0.0789  0.0740
 5530ntf    sn226237   3.993   0.676   4.834 -0.2546  0.3324  0.0051
 5530ntf    nn326238   3.870   0.611   4.760 -0.1811 -0.1137  0.2689
 5530ntf    sn226239   3.759   0.677   4.670  0.0042  0.1997  0.2689
 5530ntf    cn126240   3.848   0.727   4.520  0.1776  0.0608  0.3250
 5530ntf    fn426241   3.922   0.537   5.042 -0.0677 -0.0389 -0.3790
 5530ntf    fn426242   4.035   0.715   5.081  0.6811  0.0599 -0.7578
 5530ntf    fn426243   3.830   0.733   5.034 -0.3768 -0.4422 -0.1458
 5530ntf    on526244   4.003   0.816   4.804  0.0674  0.2927 -0.0762
 5530ntf    on526245   4.114   0.598   4.823  0.1403  0.9769 -0.2751
 5530ntf    on526246   3.694   0.798   4.716 -0.3227  0.0349  0.2410
 5530ntf    on526247   3.673   0.569   4.629  0.5742 -0.0585 -0.2592
 5530ntf    fn426248   3.830   0.854   4.487 -0.3200 -0.1785 -0.3611
 5530ntf    fn426249   3.979   0.721   4.535  0.1743  0.4069  0.4928
 5530ntf    fn426250   3.814   0.646   4.421  0.5325  0.1211  0.1524
 5531ntf    cn126251   3.236   5.950   1.291  0.3233  0.3076  0.0040
 5531ntf    sn226252   3.256   5.894   1.463  0.1407  0.2287 -0.0005
 5531ntf    nn326253   3.247   6.021   1.554  0.9554  0.0633  0.3218
 5531ntf    sn226254   3.181   6.037   1.695  0.2221  0.1461 -0.0250
 5531ntf    cn126255   3.168   6.216   1.719 -0.7825  0.0025  0.5943
 5531ntf    fn426256   3.303   6.063   1.273  0.3891  0.2937  0.1538
 5531ntf    fn426257   3.288   5.865   1.204 -0.3608  0.0059 -0.1127
 5531ntf    fn426258   3.108   5.960   1.260  0.2755 -0.0846  0.0675
 5531ntf    on526259   3.158   5.791   1.487  0.0921  0.2891  0.0567
 5531ntf    on526260   3.392   5.844   1.461  0.0698  0.0394 -0.1295
 5531ntf    on526261   3.282   6.006   1.793  0.3224  0.3250 -0.0719
 5531ntf    on526262   3.042   6.001   1.703  0.1626  0.2793 -0.4410
 5531ntf    fn426263   3.285   6.275   1.740 -0.3580 -0.3005 -0.7934
 5531ntf    fn426264   3.117   6.288   1.620  0.0902  0.4479  0.4507
 5531ntf    fn426265   3.091   6.235   1.824 -0.1103 -0.5167  1.1859
 5532ntf    cn126266   6.372   2.696   3.565  0.2632 -0.3962 -0.0136
 5532ntf    sn226267   6.476   2.706   3.714  0.0200  0.4095  0.1090
 5532ntf    nn326268   6.428   2.842   3.776 -0.2336  0.4049 -0.0745
 5532ntf    sn226269   6.316   2.856   3.885  0.1330  0.0779  0.3468
 5532ntf    cn126270   6.409   2.802   4.032  0.2914 -0.2043  0.1460
 5532ntf    fn426271   6.258   2.761   3.583  0.5849  0.1453  0.0840
 5532ntf    fn426272   6.433   2.748   3.460  0.1142  0.1035  0.1410
 5532ntf    fn426273   6.345   2.569   3.540  0.4157 -0.3017 -0.6917
 5532ntf    on526274   6.448   2.587   3.790 -0.2015  0.5736  0.2856
 5532ntf    on526275   6.611   2.719   3.664 -0.1162 -0.4524 -0.5169
 5532ntf    on526276   6.207   2.764   3.865 -0.1014  0.4333 -0.0308
 5532ntf    on526277   6.290   2.996   3.908 -0.1338  0.0966 -0.0590
 5532ntf    fn426278   6.338   2.723   4.111  0.1812 -0.2152  0.0360
 5532ntf    fn426279   6.517   2.735   3.998  0.0780 -0.3626 -0.2235
 5532ntf    fn426280   6.450   2.898   4.113  0.1959  0.1603 -0.2354
 5533ntf    cn126281   5.389   0.660   0.403  0.0375 -0.3685  0.3696
 5533ntf    sn226282   5.386   0.550   0.547 -0.0779 -0.3015  0.4182
 5533ntf    nn326283   5.250   0.593   0.613  0.0172  0.0055  0.4155
 5533ntf    sn226284   5.102   0.541   0.600  0.0155  0.0284  0.3352
 5533ntf    cn126285   5.010   0.697   0.608 -0.0218  0.0228  0.0196
 5533ntf    fn426286   5.391   0.789   0.432 -0.7170 -0.2587 -0.0445
 5533ntf    fn426287   5.479   0.639   0.308 -0.0146 -0.2083  0.2843
 5533ntf    fn426288   5.276   0.648   0.335  0.4466 -0.0882 -0.3693
 5533ntf    on526289   5.392   0.421   0.482  0.2209 -0.3761  0.5925
 5533ntf    on526290   5.504   0.588   0.621  0.5281 -0.5773 -0.3892
 5533ntf    on526291   5.064   0.470   0.720  0.0008 -0.3639  0.1026
 5533ntf    on526292   5.061   0.487   0.473  0.2958  0.0499  0.2355
 5533ntf    fn426293   4.881   0.670   0.616 -0.2119  0.8051 -0.3090
 5533ntf    fn426294   5.044   0.758   0.721 -0.5030  0.5109 -0.0927
 5533ntf    fn426295   5.028   0.782   0.508 -0.2885 -0.2675 -0.2794
 5534ntf    cn126296   4.960   1.499   0.687  0.6599 -0.3291  0.0692
 5534ntf    sn226297   4.833   1.441   0.570  0.3920 -0.1435  0.2662
 5534ntf    nn326298   4.747   1.356   0.670 -0.2547  0.0915 -0.0801
 5534ntf    sn226299   4.733   1.207   0.717  0.1011  0.1099  0.0912
 5534ntf    cn126300   4.678   1.219   0.890 -0.3007  0.1428 -0.0377
 5534ntf    fn426301   4.926   1.620   0.726  0.3120 -0.4488  0.1437
 5534ntf    fn426302   4.968   1.421   0.793  0.0538  0.0677  0.4116
 5534ntf    fn426303   5.080   1.511   0.634  0.4470  0.1701 -0.3069
 5534ntf    on526304   4.771   1.562   0.521  0.5574 -0.1382  0.0653
 5534ntf    on526305   4.914   1.369   0.474  0.3653  0.1840 -0.0051
 5534ntf    on526306   4.862   1.142   0.715  0.3498  0.5970  0.0243
 5534ntf    on526307   4.625   1.133   0.657 -0.0945  0.1234  0.4276
 5534ntf    fn426308   4.707   1.112   0.962  0.0526 -0.0266 -0.4232
 5534ntf    fn426309   4.718   1.330   0.950 -0.1506  0.4003 -0.6093
 5534ntf    fn426310   4.547   1.234   0.895 -0.3637 -0.4500  0.0842
 5535ntf    cn126311   6.838   7.383   1.436  0.1277 -0.3103 -0.1448
 5535ntf    sn226312   6.803   7.302   1.277 -0.1354  0.0141 -0.2549
 5535ntf    nn326313   6.896   7.392   1.189 -0.4193  0.4355 -0.1238
 5535ntf    sn226314   6.877   7.446   1.043  0.2853  0.3964 -0.2339
 5535ntf    cn126315   6.816   7.616   1.056 -0.2807  0.2037 -0.3523
 5535ntf    fn426316   6.784   7.504   1.447  0.4833 -0.1809  0.1581
 5535ntf    fn426317   6.803   7.306   1.538 -0.4610  0.1634  0.0204
 5535ntf    fn426318   6.967   7.402   1.456 -0.0067  0.3655  0.0986
 5535ntf    on526319   6.850   7.165   1.281 -0.4593 -0.0858  0.1563
 5535ntf    on526320   6.660   7.309   1.258 -0.2450 -0.6757  0.2648
 5535ntf    on526321   6.767   7.388   0.970  0.2467  0.3920 -0.1711
 5535ntf    on526322   7.003   7.463   0.975  0.0495  0.0791 -0.7589
 5535ntf    fn426323   6.789   7.676   0.941 -1.3084  0.3492 -0.0481
 5535ntf    fn426324   6.704   7.622   1.128 -0.2355  0.4540 -0.3018
 5535ntf    fn426325   6.911   7.685   1.117 -0.0127 -0.3369 -0.1534
 5536ntf    cn126326   0.677   0.150   5.363  0.1291 -0.7220  0.3586
 5536ntf    sn226327   0.653   0.198   5.537  0.0903  0.3068  0.0771
 5536ntf    nn326328   0.803   0.171   5.574  0.1514  0.2306 -0.2190
 5536ntf    sn226329   0.929   0.256   5.613  0.4585 -0.3449  0.0635
 5536ntf    cn126330   1.049   0.125   5.648  0.2871 -0.4896  0.1082
 5536ntf    fn426331   0.753   0.042   5.362  0.9101 -0.1781  0.2359
 5536ntf    fn426332   0.563   0.119   5.302  0.0436  0.1774  0.0488
 5536ntf    fn426333   0.730   0.243   5.285 -0.4679 -0.1929  0.5738
 5536ntf    on526334   0.616   0.337   5.544  0.4699  0.3942  0.3955
 5536ntf    on526335   0.563   0.103   5.596 -0.4530  0.7781  0.0121
 5536ntf    on526336   0.931   0.320   5.743 -0.2252  0.4192 -0.2898
 5536ntf    on526337   0.985   0.330   5.503  0.0419 -0.0544  0.0422
 5536ntf    fn426338   1.176   0.162   5.651  0.1045  0.2113 -0.7435
 5536ntf    fn426339   1.022   0.071   5.766 -0.2634 -0.2539  0.0932
 5536ntf    fn426340   1.039   0.031   5.555  0.0422  0.2514 -0.6172
 5537ntf    cn126341   4.199   1.089   0.658 -0.0375  0.1282  0.0642
 5537ntf    sn226342   4.151   1.026   0.494 -0.2119  0.5599 -0.0516
 5537ntf    nn326343   4.215   1.142   0.409  0.0664  0.4055 -0.0544
 5537ntf    sn226344   4.135   1.267   0.358 -0.0800  0.2548 -0.1977
 5537ntf    cn126345   4.254   1.399   0.319 -0.3214  0.4324 -0.3319
 5537ntf    fn426346   4.328   1.106   0.680 -0.0080  0.0097 -0.0146
 5537ntf    fn426347   4.140   1.203   0.690  0.1351  0.1969  0.1342
 5537ntf    fn426348   4.166   0.994   0.744  0.4362 -0.2392 -0.1562
 5537ntf    on526349   4.220   0.899   0.494 -0.1820  0.5743  0.6158
 5537ntf    on526350   4.008   1.013   0.494 -0.2374  0.7916  0.6480
 5537ntf    on526351   4.055   1.336   0.456  0.1089 -0.1700  0.2594
 5537ntf    on526352   4.073   1.241   0.231  0.3543 -1.2207 -0.1221
 5537ntf    fn426353   4.332   1.365   0.219 -0.0102  0.4391 -0.0931
 5537ntf    fn426354   4.193   1.511   0.282 -0.2344  0.7098  0.3456
 5537ntf    fn426355   4.335   1.427   0.420 -0.4077 -0.1136 -0.1108
 5538ntf    cn126356   0.470   0.118   7.467  0.2107  0.1227 -0.1536
 5538ntf    sn226357   0.530   0.067   7.631 -0.1781  0.2197  0.0199
 5538ntf    nn326358   0.624  -0.041   7.567  0.5202  0.7132  0.2017
 5538ntf    sn226359   0.733  -0.117   7.652  0.2424 -0.3987 -0.4174
 5538ntf    cn126360   0.658  -0.282   7.669  0.4763 -0.4824 -0.2071
 5538ntf    fn426361   0.422   0.015   7.399  0.2680  0.1242 -0.1963
 5538ntf    fn426362   0.372   0.207   7.459  0.1486  0.0867  0.1903
 5538ntf    fn426363   0.564   0.181   7.398  0.1714 -0.0782 -0.3929
 5538ntf    on526364   0.579   0.194   7.679  0.2437 -0.0748  0.3757
 5538ntf    on526365   0.412   0.010   7.690  0.1031 -0.1643  0.2134
 5538ntf    on526366   0.738  -0.061   7.785  0.0867  0.1812 -0.6519
 5538ntf    on526367   0.855  -0.131   7.577  0.6451  0.0002  0.1573
 5538ntf    fn426368   0.744  -0.377   7.702  0.5746 -0.3256 -0.0052
 5538ntf    fn426369   0.564  -0.285   7.762  0.3479 -0.3184 -0.3322
 5538ntf    fn426370   0.593  -0.326   7.563 -0.1081  0.0775 -0.0881
 5539ntf    cn126371   1.171   4.898   4.544  0.0893 -0.2262  0.4363
 5539ntf    sn226372   1.278   5.029   4.478 -0.2727 -0.1690 -0.0405
 5539ntf    nn326373   1.412   4.949   4.492 -0.0960  0.1315 -0.0044
 5539ntf    sn226374   1.519   4.893   4.391 -0.0855 -0.1087  0.1394
 5539ntf    cn126375   1.538   4.731   4.471 -0.2863 -0.2058 -0.0121
 5539ntf    fn426376   1.165   4.794   4.463  0.1002  0.1177 -0.0113
 5539ntf    fn426377   1.207   4.844   4.660  0.0340 -0.5667  0.2949
 5539ntf    fn426378   1.048   4.942   4.563  0.2758  0.4942 -0.0210
 5539ntf    on526379   1.221   5.057   4.349  0.0743  0.5064 -0.0524
 5539ntf    on526380   1.262   5.126   4.583  0.3541 -0.0141 -0.0838
 5539ntf    on526381   1.652   4.948   4.405 -0.3047  0.4336  0.1008
 5539ntf    on526382   1.468   4.869   4.259 -0.2330  0.1103  0.1563
 5539ntf    fn426383   1.585   4.735   4.594  0.0404  0.3957 -0.1569
 5539ntf    fn426384   1.423   4.667   4.484 -0.3528 -0.0020  0.4093
 5539ntf    fn426385   1.618   4.649   4.405 -0.3785 -0.3630  0.0702
 5540ntf    cn126386   4.486   4.846   0.323  0.2013  0.0070 -0.0735
 5540ntf    sn226387   4.655   4.899   0.282  0.2759 -0.0913  0.1046
 5540ntf    nn326388   4.681   5.000   0.399 -0.3728  0.4806 -0.2379
 5540ntf    sn226389   4.734   5.148   0.396 -0.1315  0.3975 -0.0734
 5540ntf    cn126390   4.912   5.110   0.411 -0.2404 -0.0789  0.0578
 5540ntf    fn426391   4.482   4.773   0.434  0.1109  0.0200 -0.0674
 5540ntf    fn426392   4.401   4.947   0.335  0.5641  0.2543  0.4586
 5540ntf    fn426393   4.433   4.769   0.230  0.1584  0.2066 -0.2141
 5540ntf    on526394   4.715   4.770   0.308  0.2239 -0.2749 -0.6578
 5540ntf    on526395   4.666   4.943   0.146  0.0556 -0.5184 -0.0535
 5540ntf    on526396   4.710   5.212   0.522 -0.6620 -0.0409  0.0506
 5540ntf    on526397   4.729   5.232   0.279 -0.0370  0.0008 -0.3644
 5540ntf    fn426398   4.981   5.223   0.417 -0.1779 -0.1027 -0.1718
 5540ntf    fn426399   4.936   5.046   0.523  0.0142 -0.2941 -0.1201
 5540ntf    fn426400   4.965   5.039   0.313  0.1432 -0.3628  0.4690
 5541ntf    cn126401   4.331   0.142   1.789 -0.0757 -0.5078 -0.1815
 5541ntf    sn226402   4.363   0.082   1.957  0.4388  0.2388 -0.0088
 5541ntf    nn326403   4.454  -0.041   1.921 -0.0414  0.0383 -0.5329
 5541ntf    sn226404   4.594  -0.075   1.982 -0.1114  0.4616 -0.1329
 5541ntf    cn126405   4.558  -0.248   2.025  0.3118  0.5805  0.7161
 5541ntf    fn426406   4.268   0.052   1.715 -0.2882 -0.2225 -0.3521
 5541ntf    fn426407   4.256   0.251   1.781  0.1539 -0.3891 -0.7270
 5541ntf    fn426408   4.441   0.179   1.726  0.2155 -0.2976  0.4411
 5541ntf    on526409   4.413   0.195   2.032  0.5754 -0.0493  0.3417
 5541ntf    on526410   4.233   0.027   1.985  0.7102 -0.0088  0.8192
 5541ntf    on526411   4.622  -0.020   2.112 -0.3942  0.6233 -0.1410
 5541ntf    on526412   4.707  -0.103   1.896  0.0451  0.0178  0.2120
 5541ntf    fn426413   4.460  -0.261   2.113  0.2342 -0.7211  0.4541
 5541ntf    fn426414   4.519  -0.311   1.916  1.1808  0.4142  0.4899
 5541ntf    fn426415   4.652  -0.323   2.080  0.1327 -0.2117 -0.0472
 5542ntf    cn126416   6.906   0.709   6.719 -0.3858  0.0306  0.3389
 5542ntf    sn226417   6.770   0.796   6.635 -0.1841  0.0442  0.0259
 5542ntf    nn326418   6.738   0.893   6.753  0.3788 -0.4282  0.5757
 5542ntf    sn226419   6.652   0.863   6.881 -0.3221 -0.0177  0.2142
 5542ntf    cn126420   6.533   0.999   6.873 -0.2164  0.0783  0.2723
 5542ntf    fn426421   6.966   0.774   6.817 -0.1245 -0.4813  0.5180
 5542ntf    fn426422   6.861   0.600   6.778  0.3058 -0.4306  0.0223
 5542ntf    fn426423   7.000   0.665   6.638 -0.8469 -0.4749  0.0689
 5542ntf    on526424   6.844   0.860   6.529  0.2422 -0.5020 -0.0120
 5542ntf    on526425   6.678   0.687   6.612 -0.7036  0.4286  0.2624
 5542ntf    on526426   6.711   0.886   7.011  0.3717 -0.3596 -0.0326
 5542ntf    on526427   6.562   0.752   6.863  0.1397 -0.4796  0.6983
 5542ntf    fn426428   6.453   0.987   6.768  0.3095  0.0219 -0.1246
 5542ntf    fn426429   6.456   1.016   6.979 -0.6386  0.1167 -0.0367
 5542ntf    fn426430   6.595   1.116   6.866 -0.7311  0.3562  0.2800
 5543ntf    cn126431   3.296   1.831   2.908  0.5698 -0.2963  0.1124
 5543ntf    sn226432   3.432   1.794   2.794  0.4879 -0.1760 -0.0244
 5543ntf    nn326433   3.398   1.653   2.733  0.6425 -0.1981 -0.0614
 5543ntf    sn226434   3.392   1.513   2.804  0.1160 -0.1591 -0.0293
 5543ntf    cn126435   3.496   1.415   2.692  0.0353 -0.0690 -0.1837
 5543ntf    fn426436   3.182   1.836   2.842  0.5269 -0.4925  0.1701
 5543ntf    fn426437   3.282   1.742   3.006  0.0863 -0.5959 -0.2290
 5543ntf    fn426438   3.306   1.943   2.978  0.1875 -0.2724  0.1318
 5543ntf    on526439   3.412   1.895   2.693 -0.5793  0.1615  0.5163
 5543ntf    on526440   3.555   1.799   2.870  0.2725 -0.2987  0.3335
 5543ntf    on526441   3.264   1.449   2.780  0.1211 -0.1663 -0.0378
 5543ntf    on526442   3.449   1.486   2.933  0.8695  0.4404 -0.2272
 5543ntf    fn426443   3.518   1.298   2.748 -0.2250 -0.1053 -0.1551
 5543ntf    fn426444   3.445   1.382   2.574 -0.6979 -0.4343  0.2328
 5543ntf    fn426445   3.616   1.467   2.674 -0.1746  0.4923  0.0258
 5544ntf    cn126446   4.686   4.472   2.162 -0.1532  0.4947 -0.6476
 5544ntf    sn226447   4.692   4.597   2.030 -0.0139  0.6613 -0.4843
 5544ntf    nn326448   4.728   4.510   1.904  0.0255 -0.9760  0.6279
 5544ntf    sn226449   4.624   4.463   1.796  0.1359 -0.0814  0.1259
 5544ntf    cn126450   4.624   4.611   1.690 -0.3613  0.1540  0.4543
 5544ntf    fn426451   4.572   4.406   2.175  0.6262 -0.6966  0.3618
 5544ntf    fn426452   4.774   4.379   2.128 -0.1529  0.2908 -0.0891
 5544ntf    fn426453   4.716   4.520   2.281 -0.5176 -0.1966 -0.2717
 5544ntf    on526454   4.561   4.658   2.036 -0.0416  0.6455 -0.8670
 5544ntf    on526455   4.802   4.683   2.063  0.2982  0.0217  0.1581
 5544ntf    on526456   4.484   4.460   1.830  0.0523 -0.9137 -0.2742
 5544ntf    on526457   4.683   4.357   1.717 -0.5075 -0.1485 -0.2676
 5544ntf    fn426458   4.739   4.654   1.641 -0.2523 -0.4049  0.2133
 5544ntf    fn426459   4.550   4.589   1.582  0.1907  0.0917  0.0889
 5544ntf    fn426460   4.570   4.722   1.738 -0.4777  0.2198  0.1721
 5545ntf    cn126461   5.952   5.657   2.576 -0.0541  0.1317 -0.1765
 5545ntf    sn226462   6.099   5.552   2.552 -0.0965  0.0289  0.0148
 5545ntf    nn326463   6.078   5.529   2.399 -0.4285  0.4700 -0.0060
 5545ntf    sn226464   6.078   5.394   2.319  0.0988  0.4857 -0.0360
 5545ntf    cn126465   5.910   5.323   2.328  0.3365 -0.0589  0.1304
 5545ntf    fn426466   5.934   5.679   2.705 -0.4608 -0.0973 -0.1929
 5545ntf    fn426467   5.960   5.772   2.511 -0.2369  0.1891 -0.0952
 5545ntf    fn426468   5.841   5.599   2.534  0.1428 -0.4669  0.1185
 5545ntf    on526469   6.214   5.635   2.583 -0.4841  0.3842  0.5246
 5545ntf    on526470   6.077   5.434   2.633 -0.1782  0.0204 -0.0209
 5545ntf    on526471   6.168   5.294   2.371 -0.0447  0.6545  0.5462
 5545ntf    on526472   6.094   5.430   2.180 -0.1422  0.9584  0.0539
 5545ntf    fn426473   5.831   5.391   2.247 -0.0173 -0.2408  0.3211
 5545ntf    fn426474   5.895   5.194   2.304 -0.4377  0.1465 -0.5160
 5545ntf    fn426475   5.863   5.339   2.451  0.5839  0.4119  0.1675
 5546ntf    cn126476   3.937   1.253   2.154 -0.1516 -0.3913 -0.4728
 5546ntf    sn226477   3.785   1.179   2.088 -0.2198 -0.4381 -0.2655
 5546ntf    nn326478   3.847   1.136   1.950  0.2739 -0.1419 -0.1391
 5546ntf    sn226479   3.800   1.022   1.852 -0.0698 -0.0699 -0.0599
 5546ntf    cn126480   3.695   1.113   1.736 -0.1539 -0.1098 -0.0151
 5546ntf    fn426481   3.911   1.339   2.252 -0.4637 -0.4939 -0.4669
 5546ntf    fn426482   4.020   1.159   2.197  0.4501  0.2573 -0.1864
 5546ntf    fn426483   4.012   1.313   2.064  0.4662  0.2357  0.4344
 5546ntf    on526484   3.752   1.071   2.179 -0.5380  0.3450  0.5591
 5546ntf    on526485   3.697   1.292   2.083  0.4336  0.0853 -0.0735
 5546ntf    on526486   3.708   0.927   1.909 -0.0869 -0.0444 -0.0455
 5546ntf    on526487   3.908   0.965   1.775  0.3355 -0.2038  0.5968
 5546ntf    fn426488   3.763   1.186   1.650 -0.2883  0.2377  0.1699
 5546ntf    fn426489   3.620   1.036   1.659 -0.5798  0.6151 -0.3431
 5546ntf    fn426490   3.599   1.184   1.794  0.3245  0.5725 -0.0415
 5547ntf    cn126491   6.112   3.342   5.654 -0.0098 -0.0585 -0.0649
 5547ntf    sn226492   6.122   3.185   5.563  0.1734  0.0085 -0.1604
 5547ntf    nn326493   6.227   3.234   5.457 -0.0262  0.3459 -0.2038
 5547ntf    sn226494   6.268   3.155   5.327  0.3710  0.0795  0.0818
 5547ntf    cn126495   6.429   3.081   5.368  0.3503 -0.0752 -0.1131
 5547ntf    fn426496   6.036   3.351   5.762  0.4080 -0.1277  0.2335
 5547ntf    fn426497   6.230   3.365   5.709  0.0512  0.1287 -0.2730
 5547ntf    fn426498   6.075   3.437   5.570  0.6313 -0.5234 -0.8903
 5547ntf    on526499   6.177   3.094   5.660 -0.3606  0.1192  0.2485
 5547ntf    on526500   5.993   3.155   5.506 -0.2914  0.4700  0.6249
 5547ntf    on526501   6.295   3.240   5.214  0.1918  0.2579  0.1749
 5547ntf    on526502   6.187   3.038   5.302  0.5193  0.0039 -0.0411
 5547ntf    fn426503   6.494   3.048   5.258  0.1890  0.1576 -0.2770
 5547ntf    fn426504   6.499   3.174   5.430 -0.0550  0.5960 -0.6538
 5547ntf    fn426505   6.428   2.969   5.439 -0.3500  0.2404  0.3909
 5548ntf    cn126506   6.633   1.600   1.316 -0.0022 -0.0282  0.2881
 5548ntf    sn226507   6.806   1.558   1.277 -0.1790 -0.3008 -0.2126
 5548ntf    nn326508   6.864   1.566   1.423 -0.2585 -0.3951 -0.1749
 5548ntf    sn226509   6.999   1.510   1.480 -0.3355 -0.2299  0.1720
 5548ntf    cn126510   7.087   1.669   1.485 -0.1175 -0.3181 -0.6712
 5548ntf    fn426511   6.557   1.625   1.211  0.1475 -0.3674  0.0942
 5548ntf    fn426512   6.580   1.504   1.391 -0.2602  0.0372  0.1889
 5548ntf    fn426513   6.629   1.711   1.387 -0.3262 -0.0880  0.3656
 5548ntf    on526514   6.799   1.429   1.213  0.0150 -0.0089 -0.8229
 5548ntf    on526515   6.850   1.673   1.203 -0.3770  0.1977  0.4316
 5548ntf    on526516   7.084   1.438   1.388 -0.2570  0.4038 -0.2556
 5548ntf    on526517   7.000   1.468   1.618  0.1454 -0.2562  0.1621
 5548ntf    fn426518   7.207   1.658   1.539 -0.0975  0.3201 -0.5780
 5548ntf    fn426519   7.112   1.724   1.368  0.6338  0.3881 -0.1851
 5548ntf    fn426520   7.019   1.757   1.557  0.9393  0.1842 -0.2682
 5549ntf    cn126521   0.392   6.884   7.605  0.2301  0.0770 -0.1893
 5549ntf    sn226522   0.484   6.730   7.574  0.0734 -0.1272  0.3532
 5549ntf    nn326523   0.377   6.616   7.581  0.3468 -0.4147 -0.1239
 5549ntf    sn226524   0.337   6.537   7.711 -0.1310 -0.1772 -0.1247
 5549ntf    cn126525   0.469   6.413   7.706 -0.0479 -0.0895 -0.1306
 5549ntf    fn426526   0.304   6.906   7.509 -0.0781 -0.1869  0.0300
 5549ntf    fn426527   0.328   6.890   7.720  0.0931  0.3601 -0.2797
 5549ntf    fn426528   0.468   6.992   7.603  0.5065 -0.1238 -0.9226
 5549ntf    on526529   0.543   6.743   7.443  0.4430 -0.0771  0.5240
 5549ntf    on526530   0.581   6.718   7.681 -0.0885  0.0407  0.5187
 5549ntf    on526531   0.219   6.460   7.679 -0.6575  0.5491  0.0412
 5549ntf    on526532   0.340   6.608   7.836 -0.1432  0.1564 -0.3122
 5549ntf    fn426533   0.456   6.335   7.812  0.2180  0.1385  0.0711
 5549ntf    fn426534   0.469   6.330   7.603 -0.1320  0.1275 -0.3034
 5549ntf    fn426535   0.591   6.465   7.714 -0.2888  0.3940  0.5106
 5550ntf    cn126536   5.260   6.616   2.928  0.1683  0.0188 -0.1823
 5550ntf    sn226537   5.420   6.675   2.991  0.0490 -0.0307  0.1737
 5550ntf    nn326538   5.480   6.543   3.053 -0.2325 -0.1165  0.2636
 5550ntf    sn226539   5.586   6.448   2.988 -0.1508  0.0123  0.2080
 5550ntf    cn126540   5.740   6.524   3.049 -0.0261 -0.3029  0.2848
 5550ntf    fn426541   5.278   6.568   2.807  0.1585 -0.4859  0.0157
 5550ntf    fn426542   5.209   6.525   3.010  0.1889  0.0727 -0.1097
 5550ntf    fn426543   5.168   6.711   2.914  0.1642 -0.0321 -0.5057
 5550ntf    on526544   5.492   6.726   2.876 -0.7077 -0.4763 -0.5083
 5550ntf    on526545   5.391   6.774   3.091 -0.0194 -0.1302  0.2530
 5550ntf    on526546   5.589   6.453   2.844 -0.3688 -0.1536  0.1978
 5550ntf    on526547   5.575   6.318   3.050 -0.7064  0.1379  0.3800
 5550ntf    fn426548   5.844   6.453   3.006  0.2774  0.2600  0.0849
 5550ntf    fn426549   5.765   6.650   3.016  0.4939 -0.3872  0.3418
 5550ntf    fn426550   5.754   6.519   3.180  0.0249  0.6158  0.3180
 5551ntf    cn126551   2.528   2.702   3.510  0.2504  0.0719  0.0852
 5551ntf    sn226552   2.386   2.814   3.487  0.0472 -0.2567 -0.2926
 5551ntf    nn326553   2.315   2.736   3.371 -0.2698 -0.5957  0.1265
 5551ntf    sn226554   2.324   2.775   3.220 -0.2744 -0.1194  0.2475
 5551ntf    cn126555   2.319   2.603   3.163  0.0895 -0.1688  0.3602
 5551ntf    fn426556   2.484   2.577   3.501 -0.1186  0.1753  0.4205
 5551ntf    fn426557   2.623   2.720   3.419  0.2665 -0.3896  0.0064
 5551ntf    fn426558   2.583   2.716   3.629  0.2219 -0.5573  0.1756
 5551ntf    on526559   2.311   2.807   3.610 -0.2729 -0.3239 -0.4922
 5551ntf    on526560   2.440   2.943   3.452 -0.5607  0.1784  0.3255
 5551ntf    on526561   2.451   2.822   3.167 -0.9292  0.3682 -0.9458
 5551ntf    on526562   2.204   2.833   3.165 -0.1730  0.0168  0.1664
 5551ntf    fn426563   2.431   2.535   3.181 -0.0304 -0.5676 -0.3681
 5551ntf    fn426564   2.224   2.537   3.228  0.3980 -0.5012  0.4818
 5551ntf    fn426565   2.282   2.572   3.040  0.1358  0.3336  0.2172
 5552ntf    cn126566   4.245   1.894   1.350 -0.2888  0.3352  0.2350
 5552ntf    sn226567   4.400   1.814   1.298 -0.3606  0.2426  0.1620
 5552ntf    nn326568   4.382   1.673   1.364  0.0760 -0.0421 -0.3167
 5552ntf    sn226569   4.497   1.581   1.417 -0.2994 -0.0917  0.4253
 5552ntf    cn126570   4.500   1.461   1.281  0.3360  0.2534  0.1270
 5552ntf    fn426571   4.141   1.836   1.294  0.1494  0.1954 -0.4568
 5552ntf    fn426572   4.214   1.885   1.478  0.1212 -0.5408  0.2790
 5552ntf    fn426573   4.231   2.017   1.304 -0.1242  0.1376 -0.3560
 5552ntf    on526574   4.386   1.806   1.155 -0.6722  0.5210  0.1777
 5552ntf    on526575   4.501   1.897   1.360  0.1404  0.0420 -0.3793
 5552ntf    on526576   4.468   1.505   1.536 -0.8513  0.3425  0.5734
 5552ntf    on526577   4.632   1.632   1.405 -0.1064 -0.7492 -0.2237
 5552ntf    fn426578   4.394   1.381   1.281  0.1218  0.5378  0.3899
 5552ntf    fn426579   4.511   1.520   1.164 -0.0190  0.3816  0.1577
 5552ntf    fn426580   4.605   1.381   1.292 -0.2525 -0.5885 -0.2213
 5553ntf    cn126581   1.852   3.024   2.313  0.3302 -0.1883 -0.3752
 5553ntf    sn226582   1.792   3.171   2.223 -0.1670 -0.1331  0.0455
 5553ntf    nn326583   1.845   3.288   2.313 -0.4867  0.1168 -0.0892
 5553ntf    sn226584   1.965   3.389   2.295  0.0191 -0.4569  0.0427
 5553ntf    cn126585   1.889   3.518   2.193  0.0465 -0.2096  0.3339
 5553ntf    fn426586   1.804   2.912   2.263 -0.2511 -0.1540  0.0939
 5553ntf    fn426587   1.984   3.017   2.305  0.3515  0.5365 -0.8425
 5553ntf    fn426588   1.816   3.025   2.440 -0.3923  0.6514 -0.5771
 5553ntf    on526589   1.844   3.156   2.090 -0.1187 -1.0362  0.1593
 5553ntf    on526590   1.650   3.146   2.227 -0.0332 -0.9330  0.0180
 5553ntf    on526591   2.079   3.337   2.225 -0.2893 -0.0654 -0.7545
 5553ntf    on526592   1.992   3.465   2.415 -0.2239  0.5972 -0.5690
 5553ntf    fn426593   1.972   3.597   2.127  0.6071 -0.7607  0.3762
 5553ntf    fn426594   1.820   3.463   2.094  0.2471 -0.0312  0.0949
 5553ntf    fn426595   1.802   3.591   2.261 -0.3018 -0.2692 -0.0454
 5554ntf    cn126596   7.434   5.793   5.179 -0.2069  0.0560 -0.3015
 5554ntf    sn226597   7.281   5.698   5.200  0.0868 -0.3031  0.2465
 5554ntf    nn326598   7.301   5.555   5.139 -0.6389 -0.1805 -0.2982
 5554ntf    sn226599   7.388   5.437   5.195 -0.0214  0.5406  0.2892
 5554ntf    cn126600   7.265   5.344   5.290 -0.0235  0.0755 -0.1593
 5554ntf    fn426601   7.423   5.921   5.213  0.4361  0.0660 -0.1089
 5554ntf    fn426602   7.530   5.735   5.249 -0.5229 -0.0420  0.0561
 5554ntf    fn426603   7.472   5.803   5.053  0.1288 -0.3314 -0.2335
 5554ntf    on526604   7.264   5.695   5.343 -0.3937  0.0433  0.1996
 5554ntf    on526605   7.175   5.764   5.127  0.8214  0.4594 -0.1437
 5554ntf    on526606   7.493   5.460   5.291 -0.0304  0.3144  0.3543
 5554ntf    on526607   7.407   5.336   5.093  0.3180 -0.1827  1.0606
 5554ntf    fn426608   7.249   5.391   5.413 -0.6887  0.5860 -0.4345
 5554ntf    fn426609   7.145   5.352   5.234 -0.1362  0.0475  0.0734
 5554ntf    fn426610   7.293   5.216   5.304 -0.5730  0.0031  0.3399
 5555ntf    cn126611   4.104   4.477   2.771  0.0218  0.0754 -0.2007
 5555ntf    sn226612   4.175   4.496   2.938 -0.0905 -0.2454 -0.1156
 5555ntf    nn326613   4.050   4.461   3.026 -0.0782 -0.1180 -0.0461
 5555ntf    sn226614   4.025   4.327   3.105  0.2347 -0.0284  0.2066
 5555ntf    cn126615   4.012   4.413   3.265 -0.0040  0.2519  0.0395
 5555ntf    fn426616   4.201   4.485   2.682  0.0612 -0.8104 -0.2416
 5555ntf    fn426617   4.053   4.357   2.749 -0.2079  0.0233  0.5684
 5555ntf    fn426618   4.016   4.571   2.743 -0.1740 -0.1458 -0.3280
 5555ntf    on526619   4.286   4.404   2.946 -0.1342 -0.3393 -0.5454
 5555ntf    on526620   4.199   4.638   2.952 -0.4903 -0.0991 -0.8432
 5555ntf    on526621   4.128   4.229   3.127  0.4276  0.1409  0.0658
 5555ntf    on526622   3.887   4.288   3.090  0.0588  0.6344  0.0294
 5555ntf    fn426623   4.105   4.507   3.272  0.1301  0.1985 -0.9247
 5555ntf    fn426624   3.898   4.474   3.290  0.0029  0.1679  0.2741
 5555ntf    fn426625   4.028   4.330   3.366  0.6608  0.0957 -0.1878
 5556ntf    cn126626   2.046   0.219   0.994 -0.2156 -0.4374 -0.4049
 5556ntf    sn226627   1.914   0.183   1.113  0.0140 -0.4726 -0.1589
 5556ntf    nn326628   1.939   0.030   1.137  0.3939 -0.3620  0.1646
 5556ntf    sn226629   1.896  -0.081   1.035 -0.1983 -0.0126  0.0231
 5556ntf    cn126630   2.052  -0.170   1.004 -0.4187 -0.2518 -0.4071
 5556ntf    fn426631   2.169   0.229   1.042 -0.1931 -0.2138 -0.5093
 5556ntf    fn426632   2.050   0.128   0.899 -0.3011 -0.7714 -0.0893
 5556ntf    fn426633   2.021   0.336   0.938  0.3633 -0.0511  0.1254
 5556ntf    on526634   1.962   0.258   1.227  0.0066  0.4936 -0.7794
 5556ntf    on526635   1.792   0.231   1.052  0.0184 -0.1694  0.0653
 5556ntf    on526636   1.860  -0.039   0.902 -0.9756  0.3731  0.3542
 5556ntf    on526637   1.815  -0.183   1.098 -0.2649  0.1308  0.1715
 5556ntf    fn426638   2.115  -0.141   0.892 -0.2318 -0.6633 -0.4121
 5556ntf    fn426639   2.140  -0.158   1.102 -0.7470 -0.4046 -0.0857
 5556ntf    fn426640   2.035  -0.299   0.980  1.2003 -0.3874 -0.8925
 5557ntf    cn126641   6.171   1.482   0.833  0.0926  0.2240  0.0879
 5557ntf    sn226642   6.317   1.580   0.787  0.3425 -0.2034 -0.0454
 5557ntf    nn326643   6.267   1.728   0.767  0.7048 -0.0925 -0.1230
 5557ntf    sn226644   6.307   1.850   0.858 -0.1821  0.1073  0.0028
 5557ntf    cn126645   6.196   1.976   0.789 -0.1922  0.1858  0.1623
 5557ntf    fn426646   6.101   1.447   0.727 -0.0074 -0.2476  0.3054
 5557ntf    fn426647   6.212   1.375   0.900 -0.3622 -0.2344 -0.3580
 5557ntf    fn426648   6.080   1.540   0.910 -0.0913  0.3761 -0.2453
 5557ntf    on526649   6.406   1.565   0.899  0.1772 -0.0284  0.1116
 5557ntf    on526650   6.356   1.523   0.661 -0.0961 -0.0725 -0.2453
 5557ntf    on526651   6.439   1.904   0.840 -0.1175 -0.0144  0.1094
 5557ntf    on526652   6.267   1.828   0.995 -0.8296 -0.3292 -0.2474
 5557ntf    fn426653   6.249   2.097   0.793 -0.4889  0.3189  0.1083
 5557ntf    fn426654   6.179   1.945   0.662 -0.4304  0.0171  0.2338
 5557ntf    fn426655   6.080   1.977   0.853 -0.0964  0.2732  0.3367
 5558ntf    cn126656   5.194   5.935   2.236 -0.5074  0.0482  0.2414
 5558ntf    sn226657   5.015   5.910   2.228 -0.4558 -0.1688 -0.2495
 5558ntf    nn326658   5.002   5.769   2.295  0.4137  0.1498  0.6068
 5558ntf    sn226659   4.868   5.703   2.345  0.1459  0.4044  0.2316
 5558ntf    cn126660   4.887   5.674   2.524  0.4317  0.2924  0.1844
 5558ntf    fn426661   5.260   5.849   2.161  0.1490  0.7017  0.0478
 5558ntf    fn426662   5.228   6.055   2.191  0.0779 -0.0297  0.4559
 5558ntf    fn426663   5.242   5.929   2.360  0.1238  0.0628  0.0012
 5558ntf    on526664   4.963   6.021   2.304 -0.6202 -0.4432  0.0428
 5558ntf    on526665   4.993   5.910   2.085  0.5646  0.1349 -0.4124
 5558ntf    on526666   4.850   5.571   2.290  0.4041  0.5071 -0.1021
 5558ntf    on526667   4.760   5.798   2.345 -0.2929 -0.0911  0.2214
 5558ntf    fn426668   4.773   5.633   2.577  0.1175  0.4592 -0.3540
 5558ntf    fn426669   4.977   5.581   2.550  0.6063  0.4622  0.1861
 5558ntf    fn426670   4.916   5.786   2.588 -0.2333  1.0284 -0.7700
 5559ntf    cn126671   2.369   2.892   1.637  0.1352  0.0355 -0.4822
 5559ntf    sn226672   2.508   2.987   1.704 -0.1552  0.4140 -0.4107
 5559ntf    nn326673   2.506   3.117   1.617 -0.0628  0.2306 -0.6874
 5559ntf    sn226674   2.586   3.155   1.487  0.1495  0.0341 -0.6146
 5559ntf    cn126675   2.726   3.248   1.556 -0.0899  0.0625 -0.1598
 5559ntf    fn426676   2.392   2.864   1.509  0.1562 -0.3586 -0.3921
 5559ntf    fn426677   2.333   2.781   1.700 -0.0006  0.0295 -0.5681
 5559ntf    fn426678   2.257   2.961   1.622 -0.0673 -0.2537 -0.3061
 5559ntf    on526679   2.480   3.014   1.843 -0.0115  1.1518 -0.5253
 5559ntf    on526680   2.617   2.895   1.679 -0.3999 -0.0050  0.0332
 5559ntf    on526681   2.528   3.252   1.397 -0.6399 -0.3356 -0.5174
 5559ntf    on526682   2.656   3.041   1.434 -0.3689 -0.4053 -0.3703
 5559ntf    fn426683   2.784   3.181   1.654  0.1507  0.3966 -0.0727
 5559ntf    fn426684   2.815   3.260   1.459  0.1227 -0.4729 -0.0300
 5559ntf    fn426685   2.685   3.368   1.595  0.2814  0.1028  0.1055
 5560ntf    cn126686   5.315   4.919   4.711  0.3420  0.2867 -0.1881
 5560ntf    sn226687   5.157   4.885   4.628  0.3960  0.2127 -0.2621
 5560ntf    nn326688   5.201   4.797   4.507  0.0017  0.3322 -0.4955
 5560ntf    sn226689   5.221   4.641   4.507 -0.4502  0.2739 -0.0413
 5560ntf    cn126690   5.389   4.630   4.437 -0.3018 -0.3957  0.4039
 5560ntf    fn426691   5.291   4.976   4.828 -0.7996  0.1718 -0.3560
 5560ntf    fn426692   5.383   4.812   4.748  0.4181  0.2712 -0.3710
 5560ntf    fn426693   5.393   4.992   4.632  0.6255  0.0084 -0.1659
 5560ntf    on526694   5.064   4.821   4.718  0.1513  0.2512 -0.4859
 5560ntf    on526695   5.121   5.014   4.573  0.3680  0.6044  0.6518
 5560ntf    on526696   5.137   4.573   4.412 -0.2632  0.2330 -0.1783
 5560ntf    on526697   5.229   4.590   4.642 -0.0347  1.0908  0.2510
 5560ntf    fn426698   5.430   4.505   4.426  0.0013 -0.2807  0.2146
 5560ntf    fn426699   5.410   4.678   4.316 -0.1362  0.1036  0.6234
 5560ntf    fn426700   5.478   4.691   4.514  0.1176 -0.2501 -0.1960
 5561ntf    cn126701   6.942   2.467   1.944 -0.2538 -0.2041 -0.3825
 5561ntf    sn226702   6.793   2.569   1.931 -0.2096 -0.0878  0.0260
 5561ntf    nn326703   6.792   2.647   2.068  0.3060  0.2107 -0.1375
 5561ntf    sn226704   6.664   2.695   2.145  0.1797 -0.0495 -0.1823
 5561ntf    cn126705   6.675   2.566   2.272 -0.5070  0.0370 -0.0303
 5561ntf    fn426706   6.983   2.407   1.833  0.3403  0.3256 -0.4519
 5561ntf    fn426707   7.044   2.545   1.978 -0.0415 -0.4835 -0.3752
 5561ntf    fn426708   6.930   2.380   2.043  0.0044  0.0867 -0.0924
 5561ntf    on526709   6.821   2.647   1.813 -0.2522 -0.7150 -0.3987
 5561ntf    on526710   6.687   2.472   1.916 -0.5750  0.2442  0.4067
 5561ntf    on526711   6.532   2.681   2.090  0.2495 -0.4722 -0.2411
 5561ntf    on526712   6.683   2.817   2.220  0.3554 -0.2556  0.1100
 5561ntf    fn426713   6.590   2.601   2.367  0.2996  0.8666  0.4076
 5561ntf    fn426714   6.645   2.443   2.233 -0.8451  0.1437 -0.1072
 5561ntf    fn426715   6.791   2.562   2.336 -0.2848 -0.8022 -0.4685
 5562ntf    cn126716   1.057   6.423   6.614  0.2156 -0.0138  0.1652
 5562ntf    sn226717   0.910   6.507   6.549 -0.0628 -0.1748  0.5884
 5562ntf    nn326718   0.876   6.587   6.680 -0.5017  0.3623  0.1561
 5562ntf    sn226719   0.930   6.730   6.717  0.1819  0.0819  0.2663
 5562ntf    cn126720   0.789   6.815   6.640  0.3070  0.1306  0.0904
 5562ntf    fn426721   1.030   6.350   6.720  0.4759 -0.4653 -0.0765
 5562ntf    fn426722   1.112   6.341   6.525  0.9238 -0.1301  0.7020
 5562ntf    fn426723   1.157   6.503   6.649 -0.0049  0.4170 -0.1728
 5562ntf    on526724   0.957   6.585   6.437 -0.4308 -0.2155  0.4015
 5562ntf    on526725   0.815   6.401   6.527 -0.0758 -0.0631  0.0894
 5562ntf    on526726   1.050   6.783   6.656  0.1979 -0.1697  0.0805
 5562ntf    on526727   0.903   6.754   6.857 -0.1257  0.3347  0.1639
 5562ntf    fn426728   0.775   6.778   6.514 -0.0844  0.4344  0.0428
 5562ntf    fn426729   0.675   6.789   6.702 -0.2367  0.9789 -0.5400
 5562ntf    fn426730   0.809   6.946   6.643 -0.5394  0.2675  0.1582
 5563ntf    cn126731   4.287   4.168   2.582  0.1976 -0.4158 -0.6520
 5563ntf    sn226732   4.183   4.081   2.461 -0.1346 -0.2096 -0.5146
 5563ntf    nn326733   4.068   4.184   2.433 -0.3072 -0.1543  0.3670
 5563ntf    sn226734   3.938   4.214   2.517 -0.2803  0.0591  0.3341
 5563ntf    cn126735   3.806   4.168   2.400 -0.2171 -0.2905  0.3976
 5563ntf    fn426736   4.416   4.140   2.575  0.3540  0.1373 -0.0324
 5563ntf    fn426737   4.278   4.299   2.566 -0.7282 -0.3602  0.2454
 5563ntf    fn426738   4.249   4.145   2.707  0.3275 -0.1187 -0.5570
 5563ntf    on526739   4.263   4.057   2.344 -0.0345  0.0410 -0.4965
 5563ntf    on526740   4.142   3.958   2.525 -0.9012  0.3006 -0.0085
 5563ntf    on526741   3.933   4.358   2.522 -0.2257  0.0682  0.1599
 5563ntf    on526742   3.904   4.136   2.633 -0.2725  0.2554  0.4674
 5563ntf    fn426743   3.794   4.247   2.294  0.4977 -0.6416  0.0519
 5563ntf    fn426744   3.841   4.049   2.356  0.5521 -0.0044  0.2264
 5563ntf    fn426745   3.684   4.164   2.450 -0.1736 -0.4130  0.4940
 5564ntf    cn126746   4.412   3.901   6.118 -0.5986 -0.5808 -0.0531
 5564ntf    sn226747   4.349   3.959   6.278 -0.0495  0.3107 -0.1551
 5564ntf    nn326748   4.247   3.844   6.309  0.2504  0.0953  0.0352
 5564ntf    sn226749   4.266   3.697   6.360  0.7058  0.1340 -0.0187
 5564ntf    cn126750   4.129   3.620   6.268  0.5000  0.2323  0.2049
 5564ntf    fn426751   4.317   3.866   6.034 -0.6753  0.1341 -0.2650
 5564ntf    fn426752   4.491   3.996   6.071 -0.5342 -0.3011  0.6046
 5564ntf    fn426753   4.492   3.798   6.142  0.0489 -0.1602 -0.3707
 5564ntf    on526754   4.462   3.956   6.368 -0.4895 -0.5389  0.3807
 5564ntf    on526755   4.287   4.087   6.254 -0.3099  0.1921 -0.1177
 5564ntf    on526756   4.232   3.675   6.499 -0.3742  0.2081 -0.2654
 5564ntf    on526757   4.387   3.628   6.321  0.5633 -0.1936  0.1089
 5564ntf    fn426758   4.096   3.501   6.316  0.2332  0.1644 -0.1461
 5564ntf    fn426759   4.021   3.696   6.277  0.2609  0.0063 -0.6714
 5564ntf    fn426760   4.136   3.605   6.137 -0.1335 -0.5207  0.2509
 5565ntf    cn126761   2.713   3.999   3.032  0.2738 -0.0389  0.1566
 5565ntf    sn226762   2.739   4.143   2.924 -0.0011 -0.2327 -0.1711
 5565ntf    nn326763   2.887   4.123   2.875  0.1164 -0.7733  0.3933
 5565ntf    sn226764   3.020   4.149   2.953  0.0791 -0.1866  0.2636
 5565ntf    cn126765   3.122   4.230   2.825 -0.2349 -0.1208  0.0548
 5565ntf    fn426766   2.583   3.973   3.035  0.2750 -0.0714 -0.0303
 5565ntf    fn426767   2.778   3.897   2.978 -0.6392 -0.3180 -0.4373
 5565ntf    fn426768   2.753   4.028   3.154  0.4274  0.6158 -0.0442
 5565ntf    on526769   2.661   4.110   2.807 -0.3071 -0.3196  0.0559
 5565ntf    on526770   2.713   4.261   3.003  0.1159 -0.2539 -0.1014
 5565ntf    on526771   3.098   4.031   2.981  0.8421  0.1806 -0.2491
 5565ntf    on526772   3.014   4.240   3.064 -0.3960  0.0516  0.0434
 5565ntf    fn426773   3.247   4.228   2.867 -0.0163  0.2899 -0.5575
 5565ntf    fn426774   3.131   4.168   2.709  0.3028  0.4641 -0.2223
 5565ntf    fn426775   3.085   4.354   2.796 -0.0072 -0.1743 -0.4700
 5566ntf    cn126776   4.422   1.491   3.636 -0.3290  0.1511  0.1629
 5566ntf    sn226777   4.253   1.554   3.615 -0.3980 -0.1071 -0.0477
 5566ntf    nn326778   4.265   1.684   3.702  0.4269 -0.3711  0.2421
 5566ntf    sn226779   4.288   1.828   3.646  0.0302 -0.3065  0.2444
 5566ntf    cn126780   4.120   1.866   3.586  0.0563 -0.2539  0.2041
 5566ntf    fn426781   4.510   1.563   3.568 -0.1436 -0.3789 -0.1619
 5566ntf    fn426782   4.470   1.482   3.759 -0.3022 -0.1727  0.1286
 5566ntf    fn426783   4.445   1.379   3.570  0.2454 -0.0007  0.6064
 5566ntf    on526784   4.243   1.569   3.472  0.6665 -0.1763 -0.1408
 5566ntf    on526785   4.161   1.462   3.678 -0.0785 -0.3184  0.1120
 5566ntf    on526786   4.378   1.846   3.535 -0.0349  0.9283  0.3732
 5566ntf    on526787   4.307   1.915   3.759 -0.9005 -0.1087  0.2592
 5566ntf    fn426788   4.033   1.842   3.683  0.3582  0.3844  0.6396
 5566ntf    fn426789   4.117   1.995   3.558  0.4572 -0.3370 -0.2238
 5566ntf    fn426790   4.083   1.814   3.471  0.2984  0.2399 -0.0972
 5567ntf    cn126791   3.993   3.628   4.429  0.3148  0.2021 -0.1419
 5567ntf    sn226792   4.164   3.590   4.478  0.0993 -0.2378  0.2658
 5567ntf    nn326793   4.151   3.616   4.633  0.0840  0.6442  0.1212
 5567ntf    sn226794   4.208   3.537   4.756 -0.3366 -0.3147 -0.2817
 5567ntf    cn126795   4.053   3.481   4.831 -0.1463 -0.3271  0.1032
 5567ntf    fn426796   3.959   3.599   4.305  0.1130  0.0427 -0.0495
 5567ntf    fn426797   3.902   3.573   4.508  0.0819  1.1339  0.2520
 5567ntf    fn426798   3.975   3.759   4.436  0.4301  0.1765  0.7881
 5567ntf    on526799   4.173   3.450   4.441 -0.1924 -0.2661  0.2957
 5567ntf    on526800   4.247   3.694   4.424  0.0888 -0.5024 -0.2592
 5567ntf    on526801   4.256   3.626   4.859 -0.6666 -0.5403  0.0700
 5567ntf    on526802   4.293   3.423   4.733  0.2631  0.0158  0.2335
 5567ntf    fn426803   4.067   3.414   4.944  0.0625  0.1675  0.3764
 5567ntf    fn426804   3.971   3.582   4.859 -0.2308 -0.4023  0.1299
 5567ntf    fn426805   3.983   3.399   4.755  0.6808 -0.3630 -0.6290
 5568ntf    cn126806   1.044   7.106   4.286 -0.0372 -0.1330  0.0614
 5568ntf    sn226807   1.046   6.978   4.416 -0.2368 -0.1292  0.0687
 5568ntf    nn326808   1.052   7.078   4.536  0.0378  0.0604 -0.1010
 5568ntf    sn226809   1.178   7.104   4.626  0.1602 -0.0676 -0.2355
 5568ntf    cn126810   1.123   7.267   4.683  0.2628 -0.0085 -0.3038
 5568ntf    fn426811   1.042   7.043   4.170 -0.4219 -0.3930  0.2057
 5568ntf    fn426812   0.941   7.189   4.291  0.0417 -0.0690  0.6846
 5568ntf    fn426813   1.154   7.179   4.292 -0.0520 -0.1125  0.0784
 5568ntf    on526814   0.920   6.912   4.391 -0.1486 -0.1277 -0.4011
 5568ntf    on526815   1.165   6.902   4.391  0.0630  0.2533  0.3309
 5568ntf    on526816   1.297   7.127   4.547  0.5362 -0.4586  0.2101
 5568ntf    on526817   1.181   7.025   4.747  0.2257  0.0794 -0.1407
 5568ntf    fn426818   1.155   7.354   4.589  0.5193  0.0666 -0.1489
 5568ntf    fn426819   0.994   7.261   4.713  0.3628  0.3788  0.2403
 5568ntf    fn426820   1.184   7.311   4.792 -0.0107  0.0278 -0.1639
 5569ntf    cn126821   6.163   2.266   6.518 -0.1332  0.2037  0.1866
 5569ntf    sn226822   6.087   2.428   6.550 -0.2692  0.1635  0.0668
 5569ntf    nn326823   6.078   2.434   6.707 -0.2398  0.6057  0.0529
 5569ntf    sn226824   6.194   2.443   6.812 -0.1293 -0.3187  0.0198
 5569ntf    cn126825   6.125   2.559   6.935  0.0326  0.1675 -0.3457
 5569ntf    fn426826   6.282   2.257   6.575 -0.1756  0.2616  0.2858
 5569ntf    fn426827   6.088   2.169   6.570 -0.2451  0.2532  0.1170
 5569ntf    fn426828   6.185   2.244   6.390  0.0972 -0.4221  0.3287
 5569ntf    on526829   6.174   2.529   6.494  0.0693 -0.2498 -0.1579
 5569ntf    on526830   5.955   2.418   6.494 -0.3236 -0.2622  0.2648
 5569ntf    on526831   6.318   2.503   6.771 -0.2487  0.3235  0.5752
 5569ntf    on526832   6.199   2.319   6.886 -0.5812 -0.3076  0.0729
 5569ntf    fn426833   6.018   2.507   6.993  0.3179 -0.0975 -0.0500
 5569ntf    fn426834   6.214   2.586   7.028  0.1995 -0.2722 -0.3708
 5569ntf    fn426835   6.093   2.678   6.888  0.1741  0.3257 -0.0408
 5570ntf    cn126836   4.570   6.743   5.288  0.1891  0.0645 -0.1955
 5570ntf    sn226837   4.504   6.879   5.390  0.0780 -0.2304  0.1245
 5570ntf    nn326838   4.353   6.873   5.347  0.0292  0.2977  0.2186
 5570ntf    sn226839   4.276   6.953   5.236  0.0566  0.2569  0.1695
 5570ntf    cn126840   4.154   7.040   5.340 -0.2743 -0.1710  0.1430
 5570ntf    fn426841   4.507   6.627   5.289  0.0001  0.1671 -0.1938
 5570ntf    fn426842   4.572   6.770   5.158  0.3980 -0.3466 -0.2792
 5570ntf    fn426843   4.696   6.711   5.309  0.3620  0.9130  0.1230
 5570ntf    on526844   4.521   6.829   5.524 -0.1481 -0.8988 -0.0910
 5570ntf    on526845   4.580   6.997   5.357  0.4583 -0.5721 -0.2394
 5570ntf    on526846   4.187   6.861   5.170  0.1265  0.1851  0.1748
 5570ntf    on526847   4.338   7.058   5.159  0.3542  0.1840  0.3087
 5570ntf    fn426848   4.082   6.954   5.410 -0.5718  0.4868  0.6490
 5570ntf    fn426849   4.200   7.135   5.419 -0.5732  0.4143 -0.3729
 5570ntf    fn426850   4.066   7.091   5.256  0.0873  0.2168 -0.0044
 5571ntf    cn126851   4.793   5.533   3.337  0.1377 -0.4950  0.0263
 5571ntf    sn226852   4.813   5.449   3.497 -0.3185 -0.1960  0.2428
 5571ntf    nn326853   4.669   5.450   3.558 -0.3563 -0.1179  0.1542
 5571ntf    sn226854   4.589   5.329   3.619  0.0260 -0.4211  0.0601
 5571ntf    cn126855   4.443   5.356   3.514  0.1578  0.0459 -0.0070
 5571ntf    fn426856   4.775   5.663   3.355 -0.0142 -0.5027 -0.0699
 5571ntf    fn426857   4.905   5.532   3.267  0.6249 -0.2470  0.7908
 5571ntf    fn426858   4.695   5.495   3.257  0.3018 -0.2065 -0.3170
 5571ntf    on526859   4.869   5.323   3.455 -0.1551 -0.0042 -0.1245
 5571ntf    on526860   4.901   5.543   3.562 -0.2708  0.0292 -0.1412
 5571ntf    on526861   4.528   5.349   3.748  0.8563  0.2404  0.3636
 5571ntf    on526862   4.643   5.201   3.580  0.1198 -0.2923 -0.2357
 5571ntf    fn426863   4.449   5.287   3.401  0.2987 -0.0137  0.0370
 5571ntf    fn426864   4.335   5.312   3.577  0.3210 -0.4058 -0.0359
 5571ntf    fn426865   4.428   5.483   3.479  0.0952  0.2690  0.8031
 5572ntf    cn126866   4.706   6.877   0.193 -0.1392 -0.1597 -0.2409
 5572ntf    sn226867   4.729   7.056   0.216  0.1969 -0.2137 -0.1558
 5572ntf    nn326868   4.881   7.074   0.180  0.3834 -0.6164  0.4114
 5572ntf    sn226869   4.951   7.055   0.041 -0.3122 -0.1133 -0.0138
 5572ntf    cn126870   5.067   6.924   0.090  0.1823  0.2471 -0.2110
 5572ntf    fn426871   4.761   6.794   0.279  0.0302  0.0269 -0.1686
 5572ntf    fn426872   4.575   6.858   0.196 -0.2278  0.2379 -1.1891
 5572ntf    fn426873   4.746   6.846   0.071  0.8079  0.8273 -0.1974
 5572ntf    on526874   4.631   7.120   0.132  0.4552  0.1168 -0.2059
 5572ntf    on526875   4.720   7.081   0.358  0.0652  0.1422 -0.2277
 5572ntf    on526876   5.031   7.171   0.008  0.3927 -0.4990  0.3085
 5572ntf    on526877   4.871   7.006  -0.068  0.1876 -0.0978 -0.3918
 5572ntf    fn426878   5.188   6.964   0.126  0.0851 -0.2992  0.7325
 5572ntf    fn426879   5.023   6.857   0.195  0.0832  0.6191 -0.0161
 5572ntf    fn426880   5.086   6.846  -0.015 -0.0008 -0.2753  0.1385
 5573ntf    cn126881   0.646   2.755   7.634  0.3091  0.2406 -0.3626
 5573ntf    sn226882   0.824   2.733   7.600  0.2459 -0.0615 -0.5014
 5573ntf    nn326883   0.812   2.618   7.494 -0.6951 -0.4927  0.0591
 5573ntf    sn226884   0.777   2.627   7.341 -0.4012 -0.2493  0.0058
 5573ntf    cn126885   0.939   2.611   7.259 -0.2577  0.4576  0.1526
 5573ntf    fn426886   0.633   2.848   7.727 -0.0834  0.1201 -0.2978
 5573ntf    fn426887   0.559   2.795   7.543  0.1746 -0.4217 -0.5309
 5573ntf    fn426888   0.597   2.647   7.692  0.3906  0.2341 -0.3058
 5573ntf    on526889   0.861   2.866   7.560  0.1612  0.2197  0.3455
 5573ntf    on526890   0.878   2.686   7.725 -0.0378  0.5775 -0.1327
 5573ntf    on526891   0.735   2.759   7.303  0.3453  0.1252  0.4674
 5573ntf    on526892   0.699   2.518   7.288 -0.3580 -0.2101 -0.1413
 5573ntf    fn426893   1.026   2.690   7.322 -0.2039  0.3502  0.2131
 5573ntf    fn426894   0.989   2.489   7.265 -0.3256  0.4371  0.2936
 5573ntf    fn426895   0.938   2.651   7.133  0.2674 -0.3153 -0.1052
 5574ntf    cn126896   6.865   6.923   6.476 -0.3135 -0.1303  0.2235
 5574ntf    sn226897   6.929   7.069   6.387 -0.4680 -0.2046 -0.0104
 5574ntf    nn326898   6.833   7.077   6.263 -0.4080 -0.5700 -0.0826
 5574ntf    sn226899   6.720   7.183   6.238  0.0736  0.0007  0.1243
 5574ntf    cn126900   6.812   7.323   6.168  0.0509 -0.0855 -0.0756
 5574ntf    fn426901   6.950   6.866   6.559  0.1341  0.1667 -0.0264
 5574ntf    fn426902   6.749   6.950   6.535 -0.2000  0.3814  0.2231
 5574ntf    fn426903   6.835   6.830   6.387 -0.1091  0.0800 -0.0680
 5574ntf    on526904   6.923   7.169   6.490  0.6525  0.1069 -0.2382
 5574ntf    on526905   7.059   7.025   6.343 -0.3806  0.1493 -0.1079
 5574ntf    on526906   6.659   7.243   6.355 -0.3412 -0.6785  0.2631
 5574ntf    on526907   6.636   7.141   6.129  0.2329 -0.3546  0.1354
 5574ntf    fn426908   6.895   7.279   6.075  0.2086 -0.4316  0.2278
 5574ntf    fn426909   6.739   7.417   6.111  0.3150  0.0790 -0.1441
 5574ntf    fn426910   6.882   7.379   6.265  0.3657 -0.3213 -0.1634
 5575ntf    cn126911   5.084   0.305   3.800 -0.1115  0.3123  0.0179
 5575ntf    sn226912   5.076   0.296   3.982  0.1401  0.3954  0.0330
 5575ntf    nn326913   5.164   0.168   4.007  0.0633  0.3230 -0.0660
 5575ntf    sn226914   5.290   0.157   4.100  0.0091  0.3557  0.0114
 5575ntf    cn126915   5.417   0.203   3.978  0.2981 -0.0986  0.1382
 5575ntf    fn426916   5.038   0.200   3.734  0.4820  0.1263 -0.0993
 5575ntf    fn426917   5.014   0.407   3.752 -0.2205 -0.1643 -0.8587
 5575ntf    fn426918   5.207   0.330   3.759 -0.0031 -0.2100  0.0161
 5575ntf    on526919   5.140   0.419   4.020  0.5039  0.5092 -0.9156
 5575ntf    on526920   4.934   0.288   4.006  0.2956 -0.4218  0.7354
 5575ntf    on526921   5.321   0.019   4.126 -0.7668  0.1361 -0.2024
 5575ntf    on526922   5.311   0.255   4.203  0.2695 -0.4201  0.7042
 5575ntf    fn426923   5.402   0.333   3.962  0.3622 -0.0483  0.4797
 5575ntf    fn426924   5.538   0.186   4.028  0.3102 -0.2647  0.0538
 5575ntf    fn426925   5.401   0.130   3.869 -0.5466 -0.1030  0.2572
 5576ntf    cn126926   4.941   3.457   3.217  0.0972 -0.3398  0.1534
 5576ntf    sn226927   4.782   3.377   3.249  0.0588 -0.4336 -0.2659
 5576ntf    nn326928   4.781   3.367   3.406 -0.0975 -0.0788 -0.2438
 5576ntf    sn226929   4.800   3.245   3.502  0.1991  0.1456 -0.0147
 5576ntf    cn126930   4.702   3.303   3.645 -0.3973  0.1354 -0.4157
 5576ntf    fn426931   4.982   3.455   3.091  0.3376  0.5911  0.2048
 5576ntf    fn426932   4.937   3.583   3.259 -0.4481 -0.2141 -0.2620
 5576ntf    fn426933   5.046   3.407   3.280  0.0117 -0.6003  0.0901
 5576ntf    on526934   4.679   3.466   3.200  0.2542 -0.4544 -0.7224
 5576ntf    on526935   4.796   3.252   3.178  0.1898 -0.6170  0.0784
 5576ntf    on526936   4.935   3.233   3.549  0.1164  0.0145  0.1926
 5576ntf    on526937   4.739   3.123   3.455  0.3818 -0.0324  0.2079
 5576ntf    fn426938   4.782   3.382   3.714 -0.2036 -0.1323 -0.3321
 5576ntf    fn426939   4.605   3.378   3.596 -0.4167  0.5249  0.2215
 5576ntf    fn426940   4.657   3.206   3.722 -0.1435 -0.2058 -0.6911
 5577ntf    cn126941   5.750   3.821   6.965  0.1936 -0.1949  0.1594
 5577ntf    sn226942   5.879   3.781   6.843  0.1824 -0.0173  0.0888
 5577ntf    nn326943   5.853   3.627   6.825  0.4331 -0.0027 -0.4152
 5577ntf    sn226944   5.885   3.535   6.702  0.2569 -0.5873 -0.0319
 5577ntf    cn126945   5.728   3.443   6.712 -0.2183  0.1777 -0.2727
 5577ntf    fn426946   5.627   3.788   6.931  0.1461  0.2972 -0.1602
 5577ntf    fn426947   5.764   3.754   7.079 -0.3794  0.1012  0.4065
 5577ntf    fn426948   5.754   3.949   6.999 -0.1452 -0.2163  0.2835
 5577ntf    on526949   5.842   3.852   6.723  0.0040 -0.7179 -0.2807
 5577ntf    on526950   6.000   3.817   6.912  0.0346  0.5126  0.0711
 5577ntf    on526951   5.990   3.438   6.716  0.6286 -0.1186  0.4574
 5577ntf    on526952   5.857   3.593   6.573 -0.1328  0.3265  0.4538
 5577ntf    fn426953   5.728   3.347   6.621 -0.2251  0.8012 -0.9393
 5577ntf    fn426954   5.717   3.377   6.827  0.1421  0.0963 -0.2817
 5577ntf    fn426955   5.623   3.519   6.687 -0.4746 -0.2337 -0.4520
 5578ntf    cn126956   3.572   4.456   1.086 -0.2661  0.1784  0.0614
 5578ntf    sn226957   3.701   4.367   0.994  0.1092  0.4699  0.3002
 5578ntf    nn326958   3.618   4.267   0.905  0.3699  0.6489 -0.1442
 5578ntf    sn226959   3.568   4.280   0.757  0.2214  0.1082 -0.1437
 5578ntf    cn126960   3.409   4.194   0.777  0.2317  0.0971 -0.1101
 5578ntf    fn426961   3.632   4.534   1.175 -0.0785  0.3230 -0.1904
 5578ntf    fn426962   3.497   4.544   1.022 -0.1095  0.3368  0.0934
 5578ntf    fn426963   3.494   4.373   1.154 -0.7673  0.7132  0.1512
 5578ntf    on526964   3.775   4.471   0.928  0.3272  0.0696 -0.0893
 5578ntf    on526965   3.773   4.300   1.099 -0.3462  0.6175  0.7147
 5578ntf    on526966   3.643   4.192   0.671  0.8724 -0.0702  0.5906
 5578ntf    on526967   3.532   4.413   0.715 -1.2331 -0.3128 -0.2714
 5578ntf    fn426968   3.357   4.144   0.666 -0.9176 -0.1415  0.5312
 5578ntf    fn426969   3.424   4.093   0.861 -1.0284  0.0093  0.0208
 5578ntf    fn426970   3.313   4.276   0.814  0.0515 -0.0586 -0.2325
 5579ntf    cn126971   0.113   7.053   1.837 -0.1970 -0.2256  0.2104
 5579ntf    sn226972   0.124   6.877   1.882 -0.4822 -0.2590  0.1509
 5579ntf    nn326973  -0.007   6.854   1.965 -0.3605  0.2022  0.4791
 5579ntf    sn226974  -0.140   6.793   1.907 -0.0186  0.0064 -0.1081
 5579ntf    cn126975  -0.246   6.838   2.048 -0.4736 -0.1540 -0.3979
 5579ntf    fn426976   0.001   7.096   1.781 -0.0921 -0.0833  0.1089
 5579ntf    fn426977   0.132   7.124   1.947  0.0328  0.0868 -0.0265
 5579ntf    fn426978   0.215   7.079   1.756 -0.2173  0.2027  0.3221
 5579ntf    on526979   0.127   6.820   1.750  0.1561 -0.1409  0.1121
 5579ntf    on526980   0.242   6.870   1.964 -0.3540  0.1537  0.0042
 5579ntf    on526981  -0.140   6.649   1.907  0.5335  0.0023 -0.7086
 5579ntf    on526982  -0.184   6.860   1.787  0.7551  0.0473 -0.3726
 5579ntf    fn426983  -0.249   6.969   2.069  0.0061 -0.2003 -0.0460
 5579ntf    fn426984  -0.370   6.793   2.038 -0.3584 -0.5567 -0.0414
 5579ntf    fn426985  -0.196   6.789   2.160 -0.1719  0.3002 -0.3280
 5580ntf    cn126986   2.897   0.952   1.484  0.5567  0.1547 -0.0173
 5580ntf    sn226987   2.823   0.796   1.428  0.3828  0.1580  0.2025
 5580ntf    nn326988   2.775   0.740   1.567  0.0208  0.0693  0.0447
 5580ntf    sn226989   2.866   0.670   1.675 -0.0367 -0.2919 -0.1402
 5580ntf    cn126990   2.883   0.503   1.603 -0.1276 -0.3703  0.0193
 5580ntf    fn426991   2.895   1.041   1.386  0.2649  0.0120 -0.1447
 5580ntf    fn426992   2.828   1.008   1.583 -0.1028 -0.6727  0.0071
 5580ntf    fn426993   3.025   0.943   1.517  0.5502  0.1532  0.0077
 5580ntf    on526994   2.715   0.824   1.337  0.1895 -1.0043  0.0527
 5580ntf    on526995   2.931   0.719   1.372  0.0161  0.4551 -0.9404
 5580ntf    on526996   2.789   0.659   1.796  0.5174 -0.2053  0.2214
 5580ntf    on526997   3.000   0.720   1.692  0.1124 -0.6957 -0.1105
 5580ntf    fn426998   2.995   0.500   1.533 -0.5119 -0.4312 -0.6038
 5580ntf    fn426999   2.907   0.410   1.694  0.0876 -0.5884 -0.2608
 5580ntf    fn427000   2.777   0.472   1.531 -0.1133 -0.1359 -0.1049
 5581ntf    cn127001   6.301   5.282   5.601  0.2217  0.2049  0.2499
 5581ntf    sn227002   6.269   5.235   5.774 -0.0719  0.0212  0.1483
 5581ntf    nn327003   6.361   5.114   5.813  0.1172  0.0137 -0.3173
 5581ntf    sn227004   6.367   4.960   5.779  0.4786 -0.0192 -0.1047
 5581ntf    cn127005   6.489   4.953   5.644  0.3357  0.1687 -0.2443
 5581ntf    fn427006   6.250   5.401   5.577 -0.0275 -0.0023 -0.2605
 5581ntf    fn427007   6.427   5.266   5.566  0.1066  0.6543 -0.3908
 5581ntf    fn427008   6.228   5.204   5.522 -0.2408  1.1563 -0.2729
 5581ntf    on527009   6.322   5.346   5.850 -0.4396  0.2897  0.0142
 5581ntf    on527010   6.129   5.203   5.766 -0.2072  0.8086 -0.7713
 5581ntf    on527011   6.244   4.905   5.729  0.0046  0.4170  0.5620
 5581ntf    on527012   6.428   4.888   5.887  0.0428  0.4680  0.4732
 5581ntf    fn427013   6.463   5.043   5.551 -0.1463  0.3942  0.1014
 5581ntf    fn427014   6.619   4.960   5.670  0.2557  0.2771  0.1272
 5581ntf    fn427015   6.478   4.835   5.584 -0.0280  0.1395 -0.1261
 5582ntf    cn127016   4.525   4.304   6.811  0.0945  0.1492 -0.2020
 5582ntf    sn227017   4.630   4.419   6.906  0.2139 -0.0270 -0.1186
 5582ntf    nn327018   4.585   4.558   6.848 -0.1458  0.0572  0.3550
 5582ntf    sn227019   4.465   4.648   6.895 -0.4242 -0.0789 -0.0887
 5582ntf    cn127020   4.531   4.805   6.833 -0.3278 -0.1686 -0.2149
 5582ntf    fn427021   4.400   4.297   6.854  0.1044 -0.0596 -0.2116
 5582ntf    fn427022   4.532   4.352   6.687 -0.3572  0.4266 -0.1208
 5582ntf    fn427023   4.574   4.181   6.804 -0.2572 -0.0096  0.1642
 5582ntf    on527024   4.579   4.397   7.039 -0.1431  0.3200 -0.1938
 5582ntf    on527025   4.765   4.377   6.879 -0.0309 -0.6756 -0.3526
 5582ntf    on527026   4.436   4.672   7.034 -0.0891  0.5701 -0.1284
 5582ntf    on527027   4.352   4.631   6.807 -0.5788 -0.3023  0.1515
 5582ntf    fn427028   4.458   4.907   6.875 -0.2714 -0.4671  0.6101
 5582ntf    fn427029   4.651   4.828   6.883 -0.5520  0.0779  0.2187
 5582ntf    fn427030   4.537   4.819   6.701 -0.1283  0.7574 -0.1167
 5583ntf    cn127031   1.270   5.571   3.773  0.4107 -0.2394 -0.2503
 5583ntf    sn227032   1.104   5.541   3.705  0.2643 -0.0073 -0.0020
 5583ntf    nn327033   1.098   5.386   3.733  0.0553 -0.0310 -0.1727
 5583ntf    sn227034   1.008   5.308   3.836  0.1643 -0.1096 -0.1373
 5583ntf    cn127035   0.900   5.230   3.713 -0.1011  0.4990 -0.2934
 5583ntf    fn427036   1.299   5.496   3.878  0.6171  0.3052  0.0863
 5583ntf    fn427037   1.369   5.550   3.689  0.1996  0.7801 -0.7627
 5583ntf    fn427038   1.274   5.696   3.815  0.0695 -0.3404  0.0916
 5583ntf    on527039   1.020   5.625   3.786  0.4836  1.1061 -0.9046
 5583ntf    on527040   1.117   5.570   3.564 -0.0810 -0.0535 -0.0442
 5583ntf    on527041   0.921   5.389   3.918  0.2500  0.1021 -0.2522
 5583ntf    on527042   1.085   5.204   3.900  0.1022  0.2256  0.4903
 5583ntf    fn427043   0.962   5.166   3.615  0.6375  0.1796  0.3718
 5583ntf    fn427044   0.811   5.151   3.771  0.1054  0.5585  0.1035
 5583ntf    fn427045   0.827   5.321   3.651  0.2932  1.0270  0.0097
 5584ntf    cn127046   7.609   3.599   6.163 -0.3376  0.3497 -0.0326
 5584ntf    sn227047   7.549   3.434   6.116  0.0106  0.2223 -0.0295
 5584ntf    nn327048   7.556   3.358   6.253 -0.3754 -0.1530 -0.2147
 5584ntf    sn227049   7.666   3.263   6.312 -0.3174 -0.0542 -0.1633
 5584ntf    cn127050   7.580   3.104   6.292  0.2408 -0.3677 -0.1035
 5584ntf    fn427051   7.647   3.662   6.053  0.1176  0.3758  0.1389
 5584ntf    fn427052   7.517   3.685   6.206 -0.2480  0.2870  0.2845
 5584ntf    fn427053   7.714   3.590   6.242  0.4602 -0.2532 -1.1381
 5584ntf    on527054   7.410   3.441   6.077  0.1148  1.0722 -0.2573
 5584ntf    on527055   7.636   3.382   6.013 -0.1615 -0.1442  0.0098
 5584ntf    on527056   7.668   3.284   6.454 -0.1934 -0.0799 -0.1610
 5584ntf    on527057   7.792   3.244   6.245 -0.0997  0.4612  0.0962
 5584ntf    fn427058   7.545   3.055   6.410 -0.7227 -0.4367 -0.4037
 5584ntf    fn427059   7.467   3.127   6.226  0.5890  0.6395 -0.3603
 5584ntf    fn427060   7.655   3.015   6.229  0.0072 -0.4720 -0.2363
 5585ntf    cn127061   4.038   6.739   1.672 -0.0181 -0.6143  0.2435
 5585ntf    sn227062   4.136   6.611   1.589  0.5699 -0.0598  0.0732
 5585ntf    nn327063   4.116   6.646   1.437  0.3598  0.2529  0.1716
 5585ntf    sn227064   4.113   6.548   1.314 -0.1816  0.2583  0.1784
 5585ntf    cn127065   4.280   6.477   1.318 -0.2711  0.0309 -0.0715
 5585ntf    fn427066   4.016   6.715   1.801 -0.7701 -0.2438  0.1885
 5585ntf    fn427067   4.092   6.858   1.654  0.4307 -0.7737  0.5212
 5585ntf    fn427068   3.923   6.757   1.610  0.0681 -0.2381  0.1904
 5585ntf    on527069   4.270   6.634   1.638  0.3307  0.3275  0.5536
 5585ntf    on527070   4.075   6.489   1.638 -0.0493  0.0592 -0.3878
 5585ntf    on527071   4.114   6.620   1.190  0.6019 -0.1579 -0.0630
 5585ntf    on527072   4.019   6.439   1.326  0.2783 -0.1485  0.1302
 5585ntf    fn427073   4.331   6.457   1.198  0.3611  0.2746  0.1519
 5585ntf    fn427074   4.360   6.556   1.389 -0.2087  0.1698 -0.2975
 5585ntf    fn427075   4.295   6.365   1.388 -0.2692  0.3114  0.3833
 5586ntf    cn127076   5.888   6.555   1.951 -0.0637  0.4161  0.0550
 5586ntf    sn227077   5.799   6.397   1.968  0.1014  0.3164 -0.0051
 5586ntf    nn327078   5.752   6.374   1.820 -0.4253  0.3121  0.1614
 5586ntf    sn227079   5.636   6.444   1.741 -0.2247  0.1855 -0.2484
 5586ntf    cn127080   5.523   6.306   1.706 -0.1483 -0.0435  0.3969
 5586ntf    fn427081   5.816   6.659   1.913 -0.2408  0.1296 -0.4092
 5586ntf    fn427082   5.943   6.586   2.067 -0.4744 -0.8083  0.5955
 5586ntf    fn427083   5.987   6.551   1.863 -0.3670 -0.0613 -0.2721
 5586ntf    on527084   5.898   6.301   2.009 -0.3641  0.0642  0.5308
 5586ntf    on527085   5.692   6.422   2.060 -0.5470 -0.5422 -0.5180
 5586ntf    on527086   5.674   6.483   1.607 -0.7030 -0.5319 -0.6034
 5586ntf    on527087   5.549   6.528   1.820 -0.7927 -1.1119  0.5267
 5586ntf    fn427088   5.576   6.221   1.619  0.0862  0.2445  0.2570
 5586ntf    fn427089   5.487   6.235   1.811  0.0894 -0.2782  0.3235
 5586ntf    fn427090   5.409   6.342   1.650 -0.0903 -0.0534  0.2708
 5587ntf    cn127091   1.405   1.351   5.558 -0.3078  0.3751  0.2946
 5587ntf    sn227092   1.367   1.510   5.639 -0.1144  0.5114  0.1195
 5587ntf    nn327093   1.479   1.520   5.749 -0.1470  0.3427  0.1692
 5587ntf    sn227094   1.622   1.584   5.746  0.2772 -0.6010 -0.1159
 5587ntf    cn127095   1.596   1.724   5.859 -0.3986 -0.5855 -0.2840
 5587ntf    fn427096   1.385   1.245   5.634  0.0528  0.2221  0.1772
 5587ntf    fn427097   1.346   1.337   5.441  0.3259  0.1373  0.0023
 5587ntf    fn427098   1.533   1.339   5.527 -0.5187 -0.4710 -0.2606
 5587ntf    on527099   1.385   1.602   5.530 -0.0110  0.0416 -0.2638
 5587ntf    on527100   1.234   1.493   5.692  0.2607 -0.0226  0.9126
 5587ntf    on527101   1.670   1.633   5.619 -0.3659  0.1106 -0.0925
 5587ntf    on527102   1.716   1.507   5.824 -0.1172 -0.7701  0.1956
 5587ntf    fn427103   1.478   1.781   5.841 -0.2018 -0.1867 -0.3334
 5587ntf    fn427104   1.608   1.692   5.987 -0.5915 -0.5079 -0.2466
 5587ntf    fn427105   1.679   1.825   5.836 -0.5966 -0.2750  0.3411
 5588ntf    cn127106   0.873   5.272   7.325 -0.3369  0.2956 -0.8295
 5588ntf    sn227107   0.731   5.309   7.432  0.1682  0.1476 -0.1007
 5588ntf    nn327108   0.743   5.465   7.418  0.4181  0.1410  0.0410
 5588ntf    sn227109   0.821   5.564   7.511  0.1828  0.1587  0.2198
 5588ntf    cn127110   0.721   5.577   7.662 -0.2623  0.1313 -0.0728
 5588ntf    fn427111   0.909   5.145   7.330 -0.1153  0.3749 -0.3170
 5588ntf    fn427112   0.853   5.304   7.198 -0.0982  0.0424 -0.9304
 5588ntf    fn427113   0.979   5.346   7.357  0.0946 -0.6344 -0.0563
 5588ntf    on527114   0.626   5.256   7.349  0.0165 -0.2240  0.3264
 5588ntf    on527115   0.756   5.250   7.561 -0.1181  0.3961  0.0698
 5588ntf    on527116   0.827   5.703   7.470  0.1763 -0.0118 -0.3654
 5588ntf    on527117   0.945   5.510   7.561  0.1302 -0.5772 -0.4454
 5588ntf    fn427118   0.653   5.470   7.699 -0.2938  0.1183 -0.1690
 5588ntf    fn427119   0.800   5.606   7.764 -0.6886  0.0519  0.2867
 5588ntf    fn427120   0.633   5.675   7.646 -0.1086  0.2434 -0.2288
 5589ntf    cn127121   6.128   0.896   6.263  0.4648 -0.1837 -0.1091
 5589ntf    sn227122   5.993   0.887   6.384  0.5967  0.4247  0.0889
 5589ntf    nn327123   5.880   0.811   6.305  0.2473  0.5794  0.4400
 5589ntf    sn227124   5.745   0.854   6.239  0.3034 -0.0250 -0.0754
 5589ntf    cn127125   5.637   0.837   6.385  0.1989  0.0417 -0.1447
 5589ntf    fn427126   6.205   0.789   6.272 -0.0462 -0.5300  0.1167
 5589ntf    fn427127   6.101   0.908   6.134  0.3795 -0.2606 -0.0980
 5589ntf    fn427128   6.218   0.990   6.292 -0.0701  0.2361  0.2042
 5589ntf    on527129   6.062   0.803   6.479  0.2734  0.9211  0.7637
 5589ntf    on527130   5.965   1.026   6.411 -0.0521  0.2336  0.4162
 5589ntf    on527131   5.699   0.750   6.150  0.5688 -0.1097 -0.1133
 5589ntf    on527132   5.720   0.990   6.198 -0.3076 -0.0525  0.1981
 5589ntf    fn427133   5.632   0.712   6.428  0.4531 -0.0357 -0.3372
 5589ntf    fn427134   5.665   0.909   6.492  0.2166 -0.5472  0.2521
 5589ntf    fn427135   5.510   0.857   6.355  0.2425 -0.0400 -0.3916
 5590ntf    cn127136   3.371   0.657   3.141 -0.3719  0.0150 -0.1141
 5590ntf    sn227137   3.512   0.750   3.208 -0.1833 -0.2139 -0.1893
 5590ntf    nn327138   3.536   0.855   3.093  0.0795  0.2155  0.2507
 5590ntf    sn227139   3.430   0.914   2.994 -0.0627 -0.2905  0.0981
 5590ntf    cn127140   3.494   1.084   3.003  0.3444 -0.4349 -0.0316
 5590ntf    fn427141   3.256   0.718   3.162 -0.1893  0.3835 -0.1805
 5590ntf    fn427142   3.389   0.629   3.013  0.1949  0.2953 -0.0999
 5590ntf    fn427143   3.353   0.541   3.203 -0.2693  0.2433  0.3510
 5590ntf    on527144   3.463   0.820   3.324  0.7534  0.1421  0.0050
 5590ntf    on527145   3.619   0.654   3.220 -0.5211 -0.6023 -0.3051
 5590ntf    on527146   3.295   0.929   3.043 -0.0715  0.0528 -0.0309
 5590ntf    on527147   3.455   0.886   2.854  0.3046 -0.3954  0.1834
 5590ntf    fn427148   3.429   1.150   2.908  0.0839  0.0389  0.4700
 5590ntf    fn427149   3.473   1.145   3.119  0.1328  0.3707 -0.4898
 5590ntf    fn427150   3.621   1.100   2.971  0.0986  0.4570 -0.5716
 5591ntf    cn127151   4.379   3.117   7.385  0.2383  0.2368  0.4618
 5591ntf    sn227152   4.546   3.109   7.456  0.4209 -0.4236 -0.0301
 5591ntf    nn327153   4.630   3.153   7.330 -0.1841  0.4560 -0.1333
 5591ntf    sn227154   4.777   3.116   7.293 -0.2502 -0.1491  0.1867
 5591ntf    cn127155   4.735   2.984   7.175  0.2490 -0.1256 -0.0238
 5591ntf    fn427156   4.295   3.033   7.443  0.6983 -0.3967  0.2237
 5591ntf    fn427157   4.311   3.229   7.403 -0.0183  0.0850  0.4307
 5591ntf    fn427158   4.370   3.094   7.255 -0.1156  0.2127  0.4906
 5591ntf    on527159   4.539   3.211   7.559  0.0830  0.0248 -0.4948
 5591ntf    on527160   4.553   2.971   7.497 -0.0370 -0.4724 -0.1191
 5591ntf    on527161   4.846   3.055   7.404 -0.0286 -0.3844 -0.0773
 5591ntf    on527162   4.843   3.223   7.221 -0.0163 -0.2123  0.3061
 5591ntf    fn427163   4.653   3.038   7.087  0.4182  0.2956  0.0734
 5591ntf    fn427164   4.842   2.948   7.107 -0.1064 -0.2598 -0.5140
 5591ntf    fn427165   4.671   2.879   7.225 -0.2605  0.4430  0.5377
 5592ntf    cn127166   1.918   3.691   5.831  0.3136 -0.2458 -0.7606
 5592ntf    sn227167   1.884   3.868   5.857  0.4755 -0.3332  0.0785
 5592ntf    nn327168   1.797   3.865   5.988 -0.0741  0.2692 -0.2669
 5592ntf    sn227169   1.643   3.835   5.992 -0.0283  0.0150 -0.3538
 5592ntf    cn127170   1.584   4.007   5.983  0.1382  0.1149  0.3692
 5592ntf    fn427171   2.016   3.647   5.908  0.1377  0.2901 -0.2142
 5592ntf    fn427172   1.819   3.615   5.874 -0.0511  0.4822 -0.2747
 5592ntf    fn427173   1.936   3.664   5.703 -0.2968  0.3010 -0.9707
 5592ntf    on527174   2.012   3.933   5.872  0.3890 -0.0593 -0.3721
 5592ntf    on527175   1.811   3.912   5.741  0.1917 -0.3232  0.2596
 5592ntf    on527176   1.606   3.795   6.126  0.3414 -0.0278 -0.2632
 5592ntf    on527177   1.593   3.745   5.892  0.0291  0.0116 -0.3799
 5592ntf    fn427178   1.453   4.017   5.993  0.0977  0.1856 -0.1920
 5592ntf    fn427179   1.638   4.077   6.081  1.0537 -0.1538  0.0715
 5592ntf    fn427180   1.609   4.056   5.863 -0.3193 -0.2498  0.1199
 5593ntf    cn127181   3.962   7.036   4.292  0.1810  0.2050  0.1452
 5593ntf    sn227182   3.890   7.090   4.451 -0.3726  0.3214 -0.1414
 5593ntf    nn327183   4.017   7.111   4.541 -0.4539  0.0913  0.0259
 5593ntf    sn227184   4.071   7.238   4.616  0.0910 -0.1330  0.0170
 5593ntf    cn127185   4.249   7.230   4.579  0.2072 -0.2947  0.5945
 5593ntf    fn427186   3.863   7.045   4.204  0.0623  0.1217  0.2683
 5593ntf    fn427187   4.063   7.110   4.252  0.2480 -0.0256 -0.1141
 5593ntf    fn427188   3.998   6.908   4.296 -0.1325  0.1109 -0.0280
 5593ntf    on527189   3.802   7.200   4.422 -0.6566  0.2024  0.2643
 5593ntf    on527190   3.821   6.969   4.489 -0.2399  0.2165 -0.2294
 5593ntf    on527191   4.069   7.217   4.758  0.3858  0.3546  0.0925
 5593ntf    on527192   4.031   7.362   4.555  0.4822  0.0477  0.1260
 5593ntf    fn427193   4.307   7.338   4.630 -0.1152  0.0963  0.1501
 5593ntf    fn427194   4.303   7.118   4.623 -0.2453 -0.8301 -0.1720
 5593ntf    fn427195   4.269   7.258   4.451  0.2620 -0.7578  0.5031
 5594ntf    cn127196   3.536   5.581   0.637  0.1130  0.0394  0.0158
 5594ntf    sn227197   3.713   5.608   0.609  0.1357 -0.2012 -0.0756
 5594ntf    nn327198   3.727   5.688   0.475 -0.0344  0.1602  0.1221
 5594ntf    sn227199   3.704   5.842   0.455 -0.1685  0.1824  0.4379
 5594ntf    cn127200   3.871   5.895   0.503  0.0333 -0.0139 -0.0358
 5594ntf    fn427201   3.498   5.490   0.549  0.0651 -0.2042  0.2847
 5594ntf    fn427202   3.500   5.547   0.760  0.3207  0.0441  0.0786
 5594ntf    fn427203   3.463   5.688   0.609  0.1206 -0.0802 -0.4707
 5594ntf    on527204   3.749   5.683   0.726 -0.0937 -0.1027 -0.0691
 5594ntf    on527205   3.768   5.474   0.603 -0.1397 -0.3421  0.5005
 5594ntf    on527206   3.622   5.909   0.553  0.3122  0.2390  0.8057
 5594ntf    on527207   3.689   5.886   0.318 -0.1606 -0.4527  0.2313
 5594ntf    fn427208   3.894   6.021   0.472  0.1149 -0.0636 -0.1781
 5594ntf    fn427209   3.910   5.874   0.628 -0.7369  0.7741  0.3491
 5594ntf    fn427210   3.968   5.844   0.429  0.1654  0.2587 -0.0506
 5595ntf    cn127211   5.696   1.174   6.804 -0.0754  0.0823 -0.3867
 5595ntf    sn227212   5.805   1.235   6.936 -0.1227  0.0669 -0.3411
 5595ntf    nn327213   5.731   1.163   7.054 -0.3449  0.1034 -0.4583
 5595ntf    sn227214   5.612   1.220   7.139 -0.0523  0.0118  0.0159
 5595ntf    cn127215   5.681   1.172   7.300 -0.2325  0.3508  0.1959
 5595ntf    fn427216   5.744   1.213   6.687  0.4886  0.2920 -0.0918
 5595ntf    fn427217   5.699   1.042   6.814 -0.3935  0.1213  0.2478
 5595ntf    fn427218   5.568   1.206   6.812  0.0108  0.3510 -0.0426
 5595ntf    on527219   5.930   1.167   6.911 -0.0166  0.1067  0.0740
 5595ntf    on527220   5.798   1.379   6.934  0.3111  0.0851 -0.7597
 5595ntf    on527221   5.489   1.152   7.106 -0.0598  0.1255 -0.1866
 5595ntf    on527222   5.604   1.363   7.155 -0.2707 -0.0155  0.1445
 5595ntf    fn427223   5.797   1.222   7.337 -0.0723 -0.1269  0.3490
 5595ntf    fn427224   5.599   1.199   7.401 -0.4561 -0.5397  0.2618
 5595ntf    fn427225   5.697   1.040   7.300  0.4873  0.4247  1.0798
 5596ntf    cn127226   0.693   5.151   2.944 -0.2470 -0.1404 -0.0894
 5596ntf    sn227227   0.569   5.026   2.898 -0.1094 -0.3090 -0.0034
 5596ntf    nn327228   0.656   4.899   2.867 -0.0126 -0.0904 -0.6432
 5596ntf    sn227229   0.687   4.784   2.969 -0.2486  0.2908 -0.1395
 5596ntf    cn127230   0.538   4.688   2.928  0.1375 -0.2018 -0.4001
 5596ntf    fn427231   0.705   5.169   3.074  0.7446 -0.4374 -0.1254
 5596ntf    fn427232   0.815   5.128   2.898 -0.2552 -0.1537 -0.1049
 5596ntf    fn427233   0.654   5.268   2.896 -0.7735 -0.1264  0.3634
 5596ntf    on527234   0.481   5.016   3.011 -0.2836 -0.4941 -0.1550
 5596ntf    on527235   0.519   5.077   2.773  0.2661  0.1853  0.0458
 5596ntf    on527236   0.682   4.808   3.111  0.0658 -0.4009 -0.0051
 5596ntf    on527237   0.795   4.703   2.918 -0.0730  0.3006  0.2100
 5596ntf    fn427238   0.545   4.582   3.007 -0.1339  0.0079 -0.0926
 5596ntf    fn427239   0.427   4.755   2.953  0.1407 -0.4788  0.3930
 5596ntf    fn427240   0.536   4.642   2.804 -0.3968 -0.7794 -0.1806
 5597ntf    cn127241   3.957   0.311   7.403 -0.2872  0.2372 -0.3017
 5597ntf    sn227242   3.851   0.166   7.377  0.2369 -0.1866 -0.0944
 5597ntf    nn327243   3.953   0.070   7.306  0.1001 -0.1180 -0.3895
 5597ntf    sn227244   4.036  -0.051   7.363 -0.2251 -0.0207  0.2994
 5597ntf    cn127245   3.893  -0.161   7.387 -0.2548  0.0412  0.4109
 5597ntf    fn427246   3.900   0.421   7.450 -0.6606 -0.0162 -0.1606
 5597ntf    fn427247   4.044   0.277   7.496 -0.6079  0.3537  0.0448
 5597ntf    fn427248   4.021   0.353   7.295  0.7015  0.4279  0.3398
 5597ntf    on527249   3.812   0.137   7.512 -1.1484  0.3681 -0.3526
 5597ntf    on527250   3.752   0.212   7.282  0.4416 -0.5561 -0.4925
 5597ntf    on527251   4.092  -0.033   7.495 -0.3066  0.3948  0.2774
 5597ntf    on527252   4.118  -0.107   7.259 -0.9447  0.5024 -0.5622
 5597ntf    fn427253   3.814  -0.122   7.486 -0.4066  0.9932 -0.0682
 5597ntf    fn427254   3.823  -0.158   7.275  0.2407 -0.5489  0.0752
 5597ntf    fn427255   3.940  -0.282   7.412  0.4889  0.4243  0.9142
 5598ntf    cn127256   6.823   6.251   5.489  0.5042  0.3148  0.5166
 5598ntf    sn227257   6.683   6.327   5.577 -0.2388  0.0062 -0.3796
 5598ntf    nn327258   6.602   6.197   5.610  0.0809  0.0050  0.4256
 5598ntf    sn227259   6.515   6.164   5.737  0.0341  0.1144  0.4203
 5598ntf    cn127260   6.628   6.050   5.822  0.3195 -0.0291 -0.1491
 5598ntf    fn427261   6.931   6.327   5.485  0.5765  0.1771 -0.6323
 5598ntf    fn427262   6.855   6.138   5.550  0.4375  0.1241  0.1984
 5598ntf    fn427263   6.802   6.227   5.361  0.6201 -0.1357  0.5788
 5598ntf    on527264   6.751   6.380   5.693  0.2384 -0.9670 -0.1950
 5598ntf    on527265   6.619   6.417   5.485 -0.5780  0.3734  0.2127
 5598ntf    on527266   6.403   6.081   5.701  0.1521  0.1472 -0.0317
 5598ntf    on527267   6.488   6.267   5.835 -0.3851 -0.0230  0.4550
 5598ntf    fn427268   6.660   5.944   5.750  0.0573 -0.0061 -0.3036
 5598ntf    fn427269   6.744   6.108   5.850  0.0010  0.5729 -0.0589
 5598ntf    fn427270   6.581   6.000   5.935 -0.0020  0.4063 -0.0861
 5599ntf    cn127271   7.438   4.708   4.874 -0.5233 -0.0754 -0.0776
 5599ntf    sn227272   7.536   4.859   4.851 -0.3611 -0.1579  0.0646
 5599ntf    nn327273   7.630   4.866   4.976  0.1739  0.3429 -0.3624
 5599ntf    sn227274   7.670   4.986   5.071 -0.1839  0.1879 -0.0123
 5599ntf    cn127275   7.573   4.950   5.220  0.3393  0.3825  0.3754
 5599ntf    fn427276   7.362   4.683   4.769 -0.2271 -0.4385 -0.2091
 5599ntf    fn427277   7.508   4.597   4.890 -0.3434 -0.0496 -0.6659
 5599ntf    fn427278   7.347   4.715   4.970 -0.7007  0.2006 -0.2672
 5599ntf    on527279   7.607   4.833   4.729 -0.1632 -0.1027  0.1657
 5599ntf    on527280   7.431   4.959   4.854  0.1081  0.3430  0.0173
 5599ntf    on527281   7.636   5.118   5.024 -0.0231  0.2840  0.1402
 5599ntf    on527282   7.804   4.957   5.115 -0.4454 -0.5201  0.3295
 5599ntf    fn427283   7.447   4.927   5.188  0.5744 -0.1629 -0.1905
 5599ntf    fn427284   7.620   4.844   5.285 -0.1565 -0.1184 -0.0692
 5599ntf    fn427285   7.570   5.057   5.297  0.7257  0.4545  0.2902
 5600ntf    cn127286   3.350   2.666   3.049  0.5126 -0.2148  0.2416
 5600ntf    sn227287   3.228   2.590   3.159  0.0633  0.1300 -0.0160
 5600ntf    nn327288   3.310   2.468   3.215 -0.2878 -0.0274  0.1629
 5600ntf    sn227289   3.378   2.434   3.352  0.1272  0.1166 -0.0073
 5600ntf    cn127290   3.254   2.321   3.421  0.1771  0.1045  0.0621
 5600ntf    fn427291   3.293   2.753   2.967 -0.0986 -0.4524  0.4158
 5600ntf    fn427292   3.448   2.732   3.109  0.6889 -0.3182  0.0668
 5600ntf    fn427293   3.409   2.576   2.972 -0.0919  0.4299 -1.0056
 5600ntf    on527294   3.185   2.692   3.252 -0.5919 -0.2630  0.1260
 5600ntf    on527295   3.125   2.554   3.065 -0.0277 -0.3896  0.2791
 5600ntf    on527296   3.401   2.540   3.447 -0.3814  0.1484  0.0835
 5600ntf    on527297   3.493   2.349   3.335  0.0957  0.2354 -0.8495
 5600ntf    fn427298   3.294   2.245   3.523 -0.0561 -0.3574 -0.1886
 5600ntf    fn427299   3.151   2.389   3.465  0.2763  0.4262 -0.2009
 5600ntf    fn427300   3.206   2.234   3.334  0.3163 -0.0868  0.1736
 5601ntf    cn127301   1.743   4.462   3.451  0.4828  0.7030  0.1968
 5601ntf    sn227302   1.905   4.428   3.377  0.2537 -0.1541  0.0738
 5601ntf    nn327303   1.880   4.483   3.232  0.1229 -0.3055  0.0390
 5601ntf    sn227304   1.919   4.620   3.166 -0.4338 -0.0688  0.1961
 5601ntf    cn127305   2.035   4.551   3.044 -0.1917  0.3915  0.1604
 5601ntf    fn427306   1.708   4.587   3.427 -0.2737  0.3431 -0.6609
 5601ntf    fn427307   1.638   4.407   3.392  0.2998  0.5065  0.7002
 5601ntf    fn427308   1.727   4.436   3.580  0.3739  0.3027  0.1058
 5601ntf    on527309   1.988   4.507   3.464  0.3217  0.0574 -0.1806
 5601ntf    on527310   1.925   4.286   3.368 -0.1324 -0.2435  0.5930
 5601ntf    on527311   1.992   4.714   3.248  0.7550 -0.2677 -0.6032
 5601ntf    on527312   1.810   4.675   3.090  0.1462  0.1684 -0.4823
 5601ntf    fn427313   2.145   4.499   3.097 -0.2761 -0.4934 -0.5107
 5601ntf    fn427314   1.982   4.449   2.978  0.5062  0.1083  0.0329
 5601ntf    fn427315   2.077   4.633   2.950  0.8285 -0.1205  0.1540
 5602ntf    cn127316   0.909   7.325   5.601 -0.4120  0.2451  0.4427
 5602ntf    sn227317   0.907   7.190   5.479  0.1955  0.0957  0.5956
 5602ntf    nn327318   0.841   7.259   5.354 -0.3058 -0.5355  0.5077
 5602ntf    sn227319   0.696   7.236   5.299 -0.1240 -0.0654 -0.1732
 5602ntf    cn127320   0.655   7.384   5.201  0.2947  0.1524 -0.0166
 5602ntf    fn427321   0.784   7.344   5.641 -0.6045 -0.4507  0.1908
 5602ntf    fn427322   0.978   7.289   5.708  0.3076 -0.3830 -0.2224
 5602ntf    fn427323   0.952   7.443   5.561 -0.2635 -0.1028 -0.4644
 5602ntf    on527324   1.049   7.171   5.460  0.1085  0.0529 -0.0424
 5602ntf    on527325   0.840   7.083   5.547 -0.4048  0.3190  0.3625
 5602ntf    on527326   0.600   7.233   5.407 -0.2595 -0.0472 -0.2923
 5602ntf    on527327   0.683   7.127   5.206 -0.4502 -0.3312  0.1799
 5602ntf    fn427328   0.679   7.494   5.272  0.7222  0.1281 -0.1155
 5602ntf    fn427329   0.716   7.397   5.084 -0.7205 -0.1851 -0.5905
 5602ntf    fn427330   0.525   7.386   5.177  0.2912  0.2310  0.0060
 5603ntf    cn127331   4.504   1.549   2.228 -0.1208 -0.3782 -0.0320
 5603ntf    sn227332   4.475   1.557   2.408  0.1655 -0.1331  0.0036
 5603ntf    nn327333   4.337   1.483   2.421 -0.0529  0.2236 -0.2907
 5603ntf    sn227334   4.304   1.330   2.418 -0.1169  0.2213  0.3706
 5603ntf    cn127335   4.283   1.304   2.596 -0.1716 -0.1026  0.3171
 5603ntf    fn427336   4.531   1.424   2.191  0.7365  0.0435 -0.8636
 5603ntf    fn427337   4.393   1.574   2.161 -0.1175 -0.0490  0.0844
 5603ntf    fn427338   4.593   1.637   2.187  0.2704 -0.7629 -0.0122
 5603ntf    on527339   4.593   1.497   2.467  0.5555  0.5435 -0.0848
 5603ntf    on527340   4.461   1.699   2.423  0.0582 -0.1035 -0.3655
 5603ntf    on527341   4.409   1.243   2.371 -0.3209  0.1390  0.0642
 5603ntf    on527342   4.172   1.314   2.361  0.0724 -0.5829  0.1459
 5603ntf    fn427343   4.186   1.371   2.656 -0.0699 -0.0581  0.4315
 5603ntf    fn427344   4.278   1.175   2.626  0.2336 -0.2244 -0.1229
 5603ntf    fn427345   4.387   1.339   2.670  0.2067 -0.0258 -0.2477
 5604ntf    cn127346   2.434   1.103   1.712 -0.0365  0.0743 -0.0822
 5604ntf    sn227347   2.293   1.097   1.597 -0.1220 -0.0500  0.0296
 5604ntf    nn327348   2.302   1.239   1.532  0.3097 -0.1662 -0.1709
 5604ntf    sn227349   2.353   1.297   1.395  0.0926  0.3638 -0.0305
 5604ntf    cn127350   2.316   1.472   1.428 -0.1548  0.2820  0.1324
 5604ntf    fn427351   2.481   0.987   1.757 -0.0959  0.1609  0.2046
 5604ntf    fn427352   2.540   1.167   1.663 -0.0458  0.2454  0.1206
 5604ntf    fn427353   2.401   1.167   1.823  0.2086 -0.0420  0.0593
 5604ntf    on527354   2.318   0.994   1.499  0.5434  0.4147 -0.3033
 5604ntf    on527355   2.184   1.076   1.689 -0.5154  0.5695 -0.2901
 5604ntf    on527356   2.265   1.263   1.286 -0.1838 -1.2226  0.6495
 5604ntf    on527357   2.496   1.291   1.376  0.0897 -0.1653  0.0924
 5604ntf    fn427358   2.356   1.553   1.332  0.1296  0.2813  0.2474
 5604ntf    fn427359   2.190   1.498   1.456 -0.1237  0.0700  0.4867
 5604ntf    fn427360   2.386   1.511   1.534  0.5621 -0.1335 -0.1787
 5605ntf    cn127361   4.367   4.733   5.531  0.1595 -0.0056 -0.6515
 5605ntf    sn227362   4.208   4.675   5.600  0.4467  0.0184  0.0405
 5605ntf    nn327363   4.241   4.524   5.625  0.6011  0.0884  0.2590
 5605ntf    sn227364   4.244   4.400   5.529 -0.5400  0.1284  0.1595
 5605ntf    cn127365   4.087   4.326   5.582 -0.5376  0.1759  0.2329
 5605ntf    fn427366   4.459   4.716   5.624 -0.4201 -0.3248 -0.1244
 5605ntf    fn427367   4.418   4.678   5.422  0.1545 -0.5926 -0.3640
 5605ntf    fn427368   4.356   4.860   5.497  0.1870  0.2679  0.3354
 5605ntf    on527369   4.188   4.743   5.725 -0.3838 -0.0625 -0.0424
 5605ntf    on527370   4.104   4.697   5.502  0.6779  0.0237 -0.2066
 5605ntf    on527371   4.346   4.306   5.569 -0.4135  0.1225 -0.1761
 5605ntf    on527372   4.224   4.415   5.387  0.8286  0.0483 -0.0532
 5605ntf    fn427373   4.049   4.234   5.495  0.3854  0.1732 -0.1726
 5605ntf    fn427374   4.095   4.256   5.694  0.2874 -0.4060 -0.1832
 5605ntf    fn427375   3.990   4.415   5.596 -0.5300  0.1965  0.1534
 5606ntf    cn127376   4.786   4.028   5.414 -0.0711  0.2579  0.9547
 5606ntf    sn227377   4.656   4.053   5.290  0.2252 -0.2854  0.5291
 5606ntf    nn327378   4.667   4.207   5.266 -0.5927 -0.3744 -0.5072
 5606ntf    sn227379   4.659   4.302   5.141 -0.0652  0.1024 -0.1857
 5606ntf    cn127380   4.517   4.402   5.193 -0.1273 -0.1559  0.1441
 5606ntf    fn427381   4.766   4.103   5.521 -0.9175  0.3935  0.7076
 5606ntf    fn427382   4.789   3.898   5.437 -0.5672  0.0655 -0.0097
 5606ntf    fn427383   4.901   4.057   5.355 -0.3668 -0.1922  0.1489
 5606ntf    on527384   4.699   3.979   5.174  0.1810  0.8584 -0.2272
 5606ntf    on527385   4.540   4.006   5.363  0.2767  0.0196  0.8098
 5606ntf    on527386   4.609   4.240   5.020  0.2487  0.1764 -0.3538
 5606ntf    on527387   4.773   4.390   5.134 -0.0909  0.1441 -0.0813
 5606ntf    fn427388   4.416   4.324   5.228 -0.0539 -0.6345 -0.6843
 5606ntf    fn427389   4.532   4.478   5.300 -0.0195  0.4002 -0.2606
 5606ntf    fn427390   4.474   4.475   5.092  0.3719 -0.0064  0.0362
 5607ntf    cn127391   5.034   5.510   5.168 -0.1424  0.5067 -0.0247
 5607ntf    sn227392   4.880   5.603   5.196 -0.3043  0.3434 -0.3608
 5607ntf    nn327393   4.770   5.493   5.175  0.1182 -0.1490 -0.0377
 5607ntf    sn227394   4.707   5.412   5.294  0.1417 -0.2919 -0.1238
 5607ntf    cn127395   4.626   5.280   5.199  0.0179 -0.5135  0.2864
 5607ntf    fn427396   5.005   5.389   5.123  0.4513  0.1225  0.5999
 5607ntf    fn427397   5.112   5.570   5.080  0.1680 -0.5994 -0.5200
 5607ntf    fn427398   5.109   5.490   5.275  0.1166  0.1527 -0.2691
 5607ntf    on527399   4.895   5.642   5.334  0.0171 -0.1927 -0.2399
 5607ntf    on527400   4.872   5.709   5.099  0.0340  0.7018 -0.0029
 5607ntf    on527401   4.600   5.483   5.360  0.0572 -0.0883 -0.4747
 5607ntf    on527402   4.802   5.330   5.364 -0.1107 -0.6855 -0.2356
 5607ntf    fn427403   4.706   5.229   5.107 -0.5447  0.2009 -0.6206
 5607ntf    fn427404   4.575   5.183   5.274 -0.0476 -1.1119 -0.5183
 5607ntf    fn427405   4.523   5.326   5.130  0.2828  0.3092  0.4381
 5608ntf    cn127406   0.735   2.013   3.411  0.0648 -0.0352 -0.2952
 5608ntf    sn227407   0.838   1.894   3.501 -0.2089 -0.2908 -0.3161
 5608ntf    nn327408   0.754   1.762   3.488 -0.9925  0.1709 -0.0121
 5608ntf    sn227409   0.801   1.615   3.458 -0.2507  0.4015  0.0068
 5608ntf    cn127410   0.742   1.617   3.286  0.1077  0.1366 -0.1200
 5608ntf    fn427411   0.782   2.136   3.402 -0.3279  0.1103 -0.4044
 5608ntf    fn427412   0.722   1.977   3.284  0.3468 -0.1818 -0.2817
 5608ntf    fn427413   0.610   2.028   3.452  0.1569 -0.1659  0.0355
 5608ntf    on527414   0.964   1.890   3.431 -0.1769  0.1875 -0.2880
 5608ntf    on527415   0.842   1.943   3.637  0.8476 -0.2986 -0.3336
 5608ntf    on527416   0.714   1.524   3.527  0.3567 -0.1334  0.0782
 5608ntf    on527417   0.942   1.589   3.437 -0.3629  0.4264 -0.8143
 5608ntf    fn427418   0.809   1.708   3.217  0.1117  0.0664 -0.2103
 5608ntf    fn427419   0.758   1.498   3.229 -0.0818  0.0434  0.0221
 5608ntf    fn427420   0.615   1.653   3.280  0.0683 -0.0262 -0.2715
 5609ntf    cn127421   1.848   0.448   2.467  0.3074  0.3708  0.1997
 5609ntf    sn227422   1.790   0.426   2.297  0.2587  0.3852  0.2144
 5609ntf    nn327423   1.759   0.272   2.311  0.0081  0.3667 -0.5020
 5609ntf    sn227424   1.845   0.146   2.274 -0.2140 -0.0158  0.2654
 5609ntf    cn127425   1.814   0.047   2.423 -0.2374 -0.3633  0.0307
 5609ntf    fn427426   1.863   0.576   2.501 -0.0255  0.5685 -0.3957
 5609ntf    fn427427   1.766   0.398   2.559 -0.0416  0.0314 -0.2934
 5609ntf    fn427428   1.964   0.388   2.484 -0.1215 -0.5099  0.0417
 5609ntf    on527429   1.668   0.504   2.300 -0.1548 -0.2497  0.2664
 5609ntf    on527430   1.903   0.474   2.222  0.5420 -0.2974  0.1892
 5609ntf    on527431   1.986   0.171   2.258 -0.2848  0.0933 -0.2260
 5609ntf    on527432   1.787   0.057   2.176 -0.0127  0.7715 -0.5845
 5609ntf    fn427433   1.682   0.035   2.434 -0.3259  0.2578 -0.3009
 5609ntf    fn427434   1.857  -0.078   2.423 -0.0590 -0.3034  0.2080
 5609ntf    fn427435   1.855   0.102   2.536 -0.2217  0.1759 -0.2311
 5610ntf    cn127436   6.514   4.461   3.750 -0.0323  0.2389  0.2199
 5610ntf    sn227437   6.416   4.395   3.612 -0.1442  0.0498  0.3871
 5610ntf    nn327438   6.473   4.249   3.616  0.2004  0.1911  0.7044
 5610ntf    sn227439   6.562   4.160   3.522 -0.1451  0.4529  0.1239
 5610ntf    cn127440   6.426   4.077   3.435  0.1709  0.2733 -0.1997
 5610ntf    fn427441   6.495   4.591   3.765 -0.2750  0.3172 -0.7261
 5610ntf    fn427442   6.487   4.399   3.864  0.5308 -0.2965  0.0687
 5610ntf    fn427443   6.643   4.448   3.724 -0.2035  0.1183 -0.5950
 5610ntf    on527444   6.281   4.405   3.662 -0.4658  0.5326 -0.5395
 5610ntf    on527445   6.446   4.476   3.496  0.0965  0.0756  0.4656
 5610ntf    on527446   6.633   4.052   3.587 -0.1229  0.4756  0.1381
 5610ntf    on527447   6.636   4.218   3.413  0.3725 -0.4414 -0.0070
 5610ntf    fn427448   6.341   4.154   3.370  0.2122  0.0034 -0.5764
 5610ntf    fn427449   6.465   3.985   3.348  0.4662  0.1990  0.0121
 5610ntf    fn427450   6.348   4.029   3.530  0.2558  0.1021 -0.2159
 5611ntf    cn127451   5.360   2.728   1.282 -0.2106 -0.3780  0.1158
 5611ntf    sn227452   5.201   2.721   1.194 -0.0425 -0.3264 -0.1917
 5611ntf    nn327453   5.105   2.731   1.317  0.3679 -0.0045  0.1054
 5611ntf    sn227454   4.963   2.799   1.311  0.4626  0.1938  0.0910
 5611ntf    cn127455   4.901   2.735   1.470 -0.1734  0.4135 -0.0647
 5611ntf    fn427456   5.369   2.841   1.350  0.6409 -0.1215 -0.4050
 5611ntf    fn427457   5.365   2.628   1.369  0.7298 -0.6135 -0.1911
 5611ntf    fn427458   5.471   2.712   1.212 -0.3186 -0.4739 -0.0342
 5611ntf    on527459   5.219   2.840   1.115 -0.0035 -0.2019  0.0046
 5611ntf    on527460   5.197   2.596   1.121 -0.4411 -0.4867  0.1024
 5611ntf    on527461   4.871   2.744   1.215  0.4704 -0.0235  0.2073
 5611ntf    on527462   4.970   2.942   1.326 -0.3689  0.2419  0.0511
 5611ntf    fn427463   4.887   2.604   1.483  0.0153  0.4264  0.2706
 5611ntf    fn427464   4.981   2.769   1.570 -0.0219 -0.5386  0.1514
 5611ntf    fn427465   4.782   2.785   1.498 -0.5594 -0.4989 -0.0595
 5612ntf    cn127466   7.546   6.733   6.886 -0.1472 -0.0811  0.6046
 5612ntf    sn227467   7.613   6.652   7.034  0.0245 -0.0749  0.5293
 5612ntf    nn327468   7.638   6.786   7.112 -0.7933  0.6244 -0.3771
 5612ntf    sn227469   7.587   6.840   7.250 -0.1485 -0.1219  0.1698
 5612ntf    cn127470   7.727   6.808   7.361  0.0077  0.1883  0.0647
 5612ntf    fn427471   7.486   6.652   6.800 -0.0149  0.4610 -0.0044
 5612ntf    fn427472   7.453   6.818   6.925 -0.8408 -0.5544  0.0100
 5612ntf    fn427473   7.636   6.808   6.824 -0.2315 -0.4039  0.0818
 5612ntf    on527474   7.502   6.567   7.070  0.0979 -0.4411 -0.0947
 5612ntf    on527475   7.736   6.587   6.995  0.1483  0.1126  0.6021
 5612ntf    on527476   7.472   6.775   7.309  0.1495 -0.3527  0.4964
 5612ntf    on527477   7.601   6.983   7.264  0.5059 -0.1958  0.2893
 5612ntf    fn427478   7.703   6.855   7.482  0.1099 -0.2585  0.2612
 5612ntf    fn427479   7.744   6.677   7.368 -0.5470  0.1031 -0.0822
 5612ntf    fn427480   7.842   6.852   7.313 -0.0937 -0.0412 -0.3910
 5613ntf    cn127481   4.204   5.291   2.451 -0.2283  0.2239  0.1656
 5613ntf    sn227482   4.173   5.310   2.629  0.0148  0.0901  0.2233
 5613ntf    nn327483   4.309   5.253   2.681  0.3335  0.3289 -0.3416
 5613ntf    sn227484   4.415   5.346   2.751 -0.1952  0.2942  0.5115
 5613ntf    cn127485   4.383   5.304   2.925 -0.0838 -0.2462  0.4032
 5613ntf    fn427486   4.097   5.301   2.374 -0.3150  0.5833  0.3327
 5613ntf    fn427487   4.295   5.377   2.409  0.3414 -0.0864  0.7411
 5613ntf    fn427488   4.256   5.171   2.428 -0.7585 -0.0007  0.1192
 5613ntf    on527489   4.140   5.450   2.649 -0.2820  0.0755 -0.1571
 5613ntf    on527490   4.064   5.217   2.645 -0.4461  0.5352 -0.2789
 5613ntf    on527491   4.390   5.488   2.755  0.3601  0.4120 -0.0598
 5613ntf    on527492   4.550   5.301   2.726 -0.3470 -0.1675  0.5083
 5613ntf    fn427493   4.485   5.334   3.004  0.3404 -0.5837 -0.0071
 5613ntf    fn427494   4.272   5.359   2.972  0.1420  0.0211  0.6288
 5613ntf    fn427495   4.371   5.173   2.946 -0.2869 -0.2321  0.3766
 5614ntf    cn127496   3.554   6.129   5.044  0.0832 -0.0278  0.2267
 5614ntf    sn227497   3.475   6.198   5.192  0.0330 -0.5374  0.4380
 5614ntf    nn327498   3.337   6.247   5.137  0.6553  0.1861 -0.5045
 5614ntf    sn227499   3.292   6.397   5.125  0.2299  0.1182  0.1846
 5614ntf    cn127500   3.123   6.373   5.061  0.2932 -0.2879  0.1661
 5614ntf    fn427501   3.668   6.066   5.068 -0.3861 -0.7749  0.5177
 5614ntf    fn427502   3.471   6.044   4.985 -0.1514  0.2436  0.1618
 5614ntf    fn427503   3.588   6.216   4.950 -0.3171  0.1254  0.2243
 5614ntf    on527504   3.474   6.077   5.270  0.0516 -0.4021  0.6491
 5614ntf    on527505   3.571   6.300   5.227 -0.1299 -0.3484  0.3343
 5614ntf    on527506   3.342   6.467   5.009  0.4069 -0.0202  0.1765
 5614ntf    on527507   3.268   6.474   5.244  0.3650 -0.0671  0.3324
 5614ntf    fn427508   3.056   6.487   5.052  0.7318 -0.0474 -0.1115
 5614ntf    fn427509   3.139   6.320   4.941  0.4102  0.0038  0.0502
 5614ntf    fn427510   3.052   6.288   5.133  0.1485 -0.1281  0.2140
 5615ntf    cn127511   0.499   4.588   0.758  0.0159 -0.6044 -0.2703
 5615ntf    sn227512   0.674   4.588   0.709  0.0589 -0.2458 -0.1250
 5615ntf    nn327513   0.686   4.732   0.648 -0.1524 -0.3030 -0.3024
 5615ntf    sn227514   0.784   4.793   0.542 -0.0992  0.1502  0.0057
 5615ntf    cn127515   0.671   4.805   0.400 -0.1519 -0.1030  0.0268
 5615ntf    fn427516   0.470   4.473   0.816  0.6274 -0.3958  0.4762
 5615ntf    fn427517   0.462   4.689   0.836  0.1286 -0.7300 -0.0507
 5615ntf    fn427518   0.418   4.608   0.656 -0.5551  0.1989  0.3208
 5615ntf    on527519   0.740   4.590   0.838 -0.3959  0.0036  0.1044
 5615ntf    on527520   0.696   4.467   0.633 -0.5456 -0.3214 -0.1851
 5615ntf    on527521   0.886   4.712   0.481  0.0839  0.4314 -0.0630
 5615ntf    on527522   0.819   4.928   0.577  0.4700 -0.1321  0.5391
 5615ntf    fn427523   0.567   4.884   0.421 -0.1888 -0.1592  0.0573
 5615ntf    fn427524   0.732   4.849   0.291 -0.0661  0.0038  0.1178
 5615ntf    fn427525   0.625   4.684   0.373 -0.2437  0.0995 -0.7319
 5616ntf    cn127526   4.974   3.155   3.950 -0.0969  0.2540 -0.3883
 5616ntf    sn227527   5.015   3.199   4.121 -0.0002  0.1852 -0.3943
 5616ntf    nn327528   4.992   3.353   4.103  0.2437  0.1779 -0.7744
 5616ntf    sn227529   4.943   3.454   4.213  0.1601 -0.6500 -0.0425
 5616ntf    cn127530   4.764   3.447   4.180  0.1226 -0.2018  0.0632
 5616ntf    fn427531   4.871   3.225   3.905 -0.1399  0.3676 -0.1118
 5616ntf    fn427532   5.077   3.185   3.873  0.3749 -0.4828 -0.0479
 5616ntf    fn427533   4.934   3.029   3.940 -0.2930  0.2434  0.4905
 5616ntf    on527534   4.907   3.139   4.195 -0.0606  0.5223 -0.2098
 5616ntf    on527535   5.154   3.170   4.148 -0.2002  0.0310  0.5238
 5616ntf    on527536   4.972   3.590   4.177 -0.3677 -0.2871  0.8681
 5616ntf    on527537   4.956   3.419   4.352 -0.7800  0.1807  0.2639
 5616ntf    fn427538   4.692   3.349   4.231  0.5853 -0.3760  0.3907
 5616ntf    fn427539   4.716   3.561   4.228  0.2746  0.2076 -0.7409
 5616ntf    fn427540   4.736   3.441   4.051  0.7111 -0.2884 -0.0646
 5617ntf    cn127541   4.172   6.851   0.513 -0.0403  0.7742 -0.2539
 5617ntf    sn227542   4.063   6.835   0.368  0.1292 -0.1518 -0.2854
 5617ntf    nn327543   4.149   6.733   0.285 -0.0963 -0.5560 -0.0267
 5617ntf    sn227544   4.141   6.579   0.256 -0.8782 -0.5177 -0.0353
 5617ntf    cn127545   4.157   6.584   0.075 -0.2589 -0.0043  0.0290
 5617ntf    fn427546   4.175   6.745   0.592  0.2242  0.5142 -0.6075
 5617ntf    fn427547   4.300   6.872   0.486  0.0782  0.0019 -0.3119
 5617ntf    fn427548   4.138   6.956   0.586 -0.1267 -0.0030  0.8477
 5617ntf    on527549   3.942   6.786   0.429 -0.1489  0.4264 -0.3737
 5617ntf    on527550   4.065   6.972   0.323 -0.1126 -0.0601 -0.0163
 5617ntf    on527551   4.010   6.524   0.279 -0.9082 -0.2571  0.4354
 5617ntf    on527552   4.251   6.500   0.305 -0.1622  0.2759 -0.3344
 5617ntf    fn427553   4.167   6.470   0.009 -0.1665  0.0202  0.0008
 5617ntf    fn427554   4.059   6.645   0.011  0.1600  0.7918  0.1351
 5617ntf    fn427555   4.269   6.644   0.040 -0.3965  0.1038 -0.2266
 5618ntf    cn127556   1.144   7.233   3.399  0.2376  0.1669 -0.3276
 5618ntf    sn227557   1.042   7.381   3.432 -0.0316 -0.0530 -0.1712
 5618ntf    nn327558   0.956   7.397   3.302  0.1723 -0.2105 -0.3275
 5618ntf    sn227559   0.801   7.369   3.296  0.1052  0.0781 -0.0034
 5618ntf    cn127560   0.724   7.496   3.400 -0.0764 -0.1061  0.0867
 5618ntf    fn427561   1.218   7.209   3.506 -0.1174 -0.2480 -0.1738
 5618ntf    fn427562   1.068   7.126   3.388  0.1686  0.2450 -0.6142
 5618ntf    fn427563   1.229   7.231   3.298  0.7133 -0.0129  0.0752
 5618ntf    on527564   0.976   7.347   3.556 -0.4422 -0.1757 -0.4234
 5618ntf    on527565   1.146   7.480   3.435  0.4563 -0.5583 -0.0677
 5618ntf    on527566   0.762   7.241   3.350  0.7079 -0.0271  0.1957
 5618ntf    on527567   0.747   7.397   3.165  0.2762 -0.1584 -0.1255
 5618ntf    fn427568   0.592   7.488   3.397 -0.0470 -0.4687 -0.6610
 5618ntf    fn427569   0.766   7.494   3.525 -0.0403 -0.8583  0.0653
 5618ntf    fn427570   0.753   7.619   3.359 -0.0902 -0.0286  0.3101
 5619ntf    cn127571   2.108   1.840   1.724  0.3283 -0.1461 -0.0781
 5619ntf    sn227572   2.141   1.784   1.894  0.2111 -0.2578 -0.0913
 5619ntf    nn327573   2.029   1.677   1.919 -0.1114 -0.0226 -0.5326
 5619ntf    sn227574   2.035   1.526   1.878 -0.0950 -0.1014 -0.2400
 5619ntf    cn127575   2.112   1.445   2.021 -0.1396 -0.0616 -0.1938
 5619ntf    fn427576   2.134   1.749   1.631 -0.4402 -0.7396  0.2647
 5619ntf    fn427577   1.979   1.869   1.713  0.3794 -0.0140 -0.3315
 5619ntf    fn427578   2.174   1.948   1.688  0.5133 -0.0251  0.6097
 5619ntf    on527579   2.276   1.733   1.881  0.3496  0.1897 -0.4611
 5619ntf    on527580   2.113   1.899   1.976 -0.3965 -0.3226 -0.2099
 5619ntf    on527581   2.111   1.494   1.760  0.6866  0.4099  0.1172
 5619ntf    on527582   1.904   1.465   1.876 -0.2424  0.1987  0.0639
 5619ntf    fn427583   2.043   1.414   2.130  0.3279 -0.0820  0.0963
 5619ntf    fn427584   2.139   1.320   1.987 -0.1934 -0.1220 -0.0210
 5619ntf    fn427585   2.224   1.502   2.061 -0.7240  0.6708  0.4254
 5620ntf    cn127586   0.314   4.557   6.581 -0.2108  0.4143  0.0575
 5620ntf    sn227587   0.494   4.535   6.573 -0.2820 -0.2347  0.1421
 5620ntf    nn327588   0.513   4.387   6.621  0.1612  0.0760  0.9491
 5620ntf    sn227589   0.614   4.324   6.723  0.0374 -0.6585  0.6254
 5620ntf    cn127590   0.489   4.305   6.854 -0.2454  0.1633  0.4820
 5620ntf    fn427591   0.277   4.680   6.549  0.2223  0.5246 -0.0208
 5620ntf    fn427592   0.250   4.470   6.504 -0.2887  0.5782 -0.0628
 5620ntf    fn427593   0.264   4.536   6.703 -0.1000 -0.0719  0.0228
 5620ntf    on527594   0.517   4.558   6.433 -0.1958  0.0010  0.1949
 5620ntf    on527595   0.546   4.633   6.665  0.4833 -0.5188  0.0176
 5620ntf    on527596   0.700   4.422   6.785  0.1205 -0.2236 -0.1740
 5620ntf    on527597   0.663   4.192   6.691  0.4219 -0.3849  0.0798
 5620ntf    fn427598   0.431   4.417   6.892  0.0617  0.4376  0.1450
 5620ntf    fn427599   0.391   4.225   6.815 -0.0083 -0.0863  0.3934
 5620ntf    fn427600   0.530   4.250   6.968 -0.2370 -0.2900  0.2614
 5621ntf    cn127601   4.218   4.725   1.396 -0.1268  0.0231  0.2538
 5621ntf    sn227602   4.089   4.831   1.468 -0.1212  0.1112  0.1339
 5621ntf    nn327603   4.148   4.849   1.612  0.0473 -0.0297  0.0840
 5621ntf    sn227604   4.178   4.988   1.679 -0.0543  0.0079  0.0515
 5621ntf    cn127605   4.349   5.007   1.621  0.0150  0.1276  0.2948
 5621ntf    fn427606   4.224   4.604   1.449 -0.0762 -0.0092  0.1759
 5621ntf    fn427607   4.196   4.708   1.267 -0.4750 -0.1734  0.3361
 5621ntf    fn427608   4.339   4.770   1.426 -0.2606  0.7162 -0.2438
 5621ntf    on527609   4.088   4.950   1.387 -0.8828 -0.2741 -0.4419
 5621ntf    on527610   3.974   4.744   1.476  0.0017 -0.0184  0.5282
 5621ntf    on527611   4.187   4.975   1.822  0.5359 -0.8656 -0.0611
 5621ntf    on527612   4.110   5.103   1.623  0.2136 -0.0127 -0.3153
 5621ntf    fn427613   4.398   5.119   1.673 -0.2121  0.4084 -0.0859
 5621ntf    fn427614   4.426   4.905   1.655 -0.2159 -0.2363 -0.2702
 5621ntf    fn427615   4.360   5.017   1.489 -0.0169  0.1582  0.2944
 5622ntf    cn127616   3.360   7.298   0.854  0.2163 -0.1103  0.4839
 5622ntf    sn227617   3.298   7.152   0.765 -0.1412  0.2908  0.0705
 5622ntf    nn327618   3.254   7.055   0.881  0.0083  0.4309  0.2451
 5622ntf    sn227619   3.319   6.918   0.919  0.1083  0.4131  0.0121
 5622ntf    cn127620   3.249   6.889   1.084  0.4646  0.1039  0.1108
 5622ntf    fn427621   3.291   7.302   0.967 -0.2135 -0.6693  0.2454
 5622ntf    fn427622   3.489   7.282   0.880  0.2384 -0.0189  0.4287
 5622ntf    fn427623   3.345   7.410   0.787  0.5511 -0.5449 -0.3276
 5622ntf    on527624   3.193   7.206   0.684 -0.3703 -0.2569 -0.0032
 5622ntf    on527625   3.422   7.128   0.695  0.0832  0.3204  0.4560
 5622ntf    on527626   3.461   6.927   0.946 -0.0708  0.2864  1.0291
 5622ntf    on527627   3.267   6.803   0.848 -0.3416  0.0129  0.9749
 5622ntf    fn427628   3.126   6.844   1.072  0.4440  0.2562 -0.2488
 5622ntf    fn427629   3.316   6.793   1.146 -0.0688 -0.6087 -0.3996
 5622ntf    fn427630   3.249   6.992   1.167 -0.1232  0.0492  0.1787
 5623ntf    cn127631   6.360   1.885   2.412  0.1510 -0.1285 -0.5420
 5623ntf    sn227632   6.185   1.922   2.382  0.0574 -0.1823 -0.0673
 5623ntf    nn327633   6.159   2.071   2.423 -0.4661 -0.3492  0.2207
 5623ntf    sn227634   6.085   2.187   2.348 -0.0203 -0.1080  0.1479
 5623ntf    cn127635   6.237   2.234   2.261 -0.3412  0.1340 -0.2835
 5623ntf    fn427636   6.397   1.766   2.367  0.3346 -0.3497  0.1806
 5623ntf    fn427637   6.434   1.974   2.346  0.3456 -0.0801 -0.2583
 5623ntf    fn427638   6.387   1.878   2.541  0.6452  0.0883 -0.6290
 5623ntf    on527639   6.176   1.900   2.239 -0.5533  0.5141 -0.1418
 5623ntf    on527640   6.111   1.828   2.462  0.3404 -0.2500  0.1144
 5623ntf    on527641   6.052   2.298   2.434  0.6046  0.0398  0.2043
 5623ntf    on527642   5.999   2.168   2.234  0.2946  0.4689 -0.1869
 5623ntf    fn427643   6.341   2.216   2.340 -0.2911  0.3622 -0.2949
 5623ntf    fn427644   6.258   2.165   2.150 -0.0352 -0.0564 -0.1067
 5623ntf    fn427645   6.238   2.363   2.231 -0.7372  0.2430  0.1626
 5624ntf    cn127646   6.875   1.233   5.111  0.1632  0.5350 -0.1278
 5624ntf    sn227647   6.958   1.084   5.048 -0.1589  0.2605  0.0981
 5624ntf    nn327648   6.862   1.045   4.929 -0.4954  0.4913  0.2942
 5624ntf    sn227649   6.740   0.946   4.935 -0.0374 -0.0977 -0.0420
 5624ntf    cn127650   6.833   0.791   4.916  0.3185  0.0797  0.2400
 5624ntf    fn427651   6.908   1.261   5.236 -0.0949 -0.1127  0.0878
 5624ntf    fn427652   6.920   1.336   5.041  0.6919  0.2007 -0.2902
 5624ntf    fn427653   6.743   1.242   5.117  0.1384 -0.0020  0.1868
 5624ntf    on527654   7.083   1.125   4.989 -0.2618 -0.2461 -0.4902
 5624ntf    on527655   6.965   0.987   5.154  0.0617  0.3246  0.1412
 5624ntf    on527656   6.664   0.942   4.813 -0.6167 -0.3810  0.3228
 5624ntf    on527657   6.672   0.946   5.063  0.1143  0.5050  0.0421
 5624ntf    fn427658   6.759   0.693   4.868  0.4383  0.1355 -0.0598
 5624ntf    fn427659   6.937   0.790   4.834  0.2175 -0.2388  0.1157
 5624ntf    fn427660   6.886   0.742   5.028 -0.2721 -0.4052  0.3130
 5625ntf    cn127661   2.491   3.058   4.876  0.1131  0.3084  0.4844
 5625ntf    sn227662   2.449   3.200   4.771  0.2441  0.1478  0.2133
 5625ntf    nn327663   2.481   3.314   4.875 -0.8634  0.4466  0.2390
 5625ntf    sn227664   2.422   3.459   4.889 -0.0635  0.7963  0.0662
 5625ntf    cn127665   2.314   3.442   5.035 -0.0515 -0.1820 -0.0301
 5625ntf    fn427666   2.464   3.080   5.004 -0.1272  0.3212  0.4314
 5625ntf    fn427667   2.428   2.947   4.841  0.6499  0.1130  0.1270
 5625ntf    fn427668   2.621   3.033   4.873  0.1154  0.3247  0.4528
 5625ntf    on527669   2.542   3.193   4.661 -0.2787 -0.6185 -0.1868
 5625ntf    on527670   2.308   3.175   4.755  0.2896  0.1661 -0.2299
 5625ntf    on527671   2.346   3.501   4.774 -0.2080 -0.1510 -0.1978
 5625ntf    on527672   2.528   3.548   4.927  0.7294 -0.0440 -0.1414
 5625ntf    fn427673   2.359   3.501   5.144 -0.2193 -0.3369  0.1235
 5625ntf    fn427674   2.194   3.496   5.014  0.1465  0.3014  0.0596
 5625ntf    fn427675   2.288   3.318   5.073 -0.5189 -0.1528 -0.2338
 5626ntf    cn127676   2.906   0.483   7.150  0.1528 -0.0601  0.0476
 5626ntf    sn227677   2.922   0.664   7.153 -0.2127 -0.0274  0.0689
 5626ntf    nn327678   3.057   0.693   7.227 -0.3234 -0.2971  0.3788
 5626ntf    sn227679   3.079   0.803   7.337  0.3052  0.3969 -0.4264
 5626ntf    cn127680   3.058   0.683   7.472  0.0692  0.4002 -0.4597
 5626ntf    fn427681   3.005   0.429   7.079  0.5465  0.5794  0.1049
 5626ntf    fn427682   2.914   0.417   7.264 -0.4955  0.0373  0.1518
 5626ntf    fn427683   2.791   0.446   7.096  0.1256 -0.0605  0.1060
 5626ntf    on527684   2.931   0.701   7.014 -0.3182 -0.5117 -0.0715
 5626ntf    on527685   2.809   0.711   7.228 -0.1878  0.4211 -0.1684
 5626ntf    on527686   2.975   0.895   7.374  0.3483  0.2973 -0.0509
 5626ntf    on527687   3.211   0.861   7.350  0.7120 -0.6211  0.1792
 5626ntf    fn427688   2.939   0.626   7.478  0.3151 -0.0245  0.8338
 5626ntf    fn427689   3.147   0.586   7.464 -0.2474  0.0245  0.4307
 5626ntf    fn427690   3.077   0.736   7.592  0.2865  0.1275 -0.3716
 5627ntf    cn127691   3.167   2.789   0.972  0.0494 -0.1223 -0.0808
 5627ntf    sn227692   3.313   2.680   0.971  0.2715  0.1738 -0.0900
 5627ntf    nn327693   3.400   2.771   1.065 -0.1729  0.5301 -0.0225
 5627ntf    sn227694   3.506   2.880   1.028 -0.0246  0.4881  0.2763
 5627ntf    cn127695   3.656   2.819   1.112 -0.1122  0.2120  0.2326
 5627ntf    fn427696   3.198   2.913   0.939  0.2061  0.0862  0.8374
 5627ntf    fn427697   3.078   2.745   0.885  0.0969 -0.6577  0.1369
 5627ntf    fn427698   3.108   2.794   1.090 -0.1078  0.3926 -0.1795
 5627ntf    on527699   3.264   2.567   1.046 -0.4261  0.3650 -0.2555
 5627ntf    on527700   3.346   2.660   0.832 -0.5799  0.2027 -0.3024
 5627ntf    on527701   3.476   3.002   1.099 -0.1285  0.2284  0.6862
 5627ntf    on527702   3.529   2.884   0.886  0.4815  0.0786  0.3432
 5627ntf    fn427703   3.622   2.717   1.188 -0.2324  0.3104  0.3118
 5627ntf    fn427704   3.750   2.787   1.025  0.0769 -0.0813  0.5420
 5627ntf    fn427705   3.697   2.919   1.189 -0.3670  0.2587  0.3100
 5628ntf    cn127706   2.359   6.494   7.585 -0.0258  0.1800  0.2118
 5628ntf    sn227707   2.490   6.375   7.544 -0.2578 -0.0172  0.0314
 5628ntf    nn327708   2.612   6.448   7.477 -0.2820 -0.0429 -0.0403
 5628ntf    sn227709   2.630   6.501   7.331  0.0885  0.0769  0.0475
 5628ntf    cn127710   2.716   6.369   7.241 -0.0948  0.1269 -0.2033
 5628ntf    fn427711   2.405   6.614   7.616  0.1071  0.2630 -0.3038
 5628ntf    fn427712   2.268   6.504   7.489 -0.1629  0.1103  0.3357
 5628ntf    fn427713   2.287   6.450   7.687 -0.2932  0.2797  0.0691
 5628ntf    on527714   2.528   6.339   7.679  0.0574  0.6946  0.1383
 5628ntf    on527715   2.430   6.270   7.465 -0.3255  0.2388 -0.2579
 5628ntf    on527716   2.733   6.602   7.332  0.1516  0.0122  0.0783
 5628ntf    on527717   2.505   6.526   7.262  0.1045 -0.1898 -0.0798
 5628ntf    fn427718   2.684   6.369   7.113 -0.5700 -0.3140 -0.0880
 5628ntf    fn427719   2.848   6.373   7.254 -0.1470  0.3218  0.2652
 5628ntf    fn427720   2.678   6.254   7.294  0.5267  0.0121  0.0034
 5629ntf    cn127721   0.592   0.705   0.655  0.3944 -0.5752  0.1476
 5629ntf    sn227722   0.441   0.752   0.745  0.3827  0.0397 -0.1895
 5629ntf    nn327723   0.383   0.609   0.776 -0.4441  0.3788 -0.1501
 5629ntf    sn227724   0.398   0.546   0.918  0.0265  0.2862 -0.2390
 5629ntf    cn127725   0.425   0.371   0.874 -0.2786  0.2076 -0.1180
 5629ntf    fn427726   0.650   0.603   0.717  0.0883 -0.6295  0.3457
 5629ntf    fn427727   0.570   0.666   0.531 -0.3634  0.2520  0.0199
 5629ntf    fn427728   0.669   0.812   0.653  0.1894 -0.4311 -0.0655
 5629ntf    on527729   0.489   0.823   0.861 -0.6388 -0.3811  0.5097
 5629ntf    on527730   0.368   0.814   0.638  0.1621  0.4177  0.1749
 5629ntf    on527731   0.279   0.550   0.999  0.1432  0.0239 -0.0508
 5629ntf    on527732   0.523   0.569   0.986 -0.1420 -0.0226  0.1854
 5629ntf    fn427733   0.416   0.299   0.984  0.3880 -0.3415 -0.4184
 5629ntf    fn427734   0.330   0.334   0.791 -0.8256  0.5504  0.3457
 5629ntf    fn427735   0.549   0.359   0.830 -0.0939 -0.5107  0.5939
 5630ntf    cn127736   7.328   4.283   1.341  0.0669 -0.2096  0.1783
 5630ntf    sn227737   7.350   4.462   1.318 -0.0319 -0.1933  0.2118
 5630ntf    nn327738   7.388   4.510   1.463  0.5790  0.5637 -0.1916
 5630ntf    sn227739   7.296   4.571   1.575  0.3699 -0.5118  0.2366
 5630ntf    cn127740   7.291   4.436   1.697  0.1805 -0.4231  0.3263
 5630ntf    fn427741   7.265   4.248   1.452 -0.0402 -0.0011  0.1828
 5630ntf    fn427742   7.271   4.222   1.238  0.2969 -0.0417 -0.0494
 5630ntf    fn427743   7.446   4.225   1.352  0.0615 -0.3652 -0.5268
 5630ntf    on527744   7.454   4.470   1.219 -0.3858 -0.0890 -0.1567
 5630ntf    on527745   7.223   4.505   1.265 -0.0553 -0.4056  0.0933
 5630ntf    on527746   7.159   4.593   1.538  0.3130 -0.0961  0.6961
 5630ntf    on527747   7.362   4.681   1.640  0.0046 -0.2559  0.1771
 5630ntf    fn427748   7.403   4.445   1.769 -0.0466  0.2343  0.6100
 5630ntf    fn427749   7.181   4.454   1.768  0.2895 -0.1820  0.4372
 5630ntf    fn427750   7.284   4.319   1.637 -0.8186 -0.1841 -0.0352
 5631ntf    cn127751   2.015   6.557   6.484 -0.1497  0.2989 -0.2627
 5631ntf    sn227752   2.006   6.721   6.562  0.1661  0.1928 -0.0008
 5631ntf    nn327753   2.055   6.698   6.709  0.3007 -0.9782 -0.2208
 5631ntf    sn227754   1.974   6.661   6.839 -0.1277  0.0430 -0.1903
 5631ntf    cn127755   1.937   6.822   6.915 -0.0842  0.0055 -0.0882
 5631ntf    fn427756   2.095   6.475   6.550 -0.2446  0.2218 -0.2432
 5631ntf    fn427757   1.898   6.497   6.473  0.0110  0.0832 -0.8200
 5631ntf    fn427758   2.061   6.574   6.361  0.0143  0.5611 -0.1684
 5631ntf    on527759   2.103   6.801   6.491 -0.0921  0.0061 -0.5742
 5631ntf    on527760   1.869   6.760   6.542  0.0476 -0.0732  0.2921
 5631ntf    on527761   2.056   6.598   6.939 -0.0358  0.1663 -0.1864
 5631ntf    on527762   1.842   6.607   6.822 -0.0821 -0.2217  0.2976
 5631ntf    fn427763   2.008   6.928   6.876  0.1861  0.0626  0.5430
 5631ntf    fn427764   1.810   6.849   6.893 -0.0294  0.5274  0.1990
 5631ntf    fn427765   1.952   6.825   7.046  0.0544  0.0882 -0.1054
 5632ntf    cn127766   2.147   1.125   0.057  0.4192 -0.7516  0.1871
 5632ntf    sn227767   2.198   0.999   0.177  0.1501 -0.4450  0.6271
 5632ntf    nn327768   2.180   0.866   0.095 -0.2597  0.2553 -0.4398
 5632ntf    sn227769   2.277   0.792  -0.004  0.0202 -0.2854  0.2305
 5632ntf    cn127770   2.172   0.654  -0.059 -0.0036 -0.3212  0.3637
 5632ntf    fn427771   2.015   1.125   0.056  0.4092  0.1574  0.5585
 5632ntf    fn427772   2.168   1.250   0.097 -0.7433 -0.4037 -0.2393
 5632ntf    fn427773   2.189   1.104  -0.066  0.1145  0.5903 -0.1653
 5632ntf    on527774   2.335   1.033   0.206  0.4263 -0.6955 -0.3622
 5632ntf    on527775   2.091   1.013   0.273  0.0857  0.5196  0.4228
 5632ntf    on527776   2.394   0.730   0.053  0.4788  0.7621  0.4481
 5632ntf    on527777   2.293   0.856  -0.132 -0.4217 -0.5477  0.0400
 5632ntf    fn427778   2.238   0.586  -0.152 -0.0014  0.3352 -0.1226
 5632ntf    fn427779   2.142   0.569   0.038 -0.3829 -0.3692  0.2066
 5632ntf    fn427780   2.057   0.688  -0.117  0.1694 -0.0585  0.1720
 5633ntf    cn127781   6.638   6.312   1.808  0.2337  0.3014 -0.2899
 5633ntf    sn227782   6.647   6.476   1.730  0.4576  0.3976 -0.0624
 5633ntf    nn327783   6.588   6.565   1.845 -0.3365 -1.0958  0.7145
 5633ntf    sn227784   6.663   6.639   1.961 -0.1058 -0.0268 -0.0890
 5633ntf    cn127785   6.534   6.753   2.022 -0.1310 -0.0526 -0.0933
 5633ntf    fn427786   6.684   6.225   1.719 -0.4004 -0.1763 -0.1558
 5633ntf    fn427787   6.713   6.294   1.915 -0.1044  0.0544 -0.0978
 5633ntf    fn427788   6.517   6.279   1.847  0.4101  0.2176  0.1865
 5633ntf    on527789   6.785   6.489   1.688  0.1950  0.4902 -0.9242
 5633ntf    on527790   6.556   6.455   1.620  0.4749  0.4466 -0.0862
 5633ntf    on527791   6.770   6.720   1.911 -0.4052  0.1619 -0.4242
 5633ntf    on527792   6.691   6.547   2.069 -0.2140 -0.4204 -0.3934
 5633ntf    fn427793   6.585   6.820   2.124 -0.5447  0.2476 -0.0864
 5633ntf    fn427794   6.498   6.844   1.933 -0.1657 -0.3283 -0.3668
 5633ntf    fn427795   6.428   6.698   2.078  0.4741 -1.0794  0.0823
 5634ntf    cn127796   6.460   7.192   6.772 -0.2987  0.2645  0.1060
 5634ntf    sn227797   6.428   7.113   6.932 -0.1155  0.2661  0.1430
 5634ntf    nn327798   6.300   7.192   6.976  0.2451  0.5987  0.6003
 5634ntf    sn227799   6.159   7.214   6.911  0.1887 -0.1963  0.4442
 5634ntf    cn127800   6.038   7.188   7.044 -0.1150 -0.0908  0.1896
 5634ntf    fn427801   6.584   7.171   6.732 -0.4610  0.1648 -0.3485
 5634ntf    fn427802   6.380   7.160   6.672  0.2897 -0.0408 -0.2687
 5634ntf    fn427803   6.456   7.325   6.778 -0.1977  0.2906 -0.3602
 5634ntf    on527804   6.393   6.977   6.901 -0.0391  0.4170 -0.6198
 5634ntf    on527805   6.550   7.136   7.006  0.2841  0.3262 -0.5306
 5634ntf    on527806   6.126   7.113   6.815  0.4039  0.5571 -0.4364
 5634ntf    on527807   6.146   7.352   6.869 -0.3098 -0.3609  0.0547
 5634ntf    fn427808   5.916   7.237   7.031 -0.1144 -0.1423 -0.0209
 5634ntf    fn427809   6.023   7.060   7.075  0.0856 -0.3646 -0.8196
 5634ntf    fn427810   6.068   7.257   7.153  0.0346 -0.2154  0.2289
 5635ntf    cn127811   7.562   2.050   0.470  0.2374  0.3474  0.0837
 5635ntf    sn227812   7.425   1.940   0.425  0.1934  0.3906  0.1124
 5635ntf    nn327813   7.474   1.892   0.284 -0.1351  0.3963 -0.0056
 5635ntf    sn227814   7.442   1.759   0.207  0.0016  0.4019 -0.0721
 5635ntf    cn127815   7.423   1.836   0.043  0.2180 -0.0402 -0.3067
 5635ntf    fn427816   7.523   2.130   0.568 -0.0981 -0.3162  0.4994
 5635ntf    fn427817   7.657   1.978   0.528 -0.1206  0.1689  0.4498
 5635ntf    fn427818   7.616   2.117   0.370  0.2196 -0.0720 -0.2076
 5635ntf    on527819   7.416   1.842   0.530 -0.2957 -0.1858 -0.4573
 5635ntf    on527820   7.317   2.034   0.407 -0.0994  0.1963  0.8025
 5635ntf    on527821   7.311   1.703   0.231  0.2442 -0.1573 -0.0477
 5635ntf    on527822   7.553   1.667   0.201 -0.1970  0.1543  0.0236
 5635ntf    fn427823   7.301   1.886   0.027 -0.0400 -0.5560  0.0156
 5635ntf    fn427824   7.516   1.926   0.020 -0.0312  0.2482 -0.1957
 5635ntf    fn427825   7.437   1.744  -0.051  0.1648 -0.6654  0.2874
 5636ntf    cn127826   1.373   1.636   6.759 -0.4078  0.0826  0.1549
 5636ntf    sn227827   1.455   1.720   6.620 -0.1034  0.1725  0.3878
 5636ntf    nn327828   1.350   1.743   6.506 -0.0722  0.3011  0.3850
 5636ntf    sn227829   1.320   1.873   6.422 -0.1517  0.0130 -0.0380
 5636ntf    cn127830   1.374   1.799   6.266  0.1029 -0.0313  0.0702
 5636ntf    fn427831   1.275   1.712   6.804 -0.3050 -0.2446  0.9327
 5636ntf    fn427832   1.324   1.521   6.716  1.0943 -0.4131 -0.2958
 5636ntf    fn427833   1.458   1.606   6.856 -0.0428  0.2621 -0.1044
 5636ntf    on527834   1.515   1.838   6.679  0.1260  0.1866  0.1317
 5636ntf    on527835   1.543   1.623   6.559 -0.1688  0.0739  0.4508
 5636ntf    on527836   1.413   1.981   6.439 -0.6462  0.5866 -0.8973
 5636ntf    on527837   1.180   1.897   6.398  0.0034  0.5297 -0.4258
 5636ntf    fn427838   1.303   1.690   6.239 -0.1042  0.0534  0.2819
 5636ntf    fn427839   1.362   1.879   6.161  0.2208 -0.2562 -0.1197
 5636ntf    fn427840   1.503   1.767   6.263  0.2386  0.4696  0.5531
 5637ntf    cn127841   2.375   1.431   6.468 -0.1993  0.3927  0.0054
 5637ntf    sn227842   2.325   1.341   6.318  0.3674 -0.0956  0.1072
 5637ntf    nn327843   2.425   1.220   6.321  0.4152 -0.0489  0.4044
 5637ntf    sn227844   2.396   1.070   6.287  0.1118  0.0915  0.0396
 5637ntf    cn127845   2.391   0.971   6.439  0.5632 -0.0434 -0.0325
 5637ntf    fn427846   2.336   1.558   6.467  0.5747  0.6348  0.0102
 5637ntf    fn427847   2.326   1.386   6.582  0.3337 -0.4272 -0.0824
 5637ntf    fn427848   2.506   1.426   6.482 -0.1734 -0.3661 -0.4410
 5637ntf    on527849   2.191   1.303   6.356  0.5998 -0.4281  0.6049
 5637ntf    on527850   2.337   1.447   6.220  0.0822  0.1456  0.3294
 5637ntf    on527851   2.509   1.013   6.218  0.1664 -0.1907  0.3601
 5637ntf    on527852   2.263   1.044   6.236  0.1523 -0.2645  0.1104
 5637ntf    fn427853   2.350   0.848   6.414 -0.4302  0.2263  0.2016
 5637ntf    fn427854   2.511   0.973   6.494  0.5942 -0.6098 -0.0764
 5637ntf    fn427855   2.303   1.013   6.529 -0.3587 -0.4523 -0.7283
 5638ntf    cn127856   6.866   3.664   2.136 -0.4104 -0.1998 -0.0102
 5638ntf    sn227857   6.987   3.644   2.002 -0.0451 -0.1210  0.3061
 5638ntf    nn327858   7.095   3.743   2.060 -0.0660  0.1733 -0.1516
 5638ntf    sn227859   7.113   3.895   2.027  0.2677  0.1799  0.0525
 5638ntf    cn127860   7.195   3.893   1.865  0.0207 -0.1279 -0.0699
 5638ntf    fn427861   6.767   3.576   2.132 -0.4156 -0.1989  0.0899
 5638ntf    fn427862   6.924   3.639   2.253 -0.1960  0.3622  0.0034
 5638ntf    fn427863   6.822   3.787   2.152  0.1995  0.0694 -0.3838
 5638ntf    on527864   7.012   3.502   2.003 -0.9869 -0.3061 -0.4974
 5638ntf    on527865   6.917   3.694   1.886  0.4745  0.4518  0.2321
 5638ntf    on527866   7.208   3.959   2.115  0.5209 -0.0067 -0.0851
 5638ntf    on527867   6.987   3.964   2.008  0.5191  0.6551  0.1058
 5638ntf    fn427868   7.113   3.854   1.768 -0.2035  0.5444 -0.1569
 5638ntf    fn427869   7.237   4.010   1.818 -0.2305  0.0203  0.0710
 5638ntf    fn427870   7.300   3.813   1.864  0.0493 -0.1138  1.1543
 5639ntf    cn127871   2.574   5.443   3.491  0.2657  0.2115  0.3227
 5639ntf    sn227872   2.445   5.318   3.519  0.4004 -0.1769 -0.7484
 5639ntf    nn327873   2.497   5.191   3.444  0.5599 -0.3296 -0.3808
 5639ntf    sn227874   2.389   5.085   3.400 -0.2413  0.3098  0.0303
 5639ntf    cn127875   2.335   5.162   3.245  0.3403  0.0764 -0.2892
 5639ntf    fn427876   2.685   5.419   3.559  0.5857  0.1239 -0.2195
 5639ntf    fn427877   2.600   5.461   3.363 -0.7058  0.2031  0.1171
 5639ntf    fn427878   2.541   5.567   3.525  0.2451  0.2826  0.0495
 5639ntf    on527879   2.452   5.289   3.660  0.1755  0.3096 -0.6355
 5639ntf    on527880   2.325   5.390   3.483  0.3592  0.1194 -0.0372
 5639ntf    on527881   2.274   5.059   3.483  0.4430 -0.7668  0.6608
 5639ntf    on527882   2.452   4.965   3.351 -0.7115 -0.1167  0.4577
 5639ntf    fn427883   2.240   5.251   3.266 -0.0133 -0.2983 -0.2933
 5639ntf    fn427884   2.420   5.241   3.180 -0.0610  0.4289 -0.3881
 5639ntf    fn427885   2.290   5.071   3.160  0.6647 -0.2617 -0.1025
 5640ntf    cn127886   4.349   2.943   3.683 -0.3769 -0.1184 -0.1951
 5640ntf    sn227887   4.304   2.962   3.508 -0.3942 -0.2129 -0.2002
 5640ntf    nn327888   4.225   3.097   3.523  0.6308  0.3330  0.3284
 5640ntf    sn227889   4.238   3.234   3.449 -0.3634  0.2432 -0.0269
 5640ntf    cn127890   4.115   3.200   3.320 -0.0876  0.0280 -0.2351
 5640ntf    fn427891   4.261   2.869   3.748 -0.0668 -0.2629  0.0665
 5640ntf    fn427892   4.472   2.895   3.697 -0.1415  0.4898 -0.1268
 5640ntf    fn427893   4.348   3.060   3.745  0.6954 -0.2496  0.0856
 5640ntf    on527894   4.428   2.963   3.435 -0.0599  0.5590  0.3717
 5640ntf    on527895   4.216   2.848   3.497  0.2412 -0.7181 -0.1006
 5640ntf    on527896   4.358   3.259   3.372 -0.8692  0.1633 -0.8529
 5640ntf    on527897   4.186   3.346   3.524 -1.0210 -0.2608  0.2758
 5640ntf    fn427898   4.107   3.310   3.247 -0.2810  0.1968  0.0372
 5640ntf    fn427899   4.135   3.086   3.257 -0.2129 -0.0536 -0.1292
 5640ntf    fn427900   3.996   3.183   3.376 -0.0372  0.1271 -0.0963
 5641ntf    cn127901   3.777   1.093   7.230  0.1964  0.3808 -0.6847
 5641ntf    sn227902   3.898   0.984   7.150 -0.0191 -0.3911  0.0199
 5641ntf    nn327903   4.004   0.967   7.265  0.0725  0.2571  0.0362
 5641ntf    sn227904   4.005   0.862   7.381  0.1630 -0.4813 -0.6233
 5641ntf    cn127905   4.124   0.738   7.322  0.5563 -0.4040 -0.0075
 5641ntf    fn427906   3.830   1.205   7.278  0.1989 -0.0754  0.4027
 5641ntf    fn427907   3.681   1.139   7.152  0.0662 -0.1070 -0.8118
 5641ntf    fn427908   3.714   1.033   7.330 -0.1108  0.2198 -0.9760
 5641ntf    on527909   3.826   0.866   7.110 -0.0498 -0.4470  0.2396
 5641ntf    on527910   3.951   1.064   7.042 -0.8717  0.0840 -0.0516
 5641ntf    on527911   3.885   0.783   7.392 -0.1849  0.0607 -0.5124
 5641ntf    on527912   4.068   0.909   7.502 -0.7339 -0.1866 -0.2623
 5641ntf    fn427913   4.117   0.627   7.393  0.5660  0.0056  0.6473
 5641ntf    fn427914   4.106   0.700   7.196 -0.5381 -0.4934  0.1671
 5641ntf    fn427915   4.251   0.776   7.318  0.5155 -0.2530  0.1401
 5642ntf    cn127916   4.499   6.087   5.616  0.3661  0.1503 -0.1808
 5642ntf    sn227917   4.498   6.144   5.443 -0.0729  0.1429 -0.1820
 5642ntf    nn327918   4.651   6.176   5.430  0.0791 -0.2614  0.5632
 5642ntf    sn227919   4.720   6.315   5.406  0.1628 -0.4049 -0.0459
 5642ntf    cn127920   4.891   6.281   5.458  0.2973 -0.2558 -0.3890
 5642ntf    fn427921   4.573   6.166   5.692 -0.2705  0.6382 -0.0546
 5642ntf    fn427922   4.379   6.077   5.671  0.2533  0.4309 -0.3725
 5642ntf    fn427923   4.549   5.966   5.636 -0.2064 -0.0510  0.0355
 5642ntf    on527924   4.463   6.027   5.368  0.0348  0.2468 -0.3948
 5642ntf    on527925   4.406   6.254   5.430 -0.6537 -0.4348 -1.0340
 5642ntf    on527926   4.666   6.422   5.487 -0.2170 -0.6343  0.0050
 5642ntf    on527927   4.736   6.358   5.269  0.4329  0.6456  0.3019
 5642ntf    fn427928   4.962   6.391   5.450  0.0486 -0.0887 -0.3106
 5642ntf    fn427929   4.892   6.245   5.585  0.5992  0.0156 -0.3143
 5642ntf    fn427930   4.954   6.193   5.382  0.3212  0.6029 -1.3849
 5643ntf    cn127931   2.596   6.147   5.243 -0.2106  0.1309  0.1098
 5643ntf    sn227932   2.418   6.129   5.278 -0.1359  0.0975  0.4733
 5643ntf    nn327933   2.345   6.231   5.183  0.2763 -0.2947 -0.2673
 5643ntf    sn227934   2.388   6.311   5.054 -0.0293  0.0390 -0.1621
 5643ntf    cn127935   2.223   6.369   5.004  0.0101  0.2197 -0.0839
 5643ntf    fn427936   2.642   6.256   5.302 -0.2236  0.0577  0.2566
 5643ntf    fn427937   2.672   6.048   5.284  0.5871  0.5053 -0.4423
 5643ntf    fn427938   2.624   6.163   5.114  0.2021 -0.1504  0.1638
 5643ntf    on527939   2.398   5.991   5.244  0.5604  0.3068 -0.8700
 5643ntf    on527940   2.405   6.160   5.418 -0.4829  0.3925  0.3796
 5643ntf    on527941   2.440   6.227   4.950 -0.2542 -0.0326 -0.2175
 5643ntf    on527942   2.454   6.434   5.090 -0.1392 -0.0034  0.1951
 5643ntf    fn427943   2.165   6.449   5.091  0.4002  0.2012  0.1979
 5643ntf    fn427944   2.219   6.439   4.891  0.2643 -0.1501 -0.3257
 5643ntf    fn427945   2.137   6.270   4.988 -0.0748  0.1952  0.5308
 5644ntf    cn127946   4.992   0.756   5.856 -0.2353 -0.1226  0.2792
 5644ntf    sn227947   4.916   0.909   5.793 -0.1913 -0.0559  0.3892
 5644ntf    nn327948   4.968   0.918   5.646  0.2432  0.2406  0.5594
 5644ntf    sn227949   5.094   0.984   5.580  0.0285  0.1729  0.0772
 5644ntf    cn127950   5.025   1.134   5.502 -0.1628  0.0660  0.0401
 5644ntf    fn427951   5.120   0.729   5.839 -0.2323 -0.2536  0.5041
 5644ntf    fn427952   4.980   0.753   5.988 -0.6854  0.7567  0.2634
 5644ntf    fn427953   4.931   0.645   5.815 -0.2909 -0.0262  0.0988
 5644ntf    on527954   4.778   0.869   5.808 -0.3115 -0.1281 -0.8722
 5644ntf    on527955   4.961   1.009   5.886 -0.0210 -0.3448  0.6231
 5644ntf    on527956   5.138   0.907   5.466 -0.7112 -0.2929  0.1060
 5644ntf    on527957   5.200   1.021   5.670 -0.3002 -0.0286  0.5478
 5644ntf    fn427958   4.983   1.215   5.597  0.4215 -0.0142  0.3745
 5644ntf    fn427959   5.112   1.206   5.432 -0.0929 -0.2127 -0.1667
 5644ntf    fn427960   4.919   1.112   5.427 -0.1668 -0.1080  0.0968
 5645ntf    cn127961   1.031   3.602   1.954 -0.3158  0.1735  0.0986
 5645ntf    sn227962   1.137   3.602   1.806 -0.0130 -0.0334  0.3156
 5645ntf    nn327963   1.099   3.740   1.741 -0.3166 -0.0678  0.4214
 5645ntf    sn227964   1.185   3.865   1.701 -0.2090 -0.2974 -0.0639
 5645ntf    cn127965   1.194   3.864   1.519  0.1413 -0.5052 -0.0453
 5645ntf    fn427966   1.064   3.510   2.042  0.1756  0.2583  0.0052
 5645ntf    fn427967   1.040   3.714   2.025 -0.1257  0.4487 -0.3494
 5645ntf    fn427968   0.904   3.579   1.926 -0.2542 -0.1759  0.1032
 5645ntf    on527969   1.269   3.588   1.862  0.1642  0.0512 -0.0784
 5645ntf    on527970   1.088   3.486   1.736 -0.2083  0.3416 -0.1693
 5645ntf    on527971   1.323   3.858   1.742 -0.2474 -0.1193  0.0985
 5645ntf    on527972   1.118   3.991   1.717  0.2116 -0.0878  0.0403
 5645ntf    fn427973   1.270   3.959   1.467  0.2046 -0.3834  0.2651
 5645ntf    fn427974   1.239   3.751   1.467 -0.3231 -0.7181  0.0181
 5645ntf    fn427975   1.074   3.875   1.467  0.4787  0.3000 -0.6604
 5646ntf    cn127976   3.013   1.886   6.351 -0.0972  0.2252 -0.0952
 5646ntf    sn227977   2.877   1.781   6.412 -0.1665  0.1620 -0.3571
 5646ntf    nn327978   2.849   1.841   6.554  0.1492  0.5736 -0.4644
 5646ntf    sn227979   2.744   1.948   6.602 -0.0365  0.1873  0.0079
 5646ntf    cn127980   2.620   1.830   6.663 -0.0071  0.1669  0.0282
 5646ntf    fn427981   3.096   1.815   6.276 -0.3227 -0.3490  0.1879
 5646ntf    fn427982   2.973   1.991   6.281  0.2057  0.5560  0.2252
 5646ntf    fn427983   3.080   1.938   6.453  0.5249  0.0254 -0.4016
 5646ntf    on527984   2.772   1.798   6.315 -0.1372  0.1378 -0.3932
 5646ntf    on527985   2.934   1.649   6.405 -0.4510  0.0124  0.0771
 5646ntf    on527986   2.674   2.025   6.502 -0.4955 -0.0427  0.1505
 5646ntf    on527987   2.781   2.012   6.725  0.0828  0.1497 -0.0088
 5646ntf    fn427988   2.663   1.739   6.748  0.0499  0.2070  0.0420
 5646ntf    fn427989   2.523   1.881   6.737  0.1147 -0.4198  0.6055
 5646ntf    fn427990   2.561   1.764   6.565 -0.6064  0.1175  0.4199
 5647ntf    cn127991   4.581   2.136   6.125 -0.0741 -0.3753 -0.2511
 5647ntf    sn227992   4.616   2.299   6.050 -0.0238 -0.2730 -0.0060
 5647ntf    nn327993   4.553   2.270   5.910 -0.4533 -0.4920  0.2303
 5647ntf    sn227994   4.634   2.246   5.777 -0.0922  0.3100  0.2981
 5647ntf    cn127995   4.634   2.065   5.754  0.0239  0.3173  0.2400
 5647ntf    fn427996   4.618   2.028   6.058  0.2549 -0.1357 -0.4634
 5647ntf    fn427997   4.638   2.124   6.244  0.1089  0.1572 -0.2826
 5647ntf    fn427998   4.453   2.117   6.148 -0.1004 -0.0203 -0.0915
 5647ntf    on527999   4.527   2.383   6.125  0.1948 -0.2448  0.2244
 5647ntf    on528000   4.759   2.310   6.066 -0.1442  0.5735  0.5327
 5647ntf    on528001   4.772   2.286   5.770 -0.1813  0.6372  0.4204
 5647ntf    on528002   4.553   2.285   5.664 -0.1206  0.2265  0.2891
 5647ntf    fn428003   4.667   2.021   5.634 -0.0133  0.8849  0.0151
 5647ntf    fn428004   4.704   1.998   5.844 -0.0411 -0.1697 -0.0711
 5647ntf    fn428005   4.510   2.028   5.781  0.0906  0.4018  0.6727
 5648ntf    cn128006   0.275   2.104   2.183  0.1467 -0.1763  0.3659
 5648ntf    sn228007   0.228   2.215   2.319 -0.3465  0.1309 -0.0528
 5648ntf    nn328008   0.353   2.308   2.337 -0.0839 -0.2806  0.2548
 5648ntf    sn228009   0.352   2.443   2.416  0.0464 -0.0185 -0.1907
 5648ntf    cn128010   0.451   2.391   2.559 -0.4143  0.2277  0.2209
 5648ntf    fn428011   0.285   2.172   2.070 -0.0382 -0.4145  0.2045
 5648ntf    fn428012   0.392   2.048   2.208  0.2530 -0.0427  0.1661
 5648ntf    fn428013   0.191   2.005   2.158 -0.2530  0.2453  0.0324
 5648ntf    on528014   0.110   2.278   2.265 -0.4644  0.1538  0.2269
 5648ntf    on528015   0.199   2.125   2.428  0.6021  0.5272  0.5372
 5648ntf    on528016   0.229   2.491   2.475 -0.0479  0.1394 -0.5144
 5648ntf    on528017   0.442   2.542   2.361 -0.4391  0.4304 -0.1902
 5648ntf    fn428018   0.380   2.300   2.623  0.2508 -0.2407  0.3079
 5648ntf    fn428019   0.559   2.329   2.514 -0.3171  0.4517  0.1431
 5648ntf    fn428020   0.486   2.475   2.655 -0.1776  0.1577  0.1985
 5649ntf    cn128021   5.520   0.968   2.270 -0.2862 -0.2158  0.0095
 5649ntf    sn228022   5.660   1.044   2.357 -0.2865 -0.0483 -0.1366
 5649ntf    nn328023   5.615   1.049   2.507 -0.6131 -0.6128 -0.2138
 5649ntf    sn228024   5.603   1.163   2.614 -0.2768 -0.3937 -0.4100
 5649ntf    cn128025   5.422   1.158   2.629 -0.2641  0.3395  0.0281
 5649ntf    fn428026   5.544   0.948   2.141  0.4034 -0.0723  0.1117
 5649ntf    fn428027   5.502   0.850   2.327  0.2870 -0.3933 -0.1652
 5649ntf    fn428028   5.405   1.032   2.275 -0.1258  0.0583  0.2212
 5649ntf    on528029   5.761   0.941   2.343 -0.3261 -0.2508  0.9961
 5649ntf    on528030   5.684   1.168   2.288  0.1840 -0.5225 -0.8406
 5649ntf    on528031   5.635   1.297   2.570 -0.2664 -0.5708 -0.9530
 5649ntf    on528032   5.647   1.125   2.746  0.2407  0.5087 -0.3124
 5649ntf    fn428033   5.353   1.170   2.517 -0.3302 -0.8302 -0.0624
 5649ntf    fn428034   5.365   1.051   2.682  0.1352 -0.0993 -0.4228
 5649ntf    fn428035   5.374   1.255   2.706  0.6102  0.4094  0.5118
 5650ntf    cn128036   2.343   0.166   3.684  0.0962  0.3809 -0.0662
 5650ntf    sn228037   2.289   0.289   3.807 -0.1217 -0.0532  0.2736
 5650ntf    nn328038   2.137   0.310   3.777 -0.1267 -0.1525  0.2294
 5650ntf    sn228039   2.007   0.250   3.842 -0.0811  0.0504  0.5079
 5650ntf    cn128040   1.913   0.237   3.687 -0.0189  0.3664  0.4442
 5650ntf    fn428041   2.248   0.082   3.646  0.2182 -0.1455  0.7635
 5650ntf    fn428042   2.399   0.229   3.582  0.4804 -0.0696 -0.1368
 5650ntf    fn428043   2.442   0.089   3.726 -0.0138  0.2343 -0.0768
 5650ntf    on528044   2.334   0.231   3.931  0.0811 -0.9316 -0.2031
 5650ntf    on528045   2.358   0.409   3.766  0.6035 -0.4666  0.2595
 5650ntf    on528046   1.930   0.345   3.919  0.1609  0.6338  0.0433
 5650ntf    on528047   2.014   0.117   3.898 -0.1194  0.1143  0.6652
 5650ntf    fn428048   1.889   0.352   3.625 -0.4237 -0.0280 -0.1290
 5650ntf    fn428049   1.975   0.167   3.594 -0.5761 -0.1421  0.4521
 5650ntf    fn428050   1.791   0.190   3.706  0.1952 -0.2830  0.2140
 5651ntf    cn128051   2.717   6.887   1.388 -0.1109 -0.1278 -0.2033
 5651ntf    sn228052   2.688   6.713   1.347 -0.3725 -0.0893 -0.1856
 5651ntf    nn328053   2.696   6.647   1.489 -0.2560 -0.2313 -0.2580
 5651ntf    sn228054   2.640   6.505   1.524 -0.1154 -0.2454 -0.0863
 5651ntf    cn128055   2.736   6.474   1.675  0.0164 -0.1841 -0.1581
 5651ntf    fn428056   2.756   6.958   1.283  1.1550 -0.3359  0.1161
 5651ntf    fn428057   2.621   6.957   1.446  0.2276 -0.0561  0.2705
 5651ntf    fn428058   2.821   6.897   1.469 -0.4148 -0.2367  0.2045
 5651ntf    on528059   2.560   6.714   1.281 -0.5403 -0.1495  0.1352
 5651ntf    on528060   2.800   6.671   1.266 -0.0544  0.3384  0.0301
 5651ntf    on528061   2.685   6.406   1.430  0.5873  0.1619 -0.1844
 5651ntf    on528062   2.502   6.498   1.565  0.1056 -0.3763  0.6517
 5651ntf    fn428063   2.868   6.478   1.659  0.0672  0.1480  0.2927
 5651ntf    fn428064   2.717   6.556   1.777 -0.1830 -0.3970 -0.0230
 5651ntf    fn428065   2.714   6.353   1.724  0.0536 -0.1003  0.0694
 5652ntf    cn128066   0.602   3.380   3.666 -0.3962 -0.3723  0.0248
 5652ntf    sn228067   0.514   3.235   3.730 -0.6569 -0.2486 -0.0522
 5652ntf    nn328068   0.375   3.308   3.742 -0.6588 -0.2549 -0.0370
 5652ntf    sn228069   0.290   3.336   3.871  0.0701  0.0451  0.3887
 5652ntf    cn128070   0.128   3.372   3.795  0.3620  0.0031 -0.2586
 5652ntf    fn428071   0.728   3.364   3.627 -0.4669 -0.3620 -0.2108
 5652ntf    fn428072   0.552   3.450   3.565  0.3409  0.3410  0.1432
 5652ntf    fn428073   0.614   3.482   3.750 -0.1936 -0.4420  0.0813
 5652ntf    on528074   0.522   3.136   3.626 -0.3101  0.1388 -0.3935
 5652ntf    on528075   0.580   3.211   3.856 -0.2141 -0.0012 -0.2350
 5652ntf    on528076   0.323   3.456   3.944 -0.0353  0.1347  0.2901
 5652ntf    on528077   0.267   3.217   3.948 -0.3190  0.0016  0.2074
 5652ntf    fn428078   0.130   3.486   3.729 -0.1413  0.0194 -0.2453
 5652ntf    fn428079   0.084   3.283   3.707  0.1379 -0.2946  0.1509
 5652ntf    fn428080   0.032   3.391   3.883 -0.0006  0.1254 -0.6748
 5653ntf    cn128081   6.575   3.172   0.022 -0.2038  0.2210  0.4545
 5653ntf    sn228082   6.479   3.022  -0.013  0.2086  0.0281  0.1384
 5653ntf    nn328083   6.351   3.076  -0.087 -0.1183 -0.3682  0.4093
 5653ntf    sn228084   6.226   3.156  -0.038  0.0156  0.1405 -0.0791
 5653ntf    cn128085   6.181   3.257  -0.183  0.0358  0.0417 -0.1543
 5653ntf    fn428086   6.547   3.264  -0.068  0.1362 -0.3005 -0.1984
 5653ntf    fn428087   6.539   3.221   0.139 -0.4842 -0.2334  0.5619
 5653ntf    fn428088   6.706   3.155   0.031 -0.2093 -0.3103 -0.3531
 5653ntf    on528089   6.557   2.943  -0.105 -0.1017  0.1203 -0.2067
 5653ntf    on528090   6.458   2.972   0.121  0.1069 -0.0653  0.0880
 5653ntf    on528091   6.251   3.256   0.063  0.0537  0.2085 -0.1554
 5653ntf    on528092   6.110   3.073  -0.021  0.3352 -0.2544  0.1829
 5653ntf    fn428093   6.067   3.324  -0.176  0.0031 -0.0172 -0.1203
 5653ntf    fn428094   6.278   3.344  -0.207  0.4937 -0.3542  0.2226
 5653ntf    fn428095   6.166   3.188  -0.294 -0.7804  0.3079 -0.2156
 5654ntf    cn128096   0.448   6.698   6.555  0.1968  0.2553  0.0790
 5654ntf    sn228097   0.377   6.672   6.390  0.1205 -0.2792  0.1946
 5654ntf    nn328098   0.265   6.782   6.399  0.6905  0.3004  0.2226
 5654ntf    sn228099   0.222   6.901   6.306 -0.1733 -0.1917 -0.0122
 5654ntf    cn128100   0.054   6.842   6.268 -0.2714 -0.0658  0.2196
 5654ntf    fn428101   0.547   6.615   6.583 -0.0789 -0.2016 -0.2818
 5654ntf    fn428102   0.499   6.820   6.563  0.4393  0.1706 -0.1866
 5654ntf    fn428103   0.357   6.679   6.650 -0.0006 -0.0783 -0.1740
 5654ntf    on528104   0.485   6.712   6.303 -0.2902  0.0727 -0.1601
 5654ntf    on528105   0.338   6.534   6.397 -0.4522 -0.1386 -0.1455
 5654ntf    on528106   0.279   6.907   6.174  0.2835  0.0280  0.1933
 5654ntf    on528107   0.215   7.021   6.386  0.5801 -0.6511  0.7530
 5654ntf    fn428108   0.011   6.783   6.378 -0.2626  0.1133  0.3194
 5654ntf    fn428109  -0.039   6.931   6.239 -0.2015 -0.1767 -0.3722
 5654ntf    fn428110   0.053   6.745   6.177  0.5574 -0.2218  0.3694
 5655ntf    cn128111   5.803   4.078   2.229  0.3572  0.3801  0.2195
 5655ntf    sn228112   5.973   4.088   2.166  0.2741  0.2934 -0.0224
 5655ntf    nn328113   6.008   4.241   2.169 -0.2568  0.4080  0.6258
 5655ntf    sn228114   6.145   4.310   2.133  0.0427 -0.3770  0.2314
 5655ntf    cn128115   6.199   4.383   2.291 -0.1053  0.1677  0.0335
 5655ntf    fn428116   5.783   4.117   2.354  0.0115 -0.1777  0.3446
 5655ntf    fn428117   5.716   4.139   2.150 -0.0359  0.1360  0.4623
 5655ntf    fn428118   5.763   3.952   2.230  1.0441  0.1393 -0.9321
 5655ntf    on528119   6.048   4.008   2.261 -0.0679  0.2318  0.1974
 5655ntf    on528120   5.962   4.031   2.034  0.1658  0.0063  0.1097
 5655ntf    on528121   6.103   4.430   2.065 -0.3766 -0.7805 -0.2390
 5655ntf    on528122   6.258   4.238   2.080 -0.0548 -0.4709  0.1517
 5655ntf    fn428123   6.135   4.495   2.319 -0.3545 -0.0974  0.5200
 5655ntf    fn428124   6.167   4.313   2.398  0.0030 -0.0977 -0.1048
 5655ntf    fn428125   6.329   4.408   2.295 -0.0224 -0.1521 -0.4603
 5656ntf    cn128126   3.142   3.314   1.818  0.1615 -0.3979  0.0859
 5656ntf    sn228127   3.274   3.306   1.693  0.0474  0.1686 -0.0724
 5656ntf    nn328128   3.193   3.293   1.559  1.0251 -0.3573 -0.6231
 5656ntf    sn228129   3.151   3.403   1.456 -0.0296 -0.2803 -0.1262
 5656ntf    cn128130   3.078   3.297   1.328 -0.5906  0.2801 -0.2795
 5656ntf    fn428131   3.039   3.386   1.777  0.3642  0.1213  0.4709
 5656ntf    fn428132   3.090   3.194   1.838 -0.4013 -0.3004 -0.7593
 5656ntf    fn428133   3.186   3.352   1.937 -0.1964 -0.2162  0.1604
 5656ntf    on528134   3.347   3.429   1.706  0.5190 -0.1535  0.4184
 5656ntf    on528135   3.351   3.189   1.729 -0.1604 -0.0061 -0.1919
 5656ntf    on528136   3.251   3.477   1.383 -0.2536 -0.6311 -0.7954
 5656ntf    on528137   3.036   3.476   1.503  0.6422  0.5374  0.2824
 5656ntf    fn428138   3.174   3.237   1.260 -0.5156 -0.2624  0.2911
 5656ntf    fn428139   3.015   3.188   1.369  0.0111 -0.1541 -0.4917
 5656ntf    fn428140   3.000   3.361   1.243  0.5505  0.8472 -0.9157
 5657ntf    cn128141   1.114   4.367   0.036  0.1679 -0.4141 -0.3044
 5657ntf    sn228142   1.253   4.284   0.120  0.0564 -0.0918  0.2006
 5657ntf    nn328143   1.301   4.400   0.215 -0.5991  0.6178 -0.3171
 5657ntf    sn228144   1.279   4.408   0.370  0.0137  0.1890 -0.2058
 5657ntf    cn128145   1.420   4.513   0.417 -0.0249  0.0073  0.3317
 5657ntf    fn428146   1.040   4.283  -0.034 -0.1823 -0.0150 -0.4168
 5657ntf    fn428147   1.025   4.429   0.111 -0.0781  0.4227 -1.2676
 5657ntf    fn428148   1.156   4.455  -0.054  0.0517 -0.1832 -0.1330
 5657ntf    on528149   1.198   4.169   0.186  0.1560 -0.4414 -0.3215
 5657ntf    on528150   1.356   4.264   0.022  0.0089 -0.1963  0.1722
 5657ntf    on528151   1.307   4.284   0.439  1.1370  0.4615 -0.1513
 5657ntf    on528152   1.168   4.487   0.416 -0.4489 -0.6699  0.1904
 5657ntf    fn428153   1.536   4.455   0.393 -0.2150 -0.0768 -0.4357
 5657ntf    fn428154   1.427   4.624   0.344  0.3612 -0.0576  0.2728
 5657ntf    fn428155   1.410   4.553   0.543 -0.5180  0.8080  0.0522
 5658ntf    cn128156   3.524   5.448   0.262 -0.2149 -0.6557  0.4108
 5658ntf    sn228157   3.444   5.404   0.105  0.1776  0.2434 -0.0526
 5658ntf    nn328158   3.292   5.411   0.144 -0.0253  0.4460 -0.8625
 5658ntf    sn228159   3.164   5.385   0.057 -0.4152  0.1603 -0.2143
 5658ntf    cn128160   3.136   5.216   0.116 -0.1458  0.2679  0.2249
 5658ntf    fn428161   3.643   5.503   0.243 -0.4393 -0.3400 -0.1211
 5658ntf    fn428162   3.459   5.549   0.317  0.4053  0.2500 -0.4727
 5658ntf    fn428163   3.537   5.348   0.347 -0.3282 -0.5547  0.5474
 5658ntf    on528164   3.482   5.507   0.011  0.2409  0.2326 -0.0385
 5658ntf    on528165   3.487   5.267   0.098 -0.1498  0.1267  0.2062
 5658ntf    on528166   3.196   5.365  -0.082  0.0735 -0.1335 -0.0598
 5658ntf    on528167   3.045   5.458   0.094 -0.7605 -0.2042 -0.6025
 5658ntf    fn428168   3.031   5.144   0.078 -0.0851  0.2706  0.0541
 5658ntf    fn428169   3.245   5.141   0.106 -0.5019 -0.2531  0.2056
 5658ntf    fn428170   3.109   5.226   0.245 -0.3983 -0.0253  0.1978
 5659ntf    cn128171   5.874   6.011   0.201  0.0282 -0.0485  0.2079
 5659ntf    sn228172   5.831   6.049   0.374  0.0845  0.0606  0.1981
 5659ntf    nn328173   5.686   6.106   0.354  0.1377  0.2427  0.3246
 5659ntf    sn228174   5.549   6.046   0.400  0.1088  0.2399  0.2373
 5659ntf    cn128175   5.471   6.029   0.237  0.0232 -0.3542  0.3386
 5659ntf    fn428176   5.844   6.109   0.117 -0.4489 -0.0730  0.3480
 5659ntf    fn428177   6.002   5.984   0.184 -0.0418 -0.3114  0.0954
 5659ntf    fn428178   5.811   5.906   0.152 -0.0720  0.2302 -0.2681
 5659ntf    on528179   5.836   5.925   0.448  0.0722 -0.3135 -0.4197
 5659ntf    on528180   5.926   6.151   0.409 -0.1139  0.0944  0.6389
 5659ntf    on528181   5.470   6.145   0.470  0.0314  0.3044  0.0589
 5659ntf    on528182   5.545   5.914   0.457 -0.1334  0.1712  0.0604
 5659ntf    fn428183   5.424   6.146   0.197 -0.1432 -0.4897  0.1400
 5659ntf    fn428184   5.551   5.970   0.149 -0.0562 -0.1847  0.1510
 5659ntf    fn428185   5.366   5.950   0.243 -0.6520  0.4817 -0.2162
 5660ntf    cn128186   0.603   6.026   4.035 -0.1107 -0.0653 -0.0418
 5660ntf    sn228187   0.773   6.043   3.971 -0.0923  0.0594  0.0397
 5660ntf    nn328188   0.850   6.052   4.108 -0.0422 -0.6259  0.0619
 5660ntf    sn228189   0.993   6.108   4.141 -0.2378  0.1584 -0.3734
 5660ntf    cn128190   1.076   5.948   4.166  0.0908  0.3990  0.0845
 5660ntf    fn428191   0.526   6.016   3.927 -0.2403 -0.2564  0.0680
 5660ntf    fn428192   0.588   5.916   4.106 -0.2927  0.1151  0.1991
 5660ntf    fn428193   0.566   6.128   4.110 -0.5386 -0.2445 -0.0052
 5660ntf    on528194   0.801   5.917   3.906 -0.5575  0.0831 -0.2142
 5660ntf    on528195   0.764   6.161   3.888 -0.2527 -0.0042 -0.0341
 5660ntf    on528196   0.994   6.175   4.269 -0.0010 -0.6669  0.0658
 5660ntf    on528197   1.059   6.168   4.028  0.3290 -0.0054 -0.1343
 5660ntf    fn428198   1.007   5.841   4.130 -0.0822  0.6911 -0.4610
 5660ntf    fn428199   1.191   5.938   4.101  0.1710 -0.0788  0.2983
 5660ntf    fn428200   1.096   5.920   4.294  0.0728 -0.0124 -0.0021
 5661ntf    cn128201   1.166   1.889   7.076  0.2168  0.3563  0.2011
 5661ntf    sn228202   1.308   1.992   7.028  0.3502  0.1184  0.0832
 5661ntf    nn328203   1.282   2.111   7.127  0.6530  0.4420 -0.2176
 5661ntf    sn228204   1.207   2.244   7.092 -0.3763  0.0134  0.3000
 5661ntf    cn128205   1.252   2.351   7.232  0.2750  0.2108 -0.0565
 5661ntf    fn428206   1.170   1.762   7.040  0.4053  0.5626 -0.5269
 5661ntf    fn428207   1.165   1.883   7.208 -0.7247 -0.0313  0.1833
 5661ntf    fn428208   1.047   1.935   7.042  0.2170  0.4769  0.3597
 5661ntf    on528209   1.422   1.915   7.071  0.4808  0.1758 -0.1585
 5661ntf    on528210   1.284   2.015   6.887 -0.1191 -0.0870  0.1302
 5661ntf    on528211   1.063   2.235   7.104 -0.3679  0.3713  0.7158
 5661ntf    on528212   1.269   2.319   6.986 -0.2590  0.0100  0.3658
 5661ntf    fn428213   1.267   2.476   7.191 -0.3121  0.1275 -0.5309
 5661ntf    fn428214   1.170   2.339   7.336  0.1756 -0.2084 -0.1796
 5661ntf    fn428215   1.372   2.319   7.278 -0.1461  0.2460  1.1137
 5662ntf    cn128216   5.378   2.472   5.090 -0.3292 -0.0370 -0.3850
 5662ntf    sn228217   5.382   2.400   5.257  0.0922  0.0306 -0.3665
 5662ntf    nn328218   5.536   2.420   5.281  0.1211 -0.1210 -0.4190
 5662ntf    sn228219   5.654   2.318   5.263  0.1150 -0.1552 -0.2638
 5662ntf    cn128220   5.735   2.305   5.426 -0.1861 -0.1001 -0.1093
 5662ntf    fn428221   5.468   2.412   5.014 -0.2033  0.0666 -0.3192
 5662ntf    fn428222   5.263   2.459   5.027 -0.5954 -0.0294  0.0905
 5662ntf    fn428223   5.398   2.603   5.089  0.1239 -0.0978  0.1507
 5662ntf    on528224   5.302   2.483   5.343  0.5583  0.3531 -0.2366
 5662ntf    on528225   5.338   2.263   5.242 -0.3966  0.1386  0.0473
 5662ntf    on528226   5.751   2.381   5.177  0.2456 -0.3963 -0.2952
 5662ntf    on528227   5.619   2.179   5.249  0.3544 -0.2959  0.4862
 5662ntf    fn428228   5.811   2.197   5.439 -0.5154 -0.3599 -0.3284
 5662ntf    fn428229   5.817   2.406   5.447 -0.1790 -0.1760  0.2198
 5662ntf    fn428230   5.647   2.312   5.524 -0.1965  0.3162 -0.1443
 5663ntf    cn128231   4.597   5.814   7.625 -0.1603  0.3026 -0.2589
 5663ntf    sn228232   4.699   5.951   7.562  0.1006  0.2041 -0.0500
 5663ntf    nn328233   4.818   5.877   7.492 -0.1145 -0.4208  0.2337
 5663ntf    sn228234   4.838   5.847   7.339 -0.4197 -0.0912  0.1303
 5663ntf    cn128235   5.001   5.921   7.306 -0.4116 -0.0358  0.2962
 5663ntf    fn428236   4.515   5.854   7.720  0.4073  0.3578  0.2111
 5663ntf    fn428237   4.528   5.767   7.522 -0.3751 -0.1962  0.1063
 5663ntf    fn428238   4.673   5.712   7.662 -0.1590  0.2762 -0.3334
 5663ntf    on528239   4.610   6.031   7.483  0.0537 -0.3874 -0.6046
 5663ntf    on528240   4.748   6.005   7.687  0.0233 -0.3171  0.2091
 5663ntf    on528241   4.756   5.933   7.257  0.0399  0.7153  0.5043
 5663ntf    on528242   4.846   5.706   7.313 -0.2582 -0.0982  0.2150
 5663ntf    fn428243   5.003   6.053   7.321  0.2430  0.0465 -0.4555
 5663ntf    fn428244   5.094   5.863   7.379 -0.4400 -0.3359  0.0923
 5663ntf    fn428245   5.033   5.911   7.178  0.2657 -0.1637  0.4764
 5664ntf    cn128246   7.062   5.175   0.703  0.1677  0.2282 -0.1465
 5664ntf    sn228247   7.019   5.012   0.636 -0.3077  0.1988  0.2291
 5664ntf    nn328248   6.888   4.967   0.709  0.1360  0.0588  0.9432
 5664ntf    sn228249   6.771   5.060   0.757  0.1758  0.3210  0.5330
 5664ntf    cn128250   6.632   4.975   0.676  0.3970  0.2746  0.2013
 5664ntf    fn428251   7.182   5.213   0.661  0.5529 -0.6583  0.1310
 5664ntf    fn428252   6.982   5.274   0.666 -0.2744 -0.1004 -0.0757
 5664ntf    fn428253   7.064   5.179   0.835  0.2192 -0.0917 -0.1390
 5664ntf    on528254   6.984   5.046   0.500  0.0969 -0.5389 -0.0650
 5664ntf    on528255   7.139   4.935   0.654 -0.1033  0.4931  0.1457
 5664ntf    on528256   6.759   5.193   0.703 -1.0989  0.0142  0.0270
 5664ntf    on528257   6.747   5.046   0.899 -0.2696 -0.2050  0.4089
 5664ntf    fn428258   6.616   5.003   0.548  0.2887 -0.4818  0.0456
 5664ntf    fn428259   6.652   4.844   0.685  0.3759  0.2923  0.5256
 5664ntf    fn428260   6.512   4.997   0.726  0.0856 -0.4147 -0.2256
 5665ntf    cn128261   3.425   2.908   6.554 -0.7803  0.3957 -0.3409
 5665ntf    sn228262   3.325   2.950   6.699 -0.2744  0.0770  0.1044
 5665ntf    nn328263   3.367   3.099   6.721 -0.2439  0.0344  0.3373
 5665ntf    sn228264   3.301   3.240   6.699  0.2678  0.1768 -0.3233
 5665ntf    cn128265   3.355   3.268   6.528  0.1601  0.3048 -0.3364
 5665ntf    fn428266   3.552   2.938   6.579 -0.9146  0.2053  0.5856
 5665ntf    fn428267   3.409   2.778   6.537  0.0211  0.2285  0.0925
 5665ntf    fn428268   3.395   2.974   6.443 -0.5610  0.4095 -0.3932
 5665ntf    on528269   3.188   2.926   6.658 -0.2441 -0.3854  0.2649
 5665ntf    on528270   3.371   2.863   6.805 -0.1993 -0.5038 -0.3942
 5665ntf    on528271   3.371   3.334   6.782  0.5149 -0.4578  0.1977
 5665ntf    on528272   3.157   3.242   6.698  0.2661  0.1745 -0.1478
 5665ntf    fn428273   3.294   3.189   6.440  0.2113  0.0603 -0.1521
 5665ntf    fn428274   3.326   3.394   6.500  0.2488  0.2756 -0.5669
 5665ntf    fn428275   3.486   3.259   6.518  0.2227  0.3439  0.4487
 5666ntf    cn128276   1.497   7.602   2.771 -0.0665 -0.2022 -0.1278
 5666ntf    sn228277   1.630   7.477   2.773 -0.0462 -0.1878 -0.4688
 5666ntf    nn328278   1.754   7.570   2.798 -0.9300  0.8278  0.2574
 5666ntf    sn228279   1.810   7.613   2.938  0.0470  0.3026  0.0387
 5666ntf    cn128280   1.896   7.756   2.867 -0.0988  0.2112 -0.3266
 5666ntf    fn428281   1.384   7.545   2.731 -0.0691 -0.0468 -0.3463
 5666ntf    fn428282   1.471   7.660   2.886 -0.2560 -0.4294 -0.0567
 5666ntf    fn428283   1.525   7.700   2.687  1.0045  0.2779  0.7592
 5666ntf    on528284   1.601   7.392   2.885  0.1541 -0.0861 -0.3394
 5666ntf    on528285   1.626   7.415   2.643  0.5560 -0.2275 -0.4714
 5666ntf    on528286   1.921   7.534   2.985 -0.0946  0.0751 -0.0066
 5666ntf    on528287   1.723   7.675   3.035 -0.5790 -0.9769  0.3154
 5666ntf    fn428288   1.963   7.835   2.950 -0.4806  0.2282 -0.0333
 5666ntf    fn428289   1.985   7.715   2.779  0.0805  0.2944 -0.1846
 5666ntf    fn428290   1.805   7.834   2.810 -0.2034  0.7478  0.5529
 5667ntf    cn128291   2.249   6.602   2.153  0.4229  0.2287  0.4986
 5667ntf    sn228292   2.198   6.596   2.327 -0.1046 -0.4089  0.3246
 5667ntf    nn328293   2.125   6.457   2.329 -0.5459 -0.1779  0.4327
 5667ntf    sn228294   2.101   6.351   2.443  0.0651 -0.7154  0.0698
 5667ntf    cn128295   2.246   6.244   2.421  0.4224 -0.2592  0.1848
 5667ntf    fn428296   2.144   6.593   2.072  0.6187  0.1887  0.2498
 5667ntf    fn428297   2.310   6.715   2.120 -0.1141  0.4548  0.2456
 5667ntf    fn428298   2.335   6.507   2.121  0.2813  0.1744  0.2791
 5667ntf    on528299   2.324   6.601   2.397 -0.2232 -0.3762  0.5365
 5667ntf    on528300   2.116   6.714   2.338  0.4819  0.0419 -0.0962
 5667ntf    on528301   1.989   6.269   2.405 -0.2115 -0.1182 -0.4311
 5667ntf    on528302   2.107   6.399   2.579  0.2589  0.4354 -0.3280
 5667ntf    fn428303   2.364   6.301   2.441  0.3245 -0.1418  0.4232
 5667ntf    fn428304   2.248   6.139   2.501 -0.1870 -0.4231 -0.0084
 5667ntf    fn428305   2.251   6.200   2.297  0.2771 -0.0348  0.0982
 5668ntf    cn128306   1.974   2.316   3.885  0.1858  0.2006 -0.4182
 5668ntf    sn228307   1.804   2.359   3.934  0.0442 -0.4572 -0.3270
 5668ntf    nn328308   1.785   2.242   4.037  0.1208 -0.0155  0.1908
 5668ntf    sn228309   1.697   2.114   4.014 -0.0132  0.0782  0.1784
 5668ntf    cn128310   1.789   1.993   4.115  0.1924 -0.2691 -0.4215
 5668ntf    fn428311   2.064   2.338   3.979 -0.1458 -0.1409 -0.0169
 5668ntf    fn428312   1.990   2.188   3.857 -0.6065  0.0602 -0.2744
 5668ntf    fn428313   2.010   2.377   3.773  0.5454  0.8669  0.0592
 5668ntf    on528314   1.829   2.482   4.005  0.5197 -0.4224 -0.5514
 5668ntf    on528315   1.724   2.374   3.815  0.7201  0.3817 -0.6909
 5668ntf    on528316   1.699   2.072   3.876  0.0766  0.1255  0.1646
 5668ntf    on528317   1.571   2.123   4.083 -0.1394  0.6307 -0.1213
 5668ntf    fn428318   1.911   1.977   4.066  0.3882 -0.2771  0.0691
 5668ntf    fn428319   1.804   2.020   4.243  0.4190  0.1901 -0.5426
 5668ntf    fn428320   1.742   1.869   4.110 -0.0872 -0.1958  0.2757
 5669ntf    cn128321   2.349   0.569   4.584  0.2331 -0.4513  0.0366
 5669ntf    sn228322   2.179   0.519   4.544  0.1655  0.0422 -0.2936
 5669ntf    nn328323   2.137   0.643   4.458 -0.1251  0.0802 -0.0999
 5669ntf    sn228324   1.995   0.711   4.457  0.0787  0.5192  0.4323
 5669ntf    cn128325   2.002   0.823   4.601  0.2743  0.6810  0.2980
 5669ntf    fn428326   2.435   0.532   4.491 -0.0510 -0.4300 -0.2374
 5669ntf    fn428327   2.362   0.700   4.597 -0.1028 -0.3408 -0.7153
 5669ntf    fn428328   2.383   0.520   4.703  0.9813 -0.5499 -0.2127
 5669ntf    on528329   2.189   0.401   4.462 -0.0624  0.0795 -0.3766
 5669ntf    on528330   2.115   0.505   4.673 -0.5248  0.1096 -0.6243
 5669ntf    on528331   1.892   0.617   4.494  0.6562 -0.3624 -0.1703
 5669ntf    on528332   1.981   0.794   4.340  0.3544  0.1020  0.1018
 5669ntf    fn428333   2.127   0.831   4.642  0.3799 -0.3973  0.2169
 5669ntf    fn428334   1.965   0.946   4.570 -0.5613  0.2417 -0.5077
 5669ntf    fn428335   1.937   0.769   4.703  0.4772 -0.1805 -0.0125
 5670ntf    cn128336   6.713   3.195   1.003 -0.0783 -0.0395 -0.2717
 5670ntf    sn228337   6.626   3.057   1.083  0.3461 -0.1436  0.0147
 5670ntf    nn328338   6.664   2.941   0.985 -0.3500 -0.0253 -0.4043
 5670ntf    sn228339   6.730   2.799   0.997 -0.0439  0.1224 -0.3276
 5670ntf    cn128340   6.880   2.817   0.895  0.1450 -0.3217 -0.1305
 5670ntf    fn428341   6.658   3.311   1.032 -0.0918 -0.1592  0.1824
 5670ntf    fn428342   6.841   3.202   1.037 -0.1963  0.4365  0.0758
 5670ntf    fn428343   6.724   3.192   0.871  0.1531 -0.1336 -0.2503
 5670ntf    on528344   6.676   3.034   1.216  0.8435 -0.1013 -0.1606
 5670ntf    on528345   6.492   3.105   1.064  0.1817 -0.4169  0.4678
 5670ntf    on528346   6.655   2.696   0.929 -0.1092 -0.3294  0.4198
 5670ntf    on528347   6.788   2.769   1.125  0.3718  0.6205 -0.3961
 5670ntf    fn428348   6.966   2.717   0.909  0.5865  0.0924  0.1613
 5670ntf    fn428349   6.848   2.832   0.768 -0.2001 -0.5636 -0.0737
 5670ntf    fn428350   6.949   2.924   0.932 -0.6440  0.2029 -0.1492
 5671ntf    cn128351   5.598   1.095   3.062  0.0199  0.6764 -0.1263
 5671ntf    sn228352   5.425   1.042   3.074  0.2609 -0.1072 -0.0680
 5671ntf    nn328353   5.419   0.970   3.213 -0.4058 -0.2369 -0.1603
 5671ntf    sn228354   5.475   0.827   3.243 -0.2157 -0.0755  0.2681
 5671ntf    cn128355   5.536   0.845   3.413 -0.4505  0.1610  0.3275
 5671ntf    fn428356   5.617   1.205   2.991 -0.5627  0.7884 -0.1173
 5671ntf    fn428357   5.649   1.122   3.181  0.8681 -0.5521 -0.1984
 5671ntf    fn428358   5.680   1.008   3.006 -0.0990 -0.1642  0.9818
 5671ntf    on528359   5.342   1.160   3.071  0.1448 -0.1821  0.2228
 5671ntf    on528360   5.402   0.953   2.963  0.1706  0.0349 -0.1639
 5671ntf    on528361   5.594   0.782   3.175 -0.0695  0.1658  0.3635
 5671ntf    on528362   5.362   0.739   3.256 -0.1872 -0.3094 -0.9403
 5671ntf    fn428363   5.432   0.850   3.493 -0.7868  0.8429 -0.1464
 5671ntf    fn428364   5.612   0.746   3.456  0.2400  0.6130  0.1785
 5671ntf    fn428365   5.600   0.961   3.420  0.4765 -0.3205 -0.0058
 5672ntf    cn128366   2.285   0.026   6.006  0.0812  0.0638  0.2982
 5672ntf    sn228367   2.368  -0.130   5.965  0.1143  0.1117  0.1794
 5672ntf    nn328368   2.272  -0.184   5.853  0.0301 -0.1703  0.3845
 5672ntf    sn228369   2.253  -0.330   5.798 -0.1604  0.1350 -0.3839
 5672ntf    cn128370   2.100  -0.351   5.894  0.0109 -0.2584 -0.1923
 5672ntf    fn428371   2.270   0.108   5.903 -0.0369 -0.5847 -0.2077
 5672ntf    fn428372   2.166   0.022   6.062  0.0058  0.1399  0.1445
 5672ntf    fn428373   2.361   0.087   6.096 -0.3092  0.8533  0.1060
 5672ntf    on528374   2.488  -0.082   5.901  0.0132  0.3085  0.1372
 5672ntf    on528375   2.371  -0.196   6.093 -0.1735 -0.2162  0.0187
 5672ntf    on528376   2.343  -0.429   5.853  0.3871  0.5173 -0.5752
 5672ntf    on528377   2.213  -0.337   5.660  0.5978  0.2714 -0.6152
 5672ntf    fn428378   2.114  -0.357   6.025  0.0954  0.2294 -0.1766
 5672ntf    fn428379   2.010  -0.258   5.866  0.0739 -0.2247 -0.2837
 5672ntf    fn428380   2.048  -0.464   5.852 -0.2231 -0.0792 -0.3881
 5673ntf    cn128381   7.376   3.807   5.500 -0.3029 -0.2335 -0.4191
 5673ntf    sn228382   7.422   3.942   5.388  0.0398 -0.2886 -0.3446
 5673ntf    nn328383   7.340   4.053   5.463  0.2791 -0.0746 -0.3989
 5673ntf    sn228384   7.309   4.201   5.420 -0.0001 -0.0151  0.0067
 5673ntf    cn128385   7.430   4.284   5.527  0.0054  0.0799 -0.0728
 5673ntf    fn428386   7.245   3.801   5.520 -0.2792 -0.3618 -0.3018
 5673ntf    fn428387   7.415   3.687   5.461 -0.4313 -0.2415 -0.5273
 5673ntf    fn428388   7.420   3.831   5.622 -0.8425  0.0152 -0.2701
 5673ntf    on528389   7.565   3.954   5.401  0.0037 -0.0483 -0.1767
 5673ntf    on528390   7.368   3.914   5.257  0.0083  0.3782 -0.4762
 5673ntf    on528391   7.178   4.241   5.464 -0.1996 -0.2818 -0.3380
 5673ntf    on528392   7.337   4.225   5.281  0.4910 -0.3909  0.0393
 5673ntf    fn428393   7.451   4.409   5.490 -0.1969  0.2302  0.3117
 5673ntf    fn428394   7.395   4.288   5.655  0.2728  0.3457 -0.0071
 5673ntf    fn428395   7.550   4.228   5.521  0.0300  0.0743  0.4299
 5674ntf    cn128396   5.332   0.324   1.531 -0.2381  0.2044 -0.3181
 5674ntf    sn228397   5.310   0.168   1.441  0.1794  0.3496 -0.6723
 5674ntf    nn328398   5.192   0.102   1.521  0.5693 -0.0367 -0.4100
 5674ntf    sn228399   5.121  -0.036   1.495 -0.0014  0.2286 -0.2835
 5674ntf    cn128400   4.996   0.005   1.370 -0.2706  0.4391  0.0531
 5674ntf    fn428401   5.389   0.305   1.649  0.0399 -0.0026 -0.4870
 5674ntf    fn428402   5.411   0.402   1.459  0.6766 -0.1783  0.2560
 5674ntf    fn428403   5.221   0.390   1.560 -0.0780  0.1798  0.3711
 5674ntf    on528404   5.279   0.207   1.306 -0.0710 -0.2635 -0.7944
 5674ntf    on528405   5.444   0.117   1.458  0.1775  0.5142 -0.1435
 5674ntf    on528406   5.052  -0.087   1.610  0.0645  0.2973 -0.2133
 5674ntf    on528407   5.210  -0.121   1.420 -0.1125 -0.0737 -0.0735
 5674ntf    fn428408   4.914   0.103   1.404 -0.4935  0.3516 -0.2298
 5674ntf    fn428409   5.055   0.031   1.255  0.3404 -0.1028  0.2355
 5674ntf    fn428410   4.916  -0.097   1.341  0.0867  0.0730  0.3309
 5675ntf    cn128411   2.479   0.514   2.412  0.1068  0.4268 -0.5647
 5675ntf    sn228412   2.618   0.557   2.521 -0.2052  0.0495 -0.0193
 5675ntf    nn328413   2.554   0.492   2.649 -0.0629 -0.5216 -0.2352
 5675ntf    sn228414   2.549   0.534   2.800 -0.2743 -0.4617 -0.2594
 5675ntf    cn128415   2.650   0.403   2.875  0.0453 -0.0941 -0.0418
 5675ntf    fn428416   2.475   0.610   2.321  0.0516  0.6797 -0.2965
 5675ntf    fn428417   2.494   0.403   2.341  0.4225  0.2147 -0.1694
 5675ntf    fn428418   2.359   0.511   2.465  0.1511 -0.3524 -0.5046
 5675ntf    on528419   2.728   0.479   2.469  0.0949  0.1521  0.4564
 5675ntf    on528420   2.623   0.701   2.516 -0.3542  0.0244 -0.9471
 5675ntf    on528421   2.416   0.530   2.858 -0.4746  0.5389 -0.6271
 5675ntf    on528422   2.639   0.645   2.823  0.9303 -1.4004 -0.3859
 5675ntf    fn428423   2.635   0.290   2.808 -0.3710  0.0929 -0.2701
 5675ntf    fn428424   2.780   0.426   2.874  0.0372 -0.0541 -0.1367
 5675ntf    fn428425   2.624   0.382   3.003  0.9529 -0.7370  0.0468
 5676ntf    cn128426   1.659   4.500   5.867 -0.0326  0.0947 -0.0771
 5676ntf    sn228427   1.788   4.628   5.874  0.3012 -0.2363 -0.1678
 5676ntf    nn328428   1.724   4.734   5.777 -0.5058 -0.4004  0.1777
 5676ntf    sn228429   1.797   4.836   5.683 -0.3032 -0.3125  0.4296
 5676ntf    cn128430   1.737   4.794   5.517 -0.1969  0.3421  0.2229
 5676ntf    fn428431   1.670   4.427   5.757  0.2670 -0.2402  0.1746
 5676ntf    fn428432   1.664   4.412   5.965  0.4116  0.2614  0.0514
 5676ntf    fn428433   1.542   4.560   5.847 -0.2769 -0.3912 -0.1132
 5676ntf    on528434   1.781   4.666   6.013 -0.0515  0.4192 -0.3612
 5676ntf    on528435   1.898   4.555   5.816  0.6049  0.2606 -0.2243
 5676ntf    on528436   1.939   4.814   5.687 -0.2092  0.1051 -0.4504
 5676ntf    on528437   1.752   4.973   5.690  0.2494 -0.1079  0.0242
 5676ntf    fn428438   1.615   4.843   5.499 -0.4615 -0.4592 -0.2494
 5676ntf    fn428439   1.813   4.846   5.423 -0.1475  0.0045  0.0723
 5676ntf    fn428440   1.724   4.663   5.498 -0.0691  0.3140  0.3317
 5677ntf    cn128441   0.695   4.003   1.651  0.0894  0.1436 -0.1386
 5677ntf    sn228442   0.615   4.162   1.686 -0.1638 -0.1320  0.5428
 5677ntf    nn328443   0.493   4.111   1.771 -0.5966 -0.2538 -0.1483
 5677ntf    sn228444   0.381   4.184   1.853 -0.3097  0.0947 -0.0643
 5677ntf    cn128445   0.252   4.182   1.724 -0.0059  0.2651 -0.3726
 5677ntf    fn428446   0.612   3.900   1.637 -0.3664  0.5594 -0.5614
 5677ntf    fn428447   0.745   4.006   1.528 -0.1333 -0.0311 -0.2354
 5677ntf    fn428448   0.792   3.978   1.737 -0.7437  0.0794  0.8042
 5677ntf    on528449   0.720   4.224   1.764 -0.0730 -0.1079  0.4011
 5677ntf    on528450   0.578   4.226   1.562  0.0752  0.0941  0.5873
 5677ntf    on528451   0.401   4.325   1.874  0.5349 -0.0098 -0.1409
 5677ntf    on528452   0.327   4.105   1.961 -0.3733  1.0199  0.5860
 5677ntf    fn428453   0.143   4.249   1.756 -0.3894 -0.2274 -0.6402
 5677ntf    fn428454   0.294   4.234   1.610 -0.2876  0.2071 -0.5012
 5677ntf    fn428455   0.228   4.054   1.702  0.4969 -0.0976  1.0400
 5678ntf    cn128456   7.388   5.959   2.710 -0.1505 -0.2095 -0.2397
 5678ntf    sn228457   7.273   6.057   2.811  0.1849 -0.1155  0.0512
 5678ntf    nn328458   7.372   6.135   2.906  0.2849 -0.2186  0.0307
 5678ntf    sn228459   7.374   6.136   3.063 -0.3960 -0.2727  0.0422
 5678ntf    cn128460   7.518   6.243   3.093 -0.4058 -0.1141 -0.4636
 5678ntf    fn428461   7.312   5.872   2.645 -0.3667 -0.0626 -0.1840
 5678ntf    fn428462   7.467   6.016   2.621 -0.0683  0.0964  0.0288
 5678ntf    fn428463   7.469   5.887   2.786  0.1234  0.4397  0.0865
 5678ntf    on528464   7.197   6.129   2.712  0.0625 -0.7952 -0.3545
 5678ntf    on528465   7.197   5.956   2.881 -0.3364  0.2702  0.0494
 5678ntf    on528466   7.411   6.007   3.116 -0.0522 -0.0909  0.2427
 5678ntf    on528467   7.270   6.207   3.134 -0.0307 -0.1648  0.4695
 5678ntf    fn428468   7.489   6.360   3.038  0.1422  0.3165  0.1558
 5678ntf    fn428469   7.545   6.256   3.222  0.2889 -0.4664 -0.5682
 5678ntf    fn428470   7.630   6.207   3.032 -0.0746  0.2295 -0.0590
 5679ntf    cn128471   0.521   2.803   4.397  0.0310  0.3146 -0.4433
 5679ntf    sn228472   0.637   2.731   4.277  0.0684 -0.3181 -0.0283
 5679ntf    nn328473   0.613   2.578   4.305  0.2183 -0.2577  0.4362
 5679ntf    sn228474   0.645   2.450   4.221  0.0638  0.2498 -0.4032
 5679ntf    cn128475   0.483   2.370   4.196  0.2206 -0.1245 -0.2363
 5679ntf    fn428476   0.531   2.935   4.385 -0.6961  0.4248  0.1018
 5679ntf    fn428477   0.397   2.763   4.374  0.0893  0.0281 -0.2514
 5679ntf    fn428478   0.552   2.772   4.522 -0.2125 -0.1510 -0.4955
 5679ntf    on528479   0.583   2.783   4.154  0.3044  0.0528  0.0234
 5679ntf    on528480   0.771   2.764   4.317 -0.1290 -0.0403  0.4187
 5679ntf    on528481   0.718   2.348   4.292  0.1583  0.3407 -0.3701
 5679ntf    on528482   0.681   2.484   4.085  0.2582 -0.2359 -0.4773
 5679ntf    fn428483   0.494   2.259   4.126  0.1715 -0.5938  0.4897
 5679ntf    fn428484   0.419   2.329   4.304  0.0796  0.0664 -0.2465
 5679ntf    fn428485   0.395   2.447   4.134 -0.1798 -0.5110 -0.1471
 5680ntf    cn128486   7.431   1.338   6.811  0.4246  0.0817  0.3586
 5680ntf    sn228487   7.443   1.156   6.811 -0.0612  0.0491 -0.0599
 5680ntf    nn328488   7.513   1.147   6.671 -0.1442 -0.3740 -0.0747
 5680ntf    sn228489   7.668   1.128   6.649 -0.0769 -0.0581  0.1234
 5680ntf    cn128490   7.697   1.254   6.520 -0.3583  0.3108  0.4187
 5680ntf    fn428491   7.389   1.389   6.697  0.2241 -0.1422  0.3305
 5680ntf    fn428492   7.344   1.384   6.900  0.2329 -0.2655  0.3521
 5680ntf    fn428493   7.544   1.403   6.832  0.2902  0.6388 -0.6250
 5680ntf    on528494   7.524   1.121   6.924 -0.0020 -0.3865 -0.2366
 5680ntf    on528495   7.308   1.105   6.811 -0.0208 -0.0581  0.3719
 5680ntf    on528496   7.701   1.001   6.590  0.1795  0.2891 -0.4974
 5680ntf    on528497   7.756   1.178   6.751 -0.3064 -0.0061  0.2981
 5680ntf    fn428498   7.822   1.253   6.479 -0.4226  0.1932  0.2245
 5680ntf    fn428499   7.619   1.233   6.415 -0.1798  0.2550  0.2984
 5680ntf    fn428500   7.682   1.377   6.566 -0.2429  0.3812  0.2656
 5681ntf    cn128501   5.254   5.502   6.388 -0.3218  0.1179 -0.1086
 5681ntf    sn228502   5.413   5.590   6.406 -0.3119  0.0774  0.0116
 5681ntf    nn328503   5.357   5.723   6.469  0.1780  0.3590 -0.1406
 5681ntf    sn228504   5.442   5.826   6.550  0.0552  0.5402 -0.2417
 5681ntf    cn128505   5.425   5.760   6.719  0.2020  0.1412 -0.3816
 5681ntf    fn428506   5.276   5.388   6.324 -0.1566 -0.0052  0.1631
 5681ntf    fn428507   5.196   5.469   6.502  0.5415  0.1149  0.3387
 5681ntf    fn428508   5.171   5.573   6.314 -0.0436  0.0089 -0.5262
 5681ntf    on528509   5.487   5.498   6.488 -0.1670 -0.1998 -0.4261
 5681ntf    on528510   5.460   5.606   6.270  0.1639  0.4013  0.2155
 5681ntf    on528511   5.365   5.947   6.555  0.1359  0.5820  0.0615
 5681ntf    on528512   5.585   5.827   6.528  0.0864  0.3429 -0.0539
 5681ntf    fn428513   5.302   5.766   6.768  0.0828 -0.8316 -0.5416
 5681ntf    fn428514   5.440   5.628   6.718 -0.2281  0.0945 -1.0704
 5681ntf    fn428515   5.515   5.807   6.803 -0.0641 -0.0329  0.0050
 5682ntf    cn128516   1.702   5.495   7.387 -0.1884  0.0277 -0.3304
 5682ntf    sn228517   1.568   5.512   7.265  0.1238 -0.3227 -0.7216
 5682ntf    nn328518   1.646   5.546   7.133  0.3962 -0.2902 -0.5530
 5682ntf    sn228519   1.596   5.540   6.985 -0.2449  0.2184 -0.3599
 5682ntf    cn128520   1.665   5.380   6.934 -0.0479  0.3440 -0.4867
 5682ntf    fn428521   1.665   5.492   7.515  0.0400  0.2015 -0.2586
 5682ntf    fn428522   1.768   5.383   7.365  0.2548  0.2241 -0.0038
 5682ntf    fn428523   1.799   5.585   7.378  0.0319 -0.1279  0.3625
 5682ntf    on528524   1.502   5.384   7.280 -0.5844  0.1043 -0.1294
 5682ntf    on528525   1.490   5.620   7.320 -0.6837 -1.1680 -0.1684
 5682ntf    on528526   1.666   5.639   6.906 -0.1426  0.2247 -0.2606
 5682ntf    on528527   1.456   5.516   6.961 -0.1936 -0.1021 -0.3349
 5682ntf    fn428528   1.787   5.367   6.984 -0.0210 -0.2123 -0.6882
 5682ntf    fn428529   1.594   5.281   6.984  0.3942  0.0943 -0.3526
 5682ntf    fn428530   1.684   5.357   6.805 -0.1913  0.2895 -0.4987
 5683ntf    cn128531   7.444   5.785   6.591 -0.2452  0.2269 -0.0927
 5683ntf    sn228532   7.469   5.775   6.411  0.1073  0.3532 -0.0505
 5683ntf    nn328533   7.604   5.855   6.397  0.2976  0.2118  0.8827
 5683ntf    sn228534   7.622   6.007   6.362  0.0534  0.0647  0.1052
 5683ntf    cn128535   7.631   5.998   6.180 -0.1359 -0.3707  0.1154
 5683ntf    fn428536   7.528   5.708   6.658 -0.0783  0.2647 -0.2615
 5683ntf    fn428537   7.465   5.908   6.636  0.0598 -0.0237  0.4605
 5683ntf    fn428538   7.323   5.735   6.614 -0.4311  0.4244 -0.6232
 5683ntf    on528539   7.487   5.634   6.388 -0.5006  0.3186 -0.3115
 5683ntf    on528540   7.349   5.825   6.351 -0.1930  0.3255  0.5174
 5683ntf    on528541   7.754   6.051   6.400 -0.1157  0.3406  0.3790
 5683ntf    on528542   7.513   6.096   6.395  0.2981  0.3934  0.0340
 5683ntf    fn428543   7.744   5.948   6.134  0.1534  0.0784  0.3271
 5683ntf    fn428544   7.531   5.920   6.144 -0.3607  0.0968 -0.2915
 5683ntf    fn428545   7.602   6.117   6.129  0.0924 -0.0155  0.7881
 5684ntf    cn128546   2.812   1.249   3.747  0.1762 -0.0998  0.3118
 5684ntf    sn228547   2.808   1.140   3.893 -0.0471 -0.1047  0.3033
 5684ntf    nn328548   2.934   1.051   3.864  0.0998  0.0428  0.4906
 5684ntf    sn228549   2.949   0.913   3.791 -0.0759  0.2284  0.1030
 5684ntf    cn128550   2.943   0.787   3.921 -0.0752  0.0217 -0.0953
 5684ntf    fn428551   2.822   1.174   3.638 -0.2158  0.7259 -0.3054
 5684ntf    fn428552   2.704   1.322   3.723  0.2643 -0.0677  0.0140
 5684ntf    fn428553   2.921   1.321   3.763 -0.0679  0.2298  0.5043
 5684ntf    on528554   2.817   1.227   4.008 -0.1972 -0.1730  0.3654
 5684ntf    on528555   2.686   1.064   3.891  0.4881 -0.9689  0.0706
 5684ntf    on528556   3.086   0.900   3.748  0.0504  0.3638  0.4635
 5684ntf    on528557   2.852   0.869   3.693 -0.4532  0.5852  0.3101
 5684ntf    fn428558   3.015   0.824   4.026  0.1990 -0.8145  0.0136
 5684ntf    fn428559   2.821   0.756   3.964 -0.0250 -0.2016 -0.1145
 5684ntf    fn428560   2.990   0.676   3.869 -0.5848 -0.3703  0.2681
 5685ntf    cn128561   7.221   3.397   7.125 -0.3172 -0.0417 -0.0256
 5685ntf    sn228562   7.208   3.262   7.005 -0.1269 -0.1134  0.0342
 5685ntf    nn328563   7.069   3.202   7.045 -0.0158 -0.2296  0.2481
 5685ntf    sn228564   7.038   3.081   7.140  0.0122 -0.3806  0.0646
 5685ntf    cn128565   7.001   2.959   7.009  0.4642  0.0569 -0.4760
 5685ntf    fn428566   7.118   3.480   7.131 -0.2583  0.0322 -0.0347
 5685ntf    fn428567   7.229   3.342   7.245 -0.3630 -0.5134 -0.2389
 5685ntf    fn428568   7.332   3.469   7.116  0.0919 -0.6503  0.1320
 5685ntf    on528569   7.215   3.346   6.887  0.2178 -0.2006 -0.0109
 5685ntf    on528570   7.329   3.186   7.027  0.2965  0.5230 -0.0464
 5685ntf    on528571   6.921   3.113   7.218 -0.0892 -0.4603 -0.0536
 5685ntf    on528572   7.148   3.025   7.215 -0.3778 -0.1602  0.8027
 5685ntf    fn428573   6.897   2.997   6.938  0.3996 -0.3198 -0.5840
 5685ntf    fn428574   7.107   2.962   6.930  0.3920 -0.7881 -0.6099
 5685ntf    fn428575   6.973   2.836   7.048 -0.1067  0.4811  0.4838
 5686ntf    cn128576   4.480   3.318   1.951  0.0348  0.5107  0.2387
 5686ntf    sn228577   4.509   3.195   2.082  0.1131 -0.0788 -0.3264
 5686ntf    nn328578   4.641   3.127   2.030  0.6245  0.1853  0.6174
 5686ntf    sn228579   4.689   2.980   2.057  0.0812 -0.1929 -0.4425
 5686ntf    cn128580   4.726   2.916   1.891  0.4486  0.0755 -0.4646
 5686ntf    fn428581   4.467   3.266   1.830  0.7541  0.1190  0.3228
 5686ntf    fn428582   4.365   3.384   1.956  0.0321  0.4916  0.4022
 5686ntf    fn428583   4.578   3.406   1.947  0.4689  0.0251  0.1159
 5686ntf    on528584   4.504   3.278   2.200 -0.7324 -0.3350 -0.1747
 5686ntf    on528585   4.387   3.119   2.070  0.3493 -0.6168  0.6505
 5686ntf    on528586   4.587   2.892   2.110 -0.7933  0.6354 -0.7090
 5686ntf    on528587   4.811   2.981   2.134 -0.1823  0.4780 -0.0201
 5686ntf    fn428588   4.619   2.896   1.815  0.0397 -0.1112  0.1531
 5686ntf    fn428589   4.810   2.994   1.825  0.1244  0.4231 -0.4692
 5686ntf    fn428590   4.787   2.799   1.891 -0.4439 -0.4061  0.0655
 5687ntf    cn128591   2.096   5.980   1.394 -0.4155  0.0434 -0.0775
 5687ntf    sn228592   1.968   6.017   1.518 -0.5267  0.1078 -0.2115
 5687ntf    nn328593   1.923   5.874   1.564 -0.0171  0.0280  0.0400
 5687ntf    sn228594   1.931   5.811   1.708 -0.0999 -0.0675  0.0027
 5687ntf    cn128595   1.768   5.734   1.733  0.2301 -0.6547  0.3458
 5687ntf    fn428596   2.202   5.925   1.451 -0.3817  0.4660  0.2724
 5687ntf    fn428597   2.062   5.895   1.298 -0.5576  0.6918 -0.6038
 5687ntf    fn428598   2.145   6.091   1.342 -0.1110 -0.3864 -0.7158
 5687ntf    on528599   2.044   6.093   1.614  0.1097 -0.2402 -0.4355
 5687ntf    on528600   1.866   6.080   1.438 -0.3810  0.2037 -0.3216
 5687ntf    on528601   1.942   5.897   1.823 -0.0571  0.1747 -0.1811
 5687ntf    on528602   2.025   5.702   1.712 -0.2623 -0.2129 -0.1104
 5687ntf    fn428603   1.672   5.823   1.749  0.2636 -0.5585  0.0143
 5687ntf    fn428604   1.739   5.644   1.641 -0.2896 -0.2734  0.1323
 5687ntf    fn428605   1.763   5.656   1.840  0.2088 -0.3557  0.5628
 5688ntf    cn128606   0.243   6.697   3.438 -0.0402 -0.0971 -0.1791
 5688ntf    sn228607   0.333   6.692   3.280  0.1796  0.0343 -0.0581
 5688ntf    nn328608   0.416   6.562   3.309  0.0523 -0.0447 -0.0450
 5688ntf    sn228609   0.410   6.437   3.215  0.0457 -0.0349 -0.0567
 5688ntf    cn128610   0.585   6.389   3.203 -0.0209 -0.2831 -0.0500
 5688ntf    fn428611   0.173   6.589   3.469 -0.5128  0.3389  0.2918
 5688ntf    fn428612   0.320   6.702   3.546 -0.2860  0.4844 -0.0293
 5688ntf    fn428613   0.155   6.795   3.439 -0.1952 -0.2371  0.1849
 5688ntf    on528614   0.226   6.707   3.185  0.0199 -0.1386  0.0944
 5688ntf    on528615   0.423   6.804   3.288  0.1513  0.1037 -0.6514
 5688ntf    on528616   0.364   6.447   3.078 -0.4044 -0.7560  0.0358
 5688ntf    on528617   0.359   6.334   3.301  1.2041 -0.4860  0.1045
 5688ntf    fn428618   0.599   6.275   3.137  0.1672 -0.3876  0.1700
 5688ntf    fn428619   0.667   6.481   3.153  0.2431 -0.3184  0.3175
 5688ntf    fn428620   0.641   6.357   3.318 -0.1642 -0.2569  0.0272
 5689ntf    cn128621   7.246   3.924   0.434  0.3355  0.3322 -0.0659
 5689ntf    sn228622   7.245   4.013   0.275  0.1006  0.1701 -0.1550
 5689ntf    nn328623   7.364   4.108   0.311  0.1672  0.0033  0.0660
 5689ntf    sn228624   7.355   4.262   0.338 -0.1632 -0.0638  0.3603
 5689ntf    cn128625   7.346   4.330   0.170  0.3153 -0.1287  0.3063
 5689ntf    fn428626   7.139   3.852   0.463  0.4138  0.1488 -0.2323
 5689ntf    fn428627   7.344   3.836   0.440 -0.1673 -0.2556 -0.3238
 5689ntf    fn428628   7.257   4.007   0.536  0.1164  0.0402  0.1963
 5689ntf    on528629   7.286   3.916   0.176 -0.0891  0.3489 -0.4088
 5689ntf    on528630   7.113   4.070   0.268 -0.2186 -0.5058  0.2452
 5689ntf    on528631   7.480   4.311   0.392 -0.3327  0.7978 -0.0122
 5689ntf    on528632   7.232   4.300   0.404 -0.3913 -0.5423  0.2072
 5689ntf    fn428633   7.470   4.351   0.128  0.2576  0.0754  0.2353
 5689ntf    fn428634   7.303   4.243   0.080  0.1825  0.2923 -0.0430
 5689ntf    fn428635   7.274   4.440   0.154 -0.1315 -0.3790  0.5696
 5690ntf    cn128636   3.722   2.860   5.171  0.2583 -0.1970  0.1679
 5690ntf    sn228637   3.601   2.802   5.294  0.0622  0.1982  0.1597
 5690ntf    nn328638   3.573   2.660   5.234  0.7283  0.3839 -0.5998
 5690ntf    sn228639   3.447   2.613   5.153  0.2101  0.3138  0.2436
 5690ntf    cn128640   3.488   2.665   4.984  0.1175 -0.1861  0.0661
 5690ntf    fn428641   3.824   2.778   5.151  0.4427  0.0205  0.2245
 5690ntf    fn428642   3.656   2.858   5.056  0.3694  0.7324  0.0867
 5690ntf    fn428643   3.769   2.981   5.191  0.1783 -0.2017  0.3831
 5690ntf    on528644   3.670   2.785   5.420  0.3468 -0.2154 -0.0496
 5690ntf    on528645   3.499   2.903   5.276  0.2991  0.4060 -0.0321
 5690ntf    on528646   3.313   2.661   5.178  0.0033 -0.4229  0.5880
 5690ntf    on528647   3.456   2.470   5.142 -0.1076  0.3149 -0.0330
 5690ntf    fn428648   3.471   2.795   4.964 -0.0286 -0.2490 -0.2264
 5690ntf    fn428649   3.612   2.637   4.949  0.3438  0.4988  0.3020
 5690ntf    fn428650   3.408   2.597   4.904 -0.1152  0.0641  0.0845
 5691ntf    cn128651   5.999   5.729   5.851 -0.2454  0.1760 -0.2968
 5691ntf    sn228652   5.907   5.573   5.842 -0.0544  0.0430  0.0140
 5691ntf    nn328653   5.969   5.487   5.957 -0.0496  0.1706  0.1072
 5691ntf    sn228654   5.944   5.492   6.112 -0.0612 -0.3104  0.1248
 5691ntf    cn128655   5.801   5.382   6.130 -0.2153 -0.0929  0.2530
 5691ntf    fn428656   5.955   5.807   5.949 -0.4022  0.2537 -0.4295
 5691ntf    fn428657   6.130   5.724   5.871 -0.2198  0.0988 -0.4857
 5691ntf    fn428658   5.975   5.797   5.740 -0.4823  0.2708 -0.1879
 5691ntf    on528659   5.769   5.610   5.865 -0.0507  0.0224  0.0706
 5691ntf    on528660   5.939   5.517   5.713  0.3486 -0.0929  0.1720
 5691ntf    on528661   5.901   5.623   6.157  0.0991 -0.3704  0.4624
 5691ntf    on528662   6.046   5.420   6.184  0.5510  0.7247  0.3144
 5691ntf    fn428663   5.700   5.422   6.055  0.0913 -0.2779 -0.2650
 5691ntf    fn428664   5.829   5.257   6.096 -0.0837  0.0537 -0.1858
 5691ntf    fn428665   5.763   5.386   6.256  0.3883 -0.6539  0.4620
 5692ntf    cn128666   6.116   5.368   1.000  0.0329  0.6095  0.0967
 5692ntf    sn228667   6.065   5.408   1.169 -0.3293  0.0957  0.1085
 5692ntf    nn328668   5.934   5.491   1.144 -0.4477  0.1125  0.7526
 5692ntf    sn228669   5.902   5.644   1.157 -0.3074  0.2196 -0.0760
 5692ntf    cn128670   5.956   5.707   0.995  0.5972 -0.3330  0.0018
 5692ntf    fn428671   6.027   5.289   0.942  0.0485  0.5770  0.1174
 5692ntf    fn428672   6.107   5.476   0.924  0.1112  0.5307 -0.0262
 5692ntf    fn428673   6.233   5.308   0.983 -0.3562 -0.0973 -0.0837
 5692ntf    on528674   6.041   5.274   1.218  0.3225 -0.1949 -0.3501
 5692ntf    on528675   6.181   5.482   1.213 -0.1909 -0.2246  0.2916
 5692ntf    on528676   5.985   5.714   1.252  0.3904  0.1446 -0.6221
 5692ntf    on528677   5.760   5.667   1.152 -0.2690  0.3121 -0.9031
 5692ntf    fn428678   5.922   5.834   0.977 -0.4367 -0.5463  0.3457
 5692ntf    fn428679   6.087   5.712   0.983  0.5902  0.2273  0.1163
 5692ntf    fn428680   5.919   5.632   0.893  0.4467  0.3702 -0.4646
 5693ntf    cn128681   1.659   6.081   5.436  0.1101  0.0893  0.1828
 5693ntf    sn228682   1.567   5.924   5.442  0.0631  0.1227  0.3351
 5693ntf    nn328683   1.453   5.957   5.544 -0.1868  0.9965 -0.2096
 5693ntf    sn228684   1.299   5.963   5.514 -0.1884  0.4322 -0.3234
 5693ntf    cn128685   1.245   5.794   5.557  0.1308  0.4079 -0.0186
 5693ntf    fn428686   1.590   6.183   5.388  0.4556  0.3150  0.1686
 5693ntf    fn428687   1.699   6.117   5.557  0.1492  0.0962  0.1675
 5693ntf    fn428688   1.770   6.069   5.364  0.0598 -0.4686  0.1905
 5693ntf    on528689   1.535   5.917   5.301 -0.4337  0.7926  0.4089
 5693ntf    on528690   1.657   5.821   5.487 -0.4500 -0.4913 -0.0142
 5693ntf    on528691   1.268   5.982   5.374  0.4506  0.3306 -0.4811
 5693ntf    on528692   1.223   6.044   5.606 -0.4726 -0.4343  0.2249
 5693ntf    fn428693   1.115   5.774   5.566  0.2081 -0.0958 -0.0147
 5693ntf    fn428694   1.289   5.706   5.469 -0.0005  0.2405  0.0847
 5693ntf    fn428695   1.302   5.751   5.668  0.3404  0.4448 -0.1107
 5694ntf    cn128696   4.498   1.173   5.644  0.0509  0.2307 -0.3876
 5694ntf    sn228697   4.385   1.030   5.653  0.1112  0.1850 -0.3511
 5694ntf    nn328698   4.274   1.076   5.553 -0.1641  0.2647 -0.0127
 5694ntf    sn228699   4.260   1.057   5.397  0.0149  0.2255 -0.0231
 5694ntf    cn128700   4.141   0.919   5.395  0.2554  0.0163 -0.0591
 5694ntf    fn428701   4.435   1.285   5.676 -0.3944 -0.0031 -0.4413
 5694ntf    fn428702   4.598   1.171   5.730 -0.6286  0.0992  0.4156
 5694ntf    fn428703   4.546   1.189   5.522  0.5247  0.1494 -0.2131
 5694ntf    on528704   4.460   0.913   5.615  0.6063  0.2065  0.5104
 5694ntf    on528705   4.344   1.031   5.791 -0.8762  0.3078 -0.6425
 5694ntf    on528706   4.372   0.993   5.332 -0.2904 -0.6159  0.2633
 5694ntf    on528707   4.199   1.167   5.328 -0.0035 -0.1364 -0.5923
 5694ntf    fn428708   4.016   0.949   5.429  0.1555  0.0248 -0.4282
 5694ntf    fn428709   4.138   0.860   5.277  0.5181 -0.2181  0.0519
 5694ntf    fn428710   4.177   0.831   5.487 -0.6727 -0.2369  0.0680
 5695ntf    cn128711   6.336   1.807   3.697  0.1823 -0.1573 -0.1698
 5695ntf    sn228712   6.407   1.654   3.631 -0.0975 -0.0998 -0.6088
 5695ntf    nn328713   6.480   1.610   3.763 -0.0492 -0.3686 -0.7240
 5695ntf    sn228714   6.634   1.597   3.791 -0.1274  0.3254  0.0627
 5695ntf    cn128715   6.653   1.418   3.767  0.4493  0.4089 -0.1042
 5695ntf    fn428716   6.425   1.874   3.768  0.0516 -0.5272  0.3495
 5695ntf    fn428717   6.282   1.875   3.597 -0.1964 -0.5461 -0.2306
 5695ntf    fn428718   6.233   1.798   3.779  0.4410  0.2572  0.2085
 5695ntf    on528719   6.300   1.566   3.589 -0.2997 -0.1374 -0.0228
 5695ntf    on528720   6.488   1.713   3.527  0.6743  0.3549  0.2456
 5695ntf    on528721   6.669   1.607   3.930  0.2663  0.0162 -0.0120
 5695ntf    on528722   6.721   1.659   3.694  0.0535 -0.0715 -0.0301
 5695ntf    fn428723   6.555   1.362   3.836  0.0169  0.7754 -0.4154
 5695ntf    fn428724   6.629   1.388   3.640  0.5008  0.1513 -0.0540
 5695ntf    fn428725   6.767   1.363   3.806  0.3767  0.4234  0.1256
 5696ntf    cn128726   7.155   7.428   4.560 -0.1568  0.1433 -0.4621
 5696ntf    sn228727   6.978   7.465   4.538 -0.3174 -0.3349 -0.0030
 5696ntf    nn328728   6.986   7.567   4.419 -0.0494  0.0506  0.3435
 5696ntf    sn228729   6.994   7.723   4.434  0.5366  0.0549  0.0454
 5696ntf    cn128730   6.817   7.760   4.409  0.4734 -0.3772 -0.1420
 5696ntf    fn428731   7.228   7.538   4.560 -0.6106  0.4551  0.0792
 5696ntf    fn428732   7.177   7.365   4.675 -0.1045  0.2690 -0.4024
 5696ntf    fn428733   7.207   7.348   4.469  0.2305  0.0975 -0.2039
 5696ntf    on528734   6.933   7.333   4.503 -0.9076 -0.1633  0.1090
 5696ntf    on528735   6.930   7.518   4.663  0.1088 -0.1475  0.0837
 5696ntf    on528736   7.062   7.785   4.323  0.6127  0.0279  0.0774
 5696ntf    on528737   7.021   7.783   4.563 -0.2478 -0.2381  0.3528
 5696ntf    fn428738   6.740   7.715   4.507 -0.0638 -0.2127 -0.4885
 5696ntf    fn428739   6.784   7.883   4.373  0.1213 -0.2674  0.5440
 5696ntf    fn428740   6.771   7.694   4.304  0.0329 -0.1560 -0.0878
 5697ntf    cn128741   5.181   1.465   3.579  0.3073 -0.1941 -0.2376
 5697ntf    sn228742   5.286   1.503   3.435  0.5467  0.2773  0.0591
 5697ntf    nn328743   5.429   1.471   3.492  0.6495  0.6136 -0.0070
 5697ntf    sn228744   5.512   1.337   3.487 -0.0782  0.1568 -0.0494
 5697ntf    cn128745   5.630   1.378   3.619 -0.0841  0.0294 -0.0047
 5697ntf    fn428746   5.214   1.522   3.694 -0.2398  0.2409 -0.2902
 5697ntf    fn428747   5.056   1.499   3.554  0.2731 -0.3567 -0.2894
 5697ntf    fn428748   5.172   1.338   3.615 -0.3755 -0.0260  0.1940
 5697ntf    on528749   5.241   1.411   3.333  1.0136  0.1677 -0.0521
 5697ntf    on528750   5.257   1.643   3.423 -0.6970 -0.0002 -0.3069
 5697ntf    on528751   5.600   1.330   3.373 -0.2693 -0.7493 -0.1459
 5697ntf    on528752   5.446   1.220   3.538  0.1426  0.3043  0.5776
 5697ntf    fn428753   5.575   1.442   3.721 -0.0867 -0.4394  0.2916
 5697ntf    fn428754   5.685   1.264   3.658  0.3485 -0.0044 -0.7020
 5697ntf    fn428755   5.732   1.451   3.578 -0.0673 -0.1105 -0.2141
 5698ntf    cn128756   2.107   5.259   2.897  0.2149  0.0115 -0.2540
 5698ntf    sn228757   2.096   5.266   2.716 -0.1261 -0.1999 -0.2430
 5698ntf    nn328758   2.235   5.330   2.680  0.1254  0.1476  1.2681
 5698ntf    sn228759   2.383   5.276   2.688  0.1412 -0.0054  0.1124
 5698ntf    cn128760   2.458   5.367   2.549 -0.4477 -0.2958 -0.4022
 5698ntf    fn428761   2.007   5.191   2.951  0.2754  0.2551  0.1727
 5698ntf    fn428762   2.211   5.192   2.944  0.2478  0.2082 -0.0389
 5698ntf    fn428763   2.107   5.379   2.953 -0.1897 -0.1494  0.0992
 5698ntf    on528764   2.081   5.131   2.669  0.6083 -0.3904  0.0503
 5698ntf    on528765   1.984   5.354   2.694  0.2388  0.5902  0.9036
 5698ntf    on528766   2.404   5.135   2.669 -0.1571 -0.0266 -0.0702
 5698ntf    on528767   2.444   5.343   2.799 -0.4579  0.1218  0.3713
 5698ntf    fn428768   2.464   5.495   2.581  0.1711 -0.2678 -0.6250
 5698ntf    fn428769   2.574   5.320   2.508 -0.2684 -0.0770 -0.1501
 5698ntf    fn428770   2.375   5.365   2.446 -0.2476  0.5237 -0.5846
 5699ntf    cn128771   3.084   1.467   5.308 -0.2671  0.1982 -0.1695
 5699ntf    sn228772   2.983   1.502   5.161 -0.0746  0.4481 -0.2446
 5699ntf    nn328773   3.054   1.426   5.044 -0.3469  0.0465 -0.1528
 5699ntf    sn228774   3.146   1.477   4.927  0.1775  0.3519  0.3847
 5699ntf    cn128775   3.198   1.323   4.845  0.1628  0.3994  0.2851
 5699ntf    fn428776   3.044   1.533   5.415  0.2941  1.0638 -0.4855
 5699ntf    fn428777   3.090   1.339   5.342  0.1290  0.4291  0.6592
 5699ntf    fn428778   3.206   1.509   5.279 -0.2901  0.4916  0.1569
 5699ntf    on528779   2.847   1.463   5.192 -0.0250  0.6018  0.1751
 5699ntf    on528780   3.005   1.644   5.161  0.1677  0.4109 -0.2161
 5699ntf    on528781   3.271   1.530   4.975  0.0320  0.8872  0.1787
 5699ntf    on528782   3.082   1.549   4.820  0.2442  0.4170  0.3881
 5699ntf    fn428783   3.280   1.352   4.746 -0.1263  0.6119  0.1071
 5699ntf    fn428784   3.256   1.235   4.925 -0.2397 -0.0973  0.0349
 5699ntf    fn428785   3.099   1.249   4.798  0.1109  0.7806 -0.2117
 5700ntf    cn128786   6.666   0.769   3.614 -0.0798 -0.1665 -0.3539
 5700ntf    sn228787   6.604   0.648   3.735  0.0783  0.3411  0.2384
 5700ntf    nn328788   6.488   0.728   3.803 -0.2030  0.1862 -0.0519
 5700ntf    sn228789   6.340   0.682   3.824 -0.1712  0.1770  0.1598
 5700ntf    cn128790   6.237   0.768   3.701  0.1686 -0.0873 -0.3084
 5700ntf    fn428791   6.756   0.713   3.535  0.7474 -0.2473  0.6298
 5700ntf    fn428792   6.576   0.829   3.537  0.0119 -0.0695 -0.3864
 5700ntf    fn428793   6.740   0.862   3.671 -0.0612 -0.5360  0.2230
 5700ntf    on528794   6.546   0.549   3.648  0.1128  0.4436  0.0980
 5700ntf    on528795   6.716   0.622   3.822 -0.0040 -0.0129  0.2395
 5700ntf    on528796   6.289   0.731   3.950 -0.0760  0.3570  0.1277
 5700ntf    on528797   6.311   0.545   3.791  0.3134 -0.0120  0.5086
 5700ntf    fn428798   6.134   0.698   3.656  0.2960 -0.3749 -0.1598
 5700ntf    fn428799   6.187   0.885   3.737  0.3429 -0.1847  0.2663
 5700ntf    fn428800   6.304   0.785   3.588  0.2594 -0.4260 -0.3078
 5701ntf    cn128801   1.481   2.869   4.834  0.0323  0.2560  0.0301
 5701ntf    sn228802   1.498   2.704   4.760  0.5315  0.3090  0.0224
 5701ntf    nn328803   1.506   2.610   4.885  0.2059  0.1335 -0.0872
 5701ntf    sn228804   1.632   2.543   4.950 -0.0789 -0.0014  0.3345
 5701ntf    cn128805   1.633   2.389   4.853 -0.3527  0.2495 -0.0666
 5701ntf    fn428806   1.466   2.966   4.745 -0.1439  0.2135  0.0117
 5701ntf    fn428807   1.371   2.872   4.907 -0.1806  0.3381 -0.2914
 5701ntf    fn428808   1.591   2.897   4.902  0.5743  0.3451 -0.8582
 5701ntf    on528809   1.375   2.684   4.688  0.0935  0.5126  0.7077
 5701ntf    on528810   1.616   2.715   4.677  0.5432 -0.4837 -0.0784
 5701ntf    on528811   1.599   2.497   5.082 -0.3363 -1.0515 -0.0820
 5701ntf    on528812   1.764   2.595   4.925  0.1676 -0.6783  0.1902
 5701ntf    fn428813   1.546   2.295   4.889  0.2985 -0.3508 -0.0461
 5701ntf    fn428814   1.602   2.418   4.727 -0.2587  0.2899 -0.0801
 5701ntf    fn428815   1.756   2.342   4.852 -0.4130  0.0611  0.7007
 5702ntf    cn128816   3.882   2.080   1.080 -0.0771  0.2885 -0.0403
 5702ntf    sn228817   3.876   2.182   0.930 -0.3613 -0.0468 -0.2571
 5702ntf    nn328818   3.736   2.248   0.953 -0.4260 -0.1713 -0.2876
 5702ntf    sn228819   3.698   2.377   1.034  0.3664 -0.2007  0.1427
 5702ntf    cn128820   3.589   2.312   1.163 -0.1689 -0.0653 -0.2399
 5702ntf    fn428821   3.777   2.001   1.093 -0.2329  0.6329  0.8811
 5702ntf    fn428822   3.989   2.002   1.084 -0.3801 -0.1487 -0.4024
 5702ntf    fn428823   3.878   2.152   1.191  0.2091  0.1517  0.0613
 5702ntf    on528824   3.992   2.269   0.930 -0.3797 -0.0224 -0.1550
 5702ntf    on528825   3.873   2.077   0.830 -0.7125 -0.3500  0.0712
 5702ntf    on528826   3.609   2.462   0.960 -0.0047 -0.1441  0.6455
 5702ntf    on528827   3.803   2.438   1.113 -0.3179  0.4914  0.5349
 5702ntf    fn428828   3.534   2.410   1.233  0.0778 -0.0337 -0.0883
 5702ntf    fn428829   3.482   2.254   1.111 -0.1999 -0.4211  0.2055
 5702ntf    fn428830   3.638   2.222   1.247 -0.8338 -0.2238 -0.0135
 5703ntf    cn128831   2.170   0.601   0.357  0.0473 -0.2981  0.0261
 5703ntf    sn228832   2.242   0.609   0.524  0.3639  0.1570 -0.1284
 5703ntf    nn328833   2.202   0.475   0.596 -0.0025  0.5295  0.3645
 5703ntf    sn228834   2.062   0.407   0.577  0.1672  0.1672  0.3981
 5703ntf    cn128835   1.939   0.535   0.616  0.2557  0.3357  0.1265
 5703ntf    fn428836   2.040   0.589   0.339  0.0098  0.5132 -0.2937
 5703ntf    fn428837   2.203   0.717   0.302  0.2460 -0.2923  0.1544
 5703ntf    fn428838   2.231   0.509   0.284 -0.1300 -0.2855 -0.1365
 5703ntf    on528839   2.384   0.608   0.500  0.2642  0.0784 -0.7201
 5703ntf    on528840   2.182   0.723   0.588 -0.4412 -0.2557 -0.1307
 5703ntf    on528841   2.029   0.305   0.673 -0.8898 -0.2850 -0.4300
 5703ntf    on528842   2.034   0.358   0.444 -0.4511  0.4026  0.4405
 5703ntf    fn428843   1.947   0.566   0.744  0.8298  0.2896  0.1023
 5703ntf    fn428844   1.962   0.650   0.554 -0.1469  0.2435 -0.2004
 5703ntf    fn428845   1.815   0.494   0.591  0.1632  0.3467  0.5618
 5704ntf    cn128846   6.903   4.398   7.590 -0.5309  0.2128 -0.2466
 5704ntf    sn228847   6.812   4.276   7.492 -0.2970 -0.3340  0.2128
 5704ntf    nn328848   6.663   4.319   7.515 -0.0685  0.1834  0.7362
 5704ntf    sn228849   6.572   4.412   7.427  0.1323 -0.4898 -0.1999
 5704ntf    cn128850   6.492   4.520   7.549  0.1996 -0.3413 -0.2866
 5704ntf    fn428851   6.855   4.414   7.713 -0.4495 -0.2187 -0.1565
 5704ntf    fn428852   7.033   4.377   7.600 -0.4843  0.4461 -0.3535
 5704ntf    fn428853   6.895   4.521   7.541  0.3834  0.1668 -0.5194
 5704ntf    on528854   6.868   4.289   7.360 -0.0209 -0.2584  0.3372
 5704ntf    on528855   6.840   4.152   7.560  0.3542 -0.5078 -0.3604
 5704ntf    on528856   6.461   4.348   7.360 -0.0138 -0.9560  0.4759
 5704ntf    on528857   6.643   4.514   7.353 -0.2795 -0.2989 -0.3394
 5704ntf    fn428858   6.421   4.616   7.492  0.3539  0.0558  0.1819
 5704ntf    fn428859   6.408   4.462   7.634 -0.0391  0.2403 -0.1177
 5704ntf    fn428860   6.580   4.584   7.624  0.2578 -0.0789 -0.5781
 5705ntf    cn128861   6.768   3.187   5.025  0.0342  0.1944 -0.3315
 5705ntf    sn228862   6.786   3.368   5.016  0.0078  0.2131 -0.0177
 5705ntf    nn328863   6.933   3.390   5.066  0.1119  0.4049 -0.3990
 5705ntf    sn228864   7.004   3.356   5.202  0.1890  0.4218 -0.4355
 5705ntf    cn128865   7.096   3.211   5.141  0.2898  0.3653 -0.1496
 5705ntf    fn428866   6.806   3.147   5.145 -0.3619  0.1121 -0.2300
 5705ntf    fn428867   6.642   3.154   5.004 -0.0328  0.5201 -0.4480
 5705ntf    fn428868   6.836   3.115   4.937  0.1133 -0.5156  0.3035
 5705ntf    on528869   6.776   3.403   4.876  0.1625 -0.2609 -0.1501
 5705ntf    on528870   6.687   3.426   5.102 -0.2257 -0.1125 -0.0641
 5705ntf    on528871   6.914   3.305   5.303  0.2609  0.7089 -0.2253
 5705ntf    on528872   7.115   3.440   5.238  0.5469 -0.2876  0.1626
 5705ntf    fn428873   7.147   3.230   5.021  0.1131 -0.5832 -0.3819
 5705ntf    fn428874   7.193   3.172   5.222  0.1293  0.4199  0.0705
 5705ntf    fn428875   7.025   3.099   5.130  0.4884  0.2348 -0.1094
 5706ntf    cn128876   4.883   7.042   1.766 -0.2243  0.2343  0.0574
 5706ntf    sn228877   4.940   6.904   1.662  0.3194  0.0726  0.5674
 5706ntf    nn328878   5.076   6.886   1.740  0.2190 -0.1954  0.6795
 5706ntf    sn228879   5.219   6.902   1.679  0.0021 -0.1158  0.1866
 5706ntf    cn128880   5.204   6.806   1.525  0.3026  0.0680  0.0394
 5706ntf    fn428881   4.877   7.008   1.894  0.4803  0.0817  0.0520
 5706ntf    fn428882   4.959   7.150   1.757  0.0484  0.0571  0.2093
 5706ntf    fn428883   4.764   7.086   1.728 -0.1931  0.1508 -0.1396
 5706ntf    on528884   4.842   6.800   1.682  0.3846 -0.0558  0.2237
 5706ntf    on528885   4.946   6.959   1.529 -0.7965 -0.7449  0.1690
 5706ntf    on528886   5.323   6.834   1.753  0.1060  0.3482  0.4714
 5706ntf    on528887   5.254   7.033   1.631  0.2543 -0.3070 -0.1568
 5706ntf    fn428888   5.141   6.690   1.542  0.2358  0.0178 -0.5263
 5706ntf    fn428889   5.142   6.868   1.426 -0.1642 -0.6281 -0.1101
 5706ntf    fn428890   5.321   6.775   1.473  0.0999 -0.2283 -0.2408
 5707ntf    cn128891   1.064   6.052   3.072  0.5592  0.1394  0.4486
 5707ntf    sn228892   1.208   5.991   2.979 -0.0998  0.0135 -0.5056
 5707ntf    nn328893   1.154   5.976   2.832  0.3049 -0.1879 -0.6349
 5707ntf    sn228894   1.169   6.073   2.709 -0.1491  0.1264 -0.4428
 5707ntf    cn128895   1.023   6.041   2.605 -0.4979  0.2131  0.0118
 5707ntf    fn428896   1.106   6.112   3.182  0.0745  0.2140  0.5933
 5707ntf    fn428897   0.994   6.142   3.005 -0.1241 -0.7556 -0.0619
 5707ntf    fn428898   0.985   5.954   3.111  0.5249 -0.0458 -0.0782
 5707ntf    on528899   1.308   6.094   2.997 -0.1459 -0.0817  0.3297
 5707ntf    on528900   1.232   5.862   3.038 -1.2814  0.0102 -0.0121
 5707ntf    on528901   1.285   6.035   2.634  0.2137  0.1235  0.1088
 5707ntf    on528902   1.153   6.210   2.751 -0.3003  0.1051 -0.4279
 5707ntf    fn428903   0.915   6.050   2.680 -0.3630 -0.7088  0.3289
 5707ntf    fn428904   1.012   6.139   2.517 -0.3349  0.2624  0.0452
 5707ntf    fn428905   1.022   5.930   2.533 -0.2051  0.1463  0.1089
 5708ntf    cn128906   5.492   4.930   6.455  0.1696  0.3025  0.2933
 5708ntf    sn228907   5.414   4.808   6.344 -0.1238  0.5171  0.2600
 5708ntf    nn328908   5.259   4.830   6.355 -0.3265 -0.2818 -0.8819
 5708ntf    sn228909   5.143   4.731   6.389 -0.4142  0.1268  0.0198
 5708ntf    cn128910   5.016   4.837   6.314 -0.1683  0.5205  0.1539
 5708ntf    fn428911   5.448   4.907   6.577  0.0793 -0.2473  0.1620
 5708ntf    fn428912   5.624   4.926   6.452  0.1841  0.7458  0.2624
 5708ntf    fn428913   5.458   5.055   6.427  0.0348  0.1420 -0.2761
 5708ntf    on528914   5.480   4.838   6.220 -0.1587  0.6924  0.2827
 5708ntf    on528915   5.457   4.687   6.409 -0.0027  0.6671  0.4618
 5708ntf    on528916   5.110   4.717   6.529  0.9005 -0.0938  0.3162
 5708ntf    on528917   5.141   4.613   6.306 -0.9970 -0.0551  0.2842
 5708ntf    fn428918   5.045   4.866   6.188 -0.6806  0.3410 -0.0099
 5708ntf    fn428919   4.893   4.788   6.312 -0.2133  0.6289  0.2701
 5708ntf    fn428920   5.001   4.952   6.376  0.3734 -0.0046  1.2787
 5709ntf    cn128921   4.424   6.755   6.310 -0.6460  0.1869  0.3363
 5709ntf    sn228922   4.512   6.840   6.176 -0.3403 -0.2039  0.2887
 5709ntf    nn328923   4.660   6.820   6.225 -0.5860 -1.0638  0.7008
 5709ntf    sn228924   4.765   6.710   6.185  0.4940  0.1353  0.1403
 5709ntf    cn128925   4.872   6.714   6.332  0.1754  0.2919  0.3686
 5709ntf    fn428926   4.464   6.799   6.428 -0.1503 -0.1362  0.2912
 5709ntf    fn428927   4.293   6.771   6.308 -0.6694 -0.0265  0.0378
 5709ntf    fn428928   4.455   6.627   6.303 -0.0513  0.3594 -0.2845
 5709ntf    on528929   4.481   6.778   6.049  0.1077  0.4386 -0.1427
 5709ntf    on528930   4.472   6.978   6.191  0.1992 -0.0159  0.0385
 5709ntf    on528931   4.852   6.758   6.082 -0.0382  0.4285 -0.1779
 5709ntf    on528932   4.705   6.578   6.187 -0.9832  0.7652 -0.6606
 5709ntf    fn428933   4.812   6.677   6.444  0.3169 -0.3959  0.2215
 5709ntf    fn428934   4.985   6.648   6.323  0.1124  0.2467 -0.0918
 5709ntf    fn428935   4.922   6.836   6.349  0.4835  0.2639 -0.3186
 5710ntf    cn128936   5.826   7.642   4.270 -0.0445  0.0935  0.2623
 5710ntf    sn228937   5.961   7.640   4.392 -0.0828  0.4091  0.3101
 5710ntf    nn328938   5.998   7.793   4.394 -0.4280  0.4967  0.1015
 5710ntf    sn228939   6.140   7.859   4.386 -0.1324 -0.1758 -0.2487
 5710ntf    cn128940   6.200   7.809   4.550 -0.2536 -0.2897 -0.2387
 5710ntf    fn428941   5.853   7.685   4.148  0.0352 -0.2055  0.1729
 5710ntf    fn428942   5.774   7.520   4.267 -0.3022  0.2174 -0.4841
 5710ntf    fn428943   5.724   7.716   4.308 -0.2749  0.3121 -0.7526
 5710ntf    on528944   5.890   7.599   4.511 -0.0189  0.1523  0.2593
 5710ntf    on528945   6.047   7.558   4.311 -0.1839  0.2780  0.3363
 5710ntf    on528946   6.144   8.003   4.393  0.3495 -0.1727 -0.5117
 5710ntf    on528947   6.227   7.796   4.290  0.1992 -0.4894  0.2514
 5710ntf    fn428948   6.178   7.681   4.575 -0.1810 -0.2383  0.0935
 5710ntf    fn428949   6.329   7.830   4.574 -0.3730  0.2958 -0.0961
 5710ntf    fn428950   6.144   7.884   4.643 -0.0938 -0.9377  0.3902
 5711ntf    cn128951   1.721   1.656   1.323 -0.1537  0.0260 -0.3815
 5711ntf    sn228952   1.556   1.597   1.276 -0.2213  0.0323 -0.1524
 5711ntf    nn328953   1.502   1.575   1.421 -0.2498 -0.0497 -0.1756
 5711ntf    sn228954   1.355   1.552   1.473 -0.2993  0.4860 -0.0738
 5711ntf    cn128955   1.372   1.374   1.501  0.0071  0.5441  0.1160
 5711ntf    fn428956   1.717   1.714   1.442 -0.4324 -0.4434 -0.1620
 5711ntf    fn428957   1.805   1.557   1.350 -0.0325  0.2716  0.1473
 5711ntf    fn428958   1.783   1.736   1.236 -0.1783  0.2398 -0.2016
 5711ntf    on528959   1.494   1.706   1.203  0.0634  0.0129 -0.4235
 5711ntf    on528960   1.571   1.472   1.207 -0.4533  0.0494 -0.2377
 5711ntf    on528961   1.243   1.563   1.383  0.1533 -0.2987 -0.7488
 5711ntf    on528962   1.340   1.611   1.604 -0.0446  0.9952 -0.2701
 5711ntf    fn428963   1.284   1.326   1.589  0.4130  0.5251  0.5139
 5711ntf    fn428964   1.353   1.311   1.386 -0.2601  1.1317 -0.1676
 5711ntf    fn428965   1.488   1.325   1.542  0.2755  0.5068 -0.6759
 5712ntf    cn128966   4.420   2.475   4.033  0.2142 -0.0779 -0.1458
 5712ntf    sn228967   4.466   2.445   4.206 -0.4050 -0.1511  0.0091
 5712ntf    nn328968   4.349   2.525   4.274 -0.0053  0.3045  0.1626
 5712ntf    sn228969   4.275   2.495   4.409 -0.2738  0.3833  0.0322
 5712ntf    cn128970   4.144   2.380   4.356 -0.0643  0.1957 -0.0806
 5712ntf    fn428971   4.517   2.438   3.952  0.0486  0.1058 -0.4305
 5712ntf    fn428972   4.312   2.409   3.994 -0.3189  0.5059  0.3244
 5712ntf    fn428973   4.405   2.604   4.005 -0.1838 -0.0825  0.0398
 5712ntf    on528974   4.460   2.301   4.213 -0.4990 -0.1447  0.0647
 5712ntf    on528975   4.600   2.497   4.221 -0.1737 -0.7047 -0.1320
 5712ntf    on528976   4.192   2.601   4.462 -0.3606  0.0747  0.5218
 5712ntf    on528977   4.348   2.416   4.505 -0.2594  0.1682 -0.1552
 5712ntf    fn428978   4.069   2.324   4.449  0.4300 -0.7827 -0.2555
 5712ntf    fn428979   4.070   2.452   4.274 -0.2752  0.2246  0.1344
 5712ntf    fn428980   4.199   2.282   4.285 -0.1665  0.0823 -0.0038
 5713ntf    cn128981   0.341   5.930   1.096 -0.2265  0.6321 -0.2346
 5713ntf    sn228982   0.173   5.879   1.145 -0.0910  0.2054 -0.2128
 5713ntf    nn328983   0.088   5.909   1.016 -0.6881 -0.1378  0.1002
 5713ntf    sn228984   0.064   5.812   0.895  0.2311 -0.1348 -0.0910
 5713ntf    cn128985  -0.114   5.777   0.909  0.0894  0.5046 -0.2499
 5713ntf    fn428986   0.357   6.054   1.051  1.0285  0.5233 -0.1180
 5713ntf    fn428987   0.427   5.916   1.196 -0.1953 -0.3686 -0.3917
 5713ntf    fn428988   0.393   5.858   0.999 -0.1056 -0.2040  0.4353
 5713ntf    on528989   0.178   5.743   1.191 -0.4454  0.5727  0.9399
 5713ntf    on528990   0.138   5.968   1.253  0.2668  0.0276  0.0501
 5713ntf    on528991   0.126   5.683   0.908 -0.0130 -0.2240  0.1786
 5713ntf    on528992   0.067   5.882   0.769 -0.3422  0.2398  0.0991
 5713ntf    fn428993  -0.140   5.649   0.888  0.2203  0.2997  0.7732
 5713ntf    fn428994  -0.174   5.786   1.027  0.1591 -0.1410 -0.1644
 5713ntf    fn428995  -0.180   5.853   0.823  0.2282  0.0841 -0.7344
 5714ntf    cn128996   6.105   5.437   3.459 -0.0716  0.3054  0.0167
 5714ntf    sn228997   6.268   5.444   3.379 -0.1555  0.3554 -0.1493
 5714ntf    nn328998   6.229   5.504   3.239 -0.1613 -0.0113 -0.3047
 5714ntf    sn228999   6.189   5.416   3.114 -0.2241 -0.3353 -0.0584
 5714ntf    cn129000   6.063   5.522   3.038  0.1095  0.0730 -0.0450
 5714ntf    fn429001   6.031   5.544   3.438 -0.2004  0.2525  0.1959
 5714ntf    fn429002   6.043   5.330   3.412  0.6091 -0.2987  0.4674
 5714ntf    fn429003   6.117   5.427   3.590  0.4123 -0.5568 -0.0819
 5714ntf    on529004   6.343   5.539   3.457  0.2026 -0.1939  0.1754
 5714ntf    on529005   6.307   5.305   3.378 -0.5007  0.2564 -0.0816
 5714ntf    on529006   6.114   5.295   3.136  0.2864 -0.7334 -0.5059
 5714ntf    on529007   6.295   5.420   3.016 -0.3705  0.1995 -0.1977
 5714ntf    fn429008   5.975   5.565   3.127 -0.0755  0.0590 -0.2195
 5714ntf    fn429009   6.116   5.631   2.983  0.1584  0.0980  0.0527
 5714ntf    fn429010   5.991   5.454   2.950  0.0361 -0.0375  0.1016
 5715ntf    cn129011   5.773   2.211   3.924  0.1109  0.1333 -0.1420
 5715ntf    sn229012   5.752   2.379   3.991 -0.3739  0.2056 -0.4663
 5715ntf    nn329013   5.606   2.412   3.944 -0.3148  0.5031 -0.4378
 5715ntf    sn229014   5.476   2.406   4.030 -0.1786  0.0757 -0.2604
 5715ntf    cn129015   5.343   2.421   3.907 -0.1988 -0.1860 -0.2708
 5715ntf    fn429016   5.685   2.120   3.963  0.5639 -0.2507 -0.0157
 5715ntf    fn429017   5.770   2.219   3.792  0.7992  0.3312 -0.1441
 5715ntf    fn429018   5.892   2.160   3.951 -0.1132 -0.1958  0.2335
 5715ntf    on529019   5.777   2.364   4.132  0.1267 -0.6639 -0.6342
 5715ntf    on529020   5.848   2.460   3.919  0.6067  0.0917  0.6841
 5715ntf    on529021   5.457   2.518   4.119 -0.3537 -0.6807  0.6742
 5715ntf    on529022   5.450   2.278   4.092  0.6178 -0.1140 -0.3139
 5715ntf    fn429023   5.355   2.332   3.810  0.7030 -0.1457 -0.2075
 5715ntf    fn429024   5.221   2.416   3.957  0.0355  0.7424  0.4158
 5715ntf    fn429025   5.350   2.538   3.845 -0.3960  0.2560  0.5311
 5716ntf    cn129026   6.426   0.143   1.956 -0.0405  0.1315 -0.1562
 5716ntf    sn229027   6.453   0.281   2.071 -0.1675  0.0090  0.0198
 5716ntf    nn329028   6.467   0.395   1.965  0.7360 -0.6966 -0.6335
 5716ntf    sn229029   6.567   0.516   1.972  0.0657 -0.1551 -0.4124
 5716ntf    cn129030   6.525   0.592   2.132  0.3549 -0.3413 -0.2472
 5716ntf    fn429031   6.443   0.024   2.011  0.8741 -0.1068 -0.9235
 5716ntf    fn429032   6.303   0.142   1.908 -0.1732  0.3395  0.1738
 5716ntf    fn429033   6.507   0.143   1.851 -0.7296 -0.4739 -0.6959
 5716ntf    on529034   6.329   0.277   2.145 -0.0421  0.0292  0.2344
 5716ntf    on529035   6.569   0.232   2.142  0.2253 -0.4390 -0.9195
 5716ntf    on529036   6.532   0.617   1.875  0.3506  0.2228 -0.1251
 5716ntf    on529037   6.704   0.473   1.978  0.0150 -0.2486  0.2197
 5716ntf    fn429038   6.537   0.518   2.241  0.1571 -0.0640 -0.0341
 5716ntf    fn429039   6.581   0.706   2.170  0.0685 -0.0831 -0.5935
 5716ntf    fn429040   6.394   0.616   2.132  0.3963 -0.0904  0.3824
 5717ntf    cn129041   7.132   3.366   1.226  0.1469 -0.4400 -0.3333
 5717ntf    sn229042   7.193   3.254   1.096  0.0064 -0.7600 -0.1264
 5717ntf    nn329043   7.124   3.313   0.968  0.4672 -0.4190 -0.2216
 5717ntf    sn229044   7.165   3.307   0.817  0.1073 -0.0216 -0.3358
 5717ntf    cn129045   7.272   3.453   0.800  0.1382  0.0370  0.3274
 5717ntf    fn429046   7.183   3.359   1.348 -1.2298  0.4171  0.3269
 5717ntf    fn429047   7.142   3.494   1.195  0.1005 -0.3300  0.0943
 5717ntf    fn429048   7.001   3.345   1.233  0.0037  0.6228  0.4055
 5717ntf    on529049   7.336   3.263   1.107 -0.0455  0.7159 -0.3676
 5717ntf    on529050   7.136   3.127   1.134 -0.7119 -0.3458  0.2087
 5717ntf    on529051   7.049   3.341   0.738 -0.0177 -0.0386 -0.1577
 5717ntf    on529052   7.256   3.205   0.770  0.3172  0.4709 -1.0286
 5717ntf    fn429053   7.397   3.458   0.843  0.3332 -0.4355 -0.1802
 5717ntf    fn429054   7.279   3.487   0.672 -0.0310 -0.1897  0.2578
 5717ntf    fn429055   7.216   3.564   0.844 -0.1065 -0.1648  0.5224
 5718ntf    cn129056   0.708   0.726   2.933 -0.7487  0.1905 -0.2407
 5718ntf    sn229057   0.707   0.907   2.948  0.1055  0.1534  0.3169
 5718ntf    nn329058   0.724   0.955   2.799  0.2749 -0.3358  0.1773
 5718ntf    sn229059   0.864   0.958   2.728  0.1832  0.0642  0.0168
 5718ntf    cn129060   0.887   1.138   2.711  0.0449  0.0639 -0.1829
 5718ntf    fn429061   0.721   0.662   3.048  0.1369  0.0688 -0.4038
 5718ntf    fn429062   0.600   0.666   2.885 -0.8800  0.3729 -0.1726
 5718ntf    fn429063   0.806   0.678   2.858 -0.5484 -0.1964  0.2681
 5718ntf    on529064   0.574   0.935   2.995  0.2448 -0.2302  0.9563
 5718ntf    on529065   0.814   0.925   3.043  0.4654 -0.6366  0.0720
 5718ntf    on529066   0.848   0.929   2.587  0.3142 -0.0889  0.0337
 5718ntf    on529067   0.975   0.902   2.800  0.1965  0.2679  0.1547
 5718ntf    fn429068   0.785   1.197   2.652 -0.2053 -0.1944 -0.0111
 5718ntf    fn429069   0.897   1.199   2.828 -0.4511  0.6229 -0.4280
 5718ntf    fn429070   1.000   1.174   2.652  0.2139 -0.2055 -0.0297
 5719ntf    cn129071   5.350   6.766   0.422  0.1832 -0.0478 -0.1692
 5719ntf    sn229072   5.259   6.749   0.578 -0.0828  0.1133 -0.3081
 5719ntf    nn329073   5.391   6.740   0.661  0.0942  0.4483 -0.5508
 5719ntf    sn229074   5.434   6.744   0.813 -0.2608  0.2154 -0.4442
 5719ntf    cn129075   5.527   6.900   0.810  0.0557  0.0259 -0.4446
 5719ntf    fn429076   5.435   6.664   0.418 -0.0351 -0.2232 -0.3616
 5719ntf    fn429077   5.284   6.774   0.308  0.1022  0.5334 -0.0806
 5719ntf    fn429078   5.420   6.878   0.432  0.0179 -0.0147  0.6976
 5719ntf    on529079   5.186   6.871   0.603 -0.4954 -0.2378  0.2361
 5719ntf    on529080   5.193   6.621   0.572 -0.2185  0.1940 -0.5850
 5719ntf    on529081   5.529   6.641   0.848 -0.0093  0.4572 -0.4185
 5719ntf    on529082   5.334   6.763   0.916 -0.5623  0.4175 -0.7700
 5719ntf    fn429083   5.555   6.935   0.685  0.0997 -0.1036 -0.4719
 5719ntf    fn429084   5.465   7.007   0.857  0.1802 -0.0795 -0.0394
 5719ntf    fn429085   5.641   6.894   0.877 -0.2872 -0.2115  0.1252
 5720ntf    cn129086   0.807   5.727   5.687  0.5115 -0.0923 -0.2348
 5720ntf    sn229087   0.721   5.861   5.599  0.2486 -0.1478 -0.0650
 5720ntf    nn329088   0.668   5.954   5.714  0.0805 -0.2671 -0.0448
 5720ntf    sn229089   0.608   6.098   5.709 -0.1124 -0.3552 -0.3051
 5720ntf    cn129090   0.430   6.058   5.708 -0.2613  0.2789  0.2322
 5720ntf    fn429091   0.908   5.784   5.752 -0.1432  0.7694  0.0445
 5720ntf    fn429092   0.730   5.673   5.780  0.2649  0.0200 -0.3734
 5720ntf    fn429093   0.858   5.631   5.612  0.0891 -0.1986 -0.3866
 5720ntf    on529094   0.808   5.934   5.510  0.2675  0.0987  0.1582
 5720ntf    on529095   0.617   5.782   5.538 -0.3474 -0.0394  0.7910
 5720ntf    on529096   0.630   6.177   5.591  0.2116 -0.1409 -0.1009
 5720ntf    on529097   0.631   6.164   5.836 -0.4872 -0.3201 -0.2546
 5720ntf    fn429098   0.410   5.982   5.815 -0.2430  0.0052  0.0406
 5720ntf    fn429099   0.357   6.167   5.726 -0.9972 -0.1521 -0.1012
 5720ntf    fn429100   0.388   5.987   5.605 -0.8678 -0.0617  0.7109
 5721ntf    cn129101   2.239   6.811   5.645  0.0318 -0.2580  0.1668
 5721ntf    sn229102   2.400   6.731   5.620  0.1802  0.0412  0.1531
 5721ntf    nn329103   2.478   6.756   5.753  0.0514  0.0786  0.2214
 5721ntf    sn229104   2.487   6.666   5.882 -0.1388 -0.2602 -0.0004
 5721ntf    cn129105   2.622   6.556   5.832 -0.0108  0.0439 -0.3300
 5721ntf    fn429106   2.159   6.719   5.696 -0.6286 -0.0188 -0.4256
 5721ntf    fn429107   2.238   6.908   5.735 -0.7560 -0.1129  0.0118
 5721ntf    fn429108   2.176   6.850   5.535 -0.3468  0.1993  0.5409
 5721ntf    on529109   2.364   6.592   5.605  0.2151  0.0581 -0.1043
 5721ntf    on529110   2.462   6.796   5.507 -0.0625  0.2404  0.1347
 5721ntf    on529111   2.380   6.575   5.913 -0.4899  0.3271  0.5489
 5721ntf    on529112   2.538   6.739   5.996  0.1746  0.2533 -0.4658
 5721ntf    fn429113   2.742   6.610   5.849  0.0178  0.0520 -0.5596
 5721ntf    fn429114   2.632   6.455   5.917  0.3507  0.4462  0.1140
 5721ntf    fn429115   2.615   6.497   5.714 -0.0748 -0.4320 -0.0944
 5722ntf    cn129116   6.811   3.618   2.907 -0.0859 -0.3433  0.1650
 5722ntf    sn229117   6.902   3.501   2.802  0.0405  0.0536 -0.1713
 5722ntf    nn329118   6.856   3.548   2.659 -0.2290  0.1303 -0.0597
 5722ntf    sn229119   6.730   3.518   2.570 -0.3600  0.3433  0.0512
 5722ntf    cn129120   6.821   3.408   2.458 -0.2990  0.0307  0.4049
 5722ntf    fn429121   6.884   3.675   3.002 -0.4510 -0.3751  0.4679
 5722ntf    fn429122   6.756   3.719   2.841  0.1433 -0.0943  0.3537
 5722ntf    fn429123   6.705   3.555   2.954 -0.4271 -0.5083 -0.8158
 5722ntf    on529124   7.039   3.535   2.831  0.0070 -0.1285  0.2001
 5722ntf    on529125   6.859   3.370   2.843 -0.4169  0.0004 -0.7910
 5722ntf    on529126   6.686   3.621   2.479 -0.3847 -0.0855 -0.4304
 5722ntf    on529127   6.630   3.436   2.633 -0.2341  0.3078  0.2061
 5722ntf    fn429128   6.848   3.289   2.510  0.6625 -0.1359 -0.4286
 5722ntf    fn429129   6.760   3.371   2.346 -0.7594 -0.3307  0.7738
 5722ntf    fn429130   6.939   3.455   2.421 -0.4040 -0.0803 -0.0897
 5723ntf    cn129131   2.776   4.423   4.636  0.2758 -0.4297  0.0862
 5723ntf    sn229132   2.877   4.274   4.609  0.0506 -0.5660 -0.0087
 5723ntf    nn329133   2.914   4.233   4.756  0.1709  0.4342  0.2538
 5723ntf    sn229134   3.048   4.183   4.821  0.1045 -0.0596  0.0217
 5723ntf    cn129135   3.035   4.002   4.817  0.2386 -0.0710  0.0959
 5723ntf    fn429136   2.774   4.500   4.528  0.1168 -0.1498  0.2897
 5723ntf    fn429137   2.652   4.399   4.673 -0.0705  0.4400 -0.4845
 5723ntf    fn429138   2.824   4.499   4.734  0.0276 -0.5445  0.2964
 5723ntf    on529139   2.787   4.187   4.537 -0.7562  0.1966  0.0616
 5723ntf    on529140   2.980   4.322   4.519 -0.2773 -0.6241 -0.4135
 5723ntf    on529141   3.049   4.223   4.960 -0.1309 -0.2114  0.0685
 5723ntf    on529142   3.166   4.216   4.745  0.3943  0.2735  0.6060
 5723ntf    fn429143   3.155   3.950   4.835  0.3010  0.2375  0.5778
 5723ntf    fn429144   2.954   3.959   4.912 -0.3171 -0.2263 -0.4452
 5723ntf    fn429145   2.988   3.952   4.704  0.1261  0.2034  0.0211
 5724ntf    cn129146   5.933   7.294   3.772  0.0707 -0.5647  0.1932
 5724ntf    sn229147   5.785   7.210   3.708 -0.3454  0.0632  0.3155
 5724ntf    nn329148   5.722   7.332   3.633  0.3596  0.2632  0.0369
 5724ntf    sn229149   5.599   7.421   3.674  0.3728  0.1102  0.4069
 5724ntf    cn129150   5.457   7.313   3.635  0.4772  0.2451 -0.3545
 5724ntf    fn429151   5.901   7.419   3.801 -0.5053 -0.5825 -0.3542
 5724ntf    fn429152   5.991   7.245   3.880  0.0532 -0.3760  0.2884
 5724ntf    fn429153   6.015   7.297   3.669  0.1412  0.0180  0.2607
 5724ntf    on529154   5.829   7.110   3.613 -0.3816  0.4898 -0.1529
 5724ntf    on529155   5.717   7.156   3.823  0.5931 -0.3459  0.6938
 5724ntf    on529156   5.574   7.525   3.578  0.9514  0.0855  0.2274
 5724ntf    on529157   5.596   7.451   3.815 -0.4161 -1.2594  0.7044
 5724ntf    fn429158   5.436   7.290   3.506  0.3852  0.0773 -0.3098
 5724ntf    fn429159   5.462   7.196   3.697  0.5953  0.3782 -0.1123
 5724ntf    fn429160   5.346   7.366   3.684 -0.1897 -0.6268 -0.9046
 5725ntf    cn129161   2.917   6.032   6.970  0.1221 -0.0749 -0.0303
 5725ntf    sn229162   2.865   5.959   7.128  0.0190 -0.0817 -0.0673
 5725ntf    nn329163   2.964   5.839   7.155  0.0099 -0.0992 -0.1110
 5725ntf    sn229164   3.055   5.814   7.280 -0.1332  0.3948  0.0954
 5725ntf    cn129165   3.203   5.752   7.195 -0.2436 -0.2195  0.3469
 5725ntf    fn429166   2.915   5.941   6.873  0.3611  0.3968 -0.4819
 5725ntf    fn429167   2.835   6.132   6.945  0.1201  0.0725  0.5536
 5725ntf    fn429168   3.038   6.085   6.967  0.2826 -0.4491 -0.3600
 5725ntf    on529169   2.880   6.069   7.220 -0.5710 -0.1267  0.0847
 5725ntf    on529170   2.726   5.923   7.114  0.1282 -0.6093  0.1737
 5725ntf    on529171   3.019   5.695   7.353  0.6789  0.1342  0.0803
 5725ntf    on529172   3.102   5.928   7.354 -0.3378  0.3627  0.2771
 5725ntf    fn429173   3.165   5.659   7.109 -0.2105  0.2621 -0.1943
 5725ntf    fn429174   3.256   5.845   7.118 -0.6035  0.1246  0.5119
 5725ntf    fn429175   3.297   5.696   7.269 -0.1516  0.2758  0.6121
 5726ntf    cn129176   0.011   1.348   2.753 -0.0177 -0.2043  0.0665
 5726ntf    sn229177  -0.071   1.369   2.592  0.2022 -0.2652 -0.0535
 5726ntf    nn329178  -0.025   1.513   2.548 -0.9892  0.0937 -0.1767
 5726ntf    sn229179  -0.049   1.588   2.412 -0.0597  0.0716 -0.3617
 5726ntf    cn129180   0.049   1.497   2.289  0.2536  0.3182 -0.2967
 5726ntf    fn429181   0.124   1.280   2.742  0.4367  0.6361 -0.5021
 5726ntf    fn429182   0.033   1.463   2.813 -0.3425 -0.2026  0.1866
 5726ntf    fn429183  -0.071   1.272   2.824 -0.5484  0.5446  0.2588
 5726ntf    on529184  -0.031   1.259   2.509  0.0139 -0.3116 -0.0836
 5726ntf    on529185  -0.211   1.369   2.625  0.1689 -0.7545 -0.1925
 5726ntf    on529186   0.006   1.722   2.414  0.0908  0.0109 -0.3720
 5726ntf    on529187  -0.188   1.567   2.384 -0.1638 -0.1260  0.2814
 5726ntf    fn429188   0.057   1.561   2.173  0.4997 -0.0399 -0.4774
 5726ntf    fn429189   0.175   1.490   2.327  0.1059  0.3373  0.2012
 5726ntf    fn429190   0.002   1.375   2.269  0.5959  0.1208  0.0850
 5727ntf    cn129191   6.284   2.153   4.945 -0.0467 -0.4240  0.5832
 5727ntf    sn229192   6.367   2.198   5.101  0.0150  0.0558  0.4156
 5727ntf    nn329193   6.317   2.094   5.207 -0.1168 -0.0067  0.2936
 5727ntf    sn229194   6.185   2.095   5.292 -0.2078  0.1674  0.1505
 5727ntf    cn129195   6.234   2.204   5.429  0.1839 -0.2345  0.3339
 5727ntf    fn429196   6.303   2.028   4.906  0.2900 -0.1989  0.0132
 5727ntf    fn429197   6.154   2.173   4.946  0.0469  0.3301 -0.3805
 5727ntf    fn429198   6.325   2.227   4.843 -0.4523 -0.3579  0.4675
 5727ntf    on529199   6.505   2.170   5.066 -0.0323  0.0977  0.1906
 5727ntf    on529200   6.332   2.333   5.133 -0.2164 -0.0010  0.4010
 5727ntf    on529201   6.165   1.971   5.363 -0.5481  0.0723 -0.1095
 5727ntf    on529202   6.069   2.156   5.232 -0.7173 -0.0704  0.8688
 5727ntf    fn429203   6.365   2.199   5.451  0.2692  0.0310 -0.1148
 5727ntf    fn429204   6.203   2.331   5.411  0.6414 -0.0776  0.6280
 5727ntf    fn429205   6.172   2.179   5.543  0.2535 -0.0469  0.4142
 5728ntf    cn129206   3.294   7.006   5.056 -0.1685 -0.1436  0.1227
 5728ntf    sn229207   3.205   7.164   5.064  0.0180 -0.0118 -0.3708
 5728ntf    nn329208   3.320   7.270   5.067 -0.4460  0.4920 -0.0861
 5728ntf    sn229209   3.317   7.426   5.046  0.4243  0.5308  0.0074
 5728ntf    cn129210   3.285   7.476   5.218 -0.3099 -0.1177  0.0686
 5728ntf    fn429211   3.380   7.012   4.956  0.0548 -0.5691  0.2828
 5728ntf    fn429212   3.363   6.992   5.168 -0.2432 -0.0867  0.1759
 5728ntf    fn429213   3.226   6.894   5.035  0.3358 -0.4068 -0.1226
 5728ntf    on529214   3.118   7.165   4.949 -0.2119 -0.4462 -0.2024
 5728ntf    on529215   3.133   7.152   5.189 -0.0121 -0.9534 -0.4712
 5728ntf    on529216   3.199   7.459   4.970 -0.0487 -0.0587  0.4697
 5728ntf    on529217   3.446   7.480   5.015  0.6070  0.1302  0.0610
 5728ntf    fn429218   3.173   7.419   5.259 -0.2297  0.0196  0.4862
 5728ntf    fn429219   3.383   7.441   5.301 -0.5932 -0.4610  0.2602
 5728ntf    fn429220   3.282   7.607   5.234 -0.7986 -0.0700 -0.4175
 5729ntf    cn129221   7.003   4.549   2.008 -0.1323 -0.1332 -0.1983
 5729ntf    sn229222   6.897   4.585   2.152 -0.1098 -0.2047 -0.1639
 5729ntf    nn329223   6.844   4.726   2.109  0.1125  0.1081  0.5789
 5729ntf    sn229224   6.695   4.767   2.080  0.1549  0.0034  0.2104
 5729ntf    cn129225   6.703   4.945   2.041 -0.2687  0.0557  0.3560
 5729ntf    fn429226   7.076   4.654   1.975 -0.0474 -0.0545  0.2394
 5729ntf    fn429227   7.083   4.445   2.027 -0.0486 -0.0781 -0.2514
 5729ntf    fn429228   6.941   4.516   1.896 -0.3474  0.1160 -0.1558
 5729ntf    on529229   6.798   4.480   2.155 -0.0438 -0.2484  0.7912
 5729ntf    on529230   6.988   4.584   2.264  0.0942  0.1375 -0.3238
 5729ntf    on529231   6.611   4.769   2.197 -0.1437 -0.5700  0.0046
 5729ntf    on529232   6.655   4.704   1.957  0.3800  0.3074 -0.0209
 5729ntf    fn429233   6.754   5.016   2.141 -0.1213  0.7336 -0.1932
 5729ntf    fn429234   6.788   4.965   1.941 -0.3950  0.4264  0.3239
 5729ntf    fn429235   6.584   4.999   2.019 -0.2788 -0.0594  0.1327
 5730ntf    cn129236   0.080   0.468   1.845  0.2333  0.2363 -0.0877
 5730ntf    sn229237   0.018   0.613   1.936  0.0916  0.1325 -0.0194
 5730ntf    nn329238  -0.077   0.678   1.829  0.0731 -0.4970 -0.3876
 5730ntf    sn229239  -0.228   0.649   1.797 -0.1053  0.0038  0.0001
 5730ntf    cn129240  -0.296   0.813   1.838  0.1977  0.0819  0.1953
 5730ntf    fn429241   0.200   0.422   1.876  0.0313 -0.1007  0.2081
 5730ntf    fn429242  -0.007   0.369   1.853  0.3365  0.1695  0.2324
 5730ntf    fn429243   0.081   0.488   1.714 -0.3467 -0.1332 -0.1514
 5730ntf    on529244  -0.047   0.567   2.057 -0.1050 -0.9813 -0.5362
 5730ntf    on529245   0.136   0.691   1.960 -0.0846  0.5075 -0.3645
 5730ntf    on529246  -0.296   0.562   1.889  0.0599 -0.1156  0.0096
 5730ntf    on529247  -0.255   0.644   1.655  0.5974 -0.2021 -0.1298
 5730ntf    fn429248  -0.237   0.920   1.786  0.1810  0.2101  0.4405
 5730ntf    fn429249  -0.423   0.804   1.804  0.1322 -0.3340  0.5443
 5730ntf    fn429250  -0.282   0.832   1.968  0.2998 -0.1928  0.2258
 5731ntf    cn129251   4.986   3.460   5.784 -0.0952  0.1123 -0.2073
 5731ntf    sn229252   4.989   3.420   5.607 -0.0514  0.0396 -0.1904
 5731ntf    nn329253   5.110   3.514   5.570  0.1079  0.1994  0.7220
 5731ntf    sn229254   5.114   3.668   5.544 -0.1216  0.0840 -0.0265
 5731ntf    cn129255   5.110   3.673   5.363 -0.1950 -0.1062 -0.0299
 5731ntf    fn429256   4.881   3.408   5.846 -0.0130 -0.2514 -0.3719
 5731ntf    fn429257   5.095   3.415   5.845 -0.5081  0.1933  0.6130
 5731ntf    fn429258   4.984   3.591   5.797 -0.2200  0.1407 -0.5183
 5731ntf    on529259   5.020   3.279   5.605  0.3004  0.1169 -0.1690
 5731ntf    on529260   4.862   3.458   5.551 -0.1705 -0.3201 -0.1683
 5731ntf    on529261   5.244   3.722   5.574 -0.3122  0.4936  0.0738
 5731ntf    on529262   4.999   3.749   5.576 -0.3504 -0.2640  0.0357
 5731ntf    fn429263   4.992   3.645   5.310  0.2477 -0.0107 -1.0939
 5731ntf    fn429264   5.150   3.790   5.316  0.0622 -0.0854  0.2419
 5731ntf    fn429265   5.193   3.584   5.310 -0.3513 -0.1877 -0.1401
 5732ntf    cn129266   0.286   7.459   3.585  0.2248 -0.2417 -0.2405
 5732ntf    sn229267   0.360   7.366   3.721 -0.1210 -0.0878  0.0557
 5732ntf    nn329268   0.321   7.221   3.675  0.3335 -0.2554  0.1849
 5732ntf    sn229269   0.222   7.122   3.746  0.2769 -0.4514 -0.1655
 5732ntf    cn129270   0.154   7.047   3.594 -0.0434  0.0548 -0.2748
 5732ntf    fn429271   0.287   7.591   3.600  0.2610 -0.3069  0.3478
 5732ntf    fn429272   0.353   7.433   3.474  0.0051  0.2747 -0.5024
 5732ntf    fn429273   0.158   7.429   3.568  0.1201 -0.1756  0.4245
 5732ntf    on529274   0.504   7.376   3.715 -0.1332 -0.0788 -0.2280
 5732ntf    on529275   0.298   7.419   3.840  0.2081 -0.0335  0.2051
 5732ntf    on529276   0.110   7.179   3.816  0.4460  0.5378 -0.6822
 5732ntf    on529277   0.286   7.009   3.809 -0.1395 -0.1314  0.8381
 5732ntf    fn429278   0.246   6.990   3.517  0.1784 -0.3577  0.2859
 5732ntf    fn429279   0.074   6.946   3.622 -0.0114 -0.0284 -0.4840
 5732ntf    fn429280   0.079   7.132   3.527  0.0493 -0.0761 -0.5468
 5733ntf    cn129281   4.681   6.459   7.318 -0.3556  0.1318 -0.1787
 5733ntf    sn229282   4.763   6.447   7.156 -0.2693 -0.0514 -0.1206
 5733ntf    nn329283   4.697   6.580   7.106  0.1373  0.3708  0.4503
 5733ntf    sn229284   4.652   6.628   6.963  0.2764 -0.0489  0.2631
 5733ntf    cn129285   4.677   6.808   6.966  0.2261 -0.0387  0.0856
 5733ntf    fn429286   4.552   6.483   7.297 -0.2098  0.7171 -0.4226
 5733ntf    fn429287   4.694   6.348   7.387  0.4501  0.3176 -0.0251
 5733ntf    fn429288   4.737   6.563   7.378 -0.0873 -0.5170  0.7010
 5733ntf    on529289   4.902   6.459   7.194 -0.3250 -0.2135  0.1402
 5733ntf    on529290   4.711   6.328   7.094 -0.0317 -0.4894  0.5130
 5733ntf    on529291   4.512   6.616   6.930  0.1154  0.4276  0.7487
 5733ntf    on529292   4.747   6.591   6.862 -0.1552 -0.5381  0.0327
 5733ntf    fn429293   4.643   6.851   7.086  0.1725  0.1103  0.0172
 5733ntf    fn429294   4.804   6.840   6.945  0.0474  0.3652 -0.4233
 5733ntf    fn429295   4.594   6.862   6.878 -0.0539 -0.1194  0.3013
 5734ntf    cn129296   0.060   0.892   2.862 -0.3443 -0.1188 -0.4041
 5734ntf    sn229297   0.039   0.790   3.011  0.0310  0.3621 -0.0176
 5734ntf    nn329298   0.140   0.672   2.990  0.1239  0.4555 -0.1008
 5734ntf    sn229299   0.187   0.566   3.096  0.2980  0.4627 -0.1715
 5734ntf    cn129300   0.191   0.420   2.988 -0.0837  0.2123  0.1529
 5734ntf    fn429301  -0.005   1.004   2.892  0.1449  0.0427  0.0775
 5734ntf    fn429302   0.182   0.940   2.840 -0.2302 -0.4937 -0.5864
 5734ntf    fn429303   0.019   0.835   2.750 -0.7315  0.0775 -0.3618
 5734ntf    on529304   0.082   0.884   3.112  0.0694  0.4142 -0.0820
 5734ntf    on529305  -0.102   0.761   3.019  0.0065  0.5803  0.3519
 5734ntf    on529306   0.090   0.530   3.196 -0.4921  0.8921 -0.7674
 5734ntf    on529307   0.321   0.603   3.135  0.3844 -0.1968  0.1621
 5734ntf    fn429308   0.270   0.437   2.884  0.0147 -0.0905  0.1761
 5734ntf    fn429309   0.245   0.315   3.048  0.3278  0.3081 -0.0523
 5734ntf    fn429310   0.068   0.390   2.950 -0.0634  0.0382  0.2200
 5735ntf    cn129311   4.350   2.387   3.491 -0.0837 -0.3917  0.0497
 5735ntf    sn229312   4.292   2.348   3.323  0.0273 -0.1838 -0.0381
 5735ntf    nn329313   4.327   2.483   3.251 -0.2433 -0.4193 -0.6188
 5735ntf    sn229314   4.323   2.516   3.098  0.4495 -0.1909 -0.5938
 5735ntf    cn129315   4.481   2.451   3.035  0.3731 -1.0249  0.0475
 5735ntf    fn429316   4.472   2.437   3.502 -0.3061  0.1934 -0.0626
 5735ntf    fn429317   4.276   2.481   3.548 -0.0888 -0.0585 -0.4932
 5735ntf    fn429318   4.335   2.273   3.556  0.0133 -0.5419 -0.1892
 5735ntf    on529319   4.376   2.236   3.288 -0.6622 -0.8268  0.3107
 5735ntf    on529320   4.151   2.325   3.343 -0.2152  0.5662 -0.8279
 5735ntf    on529321   4.331   2.658   3.074  0.0639 -0.0708 -0.0187
 5735ntf    on529322   4.219   2.442   3.030  0.2974 -0.5729  0.0517
 5735ntf    fn429323   4.577   2.466   3.125  0.5008  0.0598 -0.2524
 5735ntf    fn429324   4.480   2.323   3.003 -0.2248 -0.9781 -0.1397
 5735ntf    fn429325   4.511   2.519   2.925  0.0382 -0.7463  0.1249
 5736ntf    cn129326   2.066   0.517   5.793  0.0290  0.6280 -0.1152
 5736ntf    sn229327   2.205   0.633   5.811 -0.0199  0.6391  0.1950
 5736ntf    nn329328   2.254   0.647   5.663  0.0897  0.0153  0.1679
 5736ntf    sn229329   2.352   0.547   5.592  0.1182  0.1314  0.0429
 5736ntf    cn129330   2.312   0.560   5.415  0.2495 -0.4195 -0.0290
 5736ntf    fn429331   1.962   0.578   5.739 -0.2839 -0.1671 -0.4251
 5736ntf    fn429332   2.094   0.415   5.713 -0.3684  0.3723  0.0655
 5736ntf    fn429333   2.026   0.471   5.911 -0.2336 -0.0316 -0.4573
 5736ntf    on529334   2.144   0.750   5.868 -0.5821  0.3697  0.1562
 5736ntf    on529335   2.299   0.557   5.889 -0.6440 -0.4587 -0.1047
 5736ntf    on529336   2.337   0.407   5.620  0.3148 -0.0242 -0.6124
 5736ntf    on529337   2.490   0.591   5.589  0.3603 -0.6679 -1.2764
 5736ntf    fn429338   2.321   0.683   5.368 -0.2523 -0.3851 -0.0397
 5736ntf    fn429339   2.396   0.484   5.346  0.0326  0.0327 -0.8033
 5736ntf    fn429340   2.193   0.511   5.386 -0.0373  0.3276 -0.1360
 5737ntf    cn129341   4.499   0.251   7.557  0.0451 -0.0242 -0.2230
 5737ntf    sn229342   4.629   0.254   7.684  0.0133 -0.0541 -0.1897
 5737ntf    nn329343   4.657   0.408   7.687 -0.4252  0.0269 -0.2283
 5737ntf    sn229344   4.781   0.481   7.623 -0.1036  0.1308  0.5069
 5737ntf    cn129345   4.742   0.656   7.652 -0.1663  0.1786  0.1363
 5737ntf    fn429346   4.492   0.136   7.492 -0.0196  0.1471 -0.5181
 5737ntf    fn429347   4.376   0.273   7.600 -0.1692 -0.3737 -0.6470
 5737ntf    fn429348   4.531   0.342   7.468  0.6605 -0.3713 -0.3612
 5737ntf    on529349   4.558   0.204   7.799 -0.3036 -0.3531 -0.5109
 5737ntf    on529350   4.736   0.179   7.622 -0.0024 -0.1521 -0.0985
 5737ntf    on529351   4.788   0.473   7.479  1.0252 -0.6966  0.5886
 5737ntf    on529352   4.904   0.466   7.697  0.5308  0.0595 -0.5416
 5737ntf    fn429353   4.619   0.689   7.617  0.0038  0.9684  0.2609
 5737ntf    fn429354   4.733   0.679   7.782 -0.4045  0.3066  0.0977
 5737ntf    fn429355   4.832   0.741   7.604  0.3000 -0.3214  0.1159
 5738ntf    cn129356   7.440   2.545   0.618 -0.1684  0.3917  0.0896
 5738ntf    sn229357   7.617   2.578   0.595 -0.0840 -0.0817  0.0632
 5738ntf    nn329358   7.606   2.672   0.470  0.0580 -0.2137 -0.0503
 5738ntf    sn229359   7.605   2.641   0.316 -0.3302 -0.1789 -0.0550
 5738ntf    cn129360   7.779   2.656   0.265 -0.2326 -0.4404  0.1941
 5738ntf    fn429361   7.401   2.497   0.735  0.2542  0.2562  0.1762
 5738ntf    fn429362   7.369   2.657   0.609 -0.2619  0.3245 -0.0075
 5738ntf    fn429363   7.384   2.462   0.532 -0.1115  0.2193  0.2186
 5738ntf    on529364   7.639   2.643   0.722  0.0266 -0.3195  0.1675
 5738ntf    on529365   7.668   2.444   0.580 -0.0315 -0.0456 -0.0804
 5738ntf    on529366   7.532   2.744   0.247 -0.1607 -0.0028  0.0272
 5738ntf    on529367   7.557   2.511   0.276  0.4292 -0.3787 -0.3386
 5738ntf    fn429368   7.839   2.759   0.321 -0.0632 -0.2382 -0.3552
 5738ntf    fn429369   7.849   2.549   0.297 -0.3730 -0.6496 -0.1972
 5738ntf    fn429370   7.797   2.671   0.135  0.0427 -0.3217  0.2462
 5739ntf    cn129371   0.694   1.842   1.705 -0.5688  0.0124  0.1028
 5739ntf    sn229372   0.825   1.945   1.633 -0.5325 -0.0479  0.0826
 5739ntf    nn329373   0.776   2.093   1.652 -0.1677  0.0733  0.0977
 5739ntf    sn229374   0.853   2.219   1.705 -0.3442  0.3875 -0.3904
 5739ntf    cn129375   0.813   2.340   1.576 -0.0322  0.3127 -0.5582
 5739ntf    fn429376   0.736   1.722   1.741  0.1352  0.2680  0.1497
 5739ntf    fn429377   0.637   1.897   1.811  0.2420  0.5259  0.2793
 5739ntf    fn429378   0.591   1.824   1.624  0.1816 -0.3163 -0.7960
 5739ntf    on529379   0.950   1.928   1.702 -0.8319 -0.2502  0.5765
 5739ntf    on529380   0.828   1.895   1.498  0.3972 -0.1128  0.1235
 5739ntf    on529381   0.995   2.208   1.721 -0.2893  0.4210 -0.8552
 5739ntf    on529382   0.777   2.271   1.816  0.1233 -0.3599  0.2934
 5739ntf    fn429383   0.897   2.443   1.574  0.0166  0.2792 -0.2528
 5739ntf    fn429384   0.803   2.291   1.453  0.9748  0.2757 -0.6302
 5739ntf    fn429385   0.691   2.390   1.591  0.0369  0.4095 -0.3190
 5740ntf    cn129386   0.529   3.502   2.275  0.1702 -0.1391 -0.0812
 5740ntf    sn229387   0.648   3.636   2.307 -0.5109  0.4402  0.0642
 5740ntf    nn329388   0.543   3.731   2.375 -0.4876  0.0257  0.6903
 5740ntf    sn229389   0.444   3.829   2.302  0.0398 -0.0952 -0.1949
 5740ntf    cn129390   0.532   3.987   2.319 -0.4044  0.1660 -0.3137
 5740ntf    fn429391   0.460   3.540   2.168  0.1591  0.2770  0.0698
 5740ntf    fn429392   0.587   3.386   2.256 -0.0004 -0.2228 -0.0970
 5740ntf    fn429393   0.442   3.493   2.374  0.3546 -0.3795  0.0582
 5740ntf    on529394   0.739   3.585   2.406  0.4579  0.8853 -0.5876
 5740ntf    on529395   0.692   3.667   2.174 -0.6252  0.4139  0.0199
 5740ntf    on529396   0.324   3.851   2.378  0.2115 -0.0744  0.0719
 5740ntf    on529397   0.436   3.819   2.158  0.0232  0.0503 -0.2050
 5740ntf    fn429398   0.655   3.987   2.368 -0.3123 -0.1366 -0.5417
 5740ntf    fn429399   0.543   4.043   2.199  0.2330  0.2045 -0.2438
 5740ntf    fn429400   0.463   4.079   2.385 -0.3292 -0.0168  0.0204
 5741ntf    cn129401   5.349   2.817   7.056 -0.2566 -0.1526 -0.2694
 5741ntf    sn229402   5.408   2.652   7.102 -0.0306  0.0119  0.0344
 5741ntf    nn329403   5.264   2.591   7.107 -0.0479  0.0444 -0.0611
 5741ntf    sn229404   5.172   2.536   6.992  0.1329 -0.3766 -0.0078
 5741ntf    cn129405   5.040   2.661   7.002  0.2889 -0.2478  0.4307
 5741ntf    fn429406   5.260   2.869   7.140 -0.5539 -0.1976 -0.5516
 5741ntf    fn429407   5.440   2.913   7.053 -0.2370 -0.1373  0.6289
 5741ntf    fn429408   5.290   2.823   6.938 -0.2332 -0.1327 -0.2802
 5741ntf    on529409   5.497   2.609   6.996  0.0950 -0.2494  0.2452
 5741ntf    on529410   5.465   2.660   7.234 -0.0041  0.4343 -0.0009
 5741ntf    on529411   5.108   2.415   7.038 -0.0085 -0.1601  0.3659
 5741ntf    on529412   5.223   2.532   6.857  0.5384 -0.1676  0.1381
 5741ntf    fn429413   5.089   2.784   7.006  0.0043 -0.1033 -0.4364
 5741ntf    fn429414   4.963   2.668   6.895  0.8901  0.3923  0.0269
 5741ntf    fn429415   4.962   2.645   7.108  0.4956  0.0496  0.6339
 5742ntf    cn129416   0.687   4.320   4.577 -0.0220 -0.1383  0.0416
 5742ntf    sn229417   0.745   4.433   4.707  0.0050 -0.2406  0.1190
 5742ntf    nn329418   0.725   4.339   4.831  0.1152 -0.1695  0.1910
 5742ntf    sn229419   0.602   4.313   4.926 -0.1988  0.2791 -0.0884
 5742ntf    cn129420   0.617   4.434   5.060  0.1638 -0.2706  0.3750
 5742ntf    fn429421   0.751   4.204   4.583 -0.1188 -0.2015 -0.1379
 5742ntf    fn429422   0.559   4.288   4.581  0.0144 -0.3652 -0.5934
 5742ntf    fn429423   0.723   4.354   4.454 -0.3619  0.1731  0.0287
 5742ntf    on529424   0.882   4.464   4.678 -0.0181 -0.3778 -0.1355
 5742ntf    on529425   0.653   4.545   4.696  0.4396  0.1371  0.3027
 5742ntf    on529426   0.628   4.184   4.985 -0.6127  0.4327  0.4342
 5742ntf    on529427   0.467   4.327   4.878 -0.1894 -0.0531 -0.2166
 5742ntf    fn429428   0.548   4.385   5.162  0.0894  0.0715  0.4936
 5742ntf    fn429429   0.741   4.448   5.102  0.2260 -0.5240  0.2766
 5742ntf    fn429430   0.574   4.555   5.028  0.0765 -0.3317  0.2591
 5743ntf    cn129431   5.591   6.424   4.743 -0.2317  0.0057 -0.1161
 5743ntf    sn229432   5.580   6.603   4.768 -0.0119 -0.0082  0.0788
 5743ntf    nn329433   5.731   6.643   4.777  0.2443 -0.8934 -0.2829
 5743ntf    sn229434   5.827   6.692   4.663  0.3321  0.0660  0.1965
 5743ntf    cn129435   5.834   6.874   4.673 -0.4614  0.0783  0.5620
 5743ntf    fn429436   5.648   6.360   4.843 -0.3034  0.0790 -0.0283
 5743ntf    fn429437   5.475   6.363   4.723 -0.4448  0.4643 -0.2907
 5743ntf    fn429438   5.673   6.398   4.643  0.1451  0.0393  0.1853
 5743ntf    on529439   5.491   6.646   4.663 -0.3184 -0.3806  0.1829
 5743ntf    on529440   5.525   6.618   4.901  0.2476 -0.1727  0.2038
 5743ntf    on529441   5.773   6.661   4.532 -0.5994  0.3159  0.5131
 5743ntf    on529442   5.960   6.648   4.697  0.2971  0.5463  0.9839
 5743ntf    fn429443   5.844   6.917   4.797 -0.1089  0.2253  0.4830
 5743ntf    fn429444   5.935   6.933   4.612 -0.5147 -0.2787  0.1185
 5743ntf    fn429445   5.722   6.926   4.626 -0.0800  0.3322 -0.0812
 5744ntf    cn129446   2.755   0.153   3.659 -0.1345  0.2240  0.0621
 5744ntf    sn229447   2.707   0.194   3.489 -0.1189  0.2162  0.0557
 5744ntf    nn329448   2.848   0.220   3.424 -0.1110  0.3990  0.1454
 5744ntf    sn229449   2.892   0.224   3.274 -0.2424  0.0196  0.0927
 5744ntf    cn129450   3.042   0.328   3.284 -0.0175 -0.2847 -0.1168
 5744ntf    fn429451   2.845   0.056   3.645 -0.2013  0.2252 -0.3893
 5744ntf    fn429452   2.815   0.245   3.733 -0.0678  0.6419 -0.5063
 5744ntf    fn429453   2.656   0.099   3.729 -0.0873  0.2831  0.1748
 5744ntf    on529454   2.640   0.075   3.443 -0.2573  0.2949  0.0543
 5744ntf    on529455   2.638   0.320   3.501  0.1994  0.3314  0.7272
 5744ntf    on529456   2.807   0.294   3.181 -0.0951  0.4797  0.2998
 5744ntf    on529457   2.954   0.100   3.235  0.0482  0.2048 -0.0501
 5744ntf    fn429458   3.126   0.273   3.370 -0.8494 -0.0604  0.8554
 5744ntf    fn429459   3.111   0.338   3.171 -0.1411  0.0290 -0.1660
 5744ntf    fn429460   3.018   0.451   3.325 -0.4364 -0.6087  0.6247
 5745ntf    cn129461   3.501   3.749   5.713 -0.1500 -0.3472 -0.1060
 5745ntf    sn229462   3.396   3.606   5.751 -0.1552 -0.2868  0.1067
 5745ntf    nn329463   3.273   3.635   5.658 -0.2633 -0.7457  0.1022
 5745ntf    sn229464   3.130   3.691   5.690  0.0520 -0.0142  0.2517
 5745ntf    cn129465   3.091   3.778   5.535 -0.0584  0.1476  0.3700
 5745ntf    fn429466   3.628   3.718   5.734 -0.2090 -0.0973  0.6546
 5745ntf    fn429467   3.493   3.796   5.590 -0.3002  0.0746  0.0627
 5745ntf    fn429468   3.480   3.855   5.789  0.8151  0.1193 -0.4752
 5745ntf    on529469   3.484   3.507   5.694 -0.0338 -0.2975  0.3131
 5745ntf    on529470   3.374   3.606   5.894  0.2786  0.1152  0.1731
 5745ntf    on529471   3.113   3.790   5.794 -0.1403  0.1891  0.0275
 5745ntf    on529472   3.019   3.598   5.691 -0.2640  0.3423 -0.5541
 5745ntf    fn429473   3.205   3.805   5.474 -0.1188 -0.2626  0.0747
 5745ntf    fn429474   3.017   3.713   5.447  0.2226  0.3842 -0.0437
 5745ntf    fn429475   3.045   3.901   5.549 -0.3257  0.1574 -0.5660
 5746ntf    cn129476   7.386   1.468   3.246  0.0614  0.1915  0.0830
 5746ntf    sn229477   7.213   1.510   3.283 -0.1179 -0.2219 -0.2834
 5746ntf    nn329478   7.169   1.385   3.367  0.0780 -0.0219  0.1208
 5746ntf    sn229479   7.029   1.314   3.365  0.3152 -0.5089  0.5776
 5746ntf    cn129480   6.946   1.418   3.490 -0.2431 -0.0813 -0.1358
 5746ntf    fn429481   7.445   1.553   3.163 -0.4077 -0.0731 -0.5220
 5746ntf    fn429482   7.460   1.469   3.356 -0.2366 -0.1130  0.2873
 5746ntf    fn429483   7.393   1.346   3.195 -0.2566 -0.1187  0.7697
 5746ntf    on529484   7.236   1.628   3.363 -0.8034  0.0055 -0.4209
 5746ntf    on529485   7.155   1.538   3.154  0.3524  0.3430 -0.3766
 5746ntf    on529486   7.039   1.181   3.420  0.7345 -0.8214 -0.2573
 5746ntf    on529487   6.949   1.327   3.246  0.6236  0.3065  0.4506
 5746ntf    fn429488   6.975   1.377   3.613  0.1662 -0.5649 -0.3903
 5746ntf    fn429489   6.985   1.544   3.495  0.5966 -0.3155 -0.5249
 5746ntf    fn429490   6.815   1.428   3.475 -0.1507  0.9487 -0.2859
 5747ntf    cn129491   1.565   6.021   6.404  0.1597 -0.5710 -0.0247
 5747ntf    sn229492   1.716   6.029   6.303  0.2158 -0.0530  0.1019
 5747ntf    nn329493   1.770   5.882   6.310 -0.3151 -0.2570 -0.0932
 5747ntf    sn229494   1.850   5.808   6.422  0.0364  0.0394 -0.1470
 5747ntf    cn129495   1.720   5.720   6.514 -0.0376  0.0938 -0.1999
 5747ntf    fn429496   1.466   5.941   6.367  0.0395 -0.3228 -0.2409
 5747ntf    fn429497   1.583   5.984   6.530 -0.2030  0.3965  0.3212
 5747ntf    fn429498   1.508   6.140   6.407  0.8105 -0.2252 -0.9250
 5747ntf    on529499   1.668   6.070   6.173  0.1999  0.2239  0.1936
 5747ntf    on529500   1.797   6.123   6.377 -0.1236  0.3868 -0.0730
 5747ntf    on529501   1.924   5.883   6.521 -0.1517 -0.3720  0.3151
 5747ntf    on529502   1.921   5.696   6.366 -0.3644 -0.2307 -0.1169
 5747ntf    fn429503   1.638   5.799   6.582 -0.0911 -0.1123 -0.0251
 5747ntf    fn429504   1.644   5.639   6.442  0.0443 -0.2736  0.1234
 5747ntf    fn429505   1.765   5.657   6.621  0.1715  0.8817  0.1785
 5748ntf    cn129506   1.809   5.177   6.476 -0.1403 -0.4302 -0.4351
 5748ntf    sn229507   1.709   5.138   6.328 -0.1582 -0.0906 -0.5130
 5748ntf    nn329508   1.815   5.133   6.212  0.2820 -0.3182 -0.1080
 5748ntf    sn229509   1.837   5.236   6.095  0.0861 -0.1463  0.0052
 5748ntf    cn129510   1.976   5.157   6.008  0.0761 -0.2135  0.0496
 5748ntf    fn429511   1.735   5.156   6.583 -0.0906  0.1307 -0.2894
 5748ntf    fn429512   1.915   5.102   6.501 -0.0241 -0.0885  0.1068
 5748ntf    fn429513   1.839   5.305   6.483  0.2744 -0.5232 -0.4729
 5748ntf    on529514   1.661   5.008   6.366 -0.2055  0.2392  0.5907
 5748ntf    on529515   1.614   5.246   6.321  0.1560  0.2136 -0.2049
 5748ntf    on529516   1.885   5.366   6.134  0.5347 -0.1931 -0.3831
 5748ntf    on529517   1.732   5.236   5.996  0.3146  0.2288 -0.2374
 5748ntf    fn429518   1.966   5.025   6.004 -0.1582 -0.2161  0.6693
 5748ntf    fn429519   1.983   5.200   5.883  0.4665  0.6172  0.3526
 5748ntf    fn429520   2.094   5.181   6.062  0.0873  0.1434 -0.1314
 5749ntf    cn129521   1.682   7.348   5.882 -0.1425  0.0888  0.3358
 5749ntf    sn229522   1.513   7.415   5.893 -0.3463 -0.3114 -0.3188
 5749ntf    nn329523   1.457   7.377   5.752 -0.7509 -0.4274 -0.1272
 5749ntf    sn229524   1.450   7.459   5.619  0.0204  0.0853  0.1412
 5749ntf    cn129525   1.278   7.519   5.633  0.1831  0.5283  0.2504
 5749ntf    fn429526   1.764   7.394   5.975 -0.0022 -0.3258  0.4190
 5749ntf    fn429527   1.693   7.217   5.900  0.8759  0.1327  0.1039
 5749ntf    fn429528   1.748   7.390   5.775 -0.5685 -0.2377 -0.0529
 5749ntf    on529529   1.467   7.343   6.009  0.4106  0.1502  0.2762
 5749ntf    on529530   1.526   7.558   5.901  0.0203 -0.3656  0.1526
 5749ntf    on529531   1.462   7.377   5.501  0.5536  0.5532 -0.1365
 5749ntf    on529532   1.523   7.583   5.614 -0.4255  0.3506  0.1166
 5749ntf    fn429533   1.188   7.426   5.655  0.0453  0.6562  0.2304
 5749ntf    fn429534   1.256   7.598   5.736 -0.0968  0.2929  0.3701
 5749ntf    fn429535   1.236   7.577   5.522  0.1998 -0.1912 -0.1355
 5750ntf    cn129536   5.824   5.028   4.571 -0.1511 -0.1858 -0.0049
 5750ntf    sn229537   5.888   5.170   4.664 -0.5203 -0.0262  0.0071
 5750ntf    nn329538   5.782   5.286   4.659  0.0657  0.5063 -0.2371
 5750ntf    sn229539   5.699   5.346   4.778  0.1639 -0.2738  0.2365
 5750ntf    cn129540   5.623   5.492   4.700  0.5168  0.0048  0.4121
 5750ntf    fn429541   5.702   4.992   4.608 -0.1173  0.0657  0.3479
 5750ntf    fn429542   5.811   5.056   4.442  0.4733  0.2191  0.0142
 5750ntf    fn429543   5.900   4.920   4.576 -0.1988 -0.2114  0.1562
 5750ntf    on529544   5.910   5.115   4.795 -0.3139 -0.1687 -0.0883
 5750ntf    on529545   6.005   5.195   4.584 -0.1515 -0.1118  0.5161
 5750ntf    on529546   5.773   5.403   4.888  0.0257 -0.0598  0.2202
 5750ntf    on529547   5.574   5.283   4.815 -0.0214 -0.3467 -0.4956
 5750ntf    fn429548   5.555   5.571   4.781 -0.3748  0.0688 -0.3883
 5750ntf    fn429549   5.710   5.571   4.638 -0.2113  0.5152  0.0285
 5750ntf    fn429550   5.531   5.455   4.613  0.5966  0.1341  0.2709
 5751ntf    cn129551   3.569   6.214   1.838 -0.1178 -0.1568  0.2554
 5751ntf    sn229552   3.646   6.135   1.983  0.1737 -0.2529  0.0486
 5751ntf    nn329553   3.652   6.256   2.082  0.0743 -0.4286  0.2712
 5751ntf    sn229554   3.757   6.293   2.192  0.3098  0.3767 -0.2142
 5751ntf    cn129555   3.632   6.315   2.321 -0.1431 -0.2250 -0.5487
 5751ntf    fn429556   3.634   6.322   1.799 -0.2063 -0.0550  0.3883
 5751ntf    fn429557   3.564   6.141   1.728  0.0215 -0.0976  0.2098
 5751ntf    fn429558   3.444   6.253   1.858 -0.0990 -0.0578  0.1774
 5751ntf    on529559   3.547   6.040   2.029 -0.1575  0.2179  0.3207
 5751ntf    on529560   3.775   6.083   1.945 -0.1182 -1.3326  0.4772
 5751ntf    on529561   3.817   6.424   2.181  0.8288  0.1643  0.0094
 5751ntf    on529562   3.839   6.186   2.245  0.1294  0.0116 -0.6618
 5751ntf    fn429563   3.574   6.199   2.348 -0.1437 -0.1365 -0.1524
 5751ntf    fn429564   3.682   6.354   2.437 -0.9722  0.4994 -0.4196
 5751ntf    fn429565   3.532   6.400   2.303 -0.1253 -0.2183 -0.6133
 5752ntf    cn129566   4.747   6.127   3.592 -0.1375 -0.3085 -0.4696
 5752ntf    sn229567   4.925   6.140   3.627 -0.2560 -0.1148  0.0822
 5752ntf    nn329568   4.983   6.182   3.487 -0.4190 -0.1635 -0.0010
 5752ntf    sn229569   5.003   6.331   3.441  0.3059 -0.2259  0.0976
 5752ntf    cn129570   4.975   6.300   3.264  0.2190 -0.1587  0.0996
 5752ntf    fn429571   4.730   6.039   3.495 -0.3156 -0.4722 -0.2916
 5752ntf    fn429572   4.676   6.093   3.698  0.6607 -0.3692  0.0553
 5752ntf    fn429573   4.710   6.245   3.545  0.2594  0.2378  0.5495
 5752ntf    on529574   4.944   6.234   3.734 -0.0170 -0.0581 -0.0102
 5752ntf    on529575   4.953   6.001   3.656 -0.2609 -0.1628 -0.1350
 5752ntf    on529576   5.138   6.381   3.449  0.2662 -0.0102 -0.5111
 5752ntf    on529577   4.897   6.424   3.469 -0.2006 -0.9250  0.5315
 5752ntf    fn429578   4.905   6.395   3.205 -0.0148 -0.0602  0.5308
 5752ntf    fn429579   5.090   6.286   3.200  0.4013  0.0088  0.3891
 5752ntf    fn429580   4.910   6.188   3.236  0.0154 -0.0730  0.2298
 5753ntf    cn129581   6.247   0.121   2.801 -0.1913  0.2934  0.0128
 5753ntf    sn229582   6.134   0.004   2.881 -0.3260  0.3715 -0.0638
 5753ntf    nn329583   6.067   0.090   2.994 -0.4196 -0.2789  0.3789
 5753ntf    sn229584   5.957   0.199   2.970 -0.0122  0.0552  0.0004
 5753ntf    cn129585   5.803   0.104   2.989 -0.0459  0.1329  0.1117
 5753ntf    fn429586   6.321   0.057   2.711 -0.5377  0.2445 -0.2394
 5753ntf    fn429587   6.188   0.216   2.729  0.0859  0.3776 -0.1058
 5753ntf    fn429588   6.332   0.177   2.886 -0.2377  0.2065  0.1169
 5753ntf    on529589   6.046  -0.032   2.772  0.0197  0.7981 -0.4837
 5753ntf    on529590   6.222  -0.094   2.939  0.4427  0.6539 -0.7398
 5753ntf    on529591   5.960   0.270   2.845 -0.0040  0.0396 -0.0084
 5753ntf    on529592   5.968   0.282   3.087 -0.1535 -0.1804  0.1824
 5753ntf    fn429593   5.694   0.179   2.977  0.0982  0.2557 -0.4288
 5753ntf    fn429594   5.801   0.019   2.889 -0.1953  0.0676  0.1695
 5753ntf    fn429595   5.801   0.029   3.098  0.2970 -0.1219 -0.0582
 5754ntf    cn129596   6.523   6.300   1.157 -0.0404  0.0423  0.2294
 5754ntf    sn229597   6.387   6.180   1.162 -0.2714  0.2738 -0.3910
 5754ntf    nn329598   6.418   6.093   1.036 -0.0661  0.6786 -0.6217
 5754ntf    sn229599   6.326   6.010   0.939 -0.0353 -0.1904  0.0833
 5754ntf    cn129600   6.319   6.125   0.799 -0.3394 -0.4425 -0.1093
 5754ntf    fn429601   6.521   6.368   1.044  0.2622 -0.0074  0.1931
 5754ntf    fn429602   6.513   6.385   1.258  0.5530  0.5657 -0.1430
 5754ntf    fn429603   6.645   6.248   1.156 -0.1743 -0.2613 -0.2591
 5754ntf    on529604   6.408   6.103   1.282 -0.3005  0.4295 -0.2848
 5754ntf    on529605   6.273   6.269   1.160 -0.2318  0.3494  0.3335
 5754ntf    on529606   6.188   5.995   0.978  0.0304  0.4177  0.5683
 5754ntf    on529607   6.385   5.888   0.888  0.0629 -0.2487  0.3342
 5754ntf    fn429608   6.254   6.239   0.820  0.2499 -0.2225  0.5632
 5754ntf    fn429609   6.440   6.152   0.754 -0.2644 -0.5558  0.0264
 5754ntf    fn429610   6.254   6.065   0.701 -0.5056 -0.5821  0.0853
 5755ntf    cn129611   5.777   4.730   3.751  0.0890 -0.0869  0.2099
 5755ntf    sn229612   5.706   4.748   3.584  0.0376 -0.0749  0.2329
 5755ntf    nn329613   5.562   4.690   3.611 -0.1617  0.0170 -0.5947
 5755ntf    sn229614   5.497   4.548   3.599  0.1921 -0.1771 -0.2613
 5755ntf    cn129615   5.463   4.519   3.775  0.3210 -0.0949 -0.2227
 5755ntf    fn429616   5.691   4.775   3.840 -0.3243  0.4819 -0.4602
 5755ntf    fn429617   5.811   4.607   3.786 -0.3375 -0.1902  0.2730
 5755ntf    fn429618   5.890   4.798   3.760  0.3941 -0.5454 -0.0638
 5755ntf    on529619   5.705   4.891   3.573  0.0182 -0.0433  0.6411
 5755ntf    on529620   5.791   4.670   3.498 -0.4990 -0.1377 -0.2498
 5755ntf    on529621   5.591   4.444   3.567 -0.1242 -0.4395 -0.3414
 5755ntf    on529622   5.371   4.553   3.528  0.0115  0.2990  0.0888
 5755ntf    fn429623   5.581   4.534   3.832 -0.0166  0.4659  0.3450
 5755ntf    fn429624   5.373   4.591   3.841  0.1580 -0.7494  0.2801
 5755ntf    fn429625   5.427   4.396   3.807  0.5719 -0.2586 -0.5758
 5756ntf    cn129626   6.021   4.141   4.898  0.4125 -0.1891 -0.1472
 5756ntf    sn229627   6.044   4.113   4.720  0.0411 -0.0490 -0.2170
 5756ntf    nn329628   6.113   3.973   4.722 -0.2330 -0.1807  0.2131
 5756ntf    sn229629   6.075   3.837   4.654 -0.1276  0.0606 -0.3304
 5756ntf    cn129630   6.186   3.856   4.511 -0.0544 -0.4449 -0.3443
 5756ntf    fn429631   5.933   4.237   4.924 -0.4159 -0.8664 -0.4079
 5756ntf    fn429632   5.990   4.028   4.960  0.4778 -0.1872 -0.1104
 5756ntf    fn429633   6.127   4.188   4.963  0.3987 -0.1556 -0.1476
 5756ntf    on529634   5.909   4.111   4.667 -0.1110 -0.4272  0.1841
 5756ntf    on529635   6.132   4.225   4.695  0.2816 -0.1998 -0.0416
 5756ntf    on529636   5.942   3.817   4.600 -0.4142  0.1563  0.3386
 5756ntf    on529637   6.141   3.727   4.719 -0.2936  0.0984 -0.0960
 5756ntf    fn429638   6.199   3.755   4.427 -0.1163 -0.4776 -0.3143
 5756ntf    fn429639   6.149   3.962   4.441  1.1117  0.1331 -0.1088
 5756ntf    fn429640   6.308   3.880   4.556 -0.0595  0.0699 -0.5872
 5757ntf    cn129641   4.283   2.180   7.569  0.1189  0.1322 -0.3284
 5757ntf    sn229642   4.234   2.077   7.711 -0.3525  0.5443 -0.1902
 5757ntf    nn329643   4.289   1.938   7.664  0.1338  0.6233  0.1279
 5757ntf    sn229644   4.353   1.826   7.753 -0.2693  0.2066 -0.0991
 5757ntf    cn129645   4.527   1.877   7.757 -0.2892  0.2780 -0.1534
 5757ntf    fn429646   4.210   2.155   7.462  0.3292  0.5764 -0.5752
 5757ntf    fn429647   4.265   2.309   7.591  0.2385  0.1415 -0.2815
 5757ntf    fn429648   4.411   2.162   7.539 -0.0296 -0.6035 -0.5634
 5757ntf    on529649   4.293   2.136   7.829 -0.5771  0.2989  0.0446
 5757ntf    on529650   4.091   2.092   7.705 -0.3559  0.2844 -0.7792
 5757ntf    on529651   4.347   1.697   7.688  0.1922  0.3023 -0.3371
 5757ntf    on529652   4.323   1.816   7.894 -0.1149 -0.5226 -0.1130
 5757ntf    fn429653   4.603   1.769   7.768 -0.4942  0.1938  0.5034
 5757ntf    fn429654   4.570   1.938   7.648  0.4620  0.1721  0.0750
 5757ntf    fn429655   4.553   1.956   7.860  0.0149 -0.6561  0.5048
 5758ntf    cn129656   3.834   3.759   7.058  0.2036 -0.0337  0.4546
 5758ntf    sn229657   3.739   3.914   7.064  0.2705  0.0153  0.2245
 5758ntf    nn329658   3.630   3.881   7.171  0.0898  0.2096  0.1023
 5758ntf    sn229659   3.649   3.893   7.327 -0.1405 -0.0613  0.1510
 5758ntf    cn129660   3.633   3.721   7.384  0.0844 -0.2919 -0.4713
 5758ntf    fn429661   3.760   3.676   6.988  0.8392 -0.3287  0.1264
 5758ntf    fn429662   3.944   3.786   6.990  0.0224  0.1063  0.2175
 5758ntf    fn429663   3.869   3.710   7.176 -0.0101 -0.0054  0.5303
 5758ntf    on529664   3.836   4.018   7.090 -0.0089  0.2962  0.1381
 5758ntf    on529665   3.676   3.925   6.934 -0.2026 -0.0242  0.4499
 5758ntf    on529666   3.540   3.963   7.389  0.1591  0.3619  0.2031
 5758ntf    on529667   3.779   3.935   7.372 -0.5981  0.1950  1.2545
 5758ntf    fn429668   3.751   3.662   7.377  0.3530  0.1943 -0.1160
 5758ntf    fn429669   3.587   3.712   7.508 -0.5746  0.0204 -0.6888
 5758ntf    fn429670   3.554   3.645   7.310  0.0202 -0.3405 -0.3537
 5759ntf    cn129671   5.934   0.741   0.209  0.0910 -0.0679  0.1860
 5759ntf    sn229672   6.031   0.671   0.071 -0.1466  0.0394 -0.0367
 5759ntf    nn329673   5.990   0.778  -0.036  0.3474  0.2550 -0.0117
 5759ntf    sn229674   6.056   0.911  -0.089  0.3506  0.0788 -0.4550
 5759ntf    cn129675   6.161   0.855  -0.226  0.1599  0.2591 -0.6754
 5759ntf    fn429676   5.974   0.865   0.230  0.6461 -0.1333 -0.4366
 5759ntf    fn429677   5.803   0.745   0.194  0.1451  0.0339 -0.2857
 5759ntf    fn429678   5.955   0.681   0.325 -0.3462 -0.0183  0.2906
 5759ntf    on529679   6.171   0.671   0.107 -0.2070  0.0074  0.1998
 5759ntf    on529680   5.968   0.545   0.041 -0.2377 -0.1892  1.0506
 5759ntf    on529681   6.154   0.965   0.002  0.0045 -0.2454  0.1206
 5759ntf    on529682   5.957   0.992  -0.155 -0.2738 -0.4027 -0.1212
 5759ntf    fn429683   6.092   0.765  -0.295  0.1160  0.1895 -0.5409
 5759ntf    fn429684   6.187   0.953  -0.311  1.0338  0.3541 -0.3065
 5759ntf    fn429685   6.280   0.806  -0.198 -0.0696  0.0148 -0.1037
 5760ntf    cn129686   3.088   5.291   6.604  0.0687  0.2601 -0.3199
 5760ntf    sn229687   3.065   5.469   6.633  0.1692  0.2225 -0.0140
 5760ntf    nn329688   2.910   5.469   6.662  0.0759 -0.3905 -0.4852
 5760ntf    sn229689   2.832   5.469   6.798  0.3273  0.1385 -0.3373
 5760ntf    cn129690   2.799   5.645   6.830 -0.2362 -0.0595  0.1898
 5760ntf    fn429691   3.029   5.227   6.704 -0.1159  0.3915 -0.3441
 5760ntf    fn429692   3.028   5.245   6.495  0.3606  0.3555 -0.5233
 5760ntf    fn429693   3.214   5.254   6.591  0.0661  0.1556 -0.0449
 5760ntf    on529694   3.159   5.491   6.740  0.0741  0.0080  0.1170
 5760ntf    on529695   3.096   5.531   6.508  0.2275 -0.7456 -0.4902
 5760ntf    on529696   2.907   5.429   6.915 -0.2277  0.3273  0.0826
 5760ntf    on529697   2.695   5.429   6.782  0.1569  0.3423  0.5573
 5760ntf    fn429698   2.913   5.711   6.819  0.1891 -0.8508 -0.2755
 5760ntf    fn429699   2.709   5.699   6.750 -0.8601 -0.4164  0.6423
 5760ntf    fn429700   2.755   5.659   6.954 -0.3888  0.0725  0.1208
 5761ntf    cn129701   4.305   0.207   6.344 -0.5302  0.1853  0.4835
 5761ntf    sn229702   4.219   0.088   6.451 -0.2642 -0.1898  0.2842
 5761ntf    nn329703   4.141   0.011   6.339  0.2174  0.2180 -0.3383
 5761ntf    sn229704   3.989   0.025   6.302  0.0427  0.0333  0.2977
 5761ntf    cn129705   3.970  -0.109   6.180  0.3454  0.0206  0.2653
 5761ntf    fn429706   4.384   0.155   6.252  0.1978  1.1797  0.5206
 5761ntf    fn429707   4.223   0.286   6.278 -0.6509 -0.6529 -0.3855
 5761ntf    fn429708   4.386   0.288   6.412  0.3322 -0.1960 -0.0685
 5761ntf    on529709   4.320   0.011   6.519 -0.0651  0.2557  0.5027
 5761ntf    on529710   4.140   0.177   6.533 -0.1031  0.1296  0.0933
 5761ntf    on529711   3.961   0.149   6.234  0.0942  0.0321  0.2744
 5761ntf    on529712   3.895  -0.020   6.402 -0.8178  0.1885 -0.4182
 5761ntf    fn429713   4.009  -0.232   6.210  0.0665 -0.0563  0.3205
 5761ntf    fn429714   3.846  -0.122   6.136  0.2563 -0.1487  0.5638
 5761ntf    fn429715   4.041  -0.076   6.073 -0.9572  0.0797 -0.5961
 5762ntf    cn129716   7.424   2.572   4.995  0.0483 -0.0104 -0.2126
 5762ntf    sn229717   7.583   2.557   4.909  0.1490  0.1718 -0.0585
 5762ntf    nn329718   7.546   2.505   4.765 -0.0859 -0.1804  0.1268
 5762ntf    sn229719   7.512   2.587   4.635  0.3555  0.1397  0.2105
 5762ntf    cn129720   7.377   2.480   4.578  0.1951  0.3804  0.1374
 5762ntf    fn429721   7.340   2.481   4.949  0.5027 -0.2628 -0.5540
 5762ntf    fn429722   7.435   2.554   5.126  0.2036 -0.2308 -0.2547
 5762ntf    fn429723   7.367   2.688   4.967 -0.0464  0.0185  0.0898
 5762ntf    on529724   7.634   2.691   4.925  0.2058  0.1791 -0.2912
 5762ntf    on529725   7.644   2.454   4.990 -0.5412 -0.5902 -0.4963
 5762ntf    on529726   7.616   2.572   4.537 -0.0762 -0.1411 -0.2063
 5762ntf    on529727   7.454   2.718   4.656  0.2779  0.1839 -0.2755
 5762ntf    fn429728   7.285   2.469   4.672  0.1375  0.1905  0.0592
 5762ntf    fn429729   7.327   2.541   4.472 -0.4485  0.2645  0.3733
 5762ntf    fn429730   7.403   2.353   4.547 -0.7866 -0.0601  1.0908
 5763ntf    cn129731   6.144   3.319   3.238 -0.0896  0.4638 -0.1536
 5763ntf    sn229732   6.220   3.417   3.371 -0.0138  0.0358  0.1197
 5763ntf    nn329733   6.136   3.549   3.356  0.1509  0.1081 -0.1758
 5763ntf    sn229734   6.059   3.622   3.471  0.2931  0.3730 -0.2483
 5763ntf    cn129735   6.106   3.792   3.428 -0.0231  0.5537  0.1051
 5763ntf    fn429736   6.190   3.199   3.208  0.6274  0.5932  0.4073
 5763ntf    fn429737   6.013   3.313   3.255 -0.0616 -0.0458 -0.1134
 5763ntf    fn429738   6.155   3.388   3.125  0.4727  0.4797 -0.0907
 5763ntf    on529739   6.199   3.335   3.487 -0.6663 -0.3201 -0.2432
 5763ntf    on529740   6.355   3.441   3.327 -0.1653  0.2387 -0.2401
 5763ntf    on529741   6.125   3.608   3.599  0.0585 -0.7133 -0.2336
 5763ntf    on529742   5.915   3.619   3.468  0.3026 -0.2797 -0.1790
 5763ntf    fn429743   6.236   3.814   3.434  0.0389  0.2324 -0.0289
 5763ntf    fn429744   6.070   3.824   3.304 -0.6679 -0.3373  0.0548
 5763ntf    fn429745   6.040   3.869   3.513 -0.1815  0.5180  0.0156
 5764ntf    cn129746   4.779   7.427   7.350 -0.2859  0.0936  0.3490
 5764ntf    sn229747   4.713   7.278   7.270  0.0404  0.0950  0.0755
 5764ntf    nn329748   4.629   7.339   7.152  0.1423  0.3204  0.1208
 5764ntf    sn229749   4.474   7.360   7.139  0.2035  0.4164 -0.4786
 5764ntf    cn129750   4.424   7.226   7.027  0.2035  0.3396 -0.3861
 5764ntf    fn429751   4.834   7.381   7.461 -0.1342 -0.4189  0.0651
 5764ntf    fn429752   4.866   7.502   7.284 -0.2680 -0.3036 -0.0865
 5764ntf    fn429753   4.677   7.506   7.380 -0.5897 -0.2534  0.2437
 5764ntf    on529754   4.826   7.208   7.213 -0.4951 -0.5279 -0.2417
 5764ntf    on529755   4.639   7.207   7.371  0.2553 -0.6476 -0.2771
 5764ntf    on529756   4.445   7.479   7.063 -0.0031  0.4008 -0.4254
 5764ntf    on529757   4.385   7.340   7.251 -0.1861 -1.0263 -1.0238
 5764ntf    fn429758   4.472   7.248   6.906  0.1448  0.0620 -0.4625
 5764ntf    fn429759   4.455   7.102   7.062  0.3670  0.5845  0.3509
 5764ntf    fn429760   4.292   7.224   7.028  0.2077 -0.1055  0.4696
 5765ntf    cn129761   1.462   3.336   6.187  0.2255 -0.4640  0.1161
 5765ntf    sn229762   1.579   3.268   6.066  0.3809 -0.2487  0.1442
 5765ntf    nn329763   1.707   3.327   6.134 -0.0219  0.6722  0.1119
 5765ntf    sn229764   1.849   3.270   6.172 -0.1204  0.3318 -0.0308
 5765ntf    cn129765   1.813   3.180   6.326  0.3147 -0.0302 -0.1408
 5765ntf    fn429766   1.337   3.301   6.161  0.2241 -0.3357 -0.0486
 5765ntf    fn429767   1.479   3.294   6.312  0.4154 -0.3787  0.1180
 5765ntf    fn429768   1.454   3.468   6.183 -0.0816 -0.5004 -0.6701
 5765ntf    on529769   1.557   3.126   6.081  0.6436 -0.2966  0.0906
 5765ntf    on529770   1.544   3.333   5.942 -0.1258  0.1702  0.5008
 5765ntf    on529771   1.941   3.370   6.219  0.1026 -0.1561  0.5823
 5765ntf    on529772   1.902   3.172   6.081  0.2177  0.0982  0.4187
 5765ntf    fn429773   1.756   3.259   6.416 -0.1294 -0.4888 -0.0177
 5765ntf    fn429774   1.734   3.079   6.297  0.0040  0.2367 -0.2298
 5765ntf    fn429775   1.927   3.139   6.380  0.3661 -0.0227 -0.2436
 5766ntf    cn129776   2.392   5.495   0.089  0.2892  0.0361 -0.2061
 5766ntf    sn229777   2.415   5.596   0.238  0.1324  0.0032 -0.1588
 5766ntf    nn329778   2.279   5.671   0.220  0.2571  0.3330  0.2527
 5766ntf    sn229779   2.155   5.710   0.308 -0.0840 -0.0691 -0.0421
 5766ntf    cn129780   2.050   5.563   0.295 -0.1222 -0.0555  0.1156
 5766ntf    fn429781   2.476   5.394   0.084  0.1514 -0.0844 -0.0556
 5766ntf    fn429782   2.277   5.429   0.087  0.3443 -0.0558 -0.4746
 5766ntf    fn429783   2.399   5.564  -0.024 -0.7666  0.2441 -0.1562
 5766ntf    on529784   2.433   5.510   0.352 -0.6602 -0.1254 -0.1260
 5766ntf    on529785   2.530   5.676   0.203  0.1634  0.1201  0.2051
 5766ntf    on529786   2.076   5.808   0.237 -0.0793  0.3205  0.4815
 5766ntf    on529787   2.179   5.737   0.448  0.2690  0.5413 -0.2146
 5766ntf    fn429788   2.117   5.456   0.334 -0.2977 -0.2101 -0.0019
 5766ntf    fn429789   1.936   5.568   0.362  0.1868 -0.5412  0.6858
 5766ntf    fn429790   2.017   5.539   0.169 -0.0602 -0.2774  0.1421
 5767ntf    cn129791   1.707   6.809   5.685  0.2464  0.0251  0.0724
 5767ntf    sn229792   1.538   6.758   5.640  0.0965  0.3101  0.3104
 5767ntf    nn329793   1.554   6.716   5.490  0.2976 -0.2457  0.4859
 5767ntf    sn229794   1.529   6.573   5.430  0.2508  0.0740 -0.2759
 5767ntf    cn129795   1.681   6.544   5.335  0.3765  0.3570 -0.1636
 5767ntf    fn429796   1.789   6.706   5.697  0.3677  0.0911 -0.1782
 5767ntf    fn429797   1.770   6.880   5.594  0.5680 -0.0354  0.2476
 5767ntf    fn429798   1.714   6.887   5.792 -0.0375  0.1278  0.0189
 5767ntf    on529799   1.501   6.654   5.733  0.1278 -0.2936 -0.3474
 5767ntf    on529800   1.458   6.877   5.652  0.1750  0.4108 -0.1583
 5767ntf    on529801   1.428   6.576   5.327  0.1364  0.3926 -0.1564
 5767ntf    on529802   1.531   6.462   5.523  0.0453 -0.1991 -0.5951
 5767ntf    fn429803   1.798   6.568   5.391  0.2424  0.3027  0.1451
 5767ntf    fn429804   1.683   6.418   5.293 -0.3898  0.1620  0.3460
 5767ntf    fn429805   1.676   6.618   5.226  0.0462  0.1788 -0.2727
 5768ntf    cn129806   7.172   3.370   4.064  0.3710 -0.1348  0.2752
 5768ntf    sn229807   7.128   3.320   4.233  0.0877 -0.2643  0.1635
 5768ntf    nn329808   7.173   3.445   4.318 -0.3655  0.2988 -0.4249
 5768ntf    sn229809   7.120   3.488   4.459  0.1125 -0.2998 -0.0571
 5768ntf    cn129810   6.950   3.553   4.448  0.2044 -0.0394  0.0615
 5768ntf    fn429811   7.298   3.411   4.057  0.0447  0.9575  0.4710
 5768ntf    fn429812   7.146   3.282   3.970 -0.2906  0.5722 -0.2155
 5768ntf    fn429813   7.098   3.475   4.032 -0.1505 -0.4720  0.3639
 5768ntf    on529814   6.986   3.303   4.220  0.0551  0.2152 -0.0881
 5768ntf    on529815   7.215   3.205   4.238  0.6891  0.1896  0.2681
 5768ntf    on529816   7.185   3.605   4.513 -0.1975  0.0162 -0.3605
 5768ntf    on529817   7.113   3.381   4.555  0.1479  0.2125  0.5200
 5768ntf    fn429818   6.864   3.465   4.400  0.3613 -0.1954  0.0649
 5768ntf    fn429819   6.893   3.591   4.561 -0.6647  0.3860 -0.5124
 5768ntf    fn429820   6.935   3.658   4.369 -0.1616 -0.0382  0.1314
 5769ntf    cn129821   5.937   3.538   6.143  0.1496 -0.1043  0.2117
 5769ntf    sn229822   5.949   3.712   6.091 -0.2130 -0.0787  0.2098
 5769ntf    nn329823   5.916   3.712   5.937 -0.0678  0.2570  0.1786
 5769ntf    sn229824   5.993   3.783   5.821 -0.2084  0.2359  0.0724
 5769ntf    cn129825   5.871   3.901   5.757 -0.4182 -0.0156  0.0058
 5769ntf    fn429826   5.828   3.484   6.091  0.3935  0.0508 -0.4675
 5769ntf    fn429827   6.037   3.476   6.083  0.3620  0.0686  0.3853
 5769ntf    fn429828   5.945   3.516   6.273  0.4561 -0.2119  0.1750
 5769ntf    on529829   5.858   3.788   6.173 -0.0371  0.0715  0.2645
 5769ntf    on529830   6.085   3.746   6.124 -0.1973 -0.2712  0.3492
 5769ntf    on529831   6.005   3.692   5.709 -0.0049  0.1649  0.1522
 5769ntf    on529832   6.106   3.870   5.843 -0.3088  0.3170  0.2568
 5769ntf    fn429833   5.917   4.003   5.686 -0.0491 -0.0874  0.1403
 5769ntf    fn429834   5.777   3.858   5.675  0.0666 -0.3673 -0.3697
 5769ntf    fn429835   5.810   3.966   5.855  0.1292 -0.0044  0.3458
 5770ntf    cn129836   2.983   6.122   2.848  0.1019 -0.3138 -0.3760
 5770ntf    sn229837   2.949   6.143   3.025  0.5048  0.0627 -0.3395
 5770ntf    nn329838   2.827   6.045   3.038  0.0624  0.6239 -0.2193
 5770ntf    sn229839   2.677   6.092   3.030 -0.0822  0.2087  0.0222
 5770ntf    cn129840   2.642   6.128   3.205 -0.0704 -0.3942  0.1522
 5770ntf    fn429841   3.007   6.001   2.800 -0.6201 -0.5328 -0.1931
 5770ntf    fn429842   2.888   6.161   2.764 -0.1140 -0.3749 -0.1610
 5770ntf    fn429843   3.086   6.194   2.806 -0.1073  0.2243  0.0267
 5770ntf    on529844   3.064   6.090   3.094  0.4706  0.4469  0.0175
 5770ntf    on529845   2.921   6.284   3.038 -0.4178 -0.1054 -0.3991
 5770ntf    on529846   2.597   5.977   2.994 -0.9525  0.5892  0.6866
 5770ntf    on529847   2.651   6.215   2.960 -0.3977  0.1164 -0.0253
 5770ntf    fn429848   2.711   6.228   3.256  0.5680 -0.5778 -0.3375
 5770ntf    fn429849   2.516   6.154   3.235 -0.1702 -0.2070 -0.4184
 5770ntf    fn429850   2.679   6.022   3.274 -0.3233 -0.3683  0.3319
 5771ntf    cn129851   0.540   1.588   6.607  0.2500 -0.2050  0.1888
 5771ntf    sn229852   0.670   1.711   6.573 -0.3052  0.2875 -0.1805
 5771ntf    nn329853   0.751   1.720   6.707 -0.5044 -0.2462 -0.0202
 5771ntf    sn229854   0.903   1.695   6.737 -0.4084  0.1482 -0.1651
 5771ntf    cn129855   0.884   1.606   6.895  0.6412 -0.1995 -0.2240
 5771ntf    fn429856   0.587   1.469   6.640  0.3905 -0.3964 -0.6822
 5771ntf    fn429857   0.459   1.633   6.702 -0.1099 -0.5661  0.0515
 5771ntf    fn429858   0.461   1.575   6.502  0.4707 -0.1974  0.0225
 5771ntf    on529859   0.735   1.652   6.459  0.0337 -0.0673  0.1949
 5771ntf    on529860   0.600   1.835   6.551  0.0305  0.5558  0.2411
 5771ntf    on529861   0.966   1.818   6.778 -0.2353 -0.0496  0.1689
 5771ntf    on529862   0.974   1.602   6.652  0.2128 -0.3102  0.8343
 5771ntf    fn429863   0.782   1.523   6.878 -0.3243  0.9011  0.0096
 5771ntf    fn429864   0.990   1.536   6.929  0.3266 -0.2261  0.7403
 5771ntf    fn429865   0.857   1.687   6.996 -0.0721 -0.1816 -0.4194
 5772ntf    cn129866   5.525   3.936   5.323 -0.1144  0.1906  0.1349
 5772ntf    sn229867   5.524   4.097   5.240  0.1750  0.0371 -0.1695
 5772ntf    nn329868   5.573   4.177   5.366 -0.3706 -0.0888  0.1249
 5772ntf    sn229869   5.710   4.251   5.387 -0.4450  0.0783  0.0296
 5772ntf    cn129870   5.801   4.123   5.479  0.0664  0.0809 -0.4709
 5772ntf    fn429871   5.650   3.897   5.340 -0.1528  0.0363  0.0663
 5772ntf    fn429872   5.450   3.935   5.432 -0.4373 -0.0556 -0.0892
 5772ntf    fn429873   5.472   3.840   5.249  0.2321  0.0726  0.0353
 5772ntf    on529874   5.612   4.061   5.132 -0.0315 -0.4098 -0.1934
 5772ntf    on529875   5.383   4.106   5.209  0.0138 -0.5043  0.3935
 5772ntf    on529876   5.706   4.364   5.476 -0.4335  0.0219  0.1021
 5772ntf    on529877   5.795   4.263   5.271  0.2404  0.3705  0.5574
 5772ntf    fn429878   5.728   4.061   5.570  0.2133 -0.0828 -0.4646
 5772ntf    fn429879   5.845   4.022   5.405 -0.2690 -0.2233 -0.2554
 5772ntf    fn429880   5.905   4.170   5.545 -0.1206  0.2985 -0.3305
 5773ntf    cn129881   0.123   1.365   5.928 -0.0546  0.1980 -0.2608
 5773ntf    sn229882   0.254   1.457   6.014 -0.0572  0.1255 -0.1780
 5773ntf    nn329883   0.371   1.421   5.915 -0.3679 -0.8981 -0.1835
 5773ntf    sn229884   0.462   1.294   5.903  0.3037 -0.4207 -0.1905
 5773ntf    cn129885   0.459   1.263   5.724  0.0765 -0.0400 -0.2533
 5773ntf    fn429886   0.001   1.410   5.951 -0.0880 -0.3141  0.6298
 5773ntf    fn429887   0.146   1.354   5.799  0.1937 -0.0941 -0.1938
 5773ntf    fn429888   0.118   1.237   5.963  0.2434  0.3467  0.3371
 5773ntf    on529889   0.228   1.599   6.006  0.1203  0.1852  0.2826
 5773ntf    on529890   0.273   1.405   6.147 -0.0540  0.8094  0.0937
 5773ntf    on529891   0.406   1.178   5.966 -0.0751 -0.0307  0.1936
 5773ntf    on529892   0.600   1.322   5.935  0.1650 -0.0812  0.1198
 5773ntf    fn429893   0.558   1.179   5.697  0.2654  0.0086  0.2861
 5773ntf    fn429894   0.349   1.206   5.677  0.0845  0.1311 -0.4814
 5773ntf    fn429895   0.480   1.370   5.650 -0.0528  0.4595  0.4280
 5774ntf    cn129896   2.227   4.269   7.179  0.0415  0.1548 -0.1243
 5774ntf    sn229897   2.342   4.331   7.305 -0.1233  0.4438 -0.1131
 5774ntf    nn329898   2.330   4.222   7.419  0.2812  1.1924  0.6599
 5774ntf    sn229899   2.259   4.216   7.559 -0.0247  0.1059  0.4653
 5774ntf    cn129900   2.400   4.247   7.669  0.3393 -0.2090  0.0928
 5774ntf    fn429901   2.126   4.202   7.232 -0.1005  0.0484 -0.5225
 5774ntf    fn429902   2.172   4.368   7.110 -0.4174  0.0932  0.1528
 5774ntf    fn429903   2.291   4.191   7.093 -0.3917 -0.0990 -0.2217
 5774ntf    on529904   2.475   4.321   7.249 -0.1828 -0.4469 -0.1085
 5774ntf    on529905   2.297   4.461   7.348 -0.2249  0.0789  0.9272
 5774ntf    on529906   2.229   4.078   7.585 -0.1648 -0.0092 -0.2668
 5774ntf    on529907   2.162   4.319   7.585  0.1486  0.5489 -0.5610
 5774ntf    fn429908   2.393   4.216   7.797  0.2956 -0.0804  0.1222
 5774ntf    fn429909   2.509   4.179   7.637  0.3848 -0.0811 -0.0231
 5774ntf    fn429910   2.435   4.375   7.671 -0.2366 -0.0399 -0.1804
 5775ntf    cn129911   3.017   1.766   1.166  0.5071  0.2339  0.2538
 5775ntf    sn229912   3.065   1.819   0.999 -0.0079  0.1533  0.0813
 5775ntf    nn329913   2.925   1.810   0.928  0.2427 -0.1142 -0.3860
 5775ntf    sn229914   2.840   1.922   0.856  0.1889  0.1192  0.0393
 5775ntf    cn129915   2.786   2.025   0.996  0.4057  0.0295  0.1908
 5775ntf    fn429916   2.912   1.834   1.209  0.3514  0.2898 -0.2132
 5775ntf    fn429917   2.986   1.638   1.163  0.1867  0.3163  0.0059
 5775ntf    fn429918   3.111   1.779   1.259  0.1487  0.5697  0.5751
 5775ntf    on529919   3.129   1.947   1.012  0.9525 -0.3173  0.0716
 5775ntf    on529920   3.144   1.705   0.961  0.2245  0.4558 -0.3504
 5775ntf    on529921   2.713   1.884   0.800  0.1192  0.1066  0.2043
 5775ntf    on529922   2.915   2.013   0.774 -0.7610 -0.0463 -1.0255
 5775ntf    fn429923   2.709   2.122   0.950  0.2099 -0.0154  0.4242
 5775ntf    fn429924   2.712   1.954   1.080  0.2458  0.2717  0.2554
 5775ntf    fn429925   2.887   2.073   1.067  0.5655 -0.9006  0.6085
 5776ntf    cn129926   2.707   4.884   1.259  0.6200  0.1736 -0.0101
 5776ntf    sn229927   2.753   5.033   1.353  0.2655  0.5554 -0.4366
 5776ntf    nn329928   2.612   5.055   1.418  0.1770 -0.1873 -0.3755
 5776ntf    sn229929   2.499   5.148   1.363 -0.1327 -0.2109  0.2112
 5776ntf    cn129930   2.571   5.298   1.438 -0.5149  0.4696 -0.7536
 5776ntf    fn429931   2.629   4.921   1.159  0.0002  0.3167  0.5144
 5776ntf    fn429932   2.808   4.818   1.207 -0.0676 -0.6377 -0.3339
 5776ntf    fn429933   2.642   4.795   1.332  0.3817  0.0374 -0.3842
 5776ntf    on529934   2.855   4.997   1.448 -0.2324 -0.2739 -0.1991
 5776ntf    on529935   2.788   5.121   1.244  0.2309  1.0510 -0.0536
 5776ntf    on529936   2.376   5.122   1.434 -0.2420 -0.1752  0.0362
 5776ntf    on529937   2.486   5.172   1.221 -0.2440 -0.4077  0.1881
 5776ntf    fn429938   2.585   5.286   1.569  0.0403  0.6197 -0.7976
 5776ntf    fn429939   2.688   5.333   1.387 -0.0417 -0.6232 -0.4600
 5776ntf    fn429940   2.495   5.406   1.434 -0.2597  0.6466 -0.8407
 5777ntf    cn129941   7.086   2.416   7.063 -0.3868  0.0544  0.0588
 5777ntf    sn229942   6.955   2.344   7.166 -0.0028  0.0327  0.5383
 5777ntf    nn329943   6.847   2.458   7.173  0.1150  0.2037 -0.3059
 5777ntf    sn229944   6.693   2.444   7.151  0.0531  0.0102  0.2221
 5777ntf    cn129945   6.626   2.594   7.229  0.2415  0.1181  0.1773
 5777ntf    fn429946   7.044   2.469   6.950 -0.7707 -0.8248 -0.2173
 5777ntf    fn429947   7.151   2.510   7.131 -0.0141 -0.2237  0.0897
 5777ntf    fn429948   7.173   2.325   7.023  0.2527  0.2628  0.9429
 5777ntf    on529949   6.907   2.241   7.077  0.5474  0.8601 -0.7342
 5777ntf    on529950   7.024   2.307   7.287  0.4681  0.8018  0.5110
 5777ntf    on529951   6.631   2.342   7.232  0.0495 -0.7097 -0.6709
 5777ntf    on529952   6.646   2.456   7.015 -0.0995  0.4433  0.3128
 5777ntf    fn429953   6.499   2.622   7.204  0.2280 -0.1415 -0.0465
 5777ntf    fn429954   6.639   2.608   7.360 -0.4452 -0.0397  0.2705
 5777ntf    fn429955   6.696   2.696   7.185 -0.4647  0.3276 -0.4844
 5778ntf    cn129956   1.679   6.829   4.336  0.2761  0.0092  0.2852
 5778ntf    sn229957   1.708   6.674   4.428  0.1791  0.0787  0.4343
 5778ntf    nn329958   1.759   6.582   4.311 -0.2137 -0.3166  0.5708
 5778ntf    sn229959   1.766   6.426   4.298 -0.1998 -0.2713  0.0211
 5778ntf    cn129960   1.605   6.395   4.219 -0.1388  0.0719 -0.2386
 5778ntf    fn429961   1.619   6.920   4.411 -0.1254  0.3637 -0.4531
 5778ntf    fn429962   1.789   6.876   4.281  0.2218  0.0763  0.2341
 5778ntf    fn429963   1.599   6.804   4.234 -0.0277  0.2446  0.4625
 5778ntf    on529964   1.805   6.701   4.530 -0.0826 -0.6211  0.8744
 5778ntf    on529965   1.574   6.637   4.467 -0.0411 -0.6664 -0.9491
 5778ntf    on529966   1.775   6.355   4.424  0.3436  0.4201  0.3773
 5778ntf    on529967   1.851   6.382   4.190 -0.2175 -0.1355 -0.0482
 5778ntf    fn429968   1.511   6.397   4.311  0.1910  0.1929  0.0999
 5778ntf    fn429969   1.564   6.485   4.131  0.0725 -0.0560 -0.4700
 5778ntf    fn429970   1.595   6.283   4.148  0.1971 -0.2354  0.1883
 5779ntf    cn129971   5.430   6.856   4.272 -0.0165 -0.1577 -0.1847
 5779ntf    sn229972   5.412   6.986   4.146 -0.1669  0.0624  0.0603
 5779ntf    nn329973   5.256   7.002   4.138 -0.1478 -0.0078 -0.4928
 5779ntf    sn229974   5.163   7.094   4.224  0.1569 -0.1549 -0.0018
 5779ntf    cn129975   5.078   7.188   4.094 -0.3219 -0.3647  0.1551
 5779ntf    fn429976   5.553   6.817   4.298  0.1179  0.5057  0.1990
 5779ntf    fn429977   5.373   6.886   4.388  0.2512  0.1748 -0.1382
 5779ntf    fn429978   5.362   6.748   4.239 -0.5782 -0.1436  0.8541
 5779ntf    on529979   5.491   7.098   4.190  0.3045 -0.0202 -0.5612
 5779ntf    on529980   5.465   6.923   4.027 -0.2395  0.0179  0.0516
 5779ntf    on529981   5.230   7.198   4.297  0.0481 -0.0713 -0.0214
 5779ntf    on529982   5.043   7.031   4.276  0.0936 -0.1095 -0.0922
 5779ntf    fn429983   5.051   7.111   3.990 -0.4351 -0.2508  0.1001
 5779ntf    fn429984   4.960   7.231   4.136 -0.2650 -0.0926  0.0374
 5779ntf    fn429985   5.140   7.299   4.059 -0.4194 -0.3803 -0.0689
 5780ntf    cn129986   7.416   7.350   1.160 -0.2161  0.4512 -0.5311
 5780ntf    sn229987   7.588   7.304   1.122 -0.1732  0.1807 -0.0072
 5780ntf    nn329988   7.648   7.431   1.052 -0.0132 -0.0002 -0.2013
 5780ntf    sn229989   7.676   7.466   0.902 -0.0691 -0.0185 -0.2163
 5780ntf    cn129990   7.852   7.420   0.894  0.0990  0.5095  0.3616
 5780ntf    fn429991   7.342   7.246   1.193  0.5774  0.0006 -0.1377
 5780ntf    fn429992   7.430   7.429   1.265  0.3542 -0.2572 -0.0603
 5780ntf    fn429993   7.356   7.422   1.066 -1.0868  0.6063  0.1360
 5780ntf    on529994   7.634   7.280   1.257 -0.1806 -0.3491 -0.0962
 5780ntf    on529995   7.580   7.188   1.038 -0.2737 -0.0075  0.2610
 5780ntf    on529996   7.662   7.609   0.885 -0.9664 -0.0529  0.1932
 5780ntf    on529997   7.610   7.387   0.802  0.5264 -0.0657 -0.5802
 5780ntf    fn429998   7.928   7.441   1.001 -0.0195 -0.0813  0.5636
 5780ntf    fn429999   7.876   7.294   0.861  0.1236  0.5907  0.0664
 5780ntf    fn430000   7.901   7.490   0.793  0.0703  0.0053 -0.0031
 5781ntf    cn130001   4.725   1.921   5.314 -0.0047 -0.1537  0.3563
 5781ntf    sn230002   4.889   2.000   5.328 -0.1174  0.1225  0.1168
 5781ntf    nn330003   4.957   1.934   5.203  0.1608  0.0697  0.2965
 5781ntf    sn230004   5.035   1.798   5.196  0.1345  0.0571  0.2535
 5781ntf    cn130005   4.931   1.710   5.075  0.1241 -0.0380  0.3309
 5781ntf    fn430006   4.630   1.996   5.366 -0.3111 -0.2126 -0.1132
 5781ntf    fn430007   4.698   1.902   5.186  0.2313 -0.5945  0.3686
 5781ntf    fn430008   4.720   1.799   5.365 -0.8087  0.0675  0.8068
 5781ntf    on530009   4.856   2.140   5.314  0.0434  0.1821  0.3179
 5781ntf    on530010   4.938   1.954   5.455 -0.2193 -0.0213  0.1040
 5781ntf    on530011   5.030   1.708   5.308 -0.0253 -0.3800 -0.0995
 5781ntf    on530012   5.158   1.810   5.122 -0.3276 -0.0085 -0.5368
 5781ntf    fn430013   4.938   1.760   4.953 -0.2950  0.3444  0.4600
 5781ntf    fn430014   4.965   1.583   5.062  0.2549 -0.0120  0.4154
 5781ntf    fn430015   4.801   1.709   5.100  0.0039  0.2141 -0.2554
 5782ntf    cn130016   2.975   0.003   6.353 -0.0423 -0.1787 -0.2643
 5782ntf    sn230017   2.950  -0.102   6.499 -0.0692  0.3225  0.0972
 5782ntf    nn330018   2.797  -0.132   6.479 -0.0425  0.0769  0.2555
 5782ntf    sn230019   2.670  -0.076   6.552 -0.3233  0.2029 -0.3224
 5782ntf    cn130020   2.633   0.073   6.454  0.2393  0.3999 -0.2367
 5782ntf    fn430021   2.882   0.098   6.349  0.4997  0.3754  0.0928
 5782ntf    fn430022   3.092   0.065   6.353 -0.4025  0.5159 -0.2109
 5782ntf    fn430023   2.966  -0.058   6.236  0.1620 -0.6172 -0.0535
 5782ntf    on530024   3.036  -0.214   6.469 -0.4861  0.1205 -0.3673
 5782ntf    on530025   2.989  -0.009   6.601 -0.0913  0.0990  0.3093
 5782ntf    on530026   2.684  -0.025   6.686 -0.3203  0.3732 -0.3876
 5782ntf    on530027   2.558  -0.159   6.515  0.1289 -0.4714 -0.2041
 5782ntf    fn430028   2.740   0.151   6.447  0.6798 -0.2031 -0.3224
 5782ntf    fn430029   2.602   0.048   6.328  0.0847 -0.2410 -0.0789
 5782ntf    fn430030   2.537   0.142   6.513  0.3953 -0.1366  0.6759
 5783ntf    cn130031   2.661   6.385   6.370 -0.2502  0.3236 -0.1185
 5783ntf    sn230032   2.666   6.226   6.281  0.1406  0.1513  0.2086
 5783ntf    nn330033   2.734   6.127   6.382  0.2086  0.1402  0.1523
 5783ntf    sn230034   2.670   6.037   6.494  0.0079  0.2087  0.0939
 5783ntf    cn130035   2.743   6.114   6.641  0.4053  0.0236 -0.0036
 5783ntf    fn430036   2.780   6.434   6.397 -0.2419  0.2143  0.0474
 5783ntf    fn430037   2.601   6.480   6.301 -0.4154  0.3414  0.0471
 5783ntf    fn430038   2.607   6.368   6.490 -0.7095  0.4777 -0.2990
 5783ntf    on530039   2.526   6.211   6.249  0.3821 -0.0764 -0.7937
 5783ntf    on530040   2.748   6.255   6.166 -0.4151  0.0479 -0.2203
 5783ntf    on530041   2.732   5.906   6.492 -0.0720  0.1763 -0.4062
 5783ntf    on530042   2.528   6.039   6.517  0.0251 -0.4138  0.2799
 5783ntf    fn430043   2.732   6.040   6.750 -0.1754 -0.4633 -0.3862
 5783ntf    fn430044   2.871   6.143   6.623  0.1944  0.5533 -0.6988
 5783ntf    fn430045   2.678   6.228   6.657 -0.3326 -0.3531 -0.2389
 5784ntf    cn130046   4.580   1.130   3.981 -0.3674 -0.3185  0.1929
 5784ntf    sn230047   4.693   1.082   3.848 -0.0780  0.0152  0.3173
 5784ntf    nn330048   4.690   1.215   3.764 -0.0116 -0.2612 -0.1251
 5784ntf    sn230049   4.807   1.279   3.681 -0.0661 -0.1265 -0.0985
 5784ntf    cn130050   4.838   1.420   3.790 -0.0375 -0.2093  0.0006
 5784ntf    fn430051   4.453   1.155   3.953 -0.2428 -0.1609 -0.2344
 5784ntf    fn430052   4.583   1.035   4.073 -0.2900 -0.1713  0.3426
 5784ntf    fn430053   4.619   1.241   4.042  0.6190 -0.2675 -0.5219
 5784ntf    on530054   4.817   1.051   3.915 -0.0281 -0.6979 -0.0892
 5784ntf    on530055   4.624   0.972   3.785  0.2325 -0.0829  0.1418
 5784ntf    on530056   4.763   1.345   3.560  0.4208  0.6709  0.1583
 5784ntf    on530057   4.931   1.206   3.675  0.1716  0.2594  0.0881
 5784ntf    fn430058   4.726   1.486   3.812  0.1988  0.1114  0.2621
 5784ntf    fn430059   4.876   1.370   3.907  0.1832 -0.0206  0.0103
 5784ntf    fn430060   4.930   1.508   3.753 -0.3858  0.1267 -0.0742
 5785ntf    cn130061   5.728   1.476   0.663  0.4134 -0.1046  0.2869
 5785ntf    sn230062   5.653   1.316   0.708 -0.0241 -0.0500 -0.2418
 5785ntf    nn330063   5.610   1.274   0.563 -0.5802 -0.2225 -0.0265
 5785ntf    sn230064   5.659   1.147   0.484 -0.1257 -0.1230  0.0933
 5785ntf    cn130065   5.518   1.136   0.369  0.3267 -0.1098 -0.4654
 5785ntf    fn430066   5.761   1.534   0.778  0.6815 -0.4000  0.3610
 5785ntf    fn430067   5.836   1.470   0.587  0.0417  0.0585 -0.2621
 5785ntf    fn430068   5.645   1.556   0.600 -0.2521 -0.1896  1.0348
 5785ntf    on530069   5.750   1.239   0.782  0.1371  0.1846 -0.2062
 5785ntf    on530070   5.551   1.357   0.801  0.3744  0.1773  0.1014
 5785ntf    on530071   5.654   1.023   0.557  0.1341 -0.2617 -0.1272
 5785ntf    on530072   5.769   1.166   0.392  0.0828  0.0353  0.3729
 5785ntf    fn430073   5.396   1.120   0.417  0.5490  0.1691  0.2077
 5785ntf    fn430074   5.520   1.243   0.291 -0.2289  0.0744 -0.2289
 5785ntf    fn430075   5.521   1.030   0.290 -0.2158  0.1365 -0.8233
 5786ntf    cn130076   4.856   6.883   4.682  0.5298 -0.1927  0.0401
 5786ntf    sn230077   4.853   6.885   4.864  0.0688 -0.1736  0.0332
 5786ntf    nn330078   4.726   6.972   4.894  0.3217  0.1562  0.1488
 5786ntf    sn230079   4.723   7.125   4.930 -0.2485  0.0670  0.4982
 5786ntf    cn130080   4.544   7.157   4.920 -0.3105 -0.2227  0.6854
 5786ntf    fn430081   4.879   6.997   4.619 -0.0152  0.1230  0.4041
 5786ntf    fn430082   4.946   6.802   4.629  0.2188 -0.6305  0.1738
 5786ntf    fn430083   4.743   6.833   4.636 -0.0671  0.5781  0.6522
 5786ntf    on530084   4.854   6.746   4.901 -0.6993 -0.2259 -0.1203
 5786ntf    on530085   4.976   6.955   4.889 -0.5180  0.8601  0.0710
 5786ntf    on530086   4.782   7.212   4.831  0.2963 -1.2785 -0.3834
 5786ntf    on530087   4.762   7.150   5.066  0.5022  0.9123  0.1419
 5786ntf    fn430088   4.518   7.205   4.799  1.1385 -1.0156  0.0293
 5786ntf    fn430089   4.463   7.055   4.946 -0.5933 -0.2304 -0.1791
 5786ntf    fn430090   4.520   7.246   5.014 -0.5371 -0.0970  0.5102
 5787ntf    cn130091   3.020   4.622   7.310  0.0674  0.3378 -0.0992
 5787ntf    sn230092   3.128   4.509   7.403 -0.2410  0.0102 -0.1360
 5787ntf    nn330093   3.231   4.612   7.461  0.0306 -0.4093  0.1320
 5787ntf    sn230094   3.322   4.599   7.589  0.5168 -0.2699 -0.1935
 5787ntf    cn130095   3.390   4.767   7.599  0.0204 -0.0678 -0.1586
 5787ntf    fn430096   2.980   4.715   7.395  0.2469 -0.0481  0.4187
 5787ntf    fn430097   3.089   4.681   7.214  0.2846  0.0135 -0.1433
 5787ntf    fn430098   2.916   4.560   7.256  0.0303  0.5128 -0.2250
 5787ntf    on530099   3.042   4.460   7.509  0.0171  0.4711  0.2910
 5787ntf    on530100   3.179   4.425   7.297 -0.2638 -0.2223  0.0352
 5787ntf    on530101   3.445   4.528   7.569  0.7291  0.1677 -0.4681
 5787ntf    on530102   3.252   4.586   7.714  0.6053 -0.3644 -0.1545
 5787ntf    fn430103   3.461   4.796   7.491 -0.1199  0.0100 -0.2303
 5787ntf    fn430104   3.302   4.865   7.610 -0.0991 -0.1969  0.0354
 5787ntf    fn430105   3.480   4.784   7.694 -0.1687 -0.1974  0.0452
 5788ntf    cn130106   2.594   7.147   1.748  0.0607 -0.2500 -0.0208
 5788ntf    sn230107   2.565   7.154   1.928  0.2338 -0.1941  0.0051
 5788ntf    nn330108   2.439   7.060   1.935 -0.0561  0.1540 -0.4215
 5788ntf    sn230109   2.315   7.066   2.032  0.2511  0.2489 -0.0294
 5788ntf    cn130110   2.395   7.059   2.195  0.5213  0.1270 -0.1664
 5788ntf    fn430111   2.494   7.201   1.681  0.0671 -0.6907 -0.3930
 5788ntf    fn430112   2.702   7.210   1.706  0.1859 -0.4395  0.0163
 5788ntf    fn430113   2.602   7.022   1.703 -0.7118 -0.3292  0.0398
 5788ntf    on530114   2.683   7.105   1.994 -0.1810 -0.9907  0.1652
 5788ntf    on530115   2.529   7.294   1.937 -0.2366 -0.2935 -0.2527
 5788ntf    on530116   2.238   6.944   2.025  0.1871  0.2999 -0.2206
 5788ntf    on530117   2.246   7.192   2.019 -0.6634 -0.2227  0.1935
 5788ntf    fn430118   2.460   6.945   2.214 -0.0423 -0.2363 -0.3804
 5788ntf    fn430119   2.483   7.156   2.215  0.3613  0.2211  0.0769
 5788ntf    fn430120   2.307   7.066   2.293  0.3669 -0.2695 -0.2754
 5789ntf    cn130121   0.366   2.917   1.792 -0.1254 -0.3501  0.1986
 5789ntf    sn230122   0.539   2.869   1.760  0.0650  0.1892  0.4046
 5789ntf    nn330123   0.513   2.767   1.642  0.2694  0.5043  0.0860
 5789ntf    sn230124   0.527   2.786   1.487  0.4027 -0.0425  0.0298
 5789ntf    cn130125   0.705   2.754   1.471  0.5823  0.6814  0.5206
 5789ntf    fn430126   0.320   3.006   1.706 -0.2857 -0.0175  0.6264
 5789ntf    fn430127   0.282   2.815   1.781 -0.3697 -0.1445  0.1654
 5789ntf    fn430128   0.343   2.963   1.914 -0.2703  0.6909 -0.2096
 5789ntf    on530129   0.601   2.995   1.726 -0.3691  0.4161  0.4486
 5789ntf    on530130   0.573   2.809   1.886  0.4463  0.1150  0.2667
 5789ntf    on530131   0.514   2.917   1.427  0.2464 -0.1361 -0.1415
 5789ntf    on530132   0.469   2.678   1.411  0.0902  0.3695 -0.3277
 5789ntf    fn430133   0.739   2.745   1.344 -0.1232 -0.3048  0.3910
 5789ntf    fn430134   0.785   2.844   1.525  0.8367  0.5014  0.4427
 5789ntf    fn430135   0.745   2.635   1.513 -0.4043  0.2437  0.2563
 5790ntf    cn130136   4.907   0.590   1.153 -0.1968  0.2390 -0.3569
 5790ntf    sn230137   4.825   0.620   1.312  0.2660  0.1497 -0.0982
 5790ntf    nn330138   4.780   0.770   1.303 -0.1094  0.0039 -0.7148
 5790ntf    sn230139   4.850   0.904   1.346 -0.2575 -0.1394 -0.0102
 5790ntf    cn130140   4.786   1.000   1.206 -0.0783  0.1893  0.1319
 5790ntf    fn430141   4.999   0.683   1.131 -0.1583  0.1835 -0.4327
 5790ntf    fn430142   4.972   0.475   1.153  0.3740  0.5527 -0.4522
 5790ntf    fn430143   4.831   0.583   1.045 -0.1459  0.0261 -0.3777
 5790ntf    on530144   4.715   0.526   1.310  0.8337 -0.5055 -0.5436
 5790ntf    on530145   4.927   0.589   1.409  0.3489  0.1834 -0.1743
 5790ntf    on530146   4.993   0.917   1.327 -0.2433  0.0022  0.1959
 5790ntf    on530147   4.792   0.970   1.459 -0.5320 -0.5578  0.0943
 5790ntf    fn430148   4.655   1.019   1.206 -0.0533  0.3951 -0.3488
 5790ntf    fn430149   4.849   1.116   1.199 -0.3151  0.2857 -0.4726
 5790ntf    fn430150   4.800   0.942   1.087 -0.6621  0.3551 -0.0200
 5791ntf    cn130151   0.297   5.271   4.316  0.2716  0.5005  0.2708
 5791ntf    sn230152   0.447   5.279   4.212  0.1267  0.0419  0.0228
 5791ntf    nn330153   0.444   5.143   4.133 -0.4314 -0.2538  0.5406
 5791ntf    sn230154   0.408   5.112   3.983 -0.0094 -0.0667  0.4000
 5791ntf    cn130155   0.559   5.175   3.903 -0.0877  0.1135  0.3937
 5791ntf    fn430156   0.253   5.386   4.364 -0.3420  0.3731  0.0174
 5791ntf    fn430157   0.205   5.200   4.253  0.2927  0.3052  0.4598
 5791ntf    fn430158   0.324   5.203   4.426 -0.5481  0.0842  0.2240
 5791ntf    on530159   0.446   5.393   4.124  0.5887 -0.2491 -0.3613
 5791ntf    on530160   0.559   5.277   4.303 -0.0977 -0.5860  0.2951
 5791ntf    on530161   0.303   5.194   3.928  0.2454  0.1271  0.1991
 5791ntf    on530162   0.414   4.972   3.947  0.5102 -0.0555  0.4305
 5791ntf    fn430163   0.584   5.105   3.793 -0.4735  0.3834  0.1284
 5791ntf    fn430164   0.545   5.299   3.860  0.6271  0.0667  0.0155
 5791ntf    fn430165   0.668   5.159   3.975  0.3649  0.2368 -0.2557
 5792ntf    cn130166   7.462   5.179   0.193  0.1757  0.3133 -0.2420
 5792ntf    sn230167   7.442   4.999   0.183 -0.0664  0.3140  0.2095
 5792ntf    nn330168   7.589   4.953   0.215  0.1077  0.5641 -0.2174
 5792ntf    sn230169   7.699   4.917   0.110 -0.1725  0.0174 -0.3256
 5792ntf    cn130170   7.640   4.746   0.089 -0.0509 -0.0751  0.0683
 5792ntf    fn430171   7.506   5.228   0.078  0.2184 -0.2633 -0.4749
 5792ntf    fn430172   7.346   5.241   0.205  0.2595  0.4158  0.0186
 5792ntf    fn430173   7.542   5.215   0.292 -0.0411 -0.0367  0.0615
 5792ntf    on530174   7.351   4.967   0.290  0.5551  0.6706  0.8476
 5792ntf    on530175   7.397   4.971   0.048 -0.7201  0.3425  0.4193
 5792ntf    on530176   7.828   4.905   0.174 -0.1457 -0.0845 -0.3963
 5792ntf    on530177   7.704   4.989  -0.015  0.0627  0.6735  0.0615
 5792ntf    fn430178   7.725   4.667   0.026  0.0157  0.1136 -0.0781
 5792ntf    fn430179   7.620   4.683   0.203  0.1192  0.0955  0.1919
 5792ntf    fn430180   7.523   4.736   0.027  0.0940 -0.2028 -0.1874
 5793ntf    cn130181   2.623   0.207   1.180  0.6245  0.0021  0.0949
 5793ntf    sn230182   2.702   0.052   1.127  0.0069 -0.1605 -0.3537
 5793ntf    nn330183   2.689  -0.034   1.257  0.1557  0.1613 -0.1231
 5793ntf    sn230184   2.589  -0.153   1.283  0.2389  0.1024 -0.0703
 5793ntf    cn130185   2.704  -0.290   1.254 -0.2776 -0.2897 -0.2729
 5793ntf    fn430186   2.496   0.197   1.214  0.6142 -0.5062 -0.0885
 5793ntf    fn430187   2.669   0.231   1.302 -0.1792  0.9646  0.2228
 5793ntf    fn430188   2.634   0.318   1.108  0.1448 -0.0629 -0.0840
 5793ntf    on530189   2.631   0.020   1.005 -0.2838 -0.2330 -0.1662
 5793ntf    on530190   2.836   0.098   1.103 -0.0342  0.3943  0.4539
 5793ntf    on530191   2.485  -0.167   1.184  0.4613 -0.2115 -0.2613
 5793ntf    on530192   2.547  -0.175   1.419 -0.4293 -0.2324 -0.3236
 5793ntf    fn430193   2.744  -0.312   1.130 -0.3673  0.6240 -0.4660
 5793ntf    fn430194   2.812  -0.280   1.330 -0.0631 -0.3110 -0.5720
 5793ntf    fn430195   2.648  -0.400   1.303 -0.4189 -0.1046 -0.0204
 5794ntf    cn130196   3.663   5.647   3.562 -0.3566 -0.0379 -0.1362
 5794ntf    sn230197   3.715   5.735   3.412 -0.0036  0.1612  0.1005
 5794ntf    nn330198   3.580   5.750   3.333  0.2073  0.2378 -0.2522
 5794ntf    sn230199   3.473   5.863   3.355  0.1293  0.1344 -0.0885
 5794ntf    cn130200   3.530   5.992   3.239  0.0530  0.0149 -0.2586
 5794ntf    fn430201   3.590   5.714   3.650 -0.0084  0.5439 -0.2855
 5794ntf    fn430202   3.605   5.530   3.542 -0.0323 -0.1970 -0.1590
 5794ntf    fn430203   3.772   5.609   3.627 -0.1861  0.0951 -0.3412
 5794ntf    on530204   3.770   5.858   3.462 -0.0656  0.3279 -0.2350
 5794ntf    on530205   3.808   5.652   3.339 -0.2297  0.5006 -0.5903
 5794ntf    on530206   3.466   5.935   3.479 -0.1810  0.6531 -0.4024
 5794ntf    on530207   3.346   5.824   3.299  0.3658 -0.2234 -0.3810
 5794ntf    fn430208   3.662   6.003   3.240  0.0868 -0.3228 -0.8355
 5794ntf    fn430209   3.502   5.949   3.117 -0.5529 -0.5285  0.0697
 5794ntf    fn430210   3.472   6.109   3.258 -0.2482 -0.0973 -0.4875
 5795ntf    cn130211   2.125   3.426   3.023  0.1088 -0.2440  0.0297
 5795ntf    sn230212   2.093   3.522   2.871  0.1711  0.0545  0.2035
 5795ntf    nn330213   2.164   3.659   2.900  0.2182  0.0633  0.0478
 5795ntf    sn230214   2.264   3.733   2.804  0.0515  0.1050 -0.0953
 5795ntf    cn130215   2.230   3.908   2.839 -0.4881 -0.0693  0.2740
 5795ntf    fn430216   2.104   3.500   3.131 -0.6464 -0.1396 -0.1843
 5795ntf    fn430217   2.072   3.306   3.035 -0.1437 -0.1875 -0.5038
 5795ntf    fn430218   2.256   3.412   3.013  0.1048 -0.2831  0.0332
 5795ntf    on530219   2.161   3.437   2.776  0.3653  0.4835 -0.0422
 5795ntf    on530220   1.949   3.516   2.874  0.1496  0.3981 -0.1438
 5795ntf    on530221   2.228   3.730   2.665 -0.3109  0.7104 -0.0188
 5795ntf    on530222   2.405   3.710   2.824 -0.0733 -0.3050  0.3408
 5795ntf    fn430223   2.102   3.938   2.853 -0.4207  0.2080  0.3094
 5795ntf    fn430224   2.296   3.951   2.945  0.0548  0.8732 -0.4253
 5795ntf    fn430225   2.269   3.982   2.736  0.8254 -0.2977  0.5809
 5796ntf    cn130226   7.578   0.755   4.380  0.3798  0.1744 -0.0690
 5796ntf    sn230227   7.605   0.577   4.356 -0.0654  0.0721  0.1836
 5796ntf    nn330228   7.704   0.588   4.235  0.4804  0.1219  0.6314
 5796ntf    sn230229   7.752   0.463   4.153 -0.1252  0.0829  0.3318
 5796ntf    cn130230   7.630   0.474   4.019  0.3411 -0.1596 -0.1165
 5796ntf    fn430231   7.509   0.808   4.280 -0.1027 -0.0211  0.1624
 5796ntf    fn430232   7.508   0.784   4.488 -0.0981 -0.6198 -0.1608
 5796ntf    fn430233   7.694   0.819   4.384  0.6575 -0.3039 -0.3532
 5796ntf    on530234   7.668   0.527   4.476  1.0920 -0.5793 -0.6726
 5796ntf    on530235   7.471   0.533   4.328  0.1243 -0.6103  0.3282
 5796ntf    on530236   7.727   0.335   4.213  0.2111  0.1927  0.7110
 5796ntf    on530237   7.877   0.494   4.086 -0.0104  0.1704  0.5855
 5796ntf    fn430238   7.627   0.593   3.962 -0.6288  0.0904  0.4290
 5796ntf    fn430239   7.661   0.386   3.925 -0.1504 -0.4160 -0.0412
 5796ntf    fn430240   7.506   0.439   4.051  0.2427  0.0679 -0.2479
 5797ntf    cn130241   6.824   5.943   0.641  0.3243  0.1338  0.5226
 5797ntf    sn230242   6.865   5.853   0.794  0.4477  0.0278  0.4279
 5797ntf    nn330243   6.952   5.731   0.748 -0.3182 -0.4504  0.2427
 5797ntf    sn230244   7.083   5.732   0.661 -0.3772  0.0401  0.1574
 5797ntf    cn130245   7.169   5.602   0.755  0.2147  0.5649  0.3422
 5797ntf    fn430246   6.928   6.002   0.585  0.3648  0.2830  0.7540
 5797ntf    fn430247   6.772   5.855   0.557  0.1940 -0.2204  0.9694
 5797ntf    fn430248   6.733   6.037   0.658 -0.3125 -0.3767  0.0144
 5797ntf    on530249   6.938   5.952   0.870  0.3368  0.2053  0.3045
 5797ntf    on530250   6.734   5.808   0.835  0.0497  0.6315 -0.1696
 5797ntf    on530251   7.176   5.840   0.682 -0.3634 -0.1092  0.8931
 5797ntf    on530252   7.063   5.673   0.531 -0.4571  0.8050 -0.1829
 5797ntf    fn430253   7.288   5.577   0.703  0.0413  0.1576  0.1402
 5797ntf    fn430254   7.190   5.638   0.881  0.0839  0.8247  0.2907
 5797ntf    fn430255   7.110   5.486   0.774  0.5993  0.3020 -0.0565
 5798ntf    cn130256   6.801   2.277   5.763 -0.6048  0.1534  0.1479
 5798ntf    sn230257   6.744   2.295   5.935 -0.0449  0.2407  0.3271
 5798ntf    nn330258   6.637   2.406   5.903 -0.0409  0.1515 -0.0023
 5798ntf    sn230259   6.506   2.458   5.971 -0.0231  0.1118  0.0628
 5798ntf    cn130260   6.387   2.458   5.833  0.0685  0.3106 -0.0148
 5798ntf    fn430261   6.707   2.281   5.671 -0.2125  0.1556 -0.2573
 5798ntf    fn430262   6.872   2.384   5.733 -0.2089 -0.1401  0.0330
 5798ntf    fn430263   6.869   2.165   5.744 -0.2239  0.4382 -0.1781
 5798ntf    on530264   6.689   2.166   5.967  0.0417  0.0112 -0.4377
 5798ntf    on530265   6.865   2.337   6.002 -0.1313  0.6843  0.2109
 5798ntf    on530266   6.504   2.598   6.006 -0.4427  0.2167 -0.3787
 5798ntf    on530267   6.449   2.365   6.066 -0.2374 -0.1803 -0.3489
 5798ntf    fn430268   6.266   2.497   5.870 -0.1468  0.0627 -0.4642
 5798ntf    fn430269   6.432   2.538   5.737 -0.3740  0.2040 -0.3093
 5798ntf    fn430270   6.371   2.336   5.785  0.0602  0.2095  0.2447
 5799ntf    cn130271   7.451   2.745   1.466 -0.1454  0.1257 -0.2461
 5799ntf    sn230272   7.425   2.566   1.483 -0.3503  0.1795 -0.0008
 5799ntf    nn330273   7.282   2.566   1.549 -0.0093  0.3216  0.7493
 5799ntf    sn230274   7.146   2.552   1.473  0.3948 -0.1701  0.1082
 5799ntf    cn130275   7.133   2.371   1.469  0.0816 -0.1471  0.0609
 5799ntf    fn430276   7.579   2.770   1.444 -0.1657  0.1977 -0.2843
 5799ntf    fn430277   7.375   2.805   1.375 -0.2634  0.0005 -0.2291
 5799ntf    fn430278   7.421   2.803   1.580 -0.1132  1.1754 -0.7579
 5799ntf    on530279   7.424   2.494   1.358  0.5952  0.2798 -0.0721
 5799ntf    on530280   7.529   2.529   1.576 -0.5173  0.0319  0.1271
 5799ntf    on530281   7.144   2.596   1.335  0.6727  0.1046  0.1931
 5799ntf    on530282   7.033   2.595   1.552  0.4510  0.3855 -0.1063
 5799ntf    fn430283   7.221   2.316   1.387  0.4216  0.4803 -0.0004
 5799ntf    fn430284   7.137   2.317   1.590  0.5851 -0.2237  0.0101
 5799ntf    fn430285   7.017   2.331   1.417  0.0609 -0.1421  0.1022
 5800ntf    cn130286   6.098   3.454   1.101  0.2704 -0.0373  0.3217
 5800ntf    sn230287   6.031   3.567   1.227  0.1863  0.2333  0.0348
 5800ntf    nn330288   5.930   3.477   1.306 -0.1270  0.4566 -0.1076
 5800ntf    sn230289   5.773   3.480   1.312 -0.1417 -0.2457 -0.0514
 5800ntf    cn130290   5.730   3.307   1.276 -0.2242 -0.2445  0.0430
 5800ntf    fn430291   6.196   3.509   1.031 -0.2667 -0.0222 -0.4335
 5800ntf    fn430292   6.146   3.344   1.156  0.7820 -0.1101 -0.2644
 5800ntf    fn430293   6.006   3.424   1.011  0.2422 -0.1162  0.3765
 5800ntf    on530294   6.147   3.612   1.300  0.5365  0.3316 -0.5725
 5800ntf    on530295   5.963   3.668   1.150 -0.0797  0.2521  0.2946
 5800ntf    on530296   5.699   3.554   1.213  0.1647 -0.0984 -0.1723
 5800ntf    on530297   5.720   3.483   1.445  0.2128 -0.2534  0.0919
 5800ntf    fn430298   5.798   3.219   1.348 -0.3028 -0.0816  0.3169
 5800ntf    fn430299   5.601   3.286   1.297 -0.4096  0.2957 -0.5202
 5800ntf    fn430300   5.749   3.281   1.148  0.1533  0.5768 -0.0746
 5801ntf    cn130301   4.219   7.018   6.618 -0.1339  0.1132 -0.3338
 5801ntf    sn230302   4.058   6.969   6.686  0.0588  0.0693  0.0931
 5801ntf    nn330303   3.966   7.040   6.580  0.8655 -0.5944 -1.0668
 5801ntf    sn230304   3.838   6.994   6.503 -0.4559 -0.1710  0.7974
 5801ntf    cn130305   3.883   7.032   6.330 -0.6980 -0.2380  0.7200
 5801ntf    fn430306   4.314   6.942   6.669 -0.0578 -0.3161 -1.1056
 5801ntf    fn430307   4.236   7.003   6.488 -0.0369  0.0272 -0.3114
 5801ntf    fn430308   4.241   7.143   6.656  0.0009 -0.2617  0.8622
 5801ntf    on530309   4.069   6.825   6.680 -0.0368  0.0877 -0.4979
 5801ntf    on530310   4.054   7.029   6.817 -0.2220  0.1501  0.0473
 5801ntf    on530311   3.729   7.082   6.538 -0.1001  0.5677  0.0808
 5801ntf    on530312   3.813   6.852   6.496 -0.4871 -0.1668  0.8264
 5801ntf    fn430313   3.785   7.036   6.242 -0.1681 -0.2320  0.1296
 5801ntf    fn430314   3.914   7.160   6.336  0.2695 -0.4771  0.9780
 5801ntf    fn430315   3.986   6.963   6.285 -0.6111  0.4860 -0.2101
 5802ntf    cn130316   3.012   4.872   6.390  0.2587 -0.5456 -0.2331
 5802ntf    sn230317   2.896   4.947   6.273  0.2321 -0.2074  0.0109
 5802ntf    nn330318   2.963   4.913   6.136  0.6641  0.0536  0.1563
 5802ntf    sn230319   2.906   4.829   6.016 -0.0175  0.5095  0.1563
 5802ntf    cn130320   3.052   4.722   5.999 -0.3948 -0.0458  0.4014
 5802ntf    fn430321   3.045   4.748   6.355  0.0314 -0.7509  0.2710
 5802ntf    fn430322   3.130   4.930   6.408 -0.0693 -0.0022  0.1666
 5802ntf    fn430323   2.965   4.861   6.513  0.8632 -0.0522  0.0533
 5802ntf    on530324   2.768   4.887   6.303  0.5224 -0.5421  0.5832
 5802ntf    on530325   2.911   5.088   6.302 -0.1234 -0.1286 -0.1728
 5802ntf    on530326   2.910   4.897   5.889 -0.6355 -0.0620 -0.1734
 5802ntf    on530327   2.799   4.737   6.046 -0.0335  0.3022 -0.5213
 5802ntf    fn430328   3.070   4.647   6.107  0.3837 -0.1940  0.1757
 5802ntf    fn430329   3.045   4.641   5.895 -0.6422 -0.1812  0.5210
 5802ntf    fn430330   3.166   4.787   5.986 -0.2280 -0.3810  0.1934
 5803ntf    cn130331   4.768   0.758   4.554  0.4661  0.3737  0.3096
 5803ntf    sn230332   4.681   0.668   4.686  0.1221  0.2029 -0.0319
 5803ntf    nn330333   4.771   0.543   4.717  0.2134  0.2747 -0.0075
 5803ntf    sn230334   4.896   0.520   4.809 -0.0634 -0.2788  0.2346
 5803ntf    cn130335   5.029   0.482   4.691 -0.0351 -0.0703  0.1990
 5803ntf    fn430336   4.900   0.741   4.557  0.3996 -0.2361  0.0246
 5803ntf    fn430337   4.726   0.718   4.435  0.6798  0.1295  0.3149
 5803ntf    fn430338   4.741   0.887   4.563 -0.2961  0.2348  0.0344
 5803ntf    on530339   4.660   0.766   4.789  0.2289 -0.3398  0.5094
 5803ntf    on530340   4.555   0.636   4.625  0.3348 -0.5466 -0.0947
 5803ntf    on530341   4.857   0.396   4.870  0.7174 -0.5435  0.2150
 5803ntf    on530342   4.951   0.627   4.889 -0.4958  0.1307 -0.0067
 5803ntf    fn430343   5.063   0.582   4.610  0.3651 -0.3086  0.0693
 5803ntf    fn430344   5.142   0.452   4.752  0.0118  0.6816  0.4933
 5803ntf    fn430345   5.010   0.371   4.622 -0.5941  0.3717 -0.3747
 5804ntf    cn130346   7.471   4.388   3.253 -0.2809  0.1298  0.4917
 5804ntf    sn230347   7.602   4.388   3.379  0.1271 -0.1774  0.0724
 5804ntf    nn330348   7.732   4.384   3.291  0.0698 -0.1514 -0.0135
 5804ntf    sn230349   7.838   4.269   3.273 -0.1606 -0.3003 -0.4282
 5804ntf    cn130350   7.976   4.373   3.217 -0.2587  0.0272 -0.0667
 5804ntf    fn430351   7.482   4.293   3.161 -0.4260  0.0749  0.5313
 5804ntf    fn430352   7.347   4.391   3.299 -0.3485 -0.1716  0.3372
 5804ntf    fn430353   7.485   4.508   3.199  0.0109 -0.1661 -0.1075
 5804ntf    on530354   7.589   4.518   3.441 -0.3342 -0.0005 -0.3833
 5804ntf    on530355   7.571   4.272   3.459  0.1588  0.2762  0.7509
 5804ntf    on530356   7.818   4.184   3.158  0.2214 -0.3918 -0.4258
 5804ntf    on530357   7.893   4.210   3.392 -0.1762  0.1050 -0.2195
 5804ntf    fn430358   8.016   4.455   3.313 -0.1394 -0.6405  0.4611
 5804ntf    fn430359   8.084   4.303   3.186 -0.1824 -0.0682  0.4160
 5804ntf    fn430360   7.947   4.441   3.107  0.0394 -0.3204 -0.3611
 5805ntf    cn130361   5.668   3.815   0.629  0.2273 -0.1467 -0.2584
 5805ntf    sn230362   5.724   3.717   0.770 -0.6111 -0.1336  0.0886
 5805ntf    nn330363   5.796   3.593   0.706  0.2078  0.1900  0.3663
 5805ntf    sn230364   5.768   3.439   0.720 -0.1145  0.2122 -0.0055
 5805ntf    cn130365   5.933   3.364   0.700 -0.1143  0.2480 -0.1404
 5805ntf    fn430366   5.744   3.809   0.521 -0.6403 -0.0439 -0.8921
 5805ntf    fn430367   5.546   3.780   0.590  0.2267 -0.1630 -0.2405
 5805ntf    fn430368   5.644   3.939   0.668 -0.2796 -0.3773  0.1717
 5805ntf    on530369   5.815   3.795   0.850 -0.2510 -0.0277 -0.4283
 5805ntf    on530370   5.603   3.679   0.839 -0.6793  0.4014  0.2688
 5805ntf    on530371   5.694   3.389   0.606  0.3360  1.0966 -0.7036
 5805ntf    on530372   5.744   3.384   0.851  0.8108 -0.6048 -0.1612
 5805ntf    fn430373   5.932   3.237   0.737  0.5985  0.2914  0.0392
 5805ntf    fn430374   5.956   3.356   0.570 -0.2781 -0.2899 -0.1414
 5805ntf    fn430375   6.034   3.422   0.761  0.1608 -0.3591 -0.0097
 5806ntf    cn130376   5.066   5.313   2.866 -0.1715 -0.4964  0.3135
 5806ntf    sn230377   5.184   5.273   2.998  0.2456 -0.0174  0.0897
 5806ntf    nn330378   5.264   5.407   2.995  0.0018  0.1184 -0.5117
 5806ntf    sn230379   5.396   5.451   3.068 -0.0929 -0.2340 -0.1243
 5806ntf    cn130380   5.517   5.381   2.952 -0.0060  0.4279 -0.4422
 5806ntf    fn430381   4.973   5.398   2.909 -0.0922 -0.6727  0.8377
 5806ntf    fn430382   5.129   5.382   2.773 -0.0496 -0.1579  0.6440
 5806ntf    fn430383   5.001   5.210   2.815 -0.1628 -0.7979  0.9031
 5806ntf    on530384   5.100   5.251   3.113  0.2408  0.0107  0.0912
 5806ntf    on530385   5.251   5.151   2.958 -0.0433 -0.1663  0.0545
 5806ntf    on530386   5.426   5.385   3.193  0.1095 -0.4585 -0.2912
 5806ntf    on530387   5.433   5.591   3.067 -0.1135 -0.2277 -0.0138
 5806ntf    fn430388   5.507   5.250   2.939 -0.1113  0.3881  0.0132
 5806ntf    fn430389   5.500   5.430   2.831 -0.5620  0.0431 -0.5225
 5806ntf    fn430390   5.643   5.395   2.990  0.0414  0.1800 -0.5031
 5807ntf    cn130391   1.305   3.505   5.121  0.4968  0.1950 -0.1903
 5807ntf    sn230392   1.477   3.463   5.080  0.4871  0.1145 -0.1488
 5807ntf    nn330393   1.542   3.560   5.184 -0.4635  0.5649  0.0380
 5807ntf    sn230394   1.593   3.546   5.332 -0.1124 -0.4370 -0.1734
 5807ntf    cn130395   1.674   3.701   5.381  0.0242 -0.5398 -0.0685
 5807ntf    fn430396   1.286   3.472   5.247  0.5446  0.3577 -0.1405
 5807ntf    fn430397   1.286   3.635   5.106  0.1497  0.2244  0.4711
 5807ntf    fn430398   1.218   3.432   5.053  0.0051  0.4023  0.2118
 5807ntf    on530399   1.488   3.321   5.102 -0.9583  0.0064 -0.0021
 5807ntf    on530400   1.493   3.499   4.941 -0.4210  0.2361 -0.2286
 5807ntf    on530401   1.695   3.444   5.345  0.6336  0.2760 -0.3950
 5807ntf    on530402   1.478   3.534   5.418 -0.1251 -0.2199 -0.1596
 5807ntf    fn430403   1.610   3.803   5.324  0.4923 -0.4044 -0.3552
 5807ntf    fn430404   1.684   3.722   5.511 -0.0067  0.1384 -0.1720
 5807ntf    fn430405   1.795   3.712   5.329 -0.1577  0.7682 -0.2555
 5808ntf    cn130406   6.136   7.632   0.686 -0.2312  0.4188 -0.3403
 5808ntf    sn230407   6.280   7.719   0.618  0.3724 -0.1845  0.1551
 5808ntf    nn330408   6.228   7.864   0.589  0.3172 -0.2944 -0.3074
 5808ntf    sn230409   6.118   7.894   0.481  0.0081 -0.1831  0.0374
 5808ntf    cn130410   6.216   7.973   0.350  0.1478  0.0467  0.2794
 5808ntf    fn430411   6.132   7.506   0.646  0.6183  0.1828  0.2959
 5808ntf    fn430412   6.142   7.627   0.818  0.2584 -0.0987 -0.3810
 5808ntf    fn430413   6.023   7.690   0.649 -0.4091  0.5306  0.3524
 5808ntf    on530414   6.378   7.728   0.723  0.7124  0.5154 -0.2107
 5808ntf    on530415   6.320   7.639   0.504 -0.4177 -0.7865  0.2965
 5808ntf    on530416   6.035   8.002   0.529 -0.0573 -0.1268 -0.2048
 5808ntf    on530417   6.066   7.790   0.396 -0.5434 -0.0047  0.1497
 5808ntf    fn430418   6.289   8.074   0.395 -0.3035  0.3444  0.3608
 5808ntf    fn430419   6.297   7.888   0.291 -0.1030  0.2022 -0.2973
 5808ntf    fn430420   6.137   8.032   0.261  0.3163 -0.2612 -0.0733
 5809ntf    cn130421   2.118   4.107   4.003 -0.3958 -0.0070 -0.3394
 5809ntf    sn230422   2.053   3.983   4.118  0.2863 -0.2947 -0.2556
 5809ntf    nn330423   2.075   4.044   4.261 -0.6740  0.0524 -0.2495
 5809ntf    sn230424   1.983   4.043   4.389  0.0635  0.1863  0.2869
 5809ntf    cn130425   1.888   4.197   4.367  0.1835  0.1477 -0.5301
 5809ntf    fn430426   2.233   4.162   4.039 -0.4132 -0.0511 -0.2146
 5809ntf    fn430427   2.128   4.053   3.882 -0.0976 -0.6186 -0.0485
 5809ntf    fn430428   2.037   4.209   3.985 -0.0823  0.3315  0.1611
 5809ntf    on530429   1.914   3.976   4.080  0.1482 -0.2205  0.2257
 5809ntf    on530430   2.141   3.869   4.108  0.3128 -0.3420  0.4349
 5809ntf    on530431   2.051   4.067   4.514  0.1630  0.1579  0.2382
 5809ntf    on530432   1.874   3.949   4.392 -0.3832  0.6863 -0.1059
 5809ntf    fn430433   1.836   4.200   4.245 -0.4107  0.5511 -0.2699
 5809ntf    fn430434   1.790   4.202   4.455  0.4161 -0.4606 -0.2256
 5809ntf    fn430435   1.954   4.311   4.382 -0.5279  0.4702  0.2004
 5810ntf    cn130436   3.700   2.201   6.316  0.4620  0.1453  0.4874
 5810ntf    sn230437   3.858   2.158   6.236  0.1889 -0.0214  0.0372
 5810ntf    nn330438   3.931   2.070   6.343  0.4844  0.4035  0.1860
 5810ntf    sn230439   3.947   1.914   6.345 -0.5150  0.2945 -0.0217
 5810ntf    cn130440   3.785   1.849   6.397 -0.3820  0.2242  0.3054
 5810ntf    fn430441   3.744   2.281   6.411  0.3654  0.1243  0.5496
 5810ntf    fn430442   3.610   2.261   6.240  0.2210 -0.8984 -0.0661
 5810ntf    fn430443   3.643   2.094   6.369  0.2561 -0.5305 -1.0412
 5810ntf    on530444   3.813   2.096   6.113  0.3654 -0.3492  0.1358
 5810ntf    on530445   3.923   2.286   6.224 -0.0170  0.1213  0.4602
 5810ntf    on530446   4.041   1.867   6.444 -0.6131 -0.3784 -0.2372
 5810ntf    on530447   3.963   1.852   6.215  0.7143 -0.7272  0.5969
 5810ntf    fn430448   3.798   1.723   6.433  0.4518  0.1513 -0.2115
 5810ntf    fn430449   3.738   1.905   6.507 -0.1109  0.1727  0.4480
 5810ntf    fn430450   3.688   1.849   6.307 -0.3858  0.2500  0.3096
 5811ntf    cn130451   1.717   0.091   6.870  0.0219 -0.1252 -0.1360
 5811ntf    sn230452   1.802   0.252   6.854  0.2336 -0.2102  0.1333
 5811ntf    nn330453   1.693   0.339   6.782  0.2356 -0.3606 -0.0517
 5811ntf    sn230454   1.723   0.443   6.668 -0.1793 -0.3214 -0.1243
 5811ntf    cn130455   1.730   0.342   6.516 -0.5088 -0.2702 -0.1751
 5811ntf    fn430456   1.695   0.031   6.755 -0.3635 -0.2106 -0.0181
 5811ntf    fn430457   1.788   0.018   6.954 -0.0464 -0.0863 -0.0456
 5811ntf    fn430458   1.600   0.107   6.930  0.1460 -0.1211  0.1061
 5811ntf    on530459   1.826   0.310   6.984 -0.0556  0.4940 -0.1245
 5811ntf    on530460   1.919   0.223   6.776  0.5730  0.2413  0.4701
 5811ntf    on530461   1.851   0.502   6.693 -0.4814  0.3276 -0.1004
 5811ntf    on530462   1.621   0.540   6.637  0.4821  0.6974  0.8322
 5811ntf    fn430463   1.812   0.239   6.519 -0.1132  0.0407 -0.2508
 5811ntf    fn430464   1.615   0.283   6.488 -0.3088 -0.6846 -0.1247
 5811ntf    fn430465   1.748   0.413   6.406 -0.3901  0.1578  0.1142
 5812ntf    cn130466   5.705   5.737   3.702  0.4348 -0.2754  0.3164
 5812ntf    sn230467   5.808   5.858   3.790  0.1678  0.0992  0.1219
 5812ntf    nn330468   5.686   5.939   3.846  0.4696  0.4369  0.2949
 5812ntf    sn230469   5.618   6.067   3.785  0.1571  0.0571 -0.1563
 5812ntf    cn130470   5.449   6.025   3.837  0.1343  0.5973  0.2128
 5812ntf    fn430471   5.771   5.641   3.641 -0.1893 -0.1047 -0.6604
 5812ntf    fn430472   5.630   5.669   3.788 -0.0549  0.1598  0.2423
 5812ntf    fn430473   5.630   5.794   3.609  0.6042 -0.4152  0.0937
 5812ntf    on530474   5.874   5.774   3.888 -0.1819  0.0040  0.2769
 5812ntf    on530475   5.883   5.919   3.684  0.1040 -0.4873 -0.2675
 5812ntf    on530476   5.606   6.073   3.641 -0.2841 -0.9474 -0.1716
 5812ntf    on530477   5.654   6.188   3.853 -0.0805  0.0148  0.0482
 5812ntf    fn430478   5.424   6.057   3.962 -0.2405 -0.2141  0.3546
 5812ntf    fn430479   5.353   6.085   3.768  0.0093  0.0077 -0.1392
 5812ntf    fn430480   5.427   5.895   3.827 -0.3077  0.6760  0.1227
 5813ntf    cn130481   3.080   0.104   7.567  0.3683  0.0233 -0.3338
 5813ntf    sn230482   3.211   0.163   7.679 -0.3889  0.3137  0.4096
 5813ntf    nn330483   3.138   0.171   7.817 -0.4226 -0.4760  0.4393
 5813ntf    sn230484   3.141   0.299   7.908 -0.3334 -0.2607  0.1303
 5813ntf    cn130485   3.179   0.234   8.073  0.3447  0.1237  0.1321
 5813ntf    fn430486   3.023  -0.006   7.612 -0.0001  0.1421 -0.5103
 5813ntf    fn430487   2.985   0.196   7.563  0.2751 -0.0496  0.1416
 5813ntf    fn430488   3.123   0.065   7.448  0.4379 -0.4196 -0.1646
 5813ntf    on530489   3.306   0.055   7.669 -0.7340  0.0635 -0.2056
 5813ntf    on530490   3.247   0.288   7.615  0.0737 -0.2324 -0.4113
 5813ntf    on530491   3.013   0.364   7.915 -0.1945  0.0300 -0.0003
 5813ntf    on530492   3.252   0.390   7.890 -0.6387  0.1049  0.0656
 5813ntf    fn430493   3.277   0.145   8.072  0.1489 -0.0946  0.0161
 5813ntf    fn430494   3.208   0.324   8.165 -0.2020  0.5188 -0.0799
 5813ntf    fn430495   3.072   0.170   8.117  0.5476 -0.5146 -0.2733
 5814ntf    cn130496   1.196   1.362   1.995 -0.1000  0.6023 -0.1705
 5814ntf    sn230497   1.348   1.352   2.093 -0.1759 -0.0277 -0.1134
 5814ntf    nn330498   1.293   1.325   2.238  0.5584 -0.3422  0.1121
 5814ntf    sn230499   1.257   1.437   2.342 -0.1918 -0.2041 -0.2896
 5814ntf    cn130500   1.256   1.334   2.492 -0.1674  0.4691  0.1781
 5814ntf    fn430501   1.131   1.247   2.006  0.7656  0.1516  0.2686
 5814ntf    fn430502   1.123   1.466   2.034 -0.1381  0.4696  0.1107
 5814ntf    fn430503   1.210   1.384   1.865 -0.3977  0.3157 -0.2521
 5814ntf    on530504   1.421   1.236   2.050  0.1875 -0.1080  0.6931
 5814ntf    on530505   1.401   1.482   2.061 -0.0268 -0.1962 -0.5595
 5814ntf    on530506   1.120   1.483   2.338 -0.1548 -0.1147 -0.5893
 5814ntf    on530507   1.356   1.541   2.357 -0.3555 -0.1712  0.6160
 5814ntf    fn430508   1.272   1.409   2.600  0.3424  0.2929  0.2247
 5814ntf    fn430509   1.147   1.259   2.497  0.1588 -0.0566 -0.4198
 5814ntf    fn430510   1.365   1.260   2.490 -0.0455  0.6414  0.4637
 5815ntf    cn130511   2.188   7.304   7.453  0.0417 -0.3296 -0.1645
 5815ntf    sn230512   2.319   7.421   7.407 -0.0504 -0.3338 -0.4419
 5815ntf    nn330513   2.442   7.324   7.415 -0.0983 -0.3620 -0.0296
 5815ntf    sn230514   2.518   7.289   7.548  0.0222 -0.3020 -0.0823
 5815ntf    cn130515   2.658   7.405   7.554 -0.1141 -0.1549  0.2516
 5815ntf    fn430516   2.159   7.311   7.581  0.1407  0.2032 -0.1682
 5815ntf    fn430517   2.079   7.341   7.388  0.0326 -0.4148 -0.1966
 5815ntf    fn430518   2.218   7.179   7.423 -0.0791 -0.3401 -0.2451
 5815ntf    on530519   2.295   7.455   7.269 -0.2317 -0.0464 -0.3399
 5815ntf    on530520   2.314   7.525   7.507 -0.2763 -0.5687 -0.2095
 5815ntf    on530521   2.576   7.158   7.528 -0.6568 -0.5515 -0.4573
 5815ntf    on530522   2.444   7.312   7.669  0.4899 -0.2924  0.2050
 5815ntf    fn430523   2.618   7.531   7.567  0.5597  0.0011  0.8703
 5815ntf    fn430524   2.740   7.387   7.656 -0.0045 -0.2128  0.1520
 5815ntf    fn430525   2.734   7.403   7.447  0.0613  0.4915  0.3572
 5816ntf    cn130526   2.120   1.653   4.341  0.1121 -0.2114 -0.2372
 5816ntf    sn230527   2.279   1.673   4.256  0.2669 -0.0776  0.0819
 5816ntf    nn330528   2.219   1.679   4.111 -0.1328  0.0268  0.2521
 5816ntf    sn230529   2.278   1.722   3.973 -0.1335  0.0849  0.2696
 5816ntf    cn130530   2.233   1.898   3.969 -0.3522  0.0228 -0.0133
 5816ntf    fn430531   2.122   1.676   4.472  0.0535 -0.0898 -0.2575
 5816ntf    fn430532   2.025   1.731   4.292  0.1818  0.0254  0.0032
 5816ntf    fn430533   2.076   1.529   4.333 -0.4732  0.0121 -0.5969
 5816ntf    on530534   2.319   1.801   4.310  0.6200 -0.2684  0.2753
 5816ntf    on530535   2.350   1.554   4.295  0.1042 -0.1754  0.0805
 5816ntf    on530536   2.209   1.677   3.855 -0.0630  0.5791  0.0363
 5816ntf    on530537   2.422   1.718   3.969 -0.1589 -0.8242  0.1580
 5816ntf    fn430538   2.253   1.958   4.085 -0.1004 -0.1958  0.0563
 5816ntf    fn430539   2.303   1.960   3.875 -0.0075 -0.4035 -0.0426
 5816ntf    fn430540   2.105   1.908   3.939 -0.3490  0.4919  0.1241
 5817ntf    cn130541   3.137   6.729   6.601  0.4952 -0.5541 -0.0122
 5817ntf    sn230542   3.165   6.718   6.780 -0.3472 -0.2398  0.1477
 5817ntf    nn330543   3.160   6.565   6.814  0.1780 -0.2608  0.1399
 5817ntf    sn230544   3.052   6.480   6.890 -0.2552  0.0222 -0.1595
 5817ntf    cn130545   2.957   6.428   6.744 -0.0322 -0.4411 -0.1397
 5817ntf    fn430546   3.010   6.719   6.564  0.4630  0.6698 -0.2881
 5817ntf    fn430547   3.175   6.850   6.564 -0.2915 -0.2792  0.0596
 5817ntf    fn430548   3.217   6.655   6.526  0.0270 -0.4147 -0.6553
 5817ntf    on530549   3.299   6.769   6.798 -0.2934 -0.3483  0.0567
 5817ntf    on530550   3.060   6.799   6.836 -0.0934  0.3170 -0.1714
 5817ntf    on530551   2.951   6.546   6.970  0.4353  0.1602  0.6051
 5817ntf    on530552   3.103   6.352   6.931 -0.3007  0.1319  0.2429
 5817ntf    fn430553   2.866   6.335   6.772  0.3256 -0.8714 -0.4017
 5817ntf    fn430554   2.886   6.528   6.695  0.0978 -0.1015  0.3552
 5817ntf    fn430555   3.030   6.377   6.646  0.5111 -0.0398  0.0492
 5818ntf    cn130556   6.608   0.473   0.400 -0.2725 -0.2776  0.1436
 5818ntf    sn230557   6.762   0.458   0.304 -0.2927 -0.1227  0.0875
 5818ntf    nn330558   6.866   0.420   0.415 -0.1503 -0.1813 -0.0654
 5818ntf    sn230559   6.979   0.513   0.473 -0.2980  0.2009 -0.3860
 5818ntf    cn130560   7.006   0.442   0.638 -0.0987  0.5537 -0.2659
 5818ntf    fn430561   6.538   0.366   0.434 -0.3752 -0.3744 -0.3656
 5818ntf    fn430562   6.630   0.540   0.512  0.4870  0.1641 -0.2636
 5818ntf    fn430563   6.523   0.543   0.327  0.0105  0.1042  0.1813
 5818ntf    on530564   6.728   0.340   0.228 -0.0559 -0.1949  0.0942
 5818ntf    on530565   6.775   0.587   0.239  0.1431 -0.4051 -0.3925
 5818ntf    on530566   6.934   0.643   0.517  0.3862  0.3107 -0.0038
 5818ntf    on530567   7.102   0.505   0.399 -0.0703  0.0433  0.0065
 5818ntf    fn430568   7.074   0.525   0.716 -0.3004  0.2583  0.2285
 5818ntf    fn430569   6.893   0.426   0.704  0.3103 -0.1328  0.2776
 5818ntf    fn430570   7.077   0.330   0.637 -0.8585  0.0662 -0.0517
 5819ntf    cn130571   6.966   5.310   5.785  0.0925 -0.0336 -0.0562
 5819ntf    sn230572   6.950   5.321   5.966 -0.2745  0.0591 -0.0943
 5819ntf    nn330573   7.095   5.340   6.023 -0.2437  0.2035 -0.2172
 5819ntf    sn230574   7.161   5.307   6.162 -0.4164  0.2034 -0.1354
 5819ntf    cn130575   7.128   5.461   6.253  0.2293  0.2788 -0.0237
 5819ntf    fn430576   7.037   5.411   5.738 -0.3459  0.1063 -0.4228
 5819ntf    fn430577   7.023   5.199   5.739 -0.0878 -0.2271  0.1849
 5819ntf    fn430578   6.849   5.316   5.725 -0.0294 -0.1446  0.1676
 5819ntf    on530579   6.875   5.443   5.980 -0.1959  0.1479 -0.4284
 5819ntf    on530580   6.884   5.199   6.004  0.1712 -0.0994  0.1853
 5819ntf    on530581   7.304   5.320   6.147 -0.3900  0.4110  0.2796
 5819ntf    on530582   7.110   5.199   6.243  0.4605  0.0594  0.2418
 5819ntf    fn430583   7.000   5.485   6.278  0.3789  0.5516  0.4923
 5819ntf    fn430584   7.185   5.468   6.372  0.2735  0.0974 -0.0337
 5819ntf    fn430585   7.167   5.567   6.184 -0.4425  0.1360 -0.6406
 5820ntf    cn130586   6.436   5.251   4.714 -0.1727  0.2952  0.1863
 5820ntf    sn230587   6.566   5.344   4.628  0.0117 -0.1242  0.0082
 5820ntf    nn330588   6.675   5.233   4.607  0.1377  0.0832 -0.4535
 5820ntf    sn230589   6.680   5.108   4.512 -0.0945 -0.2429 -0.0408
 5820ntf    cn130590   6.754   5.181   4.363  0.5227 -0.3156  0.2288
 5820ntf    fn430591   6.371   5.167   4.635 -0.4152 -0.2218  0.9268
 5820ntf    fn430592   6.477   5.173   4.812  0.3727  0.4832  0.1109
 5820ntf    fn430593   6.344   5.328   4.770  0.2582  0.5706  0.5150
 5820ntf    on530594   6.493   5.385   4.511  0.4325  0.8607  0.0797
 5820ntf    on530595   6.599   5.442   4.729  0.0292  0.5529 -0.6421
 5820ntf    on530596   6.548   5.067   4.469 -0.2264  0.5803 -0.4419
 5820ntf    on530597   6.778   5.013   4.558  0.2011  0.1312  0.1050
 5820ntf    fn430598   6.867   5.247   4.383  0.3706  0.0295 -0.0393
 5820ntf    fn430599   6.791   5.090   4.274 -0.5743 -0.8697  0.3268
 5820ntf    fn430600   6.683   5.263   4.287 -0.2959 -0.4813  0.7953
 5821ntf    cn130601   0.149   2.101   4.171 -0.2915 -0.5037  0.3378
 5821ntf    sn230602   0.031   2.107   4.033  0.2466 -0.0079 -0.1083
 5821ntf    nn330603  -0.104   2.114   4.113 -0.0798 -0.0288 -0.6534
 5821ntf    sn230604  -0.231   2.205   4.096 -0.0805  0.1479  0.2529
 5821ntf    cn130605  -0.263   2.264   4.265 -0.1705  0.3890  0.1516
 5821ntf    fn430606   0.267   2.139   4.124 -0.4191 -0.6966 -0.1440
 5821ntf    fn430607   0.111   2.180   4.269 -0.5737  0.6258 -0.6617
 5821ntf    fn430608   0.165   1.979   4.220 -0.0629 -0.2779  0.8255
 5821ntf    on530609   0.071   2.225   3.961  0.3783  0.1936  0.2950
 5821ntf    on530610   0.040   1.984   3.957 -0.5584 -0.0540 -0.1403
 5821ntf    on530611  -0.349   2.124   4.075  0.1271  0.0191 -0.4626
 5821ntf    on530612  -0.215   2.323   4.014  0.0486 -0.3714 -0.4811
 5821ntf    fn430613  -0.364   2.350   4.272 -0.5399  0.0079 -0.4468
 5821ntf    fn430614  -0.278   2.164   4.349  0.5801 -0.1726 -0.3682
 5821ntf    fn430615  -0.156   2.326   4.311  0.0291  0.0828  0.1016
 5822ntf    cn130616   2.062   1.096   2.973  0.0008 -0.0534  0.0716
 5822ntf    sn230617   2.215   1.094   2.874 -0.0071 -0.4691  0.0644
 5822ntf    nn330618   2.305   1.189   2.960  0.1462 -0.6133  0.0619
 5822ntf    sn230619   2.401   1.308   2.923 -0.0016 -0.5183 -0.0130
 5822ntf    cn130620   2.534   1.275   3.042  0.2860  0.2184 -0.1261
 5822ntf    fn430621   1.963   1.025   2.922  0.7006 -1.0994  0.1261
 5822ntf    fn430622   2.080   1.040   3.091 -0.0899  0.3633  0.2860
 5822ntf    fn430623   2.011   1.216   2.993 -0.0709  0.0117 -0.4949
 5822ntf    on530624   2.258   0.957   2.881  0.3789 -0.3427  0.2158
 5822ntf    on530625   2.165   1.157   2.754 -0.2280 -0.0584  0.3682
 5822ntf    on530626   2.346   1.436   2.961  0.1055 -0.2733 -0.6759
 5822ntf    on530627   2.462   1.288   2.794  0.3319  0.0303  0.0563
 5822ntf    fn430628   2.506   1.313   3.166  0.2753 -0.3330  0.0439
 5822ntf    fn430629   2.560   1.146   3.033 -0.2311  0.1273 -0.3421
 5822ntf    fn430630   2.641   1.347   3.012  0.4157 -0.0822 -0.3901
 5823ntf    cn130631   0.654   5.365   6.244  0.3956  0.4333 -0.5049
 5823ntf    sn230632   0.752   5.224   6.183  0.0070 -0.0919  0.0676
 5823ntf    nn330633   0.651   5.135   6.104 -0.0884 -0.0481  0.1402
 5823ntf    sn230634   0.689   5.021   6.003 -0.0576  0.0733  0.0143
 5823ntf    cn130635   0.648   5.107   5.848  0.3642  0.3327  0.0473
 5823ntf    fn430636   0.733   5.461   6.289  0.6297 -0.0028  0.0225
 5823ntf    fn430637   0.571   5.414   6.153 -0.4178  0.3102  0.1594
 5823ntf    fn430638   0.573   5.315   6.336  0.5698 -0.6217 -0.8992
 5823ntf    on530639   0.855   5.276   6.096  0.2748 -0.3166  0.2473
 5823ntf    on530640   0.800   5.167   6.307 -0.1296 -0.0793  0.1261
 5823ntf    on530641   0.587   4.919   6.001 -0.3703  0.3776  0.2564
 5823ntf    on530642   0.824   4.972   5.993 -0.1150  0.0475 -0.6665
 5823ntf    fn430643   0.634   5.036   5.738 -0.1768 -0.0230  0.3430
 5823ntf    fn430644   0.540   5.181   5.864  0.3408  0.3471 -0.1819
 5823ntf    fn430645   0.749   5.186   5.814  0.5246  0.1484  0.0931
 5824ntf    cn130646   3.694   0.229   4.876  0.0552  0.2460 -0.5601
 5824ntf    sn230647   3.570   0.302   4.988  0.0876 -0.1149 -0.2890
 5824ntf    nn330648   3.670   0.348   5.100 -0.8704  0.9469  0.1470
 5824ntf    sn230649   3.678   0.296   5.248 -0.0587  0.1334 -0.1725
 5824ntf    cn130650   3.818   0.396   5.307 -0.0846  0.1408 -0.1233
 5824ntf    fn430651   3.773   0.311   4.809  0.3267  0.6118  0.2012
 5824ntf    fn430652   3.779   0.147   4.936 -0.2255  0.6281  0.3752
 5824ntf    fn430653   3.636   0.156   4.782 -0.1613  0.1436 -0.3480
 5824ntf    on530654   3.522   0.422   4.924 -0.7023 -0.4092 -0.2545
 5824ntf    on530655   3.470   0.201   5.013  0.1947 -0.1052  0.2015
 5824ntf    on530656   3.738   0.166   5.263  0.5429  0.3157 -0.9568
 5824ntf    on530657   3.564   0.328   5.330 -0.0297 -0.2616  0.0245
 5824ntf    fn430658   3.923   0.390   5.227 -0.2690  0.1727 -0.3681
 5824ntf    fn430659   3.783   0.522   5.330 -0.2567 -0.0033  0.4322
 5824ntf    fn430660   3.862   0.345   5.421 -0.2416  0.4260  0.0663
 5825ntf    cn130661   1.705   7.610   1.485 -0.0815 -0.4530 -0.2763
 5825ntf    sn230662   1.648   7.477   1.595 -0.1940 -0.1503  0.0314
 5825ntf    nn330663   1.518   7.433   1.518 -0.3678  0.2375  0.0988
 5825ntf    sn230664   1.479   7.286   1.481  0.2478  0.0390  0.2186
 5825ntf    cn130665   1.345   7.260   1.601  0.0521 -0.1199 -0.0336
 5825ntf    fn430666   1.805   7.683   1.531 -0.7902  0.1906  0.2765
 5825ntf    fn430667   1.751   7.560   1.372  0.7435 -0.5459  0.0932
 5825ntf    fn430668   1.615   7.703   1.458 -0.1733 -0.5604 -0.3410
 5825ntf    on530669   1.756   7.382   1.588  0.2155  0.4005 -1.5329
 5825ntf    on530670   1.622   7.549   1.718  0.0900  0.0872 -0.0479
 5825ntf    on530671   1.566   7.175   1.513  0.0924 -0.0374  0.3780
 5825ntf    on530672   1.410   7.298   1.355 -0.1586  0.1675  0.4517
 5825ntf    fn430673   1.397   7.278   1.721  0.7365  0.9409 -0.4750
 5825ntf    fn430674   1.248   7.347   1.575 -0.0108 -0.0577  0.3983
 5825ntf    fn430675   1.290   7.140   1.601 -0.6938  0.2157 -0.0945
 5826ntf    cn130676   3.043   1.121   0.474 -0.1658  0.4049 -0.2082
 5826ntf    sn230677   3.089   1.205   0.320  0.0873  0.0545 -0.3249
 5826ntf    nn330678   2.952   1.210   0.242 -0.4052  0.1535  0.5293
 5826ntf    sn230679   2.856   1.334   0.229 -0.1231  0.3164 -0.0497
 5826ntf    cn130680   2.907   1.392   0.064  0.2720 -0.0194 -0.0484
 5826ntf    fn430681   2.967   1.201   0.547  0.1218  0.1741  0.3538
 5826ntf    fn430682   2.973   1.009   0.461  0.2069  0.1959 -0.4248
 5826ntf    fn430683   3.148   1.103   0.552  0.0203  0.1740 -0.5125
 5826ntf    on530684   3.139   1.332   0.367  0.0894 -0.0473 -0.0550
 5826ntf    on530685   3.182   1.112   0.261  0.1823  0.0119 -0.1049
 5826ntf    on530686   2.875   1.450   0.312  0.8755  0.1641 -0.0538
 5826ntf    on530687   2.718   1.299   0.205 -0.1975 -0.1948  1.0517
 5826ntf    fn430688   2.860   1.515   0.050  0.1283 -0.0125  0.4580
 5826ntf    fn430689   3.038   1.380   0.049  0.3064 -0.3671  0.4861
 5826ntf    fn430690   2.852   1.314  -0.027 -0.1073  0.2796 -0.0761
 5827ntf    cn130691   0.858   7.609   7.008  0.3115 -0.2442  0.2608
 5827ntf    sn230692   0.988   7.732   7.040  0.2767 -0.2484  0.4216
 5827ntf    nn330693   0.900   7.838   7.115 -0.3113  0.0618 -0.6723
 5827ntf    sn230694   0.867   7.977   7.050  0.0402  0.3887 -0.1607
 5827ntf    cn130695   0.764   8.058   7.177  0.2036  0.7008 -0.2295
 5827ntf    fn430696   0.754   7.681   6.967  0.4320 -0.1258  0.1654
 5827ntf    fn430697   0.883   7.528   6.907  0.0195  0.2571 -0.2241
 5827ntf    fn430698   0.821   7.537   7.112  0.5477 -0.8422 -0.0685
 5827ntf    on530699   1.072   7.652   7.125  0.1186 -0.1987  0.6225
 5827ntf    on530700   1.046   7.761   6.911  0.6268  0.0856  0.6519
 5827ntf    on530701   0.773   7.969   6.941 -0.1330 -0.6442  0.0436
 5827ntf    on530702   0.982   8.063   7.046  0.0078  0.4144 -0.5064
 5827ntf    fn430703   0.647   8.002   7.200 -0.0024  1.1250 -0.2456
 5827ntf    fn430704   0.819   8.067   7.297  0.3114 -0.4751 -0.1816
 5827ntf    fn430705   0.731   8.182   7.144  0.3871  0.8662  0.2025
 5828ntf    cn130706   5.419   5.862   7.373 -0.0819  0.0281 -0.1895
 5828ntf    sn230707   5.388   5.768   7.221  0.1677 -0.3333 -0.0175
 5828ntf    nn330708   5.278   5.666   7.269 -0.0569  0.0053  0.1897
 5828ntf    sn230709   5.290   5.520   7.324 -0.4427 -0.1019 -0.0052
 5828ntf    cn130710   5.164   5.540   7.454  0.0017  0.0008  0.4157
 5828ntf    fn430711   5.312   5.927   7.417 -0.0167  0.2212 -0.3151
 5828ntf    fn430712   5.473   5.781   7.462 -0.3245  0.0280 -0.0428
 5828ntf    fn430713   5.513   5.955   7.361  0.0777 -0.0596  0.3518
 5828ntf    on530714   5.332   5.864   7.130  0.3904 -0.3248 -0.1467
 5828ntf    on530715   5.516   5.716   7.181  0.4128  0.3709 -0.1584
 5828ntf    on530716   5.408   5.490   7.401 -0.2997  0.1649 -0.1208
 5828ntf    on530717   5.251   5.413   7.236  0.3052 -0.0772 -0.3766
 5828ntf    fn430718   5.150   5.666   7.492 -0.5393  0.1224 -0.1546
 5828ntf    fn430719   5.044   5.501   7.413  0.0713  0.1533  0.0566
 5828ntf    fn430720   5.181   5.463   7.560  0.0243 -0.1206  0.3246
 5829ntf    cn130721   1.627   0.904   5.022  0.3042 -0.0639 -0.3235
 5829ntf    sn230722   1.482   0.814   4.960 -0.1646  0.3169  0.2186
 5829ntf    nn330723   1.448   0.732   5.089  0.0119 -0.5079 -0.2529
 5829ntf    sn230724   1.470   0.578   5.108 -0.0079 -0.5101 -0.2474
 5829ntf    cn130725   1.329   0.506   5.017 -0.5530  0.2362 -0.0022
 5829ntf    fn430726   1.608   0.995   5.116  0.2773 -0.6899  0.2859
 5829ntf    fn430727   1.712   0.814   5.069 -0.1291 -0.3150 -0.0240
 5829ntf    fn430728   1.702   0.959   4.927  0.2969  0.2389 -0.1515
 5829ntf    on530729   1.381   0.916   4.943 -0.0874  0.2920 -0.4068
 5829ntf    on530730   1.535   0.743   4.846 -0.7654  0.4640 -0.1582
 5829ntf    on530731   1.450   0.544   5.247  0.3955  0.1008 -0.0380
 5829ntf    on530732   1.590   0.524   5.049  0.3764  0.1739 -0.0968
 5829ntf    fn430733   1.340   0.377   4.993  0.6218  0.1547  0.8627
 5829ntf    fn430734   1.218   0.520   5.088  0.0703  0.7582  0.8900
 5829ntf    fn430735   1.308   0.571   4.904  0.0442  0.6595  0.1215
 5830ntf    cn130736   7.115   1.545   4.243 -0.4861  0.2061 -0.8072
 5830ntf    sn230737   7.286   1.596   4.207  0.0171 -0.5936  0.3905
 5830ntf    nn330738   7.280   1.632   4.055 -0.0950 -0.6110  0.3910
 5830ntf    sn230739   7.311   1.546   3.927  0.2239 -0.0839  0.1104
 5830ntf    cn130740   7.149   1.567   3.847  0.2503 -0.3724 -0.0220
 5830ntf    fn430741   7.031   1.646   4.257 -0.4781  0.1714 -0.4954
 5830ntf    fn430742   7.065   1.477   4.142 -0.5639  0.4446 -0.9290
 5830ntf    fn430743   7.105   1.467   4.349  0.2420  0.2001 -0.7364
 5830ntf    on530744   7.305   1.714   4.288  0.2308 -0.2779 -0.1130
 5830ntf    on530745   7.369   1.483   4.241  0.3406 -0.6996 -0.7190
 5830ntf    on530746   7.320   1.404   3.948 -0.0970 -0.1184  0.0254
 5830ntf    on530747   7.405   1.604   3.834 -0.1915  0.3677 -0.0319
 5830ntf    fn430748   7.125   1.697   3.833  0.5424 -0.2893  0.2319
 5830ntf    fn430749   7.153   1.522   3.723  0.2192 -0.0945 -0.1260
 5830ntf    fn430750   7.047   1.514   3.914 -0.5033 -0.0584 -0.8943
 5831ntf    cn130751   1.189   3.490   0.022 -0.4626 -0.5586 -0.0099
 5831ntf    sn230752   1.018   3.441  -0.016 -0.6189  0.1178 -0.2006
 5831ntf    nn330753   0.947   3.580  -0.007 -0.1026  0.3584  0.2243
 5831ntf    sn230754   0.836   3.644  -0.098 -0.1660  0.5321  0.4244
 5831ntf    cn130755   0.941   3.758  -0.193 -0.2374  0.1973 -0.0609
 5831ntf    fn430756   1.287   3.401   0.024 -0.0965 -0.1542  0.2026
 5831ntf    fn430757   1.219   3.587  -0.063 -0.7028 -0.2195  0.2869
 5831ntf    fn430758   1.184   3.552   0.139  0.2736 -0.4206 -0.0461
 5831ntf    on530759   1.042   3.374  -0.142 -0.3671 -0.1316 -0.0236
 5831ntf    on530760   0.981   3.355   0.094  0.3847  0.3049  0.2964
 5831ntf    on530761   0.739   3.726  -0.029 -1.1022 -0.4702  0.3372
 5831ntf    on530762   0.780   3.560  -0.201  0.4373  0.4110  0.1937
 5831ntf    fn430763   1.034   3.690  -0.257 -0.3427 -0.4243  0.4280
 5831ntf    fn430764   0.866   3.832  -0.273 -0.1449  0.2496 -0.0993
 5831ntf    fn430765   1.006   3.840  -0.112  0.1786 -0.4171  0.2335
 5832ntf    cn130766   1.013   4.968   5.463  0.3191 -0.0450 -0.0684
 5832ntf    sn230767   1.186   4.958   5.514  0.3108  0.4945  0.0747
 5832ntf    nn330768   1.168   4.820   5.586  0.3581  0.2052 -0.4637
 5832ntf    sn230769   1.195   4.675   5.533  0.0071 -0.0940  0.1526
 5832ntf    cn130770   1.373   4.653   5.565  0.0354 -0.6076 -0.3363
 5832ntf    fn430771   0.938   5.005   5.565  0.1746 -0.1329 -0.1415
 5832ntf    fn430772   0.999   5.063   5.371  0.4028  0.3081  0.2783
 5832ntf    fn430773   0.970   4.854   5.411  0.0926  0.1207 -0.2499
 5832ntf    on530774   1.267   4.963   5.395  0.1128  0.5483 -0.0571
 5832ntf    on530775   1.198   5.068   5.607 -0.9867  0.3303  0.4493
 5832ntf    on530776   1.191   4.664   5.389  0.1695  0.1125  0.1323
 5832ntf    on530777   1.131   4.569   5.607 -0.3410 -0.2761 -0.4068
 5832ntf    fn430778   1.441   4.613   5.459  0.4246  0.0691 -0.3530
 5832ntf    fn430779   1.421   4.774   5.591  0.3414 -0.7192 -0.3826
 5832ntf    fn430780   1.403   4.570   5.664 -0.5330 -0.1316  0.2461
 5833ntf    cn130781   2.151   3.321   1.506 -0.0356  0.1648 -0.6070
 5833ntf    sn230782   2.218   3.478   1.568  0.3129 -0.1413 -0.1922
 5833ntf    nn330783   2.096   3.575   1.545  0.6568  0.2751 -0.2634
 5833ntf    sn230784   2.033   3.675   1.648 -0.0236  0.1576 -0.5640
 5833ntf    cn130785   1.920   3.565   1.739  0.4629  0.0354 -0.1005
 5833ntf    fn430786   2.044   3.281   1.572  0.6190 -0.0188  0.3729
 5833ntf    fn430787   2.115   3.333   1.379 -0.2642  0.2781 -0.5302
 5833ntf    fn430788   2.238   3.221   1.509 -0.1865  0.0530  0.4238
 5833ntf    on530789   2.256   3.444   1.702 -0.3755 -0.0746  0.0270
 5833ntf    on530790   2.322   3.511   1.473  0.3975  0.3188  0.0577
 5833ntf    on530791   1.942   3.765   1.582 -0.4268  0.2756  0.1404
 5833ntf    on530792   2.123   3.720   1.752 -0.5458  0.0468 -0.0534
 5833ntf    fn430793   1.834   3.514   1.652  0.4496 -0.0081 -0.0616
 5833ntf    fn430794   1.971   3.459   1.798 -0.1998 -0.2794 -0.0829
 5833ntf    fn430795   1.854   3.631   1.833  0.0340 -0.2223 -0.2186
 5834ntf    cn130796   3.212   2.578   0.051  0.0093  0.4294 -0.2256
 5834ntf    sn230797   3.070   2.496  -0.028  0.2597 -0.1942 -0.0375
 5834ntf    nn330798   3.142   2.417  -0.142  0.0569 -0.1150 -0.2198
 5834ntf    sn230799   3.142   2.437  -0.298  0.0974 -0.1030 -0.2179
 5834ntf    cn130800   3.297   2.355  -0.346  0.3203  0.1248  0.1061
 5834ntf    fn430801   3.248   2.685  -0.018  0.0287 -0.1414 -1.1076
 5834ntf    fn430802   3.184   2.635   0.168 -0.6084 -0.2674 -0.0273
 5834ntf    fn430803   3.321   2.505   0.067 -0.0206  0.4775  0.2188
 5834ntf    on530804   3.019   2.403   0.070 -0.3549 -0.1590 -0.3215
 5834ntf    on530805   2.978   2.595  -0.078  0.3702 -0.1914 -0.2339
 5834ntf    on530806   3.161   2.575  -0.337 -0.5253 -0.0795 -0.4363
 5834ntf    on530807   3.038   2.362  -0.363  0.1630  0.0778 -0.5348
 5834ntf    fn430808   3.317   2.351  -0.477  0.4714  0.9259  0.0999
 5834ntf    fn430809   3.404   2.408  -0.290 -0.1868  0.6475  0.5797
 5834ntf    fn430810   3.286   2.230  -0.302 -0.2336  0.1763  0.1232
 5835ntf    cn130811   1.778   5.970   2.654 -0.6567 -0.0906  0.0363
 5835ntf    sn230812   1.825   5.798   2.616  0.2696  0.2108 -0.2011
 5835ntf    nn330813   1.943   5.826   2.516  0.2528  0.5020 -0.1398
 5835ntf    sn230814   1.928   5.826   2.360 -0.3136 -0.1532 -0.0938
 5835ntf    cn130815   2.101   5.862   2.315 -0.2047 -0.0461  0.4082
 5835ntf    fn430816   1.735   6.033   2.547 -0.2568 -0.2003 -0.1898
 5835ntf    fn430817   1.687   5.978   2.750 -0.2875 -0.0791  0.3883
 5835ntf    fn430818   1.882   6.039   2.697 -0.4852  0.0377 -0.5801
 5835ntf    on530819   1.868   5.760   2.748  0.0142 -0.4615 -0.3079
 5835ntf    on530820   1.702   5.740   2.566  0.1445  0.1210  0.2071
 5835ntf    on530821   1.854   5.936   2.301 -0.2910 -0.4199 -0.6257
 5835ntf    on530822   1.895   5.697   2.306 -0.3184 -0.0038 -0.4559
 5835ntf    fn430823   2.152   5.965   2.380 -0.3443  0.1609  0.1886
 5835ntf    fn430824   2.185   5.761   2.329 -0.2096 -0.0081  0.7242
 5835ntf    fn430825   2.109   5.890   2.186  0.1640  0.1232  0.4668
 5836ntf    cn130826   4.181   6.564   3.252  0.3958  0.2921  0.3497
 5836ntf    sn230827   4.126   6.625   3.414 -0.1485 -0.2059  0.3549
 5836ntf    nn330828   4.074   6.495   3.484 -0.0275 -0.4892 -0.0775
 5836ntf    sn230829   3.990   6.479   3.616 -0.1178 -0.0469 -0.0807
 5836ntf    cn130830   4.067   6.337   3.699 -0.2596 -0.0395  0.0633
 5836ntf    fn430831   4.267   6.464   3.267  0.3690  0.2786  0.4163
 5836ntf    fn430832   4.083   6.502   3.189  0.4042  0.3338  0.2952
 5836ntf    fn430833   4.230   6.654   3.169 -0.4505  0.0615 -0.4179
 5836ntf    on530834   4.246   6.677   3.474 -0.5097  0.5369  0.4404
 5836ntf    on530835   4.026   6.723   3.376 -0.3585 -0.5023  0.1334
 5836ntf    on530836   3.857   6.425   3.598  0.3116 -0.8980 -0.7778
 5836ntf    on530837   4.009   6.582   3.715 -0.0131  0.1185 -0.2716
 5836ntf    fn430838   4.015   6.312   3.818 -0.2040 -0.2040  0.0534
 5836ntf    fn430839   4.060   6.218   3.641  0.0618  0.3466 -0.7704
 5836ntf    fn430840   4.196   6.361   3.711 -0.2339 -0.0428 -0.1999
 5837ntf    cn130841   2.267   4.081   1.905 -0.1351 -0.1227  0.3087
 5837ntf    sn230842   2.343   4.192   2.027 -0.0044  0.0187  0.0962
 5837ntf    nn330843   2.381   4.322   1.946  0.2403  0.1956  0.4898
 5837ntf    sn230844   2.505   4.335   1.850  0.1101  0.1978  0.3219
 5837ntf    cn130845   2.632   4.415   1.953  0.2627  0.1841  0.1457
 5837ntf    fn430846   2.164   4.142   1.850 -0.1301 -0.6775 -0.3237
 5837ntf    fn430847   2.345   4.033   1.810 -0.7829  0.1497 -0.3699
 5837ntf    fn430848   2.223   3.966   1.954 -0.0557 -0.3073 -0.0488
 5837ntf    on530849   2.239   4.216   2.123 -0.1748 -0.1542 -0.0451
 5837ntf    on530850   2.460   4.116   2.065 -0.0167 -0.3137 -0.5122
 5837ntf    on530851   2.479   4.443   1.758  0.1433 -0.1569 -0.1073
 5837ntf    on530852   2.569   4.215   1.800 -0.4440  0.1493 -0.2818
 5837ntf    fn430853   2.754   4.416   1.903  0.2621  0.6820  0.1518
 5837ntf    fn430854   2.598   4.539   1.983  0.1861  0.2068 -0.0339
 5837ntf    fn430855   2.650   4.350   2.067 -0.0304  0.2723  0.2437
 5838ntf    cn130856   7.173   3.672   6.830  0.2396 -0.1222 -0.0259
 5838ntf    sn230857   7.090   3.822   6.770  0.0588 -0.1649  0.1165
 5838ntf    nn330858   7.162   3.941   6.843  0.4523 -0.5094  0.2940
 5838ntf    sn230859   7.270   4.039   6.783 -0.0909 -0.1024 -0.0216
 5838ntf    cn130860   7.404   4.035   6.905 -0.1118 -0.5833 -0.0116
 5838ntf    fn430861   7.119   3.627   6.942  0.1931 -0.7574 -0.2980
 5838ntf    fn430862   7.162   3.571   6.744  0.3652  0.0248 -0.2142
 5838ntf    fn430863   7.299   3.691   6.864  0.1741 -0.2308  0.2829
 5838ntf    on530864   7.092   3.807   6.627  0.3588 -0.3547  0.1401
 5838ntf    on530865   6.964   3.798   6.836  0.2017 -0.4455  0.2881
 5838ntf    on530866   7.235   4.179   6.785  0.5290  0.0659 -0.6737
 5838ntf    on530867   7.347   3.998   6.668 -0.2806  0.0547 -0.2088
 5838ntf    fn430868   7.471   3.921   6.903  0.7619 -0.0909  0.5018
 5838ntf    fn430869   7.495   4.130   6.884 -0.2504 -0.4153  0.1516
 5838ntf    fn430870   7.358   4.050   7.028  0.3471 -0.0260  0.0968
 5839ntf    cn130871   3.626   5.316   6.806  0.1029 -0.1388 -0.1426
 5839ntf    sn230872   3.765   5.360   6.914 -0.3177  0.2061  0.2607
 5839ntf    nn330873   3.796   5.220   6.977  0.3848  0.0864 -0.3368
 5839ntf    sn230874   3.935   5.147   6.978  0.1836 -0.3016  0.3071
 5839ntf    cn130875   3.908   5.068   6.816 -0.1966 -0.4174  0.4266
 5839ntf    fn430876   3.582   5.410   6.724 -0.2864  0.1429  0.3864
 5839ntf    fn430877   3.638   5.203   6.738 -0.1740 -0.2446 -0.0156
 5839ntf    fn430878   3.524   5.283   6.883  0.4696 -0.2100  0.3228
 5839ntf    on530879   3.866   5.424   6.833 -0.3290  0.3480  0.3586
 5839ntf    on530880   3.714   5.450   7.015  0.1874  0.9975 -0.1812
 5839ntf    on530881   3.940   5.030   7.063  0.5165  0.0031  0.7141
 5839ntf    on530882   4.054   5.228   6.964 -0.1334  0.0714 -0.2638
 5839ntf    fn430883   3.905   5.161   6.721 -0.0533 -0.3626  0.4763
 5839ntf    fn430884   4.005   4.987   6.779 -0.2233 -0.6627  0.8891
 5839ntf    fn430885   3.791   5.006   6.804  0.2830 -1.3079  0.3125
 5840ntf    cn130886   0.618   0.254   3.570 -0.1107 -0.0999  0.0942
 5840ntf    sn230887   0.688   0.422   3.577  0.2348 -0.2301 -0.1846
 5840ntf    nn330888   0.611   0.490   3.696  0.3694  0.3409 -0.4205
 5840ntf    sn230889   0.507   0.607   3.695  0.0721  0.0856  0.0743
 5840ntf    cn130890   0.414   0.581   3.849  0.1287  0.0412  0.1008
 5840ntf    fn430891   0.503   0.248   3.504 -0.0219 -0.7362 -0.0119
 5840ntf    fn430892   0.703   0.171   3.512 -0.3530 -0.0906 -0.2789
 5840ntf    fn430893   0.604   0.211   3.694  0.6781 -0.8786 -0.0793
 5840ntf    on530894   0.828   0.399   3.601  0.2640 -0.2551 -0.3821
 5840ntf    on530895   0.657   0.478   3.448  0.8041  0.1538 -0.1571
 5840ntf    on530896   0.409   0.598   3.589  0.2660 -0.3322 -0.0738
 5840ntf    on530897   0.570   0.735   3.714 -0.7940  0.5037  0.1617
 5840ntf    fn430898   0.315   0.664   3.875  0.5502  0.4027  0.5754
 5840ntf    fn430899   0.370   0.458   3.869  0.8011 -0.1872  0.2091
 5840ntf    fn430900   0.498   0.594   3.950 -0.1637 -0.5326  0.4205
 5841ntf    cn130901   0.616   6.219   0.744  0.2137  0.1497 -0.0688
 5841ntf    sn230902   0.736   6.319   0.838  0.1573  0.1391  0.0148
 5841ntf    nn330903   0.709   6.266   0.983 -0.5332 -0.0429 -0.1765
 5841ntf    sn230904   0.740   6.325   1.125 -0.3409 -0.4945 -0.0277
 5841ntf    cn130905   0.575   6.339   1.201 -0.2651 -0.1367  0.0729
 5841ntf    fn430906   0.660   6.095   0.728  0.1721  0.1248  0.0138
 5841ntf    fn430907   0.495   6.227   0.796  0.2733 -0.3603  0.1579
 5841ntf    fn430908   0.606   6.272   0.623  0.3279 -0.8577 -0.5281
 5841ntf    on530909   0.866   6.276   0.793 -0.0175  0.0620 -0.4243
 5841ntf    on530910   0.701   6.458   0.818 -0.3941 -0.0669 -0.4993
 5841ntf    on530911   0.798   6.457   1.129 -0.1419 -0.5697 -0.3711
 5841ntf    on530912   0.794   6.224   1.212  0.3331  0.0104  0.1465
 5841ntf    fn430913   0.572   6.410   1.313 -0.0256  0.2391 -0.1556
 5841ntf    fn430914   0.484   6.390   1.120 -0.0980  0.0812  0.0187
 5841ntf    fn430915   0.534   6.217   1.230 -0.3011  0.0528  0.8284
 5842ntf    cn130916   0.234   4.288   7.197 -0.0162  0.3226 -0.1728
 5842ntf    sn230917   0.297   4.347   7.357  0.0512 -0.0253 -0.0703
 5842ntf    nn330918   0.373   4.216   7.397  0.1986  0.1578  0.2497
 5842ntf    sn230919   0.522   4.206   7.444  0.3698  0.1270 -0.2948
 5842ntf    cn130920   0.601   4.184   7.282  0.3058  0.0478 -0.3160
 5842ntf    fn430921   0.147   4.366   7.134  0.2136  0.0219 -0.8787
 5842ntf    fn430922   0.322   4.280   7.099 -0.0405  0.4700 -0.2063
 5842ntf    fn430923   0.183   4.166   7.197 -0.1479  0.3703  0.7001
 5842ntf    on530924   0.373   4.463   7.319  0.7533 -0.6837 -0.7193
 5842ntf    on530925   0.187   4.358   7.450  0.2229  0.7111  0.0507
 5842ntf    on530926   0.545   4.085   7.519  0.3762 -0.0423 -0.5685
 5842ntf    on530927   0.587   4.321   7.503  0.2963  0.2335 -0.4224
 5842ntf    fn430928   0.590   4.293   7.207 -0.5533  0.0931 -0.1285
 5842ntf    fn430929   0.729   4.153   7.296  0.2487 -0.0839 -0.0761
 5842ntf    fn430930   0.548   4.084   7.215  0.5426 -0.3883  0.1470
 5843ntf    cn130931   7.490   0.289   5.490  0.0869 -0.2227  0.1205
 5843ntf    sn230932   7.601   0.163   5.420 -0.0213 -0.2197 -0.0579
 5843ntf    nn330933   7.513   0.109   5.302 -0.4626  0.2390  0.0534
 5843ntf    sn230934   7.406  -0.006   5.298 -0.4201  0.2053 -0.1386
 5843ntf    cn130935   7.520  -0.147   5.281 -0.3985  0.2041  0.0124
 5843ntf    fn430936   7.365   0.253   5.516 -0.1740  0.7331  0.2554
 5843ntf    fn430937   7.527   0.353   5.600  0.6105  0.0070 -0.1872
 5843ntf    fn430938   7.464   0.390   5.408 -0.3072 -0.5909 -0.2097
 5843ntf    on530939   7.713   0.237   5.369 -0.3949  0.4969  0.1489
 5843ntf    on530940   7.630   0.073   5.529 -0.7141 -0.4452 -0.0510
 5843ntf    on530941   7.331  -0.010   5.174 -0.6417  0.7875 -0.0256
 5843ntf    on530942   7.331  -0.032   5.418 -0.0918 -0.1264 -0.0040
 5843ntf    fn430943   7.580  -0.138   5.164 -0.8460  0.3055 -0.2130
 5843ntf    fn430944   7.611  -0.152   5.376 -0.4107 -0.3734 -0.0029
 5843ntf    fn430945   7.453  -0.261   5.286 -0.4422  0.2254 -0.0763
 5844ntf    cn130946   0.342   2.934   6.458  0.1880  0.2809  0.2424
 5844ntf    sn230947   0.505   2.956   6.381  0.1814  0.2137  0.2082
 5844ntf    nn330948   0.500   2.848   6.267 -0.1187  0.1476  0.2838
 5844ntf    sn230949   0.419   2.847   6.133  0.0504 -0.3290  0.1839
 5844ntf    cn130950   0.547   2.775   6.026  0.0355  0.0461 -0.0885
 5844ntf    fn430951   0.301   3.045   6.515 -0.1066  0.4493 -0.2904
 5844ntf    fn430952   0.250   2.898   6.369  0.3491 -0.2733  0.2941
 5844ntf    fn430953   0.351   2.844   6.554  0.3833 -0.2825 -0.2962
 5844ntf    on530954   0.499   3.096   6.346 -0.3843  0.2813  0.5703
 5844ntf    on530955   0.593   2.920   6.489  0.4685 -0.5467 -0.2711
 5844ntf    on530956   0.398   2.970   6.062  0.8915 -0.0856  0.3488
 5844ntf    on530957   0.314   2.748   6.131 -0.0550 -0.2059 -0.5133
 5844ntf    fn430958   0.515   2.783   5.898 -0.7852  0.1827  0.1224
 5844ntf    fn430959   0.663   2.836   6.045 -0.0322  0.1333  0.0520
 5844ntf    fn430960   0.572   2.647   6.050 -0.2608  0.0263  0.1194
 5845ntf    cn130961   2.842   3.949   0.811  0.1132 -0.0969  0.3811
 5845ntf    sn230962   2.862   4.063   0.951 -0.0439  0.0603  0.2765
 5845ntf    nn330963   2.927   4.195   0.894 -0.3948  0.3768  0.6044
 5845ntf    sn230964   2.853   4.324   0.844  0.0878  0.4882  0.1777
 5845ntf    cn130965   2.983   4.405   0.746 -0.2210  0.2112 -0.4631
 5845ntf    fn430966   2.942   3.964   0.726 -0.5956 -0.0500 -0.4641
 5845ntf    fn430967   2.841   3.821   0.844 -0.0601 -0.2076 -0.0498
 5845ntf    fn430968   2.732   3.971   0.741  0.3195  0.4843  0.2328
 5845ntf    on530969   2.736   4.074   1.020 -0.1740  0.5649 -0.0409
 5845ntf    on530970   2.960   3.983   1.021  0.2172  0.1213 -0.0168
 5845ntf    on530971   2.828   4.419   0.950  0.1375  0.7575 -0.0497
 5845ntf    on530972   2.746   4.305   0.750  0.0721 -0.4254  0.3681
 5845ntf    fn430973   3.076   4.466   0.818 -0.1863 -0.0417 -0.2937
 5845ntf    fn430974   3.043   4.313   0.673  0.0295  0.0601 -0.0672
 5845ntf    fn430975   2.937   4.491   0.656  0.0227  0.3002 -0.5026
 5846ntf    cn130976   1.539   4.335   0.884 -0.3625 -0.0344  0.4280
 5846ntf    sn230977   1.393   4.398   0.972 -0.4815 -0.0975  0.2752
 5846ntf    nn330978   1.393   4.291   1.088 -0.4185 -0.5659 -0.1532
 5846ntf    sn230979   1.283   4.265   1.197  0.0026 -0.2888  0.3398
 5846ntf    cn130980   1.201   4.127   1.114  0.0841 -0.1004 -0.0603
 5846ntf    fn430981   1.538   4.375   0.758 -0.1549 -0.4097  0.3052
 5846ntf    fn430982   1.651   4.376   0.943 -0.0151  0.1792 -0.3662
 5846ntf    fn430983   1.540   4.203   0.880  0.5049 -0.0405  0.5546
 5846ntf    on530984   1.413   4.532   1.020  0.5873  0.0780 -0.6178
 5846ntf    on530985   1.283   4.394   0.879 -0.7291 -0.4796  0.5795
 5846ntf    on530986   1.178   4.363   1.206  0.2248  0.0180 -0.3318
 5846ntf    on530987   1.330   4.210   1.322  0.0310  0.2801  0.5857
 5846ntf    fn430988   1.086   4.087   1.167  0.0471  0.1325  0.0366
 5846ntf    fn430989   1.182   4.157   0.987  0.0796  0.3099  0.0383
 5846ntf    fn430990   1.276   4.018   1.117  0.1532 -0.0638 -0.3967
 5847ntf    cn130991   5.976   5.902   7.443 -0.4505  0.3513 -0.0587
 5847ntf    sn230992   6.034   5.751   7.525  0.2230  0.7019  0.1189
 5847ntf    nn330993   6.187   5.757   7.492  0.2071 -0.7706 -0.2768
 5847ntf    sn230994   6.311   5.757   7.589  0.1653 -0.4771 -0.2228
 5847ntf    cn130995   6.324   5.937   7.607 -0.2624 -0.4805  0.1503
 5847ntf    fn430996   5.856   5.945   7.476 -0.6701 -0.3090  0.0107
 5847ntf    fn430997   6.059   6.003   7.461  0.3442 -0.1566 -0.7866
 5847ntf    fn430998   5.960   5.888   7.312 -0.1593 -0.4694 -0.0140
 5847ntf    on530999   6.003   5.766   7.665 -0.3692  0.8775 -0.0302
 5847ntf    on531000   5.954   5.651   7.459  0.5333  0.4945  0.0536
 5847ntf    on531001   6.435   5.721   7.524  0.1467 -0.2071 -0.4082
 5847ntf    on531002   6.290   5.713   7.725 -0.4544  0.8559  0.1273
 5847ntf    fn431003   6.220   5.986   7.673 -0.5862 -0.0031 -0.6929
 5847ntf    fn431004   6.424   5.993   7.673 -0.3664 -0.1241  0.0077
 5847ntf    fn431005   6.325   5.995   7.488 -0.3908  0.1683  0.4618
 5848ntf    cn131006   6.396   1.504   7.107  0.1578 -0.3606  0.0922
 5848ntf    sn231007   6.385   1.683   7.073 -0.1170 -0.3788  0.0798
 5848ntf    nn331008   6.293   1.671   6.947  0.2121 -0.3751 -0.1604
 5848ntf    sn231009   6.283   1.758   6.817 -0.2284 -0.1143  0.0474
 5848ntf    cn131010   6.133   1.692   6.739 -0.4828 -0.0547  0.4843
 5848ntf    fn431011   6.280   1.448   7.136 -0.4440  0.8729  0.1442
 5848ntf    fn431012   6.437   1.448   6.994  0.1185  0.3436 -0.2761
 5848ntf    fn431013   6.481   1.468   7.202  0.5404 -0.4964 -0.2981
 5848ntf    on531014   6.311   1.736   7.185 -0.3279 -0.3533 -0.0717
 5848ntf    on531015   6.521   1.728   7.052 -0.2696  0.1399  0.1943
 5848ntf    on531016   6.388   1.749   6.718  0.0677 -0.8792  0.4250
 5848ntf    on531017   6.237   1.888   6.861 -0.4608 -0.2197  0.1172
 5848ntf    fn431018   6.109   1.747   6.621  0.1650 -0.0642  0.3431
 5848ntf    fn431019   6.141   1.562   6.717  0.3419  0.0927 -0.1339
 5848ntf    fn431020   6.021   1.708   6.808 -0.0539  0.3527  1.0911
 5849ntf    cn131021   1.296   7.365   6.714 -0.2763 -0.2084 -0.1285
 5849ntf    sn231022   1.445   7.404   6.811 -0.3608  0.2683 -0.1892
 5849ntf    nn331023   1.463   7.264   6.880  0.5372  0.1441 -0.6499
 5849ntf    sn231024   1.480   7.247   7.035 -0.2301  0.0138 -0.5764
 5849ntf    cn131025   1.641   7.327   7.059 -0.2069 -0.1338 -0.2313
 5849ntf    fn431026   1.253   7.462   6.635 -0.2687 -0.1157 -0.0189
 5849ntf    fn431027   1.312   7.270   6.623 -0.1273 -0.5563  0.2526
 5849ntf    fn431028   1.190   7.332   6.786 -0.2048  0.2180  0.1746
 5849ntf    on531029   1.548   7.419   6.710  0.2070 -0.3987  0.2777
 5849ntf    on531030   1.415   7.521   6.889  0.1606 -0.0189  0.4491
 5849ntf    on531031   1.493   7.107   7.067 -0.5356  0.0188 -0.4238
 5849ntf    on531032   1.388   7.318   7.121  0.1029  0.0931 -0.2836
 5849ntf    fn431033   1.702   7.294   7.172 -0.1924 -0.2543 -0.2746
 5849ntf    fn431034   1.729   7.305   6.963 -0.4403  0.0544 -0.4893
 5849ntf    fn431035   1.627   7.459   7.056 -0.0431 -0.1123 -0.0739
 5850ntf    cn131036   4.462   6.129   3.090 -0.2579 -0.2655  0.1006
 5850ntf    sn231037   4.387   6.016   2.969 -0.1860 -0.1545 -0.0488
 5850ntf    nn331038   4.342   5.891   3.053 -0.1287 -0.1554 -0.0196
 5850ntf    sn231039   4.206   5.851   3.120 -0.0065  0.0540  0.3527
 5850ntf    cn131040   4.192   5.962   3.263  0.4457 -0.1386  0.5492
 5850ntf    fn431041   4.570   6.074   3.143 -0.5342 -0.1430  0.7925
 5850ntf    fn431042   4.499   6.249   3.048  0.2906 -0.3929  0.2144
 5850ntf    fn431043   4.379   6.142   3.192 -0.1795  0.1513  0.1103
 5850ntf    on531044   4.281   6.094   2.911  0.2387  0.2057 -0.3476
 5850ntf    on531045   4.503   5.982   2.890  0.1784 -0.0944  0.4562
 5850ntf    on531046   4.223   5.717   3.172  0.6944 -0.1029 -0.2621
 5850ntf    on531047   4.092   5.869   3.034 -0.0247 -0.3292  0.2946
 5850ntf    fn431048   4.105   5.921   3.354  0.2640 -0.3441  0.2829
 5850ntf    fn431049   4.315   5.977   3.309  0.4769  0.5018  0.2657
 5850ntf    fn431050   4.156   6.085   3.228  0.2621 -0.2186  0.4536
 5851ntf    cn131051   5.363   4.084   2.832 -0.1110 -0.1940  0.2049
 5851ntf    sn231052   5.294   4.138   2.673  0.3787  0.0194  0.0634
 5851ntf    nn331053   5.274   4.290   2.707 -0.1890 -0.0185 -0.0875
 5851ntf    sn231054   5.135   4.351   2.749 -0.1682  0.1111 -0.2027
 5851ntf    cn131055   5.056   4.380   2.588 -0.3693  0.1732 -0.0920
 5851ntf    fn431056   5.493   4.106   2.842 -0.1174  0.0577 -0.2377
 5851ntf    fn431057   5.308   4.146   2.936 -0.1273  0.3804 -0.1370
 5851ntf    fn431058   5.345   3.954   2.847  0.7397 -0.3322  0.0534
 5851ntf    on531059   5.406   4.106   2.588  0.0411 -0.2458 -0.2853
 5851ntf    on531060   5.184   4.051   2.641  0.4352 -0.0627  0.0951
 5851ntf    on531061   5.151   4.474   2.822 -0.5757  0.1401 -0.1646
 5851ntf    on531062   5.053   4.251   2.812  1.0177 -0.6879  0.1286
 5851ntf    fn431063   4.927   4.406   2.606 -0.3509 -0.0378  0.3618
 5851ntf    fn431064   5.107   4.484   2.526 -0.3279  0.2628  0.0929
 5851ntf    fn431065   5.068   4.275   2.509 -0.5514 -0.1784  0.3419
 5852ntf    cn131066   0.886   0.833   4.956 -0.2658  0.1132 -0.3638
 5852ntf    sn231067   0.790   0.691   4.895  0.1186 -0.1287 -0.4114
 5852ntf    nn331068   0.769   0.729   4.744  0.3128 -0.2036 -0.4576
 5852ntf    sn231069   0.666   0.829   4.681 -0.3142 -0.6470 -0.1440
 5852ntf    cn131070   0.761   0.866   4.530  0.0356 -0.0998  0.2079
 5852ntf    fn431071   0.800   0.929   4.986 -0.2449 -0.1004  0.3825
 5852ntf    fn431072   0.949   0.799   5.067  0.4897  0.1881 -0.7616
 5852ntf    fn431073   0.973   0.884   4.869  0.2414 -0.2430 -0.0731
 5852ntf    on531074   0.887   0.584   4.898  0.5755  0.2764 -0.5367
 5852ntf    on531075   0.668   0.680   4.971  0.1407 -0.4694 -0.4271
 5852ntf    on531076   0.643   0.957   4.743  0.2046 -0.2004 -0.8661
 5852ntf    on531077   0.552   0.759   4.626 -0.8669 -0.2231  0.4579
 5852ntf    fn431078   0.682   0.908   4.433 -0.4342 -0.3693  0.4674
 5852ntf    fn431079   0.856   0.956   4.550  0.2291 -0.3329  0.3452
 5852ntf    fn431080   0.823   0.762   4.476 -0.1645 -0.2022  0.1742
 5853ntf    cn131081   0.037   0.048   7.403  0.3824  0.1962  0.2855
 5853ntf    sn231082  -0.124   0.089   7.477  0.2166 -0.4658  0.2942
 5853ntf    nn331083  -0.194   0.164   7.358 -0.4866 -0.9440  0.3992
 5853ntf    sn231084  -0.332   0.239   7.354 -0.0947 -0.2432 -0.0652
 5853ntf    cn131085  -0.264   0.406   7.375  0.3607 -0.4416  0.0440
 5853ntf    fn431086   0.105   0.156   7.367  0.3865 -0.0523 -0.4700
 5853ntf    fn431087   0.120  -0.015   7.483 -0.5303 -0.7816  0.4848
 5853ntf    fn431088   0.023  -0.022   7.292  0.6964  0.0417  0.3447
 5853ntf    on531089  -0.178  -0.044   7.493 -0.6285 -0.1970 -0.2433
 5853ntf    on531090  -0.081   0.166   7.591  0.0219 -0.3829  0.3117
 5853ntf    on531091  -0.418   0.231   7.469 -0.2348  0.2909 -0.1302
 5853ntf    on531092  -0.395   0.238   7.224 -0.1452 -0.0828 -0.0430
 5853ntf    fn431093  -0.182   0.454   7.283  0.1108 -0.1800 -0.0445
 5853ntf    fn431094  -0.358   0.499   7.374  0.1982 -0.6009  0.4932
 5853ntf    fn431095  -0.200   0.413   7.491  0.0264  0.2248  0.1936
 5854ntf    cn131096   3.559   3.999   4.886 -0.3145  0.4755 -0.5979
 5854ntf    sn231097   3.618   4.042   5.052 -0.1786 -0.1195 -0.4904
 5854ntf    nn331098   3.677   3.906   5.104  0.2761 -0.0173 -0.7295
 5854ntf    sn231099   3.826   3.857   5.096  0.1482 -0.5719  0.1023
 5854ntf    cn131100   3.898   3.894   5.259 -0.2103  0.2130  0.0895
 5854ntf    fn431101   3.653   3.997   4.794  0.1748  0.1774 -0.0963
 5854ntf    fn431102   3.499   3.882   4.872 -0.2682  0.3904 -0.1101
 5854ntf    fn431103   3.465   4.087   4.853 -0.4396  0.4144 -0.4073
 5854ntf    on531104   3.712   4.149   5.028 -0.0821 -0.1996 -0.4725
 5854ntf    on531105   3.496   4.082   5.117 -0.0306 -0.1570 -0.1840
 5854ntf    on531106   3.910   3.939   5.012  0.0305 -0.8640 -0.3021
 5854ntf    on531107   3.837   3.715   5.081 -0.4320 -0.6272  0.1563
 5854ntf    fn431108   3.834   3.832   5.357 -0.7015  0.4922 -0.0507
 5854ntf    fn431109   4.026   3.863   5.265 -0.4313 -0.7193  0.1311
 5854ntf    fn431110   3.883   4.023   5.286  0.6486  0.3167  0.0874
 5855ntf    cn131111   4.645   2.517   0.886 -0.1112  0.2247 -0.3315
 5855ntf    sn231112   4.547   2.627   0.779 -0.1071  0.3632 -0.1937
 5855ntf    nn331113   4.570   2.759   0.860  0.1509  0.2617 -0.0975
 5855ntf    sn231114   4.463   2.871   0.888  0.1949  0.3400 -0.2411
 5855ntf    cn131115   4.415   2.851   1.062  0.3689  0.3001 -0.1976
 5855ntf    fn431116   4.647   2.394   0.838  0.0780  0.2557 -0.4020
 5855ntf    fn431117   4.770   2.559   0.887 -0.0851  0.1409  0.1355
 5855ntf    fn431118   4.600   2.516   1.011 -0.1051 -0.2188 -0.3307
 5855ntf    on531119   4.624   2.614   0.657 -0.4651 -0.2941 -0.3534
 5855ntf    on531120   4.417   2.565   0.786  0.1699 -0.2796 -0.5774
 5855ntf    on531121   4.346   2.858   0.805 -0.1428 -0.1042  0.3014
 5855ntf    on531122   4.521   3.003   0.886 -0.2326  0.5331 -0.0546
 5855ntf    fn431123   4.285   2.871   1.077  0.3376 -0.5392  0.6744
 5855ntf    fn431124   4.438   2.729   1.105 -0.2870  0.4166  0.4981
 5855ntf    fn431125   4.479   2.916   1.158  0.2803 -0.5610  0.4559
 5856ntf    cn131126   5.776   2.795   2.917  0.1160 -0.1620  0.4795
 5856ntf    sn231127   5.632   2.898   2.961  0.2284  0.1109  0.2125
 5856ntf    nn331128   5.702   3.027   3.016  0.2279  0.1678  0.0799
 5856ntf    sn231129   5.730   3.169   2.954  0.3371  0.1664  0.1252
 5856ntf    cn131130   5.564   3.236   2.985  0.1654 -0.2214  0.0571
 5856ntf    fn431131   5.862   2.857   2.838  0.2886 -0.7356  0.2108
 5856ntf    fn431132   5.853   2.758   3.018 -0.1716  0.1946  0.8340
 5856ntf    fn431133   5.732   2.684   2.860  0.2080 -0.0200  0.1338
 5856ntf    on531134   5.561   2.918   2.837 -1.0436  0.2244  0.9412
 5856ntf    on531135   5.563   2.827   3.066  0.3355 -0.0836  0.1518
 5856ntf    on531136   5.750   3.165   2.811 -0.3992  0.1634  0.0146
 5856ntf    on531137   5.807   3.254   3.040  0.1607  0.2062  0.2451
 5856ntf    fn431138   5.538   3.349   2.923 -0.2904 -0.3952 -0.0746
 5856ntf    fn431139   5.460   3.162   2.950 -0.0924  0.0793  0.1806
 5856ntf    fn431140   5.551   3.254   3.116 -0.5117  0.7811 -0.1376
 5857ntf    cn131141   3.710   3.101   2.636 -0.3143  0.1647 -0.1826
 5857ntf    sn231142   3.709   2.964   2.756 -0.4946  0.1301 -0.2221
 5857ntf    nn331143   3.776   3.032   2.881 -0.1623  0.0163 -0.3351
 5857ntf    sn231144   3.928   3.064   2.898 -0.2373  0.0669  0.2527
 5857ntf    cn131145   3.917   3.215   2.998 -0.1952  0.0389  0.2995
 5857ntf    fn431146   3.628   3.072   2.536 -0.3480  0.6718 -0.3024
 5857ntf    fn431147   3.676   3.224   2.671 -0.0378  0.1881  0.0090
 5857ntf    fn431148   3.827   3.113   2.576 -0.1151  0.0217  0.1757
 5857ntf    on531149   3.568   2.940   2.772 -0.3730 -0.4917 -0.0594
 5857ntf    on531150   3.789   2.858   2.699  0.3407  0.8204 -0.3672
 5857ntf    on531151   3.985   3.102   2.771 -0.2964  0.4744  0.3493
 5857ntf    on531152   3.993   2.977   2.994 -0.2590  0.0075  0.2134
 5857ntf    fn431153   3.903   3.195   3.128  0.2084  0.0101  0.3421
 5857ntf    fn431154   4.028   3.287   2.988  0.2798 -0.7137  0.0503
 5857ntf    fn431155   3.822   3.299   2.959  0.0685  0.3165  0.2449
 5858ntf    cn131156   7.370   3.413   3.622 -0.7191  0.1845  0.1272
 5858ntf    sn231157   7.260   3.306   3.525 -0.0121 -0.1349 -0.3271
 5858ntf    nn331158   7.379   3.238   3.448  0.1902 -0.2407  0.0758
 5858ntf    sn231159   7.403   3.207   3.296  0.1067 -0.0506  0.0231
 5858ntf    cn131160   7.528   3.333   3.259 -0.0143  0.0504 -0.0422
 5858ntf    fn431161   7.446   3.351   3.711 -0.5408 -0.3317 -0.3844
 5858ntf    fn431162   7.458   3.473   3.543 -0.5076 -0.3705 -0.0601
 5858ntf    fn431163   7.301   3.505   3.688 -0.1723  0.7381 -0.0543
 5858ntf    on531164   7.202   3.207   3.612  0.0573 -0.2575 -0.4211
 5858ntf    on531165   7.180   3.406   3.457  0.0488  0.0535 -0.1257
 5858ntf    on531166   7.298   3.243   3.204  0.6828  0.4257 -0.4546
 5858ntf    on531167   7.464   3.082   3.259  0.0258 -0.0588 -0.0870
 5858ntf    fn431168   7.582   3.334   3.138  0.2403  0.8931  0.0705
 5858ntf    fn431169   7.486   3.456   3.285 -0.6148 -0.0251 -0.6171
 5858ntf    fn431170   7.625   3.318   3.348 -0.4037  0.3917  0.4469
 5859ntf    cn131171   6.471   6.306   3.665  0.3950  0.1245  0.2354
 5859ntf    sn231172   6.511   6.192   3.801 -0.6085  0.0117  0.4449
 5859ntf    nn331173   6.397   6.084   3.796 -0.2069 -0.3976  0.1033
 5859ntf    sn231174   6.325   6.018   3.673 -0.3966  0.1926 -0.1052
 5859ntf    cn131175   6.278   5.861   3.752 -0.1108  0.1309 -0.0560
 5859ntf    fn431176   6.343   6.341   3.670  0.3509 -0.0364  0.2375
 5859ntf    fn431177   6.542   6.418   3.659  0.0605  0.3033 -0.6029
 5859ntf    fn431178   6.493   6.256   3.544 -0.1054  0.3571  0.0435
 5859ntf    on531179   6.642   6.146   3.761 -0.5367 -0.0259  0.7226
 5859ntf    on531180   6.515   6.265   3.925  0.0180 -0.4298  0.6843
 5859ntf    on531181   6.412   5.968   3.570 -1.1136 -0.4611 -0.4004
 5859ntf    on531182   6.209   6.098   3.640 -0.3285  0.0875 -0.6040
 5859ntf    fn431183   6.250   5.775   3.656  0.1668  0.0380 -0.0528
 5859ntf    fn431184   6.367   5.804   3.832 -0.5765 -0.0704  0.3246
 5859ntf    fn431185   6.165   5.882   3.818  0.0521  0.6312  0.0697
 5860ntf    cn131186   3.891   3.805   1.733 -0.5721  0.3230  0.4111
 5860ntf    sn231187   3.979   3.752   1.582 -0.1780  0.3533  0.6296
 5860ntf    nn331188   4.116   3.824   1.613 -0.2189  0.5985  0.2370
 5860ntf    sn231189   4.250   3.772   1.674 -0.2164  0.2168 -0.0916
 5860ntf    cn131190   4.296   3.895   1.800 -0.1573 -0.2027  0.2983
 5860ntf    fn431191   3.761   3.800   1.712 -0.6113 -0.2811  0.7714
 5860ntf    fn431192   3.926   3.733   1.839  0.0703 -0.2651 -0.1811
 5860ntf    fn431193   3.923   3.930   1.760  1.2919  0.0749 -0.4908
 5860ntf    on531194   3.967   3.611   1.609  0.5337  0.1144 -0.2761
 5860ntf    on531195   3.903   3.807   1.473 -0.1964  0.3299  0.6310
 5860ntf    on531196   4.364   3.791   1.588 -0.5951 -0.1608 -0.6850
 5860ntf    on531197   4.238   3.647   1.745  0.7755  0.0286 -0.2398
 5860ntf    fn431198   4.395   3.860   1.881  0.3658  0.0921 -0.2086
 5860ntf    fn431199   4.329   4.008   1.741  0.0946 -0.2005  0.4432
 5860ntf    fn431200   4.195   3.923   1.880 -0.0498 -0.1220  0.4054
 5861ntf    cn131201   1.607   1.604   0.030  0.1165  0.0074 -0.1553
 5861ntf    sn231202   1.438   1.668   0.044  0.0091 -0.2842 -0.1132
 5861ntf    nn331203   1.466   1.817   0.086 -0.1249 -0.3371  0.1733
 5861ntf    sn231204   1.466   1.881   0.229 -0.6203 -0.1288  0.0815
 5861ntf    cn131205   1.295   1.937   0.255 -0.4147  0.3586  0.3899
 5861ntf    fn431206   1.611   1.473   0.012  0.2648 -0.0605  0.3447
 5861ntf    fn431207   1.678   1.659  -0.067  0.1770 -0.3740 -0.3311
 5861ntf    fn431208   1.672   1.632   0.142  0.2522  0.1856 -0.2776
 5861ntf    on531209   1.393   1.663  -0.093 -0.3258 -0.0346 -0.0140
 5861ntf    on531210   1.363   1.587   0.138 -0.1386 -0.0656 -0.0413
 5861ntf    on531211   1.536   2.007   0.220 -0.0461 -0.4253  0.3101
 5861ntf    on531212   1.490   1.790   0.338  0.2398  0.3768  0.3289
 5861ntf    fn431213   1.281   2.024   0.354 -0.7440  0.0325  0.6281
 5861ntf    fn431214   1.244   1.997   0.149  0.0234 -0.3030 -0.2090
 5861ntf    fn431215   1.220   1.830   0.267 -0.0329 -0.0051 -0.3991
 5862ntf    cn131216   0.024   4.622   6.157 -0.1001  0.1136  0.2814
 5862ntf    sn231217   0.083   4.728   6.021 -0.1837  0.0101  0.1648
 5862ntf    nn331218   0.005   4.672   5.897  0.0756 -0.8106  0.3629
 5862ntf    sn231219   0.041   4.670   5.745  0.0986  0.1659  0.3520
 5862ntf    cn131220  -0.119   4.734   5.687 -0.0194 -0.0653  0.4260
 5862ntf    fn431221   0.083   4.663   6.268  0.5617 -0.5493  0.1869
 5862ntf    fn431222  -0.107   4.635   6.169 -0.1070  0.1762  0.1369
 5862ntf    fn431223   0.053   4.494   6.138  0.0541  0.2540 -0.4364
 5862ntf    on531224   0.032   4.857   6.058 -0.3038  0.0254 -0.0568
 5862ntf    on531225   0.225   4.699   6.019 -0.1439  0.1803  0.4699
 5862ntf    on531226   0.068   4.539   5.691  0.1436  0.0396  0.6799
 5862ntf    on531227   0.126   4.779   5.704  0.2877 -0.2477 -0.3718
 5862ntf    fn431228  -0.141   4.857   5.729  0.2952  0.2875 -0.4335
 5862ntf    fn431229  -0.127   4.720   5.556 -0.2558 -0.0459  0.4364
 5862ntf    fn431230  -0.224   4.673   5.741  0.2382 -0.2267  0.7534
 5863ntf    cn131231   6.602   6.226   4.517 -0.3427  0.3932 -0.1439
 5863ntf    sn231232   6.508   6.100   4.426 -0.1972 -0.0134  0.2652
 5863ntf    nn331233   6.370   6.171   4.401 -0.0566  0.2327  0.1787
 5863ntf    sn231234   6.236   6.139   4.476 -0.0974  0.0015  0.0103
 5863ntf    cn131235   6.128   6.218   4.353 -0.3373  0.2231  0.3589
 5863ntf    fn431236   6.549   6.242   4.637  0.6234 -0.9457  0.4885
 5863ntf    fn431237   6.725   6.184   4.542 -0.4051  0.5213  0.3956
 5863ntf    fn431238   6.612   6.344   4.456 -0.2152  0.4784  0.0419
 5863ntf    on531239   6.575   6.079   4.299  0.0819  0.0770  0.3955
 5863ntf    on531240   6.503   5.994   4.522 -0.2654  0.4400  0.7648
 5863ntf    on531241   6.220   6.219   4.595 -0.3274  0.2600 -0.1938
 5863ntf    on531242   6.198   6.000   4.470  0.2208 -0.1061  0.4002
 5863ntf    fn431243   6.116   6.165   4.232 -0.6299  0.4641  0.2838
 5863ntf    fn431244   6.008   6.238   4.406 -0.0590  0.2349  0.9963
 5863ntf    fn431245   6.172   6.341   4.333 -0.1228  0.1164  0.1615
 5864ntf    cn131246   0.363   5.838   4.356  0.0411 -0.0250 -0.1688
 5864ntf    sn231247   0.377   5.876   4.534 -0.0719  0.0844 -0.1840
 5864ntf    nn331248   0.503   5.794   4.577 -0.2282  0.1883  0.4772
 5864ntf    sn231249   0.519   5.667   4.669 -0.2467  0.0411  0.2770
 5864ntf    cn131250   0.650   5.734   4.776 -0.1056 -0.0314  0.1500
 5864ntf    fn431251   0.373   5.708   4.334  0.5742  0.0107 -0.1479
 5864ntf    fn431252   0.244   5.874   4.312  0.0102 -0.0756 -0.1282
 5864ntf    fn431253   0.459   5.898   4.287  0.2893 -0.2493 -0.0243
 5864ntf    on531254   0.396   6.019   4.529 -0.5842  0.1659  0.0812
 5864ntf    on531255   0.252   5.825   4.586  0.2546 -0.6009 -0.0656
 5864ntf    on531256   0.570   5.545   4.612 -0.4349  0.0698  0.0465
 5864ntf    on531257   0.414   5.652   4.767 -0.0247  0.3801  0.5660
 5864ntf    fn431258   0.756   5.788   4.718 -0.5772 -0.1193 -0.8253
 5864ntf    fn431259   0.609   5.824   4.863  0.2497 -0.6406  0.9557
 5864ntf    fn431260   0.693   5.634   4.850  0.0451 -0.1772 -0.1335
 5865ntf    cn131261   1.305   6.626   1.787 -0.2126 -0.3505 -0.1181
 5865ntf    sn231262   1.180   6.630   1.919  0.3511 -0.0974  0.4176
 5865ntf    nn331263   1.219   6.488   1.973 -0.2660 -0.2766  0.4029
 5865ntf    sn231264   1.327   6.463   2.084  0.0072 -0.0217  0.1971
 5865ntf    cn131265   1.233   6.478   2.239 -0.1497 -0.0117  0.1011
 5865ntf    fn431266   1.268   6.565   1.676  0.0951 -0.0342 -0.3986
 5865ntf    fn431267   1.336   6.750   1.752  0.3285 -0.5882 -0.5018
 5865ntf    fn431268   1.418   6.570   1.827 -0.0776 -0.0192 -0.0256
 5865ntf    on531269   1.217   6.751   1.987  0.3931 -0.0786  0.3608
 5865ntf    on531270   1.060   6.641   1.839  0.2804 -0.2861  0.4982
 5865ntf    on531271   1.425   6.568   2.099 -0.1882  0.1933 -0.0263
 5865ntf    on531272   1.380   6.329   2.089 -0.2269 -0.1044  0.4583
 5865ntf    fn431273   1.293   6.438   2.350  0.4762 -0.2306 -0.3109
 5865ntf    fn431274   1.218   6.608   2.259 -0.4380  0.0083 -0.2414
 5865ntf    fn431275   1.113   6.422   2.229 -0.0199 -0.2816  0.0240
 5866ntf    cn131276   2.260   2.017   0.138 -0.0781 -0.1227  0.0835
 5866ntf    sn231277   2.356   1.874   0.193  0.3145  0.0443 -0.1695
 5866ntf    nn331278   2.273   1.813   0.311  0.9628  0.2535  0.4021
 5866ntf    sn231279   2.316   1.697   0.407  0.0675 -0.0069  0.4966
 5866ntf    cn131280   2.230   1.561   0.323  0.2823  0.1299  0.0536
 5866ntf    fn431281   2.220   2.094   0.238 -0.1692  0.0676 -0.0974
 5866ntf    fn431282   2.323   2.101   0.057  0.1901 -0.5075 -0.1059
 5866ntf    fn431283   2.141   1.988   0.087 -0.0689  0.0799 -0.0543
 5866ntf    on531284   2.351   1.787   0.077  0.6083 -0.3527  0.1114
 5866ntf    on531285   2.483   1.936   0.220  0.2105  0.1708  0.0257
 5866ntf    on531286   2.246   1.706   0.533  0.6183  0.0652  0.7994
 5866ntf    on531287   2.456   1.663   0.401 -0.0461 -0.2687 -0.9353
 5866ntf    fn431288   2.107   1.604   0.299  0.0132 -0.5546  0.1549
 5866ntf    fn431289   2.293   1.526   0.212 -0.2779 -0.0885 -0.2030
 5866ntf    fn431290   2.216   1.451   0.396  0.1627  0.1307  0.0331
 5867ntf    cn131291   1.409   1.868   2.537  0.3660 -0.0876  0.3445
 5867ntf    sn231292   1.519   1.982   2.626 -0.0949  0.4537  0.2310
 5867ntf    nn331293   1.659   1.947   2.564 -0.2242 -0.2889  0.3511
 5867ntf    sn231294   1.751   2.035   2.473  0.0518 -0.7320  0.1976
 5867ntf    cn131295   1.915   2.020   2.551  0.1658 -0.2892  0.0481
 5867ntf    fn431296   1.439   1.865   2.408 -0.0996 -0.0790  0.2333
 5867ntf    fn431297   1.412   1.742   2.576 -0.1735 -0.1953  0.0563
 5867ntf    fn431298   1.286   1.917   2.542  0.4020  0.1328 -0.6004
 5867ntf    on531299   1.467   2.114   2.603 -0.1383  0.3313 -0.3812
 5867ntf    on531300   1.516   1.946   2.766  0.7411  0.5406  0.2773
 5867ntf    on531301   1.720   2.176   2.469 -0.0640 -0.7596  0.1464
 5867ntf    on531302   1.768   1.972   2.345  0.0277  0.0833 -0.2128
 5867ntf    fn431303   1.947   1.892   2.568  0.7757 -0.0812  0.5237
 5867ntf    fn431304   2.006   2.080   2.476 -0.2468 -0.0155 -0.2377
 5867ntf    fn431305   1.921   2.074   2.671  0.1502 -0.1119 -0.0305
 5868ntf    cn131306   4.381   1.376   6.714  0.0796  0.1451 -0.4135
 5868ntf    sn231307   4.395   1.195   6.705  0.0761  0.1266 -0.0604
 5868ntf    nn331308   4.523   1.172   6.617  0.1363 -0.2353  0.1172
 5868ntf    sn231309   4.534   1.103   6.476 -0.1778  0.3369 -0.1903
 5868ntf    cn131310   4.687   1.010   6.508 -0.2036  0.2754 -0.2470
 5868ntf    fn431311   4.362   1.441   6.601 -0.1162  0.3781 -0.2461
 5868ntf    fn431312   4.290   1.409   6.804  0.0743 -0.0951 -0.3284
 5868ntf    fn431313   4.496   1.421   6.761 -0.3513  0.1039  0.7155
 5868ntf    on531314   4.415   1.157   6.843 -0.0404  0.6729  0.1057
 5868ntf    on531315   4.273   1.153   6.641 -0.1740  0.2162  0.3501
 5868ntf    on531316   4.572   1.196   6.372  0.2439 -0.0733 -0.4049
 5868ntf    on531317   4.444   1.000   6.431 -0.4631  0.3741  0.2947
 5868ntf    fn431318   4.784   1.081   6.563 -0.3789  0.0278  0.3879
 5868ntf    fn431319   4.666   0.908   6.589 -0.1559  0.6878  0.2917
 5868ntf    fn431320   4.732   0.961   6.394 -0.6980 -0.3779 -0.1650
 5869ntf    cn131321   3.537   3.642   4.042  0.3236 -0.4122 -0.0958
 5869ntf    sn231322   3.526   3.824   4.035 -0.2825 -0.4494 -0.1364
 5869ntf    nn331323   3.659   3.849   3.956 -0.1112 -0.0536  0.2757
 5869ntf    sn231324   3.771   3.958   3.972 -0.0188 -0.0754 -0.2201
 5869ntf    cn131325   3.876   3.895   4.105  0.2275 -0.0035 -0.3801
 5869ntf    fn431326   3.541   3.583   3.924  0.0948 -0.2395 -0.1916
 5869ntf    fn431327   3.643   3.607   4.113  0.4528  0.2045  0.0205
 5869ntf    fn431328   3.430   3.589   4.099 -0.1879  0.1928 -0.4843
 5869ntf    on531329   3.408   3.865   3.963 -0.2038  0.3125  0.1597
 5869ntf    on531330   3.532   3.875   4.170 -0.4548  0.6347 -0.5300
 5869ntf    on531331   3.710   4.083   4.012  0.0145 -0.1413  0.0358
 5869ntf    on531332   3.859   3.956   3.858  0.0739  0.3630 -0.1568
 5869ntf    fn431333   3.811   3.833   4.202  0.0138  0.2988 -0.3300
 5869ntf    fn431334   3.966   3.807   4.064  0.1342 -0.4931  0.4277
 5869ntf    fn431335   3.945   3.996   4.157  0.1349 -0.1893  0.1062
 5870ntf    cn131336   4.619   0.069   5.529  0.1307  0.3163 -0.0319
 5870ntf    sn231337   4.725  -0.042   5.433 -0.0835  0.1528 -0.0801
 5870ntf    nn331338   4.867  -0.006   5.488 -0.0253 -0.2706  0.0505
 5870ntf    sn231339   4.950  -0.061   5.610  0.3230 -0.1477 -0.1296
 5870ntf    cn131340   5.012   0.098   5.673 -0.1271  0.0437 -0.1687
 5870ntf    fn431341   4.492   0.040   5.507  0.3264 -0.3241 -0.3240
 5870ntf    fn431342   4.638   0.055   5.659 -0.1015 -0.1575 -0.0472
 5870ntf    fn431343   4.627   0.198   5.501 -0.2677  0.3300 -0.0958
 5870ntf    on531344   4.674  -0.175   5.455 -0.1884  0.1649 -0.2470
 5870ntf    on531345   4.719   0.004   5.297  0.4039 -0.3618 -0.2796
 5870ntf    on531346   5.069  -0.132   5.568  0.1824 -0.4998  0.0681
 5870ntf    on531347   4.872  -0.119   5.717  0.8546 -0.0138  0.3364
 5870ntf    fn431348   4.911   0.179   5.699 -0.1157 -0.0492  0.1674
 5870ntf    fn431349   5.093   0.097   5.777 -0.0621 -0.3212 -0.2230
 5870ntf    fn431350   5.086   0.157   5.581 -0.0251 -0.1477 -0.2098
 5871ntf    cn131351   3.204   0.592   0.728  0.2898  0.0959 -0.0986
 5871ntf    sn231352   3.260   0.760   0.688  0.0389  0.1862 -0.0718
 5871ntf    nn331353   3.409   0.760   0.739  0.1200 -0.7971 -0.2751
 5871ntf    sn231354   3.539   0.839   0.700 -0.1675 -0.2278 -0.1019
 5871ntf    cn131355   3.581   0.911   0.861 -0.0456 -0.4875 -0.0176
 5871ntf    fn431356   3.088   0.555   0.677  0.3098  0.1018 -0.1476
 5871ntf    fn431357   3.291   0.495   0.702 -0.0592 -0.2390 -0.0353
 5871ntf    fn431358   3.197   0.585   0.860  0.7454  0.6053 -0.0441
 5871ntf    on531359   3.247   0.760   0.544 -0.2884 -0.3261 -0.0448
 5871ntf    on531360   3.173   0.849   0.760  0.2364 -0.0143  0.4189
 5871ntf    on531361   3.514   0.956   0.619 -0.5824 -0.2072  0.0491
 5871ntf    on531362   3.651   0.751   0.678 -0.4295 -0.7015  0.4337
 5871ntf    fn431363   3.695   0.978   0.859 -0.3734  0.0701 -0.2512
 5871ntf    fn431364   3.485   0.994   0.899  0.3767  0.0646 -0.1492
 5871ntf    fn431365   3.592   0.822   0.958  0.3915 -0.3270  0.0821
 5872ntf    cn131366   6.273   5.014   6.834  0.3405 -0.3869  0.2454
 5872ntf    sn231367   6.298   4.841   6.787  0.0601 -0.3583 -0.0103
 5872ntf    nn331368   6.258   4.864   6.638 -0.0277  1.0410  0.2216
 5872ntf    sn231369   6.117   4.872   6.570  0.0607  0.1505 -0.0728
 5872ntf    cn131370   6.097   4.715   6.480 -0.1092  0.1822 -0.0914
 5872ntf    fn431371   6.295   5.046   6.961 -0.0586  0.0009  0.2187
 5872ntf    fn431372   6.355   5.088   6.761  0.1561 -0.3029  0.1228
 5872ntf    fn431373   6.157   5.072   6.809  0.4111 -0.0230  0.7257
 5872ntf    on531374   6.438   4.810   6.799 -0.0147 -0.8072 -0.2762
 5872ntf    on531375   6.206   4.766   6.870 -0.3672  0.1779  0.0029
 5872ntf    on531376   6.105   4.968   6.463 -0.9123  0.5046  0.3434
 5872ntf    on531377   6.008   4.867   6.665 -0.1507  0.3113 -0.3044
 5872ntf    fn431378   5.978   4.709   6.422 -0.1712 -0.1410  0.0631
 5872ntf    fn431379   6.188   4.703   6.385 -0.0020  0.0095  0.0305
 5872ntf    fn431380   6.102   4.600   6.546  0.0556  0.4239  0.3183
 5873ntf    cn131381   0.016   3.173   2.130  0.1279  0.0007 -0.5970
 5873ntf    sn231382  -0.000   3.324   2.231  0.4180 -0.0674 -0.4468
 5873ntf    nn331383   0.091   3.290   2.354 -0.6402 -0.0223  0.3583
 5873ntf    sn231384   0.072   3.182   2.466  0.2220 -0.3729  0.1717
 5873ntf    cn131385   0.107   3.294   2.605 -0.1757 -0.5458  0.4124
 5873ntf    fn431386  -0.057   3.076   2.181  0.2679  0.0571 -0.2869
 5873ntf    fn431387  -0.030   3.188   2.007 -0.0928 -0.0531 -0.5212
 5873ntf    fn431388   0.137   3.119   2.127 -0.0508 -0.4961  0.4706
 5873ntf    on531389   0.062   3.419   2.143  0.9077  0.2572  0.2499
 5873ntf    on531390  -0.141   3.347   2.251  0.5597  0.2341  0.2269
 5873ntf    on531391   0.175   3.081   2.471  0.3777 -0.2284 -0.1196
 5873ntf    on531392  -0.066   3.146   2.488  0.0533 -0.2063 -0.6088
 5873ntf    fn431393   0.124   3.234   2.722 -0.2163 -0.6549  0.3631
 5873ntf    fn431394   0.216   3.367   2.589 -0.7494  0.2915  0.2888
 5873ntf    fn431395   0.003   3.374   2.619  0.0508 -0.2123  0.1785
 5874ntf    cn131396   4.031   5.181   2.101 -0.1912  0.1290 -0.1348
 5874ntf    sn231397   4.077   5.345   2.037  0.0782  0.0499 -0.1433
 5874ntf    nn331398   3.934   5.406   2.014  0.0433 -0.0848 -0.2871
 5874ntf    sn231399   3.849   5.495   2.113  0.4000  0.3201 -0.3389
 5874ntf    cn131400   3.682   5.454   2.053  0.3086  0.4765 -0.1890
 5874ntf    fn431401   3.951   5.199   2.206 -0.5986 -0.2120 -0.3864
 5874ntf    fn431402   3.969   5.104   2.013  0.2019  0.1183 -0.4028
 5874ntf    fn431403   4.138   5.125   2.154 -0.1562 -0.2956 -0.6528
 5874ntf    on531404   4.163   5.393   2.143  0.4523 -0.4918 -0.1996
 5874ntf    on531405   4.145   5.321   1.913  0.0937 -0.1154 -0.1028
 5874ntf    on531406   3.868   5.636   2.095 -0.1593  0.4483  0.0793
 5874ntf    on531407   3.842   5.444   2.248  0.5542 -0.1390 -0.4998
 5874ntf    fn431408   3.643   5.328   2.067  0.0750  0.4972 -0.6556
 5874ntf    fn431409   3.591   5.533   2.108  0.0674  0.3239 -0.3697
 5874ntf    fn431410   3.678   5.484   1.924  0.0720 -0.0905 -0.3145
 5875ntf    cn131411   6.284   4.951   7.491 -0.1207  0.1084 -0.0200
 5875ntf    sn231412   6.451   4.993   7.432  0.0102  0.0039  0.2762
 5875ntf    nn331413   6.421   5.136   7.374 -0.1426 -0.0606  0.1948
 5875ntf    sn231414   6.516   5.256   7.339 -0.1784 -0.0574  0.1106
 5875ntf    cn131415   6.447   5.327   7.186  0.1709  0.0321 -0.0082
 5875ntf    fn431416   6.200   4.923   7.393  0.0134  0.4613 -0.2386
 5875ntf    fn431417   6.297   4.847   7.571 -0.6718  0.1083  0.0699
 5875ntf    fn431418   6.227   5.043   7.567 -0.0787 -0.1780  0.3610
 5875ntf    on531419   6.535   4.980   7.549 -0.4050  0.0899  0.5858
 5875ntf    on531420   6.473   4.901   7.324 -1.0771  0.5092 -0.3899
 5875ntf    on531421   6.650   5.215   7.301 -0.1306  0.2367 -0.0397
 5875ntf    on531422   6.505   5.361   7.436 -0.6544 -0.3695  0.3943
 5875ntf    fn431423   6.417   5.237   7.094 -0.4814 -0.3413  0.5559
 5875ntf    fn431424   6.337   5.397   7.212  0.2247 -0.1337  0.6845
 5875ntf    fn431425   6.529   5.417   7.135 -0.0123  0.1477 -0.1015
 5876ntf    cn131426   7.474   3.896   1.117 -0.1883 -0.3870 -0.2789
 5876ntf    sn231427   7.626   3.860   1.210 -0.1157 -0.4542 -0.4213
 5876ntf    nn331428   7.620   3.705   1.229 -0.8778 -0.3847 -0.0475
 5876ntf    sn231429   7.673   3.615   1.347 -0.1706 -0.0230 -0.0839
 5876ntf    cn131430   7.717   3.467   1.250 -0.3504  0.0318 -0.2504
 5876ntf    fn431431   7.456   3.832   1.002  0.2387  0.0272 -0.5831
 5876ntf    fn431432   7.366   3.875   1.190  0.1466 -0.3738  0.2197
 5876ntf    fn431433   7.465   4.023   1.082  0.0952 -0.2172  0.2630
 5876ntf    on531434   7.729   3.905   1.119 -0.3929 -0.1453 -0.5836
 5876ntf    on531435   7.606   3.937   1.330 -0.6606 -0.3829 -0.5550
 5876ntf    on531436   7.580   3.568   1.446 -0.0841 -0.4985 -0.2230
 5876ntf    on531437   7.805   3.651   1.392 -0.3922  0.0591  0.5018
 5876ntf    fn431438   7.796   3.508   1.153  0.3139 -0.1839  0.1918
 5876ntf    fn431439   7.793   3.379   1.314 -0.5296  0.0283 -0.0400
 5876ntf    fn431440   7.610   3.404   1.205 -0.4033 -0.0115 -0.0646
 5877ntf    cn131441   7.533   0.498   6.024  0.1809 -0.1474  0.4423
 5877ntf    sn231442   7.361   0.543   6.064  0.1964  0.0852  0.2527
 5877ntf    nn331443   7.275   0.513   5.935  0.4453  0.1577  0.0684
 5877ntf    sn231444   7.155   0.593   5.872  0.3337 -0.0890 -0.0332
 5877ntf    cn131445   7.074   0.453   5.790 -0.4085  0.2149  0.1687
 5877ntf    fn431446   7.604   0.464   6.130  0.2531  0.2667  0.5296
 5877ntf    fn431447   7.531   0.391   5.947 -0.0864  0.1938 -0.0341
 5877ntf    fn431448   7.598   0.595   5.962 -0.1912 -0.2213 -0.0726
 5877ntf    on531449   7.329   0.450   6.170 -0.1285  0.1580  0.2199
 5877ntf    on531450   7.366   0.679   6.110  0.1500  0.1932 -0.0590
 5877ntf    on531451   7.182   0.679   5.759 -0.5774 -0.5220 -0.5843
 5877ntf    on531452   7.063   0.646   5.969  0.0576  0.2216 -0.4606
 5877ntf    fn431453   6.983   0.487   5.700  0.4053 -0.0791 -0.7893
 5877ntf    fn431454   7.169   0.387   5.725 -0.0977  0.3027  0.5330
 5877ntf    fn431455   7.017   0.370   5.875 -0.3469 -0.5951 -0.5570
 5878ntf    cn131456   1.499   2.957   1.199  0.2879 -0.3082  0.1311
 5878ntf    sn231457   1.636   2.861   1.272  0.1690 -0.5958 -0.0248
 5878ntf    nn331458   1.752   2.955   1.225 -0.1978 -0.0503  0.1535
 5878ntf    sn231459   1.837   3.067   1.297 -0.1105 -0.1783  0.2510
 5878ntf    cn131460   2.008   3.032   1.248 -0.1410 -0.4769  0.3578
 5878ntf    fn431461   1.542   3.003   1.083  0.4441  0.1021  0.3468
 5878ntf    fn431462   1.387   2.887   1.190  0.3160 -0.4509  0.7877
 5878ntf    fn431463   1.475   3.060   1.279 -0.2188 -0.1661 -0.1998
 5878ntf    on531464   1.613   2.850   1.414  0.5855  0.0100  0.0936
 5878ntf    on531465   1.632   2.734   1.204 -0.2382 -0.2468 -0.6612
 5878ntf    on531466   1.835   3.070   1.441  0.0725  0.4310  0.2399
 5878ntf    on531467   1.817   3.198   1.240  0.5221 -0.2081 -0.0497
 5878ntf    fn431468   2.089   3.120   1.304 -0.4451 -0.0086  0.0643
 5878ntf    fn431469   2.048   2.912   1.289  1.1211 -0.1531  0.1344
 5878ntf    fn431470   2.028   3.025   1.118 -0.4817 -0.2117  0.2906
 5879ntf    cn131471   5.736   6.032   4.803 -0.4105  0.3145 -0.1480
 5879ntf    sn231472   5.669   6.038   4.972  0.1084 -0.1017  0.0750
 5879ntf    nn331473   5.738   6.169   5.024  0.2871 -0.0178 -0.3677
 5879ntf    sn231474   5.822   6.187   5.155  0.1118 -0.2452 -0.2228
 5879ntf    cn131475   5.789   6.365   5.168 -0.1228 -0.2913 -0.1944
 5879ntf    fn431476   5.682   6.123   4.724 -0.3345  0.4891  0.0020
 5879ntf    fn431477   5.868   6.044   4.800 -0.3718  0.0639  0.4520
 5879ntf    fn431478   5.691   5.920   4.747  0.2950 -0.0375 -0.0216
 5879ntf    on531479   5.526   6.046   4.959  0.1529  0.2165 -0.2344
 5879ntf    on531480   5.704   5.917   5.042  0.3650 -0.0014  0.1233
 5879ntf    on531481   5.966   6.183   5.139  0.1222 -0.3947 -0.0888
 5879ntf    on531482   5.755   6.141   5.274 -0.0887 -0.0910 -0.2761
 5879ntf    fn431483   5.661   6.388   5.197  0.0363 -0.5031  0.7234
 5879ntf    fn431484   5.848   6.434   5.265  0.4545 -0.6372 -0.2983
 5879ntf    fn431485   5.815   6.435   5.059 -0.1510 -0.0078 -0.0229
 5880ntf    cn131486   2.089   5.127   4.430 -0.4540  0.5044  0.3624
 5880ntf    sn231487   2.108   5.099   4.251  0.1405  0.0644  0.4869
 5880ntf    nn331488   2.239   5.181   4.223 -0.0932  0.3316  0.1634
 5880ntf    sn231489   2.316   5.199   4.087 -0.2127  0.0838  0.0625
 5880ntf    cn131490   2.471   5.116   4.134  0.1556  0.4406 -0.5060
 5880ntf    fn431491   2.208   5.118   4.489 -0.1490 -0.0477 -0.3103
 5880ntf    fn431492   2.040   5.246   4.455  0.0162  0.7475  0.1453
 5880ntf    fn431493   2.005   5.039   4.482 -0.5420  0.3235 -0.0830
 5880ntf    on531494   2.130   4.957   4.251  0.0096  0.0298 -0.8171
 5880ntf    on531495   1.985   5.154   4.198  0.5496  0.1763 -0.3623
 5880ntf    on531496   2.363   5.334   4.074 -0.0154  0.0796  0.7260
 5880ntf    on531497   2.256   5.133   3.973 -0.1134 -0.4697  0.3278
 5880ntf    fn431498   2.544   5.194   4.212  0.0011  0.0446  0.0483
 5880ntf    fn431499   2.453   5.000   4.196  0.8823  0.4010 -0.3637
 5880ntf    fn431500   2.537   5.075   4.028  0.3332 -0.7941  0.0645
 5881ntf    cn131501   3.886   2.696   0.139  0.0802  0.1217 -0.3021
 5881ntf    sn231502   4.019   2.762   0.244  0.1368 -0.3414 -0.0821
 5881ntf    nn331503   4.145   2.679   0.202  0.4882  0.1904 -0.0892
 5881ntf    sn231504   4.297   2.710   0.220  0.4451  0.1493  0.3434
 5881ntf    cn131505   4.357   2.747   0.052  0.1388 -0.0586  0.1877
 5881ntf    fn431506   3.923   2.689   0.012  0.3530 -0.0295 -0.2150
 5881ntf    fn431507   3.838   2.578   0.174  0.3166  0.2159  0.3524
 5881ntf    fn431508   3.783   2.778   0.139 -0.5332 -0.6301 -0.8064
 5881ntf    on531509   4.027   2.898   0.197 -0.3674 -0.3162 -0.1087
 5881ntf    on531510   3.971   2.737   0.378 -0.2061  0.4652 -0.0496
 5881ntf    on531511   4.371   2.591   0.256 -0.0527 -0.2323  0.1102
 5881ntf    on531512   4.321   2.828   0.299  0.8367  0.3774 -0.1108
 5881ntf    fn431513   4.305   2.857   0.002 -0.4179 -0.4946 -0.2073
 5881ntf    fn431514   4.487   2.771   0.056  0.1491 -0.0259 -0.4118
 5881ntf    fn431515   4.343   2.655  -0.042  0.4296  0.2651 -0.1749
 5882ntf    cn131516   7.627   1.726   6.665 -0.0892 -0.0086 -0.2675
 5882ntf    sn231517   7.542   1.781   6.816  0.0538 -0.1240 -0.1443
 5882ntf    nn331518   7.659   1.859   6.885 -0.2506 -0.0264  0.2685
 5882ntf    sn231519   7.647   1.936   7.021  0.0624  0.0929  0.2299
 5882ntf    cn131520   7.713   1.813   7.138  0.1620  0.0870  0.1673
 5882ntf    fn431521   7.570   1.622   6.607 -0.4477  0.3551 -0.5722
 5882ntf    fn431522   7.622   1.823   6.576 -0.3884  0.1542 -0.0777
 5882ntf    fn431523   7.752   1.689   6.688 -0.0413  0.1037 -0.3497
 5882ntf    on531524   7.436   1.868   6.768 -0.2956 -0.4326  0.0611
 5882ntf    on531525   7.500   1.660   6.883 -0.2883 -0.1522 -0.4037
 5882ntf    on531526   7.512   1.950   7.070 -0.1744 -1.0016 -0.0959
 5882ntf    on531527   7.736   2.050   7.022 -0.2054  0.3061  0.0217
 5882ntf    fn431528   7.658   1.696   7.115 -0.1356  0.2279  0.1588
 5882ntf    fn431529   7.845   1.804   7.127  0.1204  0.4271 -0.6681
 5882ntf    fn431530   7.679   1.848   7.261  0.3300  0.0837  0.2152
 5883ntf    cn131531   0.921   3.149   2.117  0.1571 -0.3477 -0.1664
 5883ntf    sn231532   1.061   3.157   2.233  0.0832  0.1715 -0.1101
 5883ntf    nn331533   0.987   3.112   2.363 -0.0682 -0.0682 -0.2800
 5883ntf    sn231534   1.009   2.983   2.451  0.5860  0.1434 -0.1273
 5883ntf    cn131535   0.946   3.029   2.615 -0.1333 -0.0230 -0.3522
 5883ntf    fn431536   0.866   3.029   2.114 -0.1825 -0.1962 -0.0279
 5883ntf    fn431537   0.825   3.236   2.145  0.0763 -0.4945  0.0133
 5883ntf    fn431538   0.967   3.167   1.994  0.2443 -0.2937 -0.1261
 5883ntf    on531539   1.153   3.064   2.172  0.0272  0.3462 -0.4641
 5883ntf    on531540   1.102   3.295   2.238  0.2574  0.1143  0.0435
 5883ntf    on531541   1.145   2.937   2.462  0.2389 -0.6513  0.9278
 5883ntf    on531542   0.916   2.880   2.412  0.3361  0.1682  0.3933
 5883ntf    fn431543   1.026   3.119   2.670  0.3246 -0.1499 -0.8075
 5883ntf    fn431544   0.825   3.084   2.616  0.1528  0.6062 -0.0561
 5883ntf    fn431545   0.923   2.926   2.695  0.3428  0.0131 -0.1669
 5884ntf    cn131546   7.630   1.646   5.666  0.5640  0.2580  0.0087
 5884ntf    sn231547   7.740   1.614   5.525  0.2191 -0.0216 -0.1984
 5884ntf    nn331548   7.671   1.696   5.410 -0.3403 -1.1448 -0.6859
 5884ntf    sn231549   7.725   1.767   5.280 -0.0763  0.3349  0.2069
 5884ntf    cn131550   7.696   1.642   5.151  0.0203  0.3495  0.1712
 5884ntf    fn431551   7.503   1.612   5.645  0.5096  0.1382  0.5098
 5884ntf    fn431552   7.667   1.578   5.773  0.0342  0.0885  0.0866
 5884ntf    fn431553   7.625   1.772   5.707  0.8352  0.3625 -0.2780
 5884ntf    on531554   7.869   1.659   5.570  0.0590 -0.3305  0.5815
 5884ntf    on531555   7.719   1.473   5.505  0.4153  0.0354 -0.8438
 5884ntf    on531556   7.868   1.784   5.275 -0.1000  0.3413 -0.4723
 5884ntf    on531557   7.635   1.873   5.243  0.5064  0.5508 -0.6223
 5884ntf    fn431558   7.735   1.519   5.180  0.5572  0.4659 -0.0334
 5884ntf    fn431559   7.569   1.631   5.117  0.1252  0.3552 -0.2311
 5884ntf    fn431560   7.766   1.668   5.041  0.0935 -0.2069  0.0855
 5885ntf    cn131561   4.041   1.932   5.035 -0.2673 -0.1601 -0.3899
 5885ntf    sn231562   4.144   1.783   5.057 -0.3581 -0.1400  0.1950
 5885ntf    nn331563   4.104   1.701   4.929 -0.3665 -0.0775  0.1579
 5885ntf    sn231564   4.173   1.690   4.789 -0.0153 -0.0486  0.3275
 5885ntf    cn131565   4.081   1.803   4.680 -0.2128 -0.3441  0.1848
 5885ntf    fn431566   4.093   2.005   4.938  0.3664 -0.1806 -0.0741
 5885ntf    fn431567   3.918   1.898   5.000 -0.6111  0.2454  0.4048
 5885ntf    fn431568   4.036   2.001   5.148 -0.4007 -0.5920 -0.1291
 5885ntf    on531569   4.282   1.827   5.052 -0.3880 -0.0368  0.2755
 5885ntf    on531570   4.093   1.728   5.180  0.0972 -0.1211  0.3940
 5885ntf    on531571   4.157   1.560   4.727 -0.2238 -0.0791  0.4453
 5885ntf    on531572   4.310   1.732   4.774 -0.2050  0.3329 -0.4023
 5885ntf    fn431573   3.949   1.803   4.671 -0.1792  0.2309 -0.3735
 5885ntf    fn431574   4.121   1.927   4.701 -0.1822 -0.3249  0.0088
 5885ntf    fn431575   4.117   1.772   4.557  0.2464  0.0948  0.2066
 5886ntf    cn131576   0.995   0.868   1.926 -0.0877  0.3156 -0.6366
 5886ntf    sn231577   0.840   0.797   1.989  0.3250  0.0259  0.0623
 5886ntf    nn331578   0.882   0.707   2.111 -0.0593  0.2925  0.3977
 5886ntf    sn231579   0.950   0.565   2.116 -0.2410  0.1747 -0.2539
 5886ntf    cn131580   0.804   0.460   2.142  0.0883 -0.3040 -0.3429
 5886ntf    fn431581   1.050   0.959   2.005  0.2004 -0.5452  0.1794
 5886ntf    fn431582   1.083   0.773   1.899 -0.1825 -0.0139  0.1751
 5886ntf    fn431583   0.970   0.928   1.811 -0.3365  0.7433 -0.3664
 5886ntf    on531584   0.774   0.918   2.032 -0.5264 -0.3314 -0.2087
 5886ntf    on531585   0.795   0.734   1.867  0.4897  0.3491 -0.1655
 5886ntf    on531586   1.026   0.542   2.237 -0.2072 -0.0334 -0.3148
 5886ntf    on531587   1.004   0.521   1.991  0.1865 -0.5486  0.1785
 5886ntf    fn431588   0.711   0.496   2.056  0.5862 -0.4437 -0.9436
 5886ntf    fn431589   0.834   0.333   2.118 -0.6190 -0.5548  0.0698
 5886ntf    fn431590   0.757   0.469   2.266 -0.1579 -0.7255 -0.4035
 5887ntf    cn131591   5.897   2.693   0.693 -0.3666  0.0185 -0.0846
 5887ntf    sn231592   5.997   2.541   0.687 -0.1437  0.1518  0.1840
 5887ntf    nn331593   6.121   2.593   0.606  0.0991 -0.0472  0.4297
 5887ntf    sn231594   6.267   2.539   0.626  0.0114 -0.4037  0.1228
 5887ntf    cn131595   6.341   2.667   0.732  0.0694 -0.0765 -0.3143
 5887ntf    fn431596   5.799   2.670   0.779 -0.5660  0.7108 -0.1218
 5887ntf    fn431597   5.947   2.809   0.733  0.3474 -0.3086 -0.0165
 5887ntf    fn431598   5.835   2.723   0.580  0.6736  0.5609 -0.5271
 5887ntf    on531599   6.022   2.531   0.828 -1.1408 -0.4367  0.3253
 5887ntf    on531600   5.918   2.453   0.605 -0.2589 -0.1126  0.5777
 5887ntf    on531601   6.336   2.558   0.501 -0.2664  0.8912  0.1640
 5887ntf    on531602   6.290   2.415   0.697  1.0858 -0.2613  0.0475
 5887ntf    fn431603   6.301   2.785   0.689 -0.9116 -0.2661  0.0608
 5887ntf    fn431604   6.303   2.663   0.858  0.8548  0.0721 -0.0660
 5887ntf    fn431605   6.473   2.673   0.727  0.0258  0.7439 -0.7221
 5888ntf    cn131606   0.801   0.249   2.514  0.0482 -0.0368 -0.2566
 5888ntf    sn231607   0.917   0.118   2.562 -0.0417 -0.1946 -0.4690
 5888ntf    nn331608   0.948   0.169   2.707 -0.4642 -0.4379 -0.2935
 5888ntf    sn231609   0.957   0.077   2.834 -0.0405  0.0006 -0.0027
 5888ntf    cn131610   1.119   0.000   2.805 -0.0310  0.0265 -0.0183
 5888ntf    fn431611   0.853   0.371   2.518 -0.0279 -0.0160  0.1534
 5888ntf    fn431612   0.751   0.235   2.392  0.6236 -0.5844 -0.4327
 5888ntf    fn431613   0.705   0.251   2.604 -0.1798 -0.0140 -0.4985
 5888ntf    on531614   0.825   0.008   2.553 -0.3697  0.0398  0.0253
 5888ntf    on531615   1.030   0.127   2.472  0.3365  0.3817  0.0515
 5888ntf    on531616   0.862  -0.031   2.832  0.4462 -0.4225 -0.8129
 5888ntf    on531617   0.978   0.151   2.956 -0.9033 -0.0254  0.1709
 5888ntf    fn431618   1.147  -0.101   2.886  0.0418  0.0943  0.0421
 5888ntf    fn431619   1.135  -0.048   2.683 -0.0979 -0.2469  0.0816
 5888ntf    fn431620   1.214   0.091   2.819 -0.1151  0.0359  0.5237
 5889ntf    cn131621   4.634   4.709   3.879  0.3649 -0.1164  0.1357
 5889ntf    sn231622   4.628   4.881   3.821 -0.0659 -0.0633  0.3375
 5889ntf    nn331623   4.495   4.937   3.883 -0.1297  0.0739  0.0780
 5889ntf    sn231624   4.472   4.994   4.028  0.0805  0.3739 -0.0049
 5889ntf    cn131625   4.380   4.849   4.089 -0.1118  0.5464  0.1158
 5889ntf    fn431626   4.538   4.634   3.828 -0.0943  0.4396  0.1677
 5889ntf    fn431627   4.746   4.654   3.835  0.6008  0.3486  0.1432
 5889ntf    fn431628   4.629   4.698   4.011 -1.1846  0.2433  0.1277
 5889ntf    on531629   4.751   4.935   3.872  0.2711 -0.7100  0.2086
 5889ntf    on531630   4.619   4.851   3.680 -0.5993 -0.0651  0.3692
 5889ntf    on531631   4.377   5.102   4.028 -0.2320  0.1118 -0.8323
 5889ntf    on531632   4.590   5.005   4.110  0.2543 -0.3360 -0.1531
 5889ntf    fn431633   4.252   4.867   4.063 -0.0462  0.0730 -0.5586
 5889ntf    fn431634   4.422   4.737   4.033  0.4016  0.6810  0.2279
 5889ntf    fn431635   4.398   4.841   4.219  0.2219  0.2125  0.0519
 5890ntf    cn131636   3.175   1.639   3.387 -0.0594  0.4315  0.3580
 5890ntf    sn231637   3.226   1.766   3.507  0.3602  0.0507  0.5845
 5890ntf    nn331638   3.083   1.829   3.522 -0.1384 -0.6938 -0.7545
 5890ntf    sn231639   2.972   1.797   3.628  0.1678  0.3008 -0.1157
 5890ntf    cn131640   2.820   1.836   3.535  0.1142  0.5012  0.0540
 5890ntf    fn431641   3.090   1.543   3.421 -0.3641  0.6340  0.1713
 5890ntf    fn431642   3.115   1.695   3.282  0.0287  0.3123  0.2441
 5890ntf    fn431643   3.277   1.565   3.347 -0.3614  0.0159  0.3494
 5890ntf    on531644   3.281   1.691   3.617 -0.0586 -0.0594  0.7220
 5890ntf    on531645   3.315   1.847   3.427  0.3096 -0.4116  0.0480
 5890ntf    on531646   2.972   1.884   3.743  0.0594 -0.0286  0.1368
 5890ntf    on531647   2.950   1.656   3.647  0.1675  0.3326  0.1245
 5890ntf    fn431648   2.716   1.847   3.615  0.2428 -0.4201  0.3545
 5890ntf    fn431649   2.838   1.951   3.473 -0.4288  0.3277 -0.4296
 5890ntf    fn431650   2.788   1.742   3.448 -0.2280  0.6173  0.0549
 5891ntf    cn131651   1.284   0.835   6.370 -0.0699  0.1973 -0.0110
 5891ntf    sn231652   1.284   0.765   6.202  0.1233  0.1116  0.0247
 5891ntf    nn331653   1.146   0.691   6.215  0.1251  0.1298  0.1512
 5891ntf    sn231654   1.009   0.725   6.146 -0.0392  0.1014  0.4614
 5891ntf    cn131655   0.916   0.786   6.290 -0.4034 -0.0822  0.3050
 5891ntf    fn431656   1.196   0.932   6.393  0.3123  0.5935 -0.1982
 5891ntf    fn431657   1.261   0.741   6.460 -0.1424 -0.0048 -0.2390
 5891ntf    fn431658   1.399   0.891   6.404 -0.1724  0.5446 -0.2335
 5891ntf    on531659   1.288   0.883   6.120  0.6510 -0.1223 -0.2894
 5891ntf    on531660   1.397   0.675   6.204 -0.3762 -0.5353 -0.5183
 5891ntf    on531661   0.937   0.606   6.111  0.2619  0.1602 -0.3923
 5891ntf    on531662   1.009   0.826   6.044 -0.0977 -0.2377  0.1246
 5891ntf    fn431663   0.882   0.690   6.374  0.3707 -0.4568  0.1985
 5891ntf    fn431664   0.982   0.870   6.369  0.0968 -0.3965  0.2293
 5891ntf    fn431665   0.802   0.843   6.256  0.0983  0.9168  0.2327
 5892ntf    cn131666   5.726   6.928   1.841  0.2540  0.1781 -0.1483
 5892ntf    sn231667   5.847   7.049   1.777  0.3013  0.1605 -0.0937
 5892ntf    nn331668   5.987   6.979   1.778  0.5130  0.5761 -0.4770
 5892ntf    sn231669   6.058   6.906   1.658  0.2505 -0.1113 -0.2185
 5892ntf    cn131670   6.172   7.039   1.611 -0.1474  0.1065 -0.5744
 5892ntf    fn431671   5.703   6.823   1.764  0.6748 -0.1995  0.2391
 5892ntf    fn431672   5.762   6.878   1.958  0.0264 -0.4790 -0.3587
 5892ntf    fn431673   5.609   6.987   1.861 -0.2415 -0.7141 -0.3921
 5892ntf    on531674   5.791   7.100   1.654 -0.5828  0.0929  0.2693
 5892ntf    on531675   5.846   7.154   1.875  0.1400  0.0440  0.0307
 5892ntf    on531676   5.975   6.888   1.542 -0.5945  0.6788  0.2504
 5892ntf    on531677   6.136   6.791   1.696  0.2476 -0.1732 -0.4020
 5892ntf    fn431678   6.239   7.006   1.502  0.7813 -0.1447  0.0671
 5892ntf    fn431679   6.122   7.160   1.591  0.2174  0.3427 -0.0759
 5892ntf    fn431680   6.267   7.048   1.703 -0.4558 -0.1152 -0.2332
 5893ntf    cn131681   7.145   2.206   6.654  0.0813 -0.3500 -0.4037
 5893ntf    sn231682   7.294   2.240   6.556  0.2042 -0.3237 -0.2081
 5893ntf    nn331683   7.316   2.395   6.561  0.1171 -0.3097 -0.2578
 5893ntf    sn231684   7.237   2.502   6.478  0.2173 -0.1651 -0.1695
 5893ntf    cn131685   7.299   2.654   6.556 -0.3197 -0.0482  0.0295
 5893ntf    fn431686   7.044   2.255   6.584 -0.0772 -0.6369 -0.3763
 5893ntf    fn431687   7.107   2.082   6.680  0.0051 -0.2733 -0.1513
 5893ntf    fn431688   7.151   2.269   6.770 -0.3967 -0.0134 -0.5570
 5893ntf    on531689   7.400   2.166   6.621  0.1615 -0.0907  0.1255
 5893ntf    on531690   7.255   2.193   6.426 -0.4922 -0.5702  0.0865
 5893ntf    on531691   7.096   2.508   6.505  0.1027 -0.4335 -0.6823
 5893ntf    on531692   7.279   2.513   6.340  0.2122 -0.1934 -0.1734
 5893ntf    fn431693   7.431   2.663   6.556 -0.2753 -0.6669 -0.2531
 5893ntf    fn431694   7.251   2.764   6.500  0.6633  0.4443  0.1438
 5893ntf    fn431695   7.264   2.672   6.682 -0.4204 -0.7544  0.1066
 5894ntf    cn131696   1.677   5.617   0.192 -0.1479  0.0592 -0.0617
 5894ntf    sn231697   1.540   5.567   0.301 -0.3058  0.4869 -0.0647
 5894ntf    nn331698   1.437   5.684   0.280 -0.1637  0.7909  0.8969
 5894ntf    sn231699   1.281   5.678   0.300 -0.2658 -0.0526 -0.0475
 5894ntf    cn131700   1.266   5.858   0.323 -0.1160 -0.0324 -0.1022
 5894ntf    fn431701   1.773   5.526   0.191  0.3513  0.5769  0.5575
 5894ntf    fn431702   1.639   5.621   0.065 -0.1672 -0.6928 -0.0879
 5894ntf    fn431703   1.728   5.737   0.213  0.3182 -0.1765  0.1606
 5894ntf    on531704   1.497   5.440   0.248 -0.2437  0.5365 -0.2378
 5894ntf    on531705   1.599   5.573   0.432  0.8492  0.3795 -0.5709
 5894ntf    on531706   1.240   5.625   0.428  0.5504 -0.0134  0.2369
 5894ntf    on531707   1.201   5.657   0.182  0.2185  0.5289 -0.4875
 5894ntf    fn431708   1.379   5.915   0.363  0.1104 -0.2878 -0.3670
 5894ntf    fn431709   1.236   5.912   0.206 -0.1305 -0.0935 -0.1267
 5894ntf    fn431710   1.174   5.897   0.409 -0.3284  0.1591 -0.4179
 5895ntf    cn131711   7.124   2.611   3.239  0.0924  0.1271  0.2323
 5895ntf    sn231712   7.271   2.601   3.346  0.2634  0.1783  0.0024
 5895ntf    nn331713   7.249   2.454   3.396 -0.2693  0.3719  0.3475
 5895ntf    sn231714   7.211   2.411   3.543 -0.4069 -0.0380  0.1933
 5895ntf    cn131715   7.209   2.229   3.535  0.0712 -0.0422  0.1419
 5895ntf    fn431716   7.014   2.610   3.313 -0.2079 -0.7286 -0.2106
 5895ntf    fn431717   7.124   2.719   3.162 -0.2986 -0.2421 -0.2956
 5895ntf    fn431718   7.116   2.514   3.150 -0.3021  0.7218 -0.3968
 5895ntf    on531719   7.384   2.624   3.259  0.5337  0.0589  0.3231
 5895ntf    on531720   7.254   2.701   3.448  0.4856  0.5744 -0.3464
 5895ntf    on531721   7.079   2.448   3.584 -0.4378 -0.0834  0.1353
 5895ntf    on531722   7.323   2.437   3.630 -0.6378 -0.1849  0.5359
 5895ntf    fn431723   7.202   2.169   3.653 -0.2477  0.2955  0.2949
 5895ntf    fn431724   7.109   2.175   3.468 -0.0553  0.3728 -0.0099
 5895ntf    fn431725   7.316   2.172   3.482 -0.1409 -0.2242 -0.0879
 5896ntf    cn131726   6.492   3.973   1.038 -0.2191  0.0569  0.2539
 5896ntf    sn231727   6.639   4.078   1.017 -0.1721 -0.0700 -0.0486
 5896ntf    nn331728   6.744   3.967   1.053 -0.2986 -0.0466  0.3955
 5896ntf    sn231729   6.773   3.907   1.195  0.2425  0.0807  0.3416
 5896ntf    cn131730   6.947   3.953   1.216  0.2708  0.1976 -0.1281
 5896ntf    fn431731   6.381   4.037   1.006  0.3165  0.8842  0.0094
 5896ntf    fn431732   6.496   3.854   0.981  0.2814 -0.0637  0.5251
 5896ntf    fn431733   6.467   3.936   1.163 -0.5463 -0.7088 -0.0351
 5896ntf    on531734   6.647   4.109   0.876 -0.1319 -0.6711 -0.1796
 5896ntf    on531735   6.624   4.180   1.118 -0.1134  0.2731 -0.3831
 5896ntf    on531736   6.779   3.763   1.189  0.3972  0.1087 -0.1924
 5896ntf    on531737   6.708   3.965   1.310  0.5046 -0.0194  0.5401
 5896ntf    fn431738   7.022   3.879   1.135  0.3250  0.1082  0.0028
 5896ntf    fn431739   6.974   4.081   1.197 -0.5346  0.4037  0.0929
 5896ntf    fn431740   6.988   3.916   1.337 -0.5624  0.0455  0.1135
 5897ntf    cn131741   5.426   4.758   7.317  0.0260 -0.4510 -0.3930
 5897ntf    sn231742   5.565   4.862   7.372 -0.3268 -0.1415 -0.0838
 5897ntf    nn331743   5.592   4.799   7.513 -0.7140 -0.5197 -0.1741
 5897ntf    sn231744   5.721   4.769   7.597 -0.4728  0.2579 -0.2544
 5897ntf    cn131745   5.740   4.593   7.554  0.1139  0.1806  0.3029
 5897ntf    fn431746   5.339   4.754   7.417 -0.0996  0.7954 -0.4426
 5897ntf    fn431747   5.371   4.808   7.208  0.3605 -0.0819 -0.3921
 5897ntf    fn431748   5.466   4.635   7.287  1.0521 -0.2774  0.2295
 5897ntf    on531749   5.662   4.841   7.267 -0.0037 -0.3283  0.2531
 5897ntf    on531750   5.519   4.998   7.381  0.2764  0.0709 -0.1969
 5897ntf    on531751   5.697   4.757   7.739  0.4969 -0.2433 -0.1205
 5897ntf    on531752   5.838   4.837   7.549 -0.2168  0.5043  0.6884
 5897ntf    fn431753   5.664   4.549   7.455  0.6607 -0.1799  0.0413
 5897ntf    fn431754   5.862   4.549   7.530 -0.1264 -0.2653 -0.1080
 5897ntf    fn431755   5.708   4.523   7.661  0.1871 -0.0659  0.1638
 5898ntf    cn131756   3.446   4.423   1.980 -0.0646  0.6105 -0.4359
 5898ntf    sn231757   3.521   4.438   1.815  0.1746 -0.1581 -0.4023
 5898ntf    nn331758   3.426   4.551   1.761  0.3365  0.0972 -0.1544
 5898ntf    sn231759   3.466   4.666   1.662 -0.2420  0.3015 -0.1566
 5898ntf    cn131760   3.540   4.793   1.768 -0.0579 -0.0849  0.1807
 5898ntf    fn431761   3.430   4.537   2.046  0.3063  0.2873  0.2145
 5898ntf    fn431762   3.325   4.367   1.979  0.1077  0.2223  0.2306
 5898ntf    fn431763   3.526   4.349   2.054 -0.0614  0.5562 -0.4930
 5898ntf    on531764   3.655   4.479   1.846  0.2291 -0.3301 -0.4085
 5898ntf    on531765   3.498   4.306   1.763 -0.4409 -0.1613 -0.1286
 5898ntf    on531766   3.348   4.726   1.604 -0.0151  0.6375 -0.2729
 5898ntf    on531767   3.565   4.636   1.562  0.1223  0.6255  0.1089
 5898ntf    fn431768   3.441   4.838   1.843  0.1651  0.1035  0.3655
 5898ntf    fn431769   3.640   4.751   1.844  0.1949  0.3209  0.0771
 5898ntf    fn431770   3.580   4.891   1.688 -0.5488 -0.1171 -0.1119
 5899ntf    cn131771   0.126   1.455   4.802 -0.0659  0.3327  0.4154
 5899ntf    sn231772  -0.014   1.343   4.833  0.0734  0.0277 -0.0595
 5899ntf    nn331773  -0.119   1.389   4.726 -0.1809 -0.5454 -0.0559
 5899ntf    sn231774  -0.218   1.507   4.756  0.3717  0.0281 -0.4658
 5899ntf    cn131775  -0.243   1.553   4.582  0.0570  0.3119 -0.3465
 5899ntf    fn431776   0.211   1.445   4.903  0.3786 -0.1852 -0.0044
 5899ntf    fn431777   0.190   1.427   4.690 -0.5754 -0.2213  0.2563
 5899ntf    fn431778   0.089   1.582   4.787 -0.0611  0.2776 -0.0553
 5899ntf    on531779   0.050   1.219   4.796  0.0662 -0.1642  0.5541
 5899ntf    on531780  -0.059   1.359   4.969 -0.0503 -0.1664 -0.0777
 5899ntf    on531781  -0.161   1.625   4.815 -0.7817  0.3056  0.1301
 5899ntf    on531782  -0.347   1.468   4.809  0.3567  0.4417 -0.1963
 5899ntf    fn431783  -0.126   1.580   4.525  0.3501 -0.0950  0.0590
 5899ntf    fn431784  -0.296   1.454   4.513  0.5994 -0.2250 -0.0003
 5899ntf    fn431785  -0.325   1.656   4.572 -0.5810 -0.1763 -0.1763
 5900ntf    cn131786   6.306   3.837   3.974 -0.1434 -0.0957 -0.0131
 5900ntf    sn231787   6.444   3.848   4.091 -0.0486  0.6897 -0.1966
 5900ntf    nn331788   6.403   3.736   4.193  0.8065  0.5176 -0.0353
 5900ntf    sn231789   6.463   3.590   4.196 -0.0915  0.1420 -0.1046
 5900ntf    cn131790   6.594   3.616   4.319 -0.0700 -0.0446 -0.0870
 5900ntf    fn431791   6.200   3.902   4.018 -0.0161 -0.2119  0.4738
 5900ntf    fn431792   6.337   3.906   3.865  0.2477  0.0240  0.1715
 5900ntf    fn431793   6.277   3.712   3.940  0.6671 -0.2995  0.0154
 5900ntf    on531794   6.564   3.819   4.017  0.4426 -0.1816  0.9099
 5900ntf    on531795   6.416   3.981   4.139 -0.0263  0.3473  0.7806
 5900ntf    on531796   6.529   3.539   4.079 -0.2471 -0.2398 -0.0254
 5900ntf    on531797   6.370   3.508   4.269  0.0426 -0.0191 -0.1146
 5900ntf    fn431798   6.627   3.506   4.383  0.4098  0.1209 -0.0475
 5900ntf    fn431799   6.702   3.662   4.258  0.0349  0.3635  0.3961
 5900ntf    fn431800   6.560   3.710   4.406  0.5598  0.1907 -0.0901
 5901ntf    cn131801   7.367   4.776   2.686  0.1361 -0.3424  0.1627
 5901ntf    sn231802   7.260   4.922   2.670  0.3551 -0.2009 -0.0303
 5901ntf    nn331803   7.208   4.927   2.818  0.5865  0.5150  0.0279
 5901ntf    sn231804   7.066   4.907   2.881  0.4494  0.2541 -0.3643
 5901ntf    cn131805   7.022   5.083   2.891  0.0118  0.1342 -0.1364
 5901ntf    fn431806   7.301   4.685   2.755  0.1765 -0.4899  0.0092
 5901ntf    fn431807   7.407   4.712   2.577 -0.0474 -0.4155  0.1384
 5901ntf    fn431808   7.478   4.802   2.754  0.0896 -0.1385  0.1611
 5901ntf    on531809   7.352   5.025   2.630  0.3230 -0.1702 -0.0252
 5901ntf    on531810   7.168   4.877   2.567 -0.3968  0.6206  0.2722
 5901ntf    on531811   7.071   4.871   3.020  0.1032  0.7763 -0.2131
 5901ntf    on531812   6.969   4.847   2.791 -0.3022  0.3216  0.3876
 5901ntf    fn431813   6.912   5.121   2.955 -0.0318 -0.2827  0.0356
 5901ntf    fn431814   7.116   5.158   2.946  0.1907 -0.1624 -0.0401
 5901ntf    fn431815   7.003   5.143   2.774 -0.0885 -0.2214 -0.3046
 5902ntf    cn131816   1.538   5.286   1.266 -0.3636  0.9730  0.0718
 5902ntf    sn231817   1.361   5.316   1.233 -0.4487  0.1555 -0.2315
 5902ntf    nn331818   1.343   5.451   1.311  0.2753  0.0472  0.1314
 5902ntf    sn231819   1.218   5.541   1.341  0.0169 -0.1960 -0.2126
 5902ntf    cn131820   1.167   5.482   1.505  0.4010 -0.5437 -0.2154
 5902ntf    fn431821   1.617   5.385   1.228  0.8685  0.2201  0.6217
 5902ntf    fn431822   1.556   5.269   1.396  0.1045  0.0940 -0.1037
 5902ntf    fn431823   1.580   5.179   1.202 -0.1496  0.8170  0.4745
 5902ntf    on531824   1.336   5.332   1.092 -0.2497 -0.1082 -0.2967
 5902ntf    on531825   1.299   5.201   1.294 -0.5428  0.4018  0.1364
 5902ntf    on531826   1.107   5.516   1.252  0.0722 -0.3241 -0.2461
 5902ntf    on531827   1.250   5.680   1.363  0.3847 -0.2779 -0.2190
 5902ntf    fn431828   1.262   5.508   1.594 -0.2958 -0.3263  0.4836
 5902ntf    fn431829   1.057   5.547   1.541  0.3094 -0.4601 -0.6512
 5902ntf    fn431830   1.139   5.353   1.508 -0.2500 -0.4045 -0.1992
 5903ntf    cn131831   0.390   1.581   1.514  0.0618 -0.0280 -0.3348
 5903ntf    sn231832   0.422   1.503   1.674 -0.0787 -0.1744 -0.3783
 5903ntf    nn331833   0.403   1.630   1.765  0.1425 -0.3585 -0.0714
 5903ntf    sn231834   0.290   1.677   1.864  0.0582  0.0528 -0.3619
 5903ntf    cn131835   0.394   1.758   1.989 -0.6823 -0.0236  0.3067
 5903ntf    fn431836   0.413   1.513   1.403  0.2160  0.4083 -0.5751
 5903ntf    fn431837   0.265   1.620   1.499  0.0587 -0.0410 -0.3430
 5903ntf    fn431838   0.452   1.696   1.496  0.5131 -0.2203 -0.0219
 5903ntf    on531839   0.322   1.399   1.673 -0.3220  0.0202  1.0119
 5903ntf    on531840   0.559   1.457   1.664  0.1888  0.5819 -0.2311
 5903ntf    on531841   0.233   1.571   1.943 -0.4130  0.4893 -0.1169
 5903ntf    on531842   0.214   1.790   1.817 -0.0015  0.0852 -0.1877
 5903ntf    fn431843   0.475   1.667   2.040 -0.4799  0.2475  0.4710
 5903ntf    fn431844   0.486   1.842   1.945 -0.4284 -0.4579  0.0015
 5903ntf    fn431845   0.334   1.822   2.088  0.0356  0.7421  0.2571
 5904ntf    cn131846   1.379   4.788   3.685 -0.3571  0.5968 -0.3092
 5904ntf    sn231847   1.292   4.753   3.529  0.1326 -0.1661 -0.4157
 5904ntf    nn331848   1.146   4.806   3.551  0.2871  0.0743  0.0494
 5904ntf    sn231849   1.013   4.731   3.587  0.0413  0.4100 -0.1466
 5904ntf    cn131850   0.931   4.884   3.640 -0.4565  0.0808  0.0435
 5904ntf    fn431851   1.499   4.733   3.692 -0.4426  0.4752  0.3027
 5904ntf    fn431852   1.377   4.916   3.718 -0.1385  0.5368 -0.0631
 5904ntf    fn431853   1.306   4.735   3.782  0.2061 -0.4929 -0.4683
 5904ntf    on531854   1.376   4.842   3.453  0.4016 -0.0460  0.0171
 5904ntf    on531855   1.308   4.612   3.503  0.3136 -0.1052 -0.6348
 5904ntf    on531856   1.018   4.643   3.701  0.1164  0.3044 -0.2308
 5904ntf    on531857   0.930   4.690   3.476 -0.2817  0.1195  0.1977
 5904ntf    fn431858   1.006   4.944   3.731  0.3764 -0.6253 -0.1624
 5904ntf    fn431859   0.919   4.970   3.539  0.0696  0.4581  0.2989
 5904ntf    fn431860   0.809   4.862   3.686 -0.8470  0.5802 -0.7355
 5905ntf    cn131861   4.609   0.506   6.171 -0.1793  0.0839  0.6014
 5905ntf    sn231862   4.625   0.673   6.242 -0.2063  0.3468 -0.0054
 5905ntf    nn331863   4.780   0.694   6.229  0.0188 -1.0834  0.1854
 5905ntf    sn231864   4.890   0.648   6.331 -0.1072 -0.3655  0.6513
 5905ntf    cn131865   4.994   0.549   6.220 -0.1414  0.1355  0.1673
 5905ntf    fn431866   4.685   0.486   6.064 -0.8566  0.0469  0.1228
 5905ntf    fn431867   4.649   0.420   6.263 -0.2510 -0.0605  0.4986
 5905ntf    fn431868   4.487   0.466   6.140 -0.0915 -0.0325  0.4011
 5905ntf    on531869   4.558   0.753   6.142 -0.5513  0.5265  0.3679
 5905ntf    on531870   4.572   0.656   6.375  0.4926 -0.5100  0.1704
 5905ntf    on531871   4.859   0.551   6.433 -0.0244 -0.7055  0.3563
 5905ntf    on531872   4.974   0.759   6.367 -0.9072  0.3585  0.3185
 5905ntf    fn431873   5.089   0.621   6.163  0.3178 -0.5869 -0.0006
 5905ntf    fn431874   5.053   0.448   6.283 -0.5891  0.0877  0.5161
 5905ntf    fn431875   4.923   0.496   6.121  0.2316 -0.0960  0.0222
 5906ntf    cn131876   7.185   5.304   3.994  0.0648 -0.4073  0.1326
 5906ntf    sn231877   7.237   5.335   4.165 -0.1558  0.3536  0.0628
 5906ntf    nn331878   7.349   5.445   4.157 -0.2789  0.5039  0.3446
 5906ntf    sn231879   7.493   5.421   4.098 -0.2597 -0.0204  0.5949
 5906ntf    cn131880   7.593   5.452   4.247  0.0107  0.2674  0.3546
 5906ntf    fn431881   7.276   5.273   3.904 -0.0204  0.0016 -0.0952
 5906ntf    fn431882   7.079   5.226   3.975 -0.9003  0.9413 -0.1741
 5906ntf    fn431883   7.151   5.426   3.958  0.0135 -0.4498  0.0361
 5906ntf    on531884   7.119   5.395   4.223  0.0094  0.3426  0.4167
 5906ntf    on531885   7.275   5.208   4.222  0.2568  0.2723 -0.3906
 5906ntf    on531886   7.522   5.519   3.997 -0.0909 -0.5220  0.1578
 5906ntf    on531887   7.528   5.284   4.071 -0.1368  0.0620  0.3343
 5906ntf    fn431888   7.685   5.360   4.271 -0.4397 -0.3602 -0.2837
 5906ntf    fn431889   7.653   5.570   4.238  0.5542 -0.0400 -0.1025
 5906ntf    fn431890   7.520   5.458   4.357  0.3660  0.4419  0.5819
 5907ntf    cn131891   4.204   6.139   4.386  0.1247 -0.2183 -0.1218
 5907ntf    sn231892   4.196   6.245   4.238  0.3465 -0.0785 -0.0332
 5907ntf    nn331893   4.332   6.219   4.164  0.2645 -0.1578 -0.1560
 5907ntf    sn231894   4.467   6.293   4.195  0.2384 -0.2407  0.1575
 5907ntf    cn131895   4.448   6.426   4.072  0.0204 -0.3332  0.0896
 5907ntf    fn431896   4.313   6.153   4.459  0.2662  0.0607 -0.3810
 5907ntf    fn431897   4.105   6.170   4.469  0.3993 -0.4735  0.3021
 5907ntf    fn431898   4.189   6.008   4.378 -0.1601 -0.2355  0.6098
 5907ntf    on531899   4.089   6.188   4.161  0.2006  0.2240 -0.0570
 5907ntf    on531900   4.160   6.373   4.295 -0.0542 -0.2598  0.1249
 5907ntf    on531901   4.583   6.218   4.152  0.3448 -0.1521  0.2890
 5907ntf    on531902   4.462   6.366   4.319 -0.4524  0.3405 -0.2095
 5907ntf    fn431903   4.550   6.510   4.078 -0.3738  0.1675 -0.2061
 5907ntf    fn431904   4.442   6.384   3.947  0.1189 -0.4716  0.1313
 5907ntf    fn431905   4.336   6.492   4.090 -0.1500 -0.4726 -0.4329
 5908ntf    cn131906   5.426   3.784   6.599 -0.0243  0.9092 -0.5211
 5908ntf    sn231907   5.253   3.829   6.565 -0.4548 -0.3780 -0.0988
 5908ntf    nn331908   5.248   3.965   6.643  0.7149 -0.1423 -0.4177
 5908ntf    sn231909   5.127   4.004   6.735  0.4849 -0.6047 -0.5178
 5908ntf    cn131910   5.132   4.185   6.712  0.1443 -0.5793 -0.4017
 5908ntf    fn431911   5.516   3.876   6.569  0.3959  0.3759 -0.9078
 5908ntf    fn431912   5.435   3.760   6.729 -0.4500  0.6717 -0.5304
 5908ntf    fn431913   5.456   3.666   6.547  0.1424  0.4964  0.4733
 5908ntf    on531914   5.249   3.845   6.421  0.5328 -0.1340 -0.1015
 5908ntf    on531915   5.175   3.721   6.620  0.0498 -0.5849  0.2195
 5908ntf    on531916   5.159   3.986   6.874  0.4780  0.4919 -0.3608
 5908ntf    on531917   4.990   3.976   6.698  0.2257  0.1186 -0.1245
 5908ntf    fn431918   5.120   4.217   6.585 -0.4300  0.1682 -0.1663
 5908ntf    fn431919   5.032   4.234   6.784  0.1824 -1.3003  0.1575
 5908ntf    fn431920   5.240   4.240   6.766 -0.5118  0.0298  0.3151
 5909ntf    cn131921   1.493   2.687   7.340  0.3736 -0.1669 -0.0490
 5909ntf    sn231922   1.542   2.590   7.485  0.0659 -0.4131 -0.1106
 5909ntf    nn331923   1.612   2.702   7.570  0.0579 -0.4505 -0.0539
 5909ntf    sn231924   1.733   2.683   7.668  0.0417 -0.2066  0.0133
 5909ntf    cn131925   1.859   2.752   7.556 -0.0096 -0.2404 -0.0654
 5909ntf    fn431926   1.429   2.794   7.385  0.5775 -0.0186 -0.1101
 5909ntf    fn431927   1.599   2.729   7.272  0.2734  0.1540 -0.0100
 5909ntf    fn431928   1.414   2.620   7.258  0.1671 -0.0957  0.0919
 5909ntf    on531929   1.420   2.539   7.542 -0.1614  0.5999  0.3299
 5909ntf    on531930   1.637   2.492   7.438 -0.0533 -0.7644  0.3695
 5909ntf    on531931   1.770   2.551   7.712 -0.4152 -0.6102 -0.7843
 5909ntf    on531932   1.725   2.789   7.766 -0.9064 -0.1650 -0.1059
 5909ntf    fn431933   1.867   2.706   7.432 -0.3027  0.2265 -0.2605
 5909ntf    fn431934   1.835   2.881   7.535 -0.6121 -0.2511  0.5585
 5909ntf    fn431935   1.981   2.758   7.607 -0.2748 -0.3186  0.5856
 5910ntf    cn131936   1.363   4.336   6.862  0.1700  0.1423 -0.0845
 5910ntf    sn231937   1.522   4.415   6.821  0.1209  0.2368 -0.0936
 5910ntf    nn331938   1.482   4.554   6.761  0.0049 -0.0542 -0.7016
 5910ntf    sn231939   1.571   4.683   6.767 -0.3881  0.1899 -0.0419
 5910ntf    cn131940   1.521   4.752   6.928 -0.0522  0.0675  0.1158
 5910ntf    fn431941   1.293   4.300   6.756  0.2253 -0.2211  0.0049
 5910ntf    fn431942   1.384   4.229   6.936  0.5387 -0.0235 -0.4267
 5910ntf    fn431943   1.290   4.420   6.934  0.4203  0.2326  0.0687
 5910ntf    on531944   1.595   4.424   6.944 -0.1541 -0.8769  0.1669
 5910ntf    on531945   1.567   4.331   6.712 -0.3275  0.3075 -0.3413
 5910ntf    on531946   1.520   4.771   6.666  0.5757  0.3132 -0.4355
 5910ntf    on531947   1.713   4.666   6.783 -0.4070 -0.3228 -0.4212
 5910ntf    fn431948   1.549   4.672   7.030  0.0189  0.1064  0.1271
 5910ntf    fn431949   1.581   4.869   6.942 -0.1516  0.2264 -0.7395
 5910ntf    fn431950   1.391   4.773   6.943 -0.0701  0.2139 -0.2405
 5911ntf    cn131951   3.057   2.740   4.678 -0.0687 -0.0314  0.0269
 5911ntf    sn231952   2.972   2.764   4.519  0.1151  0.0902 -0.0535
 5911ntf    nn331953   3.089   2.786   4.416  0.0299 -0.1383 -0.2016
 5911ntf    sn231954   3.102   2.890   4.299  0.3652  0.3135  0.2306
 5911ntf    cn131955   3.115   2.789   4.148  0.2398 -0.0319  0.4504
 5911ntf    fn431956   3.131   2.630   4.680 -0.1054 -0.0524  0.2866
 5911ntf    fn431957   3.133   2.845   4.708 -0.3961 -0.0003  0.7660
 5911ntf    fn431958   2.973   2.736   4.779 -0.0316 -0.3845  0.0451
 5911ntf    on531959   2.903   2.639   4.500  0.3348  0.0609 -0.6950
 5911ntf    on531960   2.886   2.873   4.553 -0.6115 -0.1649 -1.0136
 5911ntf    on531961   3.228   2.959   4.299  0.4059  0.2449 -0.5295
 5911ntf    on531962   2.988   2.974   4.273  0.5777  0.4624 -0.2159
 5911ntf    fn431963   3.044   2.677   4.153 -0.3472  0.3383  0.4677
 5911ntf    fn431964   3.069   2.854   4.043  0.4482 -0.1430  0.2914
 5911ntf    fn431965   3.239   2.751   4.124 -0.0570 -0.2918 -0.7331
 5912ntf    cn131966   6.559   2.504   3.219 -0.0712 -0.1007  0.1515
 5912ntf    sn231967   6.473   2.362   3.144 -0.0905  0.0738 -0.1607
 5912ntf    nn331968   6.468   2.394   2.991 -0.3833 -0.1084 -0.1904
 5912ntf    sn231969   6.565   2.352   2.874 -0.1189 -0.3213  0.1031
 5912ntf    cn131970   6.487   2.199   2.816 -0.4455  0.0444 -0.4321
 5912ntf    fn431971   6.477   2.607   3.224  0.7055  0.5449 -0.1774
 5912ntf    fn431972   6.590   2.478   3.344 -0.0197 -0.7529  0.0072
 5912ntf    fn431973   6.671   2.539   3.158  0.0578  0.1034  0.5073
 5912ntf    on531974   6.554   2.251   3.186  0.0493  0.2703  0.0909
 5912ntf    on531975   6.342   2.361   3.204 -0.1878 -0.4142 -0.3749
 5912ntf    on531976   6.695   2.311   2.920 -0.0322 -0.5884 -0.3791
 5912ntf    on531977   6.561   2.440   2.759 -0.0349 -0.0246  0.3241
 5912ntf    fn431978   6.459   2.109   2.908  0.2976  0.0331 -0.2144
 5912ntf    fn431979   6.366   2.229   2.770 -0.5261  0.4413  0.0314
 5912ntf    fn431980   6.556   2.147   2.716  0.3018 -0.6914  0.4586
 5913ntf    cn131981   5.662   1.491   1.423  0.2488  0.7758  0.1369
 5913ntf    sn231982   5.638   1.456   1.599 -0.1966  0.1356 -0.0480
 5913ntf    nn331983   5.691   1.309   1.613  0.2594  0.3642  0.6975
 5913ntf    sn231984   5.762   1.234   1.732  0.4946 -0.2922  0.1523
 5913ntf    cn131985   5.628   1.154   1.826  0.1982 -0.1481 -0.1422
 5913ntf    fn431986   5.788   1.501   1.383  0.0982  0.5831 -0.3895
 5913ntf    fn431987   5.616   1.394   1.345  0.2581  0.6639  0.2707
 5913ntf    fn431988   5.609   1.605   1.381  0.3361  0.5398 -0.6416
 5913ntf    on531989   5.724   1.559   1.652 -0.2199  0.2710 -0.2729
 5913ntf    on531990   5.498   1.472   1.631 -0.1636  0.4419 -0.0559
 5913ntf    on531991   5.816   1.324   1.831  0.8638 -0.3104 -0.0319
 5913ntf    on531992   5.846   1.126   1.689  0.1309 -0.6226  0.2652
 5913ntf    fn431993   5.534   1.241   1.858 -0.1743 -0.4196 -0.4940
 5913ntf    fn431994   5.561   1.058   1.766  0.3399 -0.2320 -0.1678
 5913ntf    fn431995   5.666   1.110   1.945 -0.0543 -0.3207 -0.1262
 5914ntf    cn131996   6.892   4.873   4.022  0.5240  0.4800  0.0461
 5914ntf    sn231997   6.886   4.738   4.144  0.2177  0.0712 -0.4181
 5914ntf    nn331998   6.942   4.612   4.069  0.4141 -0.2311  0.2315
 5914ntf    sn231999   6.869   4.488   4.008 -0.0552  0.0552  0.2095
 5914ntf    cn132000   6.979   4.361   4.076  0.0785  0.0337 -0.0448
 5914ntf    fn432001   7.008   4.937   4.025  0.5558  0.4722 -0.8372
 5914ntf    fn432002   6.875   4.831   3.898 -0.4894 -0.3414  0.4445
 5914ntf    fn432003   6.799   4.964   4.045  0.1204  0.0706  0.0623
 5914ntf    on532004   6.976   4.783   4.247  0.2895 -1.3445  0.1572
 5914ntf    on532005   6.745   4.729   4.174  0.3824  0.0004  0.3701
 5914ntf    on532006   6.907   4.475   3.869 -0.1703  0.1497  0.1690
 5914ntf    on532007   6.732   4.461   4.043 -0.0177  0.0555  0.3543
 5914ntf    fn432008   7.104   4.403   4.068  0.0521  0.2833  0.7578
 5914ntf    fn432009   6.952   4.321   4.200 -0.4599  0.0322 -0.1578
 5914ntf    fn432010   6.967   4.256   3.996  0.3098  0.0973 -0.1617
 5915ntf    cn132011   4.183   0.493   2.867  0.5109  0.1544  0.2317
 5915ntf    sn232012   4.186   0.556   3.038 -0.1949  0.1488  0.2507
 5915ntf    nn332013   4.091   0.446   3.099 -0.2923  0.1185  0.0445
 5915ntf    sn232014   4.071   0.402   3.248 -0.0612 -0.0406  0.0288
 5915ntf    cn132015   3.902   0.335   3.245 -0.0382 -0.1269  0.5765
 5915ntf    fn432016   4.257   0.558   2.778  0.1713  0.1378 -0.0653
 5915ntf    fn432017   4.225   0.369   2.851  0.2310  0.0230  0.4986
 5915ntf    fn432018   4.069   0.488   2.800  0.9451  0.1923 -0.5217
 5915ntf    on532019   4.324   0.552   3.079 -0.0318 -0.5240 -0.3404
 5915ntf    on532020   4.125   0.685   3.020  0.2281  0.2794 -0.2711
 5915ntf    on532021   4.051   0.514   3.336  0.3985  0.0360  0.0375
 5915ntf    on532022   4.161   0.293   3.280 -0.4461 -0.1733  0.6716
 5915ntf    fn432023   3.875   0.289   3.366 -0.4073 -0.1539  0.4864
 5915ntf    fn432024   3.810   0.422   3.206  0.0512 -0.1958  0.2098
 5915ntf    fn432025   3.894   0.234   3.159  0.1567 -0.0956  0.5201
 5916ntf    cn132026   3.356   5.108   4.306  0.0781  0.0720 -0.3197
 5916ntf    sn232027   3.354   4.954   4.209 -0.3053  0.0784 -0.3231
 5916ntf    nn332028   3.503   4.959   4.159 -0.1114 -0.2467  0.2093
 5916ntf    sn232029   3.626   4.864   4.183  0.2448  0.0029 -0.6121
 5916ntf    cn132030   3.710   4.874   4.022  0.4167 -0.0188 -0.5248
 5916ntf    fn432031   3.263   5.128   4.397  0.4593 -0.0394  0.0959
 5916ntf    fn432032   3.472   5.118   4.369  0.0541 -1.1172 -0.0791
 5916ntf    fn432033   3.353   5.216   4.230  0.0454  0.1444 -0.2143
 5916ntf    on532034   3.329   4.856   4.312 -0.2006 -0.1535 -0.5162
 5916ntf    on532035   3.257   4.971   4.105 -0.1042  0.3835 -0.4627
 5916ntf    on532036   3.597   4.726   4.213  0.9777  0.0951  0.5581
 5916ntf    on532037   3.720   4.932   4.268  0.0086  0.0189 -0.3645
 5916ntf    fn432038   3.738   4.998   3.985  0.3103  0.0067 -0.5204
 5916ntf    fn432039   3.823   4.806   4.019  0.1103 -0.5891  0.4084
 5916ntf    fn432040   3.626   4.836   3.927 -0.3792 -0.6601  0.4172
 5917ntf    cn132041   2.026   4.790   1.283  0.1822 -0.3080  0.3800
 5917ntf    sn232042   1.974   4.636   1.203 -0.1550  0.1716 -0.3317
 5917ntf    nn332043   1.846   4.603   1.288 -0.2579 -0.2153 -0.6319
 5917ntf    sn232044   1.829   4.505   1.409 -0.1197  0.3327 -0.1674
 5917ntf    cn132045   1.835   4.345   1.324  0.1696  0.4282 -0.3295
 5917ntf    fn432046   2.151   4.830   1.265 -0.0860  0.5736  0.4497
 5917ntf    fn432047   1.958   4.895   1.240  0.4299 -0.1693  0.3249
 5917ntf    fn432048   2.007   4.792   1.414  0.2968  0.1168  0.3928
 5917ntf    on532049   1.946   4.684   1.070 -0.5690 -0.3945 -0.4546
 5917ntf    on532050   2.091   4.552   1.212 -0.4534 -0.2883 -0.6413
 5917ntf    on532051   1.696   4.512   1.465 -0.1093 -0.4939 -0.0377
 5917ntf    on532052   1.935   4.507   1.507 -0.6531 -0.1494  0.4299
 5917ntf    fn432053   1.826   4.242   1.408  0.1271  0.0243 -0.8224
 5917ntf    fn432054   1.736   4.336   1.237  0.3805  0.3738 -0.5643
 5917ntf    fn432055   1.946   4.315   1.258  0.1056  0.7447 -0.5749
 5918ntf    cn132056   7.338   6.283   5.219  0.0902  0.6193 -0.0130
 5918ntf    sn232057   7.490   6.366   5.165  0.1614  0.2924 -0.3179
 5918ntf    nn332058   7.452   6.365   5.012  0.0489 -0.5191 -0.2898
 5918ntf    sn232059   7.555   6.368   4.894 -0.1195  0.3272 -0.4266
 5918ntf    cn132060   7.447   6.452   4.774  0.0100  0.1653 -0.6595
 5918ntf    fn432061   7.228   6.354   5.200 -0.4340 -0.2260 -0.2111
 5918ntf    fn432062   7.326   6.165   5.160  0.3026  0.7446 -0.3082
 5918ntf    fn432063   7.346   6.259   5.349  0.4681  0.4500 -0.0657
 5918ntf    on532064   7.476   6.497   5.224  0.3597  0.4223 -0.5540
 5918ntf    on532065   7.595   6.278   5.211 -0.4411 -0.0452  0.4220
 5918ntf    on532066   7.576   6.239   4.832 -0.2257  0.2308 -0.2623
 5918ntf    on532067   7.666   6.458   4.912 -0.1759  0.2156  0.5048
 5918ntf    fn432068   7.445   6.581   4.803  0.5896  0.1184 -0.3922
 5918ntf    fn432069   7.501   6.451   4.654 -0.7032 -0.3938 -0.9774
 5918ntf    fn432070   7.326   6.400   4.766  0.2723 -0.3871 -1.0799
 5919ntf    cn132071   4.204   4.631   7.471 -0.2138 -0.0654 -0.0523
 5919ntf    sn232072   4.191   4.786   7.566 -0.0567 -0.1327  0.0808
 5919ntf    nn332073   4.140   4.737   7.706  0.2124  0.7641  0.4942
 5919ntf    sn232074   3.991   4.720   7.750  0.1847 -0.1245  0.0738
 5919ntf    cn132075   4.020   4.639   7.910 -0.2305 -0.0921  0.1674
 5919ntf    fn432076   4.226   4.653   7.342 -0.4091 -0.0774 -0.0880
 5919ntf    fn432077   4.304   4.559   7.520 -0.2129  0.2915  0.4784
 5919ntf    fn432078   4.094   4.559   7.487 -0.1364 -0.0509  0.5494
 5919ntf    on532079   4.324   4.840   7.579  0.0435 -0.4361  0.3326
 5919ntf    on532080   4.101   4.867   7.488  0.0753 -0.0374  0.0276
 5919ntf    on532081   3.916   4.624   7.673  0.2485 -0.3007  0.2307
 5919ntf    on532082   3.923   4.840   7.793  0.0796 -0.2021  0.1244
 5919ntf    fn432083   4.042   4.509   7.895  0.2433 -0.0293  0.3012
 5919ntf    fn432084   4.118   4.685   7.986 -0.2396 -0.0920  0.1792
 5919ntf    fn432085   3.909   4.646   7.981 -1.0831  0.2641 -1.1635
 5920ntf    cn132086   5.776   4.620   2.270  0.2304 -0.2892 -0.0608
 5920ntf    sn232087   5.641   4.543   2.364  0.0532  0.1536  0.0520
 5920ntf    nn332088   5.528   4.645   2.327 -0.0245  0.0982  0.1372
 5920ntf    sn232089   5.509   4.788   2.391  0.5047  0.1396  0.2037
 5920ntf    cn132090   5.482   4.888   2.242 -0.3268  0.3681  0.5053
 5920ntf    fn432091   5.884   4.544   2.263  0.2591 -0.2169 -0.4406
 5920ntf    fn432092   5.729   4.625   2.146 -0.7308  0.3338  0.3201
 5920ntf    fn432093   5.807   4.743   2.307 -0.6733 -0.0973  0.0815
 5920ntf    on532094   5.618   4.415   2.302  0.8716 -0.1762  0.4174
 5920ntf    on532095   5.689   4.544   2.500  0.4402 -0.2090 -0.0820
 5920ntf    on532096   5.622   4.851   2.455  0.1177  0.0794  0.9522
 5920ntf    on532097   5.380   4.808   2.452  0.6428  0.8306  0.2713
 5920ntf    fn432098   5.473   5.019   2.258  0.3451  0.4703  0.0777
 5920ntf    fn432099   5.588   4.884   2.164 -0.7901 -0.6082 -0.0984
 5920ntf    fn432100   5.377   4.865   2.165  0.4215  0.1936 -0.4795
 5921ntf    cn132101   6.052   6.402   2.732  0.0465  0.8865  0.2903
 5921ntf    sn232102   6.234   6.393   2.728 -0.0016  0.1474 -0.2682
 5921ntf    nn332103   6.268   6.521   2.645  0.3767  0.3885  0.2542
 5921ntf    sn232104   6.298   6.519   2.491 -0.3617  0.4781  0.1042
 5921ntf    cn132105   6.464   6.444   2.485 -0.5139  0.1424  0.0649
 5921ntf    fn432106   6.010   6.410   2.607 -0.0824  0.1277  0.2811
 5921ntf    fn432107   5.990   6.300   2.788  0.1172  0.5251 -0.2872
 5921ntf    fn432108   6.019   6.515   2.793 -0.4069  0.7519  0.2996
 5921ntf    on532109   6.270   6.408   2.867  0.4739  0.3482 -0.4139
 5921ntf    on532110   6.255   6.264   2.666 -0.2342 -0.2012  0.3661
 5921ntf    on532111   6.323   6.652   2.440  0.9167 -0.2337 -1.2205
 5921ntf    on532112   6.204   6.436   2.420 -0.2315  0.1322  0.3336
 5921ntf    fn432113   6.558   6.520   2.539  0.1542 -0.4543 -0.2441
 5921ntf    fn432114   6.478   6.325   2.540 -0.2307 -0.0024 -0.3162
 5921ntf    fn432115   6.496   6.426   2.358  0.1935 -0.3302  0.3063
 5922ntf    cn132116   1.935   1.119   7.099  0.1756  0.0275  0.1111
 5922ntf    sn232117   1.854   1.043   6.955  0.0549  0.4088 -0.0240
 5922ntf    nn332118   1.796   0.927   7.044 -0.1207  0.3598 -0.2014
 5922ntf    sn232119   1.659   0.850   7.040  0.2591 -0.3163 -0.3944
 5922ntf    cn132120   1.586   0.930   7.186  0.6494 -0.3061 -0.2035
 5922ntf    fn432121   2.014   1.223   7.079 -0.0604  0.1549 -0.1601
 5922ntf    fn432122   1.845   1.161   7.186  0.2184  0.4586 -0.0504
 5922ntf    fn432123   2.005   1.030   7.167  0.1033 -0.2936 -0.2284
 5922ntf    on532124   1.756   1.136   6.904  0.3178  0.6377 -0.1117
 5922ntf    on532125   1.970   1.008   6.876  0.1485  0.3893  0.1225
 5922ntf    on532126   1.671   0.710   7.070  0.6428 -0.1013  0.4811
 5922ntf    on532127   1.570   0.880   6.930 -0.0768 -0.6763 -0.2231
 5922ntf    fn432128   1.646   0.898   7.299  0.2885 -0.2663  0.0022
 5922ntf    fn432129   1.574   1.062   7.181 -0.6578 -0.3959  0.2417
 5922ntf    fn432130   1.463   0.882   7.193  0.4597  0.1817 -0.1438
 5923ntf    cn132131   0.209   2.492   3.008 -0.0756 -0.1909 -0.1444
 5923ntf    sn232132   0.277   2.373   3.127 -0.4684 -0.1625  0.1108
 5923ntf    nn332133   0.331   2.263   3.029 -0.6583 -0.1485 -0.0093
 5923ntf    sn232134   0.323   2.108   3.050  0.4040 -0.2230 -0.1044
 5923ntf    cn132135   0.490   2.078   3.115  0.2559 -0.5000  0.1557
 5923ntf    fn432136   0.163   2.606   3.057  0.3117  0.0889 -0.4303
 5923ntf    fn432137   0.307   2.528   2.927  0.0249 -0.1307  0.0022
 5923ntf    fn432138   0.104   2.442   2.944 -0.3718  0.3301 -0.0753
 5923ntf    on532139   0.388   2.443   3.188 -0.0927 -0.7147  0.0682
 5923ntf    on532140   0.166   2.349   3.216 -0.5131 -0.1948  0.0462
 5923ntf    on532141   0.307   2.032   2.929 -0.6817  0.0656 -0.1520
 5923ntf    on532142   0.236   2.065   3.157 -0.1259 -0.0476 -0.4596
 5923ntf    fn432143   0.575   2.111   3.019 -0.4936 -0.3029 -0.4476
 5923ntf    fn432144   0.524   2.145   3.224  0.3263 -0.2428 -0.0238
 5923ntf    fn432145   0.521   1.951   3.132  1.1703 -0.3363 -0.1737
 5924ntf    cn132146   2.572   5.225   5.323 -0.0266  0.1190 -0.1399
 5924ntf    sn232147   2.538   5.104   5.454 -0.0816  0.2816 -0.0039
 5924ntf    nn332148   2.460   5.207   5.544 -0.5805 -0.2804  0.2166
 5924ntf    sn232149   2.410   5.192   5.692 -0.2389 -0.0488  0.3584
 5924ntf    cn132150   2.252   5.282   5.686 -0.2149 -0.0606 -0.6346
 5924ntf    fn432151   2.489   5.199   5.222 -0.4032  0.1317  0.1653
 5924ntf    fn432152   2.551   5.348   5.366 -0.2554  0.0748 -0.1237
 5924ntf    fn432153   2.695   5.220   5.275 -0.0196  0.3446 -0.1461
 5924ntf    on532154   2.452   5.006   5.391 -0.0629  0.6361 -0.5884
 5924ntf    on532155   2.673   5.072   5.491 -0.1994  0.2222  0.3755
 5924ntf    on532156   2.479   5.268   5.793 -0.3480  1.4511 -0.6684
 5924ntf    on532157   2.367   5.057   5.720 -0.1223 -0.2111 -0.2332
 5924ntf    fn432158   2.157   5.202   5.641 -0.2128 -0.5312  0.1827
 5924ntf    fn432159   2.215   5.318   5.808  0.0986  0.0138 -0.5610
 5924ntf    fn432160   2.250   5.396   5.619 -0.0698  0.1078 -0.3536
 5925ntf    cn132161   5.965   3.803   4.154 -0.1796 -0.1743 -0.2100
 5925ntf    sn232162   5.784   3.821   4.139 -0.1594  0.1186 -0.0888
 5925ntf    nn332163   5.773   3.923   4.020  0.1622  0.3691  0.0927
 5925ntf    sn232164   5.668   3.935   3.904  0.2553 -0.1154 -0.0442
 5925ntf    cn132165   5.739   3.817   3.785  0.1946 -0.3799  0.1809
 5925ntf    fn432166   6.001   3.715   4.246 -0.5616 -0.2317 -0.1108
 5925ntf    fn432167   6.028   3.767   4.043  0.1610  0.0256 -0.0815
 5925ntf    fn432168   6.019   3.916   4.196 -0.0293 -0.5737  0.6773
 5925ntf    on532169   5.736   3.687   4.121  0.0411 -0.0509  0.5841
 5925ntf    on532170   5.740   3.888   4.259 -0.1137 -0.1525  0.0804
 5925ntf    on532171   5.681   4.063   3.839  0.0048 -0.2513 -0.3642
 5925ntf    on532172   5.535   3.885   3.931  0.2048 -0.1225 -0.3096
 5925ntf    fn432173   5.744   3.701   3.848 -0.0352 -0.2834  0.3804
 5925ntf    fn432174   5.655   3.812   3.683  0.1369  0.1708  0.1981
 5925ntf    fn432175   5.859   3.846   3.738  0.1664 -0.9471 -0.2504
 5926ntf    cn132176   7.511   0.080   6.953 -0.0479 -0.0329 -0.1179
 5926ntf    sn232177   7.447   0.241   6.900 -0.1988 -0.1632 -0.3348
 5926ntf    nn332178   7.558   0.282   6.797  0.0789  0.1642  0.0872
 5926ntf    sn232179   7.518   0.344   6.659  0.1814 -0.1895 -0.1038
 5926ntf    cn132180   7.518   0.192   6.559  0.0789 -0.3086  0.0769
 5926ntf    fn432181   7.582   0.025   6.856  0.3445 -0.4093  0.3691
 5926ntf    fn432182   7.604   0.095   7.046  0.1031  0.0529 -0.2832
 5926ntf    fn432183   7.422  -0.012   6.988 -0.1675  0.0629 -0.1721
 5926ntf    on532184   7.314   0.207   6.857 -0.4411  0.3492 -0.0044
 5926ntf    on532185   7.454   0.325   7.018  0.1363 -0.3916 -0.1900
 5926ntf    on532186   7.628   0.424   6.609 -0.0439  0.1127 -0.1156
 5926ntf    on532187   7.388   0.405   6.648  0.1636 -0.2401 -0.1705
 5926ntf    fn432188   7.546   0.229   6.435 -0.5050  0.1226  0.0655
 5926ntf    fn432189   7.607   0.101   6.595  0.7037 -0.0340 -0.7302
 5926ntf    fn432190   7.401   0.132   6.554 -0.0061 -0.1391  0.0076
 5927ntf    cn132191   1.198   4.291   3.873 -0.2642 -0.0465  0.1366
 5927ntf    sn232192   1.085   4.172   3.951 -0.0535 -0.1522  0.2793
 5927ntf    nn332193   1.193   4.067   3.995  0.2610  0.0553  0.0064
 5927ntf    sn232194   1.216   3.913   3.976 -0.0891 -0.0079  0.0830
 5927ntf    cn132195   1.112   3.857   4.114 -0.3378  0.2115 -0.0147
 5927ntf    fn432196   1.250   4.238   3.764 -0.2065  0.1244  0.0807
 5927ntf    fn432197   1.140   4.406   3.842 -0.5028 -0.2001  0.0059
 5927ntf    fn432198   1.299   4.322   3.951 -0.0865 -0.2545 -0.0090
 5927ntf    on532199   1.025   4.239   4.064 -0.9242 -0.2685 -0.1020
 5927ntf    on532200   0.998   4.135   3.842  0.6549  0.7854 -0.6196
 5927ntf    on532201   1.349   3.867   4.009  0.0784 -0.0931 -0.6871
 5927ntf    on532202   1.150   3.866   3.856 -0.2427 -0.5339  0.3669
 5927ntf    fn432203   1.097   3.727   4.129 -0.0500  0.1802  0.0097
 5927ntf    fn432204   1.164   3.906   4.226  0.4087  0.0298 -0.2781
 5927ntf    fn432205   0.985   3.892   4.117 -0.5553 -0.4768 -0.8268
 5928ntf    cn132206   4.654   7.381   2.958  0.3057  0.1010 -0.4323
 5928ntf    sn232207   4.742   7.449   3.101 -0.2300 -0.1259  0.0089
 5928ntf    nn332208   4.764   7.597   3.055  0.7304 -0.1513  0.3549
 5928ntf    sn232209   4.693   7.733   3.091  0.3677 -0.2142 -0.1153
 5928ntf    cn132210   4.843   7.834   3.110  0.1801  0.1384 -0.4893
 5928ntf    fn432211   4.734   7.377   2.853  0.4319  0.2042 -0.3403
 5928ntf    fn432212   4.599   7.262   2.978 -0.1368  0.4475  0.4706
 5928ntf    fn432213   4.555   7.464   2.927 -0.0213 -0.3423 -0.5962
 5928ntf    on532214   4.654   7.425   3.213 -0.5311  0.1588 -0.1661
 5928ntf    on532215   4.866   7.378   3.124 -0.6575 -0.5741  1.0018
 5928ntf    on532216   4.631   7.739   3.221  0.5273  0.0807 -0.0522
 5928ntf    on532217   4.616   7.778   2.978 -0.1700 -0.1250  0.2819
 5928ntf    fn432218   4.931   7.816   3.013  1.2015  0.0496  0.4345
 5928ntf    fn432219   4.823   7.963   3.127 -0.3990  0.0521 -0.4985
 5928ntf    fn432220   4.913   7.791   3.214 -0.9410 -0.5054  0.0168
 5929ntf    cn132221   2.583   1.561   5.495  0.1629  0.3478 -0.0313
 5929ntf    sn232222   2.433   1.646   5.435  0.0337  0.1268 -0.0261
 5929ntf    nn332223   2.374   1.675   5.578  0.1725  0.2141  0.0144
 5929ntf    sn232224   2.327   1.810   5.642 -0.4356 -0.0989  0.2380
 5929ntf    cn132225   2.170   1.762   5.720 -0.3932 -0.1928  0.2652
 5929ntf    fn432226   2.550   1.454   5.566  0.0250  0.1770 -0.3479
 5929ntf    fn432227   2.663   1.529   5.395 -0.3887 -0.3065 -0.2781
 5929ntf    fn432228   2.658   1.636   5.573  0.4770  0.4412 -0.4205
 5929ntf    on532229   2.497   1.759   5.373  0.9002 -0.0732  0.4780
 5929ntf    on532230   2.367   1.547   5.354 -0.5167 -0.1619  0.7620
 5929ntf    on532231   2.290   1.918   5.554  0.4049  0.1272  0.1495
 5929ntf    on532232   2.406   1.854   5.754 -0.6526  0.2297  0.2642
 5929ntf    fn432233   2.196   1.729   5.846  0.2977  0.7985  0.3945
 5929ntf    fn432234   2.084   1.863   5.725 -0.3669 -0.1748  0.3556
 5929ntf    fn432235   2.108   1.665   5.656 -0.1488 -0.1943  0.0285
 5930ntf    cn132236   3.236   1.402   1.389 -0.4134  0.0664  0.2339
 5930ntf    sn232237   3.348   1.272   1.449 -0.1381  0.2318  0.0825
 5930ntf    nn332238   3.307   1.162   1.344  0.4850 -0.7156  0.8144
 5930ntf    sn232239   3.405   1.072   1.260  0.1211  0.0279 -0.4321
 5930ntf    cn132240   3.452   0.937   1.372  0.3816  0.3952 -0.0966
 5930ntf    fn432241   3.295   1.456   1.283 -0.7958  0.4420  0.2083
 5930ntf    fn432242   3.116   1.361   1.351 -0.1772 -0.2417 -0.1905
 5930ntf    fn432243   3.208   1.494   1.480 -0.8364  0.2261 -0.0544
 5930ntf    on532244   3.483   1.321   1.445  0.0351 -0.2662 -0.3337
 5930ntf    on532245   3.297   1.225   1.575  0.0653 -0.2710 -0.0183
 5930ntf    on532246   3.530   1.136   1.226 -0.0693  0.3325 -0.5701
 5930ntf    on532247   3.335   1.006   1.153 -0.7322 -0.1708  0.2400
 5930ntf    fn432248   3.544   0.857   1.322  0.5614  0.3354  0.3266
 5930ntf    fn432249   3.513   0.983   1.480  0.1529  0.1723  0.1290
 5930ntf    fn432250   3.352   0.862   1.417  0.6310 -0.1019 -0.3776
 5931ntf    cn132251   6.663   0.652   1.303  0.2572  0.5183 -0.0145
 5931ntf    sn232252   6.523   0.679   1.191  0.1347  0.0367  0.0202
 5931ntf    nn332253   6.605   0.740   1.072 -0.1207  0.2965 -0.0252
 5931ntf    sn232254   6.631   0.885   1.017  0.4035  0.2175  0.0109
 5931ntf    cn132255   6.799   0.869   0.949  0.4473  0.0198  0.1637
 5931ntf    fn432256   6.634   0.610   1.425 -0.0728 -0.4271 -0.4156
 5931ntf    fn432257   6.743   0.564   1.244 -0.0525  0.3611 -0.1983
 5931ntf    fn432258   6.743   0.757   1.315  0.3026  0.4548  0.2409
 5931ntf    on532259   6.487   0.540   1.181 -0.1514  0.0622  0.6944
 5931ntf    on532260   6.449   0.776   1.268 -0.5858 -0.3872 -0.1336
 5931ntf    on532261   6.643   0.979   1.125  0.1118  0.0394  0.2002
 5931ntf    on532262   6.547   0.933   0.911 -0.1986 -0.3860  0.2071
 5931ntf    fn432263   6.795   0.777   0.854 -0.5243  0.2176  0.0047
 5931ntf    fn432264   6.851   0.977   0.892  0.7848 -0.3504 -0.2338
 5931ntf    fn432265   6.896   0.823   1.026  0.1678 -0.1077  0.4387
 5932ntf    cn132266   1.371   6.825   0.137 -0.1687 -0.2068  0.2576
 5932ntf    sn232267   1.370   6.997   0.077 -0.2119 -0.3894 -0.2688
 5932ntf    nn332268   1.525   7.021   0.078 -0.3038  0.1975 -0.1541
 5932ntf    sn232269   1.615   7.115   0.167 -0.1121 -0.2783  0.1550
 5932ntf    cn132270   1.766   7.146   0.072 -0.2675 -0.1361 -0.0456
 5932ntf    fn432271   1.248   6.777   0.131 -0.1689 -0.2473  0.5647
 5932ntf    fn432272   1.452   6.745   0.071 -0.2134  0.4047 -0.5598
 5932ntf    fn432273   1.407   6.824   0.264  0.2933  0.1778  0.1337
 5932ntf    on532274   1.305   6.973  -0.050 -0.4357  0.4629 -0.3229
 5932ntf    on532275   1.294   7.066   0.178 -0.1334 -0.4853 -0.1443
 5932ntf    on532276   1.666   7.052   0.286  0.3967  0.5104  0.3569
 5932ntf    on532277   1.568   7.251   0.178 -0.1762 -0.2523 -0.4050
 5932ntf    fn432278   1.760   7.234  -0.027 -0.2046 -0.0133  0.0589
 5932ntf    fn432279   1.870   7.184   0.144 -0.5763  0.2804  0.1878
 5932ntf    fn432280   1.810   7.034   0.017  0.3823  0.2972 -0.4199
 5933ntf    cn132281   4.785   1.637   6.373 -0.0162  0.1694  0.1856
 5933ntf    sn232282   4.724   1.635   6.545 -0.0295 -0.0861  0.1785
 5933ntf    nn332283   4.702   1.787   6.577 -0.1932 -0.0634 -0.0372
 5933ntf    sn232284   4.565   1.861   6.602 -0.0160  0.2832 -0.0885
 5933ntf    cn132285   4.511   1.891   6.432  0.1912 -0.4769 -0.2915
 5933ntf    fn432286   4.896   1.707   6.357  0.3305 -0.4216 -0.0448
 5933ntf    fn432287   4.816   1.517   6.325  0.4765  0.4918 -0.3050
 5933ntf    fn432288   4.695   1.686   6.289  0.1837  0.1573 -0.0364
 5933ntf    on532289   4.615   1.541   6.543 -0.0576 -0.0511  0.0043
 5933ntf    on532290   4.839   1.586   6.616 -0.2182  0.3909  0.8222
 5933ntf    on532291   4.571   1.990   6.665 -0.2124  0.0388  0.4383
 5933ntf    on532292   4.454   1.779   6.644  0.5210 -0.1137  0.5888
 5933ntf    fn432293   4.417   1.982   6.410  0.4599 -0.1356 -0.0140
 5933ntf    fn432294   4.606   1.937   6.352 -0.3751  0.1130 -0.6388
 5933ntf    fn432295   4.473   1.776   6.377  0.0728 -0.5741 -0.0069
 5934ntf    cn132296   6.686   7.370   3.419  0.0440  0.1766 -0.1176
 5934ntf    sn232297   6.623   7.536   3.458 -0.2054  0.1046 -0.2163
 5934ntf    nn332298   6.502   7.545   3.358  0.0997 -0.4451 -0.6383
 5934ntf    sn232299   6.381   7.645   3.367  0.3279 -0.2248  0.0089
 5934ntf    cn132300   6.412   7.753   3.224  0.2552  0.1446  0.2716
 5934ntf    fn432301   6.594   7.279   3.449  0.0315  0.2870  0.1899
 5934ntf    fn432302   6.712   7.347   3.292 -0.0696 -0.4594 -0.0320
 5934ntf    fn432303   6.787   7.333   3.496 -0.3304  0.0761  0.3355
 5934ntf    on532304   6.583   7.518   3.595 -0.4341  0.2268 -0.2668
 5934ntf    on532305   6.725   7.627   3.414  0.5810 -0.7199 -0.1260
 5934ntf    on532306   6.372   7.741   3.474  0.3042  0.2142 -0.3834
 5934ntf    on532307   6.257   7.576   3.342  0.3866 -0.3786  0.1429
 5934ntf    fn432308   6.318   7.843   3.197 -0.0420 -0.1920  0.1757
 5934ntf    fn432309   6.528   7.814   3.239  0.6918 -0.5842 -0.1254
 5934ntf    fn432310   6.425   7.679   3.115 -0.2521 -0.2657  0.4841
 5935ntf    cn132311   3.585   5.275   5.171  0.1178 -0.6133 -0.2111
 5935ntf    sn232312   3.437   5.246   5.069 -0.4688 -0.1139  0.4758
 5935ntf    nn332313   3.494   5.226   4.923 -0.0550  0.0998  0.6063
 5935ntf    sn232314   3.533   5.082   4.876 -0.1130  0.3268 -0.1536
 5935ntf    cn132315   3.578   5.126   4.706  0.1037 -0.0398 -0.1921
 5935ntf    fn432316   3.573   5.377   5.255  0.6055 -0.3878 -0.4137
 5935ntf    fn432317   3.624   5.173   5.245  0.6120  0.0288  0.4346
 5935ntf    fn432318   3.691   5.301   5.096  0.1693 -0.1281  0.0268
 5935ntf    on532319   3.377   5.127   5.123 -0.4529 -0.3333  0.0187
 5935ntf    on532320   3.356   5.363   5.085 -0.3869 -0.0441  0.3896
 5935ntf    on532321   3.434   4.980   4.849  1.3438 -1.2116  0.1332
 5935ntf    on532322   3.659   5.042   4.934 -0.3000  0.1408  0.1274
 5935ntf    fn432323   3.666   5.046   4.649  0.0657 -0.5026  0.3889
 5935ntf    fn432324   3.473   5.121   4.624 -0.0643 -0.5561  0.0518
 5935ntf    fn432325   3.633   5.246   4.705 -0.3740  0.1825 -0.2399
 5936ntf    cn132326   5.089   5.855   1.791 -0.0765 -0.0046  0.0193
 5936ntf    sn232327   5.167   5.785   1.643 -0.1056 -0.2224  0.1073
 5936ntf    nn332328   5.038   5.721   1.579 -0.1860  0.3964 -0.3647
 5936ntf    sn232329   5.001   5.573   1.543 -0.0258  0.2894 -0.0962
 5936ntf    cn132330   4.915   5.612   1.388  0.3552 -0.5478 -0.5265
 5936ntf    fn432331   5.095   5.773   1.894  0.1602  0.0589  0.0552
 5936ntf    fn432332   5.145   5.966   1.836  0.8843 -0.5180  0.0998
 5936ntf    fn432333   4.961   5.882   1.770  0.0371  0.5093 -0.0468
 5936ntf    on532334   5.206   5.904   1.572  0.3106 -0.4570 -0.0613
 5936ntf    on532335   5.266   5.688   1.683 -0.6213 -0.4913  0.7499
 5936ntf    on532336   4.896   5.514   1.622 -0.2969  0.8307 -0.0494
 5936ntf    on532337   5.111   5.490   1.499 -0.1040 -0.0407  0.3239
 5936ntf    fn432338   4.792   5.649   1.420  0.8751  0.4140  0.4120
 5936ntf    fn432339   4.972   5.708   1.316 -0.0225  0.1497  0.0905
 5936ntf    fn432340   4.905   5.515   1.299  0.1294 -0.5532 -0.4938
 5937ntf    cn132341   7.112   6.541   6.763  0.4608  0.1929 -0.2071
 5937ntf    sn232342   7.154   6.368   6.797 -0.0280  0.0879 -0.1399
 5937ntf    nn332343   7.013   6.307   6.764 -0.1987  0.2671  0.2565
 5937ntf    sn232344   6.910   6.238   6.860 -0.1451  0.0537  0.1619
 5937ntf    cn132345   6.764   6.212   6.755 -0.2146 -0.4188  0.3741
 5937ntf    fn432346   7.058   6.591   6.873  0.3702  0.1358 -0.2257
 5937ntf    fn432347   7.214   6.621   6.733  0.2908  0.4408 -0.1308
 5937ntf    fn432348   7.017   6.551   6.672  0.5342  0.1833 -0.2841
 5937ntf    on532349   7.245   6.350   6.687 -0.1094  0.1298 -0.2138
 5937ntf    on532350   7.195   6.370   6.935 -0.4361  0.3177 -0.0191
 5937ntf    on532351   6.863   6.331   6.960 -0.4871  0.6081 -0.5051
 5937ntf    on532352   6.952   6.110   6.910  0.7080  0.1229 -0.3682
 5937ntf    fn432353   6.796   6.162   6.638 -0.3000  0.0256  0.1563
 5937ntf    fn432354   6.673   6.134   6.812 -0.8215  0.4470  0.6308
 5937ntf    fn432355   6.693   6.321   6.730  0.1070 -0.1305  0.6963
 5938ntf    cn132356   6.994   1.614   6.040 -0.3254 -0.4813  0.4683
 5938ntf    sn232357   7.075   1.478   5.951 -0.0042  0.1380 -0.1948
 5938ntf    nn332358   7.009   1.489   5.809  0.3080  0.4567 -0.3147
 5938ntf    sn232359   6.890   1.405   5.751  0.2544  0.1088  0.2927
 5938ntf    cn132360   6.754   1.490   5.836  0.0617 -0.1656  0.2599
 5938ntf    fn432361   7.052   1.638   6.157 -0.3166  0.5451  0.2569
 5938ntf    fn432362   6.986   1.723   5.967 -0.4739 -0.5321  0.4091
 5938ntf    fn432363   6.867   1.582   6.057 -0.3948 -0.4801 -0.0336
 5938ntf    on532364   7.212   1.519   5.938  0.1433 -0.2675  0.0550
 5938ntf    on532365   7.041   1.365   6.035  0.1416  0.4555  0.2929
 5938ntf    on532366   6.883   1.270   5.799 -1.5918  0.0045 -0.1966
 5938ntf    on532367   6.863   1.427   5.611  0.0880 -0.2457  0.2669
 5938ntf    fn432368   6.763   1.622   5.837  0.2811 -0.1764 -0.2226
 5938ntf    fn432369   6.635   1.452   5.792 -0.0797  0.0462  0.4518
 5938ntf    fn432370   6.741   1.461   5.965 -0.4284  0.5823  0.3910
 5939ntf    cn132371   6.871   7.080   4.160 -0.0673 -0.2962 -0.1303
 5939ntf    sn232372   6.725   7.185   4.135  0.1194  0.0510  0.2354
 5939ntf    nn332373   6.611   7.110   4.212 -0.3524  0.0571 -0.4494
 5939ntf    sn232374   6.505   7.003   4.167 -0.1933 -0.3388  0.1073
 5939ntf    cn132375   6.536   6.888   4.304  0.4588 -0.3505 -0.0473
 5939ntf    fn432376   6.847   6.955   4.124 -0.3881 -0.3041  0.1082
 5939ntf    fn432377   6.976   7.110   4.084 -0.3707  0.7759 -0.1410
 5939ntf    fn432378   6.912   7.083   4.285  0.0790 -0.5180 -0.1732
 5939ntf    on532379   6.747   7.315   4.194  0.5304  0.1260 -0.0828
 5939ntf    on532380   6.716   7.184   3.991 -0.1786 -0.0558  0.2529
 5939ntf    on532381   6.530   6.941   4.040  0.6740 -0.0182  0.1139
 5939ntf    on532382   6.372   7.048   4.200 -0.2183  0.0308 -0.4942
 5939ntf    fn432383   6.445   6.791   4.307 -0.0888  0.1667  0.3572
 5939ntf    fn432384   6.655   6.831   4.289  0.3021 -0.8091  0.4043
 5939ntf    fn432385   6.547   6.947   4.422 -0.1297 -0.2240 -0.0525
 5940ntf    cn132386   4.211   3.007   5.569 -0.1654  0.3026  0.4648
 5940ntf    sn232387   4.282   3.025   5.402 -0.2092 -0.0974  0.4014
 5940ntf    nn332388   4.398   3.122   5.443 -0.0821  0.1017 -0.4304
 5940ntf    sn232389   4.547   3.087   5.476 -0.0566  0.3327 -0.2995
 5940ntf    cn132390   4.591   3.183   5.624  0.1696 -0.0334 -0.1282
 5940ntf    fn432391   4.101   2.934   5.566 -0.4109  0.6708  0.4996
 5940ntf    fn432392   4.290   2.952   5.660  0.4813  0.4872  0.0250
 5940ntf    fn432393   4.181   3.126   5.616 -0.1293  0.3921  0.2614
 5940ntf    on532394   4.316   2.887   5.375  0.2711  0.0912  0.0353
 5940ntf    on532395   4.175   3.090   5.331  0.1220  0.0961  0.0808
 5940ntf    on532396   4.627   3.138   5.368 -0.2580  0.2559 -0.4847
 5940ntf    on532397   4.567   2.949   5.514  0.1538  0.4347 -0.0351
 5940ntf    fn432398   4.707   3.150   5.678  0.0710  0.0246  0.1214
 5940ntf    fn432399   4.588   3.313   5.601  0.3136 -0.0339 -0.1556
 5940ntf    fn432400   4.508   3.161   5.725  0.3460 -0.0552  0.0139
   7.64263   7.64263   7.64263
