Converted from moscito
19440
    1SOL     ow    1   2.338   2.187   6.241  0.2419  0.1113 -0.0062
    1SOL     hw    2   2.366   2.266   6.195  2.4683  0.4470  1.7649
    1SOL     hw    3   2.266   2.216   6.296  0.2015  0.6081 -0.3105
    1SOL     vw    4   2.332   2.201   6.242  0.5302  0.2211  0.1876
    2SOL     ow    5   5.781   5.185   4.005  0.5769 -0.4494  0.3681
    2SOL     hw    6   5.782   5.147   4.092 -0.9608  0.5113  0.8552
    2SOL     hw    7   5.746   5.115   3.949  2.6530 -1.4693  0.2497
    2SOL     vw    8   5.776   5.171   4.009  0.6480 -0.4575  0.4165
    3SOL     ow    9   4.244   4.858   5.976 -0.4352 -0.4240  0.4520
    3SOL     hw   10   4.251   4.953   5.987 -3.5578 -0.1947  1.4199
    3SOL     hw   11   4.331   4.825   5.997  0.9710  2.2406 -0.6392
    3SOL     vw   12   4.256   4.866   5.980 -0.6616 -0.0417  0.4358
    4SOL     ow   13   4.983   1.389   2.628 -0.4678 -0.7139  0.3145
    4SOL     hw   14   4.975   1.328   2.555 -0.8371  0.9975 -1.1413
    4SOL     hw   15   4.991   1.475   2.587  0.9210  0.1744  2.2533
    4SOL     vw   16   4.983   1.392   2.613 -0.3333 -0.3709  0.3781
    5SOL     ow   17   1.409   6.675   5.284 -0.3787 -0.0220  0.1227
    5SOL     hw   18   1.392   6.593   5.238 -0.7965  1.3054 -2.2644
    5SOL     hw   19   1.503   6.688   5.276 -0.1623 -0.6504  1.3060
    5SOL     vw   20   1.419   6.666   5.277 -0.4053  0.0703 -0.0362
    6SOL     ow   21   1.138   5.651   1.082  1.1512  0.0545  0.3495
    6SOL     hw   22   1.121   5.741   1.111 -0.6636 -0.0945 -0.1620
    6SOL     hw   23   1.187   5.612   1.155 -0.0669  0.7836  1.5980
    6SOL     vw   24   1.143   5.658   1.096  0.7511  0.1309  0.4467
    7SOL     ow   25   1.285   6.515   1.652  0.0597 -0.1477  0.2439
    7SOL     hw   26   1.312   6.512   1.560  1.8816 -0.2184  0.7381
    7SOL     hw   27   1.190   6.507   1.649  0.1401 -1.1175 -1.5842
    7SOL     vw   28   1.276   6.513   1.639  0.3107 -0.2851  0.0679
    8SOL     ow   29   4.452   3.438   4.765  0.0572  0.7960  0.4527
    8SOL     hw   30   4.452   3.387   4.846 -0.2853  1.2193  0.7262
    8SOL     hw   31   4.519   3.397   4.711  1.2094  1.2793  1.4509
    8SOL     vw   32   4.461   3.426   4.769  0.1638  0.9156  0.6206
    9SOL     ow   33   0.437   1.685   6.785  0.2584 -0.0838 -0.5603
    9SOL     hw   34   0.479   1.719   6.706 -0.8644 -0.9872 -1.5853
    9SOL     hw   35   0.427   1.762   6.841  1.3131  0.5279 -1.1729
    9SOL     vw   36   0.441   1.700   6.782  0.2494 -0.1222 -0.7765
   10SOL     ow   37   5.003   5.804   5.511  0.6670 -0.3846  0.1829
   10SOL     hw   38   5.014   5.710   5.495  0.8897 -0.2282 -0.6496
   10SOL     hw   39   4.913   5.813   5.541  0.9082 -0.9655  1.1154
   10SOL     vw   40   4.993   5.793   5.512  0.7284 -0.4408  0.1962
   11SOL     ow   41   0.004   4.811   1.278 -0.0380 -0.4935  0.6154
   11SOL     hw   42   0.083   4.793   1.228 -0.9806 -1.2622 -0.6398
   11SOL     hw   43   0.001   4.907   1.285  0.1057 -0.3693 -0.8323
   11SOL     vw   44   0.014   4.821   1.272 -0.1434 -0.5786  0.2588
   12SOL     ow   45   1.091   2.008   2.194  0.4590  0.2318  0.0915
   12SOL     hw   46   1.078   1.914   2.179  0.9905  0.4210 -1.8320
   12SOL     hw   47   1.005   2.041   2.219  0.6111 -1.0217  2.5616
   12SOL     vw   48   1.078   2.000   2.195  0.5491  0.0913  0.1634
   13SOL     ow   49   4.494   6.818   0.843 -0.8620  0.6999 -0.0982
   13SOL     hw   50   4.418   6.770   0.813 -0.3494  0.1213 -0.4938
   13SOL     hw   51   4.548   6.829   0.765  1.7219 -3.0500  0.8716
   13SOL     vw   52   4.491   6.813   0.829 -0.4535  0.1287 -0.0225
   14SOL     ow   53   3.679   2.067   4.065  0.3747  0.0004 -0.3868
   14SOL     hw   54   3.604   2.099   4.115  0.2236  1.0970 -1.2866
   14SOL     hw   55   3.655   2.082   3.974  1.1780 -0.7913 -0.7368
   14SOL     vw   56   3.666   2.073   4.060  0.4609  0.0405 -0.5517
   15SOL     ow   57   5.308   5.381   0.554  0.2063 -0.7497 -0.3237
   15SOL     hw   58   5.301   5.326   0.476  1.1857 -1.1002 -0.1737
   15SOL     hw   59   5.369   5.451   0.529  1.3237 -1.4206  0.4153
   15SOL     vw   60   5.315   5.383   0.541  0.4830 -0.8845 -0.2064
   16SOL     ow   61   0.141   4.129   5.528 -0.2185 -0.3353  0.2626
   16SOL     hw   62   0.094   4.201   5.485  0.1811  1.2126  2.2197
   16SOL     hw   63   0.102   4.124   5.615 -0.2920 -2.6157  0.1545
   16SOL     vw   64   0.130   4.138   5.534 -0.1755 -0.4318  0.5066
   17SOL     ow   65   3.929   2.854   2.518  0.3229 -0.0897  0.2245
   17SOL     hw   66   3.866   2.834   2.587  1.8702 -0.0681  1.7152
   17SOL     hw   67   3.992   2.912   2.560  1.8014 -0.7807 -0.9516
   17SOL     vw   68   3.929   2.859   2.533  0.7222 -0.1781  0.2661
   18SOL     ow   69   5.334   2.685   6.003  0.2659  0.6572  0.1503
   18SOL     hw   70   5.352   2.609   6.059 -0.2414  1.4889  1.4823
   18SOL     hw   71   5.418   2.705   5.962 -0.0768 -2.1556 -2.2784
   18SOL     vw   72   5.347   2.678   6.005  0.1535  0.3958  0.0057
   19SOL     ow   73   3.629   6.224   1.795 -0.3312  0.1878 -0.3724
   19SOL     hw   74   3.632   6.320   1.786 -0.1471  0.1837 -0.3579
   19SOL     hw   75   3.614   6.209   1.888  0.8406  0.1896 -0.1646
   19SOL     vw   76   3.627   6.235   1.806 -0.1523  0.1874 -0.3430
   20SOL     ow   77   3.315   3.104   0.781  0.1342  0.5605 -0.0105
   20SOL     hw   78   3.271   3.185   0.805 -1.1913 -0.0290 -0.3626
   20SOL     hw   79   3.401   3.132   0.750 -0.5177  1.9028 -0.7016
   20SOL     vw   80   3.321   3.118   0.780 -0.1267  0.6596 -0.1481
   21SOL     ow   81   4.126   3.307   6.399  0.5972 -0.3518  0.0747
   21SOL     hw   82   4.054   3.311   6.463  0.9812  3.2054  0.4938
   21SOL     hw   83   4.203   3.339   6.447  1.5114 -0.1699 -1.4391
   21SOL     vw   84   4.127   3.312   6.414  0.7684  0.1415 -0.0696
   22SOL     ow   85   4.496   1.297   1.657  0.5725  0.4788  0.0150
   22SOL     hw   86   4.540   1.219   1.690  0.3434  1.2265  2.3466
   22SOL     hw   87   4.526   1.368   1.715 -1.3360  1.5669 -0.2198
   22SOL     vw   88   4.506   1.296   1.669  0.2904  0.7210  0.2917
   23SOL     ow   89   2.256   4.670   6.328  0.4582  0.2498  0.1605
   23SOL     hw   90   2.231   4.712   6.246  0.9835  0.7825  0.2631
   23SOL     hw   91   2.313   4.734   6.371  1.6857 -0.7606  0.0885
   23SOL     vw   92   2.260   4.684   6.323  0.6894  0.1864  0.1643
   24SOL     ow   93   6.192   4.420   5.246 -0.1163 -0.5954 -0.0346
   24SOL     hw   94   6.165   4.343   5.195  1.2362 -2.3300  1.7102
   24SOL     hw   95   6.122   4.484   5.231 -1.7602 -2.4688 -0.8843
   24SOL     vw   96   6.179   4.418   5.237 -0.1545 -1.0715  0.0837
   25SOL     ow   97   0.294   6.221   3.617 -0.0907 -0.2551  0.2597
   25SOL     hw   98   0.248   6.234   3.534 -0.1715 -0.5199  0.2599
   25SOL     hw   99   0.321   6.129   3.614 -1.0755 -0.5926  1.0161
   25SOL     vw  100   0.291   6.210   3.605 -0.2313 -0.3345  0.3595
   26SOL     ow  101   1.763   0.483   6.110 -0.3537 -0.4270  0.9367
   26SOL     hw  102   1.822   0.432   6.055 -1.9609  0.2839 -1.6012
   26SOL     hw  103   1.735   0.556   6.055 -2.1629  0.2812  2.6622
   26SOL     vw  104   1.767   0.486   6.096 -0.8045 -0.2398  0.8297
   27SOL     ow  105   5.501   4.664   2.730  0.0274  0.2081  0.1064
   27SOL     hw  106   5.471   4.577   2.756 -0.3411  0.5847  0.9909
   27SOL     hw  107   5.463   4.723   2.795  1.3179  0.8864  0.2893
   27SOL     vw  108   5.492   4.661   2.742  0.1490  0.3474  0.2472
   28SOL     ow  109   3.662   3.318   3.630  0.5730 -0.2516  0.0343
   28SOL     hw  110   3.589   3.276   3.585  1.0234 -1.0981  0.0674
   28SOL     hw  111   3.700   3.377   3.564  2.1340 -2.5572 -1.2845
   28SOL     vw  112   3.658   3.321   3.615  0.8383 -0.6675 -0.1354
   29SOL     ow  113   1.983   6.555   3.889  0.2157 -0.2337 -0.0517
   29SOL     hw  114   1.939   6.625   3.841  0.4161 -0.0806 -0.0151
   29SOL     hw  115   1.979   6.583   3.981 -0.9058 -0.9260  0.1297
   29SOL     vw  116   1.977   6.568   3.895  0.0941 -0.3047 -0.0229
   30SOL     ow  117   5.829   3.807   5.459 -0.0777 -0.0005  0.2773
   30SOL     hw  118   5.773   3.730   5.466  0.0858 -0.5384 -2.7577
   30SOL     hw  119   5.917   3.775   5.478 -0.1750 -0.3173  0.2004
   30SOL     vw  120   5.833   3.792   5.462 -0.0689 -0.1132 -0.1335
   31SOL     ow  121   5.987   0.995   4.546 -0.5398  0.3047 -0.4477
   31SOL     hw  122   6.025   1.027   4.628 -3.5910  0.9858  0.8458
   31SOL     hw  123   5.910   1.050   4.532 -0.5964 -0.3473 -3.3704
   31SOL     vw  124   5.982   1.006   4.555 -0.9499  0.3085 -0.6628
   32SOL     ow  125   0.630   2.547   3.373  0.5927  0.3264 -0.2302
   32SOL     hw  126   0.724   2.532   3.384  0.5971  0.8977  0.6443
   32SOL     hw  127   0.597   2.465   3.338  1.5752  0.4816 -1.6061
   32SOL     vw  128   0.638   2.534   3.370  0.7229  0.4224 -0.2965
   33SOL     ow  129   1.411   0.837   6.514  0.3514 -0.1637  0.1522
   33SOL     hw  130   1.343   0.771   6.500  0.8039 -0.6204  0.0803
   33SOL     hw  131   1.468   0.799   6.581  0.9078 -0.0676 -0.2607
   33SOL     vw  132   1.410   0.823   6.521  0.4844 -0.2113  0.0882
   34SOL     ow  133   1.992   5.350   0.123  0.1610 -0.1184 -0.3500
   34SOL     hw  134   2.026   5.317   0.206  0.8939 -0.0205 -0.6052
   34SOL     hw  135   2.046   5.426   0.104  0.8481 -0.8816 -1.5491
   34SOL     vw  136   2.004   5.356   0.132  0.3483 -0.2058 -0.5419
   35SOL     ow  137   5.676   4.570   6.621 -0.1360  0.0459 -0.3104
   35SOL     hw  138   5.604   4.603   6.674 -0.6183  0.9009 -1.4609
   35SOL     hw  139   5.670   4.475   6.629 -0.0785  0.1534  1.2927
   35SOL     vw  140   5.666   4.562   6.629 -0.1922  0.1729 -0.2508
   36SOL     ow  141   4.992   0.147   0.752 -0.0779  0.1833  0.3580
   36SOL     hw  142   4.950   0.072   0.711  1.7310 -0.9394  0.4856
   36SOL     hw  143   5.061   0.110   0.807  0.2616  1.8899  1.1703
   36SOL     vw  144   4.995   0.132   0.754  0.2055  0.2604  0.4821
   37SOL     ow  145   0.203   5.569   6.190  0.0416 -0.6007 -0.3265
   37SOL     hw  146   0.209   5.479   6.157  0.0802 -0.2433 -1.3069
   37SOL     hw  147   0.294   5.595   6.203  0.2118  0.2424 -2.7062
   37SOL     vw  148   0.216   5.561   6.188  0.0691 -0.4423 -0.7699
   38SOL     ow  149   1.787   1.201   5.015  0.1981 -0.9941  0.3223
   38SOL     hw  150   1.692   1.209   5.026  0.2999  0.9947  0.1723
   38SOL     hw  151   1.798   1.128   4.955 -1.5479  1.0946 -2.8555
   38SOL     vw  152   1.776   1.193   5.009 -0.0188 -0.4562 -0.1168
   39SOL     ow  153   3.265   5.507   3.448  0.1934 -0.5968 -0.0413
   39SOL     hw  154   3.325   5.559   3.394 -1.3121 -1.2848 -2.5603
   39SOL     hw  155   3.178   5.529   3.414 -0.6328 -3.1840  0.2192
   39SOL     vw  156   3.261   5.517   3.436 -0.1143 -1.0290 -0.3392
   40SOL     ow  157   5.163   5.614   3.384  0.4769  0.0628 -0.0991
   40SOL     hw  158   5.115   5.696   3.397  0.7433  0.4795 -1.5628
   40SOL     hw  159   5.229   5.613   3.454 -0.1615  0.5981  0.5304
   40SOL     vw  160   5.165   5.624   3.395  0.4280  0.1886 -0.2092
   41SOL     ow  161   4.955   5.788   6.202  0.6428 -0.1434  0.0865
   41SOL     hw  162   4.933   5.703   6.163  1.4475  0.0057 -0.7205
   41SOL     hw  163   4.897   5.851   6.159 -0.4574 -0.3516  1.1918
   41SOL     vw  164   4.944   5.785   6.191  0.6039 -0.1512  0.1259
   42SOL     ow  165   4.645   1.031   0.017 -0.3831  0.1348 -0.7413
   42SOL     hw  166   4.665   0.993   0.102  0.1294  0.8884 -0.5155
   42SOL     hw  167   4.632   1.124   0.035  1.2882  0.5888 -1.7116
   42SOL     vw  168   4.646   1.038   0.030 -0.0949  0.2941 -0.8395
   43SOL     ow  169   4.725   0.256   0.655  0.4358 -0.4332 -0.4310
   43SOL     hw  170   4.666   0.317   0.699 -0.8228 -0.8951 -1.4261
   43SOL     hw  171   4.693   0.169   0.681 -1.9303 -0.8402 -3.9958
   43SOL     vw  172   4.713   0.253   0.665 -0.0422 -0.5478 -1.0326
   44SOL     ow  173   5.435   6.358   5.485 -0.2154  0.1897  0.8306
   44SOL     hw  174   5.402   6.296   5.550 -0.4325  0.7219  1.2415
   44SOL     hw  175   5.379   6.435   5.496 -1.9575 -0.5897 -1.7076
   44SOL     vw  176   5.423   6.360   5.495 -0.4740  0.1571  0.5503
   45SOL     ow  177   2.400   5.176   3.174 -0.2116 -0.3072 -0.1867
   45SOL     hw  178   2.411   5.260   3.218  0.4801 -0.0893 -0.7475
   45SOL     hw  179   2.373   5.199   3.085  3.5023 -0.4221 -1.5295
   45SOL     vw  180   2.398   5.190   3.168  0.3695 -0.2935 -0.4380
   46SOL     ow  181   4.279   4.579   4.064  0.5006 -0.0250 -0.6039
   46SOL     hw  182   4.370   4.597   4.039  0.2517  0.9545 -0.8153
   46SOL     hw  183   4.227   4.631   4.004 -0.2047 -0.4614 -0.3770
   46SOL     vw  184   4.284   4.588   4.053  0.3746  0.0467 -0.6020
   47SOL     ow  185   4.032   2.142   4.617 -0.1497  0.0865  0.9169
   47SOL     hw  186   4.067   2.054   4.627  1.7366  0.3620 -1.9465
   47SOL     hw  187   4.072   2.192   4.689 -1.2156 -1.2942  2.5473
   47SOL     vw  188   4.042   2.137   4.628 -0.0412 -0.0594  0.7541
   48SOL     ow  189   5.877   2.790   2.509  0.5213 -0.0972  0.3237
   48SOL     hw  190   5.913   2.707   2.541  2.5639  0.6964  0.2329
   48SOL     hw  191   5.927   2.857   2.555 -1.1615  1.1180  0.4597
   48SOL     vw  192   5.889   2.788   2.519  0.5686  0.1677  0.3299
   49SOL     ow  193   3.207   0.181   6.457  0.1651 -0.4015 -0.7937
   49SOL     hw  194   3.229   0.106   6.512 -1.5576  0.5738  1.3859
   49SOL     hw  195   3.150   0.145   6.389 -0.7386 -1.0758  0.2901
   49SOL     vw  196   3.202   0.166   6.455 -0.1814 -0.3618 -0.3633
   50SOL     ow  197   4.001   1.211   0.338  0.5028  0.1628  0.0054
   50SOL     hw  198   3.925   1.267   0.355 -0.7992 -1.3528 -0.5413
   50SOL     hw  199   3.969   1.122   0.357  2.2769 -0.4744  0.1607
   50SOL     vw  200   3.987   1.207   0.343  0.5653 -0.1212 -0.0462
   51SOL     ow  201   0.990   1.487   5.335  0.3509  0.1090  0.4840
   51SOL     hw  202   1.062   1.531   5.290  1.2302 -0.2823  1.4651
   51SOL     hw  203   1.020   1.477   5.425 -0.6553 -0.6821  0.7560
   51SOL     vw  204   1.003   1.491   5.341  0.3341 -0.0470  0.6497
   52SOL     ow  205   2.762   0.364   0.003  0.6364 -0.3447  0.0927
   52SOL     hw  206   2.815   0.418   0.060 -0.9245 -1.2440  2.5853
   52SOL     hw  207   2.672   0.382   0.030 -0.1454 -1.3232 -1.6674
   52SOL     vw  208   2.757   0.373   0.014  0.3273 -0.5925  0.1893
   53SOL     ow  209   4.682   6.404   4.788 -0.1647 -0.7012 -0.2669
   53SOL     hw  210   4.746   6.404   4.859  2.1945 -1.1244 -2.2247
   53SOL     hw  211   4.633   6.486   4.799  1.1854 -0.0189  0.9422
   53SOL     vw  212   4.684   6.415   4.799  0.3247 -0.6669 -0.3655
   54SOL     ow  213   2.383   3.198   4.629  0.1897  0.5661  0.6182
   54SOL     hw  214   2.422   3.120   4.589 -1.5763  0.2195 -0.5274
   54SOL     hw  215   2.425   3.271   4.584 -0.2141  0.2081 -0.3747
   54SOL     vw  216   2.394   3.197   4.618 -0.0966  0.4731  0.3359
   55SOL     ow  217   4.642   3.024   0.572 -0.4500 -0.0831 -0.2118
   55SOL     hw  218   4.549   3.019   0.593 -1.6003 -0.7876 -4.5141
   55SOL     hw  219   4.656   3.116   0.549  0.5943  0.5222  2.5057
   55SOL     vw  220   4.631   3.036   0.571 -0.4640 -0.0962 -0.4209
   56SOL     ow  221   3.621   5.830   4.344 -0.4659  0.8175  0.5172
   56SOL     hw  222   3.694   5.863   4.396 -2.4379  3.0175  2.1604
   56SOL     hw  223   3.602   5.900   4.282 -1.4390  0.5089  0.4510
   56SOL     vw  224   3.628   5.844   4.343 -0.8544  1.0672  0.7253
   57SOL     ow  225   0.456   1.285   0.729 -0.0997 -0.0757 -0.4810
   57SOL     hw  226   0.489   1.326   0.649 -0.8961  1.7389  0.0824
   57SOL     hw  227   0.371   1.325   0.744  0.3826  0.2570  1.7221
   57SOL     vw  228   0.449   1.295   0.720 -0.1411  0.2075 -0.1159
   58SOL     ow  229   6.881   0.465   4.485  0.1702  0.1505  0.3386
   58SOL     hw  230   6.841   0.476   4.571 -1.2421  0.9261 -0.3904
   58SOL     hw  231   6.867   0.373   4.464  3.4508 -1.0009  2.2762
   58SOL     vw  232   6.874   0.454   4.494  0.4168  0.1010  0.4981
   59SOL     ow  233   5.278   1.954   1.712  0.4026 -0.1281  0.1634
   59SOL     hw  234   5.326   1.889   1.764 -0.4488 -0.5119  0.4939
   59SOL     hw  235   5.345   2.016   1.684  1.4395 -1.7026 -1.0615
   59SOL     vw  236   5.293   1.954   1.715  0.4270 -0.3864  0.0454
   60SOL     ow  237   0.365   5.160   5.680 -0.0808 -0.3676 -0.0215
   60SOL     hw  238   0.398   5.071   5.691 -0.4245 -0.5319 -0.3185
   60SOL     hw  239   0.419   5.212   5.740  0.3677 -0.7123 -0.1166
   60SOL     vw  240   0.377   5.155   5.689 -0.0670 -0.4344 -0.0734
   61SOL     ow  241   3.614   6.574   3.836 -0.3919 -0.0773  0.2284
   61SOL     hw  242   3.539   6.529   3.873  0.0806 -0.5546  0.6172
   61SOL     hw  243   3.647   6.515   3.768  0.6685 -0.7016  1.2281
   61SOL     vw  244   3.609   6.560   3.832 -0.1897 -0.2227  0.4116
   62SOL     ow  245   0.065   0.800   4.337 -0.2897 -1.2540  0.4417
   62SOL     hw  246   0.079   0.853   4.259  1.5312 -0.9216  0.9320
   62SOL     hw  247  -0.027   0.812   4.358  0.2616  3.0927  1.3963
   62SOL     vw  248   0.055   0.809   4.330  0.0233 -0.6367  0.6320
   63SOL     ow  249   2.651   1.475   3.027  0.2230  0.5519 -0.1532
   63SOL     hw  250   2.673   1.419   3.100 -0.1200  0.9637  0.2729
   63SOL     hw  251   2.734   1.494   2.985  0.2860 -0.7590 -0.6730
   63SOL     vw  252   2.665   1.470   3.031  0.1862  0.4333 -0.1657
   64SOL     ow  253   5.599   4.610   1.495  0.0219 -0.3993 -0.4316
   64SOL     hw  254   5.615   4.688   1.548 -0.1242  0.0141 -0.9909
   64SOL     hw  255   5.666   4.548   1.523 -0.3510 -0.3642  0.5808
   64SOL     vw  256   5.610   4.612   1.506 -0.0465 -0.3400 -0.3718
   65SOL     ow  257   1.889   0.565   3.122 -0.2262  0.2996  0.4785
   65SOL     hw  258   1.805   0.533   3.153 -0.4726  0.2355 -0.2419
   65SOL     hw  259   1.867   0.640   3.066  0.2295  0.6046  0.6994
   65SOL     vw  260   1.875   0.571   3.118 -0.1986  0.3314  0.4128
   66SOL     ow  261   2.216   1.159   2.165 -0.2598  0.6437 -0.3994
   66SOL     hw  262   2.163   1.123   2.094  2.0133  0.9176 -2.3388
   66SOL     hw  263   2.277   1.089   2.187 -1.3434  0.3084  1.8511
   66SOL     vw  264   2.217   1.145   2.159 -0.1030  0.6356 -0.3585
   67SOL     ow  265   4.370   0.338   4.543 -0.4030  0.1374 -0.3295
   67SOL     hw  266   4.302   0.289   4.496 -0.4028  0.2891 -0.4907
   67SOL     hw  267   4.333   0.354   4.630 -1.4022  1.9098 -1.0146
   67SOL     vw  268   4.356   0.334   4.548 -0.5350  0.3912 -0.4408
   68SOL     ow  269   4.965   4.299   0.076 -0.2742 -0.0914  0.2344
   68SOL     hw  270   4.894   4.299   0.139 -0.0933  1.2269  0.4728
   68SOL     hw  271   4.961   4.385   0.035 -0.4673 -0.9497 -1.6624
   68SOL     vw  272   4.955   4.310   0.079 -0.2761 -0.0305  0.0156
   69SOL     ow  273   2.407   1.587   2.918 -0.1997 -0.0557 -0.2187
   69SOL     hw  274   2.438   1.677   2.905 -0.5457 -0.0121 -0.7687
   69SOL     hw  275   2.316   1.589   2.886  0.3238 -1.0259 -1.8719
   69SOL     vw  276   2.399   1.599   2.912 -0.1763 -0.1779 -0.5095
   70SOL     ow  277   3.492   0.468   4.072 -0.3048  0.1897  0.1395
   70SOL     hw  278   3.504   0.406   4.000  1.4684  0.9186 -0.2437
   70SOL     hw  279   3.444   0.419   4.138  2.3521 -2.1483  0.4972
   70SOL     vw  280   3.487   0.453   4.071  0.2798 -0.0226  0.1361
   71SOL     ow  281   4.736   0.048   6.374  0.5797 -0.3565  0.2668
   71SOL     hw  282   4.725  -0.044   6.397 -0.6237  0.0044  1.2445
   71SOL     hw  283   4.724   0.096   6.456 -0.9943  0.7997 -0.5621
   71SOL     vw  284   4.733   0.042   6.388  0.2131 -0.1563  0.2863
   72SOL     ow  285   3.718   4.454   1.114 -0.3446 -0.5948 -1.1510
   72SOL     hw  286   3.703   4.371   1.068 -0.9607 -0.8543 -0.4910
   72SOL     hw  287   3.761   4.429   1.195  0.8087 -0.1263 -1.5979
   72SOL     vw  288   3.722   4.440   1.118 -0.2736 -0.5672 -1.1228
   73SOL     ow  289   0.977   4.043   3.598 -0.3203 -0.1778 -0.2043
   73SOL     hw  290   0.949   3.962   3.557  0.5266 -0.1051 -0.9535
   73SOL     hw  291   1.072   4.036   3.604 -0.0087  1.5253 -2.0308
   73SOL     vw  292   0.986   4.032   3.593 -0.1675  0.0563 -0.5440
   74SOL     ow  293   5.490   2.768   6.869  0.5195 -0.4072 -0.0190
   74SOL     hw  294   5.584   2.754   6.865  0.7199  0.5013  1.0028
   74SOL     hw  295   5.479   2.847   6.922 -0.7695  0.1503 -1.0453
   74SOL     vw  296   5.501   2.777   6.876  0.3757 -0.2139 -0.0196
   75SOL     ow  297   2.515   4.585   6.897 -0.5817  0.0179 -0.1080
   75SOL     hw  298   2.587   4.534   6.934 -2.3037 -1.6893  1.1248
   75SOL     hw  299   2.555   4.666   6.868  1.9305 -1.1157 -0.0834
   75SOL     vw  300   2.530   4.589   6.898 -0.4776 -0.3569  0.0579
   76SOL     ow  301   3.987   3.027   6.381 -0.5378  0.1020  0.2342
   76SOL     hw  302   3.935   3.106   6.398 -1.5480 -0.3285 -0.7923
   76SOL     hw  303   4.043   3.051   6.308 -1.2200 -0.2790 -0.4283
   76SOL     vw  304   3.988   3.041   6.374 -0.7609 -0.0049  0.0114
   77SOL     ow  305   1.668   4.483   5.114 -0.5652 -0.0877 -0.6707
   77SOL     hw  306   1.675   4.419   5.043 -1.1945  1.1126 -1.8583
   77SOL     hw  307   1.693   4.434   5.193  3.7956 -0.5774 -2.1159
   77SOL     vw  308   1.672   4.468   5.115 -0.0728  0.0062 -1.0183
   78SOL     ow  309   6.830   0.988   2.489 -0.1531 -0.0721  0.0432
   78SOL     hw  310   6.899   0.926   2.463  0.7275  1.5961 -1.8156
   78SOL     hw  311   6.751   0.956   2.445  0.1220 -0.2813 -0.3067
   78SOL     vw  312   6.829   0.976   2.480 -0.0002  0.1204 -0.2482
   79SOL     ow  313   6.665   1.143   5.350  0.5745 -0.7251 -0.6168
   79SOL     hw  314   6.715   1.145   5.268  1.3795  0.6155 -0.1446
   79SOL     hw  315   6.720   1.192   5.412 -0.3374 -1.1125  0.5314
   79SOL     vw  316   6.679   1.150   5.347  0.5603 -0.5993 -0.4029
   80SOL     ow  317   3.367   2.883   1.044 -0.3097 -0.5023  0.2196
   80SOL     hw  318   3.428   2.813   1.069  0.6162 -0.7160 -2.3594
   80SOL     hw  319   3.393   2.958   1.098  1.8694 -0.7909 -0.3315
   80SOL     vw  320   3.379   2.884   1.054  0.1000 -0.5685 -0.1934
   81SOL     ow  321   2.321   4.124   0.873 -0.0419  0.3006  0.2094
   81SOL     hw  322   2.304   4.213   0.841  0.2843  0.8278  1.4365
   81SOL     hw  323   2.269   4.118   0.953  0.2415 -0.4870  0.3322
   81SOL     vw  324   2.312   4.135   0.879  0.0385  0.2663  0.3875
   82SOL     ow  325   2.192   2.718   0.525  0.1103  0.1565 -0.5764
   82SOL     hw  326   2.244   2.776   0.581 -1.0220  0.6468 -0.0043
   82SOL     hw  327   2.187   2.763   0.441  1.3838 -0.3435 -0.9506
   82SOL     vw  328   2.198   2.731   0.522  0.1287  0.1552 -0.5502
   83SOL     ow  329   6.387   2.301   6.044  0.1947 -0.0254 -0.3122
   83SOL     hw  330   6.327   2.264   5.980 -0.5395  1.4466 -0.5087
   83SOL     hw  331   6.447   2.229   6.065 -0.8599 -1.1514 -1.0405
   83SOL     vw  332   6.387   2.286   6.039 -0.0412  0.0201 -0.4344
   84SOL     ow  333   4.252   0.558   3.336 -0.3514 -0.0244  0.0997
   84SOL     hw  334   4.269   0.646   3.371 -1.4684  0.8170 -1.3375
   84SOL     hw  335   4.255   0.569   3.241  1.1487 -1.9205 -0.1352
   84SOL     vw  336   4.254   0.571   3.328 -0.3009 -0.1636 -0.1209
   85SOL     ow  337   5.504   0.740   5.391  0.5851 -0.3579 -0.3722
   85SOL     hw  338   5.554   0.679   5.337  0.1937 -3.0671  2.0400
   85SOL     hw  339   5.416   0.703   5.394  0.3117  0.3391  1.1236
   85SOL     vw  340   5.499   0.727   5.384  0.4973 -0.6234  0.1431
   86SOL     ow  341   0.071   3.927   4.405 -0.3894 -0.2066  0.1860
   86SOL     hw  342   0.020   3.998   4.367  0.4602  0.0159 -0.6011
   86SOL     hw  343   0.062   3.938   4.499 -1.1133  0.3110  0.0659
   86SOL     vw  344   0.063   3.937   4.412 -0.3728 -0.1090  0.0663
   87SOL     ow  345   5.433   4.434   1.300 -0.2158 -0.1688 -0.7152
   87SOL     hw  346   5.496   4.410   1.232  1.0633  1.6039 -0.2419
   87SOL     hw  347   5.396   4.351   1.329  1.3117 -1.2073 -1.5856
   87SOL     vw  348   5.436   4.420   1.295  0.1545 -0.0720 -0.7675
   88SOL     ow  349   3.032   0.039   1.119 -0.5515  0.0972 -0.1414
   88SOL     hw  350   3.108   0.001   1.075  0.5982  0.2363  1.5767
   88SOL     hw  351   3.068   0.073   1.201 -2.6481 -0.6393  1.1605
   88SOL     vw  352   3.047   0.039   1.124 -0.6764  0.0183  0.2570
   89SOL     ow  353   4.503   0.226   2.119 -0.2335  0.0230  0.4248
   89SOL     hw  354   4.477   0.229   2.211  1.4794 -0.5523  0.9698
   89SOL     hw  355   4.508   0.133   2.098  2.4179 -0.0049  0.7447
   89SOL     vw  356   4.500   0.214   2.129  0.3426 -0.0566  0.5389
   90SOL     ow  357   2.061   1.148   6.846 -0.3643  0.0725 -0.1169
   90SOL     hw  358   2.060   1.189   6.932  0.0722  0.4784 -0.3022
   90SOL     hw  359   1.999   1.075   6.853  0.1727 -0.3146  0.7407
   90SOL     vw  360   2.052   1.144   6.858 -0.2357  0.0749 -0.0281
   91SOL     ow  361   4.182   1.422   5.043 -0.3063 -0.0700  0.6705
   91SOL     hw  362   4.187   1.504   4.994  1.9887  0.3946  1.5502
   91SOL     hw  363   4.272   1.404   5.069 -0.3026 -4.1275 -1.4188
   91SOL     vw  364   4.194   1.431   5.040 -0.0031 -0.5440  0.5109
   92SOL     ow  365   5.296   4.048   5.719 -0.1896 -0.2366 -0.2185
   92SOL     hw  366   5.316   4.142   5.723  0.0325 -0.2899 -0.1236
   92SOL     hw  367   5.243   4.039   5.639  0.4244 -0.1492 -0.6396
   92SOL     vw  368   5.292   4.059   5.709 -0.0792 -0.2322 -0.2613
   93SOL     ow  369   4.312   5.496   2.535  0.0073  0.4984  0.6479
   93SOL     hw  370   4.403   5.522   2.523  0.2815 -0.5530  0.4058
   93SOL     hw  371   4.266   5.536   2.461  0.2920  0.8665  0.6637
   93SOL     vw  372   4.318   5.505   2.524  0.0811  0.4082  0.6181
   94SOL     ow  373   1.411   1.267   0.775  0.0580  0.5890  0.5952
   94SOL     hw  374   1.499   1.232   0.763  0.3083  1.6323 -0.9009
   94SOL     hw  375   1.386   1.240   0.863  1.1252 -1.3220  0.3545
   94SOL     vw  376   1.420   1.259   0.785  0.2319  0.4745  0.3660
   95SOL     ow  377   4.925   4.615   4.885  0.7857  0.1096  0.0175
   95SOL     hw  378   4.913   4.538   4.830 -0.2107 -0.8379  1.5172
   95SOL     hw  379   4.870   4.682   4.844  0.0628 -0.5793 -0.1591
   95SOL     vw  380   4.916   4.614   4.872  0.5586 -0.1063  0.1919
   96SOL     ow  381   3.569   4.483   0.838  0.1979 -0.1368 -0.0076
   96SOL     hw  382   3.591   4.420   0.769  2.8787  0.6665  0.0114
   96SOL     hw  383   3.543   4.562   0.791  2.2505  0.4888 -0.2193
   96SOL     vw  384   3.569   4.485   0.823  0.8224  0.0517 -0.0331
   97SOL     ow  385   5.939   2.960   1.296  0.4550  0.5282  0.0828
   97SOL     hw  386   5.920   2.994   1.384  1.7496  0.5709  0.3587
   97SOL     hw  387   5.989   3.030   1.253  1.4814 -0.2456 -0.0104
   97SOL     vw  388   5.943   2.974   1.302  0.7613  0.4318  0.1069
   98SOL     ow  389   2.566   3.930   6.729 -0.7807 -0.0069 -0.0776
   98SOL     hw  390   2.658   3.938   6.706 -1.1855  0.0422 -1.8011
   98SOL     hw  391   2.566   3.920   6.824  1.1141 -1.8239 -0.2056
   98SOL     vw  392   2.578   3.930   6.738 -0.5840 -0.2402 -0.3219
   99SOL     ow  393   3.315   1.240   2.405  0.4272 -0.0414  0.1467
   99SOL     hw  394   3.366   1.182   2.349  1.3111 -1.0370  1.8808
   99SOL     hw  395   3.367   1.320   2.412 -0.4098  0.7268 -1.5911
   99SOL     vw  396   3.328   1.243   2.399  0.4333 -0.0714  0.1460
  100SOL     ow  397   5.649   2.534   0.708 -0.1588  0.4150  0.6872
  100SOL     hw  398   5.606   2.604   0.758  0.2247  1.3138 -0.2030
  100SOL     hw  399   5.719   2.579   0.660  1.5245 -0.9181  1.7429
  100SOL     vw  400   5.653   2.550   0.708  0.1140  0.3576  0.7091
  101SOL     ow  401   0.033   4.421   4.697 -0.8142  0.3873 -0.2829
  101SOL     hw  402  -0.007   4.372   4.625 -3.0039  0.6203  0.6818
  101SOL     hw  403  -0.041   4.461   4.743  0.5665  0.9260  1.6206
  101SOL     vw  404   0.018   4.420   4.694 -0.9209  0.4892  0.0956
  102SOL     ow  405   6.578   6.685   2.766  0.1074  0.6416 -0.1814
  102SOL     hw  406   6.651   6.747   2.772  2.0704 -1.6188  0.8527
  102SOL     hw  407   6.539   6.687   2.854  0.0648  0.5246 -0.1982
  102SOL     vw  408   6.583   6.694   2.778  0.3605  0.3278 -0.0473
  103SOL     ow  409   6.011   6.719   1.953 -0.0659 -0.2450 -0.1055
  103SOL     hw  410   5.992   6.753   2.040 -0.3370  0.5691 -0.4670
  103SOL     hw  411   6.097   6.678   1.961 -0.0453 -0.0933  0.5168
  103SOL     vw  412   6.019   6.718   1.965 -0.0989 -0.1178 -0.0711
  104SOL     ow  413   3.645   2.419   0.606  0.1770  0.1713  0.4338
  104SOL     hw  414   3.639   2.494   0.547  0.3454  0.1963  0.4484
  104SOL     hw  415   3.650   2.458   0.693  1.0831  0.1705  0.3898
  104SOL     vw  416   3.645   2.434   0.610  0.3189  0.1745  0.4299
  105SOL     ow  417   2.490   4.681   4.514 -0.4776  0.1924 -0.7042
  105SOL     hw  418   2.481   4.625   4.591 -1.3963 -0.2965 -1.1532
  105SOL     hw  419   2.531   4.624   4.448  0.2516  0.5919 -0.6111
  105SOL     vw  420   2.494   4.666   4.515 -0.5026  0.1805 -0.7510
  106SOL     ow  421   5.005   0.355   0.510 -0.0539 -0.6892 -0.4650
  106SOL     hw  422   5.101   0.352   0.509  0.0888  1.8938 -1.1079
  106SOL     hw  423   4.980   0.360   0.418 -0.8290 -1.4647 -0.3059
  106SOL     vw  424   5.015   0.355   0.498 -0.1371 -0.4508 -0.5288
  107SOL     ow  425   0.080   5.566   4.805 -0.4598 -0.6301 -0.0700
  107SOL     hw  426   0.091   5.470   4.802 -0.7431 -0.6682  0.0604
  107SOL     hw  427   0.119   5.597   4.723 -1.7199 -0.9974 -0.8433
  107SOL     vw  428   0.086   5.557   4.794 -0.6634 -0.6835 -0.1547
  108SOL     ow  429   3.963   5.109   4.632  0.7911  0.2799 -0.0805
  108SOL     hw  430   3.923   5.058   4.562  0.5258  0.1136  0.1940
  108SOL     hw  431   4.056   5.086   4.628  0.2867 -2.6390  2.0251
  108SOL     vw  432   3.970   5.099   4.622  0.6894 -0.1271  0.2334
  109SOL     ow  433   5.681   6.070   6.442  0.0155  0.1450  0.7632
  109SOL     hw  434   5.631   6.080   6.361  1.4318 -1.7772 -0.4475
  109SOL     hw  435   5.651   6.141   6.498 -1.5494  1.1043 -1.1699
  109SOL     vw  436   5.671   6.081   6.439 -0.0041  0.0179  0.3486
  110SOL     ow  437   3.044   3.071   4.927  0.2829 -0.3216 -0.2273
  110SOL     hw  438   3.073   3.128   4.856 -0.2578  0.5086  0.2093
  110SOL     hw  439   3.124   3.047   4.972  0.4507  0.7906  0.0965
  110SOL     vw  440   3.058   3.075   4.923  0.2338 -0.0654 -0.1268
  111SOL     ow  441   1.257   1.101   6.423  0.2683  0.2873  0.1748
  111SOL     hw  442   1.180   1.044   6.429  1.2732 -1.0872  0.8419
  111SOL     hw  443   1.225   1.188   6.447 -1.1433 -0.1726  0.0485
  111SOL     vw  444   1.242   1.105   6.427  0.2147  0.0452  0.2463
  112SOL     ow  445   4.161   6.021   0.662 -0.0109  0.1143  0.0017
  112SOL     hw  446   4.209   6.070   0.596 -0.5596  0.6968  0.0305
  112SOL     hw  447   4.211   6.036   0.743 -0.9407  1.7955  0.2994
  112SOL     vw  448   4.174   6.030   0.664 -0.2058  0.4129  0.0448
  113SOL     ow  449   0.551   2.121   5.291 -0.0117 -0.0898 -0.4635
  113SOL     hw  450   0.516   2.208   5.306  0.5738  0.0529  0.1485
  113SOL     hw  451   0.512   2.093   5.208 -0.3026  0.6999 -0.6029
  113SOL     vw  452   0.541   2.129   5.282  0.0271  0.0333 -0.4010
  114SOL     ow  453   3.393   0.315   6.235 -0.1605 -0.3668 -0.1241
  114SOL     hw  454   3.405   0.232   6.190  0.8830 -0.2226 -0.1291
  114SOL     hw  455   3.324   0.360   6.186  0.5805 -0.4431 -1.2586
  114SOL     vw  456   3.386   0.310   6.223  0.0750 -0.3578 -0.2744
  115SOL     ow  457   5.185   4.750   4.920  0.3361 -0.5760  0.6309
  115SOL     hw  458   5.213   4.714   4.836  1.2303  0.2520  0.5510
  115SOL     hw  459   5.124   4.820   4.897 -0.7034 -1.4135  0.7528
  115SOL     vw  460   5.180   4.755   4.906  0.3171 -0.5772  0.6368
  116SOL     ow  461   0.467   6.409   5.595  0.2848  0.3830  0.1965
  116SOL     hw  462   0.557   6.428   5.623  0.7335 -0.9165 -0.3156
  116SOL     hw  463   0.448   6.324   5.633  0.4195 -0.8015 -2.2275
  116SOL     vw  464   0.477   6.401   5.604  0.3618  0.0551 -0.1907
  117SOL     ow  465   3.392   5.469   1.251 -0.2556  0.4449  1.1303
  117SOL     hw  466   3.416   5.415   1.327  1.8697  0.8163  0.7986
  117SOL     hw  467   3.458   5.538   1.249 -0.0955  0.3210 -1.1611
  117SOL     vw  468   3.404   5.471   1.261  0.0459  0.4776  0.7842
  118SOL     ow  469   2.508   4.031   2.199 -0.6575 -0.2215  0.0797
  118SOL     hw  470   2.549   4.111   2.164 -0.9630  0.5106  1.3174
  118SOL     hw  471   2.519   3.966   2.130  2.4930 -0.0467  0.2605
  118SOL     vw  472   2.515   4.033   2.185 -0.2820 -0.1018  0.2669
  119SOL     ow  473   0.400   3.290   2.811  0.3898 -0.5923 -0.0544
  119SOL     hw  474   0.337   3.267   2.743  0.6298 -0.4281 -0.3325
  119SOL     hw  475   0.389   3.222   2.878 -1.1383  0.2705  0.6058
  119SOL     vw  476   0.390   3.278   2.811  0.2198 -0.4568 -0.0039
  120SOL     ow  477   6.458   2.233   0.719 -0.3711  0.1962  0.1146
  120SOL     hw  478   6.476   2.261   0.629 -0.1368 -0.9272 -0.2091
  120SOL     hw  479   6.369   2.265   0.737 -0.8203 -0.4068 -0.8927
  120SOL     vw  480   6.448   2.241   0.710 -0.3996 -0.0316 -0.0610
  121SOL     ow  481   4.061   0.732   2.202  0.3806 -0.4904  1.0321
  121SOL     hw  482   4.055   0.687   2.118  1.7169  2.5132 -0.8512
  121SOL     hw  483   3.970   0.751   2.226  0.0111  0.0640 -0.6512
  121SOL     vw  484   4.048   0.729   2.194  0.5081 -0.0210  0.5614
  122SOL     ow  485   1.146   5.681   1.727 -0.5289 -0.3038  0.2101
  122SOL     hw  486   1.133   5.679   1.822  0.8284  1.1806  0.4730
  122SOL     hw  487   1.097   5.606   1.695  0.9716 -2.3342  2.3394
  122SOL     vw  488   1.138   5.671   1.735 -0.1519 -0.3755  0.5257
  123SOL     ow  489   1.979   1.350   2.191  0.2976  0.2126 -0.3234
  123SOL     hw  490   1.962   1.408   2.117 -0.7190 -1.3157 -1.3215
  123SOL     hw  491   1.894   1.343   2.236  0.6627  0.2926  0.4046
  123SOL     vw  492   1.965   1.357   2.187  0.2117  0.0215 -0.3589
  124SOL     ow  493   3.435   4.887   4.194  0.0022 -0.1238  0.4491
  124SOL     hw  494   3.429   4.806   4.245 -0.0287  0.9144  2.1654
  124SOL     hw  495   3.520   4.925   4.219 -0.2155  0.6296  0.0663
  124SOL     vw  496   3.446   4.882   4.204 -0.0306  0.1125  0.6251
  125SOL     ow  497   0.910   3.770   4.721 -0.2941  0.5819  0.1474
  125SOL     hw  498   0.921   3.852   4.673  0.2389 -0.1448 -1.0299
  125SOL     hw  499   0.816   3.760   4.730 -0.3941  0.9017 -0.4643
  125SOL     vw  500   0.899   3.780   4.715 -0.2369  0.5281 -0.0889
  126SOL     ow  501   2.299   6.437   0.491  0.4862  0.7498  0.1118
  126SOL     hw  502   2.311   6.372   0.561 -2.1233 -0.0045 -0.0246
  126SOL     hw  503   2.258   6.387   0.419  0.1095  2.1695 -0.6990
  126SOL     vw  504   2.295   6.422   0.490  0.0923  0.8376 -0.0132
  127SOL     ow  505   5.644   2.924   1.211 -0.1157 -0.3879  0.0256
  127SOL     hw  506   5.599   2.884   1.285  0.1017  0.1710  0.4654
  127SOL     hw  507   5.578   2.979   1.170 -0.0975 -0.3070  0.1044
  127SOL     vw  508   5.629   2.926   1.215 -0.0844 -0.3034  0.0940
  128SOL     ow  509   1.324   3.085   4.371  0.2991 -0.0152  0.0913
  128SOL     hw  510   1.254   3.055   4.313  1.7452  0.1549 -1.8195
  128SOL     hw  511   1.381   3.009   4.382  0.3830  0.1420  0.7962
  128SOL     vw  512   1.322   3.071   4.365  0.5009  0.0279 -0.0679
  129SOL     ow  513   3.744   4.873   5.144  0.0712 -0.1617 -0.1114
  129SOL     hw  514   3.731   4.857   5.237  1.0647 -0.5997 -0.0342
  129SOL     hw  515   3.822   4.823   5.121 -1.7324 -2.4148 -1.8280
  129SOL     vw  516   3.753   4.865   5.153 -0.0358 -0.5167 -0.3278
  130SOL     ow  517   5.980   5.617   1.374  0.1427  0.0967 -0.2575
  130SOL     hw  518   5.919   5.581   1.310  1.2387 -2.4862  0.0511
  130SOL     hw  519   6.067   5.602   1.337  0.7203  1.1536  0.5799
  130SOL     vw  520   5.983   5.610   1.361  0.3636 -0.1047 -0.1064
  131SOL     ow  521   4.426   0.211   6.868  0.0578  0.0201 -0.2997
  131SOL     hw  522   4.511   0.252   6.852 -0.9918  2.2379 -0.6749
  131SOL     hw  523   4.408   0.228   6.961  0.5386 -1.5842  0.1241
  131SOL     vw  524   4.435   0.219   6.878 -0.0174  0.1011 -0.2930
  132SOL     ow  525   5.842   1.860   6.616 -0.5746  0.4158  0.0889
  132SOL     hw  526   5.932   1.838   6.639  0.1038  3.2434  0.4281
  132SOL     hw  527   5.819   1.795   6.548  1.4475 -0.7586  0.4336
  132SOL     vw  528   5.851   1.848   6.610 -0.2184  0.6340  0.1791
  133SOL     ow  529   1.421   4.604   1.110 -0.3567 -0.4115 -0.1404
  133SOL     hw  530   1.364   4.646   1.175  0.0767 -1.4620  0.9531
  133SOL     hw  531   1.364   4.541   1.065 -0.5566  0.0264 -0.5096
  133SOL     vw  532   1.406   4.601   1.112 -0.3260 -0.4926 -0.0449
  134SOL     ow  533   2.340   6.205   6.857  0.1504  0.2040 -0.2224
  134SOL     hw  534   2.357   6.112   6.841  0.4263  0.1058  0.6199
  134SOL     hw  535   2.349   6.216   6.951 -2.9340  0.4555  0.1498
  134SOL     vw  536   2.344   6.194   6.867 -0.2202  0.2244 -0.0622
  135SOL     ow  537   4.052   1.193   5.797  0.3131 -0.4891  0.3066
  135SOL     hw  538   4.104   1.176   5.718 -0.2758 -0.0632 -0.1895
  135SOL     hw  539   3.965   1.216   5.763 -0.3288 -1.6185  1.1127
  135SOL     vw  540   4.047   1.194   5.782  0.1509 -0.5819  0.3474
  136SOL     ow  541   6.605   3.343   5.710 -0.5219  0.0532 -0.0794
  136SOL     hw  542   6.518   3.304   5.716 -0.1307 -0.9413 -0.6454
  136SOL     hw  543   6.641   3.337   5.798 -1.8132  2.4290  0.6868
  136SOL     vw  544   6.598   3.337   5.722 -0.6404  0.2356 -0.0532
  137SOL     ow  545   6.309   4.532   5.554 -0.6539  0.4384  0.5106
  137SOL     hw  546   6.215   4.519   5.536 -0.7609 -1.2795  2.0154
  137SOL     hw  547   6.341   4.445   5.576  1.2597  1.0537  0.3280
  137SOL     vw  548   6.301   4.519   5.554 -0.4156  0.2928  0.6850
  138SOL     ow  549   5.804   3.790   1.000 -0.8570  0.5370 -0.6998
  138SOL     hw  550   5.781   3.874   1.042  0.5371  1.4548 -1.6971
  138SOL     hw  551   5.760   3.794   0.915  0.0326  0.7330 -1.1636
  138SOL     vw  552   5.795   3.802   0.994 -0.5555  0.6839 -0.8926
  139SOL     ow  553   5.061   3.550   2.043 -0.1858  0.2382  0.0779
  139SOL     hw  554   4.977   3.559   2.087 -0.4720 -0.2741 -0.3409
  139SOL     hw  555   5.125   3.537   2.113 -0.7724 -1.6033  0.3374
  139SOL     vw  556   5.059   3.549   2.058 -0.3011 -0.0722  0.0569
  140SOL     ow  557   4.271   2.470   5.735  0.0734  0.4802 -0.9028
  140SOL     hw  558   4.291   2.500   5.646  0.5355  1.1624 -0.5804
  140SOL     hw  559   4.179   2.494   5.749  0.0558  0.5451 -1.1327
  140SOL     vw  560   4.262   2.477   5.725  0.1318  0.5788 -0.8910
  141SOL     ow  561   6.735   1.316   0.574 -0.4136  0.4942 -0.0248
  141SOL     hw  562   6.787   1.235   0.577 -2.7354 -1.0832  0.1891
  141SOL     hw  563   6.740   1.352   0.662 -2.2768 -1.4652  0.9763
  141SOL     vw  564   6.743   1.310   0.586 -0.9658  0.0275  0.1355
  142SOL     ow  565   2.011   1.593   4.601 -0.1894 -0.2445  0.0084
  142SOL     hw  566   1.992   1.599   4.695 -0.2278  2.1817 -0.0858
  142SOL     hw  567   2.105   1.579   4.596  0.1171  1.4125  0.4565
  142SOL     vw  568   2.021   1.592   4.613 -0.1541  0.2942  0.0553
  143SOL     ow  569   1.882   4.833   6.558  0.4038  0.3378 -0.0612
  143SOL     hw  570   1.855   4.787   6.637 -0.2859  1.4059  0.3497
  143SOL     hw  571   1.949   4.894   6.588  2.0103 -0.9910 -0.7629
  143SOL     vw  572   1.887   4.835   6.572  0.5248  0.3033 -0.0999
  144SOL     ow  573   5.656   2.093   3.690  0.5637 -0.1028 -0.2679
  144SOL     hw  574   5.606   2.133   3.761 -0.5972 -0.6093 -0.7713
  144SOL     hw  575   5.710   2.164   3.656 -0.5113  0.7202 -0.3169
  144SOL     vw  576   5.657   2.108   3.695  0.2687 -0.0612 -0.3407
  145SOL     ow  577   4.369   4.583   5.833 -0.5028 -0.3770 -0.5107
  145SOL     hw  578   4.381   4.574   5.738 -0.6115  0.8810 -0.6613
  145SOL     hw  579   4.276   4.564   5.847 -0.5125 -0.4498 -0.6623
  145SOL     vw  580   4.358   4.579   5.822 -0.5183 -0.2208 -0.5503
  146SOL     ow  581   0.896   5.077   3.278  0.2599 -0.1520 -0.2724
  146SOL     hw  582   0.813   5.064   3.324  0.3082  2.0271  0.5673
  146SOL     hw  583   0.871   5.123   3.197  0.5692 -0.0656 -0.3186
  146SOL     vw  584   0.881   5.082   3.273  0.3071  0.1469 -0.1677
  147SOL     ow  585   5.033   0.173   6.386 -0.6271  0.1863 -0.3013
  147SOL     hw  586   5.023   0.147   6.478 -0.7824 -1.0108 -0.6431
  147SOL     hw  587   5.107   0.234   6.387 -0.2407 -0.2795  0.5338
  147SOL     vw  588   5.041   0.178   6.398 -0.5965 -0.0331 -0.2363
  148SOL     ow  589   4.123   1.836   5.575 -0.0216  0.1044 -0.2171
  148SOL     hw  590   4.154   1.892   5.646 -0.0173  0.4598 -0.4971
  148SOL     hw  591   4.181   1.759   5.578 -0.3794 -0.1424  0.5127
  148SOL     vw  592   4.135   1.833   5.585 -0.0682  0.1188 -0.1576
  149SOL     ow  593   0.496   6.450   2.270  0.2633 -0.3653 -0.6629
  149SOL     hw  594   0.529   6.491   2.191  0.1603 -0.7587 -0.9148
  149SOL     hw  595   0.572   6.443   2.327  0.5442 -0.9249 -1.0937
  149SOL     vw  596   0.510   6.454   2.267  0.2868 -0.4909 -0.7529
  150SOL     ow  597   1.324   6.878   2.667  0.3083 -0.3548 -0.1656
  150SOL     hw  598   1.304   6.955   2.615 -3.0194 -0.8805  0.1001
  150SOL     hw  599   1.401   6.902   2.718 -0.5191  2.7120 -0.2102
  150SOL     vw  600   1.332   6.891   2.667 -0.2400 -0.0196 -0.1365
  151SOL     ow  601   6.773   5.825   4.831  0.0624  0.3904  0.2078
  151SOL     hw  602   6.795   5.901   4.777  0.9610  0.4453  0.6288
  151SOL     hw  603   6.707   5.777   4.780  1.9864 -0.3925 -1.6639
  151SOL     vw  604   6.767   5.829   4.817  0.4346  0.2942  0.0167
  152SOL     ow  605   0.088   2.336   3.330 -0.3606 -0.2281 -0.1335
  152SOL     hw  606   0.064   2.427   3.347  2.1557  0.3813  0.6421
  152SOL     hw  607   0.092   2.296   3.417  2.4209  0.0776 -0.0267
  152SOL     vw  608   0.086   2.343   3.344  0.3384 -0.1074 -0.0172
  153SOL     ow  609   2.819   5.539   2.334 -0.0308  0.6522 -0.0377
  153SOL     hw  610   2.748   5.577   2.385  2.1001  1.5336  2.5355
  153SOL     hw  611   2.878   5.612   2.317  1.1220 -0.3629 -0.5689
  153SOL     vw  612   2.818   5.553   2.338  0.4023  0.6344  0.2316
  154SOL     ow  613   0.193   6.385   2.149 -0.4816  0.3086 -0.2897
  154SOL     hw  614   0.178   6.441   2.073 -0.0352  1.6697  0.5974
  154SOL     hw  615   0.117   6.327   2.151 -0.9789  0.9004 -1.2120
  154SOL     vw  616   0.181   6.385   2.139 -0.4883  0.5662 -0.2943
  155SOL     ow  617   4.519   3.245   6.699 -0.1601 -0.8777 -0.6181
  155SOL     hw  618   4.561   3.159   6.690  0.1532 -0.6995 -0.8706
  155SOL     hw  619   4.511   3.258   6.793  1.3136 -0.4489 -0.5402
  155SOL     vw  620   4.523   3.235   6.710  0.0756 -0.7977 -0.6411
  156SOL     ow  621   3.999   6.116   6.649 -0.2450  0.1595 -0.8853
  156SOL     hw  622   4.012   6.141   6.740 -1.0874 -2.0167 -0.1082
  156SOL     hw  623   3.944   6.038   6.653  0.8657 -0.8352 -3.1924
  156SOL     vw  624   3.994   6.109   6.661 -0.2096 -0.2589 -1.0872
  157SOL     ow  625   5.965   4.505   3.848 -0.1295 -0.0334 -0.2603
  157SOL     hw  626   5.920   4.521   3.931 -0.2127 -1.1186 -0.0913
  157SOL     hw  627   5.906   4.542   3.782  0.3235  1.6049  0.1897
  157SOL     vw  628   5.951   4.512   3.850 -0.0808  0.0396 -0.1786
  158SOL     ow  629   2.233   6.840   4.607  0.3071 -0.2421 -1.1676
  158SOL     hw  630   2.259   6.748   4.612  1.2338  0.1015  2.1723
  158SOL     hw  631   2.138   6.837   4.592 -0.1236 -1.8636  1.3508
  158SOL     vw  632   2.224   6.828   4.605  0.3725 -0.4106 -0.3946
  159SOL     ow  633   2.757   6.531   3.969 -0.1621  0.0048 -0.2253
  159SOL     hw  634   2.749   6.451   3.916  0.5394 -1.0614  1.2261
  159SOL     hw  635   2.850   6.552   3.966  0.0592 -0.6409  1.3523
  159SOL     vw  636   2.768   6.523   3.961 -0.0403 -0.2210  0.1743
  160SOL     ow  637   0.222   3.758   6.419 -0.1035  0.6571  0.2431
  160SOL     hw  638   0.218   3.810   6.339  2.1635 -0.0538 -0.4157
  160SOL     hw  639   0.201   3.669   6.391 -0.1260  0.5449  0.6053
  160SOL     vw  640   0.219   3.753   6.405  0.1926  0.5486  0.2038
  161SOL     ow  641   1.637   0.225   6.201  0.1886 -0.0759  0.7470
  161SOL     hw  642   1.618   0.134   6.222 -0.1290 -0.1727  0.0740
  161SOL     hw  643   1.598   0.238   6.114  0.8823  0.4866  0.5098
  161SOL     vw  644   1.630   0.215   6.192  0.2382 -0.0144  0.6270
  162SOL     ow  645   5.995   0.225   4.634  0.6712 -0.4744  0.2090
  162SOL     hw  646   5.902   0.203   4.636  0.0693  1.7138 -0.1163
  162SOL     hw  647   6.027   0.204   4.722 -1.3872  3.1185  2.0930
  162SOL     vw  648   5.987   0.220   4.646  0.3202  0.2884  0.4146
  163SOL     ow  649   1.273   2.105   0.304  0.1424  0.2057  0.0721
  163SOL     hw  650   1.319   2.039   0.252  1.0285 -0.0717  1.1682
  163SOL     hw  651   1.304   2.091   0.393 -2.5576 -0.4268  1.0179
  163SOL     vw  652   1.283   2.094   0.309 -0.0970  0.0856  0.3415
  164SOL     ow  653   6.138   0.248   0.994 -0.2632  0.1670 -0.4507
  164SOL     hw  654   6.120   0.296   1.076  1.2479  0.2558 -0.1422
  164SOL     hw  655   6.147   0.317   0.928  1.3075  0.3146 -0.1231
  164SOL     vw  656   6.137   0.264   0.996  0.1435  0.1982 -0.3668
  165SOL     ow  657   2.242   2.218   2.527  0.0916 -0.1214 -0.0279
  165SOL     hw  658   2.251   2.125   2.549  0.1094 -0.0325  0.3459
  165SOL     hw  659   2.233   2.262   2.612 -1.9495  0.0118 -0.2529
  165SOL     vw  660   2.242   2.212   2.541 -0.1755 -0.0919 -0.0082
  166SOL     ow  661   5.372   0.478   1.534  0.2284 -0.6574 -0.4360
  166SOL     hw  662   5.333   0.392   1.516  0.6790 -0.9518 -0.0514
  166SOL     hw  663   5.450   0.458   1.586  1.5864 -0.1791 -2.1843
  166SOL     vw  664   5.377   0.464   1.539  0.4671 -0.6331 -0.6159
  167SOL     ow  665   4.961   5.978   1.420  0.0418 -0.1506 -0.6457
  167SOL     hw  666   5.040   6.030   1.430 -0.6044  0.7856 -0.2459
  167SOL     hw  667   4.923   5.974   1.508 -0.6470 -0.0888 -0.9294
  167SOL     vw  668   4.966   5.984   1.432 -0.1345 -0.0188 -0.6304
  168SOL     ow  669   1.766   1.582   5.637  0.5182  0.1709  0.6882
  168SOL     hw  670   1.847   1.534   5.654 -0.0383 -0.0325  3.2469
  168SOL     hw  671   1.697   1.517   5.652 -0.1804  1.1965  2.1879
  168SOL     vw  672   1.768   1.567   5.641  0.3526  0.2793  1.2238
  169SOL     ow  673   2.837   6.307   4.419  0.0508 -0.0757 -0.2951
  169SOL     hw  674   2.921   6.329   4.380  0.1823  0.2191  0.1432
  169SOL     hw  675   2.786   6.268   4.348  0.2694  0.4802 -0.7622
  169SOL     vw  676   2.841   6.304   4.405  0.0972  0.0365 -0.2992
  170SOL     ow  677   0.198   4.342   4.942 -0.1029 -0.1486  0.3355
  170SOL     hw  678   0.128   4.314   5.000 -0.0607  1.1663  1.0463
  170SOL     hw  679   0.278   4.336   4.995 -0.0792  1.1697  0.4765
  170SOL     vw  680   0.200   4.338   4.956 -0.0942  0.1986  0.4480
  171SOL     ow  681   2.871   0.932   5.203  0.4393 -0.0437  1.4154
  171SOL     hw  682   2.850   0.995   5.271  2.7575  2.4588  0.0215
  171SOL     hw  683   2.890   0.851   5.251 -1.6961  0.5052  3.3536
  171SOL     vw  684   2.871   0.930   5.218  0.4635  0.3588  1.4868
  172SOL     ow  685   5.018   5.718   1.242  0.2176 -0.0672 -0.1012
  172SOL     hw  686   5.071   5.711   1.162  0.2465 -0.4779 -0.0513
  172SOL     hw  687   4.929   5.701   1.213  0.2356 -0.2725 -0.0413
  172SOL     vw  688   5.013   5.715   1.228  0.2239 -0.1483 -0.0867
  173SOL     ow  689   2.551   1.666   0.735 -0.3627 -0.5732  0.3228
  173SOL     hw  690   2.546   1.666   0.639 -0.9334 -1.4574  0.3408
  173SOL     hw  691   2.544   1.758   0.759 -1.4763 -0.4391 -0.4366
  173SOL     vw  692   2.549   1.678   0.725 -0.5850 -0.6722  0.2250
  174SOL     ow  693   3.123   2.973   5.558 -0.0591 -0.1383  0.1191
  174SOL     hw  694   3.183   2.958   5.485 -0.6712  1.7197 -0.8534
  174SOL     hw  695   3.043   2.926   5.534  0.4679 -1.3611  0.6885
  174SOL     vw  696   3.120   2.965   5.545 -0.0703 -0.0546  0.0658
  175SOL     ow  697   4.841   3.412   5.012  0.3486 -0.8450  0.5900
  175SOL     hw  698   4.832   3.381   4.922 -0.3827  0.0021  0.3609
  175SOL     hw  699   4.810   3.339   5.065  0.6110 -1.2816  0.1626
  175SOL     vw  700   4.836   3.398   5.007  0.2866 -0.7910  0.5035
  176SOL     ow  701   2.673   5.497   2.089  0.0539 -0.8778 -0.3422
  176SOL     hw  702   2.724   5.559   2.037  0.6227 -0.7846  0.3159
  176SOL     hw  703   2.601   5.548   2.125 -0.5122 -1.0050 -1.2564
  176SOL     vw  704   2.670   5.512   2.087  0.0544 -0.8821 -0.3760
  177SOL     ow  705   5.532   1.093   5.429 -0.0614  0.0754  0.7095
  177SOL     hw  706   5.458   1.146   5.400 -1.3967 -2.3131 -0.4935
  177SOL     hw  707   5.596   1.099   5.358 -0.4723 -0.3985  0.2956
  177SOL     vw  708   5.531   1.101   5.416 -0.2916 -0.3023  0.4961
  178SOL     ow  709   5.089   0.148   2.740 -0.1683 -0.0504  0.1780
  178SOL     hw  710   5.037   0.149   2.820  2.7768  1.9928  2.3161
  178SOL     hw  711   5.159   0.086   2.757  1.9168  2.1860  0.3467
  178SOL     vw  712   5.092   0.140   2.752  0.4957  0.5142  0.4824
  179SOL     ow  713   2.385   4.039   4.575 -0.3659 -0.3937  0.7278
  179SOL     hw  714   2.399   4.012   4.666 -0.5526 -1.2649  0.5038
  179SOL     hw  715   2.468   4.020   4.531  0.4441  1.9346  1.1378
  179SOL     vw  716   2.398   4.033   4.581 -0.2836 -0.2012  0.7522
  180SOL     ow  717   1.559   4.381   0.719 -0.7703 -0.2821 -0.3638
  180SOL     hw  718   1.506   4.458   0.696  0.0272  0.1702 -0.7189
  180SOL     hw  719   1.637   4.388   0.665  0.5638  0.1026  1.5053
  180SOL     vw  720   1.562   4.392   0.709 -0.4891 -0.1717 -0.1641
  181SOL     ow  721   2.553   0.473   6.769 -0.4230 -0.2114  0.3572
  181SOL     hw  722   2.557   0.568   6.779 -0.3279 -0.1816  0.0233
  181SOL     hw  723   2.470   0.457   6.724  0.4477 -0.1423 -1.3459
  181SOL     vw  724   2.542   0.483   6.765 -0.2956 -0.1983  0.0885
  182SOL     ow  725   2.649   4.697   5.244  0.5645 -0.2605 -0.0280
  182SOL     hw  726   2.591   4.630   5.209  2.1035 -0.9473 -1.3771
  182SOL     hw  727   2.733   4.653   5.257  1.7770  1.4860 -1.4687
  182SOL     vw  728   2.652   4.682   5.241  0.9274 -0.1206 -0.3960
  183SOL     ow  729   0.514   2.395   6.793  0.1078  0.0371  0.3938
  183SOL     hw  730   0.565   2.320   6.823  0.8249  0.9859  1.6814
  183SOL     hw  731   0.563   2.428   6.717  2.7953  2.1803  2.8079
  183SOL     vw  732   0.527   2.390   6.787  0.5569  0.4450  0.8821
  184SOL     ow  733   3.786   0.615   4.076 -0.3420  0.5463 -0.1116
  184SOL     hw  734   3.828   0.534   4.045 -4.0206 -1.7496  0.2076
  184SOL     hw  735   3.765   0.662   3.995  0.8851  0.6991 -0.3637
  184SOL     vw  736   3.789   0.610   4.061 -0.6653  0.2635 -0.1030
  185SOL     ow  737   2.708   0.708   4.990 -0.2844  0.2379  0.1018
  185SOL     hw  738   2.664   0.696   4.906 -2.3145 -0.6071  1.2122
  185SOL     hw  739   2.638   0.700   5.055  1.3529  0.0184  1.9259
  185SOL     vw  740   2.693   0.705   4.987 -0.3363  0.0975  0.4892
  186SOL     ow  741   2.454   1.353   2.764 -0.4293  0.7654  0.1360
  186SOL     hw  742   2.443   1.276   2.708 -0.8170  0.7097  0.2841
  186SOL     hw  743   2.494   1.419   2.707  0.7009  0.1867  0.2324
  186SOL     vw  744   2.457   1.352   2.749 -0.3313  0.6817  0.1682
  187SOL     ow  745   4.021   2.350   4.401 -0.4410  0.5482  0.5684
  187SOL     hw  746   3.930   2.354   4.374 -0.6046  0.6731  1.1201
  187SOL     hw  747   4.028   2.268   4.450 -0.0821  0.1854 -0.0705
  187SOL     vw  748   4.010   2.340   4.404 -0.4153  0.5168  0.5569
  188SOL     ow  749   2.364   6.643   0.700  0.0989  0.4209 -0.0917
  188SOL     hw  750   2.375   6.722   0.753  0.1926  0.0227  0.4929
  188SOL     hw  751   2.291   6.597   0.740  0.3846 -0.0496 -0.1056
  188SOL     vw  752   2.356   6.648   0.712  0.1490  0.3061 -0.0164
  189SOL     ow  753   3.902   0.773   0.944  0.3682 -0.5646  0.4103
  189SOL     hw  754   3.939   0.704   1.000  1.1621 -1.6323 -1.3452
  189SOL     hw  755   3.849   0.727   0.880 -0.3903  0.6182  0.1449
  189SOL     vw  756   3.900   0.758   0.943  0.3729 -0.5494  0.1436
  190SOL     ow  757   0.766   1.147   2.207  0.5914 -0.2270 -0.1607
  190SOL     hw  758   0.675   1.167   2.230  0.6237  0.4587 -0.6102
  190SOL     hw  759   0.780   1.059   2.241 -0.1576 -0.2340  0.1550
  190SOL     vw  760   0.756   1.138   2.215  0.4969 -0.1374 -0.1783
  191SOL     ow  761   2.679   2.376   0.070 -0.0814 -0.3765  0.7739
  191SOL     hw  762   2.705   2.356  -0.020  0.7081 -1.2168  1.1689
  191SOL     hw  763   2.758   2.360   0.122  0.0930  2.0077  1.4066
  191SOL     vw  764   2.693   2.372   0.065  0.0457 -0.1729  0.9095
  192SOL     ow  765   1.540   6.834   0.070 -0.1585  0.1224 -0.3041
  192SOL     hw  766   1.452   6.814   0.037 -0.2122  2.0395 -1.4429
  192SOL     hw  767   1.585   6.749   0.072 -2.0998 -0.9696  0.6418
  192SOL     vw  768   1.534   6.820   0.066 -0.4217  0.2313 -0.3296
  193SOL     ow  769   3.730   1.812   4.068 -0.1093  0.3749 -0.0715
  193SOL     hw  770   3.674   1.780   3.997 -3.3483  1.7475  1.6424
  193SOL     hw  771   3.726   1.907   4.061 -0.2637  0.5379  1.7127
  193SOL     vw  772   3.722   1.820   4.058 -0.5569  0.5775  0.3898
  194SOL     ow  773   5.948   2.113   3.432  0.2503 -0.2245 -0.1165
  194SOL     hw  774   6.015   2.134   3.497 -0.3088  0.0986  0.3726
  194SOL     hw  775   5.872   2.166   3.459  0.4460  1.0043 -1.8244
  194SOL     vw  776   5.947   2.123   3.445  0.2027 -0.0198 -0.2772
  195SOL     ow  777   3.061   5.280   5.909  1.0840  0.3593 -0.3494
  195SOL     hw  778   3.119   5.335   5.963  0.5285  0.6722 -0.0540
  195SOL     hw  779   3.120   5.227   5.857  1.6448  0.0831  0.5423
  195SOL     vw  780   3.077   5.281   5.909  1.0847  0.3641 -0.1926
  196SOL     ow  781   5.825   3.744   4.117 -0.4445 -0.0614  0.2525
  196SOL     hw  782   5.744   3.769   4.072 -1.3188 -1.4728  0.9750
  196SOL     hw  783   5.839   3.653   4.092  0.3787 -0.1270  0.9175
  196SOL     vw  784   5.816   3.736   4.108 -0.4511 -0.2562  0.4356
  197SOL     ow  785   0.236   0.122   2.428  0.0002  0.1027  0.0203
  197SOL     hw  786   0.220   0.034   2.460 -1.3816  0.1190 -0.5559
  197SOL     hw  787   0.193   0.180   2.491  0.0967  0.3093 -0.0994
  197SOL     vw  788   0.228   0.118   2.440 -0.1694  0.1321 -0.0715
  198SOL     ow  789   1.091   0.319   0.349 -0.2787 -0.2788  0.3645
  198SOL     hw  790   1.079   0.409   0.382 -0.3134 -1.0635  2.6550
  198SOL     hw  791   1.147   0.330   0.272 -0.3692  1.7171  0.5087
  198SOL     vw  792   1.097   0.333   0.344 -0.2952 -0.1190  0.6858
  199SOL     ow  793   4.974   3.476   1.328  0.3179 -0.1519 -0.3166
  199SOL     hw  794   5.044   3.422   1.365 -0.0311 -1.4793 -1.4875
  199SOL     hw  795   5.019   3.542   1.276  0.7218 -0.4512 -0.3536
  199SOL     vw  796   4.989   3.477   1.326  0.3252 -0.3667 -0.4759
  200SOL     ow  797   3.480   1.304   3.557  0.0622  0.0933 -0.4428
  200SOL     hw  798   3.412   1.295   3.491  0.0083  0.2046 -0.4037
  200SOL     hw  799   3.443   1.262   3.635 -0.0231  0.2804 -0.3794
  200SOL     vw  800   3.466   1.297   3.559  0.0437  0.1327 -0.4293
  201SOL     ow  801   4.693   0.853   6.160  0.2942 -0.0454  0.7637
  201SOL     hw  802   4.713   0.765   6.129  1.1748  0.3114  0.2828
  201SOL     hw  803   4.744   0.911   6.103 -1.7451  0.9037 -0.2274
  201SOL     vw  804   4.702   0.849   6.148  0.1414  0.1269  0.5693
  202SOL     ow  805   5.713   4.360   3.968 -0.0979 -0.2653  0.0170
  202SOL     hw  806   5.620   4.351   3.946 -0.3686 -0.8205  1.2999
  202SOL     hw  807   5.713   4.387   4.060  1.0019  0.5338 -0.2084
  202SOL     vw  808   5.701   4.362   3.977  0.0114 -0.2329  0.1565
  203SOL     ow  809   5.040   4.935   1.777 -0.0819  0.7374 -0.2977
  203SOL     hw  810   4.983   5.011   1.788  0.9251  1.4148  0.4042
  203SOL     hw  811   5.129   4.971   1.773  0.3847 -0.3666 -0.4426
  203SOL     vw  812   5.044   4.950   1.778  0.1125  0.6812 -0.2243
  204SOL     ow  813   6.451   4.546   5.323 -0.1039  0.2759  0.1108
  204SOL     hw  814   6.390   4.544   5.396 -0.9103 -0.9168 -0.5546
  204SOL     hw  815   6.537   4.557   5.364 -0.5016 -0.6810  1.2594
  204SOL     vw  816   6.454   4.547   5.338 -0.2630 -0.0076  0.1748
  205SOL     ow  817   6.055   5.097   5.992  0.0262 -0.4037  0.4825
  205SOL     hw  818   6.087   5.024   6.046  0.6479 -1.1059 -0.7794
  205SOL     hw  819   5.977   5.128   6.037  0.6280 -0.8426  1.8704
  205SOL     vw  820   6.049   5.091   6.005  0.1876 -0.5541  0.4992
  206SOL     ow  821   3.253   3.252   5.519 -0.0585  0.0173  0.2073
  206SOL     hw  822   3.272   3.335   5.563  0.0263  0.1562 -0.0875
  206SOL     hw  823   3.327   3.196   5.541  0.1168  0.1748  0.0197
  206SOL     vw  824   3.265   3.256   5.528 -0.0242  0.0565  0.1438
  207SOL     ow  825   5.780   1.755   2.448 -0.2574  0.4129  0.1511
  207SOL     hw  826   5.762   1.715   2.362  1.1589  0.5182 -0.2123
  207SOL     hw  827   5.693   1.781   2.480 -0.6463  2.6350 -2.3453
  207SOL     vw  828   5.766   1.753   2.441 -0.1221  0.7199 -0.2261
  208SOL     ow  829   6.759   1.544   1.981  0.7540 -0.1039 -0.1373
  208SOL     hw  830   6.679   1.571   2.026  1.9561  1.9840  0.8931
  208SOL     hw  831   6.728   1.493   1.906 -1.5505  0.8344  0.0902
  208SOL     vw  832   6.744   1.541   1.977  0.6089  0.2953  0.0286
  209SOL     ow  833   5.674   0.526   0.460 -0.4197  0.3435 -0.2231
  209SOL     hw  834   5.628   0.466   0.402  2.2209 -1.4845 -0.6494
  209SOL     hw  835   5.630   0.517   0.545 -0.7244 -1.4954 -0.5328
  209SOL     vw  836   5.662   0.517   0.464 -0.1116 -0.1402 -0.3202
  210SOL     ow  837   2.990   2.184   1.020  0.5504 -0.1178 -0.4766
  210SOL     hw  838   3.078   2.163   0.989 -0.2211 -2.6017 -1.1884
  210SOL     hw  839   2.934   2.174   0.943 -0.3726  1.5740 -0.0789
  210SOL     vw  840   2.994   2.180   1.006  0.3268 -0.2223 -0.5180
  211SOL     ow  841   6.204   5.358   6.133  0.5799  0.2733 -0.4540
  211SOL     hw  842   6.213   5.453   6.130  0.4756  0.2708 -0.8647
  211SOL     hw  843   6.139   5.342   6.201 -1.5577  0.6451 -2.3115
  211SOL     vw  844   6.197   5.368   6.142  0.2844  0.3216 -0.7534
  212SOL     ow  845   4.641   1.953   3.802  0.3442  0.7956  0.2051
  212SOL     hw  846   4.609   2.044   3.805  0.1518  0.7767 -0.9041
  212SOL     hw  847   4.718   1.953   3.859  0.9075  1.8980 -0.5128
  212SOL     vw  848   4.647   1.965   3.810  0.3932  0.9385 -0.0360
  213SOL     ow  849   4.505   4.062   5.224  0.1358  0.4235 -0.1799
  213SOL     hw  850   4.434   4.086   5.283 -0.9961  0.0913 -1.3715
  213SOL     hw  851   4.574   4.028   5.281 -0.3290  1.5038  1.0625
  213SOL     vw  852   4.505   4.061   5.239 -0.0749  0.5224 -0.1731
  214SOL     ow  853   3.957   5.731   0.555 -0.0580 -0.6338 -0.1710
  214SOL     hw  854   3.935   5.809   0.503 -0.2818 -0.7090 -0.1895
  214SOL     hw  855   3.872   5.698   0.585  0.0218 -0.9975 -0.3445
  214SOL     vw  856   3.943   5.737   0.552 -0.0769 -0.6914 -0.1964
  215SOL     ow  857   0.275   3.727   4.233 -0.4761  0.0907 -0.1531
  215SOL     hw  858   0.336   3.772   4.175  0.7330  0.5393  1.3939
  215SOL     hw  859   0.331   3.681   4.296 -1.6128 -3.3925 -1.4046
  215SOL     vw  860   0.291   3.727   4.234 -0.4665 -0.3096 -0.1142
  216SOL     ow  861   0.798   5.162   2.444 -0.6204 -0.0317 -0.1651
  216SOL     hw  862   0.792   5.158   2.540  0.3221  0.6776 -0.0569
  216SOL     hw  863   0.734   5.098   2.413  0.7512 -2.0978  0.9942
  216SOL     vw  864   0.789   5.153   2.453 -0.3150 -0.2105  0.0021
  217SOL     ow  865   0.175   3.532   0.744  0.0306 -0.3151  0.0169
  217SOL     hw  866   0.190   3.556   0.652 -0.0865  0.6812  0.2540
  217SOL     hw  867   0.193   3.612   0.793 -2.6020 -0.0123  0.6370
  217SOL     vw  868   0.179   3.545   0.738 -0.3321 -0.1436  0.1300
  218SOL     ow  869   2.762   6.444   5.580  0.1614  0.2248 -0.0824
  218SOL     hw  870   2.753   6.489   5.664  0.4287 -1.1135  0.6788
  218SOL     hw  871   2.725   6.505   5.516 -0.2614  1.1551  1.0295
  218SOL     vw  872   2.756   6.458   5.582  0.1409  0.1709  0.1647
  219SOL     ow  873   6.326   4.591   3.482  0.8204  0.5036  0.2179
  219SOL     hw  874   6.280   4.666   3.444 -1.0556 -0.4311  0.4780
  219SOL     hw  875   6.397   4.573   3.421  0.2161  1.4024 -0.7981
  219SOL     vw  876   6.329   4.599   3.469  0.4933  0.4990  0.1180
  220SOL     ow  877   0.332   2.412   0.792 -0.3622  0.3327  0.2355
  220SOL     hw  878   0.269   2.412   0.719 -0.2870 -1.6965  0.1224
  220SOL     hw  879   0.312   2.332   0.841  1.8355 -0.1396  0.4484
  220SOL     vw  880   0.321   2.402   0.789 -0.0623  0.0027  0.2487
  221SOL     ow  881   3.782   4.539   3.170 -0.3440 -0.5628  0.1415
  221SOL     hw  882   3.793   4.519   3.262  0.7911 -0.9376 -0.0660
  221SOL     hw  883   3.799   4.633   3.163  1.4085 -0.8698  0.0479
  221SOL     vw  884   3.785   4.549   3.181  0.0371 -0.6526  0.1017
  222SOL     ow  885   6.816   5.107   6.090 -0.4699  0.1778  0.6010
  222SOL     hw  886   6.775   5.079   6.172 -0.5674  2.5090  1.4015
  222SOL     hw  887   6.812   5.029   6.034 -6.0362  0.0992  0.5615
  222SOL     vw  888   6.810   5.093   6.093 -1.2171  0.4752  0.7014
  223SOL     ow  889   1.412   4.784   1.797  0.2311 -0.7259 -0.3368
  223SOL     hw  890   1.470   4.724   1.844 -0.0571  0.3072  1.4200
  223SOL     hw  891   1.411   4.863   1.850 -0.3265  0.4308 -1.9868
  223SOL     vw  892   1.419   4.787   1.810  0.1196 -0.4370 -0.3226
  224SOL     ow  893   5.830   3.707   4.430 -0.8554 -0.3954  0.2418
  224SOL     hw  894   5.839   3.613   4.446  0.1968 -0.2535  0.5337
  224SOL     hw  895   5.799   3.743   4.513 -1.2166 -0.4762  0.1425
  224SOL     vw  896   5.827   3.699   4.443 -0.7639 -0.3873  0.2670
  225SOL     ow  897   3.001   6.800   0.146 -0.1844  0.1776  0.3688
  225SOL     hw  898   2.974   6.752   0.068 -2.8911 -0.2643  1.4804
  225SOL     hw  899   3.086   6.763   0.169 -1.3153 -2.8298  0.1080
  225SOL     vw  900   3.009   6.789   0.139 -0.6908 -0.2775  0.4810
  226SOL     ow  901   3.440   0.363   0.782  0.2001 -0.3967  0.1185
  226SOL     hw  902   3.406   0.349   0.694  0.2837 -1.8628  0.2964
  226SOL     hw  903   3.518   0.308   0.786  0.9347  0.6689  0.6833
  226SOL     vw  904   3.446   0.354   0.771  0.3082 -0.4495  0.2165
  227SOL     ow  905   2.280   3.542   1.665  0.5979  0.4194  0.9256
  227SOL     hw  906   2.245   3.605   1.602  0.0592  0.3462  1.1526
  227SOL     hw  907   2.338   3.594   1.721  1.4240  0.4061  0.1036
  227SOL     vw  908   2.283   3.557   1.664  0.6357  0.4079  0.8470
  228SOL     ow  909   4.880   3.140   1.987 -1.1149 -0.9135  0.4643
  228SOL     hw  910   4.847   3.144   1.898 -1.5183 -1.5349  0.5755
  228SOL     hw  911   4.833   3.210   2.033 -0.6093 -0.3332  0.0997
  228SOL     vw  912   4.869   3.150   1.982 -1.1013 -0.9191  0.4309
  229SOL     ow  913   6.249   0.867   6.724 -0.7342 -0.6062 -0.2291
  229SOL     hw  914   6.196   0.787   6.718  0.4192 -1.5002  1.1075
  229SOL     hw  915   6.232   0.900   6.812  1.2786 -1.1955  0.4262
  229SOL     vw  916   6.240   0.861   6.735 -0.3164 -0.8019  0.0339
  230SOL     ow  917   2.652   0.523   3.769 -0.5147 -0.0416 -0.6291
  230SOL     hw  918   2.645   0.552   3.678 -0.9431  0.1966 -0.5218
  230SOL     hw  919   2.563   0.531   3.804  0.0055  1.8134  0.3967
  230SOL     vw  920   2.639   0.528   3.761 -0.5025  0.2346 -0.4797
  231SOL     ow  921   3.315   2.046   6.172 -0.3293 -0.0548  0.5138
  231SOL     hw  922   3.290   2.131   6.208  1.0798  0.7488 -0.2803
  231SOL     hw  923   3.410   2.042   6.187  0.1583 -0.0841 -2.2003
  231SOL     vw  924   3.324   2.057   6.179 -0.0789  0.0473  0.0508
  232SOL     ow  925   6.091   3.836   4.287  0.7316  0.1220 -0.2063
  232SOL     hw  926   6.174   3.789   4.295  2.7489  2.9953 -2.2141
  232SOL     hw  927   6.093   3.899   4.359  0.0707 -0.0764 -0.0126
  232SOL     vw  928   6.102   3.838   4.297  0.9105  0.4749 -0.4456
  233SOL     ow  929   5.038   2.915   2.036  0.1677 -0.4321  0.0535
  233SOL     hw  930   5.014   3.001   2.004  0.7102  0.2268  1.3262
  233SOL     hw  931   4.978   2.899   2.110  0.5083 -0.8385  0.2507
  233SOL     vw  932   5.027   2.924   2.042  0.2842 -0.3988  0.2475
  234SOL     ow  933   1.020   0.439   5.706  0.5093  0.0294  0.0744
  234SOL     hw  934   1.011   0.346   5.684 -0.8069  0.2097 -0.2035
  234SOL     hw  935   1.030   0.441   5.801  3.2161 -0.5538 -0.1281
  234SOL     vw  936   1.020   0.427   5.715  0.6928 -0.0237  0.0112
  235SOL     ow  937   1.735   5.455   5.123 -0.1980 -0.1000 -0.6738
  235SOL     hw  938   1.694   5.411   5.197  2.2560 -0.0215  0.8524
  235SOL     hw  939   1.750   5.385   5.059  0.6003 -0.8385  0.2947
  235SOL     vw  940   1.732   5.440   5.124  0.2311 -0.1872 -0.3448
  236SOL     ow  941   1.361   2.761   6.409  0.0183 -0.1747 -0.4516
  236SOL     hw  942   1.429   2.737   6.346  0.4670 -1.5072  0.5129
  236SOL     hw  943   1.407   2.771   6.492 -0.8018  0.0297 -0.0106
  236SOL     vw  944   1.376   2.759   6.411 -0.0306 -0.3235 -0.2666
  237SOL     ow  945   6.338   5.375   1.990  0.2381  0.1997 -0.0582
  237SOL     hw  946   6.330   5.327   1.908  1.9678 -0.2692  0.0152
  237SOL     hw  947   6.290   5.457   1.975 -2.6187 -1.3890 -0.2465
  237SOL     vw  948   6.331   5.380   1.977  0.0894 -0.0718 -0.0734
  238SOL     ow  949   6.599   1.169   0.325  0.1473  0.3204  0.3054
  238SOL     hw  950   6.657   1.105   0.285  1.3826  1.2038  0.6289
  238SOL     hw  951   6.523   1.118   0.354 -0.9087 -0.3610 -3.1635
  238SOL     vw  952   6.596   1.154   0.324  0.1709  0.3470 -0.1096
  239SOL     ow  953   4.175   5.691   0.351  0.5447  0.2282  0.1717
  239SOL     hw  954   4.223   5.773   0.343  0.3435  0.5002  1.5332
  239SOL     hw  955   4.119   5.688   0.273 -0.2232  1.9008  0.6071
  239SOL     vw  956   4.174   5.701   0.339  0.4168  0.4847  0.4088
  240SOL     ow  957   2.935   5.354   2.071 -1.2748 -0.5947 -0.1173
  240SOL     hw  958   3.007   5.293   2.090 -0.4788  0.0713 -0.8807
  240SOL     hw  959   2.940   5.368   1.976 -1.5227  0.5288  0.0175
  240SOL     vw  960   2.945   5.348   2.061 -1.2025 -0.3583 -0.2002
  241SOL     ow  961   0.033   2.192   3.048  0.0875 -0.0293 -0.0858
  241SOL     hw  962   0.003   2.272   3.004 -1.9460 -0.2722  0.7367
  241SOL     hw  963   0.046   2.130   2.976  0.9273  0.7921 -0.6680
  241SOL     vw  964   0.031   2.194   3.033 -0.0700  0.0468 -0.0541
  242SOL     ow  965   3.108   4.340   2.852  0.2700 -0.4807 -0.4797
  242SOL     hw  966   3.144   4.341   2.941 -0.2896 -0.7644 -0.2402
  242SOL     hw  967   3.169   4.287   2.802 -0.0753 -1.4166  0.0486
  242SOL     vw  968   3.120   4.333   2.857  0.1507 -0.6416 -0.3785
  243SOL     ow  969   1.554   4.908   4.045 -0.1609  0.4692  0.1035
  243SOL     hw  970   1.526   4.984   3.994  1.2833  1.1927  0.3549
  243SOL     hw  971   1.538   4.933   4.136  1.2778  0.9280  0.2599
  243SOL     vw  972   1.548   4.922   4.050  0.2195  0.6254  0.1576
  244SOL     ow  973   4.349   6.255   5.946  0.4389  0.5503  0.0810
  244SOL     hw  974   4.369   6.162   5.950 -0.5391  0.3477  1.0666
  244SOL     hw  975   4.404   6.295   6.014  1.9591  0.9507 -1.3262
  244SOL     vw  976   4.359   6.248   5.956  0.5102  0.5765  0.0253
  245SOL     ow  977   2.223   4.578   4.400 -0.5554  0.1599 -0.1964
  245SOL     hw  978   2.129   4.572   4.414 -0.3902 -0.3234  0.7781
  245SOL     hw  979   2.238   4.531   4.318 -1.0481 -0.6167  0.1445
  245SOL     vw  980   2.213   4.571   4.391 -0.5987 -0.0064 -0.0226
  246SOL     ow  981   6.536   0.145   5.080  0.0480 -0.6834  0.1722
  246SOL     hw  982   6.450   0.116   5.052 -0.5735  0.4019  0.8691
  246SOL     hw  983   6.572   0.192   5.005  1.1389 -3.2325 -1.0346
  246SOL     vw  984   6.529   0.147   5.067  0.1099 -0.8766  0.1049
  247SOL     ow  985   6.338   1.835   3.934  0.0373 -0.1800  0.0839
  247SOL     hw  986   6.291   1.777   3.874  4.0246 -0.9083 -2.7424
  247SOL     hw  987   6.299   1.921   3.920 -0.3696 -0.6746 -2.3018
  247SOL     vw  988   6.327   1.839   3.924  0.5095 -0.3414 -0.6038
  248SOL     ow  989   3.496   2.917   4.530  0.0683  0.2538  0.2432
  248SOL     hw  990   3.574   2.969   4.510  0.8005 -0.4696  1.0653
  248SOL     hw  991   3.504   2.897   4.623 -1.0399  0.0445  0.3114
  248SOL     vw  992   3.507   2.921   4.540  0.0188  0.1308  0.3607
  249SOL     ow  993   1.617   5.674   3.052  0.1991 -0.5379  0.1666
  249SOL     hw  994   1.681   5.680   3.123  1.0883  0.1136 -0.6592
  249SOL     hw  995   1.542   5.726   3.083  0.4484 -0.5159  0.7498
  249SOL     vw  996   1.616   5.682   3.065  0.3494 -0.4487  0.1346
  250SOL     ow  997   6.091   1.111   1.878 -0.7175  0.1375 -0.1177
  250SOL     hw  998   6.120   1.090   1.789 -1.5441 -0.0866 -0.3404
  250SOL     hw  999   6.162   1.164   1.914  0.4535 -1.2719 -0.2830
  250SOL     vw 1000   6.104   1.115   1.871 -0.6721 -0.0780 -0.1689
  251SOL     ow 1001   2.932   5.092   4.544 -0.2093 -0.0171  0.3376
  251SOL     hw 1002   2.987   5.073   4.620 -2.1735 -0.8057  1.6490
  251SOL     hw 1003   2.914   5.186   4.551 -1.8812 -0.3996  1.9935
  251SOL     vw 1004   2.937   5.102   4.555 -0.6890 -0.1719  0.7293
  252SOL     ow 1005   1.085   4.667   5.097  0.8289  0.2023 -0.4675
  252SOL     hw 1006   1.128   4.583   5.080  1.6000  0.5163 -0.1346
  252SOL     hw 1007   1.068   4.703   5.010  0.3064 -0.3764 -0.6184
  252SOL     vw 1008   1.088   4.661   5.083  0.8617  0.1674 -0.4435
  253SOL     ow 1009   0.430   4.443   0.887  0.2501  0.1944 -0.1437
  253SOL     hw 1010   0.421   4.364   0.939 -2.7015  0.2569 -0.3798
  253SOL     hw 1011   0.427   4.514   0.950  0.7734  0.1817 -0.1006
  253SOL     vw 1012   0.428   4.442   0.902 -0.0703  0.2010 -0.1692
  254SOL     ow 1013   6.153   4.429   1.922 -0.2998  0.3444  0.4570
  254SOL     hw 1014   6.080   4.491   1.918 -1.2937 -0.7366  1.3074
  254SOL     hw 1015   6.149   4.382   1.839 -0.1425  0.7395  0.2211
  254SOL     vw 1016   6.143   4.431   1.911 -0.4103  0.2539  0.5381
  255SOL     ow 1017   4.504   2.926   1.134  0.2793  0.1062  0.0731
  255SOL     hw 1018   4.421   2.965   1.107  0.5558  0.6013 -0.0841
  255SOL     hw 1019   4.494   2.909   1.228 -0.3466 -0.7473 -0.1395
  255SOL     vw 1020   4.492   2.929   1.143  0.2332  0.0590  0.0243
  256SOL     ow 1021   6.273   5.953   4.917 -0.1962 -0.4545  0.2558
  256SOL     hw 1022   6.282   5.978   4.825  0.0149 -1.8947 -0.1374
  256SOL     hw 1023   6.190   5.906   4.921 -1.4568  1.6965  1.3314
  256SOL     vw 1024   6.263   5.950   4.905 -0.3350 -0.3607  0.3462
  257SOL     ow 1025   5.440   1.481   2.763  0.4582  0.4439  0.1700
  257SOL     hw 1026   5.530   1.493   2.795  0.1406 -0.7963  1.6525
  257SOL     hw 1027   5.385   1.494   2.840 -0.2928 -3.4706  0.5461
  257SOL     vw 1028   5.445   1.484   2.778  0.3171 -0.2362  0.4152
  258SOL     ow 1029   2.149   5.431   6.228  0.4548 -0.0394  0.5560
  258SOL     hw 1030   2.121   5.431   6.319 -1.3124 -1.3024  0.0769
  258SOL     hw 1031   2.076   5.470   6.180  0.2881 -1.5930 -0.5440
  258SOL     vw 1032   2.135   5.436   6.234  0.1997 -0.4113  0.3479
  259SOL     ow 1033   4.021   1.836   2.252  0.1119  0.0263  0.3647
  259SOL     hw 1034   4.076   1.760   2.274 -1.5460 -0.9133  1.5022
  259SOL     hw 1035   3.940   1.798   2.217 -0.0906  1.3502 -0.7134
  259SOL     vw 1036   4.018   1.821   2.250 -0.1333  0.0770  0.3726
  260SOL     ow 1037   1.485   6.147   6.350  0.0310 -0.1307 -0.0349
  260SOL     hw 1038   1.511   6.131   6.259  1.8013  1.7673  0.0685
  260SOL     hw 1039   1.411   6.089   6.364 -0.0571 -0.7448 -2.5746
  260SOL     vw 1040   1.479   6.137   6.340  0.2529  0.0386 -0.3560
  261SOL     ow 1041   2.128   0.797   1.637 -0.0590  0.0160 -0.7373
  261SOL     hw 1042   2.156   0.883   1.669  2.5639 -0.7740 -0.6436
  261SOL     hw 1043   2.046   0.779   1.684  0.3813  1.6087  0.7605
  261SOL     vw 1044   2.121   0.806   1.648  0.3451  0.1219 -0.5273
  262SOL     ow 1045   0.594   2.840   3.376 -0.0910 -0.0088 -0.4931
  262SOL     hw 1046   0.670   2.890   3.405  1.4027 -1.7101 -1.2626
  262SOL     hw 1047   0.524   2.905   3.366  0.8545  1.4056  1.5386
  262SOL     vw 1048   0.595   2.855   3.378  0.2309 -0.0466 -0.3266
  263SOL     ow 1049   0.942   4.853   0.984  0.0596  0.0572  0.0975
  263SOL     hw 1050   0.942   4.763   1.017 -0.9621  0.2577  0.6710
  263SOL     hw 1051   0.874   4.897   1.034 -1.8225  0.2961 -2.4951
  263SOL     vw 1052   0.933   4.847   0.995 -0.3235  0.1152 -0.1688
  264SOL     ow 1053   4.661   5.312   1.261 -0.2967  0.2614 -0.2895
  264SOL     hw 1054   4.666   5.333   1.168  0.4601  0.3052 -0.2432
  264SOL     hw 1055   4.752   5.298   1.288 -0.5872 -0.7579  0.2118
  264SOL     vw 1056   4.674   5.313   1.252 -0.2351  0.1330 -0.2174
  265SOL     ow 1057   3.927   0.363   0.439 -0.3668 -0.2714 -0.3077
  265SOL     hw 1058   3.876   0.305   0.383 -0.6835 -0.2212 -0.0742
  265SOL     hw 1059   3.883   0.447   0.434  0.2830  0.0396 -0.9053
  265SOL     vw 1060   3.915   0.366   0.431 -0.3229 -0.2237 -0.3558
  266SOL     ow 1061   2.387   2.269   0.147 -0.4423  0.3369  0.3071
  266SOL     hw 1062   2.336   2.214   0.088 -0.5307  1.5773 -0.8274
  266SOL     hw 1063   2.418   2.210   0.215  1.3647 -1.6108 -2.0420
  266SOL     vw 1064   2.384   2.254   0.148 -0.2156  0.2437 -0.1525
  267SOL     ow 1065   1.156   1.185   0.619  0.3427 -0.1763  0.0088
  267SOL     hw 1066   1.106   1.189   0.538  0.3109  0.8763  0.0662
  267SOL     hw 1067   1.169   1.091   0.635  1.2062 -0.3844 -1.7306
  267SOL     vw 1068   1.151   1.173   0.610  0.4525 -0.0648 -0.2131
  268SOL     ow 1069   1.429   1.150   1.216 -0.1153 -0.2413  0.4413
  268SOL     hw 1070   1.409   1.058   1.197 -0.9979  0.1178 -0.4919
  268SOL     hw 1071   1.346   1.186   1.248  0.4066  0.0783  1.4676
  268SOL     vw 1072   1.415   1.142   1.217 -0.1628 -0.1518  0.4535
  269SOL     ow 1073   4.047   1.383   6.088 -0.3175 -0.8898 -0.1445
  269SOL     hw 1074   3.994   1.391   6.167  1.6458  1.4218  1.0503
  269SOL     hw 1075   4.007   1.445   6.026 -0.3742 -0.8628 -0.0807
  269SOL     vw 1076   4.035   1.392   6.090 -0.0658 -0.5813  0.0215
  270SOL     ow 1077   5.713   6.805   0.169  0.3155  1.0198  0.9710
  270SOL     hw 1078   5.642   6.749   0.140  2.7382 -2.7320  1.6619
  270SOL     hw 1079   5.670   6.878   0.214 -3.0656 -1.5303  2.2237
  270SOL     vw 1080   5.698   6.807   0.171  0.1891  0.1886  1.2274
  271SOL     ow 1081   2.294   2.303   4.422  0.8462 -0.9763  0.3079
  271SOL     hw 1082   2.228   2.325   4.487 -0.8129 -1.9084 -0.9801
  271SOL     hw 1083   2.244   2.285   4.342  2.7258 -0.8903 -0.9524
  271SOL     vw 1084   2.279   2.304   4.420  0.8754 -1.0878 -0.0284
  272SOL     ow 1085   6.637   6.311   1.494 -0.6022 -0.1858 -0.7261
  272SOL     hw 1086   6.544   6.317   1.473 -0.0930 -0.6904 -3.5649
  272SOL     hw 1087   6.675   6.391   1.456  0.1660 -0.0951  0.2078
  272SOL     vw 1088   6.630   6.323   1.486 -0.4334 -0.2406 -0.9773
  273SOL     ow 1089   5.669   6.460   5.304 -0.1291 -0.0547 -0.3224
  273SOL     hw 1090   5.739   6.495   5.359  0.4396 -0.9471 -0.4739
  273SOL     hw 1091   5.686   6.497   5.217  0.1594 -0.2801 -0.3609
  273SOL     vw 1092   5.680   6.470   5.300 -0.0162 -0.2022 -0.3474
  274SOL     ow 1093   0.141   5.851   3.076 -0.1901 -0.1172 -0.3000
  274SOL     hw 1094   0.225   5.817   3.045  0.0357 -3.4141  3.2007
  274SOL     hw 1095   0.162   5.940   3.106  1.9257 -0.6141 -0.1065
  274SOL     vw 1096   0.155   5.858   3.076  0.1189 -0.6177  0.1873
  275SOL     ow 1097   2.962   6.668   3.663  0.3551 -0.7491  0.4122
  275SOL     hw 1098   2.975   6.656   3.757  0.6240  0.6135  0.5687
  275SOL     hw 1099   2.881   6.621   3.644  0.2042 -0.8868  1.3532
  275SOL     vw 1100   2.953   6.660   3.673  0.3706 -0.5875  0.5572
  276SOL     ow 1101   1.848   0.329   4.965  0.5388  0.1168  0.0988
  276SOL     hw 1102   1.786   0.329   5.038  0.7191 -2.1781  0.3376
  276SOL     hw 1103   1.918   0.388   4.994  0.2756 -0.2142  1.5167
  276SOL     vw 1104   1.849   0.337   4.978  0.5279 -0.2296  0.3173
  277SOL     ow 1105   6.340   0.405   1.940 -0.1360 -0.6836  0.0496
  277SOL     hw 1106   6.432   0.380   1.931 -0.5304 -2.2972  0.1139
  277SOL     hw 1107   6.292   0.322   1.932 -1.6676  0.2480 -1.1525
  277SOL     vw 1108   6.346   0.391   1.937 -0.3901 -0.7736 -0.1006
  278SOL     ow 1109   4.214   0.835   2.433  0.4025  0.2039  0.3536
  278SOL     hw 1110   4.182   0.899   2.497  0.8498  0.0525  0.7372
  278SOL     hw 1111   4.260   0.770   2.486  0.6108 -0.0263 -0.1088
  278SOL     vw 1112   4.216   0.835   2.448  0.4890  0.1536  0.3432
  279SOL     ow 1113   1.259   5.830   1.426 -0.6125  0.2037  0.5162
  279SOL     hw 1114   1.284   5.915   1.390  0.7360 -0.8121 -1.0960
  279SOL     hw 1115   1.199   5.792   1.362  0.3162 -0.8432  0.2285
  279SOL     vw 1116   1.254   5.836   1.413 -0.3121 -0.0682  0.2655
  280SOL     ow 1117   6.559   3.065   0.604 -0.3675 -0.1434 -0.1358
  280SOL     hw 1118   6.603   2.994   0.557 -0.6864 -0.1057 -0.5045
  280SOL     hw 1119   6.556   3.136   0.540 -1.2148 -0.2431 -0.2067
  280SOL     vw 1120   6.565   3.065   0.589 -0.5217 -0.1516 -0.1938
  281SOL     ow 1121   3.693   4.326   3.036 -0.0588 -0.2485 -0.1484
  281SOL     hw 1122   3.718   4.340   2.944 -0.3495 -0.7407 -0.3047
  281SOL     hw 1123   3.725   4.404   3.081 -1.2029  0.6936 -0.9041
  281SOL     vw 1124   3.701   4.339   3.030 -0.2481 -0.1893 -0.2687
  282SOL     ow 1125   1.633   0.310   1.901  0.0825 -0.5541 -0.5683
  282SOL     hw 1126   1.707   0.363   1.872 -0.0063  0.9757  1.7061
  282SOL     hw 1127   1.650   0.295   1.994 -2.5992  0.2172  0.1478
  282SOL     vw 1128   1.645   0.315   1.909 -0.2830 -0.2505 -0.1737
  283SOL     ow 1129   6.053   0.912   3.496  0.1114  0.0399 -0.1312
  283SOL     hw 1130   6.029   0.856   3.422  1.1586 -0.0338 -0.4387
  283SOL     hw 1131   6.049   0.854   3.572 -1.1307  0.1560 -0.0877
  283SOL     vw 1132   6.049   0.897   3.496  0.0856  0.0455 -0.1659
  284SOL     ow 1133   2.403   1.086   6.214  0.2921  0.1731 -0.0485
  284SOL     hw 1134   2.326   1.141   6.204 -0.2144 -0.0430  2.1657
  284SOL     hw 1135   2.369   0.997   6.209  0.3506  0.0773  1.1094
  284SOL     vw 1136   2.388   1.082   6.212  0.2329  0.1320  0.3963
  285SOL     ow 1137   2.707   5.134   3.227 -0.4255  0.5314  0.0421
  285SOL     hw 1138   2.796   5.104   3.243 -0.5891  0.4964  0.9672
  285SOL     hw 1139   2.714   5.229   3.221 -0.1814  0.4562 -0.9477
  285SOL     vw 1140   2.719   5.143   3.228 -0.4148  0.5169  0.0335
  286SOL     ow 1141   5.408   4.883   4.831  0.8908 -0.3106 -0.6234
  286SOL     hw 1142   5.366   4.952   4.779  0.5525 -0.1905 -0.1977
  286SOL     hw 1143   5.336   4.826   4.857  0.9372  0.0890  0.4106
  286SOL     vw 1144   5.393   4.885   4.827  0.8521 -0.2422 -0.4306
  287SOL     ow 1145   3.055   0.108   5.234 -0.1899 -0.4648  0.1536
  287SOL     hw 1146   3.026   0.163   5.160  2.1781 -3.0349 -2.9728
  287SOL     hw 1147   3.031   0.019   5.208  1.5371 -1.5877  2.1273
  287SOL     vw 1148   3.048   0.103   5.221  0.3504 -0.9520  0.0014
  288SOL     ow 1149   4.084   3.875   2.034 -0.4627 -0.1692  0.2145
  288SOL     hw 1150   4.172   3.855   2.001 -0.1356 -0.3248  1.1498
  288SOL     hw 1151   4.032   3.798   2.010  0.4021 -1.5085  2.3507
  288SOL     vw 1152   4.089   3.862   2.026 -0.3054 -0.3664  0.6198
  289SOL     ow 1153   3.458   5.396   0.946  0.6136 -0.3159 -0.0546
  289SOL     hw 1154   3.546   5.361   0.958  1.6828  2.1874 -0.0326
  289SOL     hw 1155   3.465   5.456   0.872 -1.1367 -0.2662 -0.2303
  289SOL     vw 1156   3.471   5.400   0.938  0.5238  0.0210 -0.0749
  290SOL     ow 1157   1.827   4.627   4.885  0.3613 -0.3281 -0.0701
  290SOL     hw 1158   1.911   4.581   4.886 -0.8089 -2.6306  0.3385
  290SOL     hw 1159   1.784   4.597   4.805 -1.5023 -2.1629  1.4882
  290SOL     vw 1160   1.832   4.617   4.875 -0.0390 -0.8740  0.1893
  291SOL     ow 1161   6.327   1.828   1.546  0.6982  0.3153 -0.4328
  291SOL     hw 1162   6.279   1.910   1.555  0.7102  0.3559 -0.7305
  291SOL     hw 1163   6.419   1.854   1.554  0.6421 -0.0516  2.4627
  291SOL     vw 1164   6.333   1.842   1.549  0.6924  0.2723 -0.0901
  292SOL     ow 1165   6.672   0.891   3.538 -0.0949 -0.1817 -0.3740
  292SOL     hw 1166   6.629   0.948   3.474  0.5764  0.6817 -0.0694
  292SOL     hw 1167   6.748   0.857   3.493  0.1213  0.0582 -0.1947
  292SOL     vw 1168   6.676   0.894   3.524  0.0222 -0.0361 -0.3102
  293SOL     ow 1169   6.458   6.498   4.403 -0.6961  0.4220  0.0125
  293SOL     hw 1170   6.412   6.579   4.427  0.0435  0.9228 -0.2157
  293SOL     hw 1171   6.421   6.431   4.461 -2.2650  0.6396 -0.7003
  293SOL     vw 1172   6.447   6.500   4.414 -0.8054  0.5171 -0.1116
  294SOL     ow 1173   0.694   5.741   3.751  0.5106 -0.4287  0.0619
  294SOL     hw 1174   0.627   5.745   3.819 -0.3059  1.6862 -0.7878
  294SOL     hw 1175   0.647   5.746   3.669  1.6261 -0.6087 -0.6178
  294SOL     vw 1176   0.679   5.742   3.749  0.5501 -0.1736 -0.1401
  295SOL     ow 1177   1.693   2.537   4.867 -0.1411 -0.1381 -0.0855
  295SOL     hw 1178   1.743   2.523   4.786 -1.2959  1.2591 -1.0799
  295SOL     hw 1179   1.669   2.630   4.864 -1.1899 -0.3484  1.2977
  295SOL     vw 1180   1.697   2.548   4.856 -0.4318  0.0185 -0.0343
  296SOL     ow 1181   6.876   5.402   6.234 -0.1865  0.1397  0.0710
  296SOL     hw 1182   6.962   5.443   6.245 -0.2326  0.3148 -0.2251
  296SOL     hw 1183   6.850   5.377   6.323 -0.8764  2.1897  0.5191
  296SOL     vw 1184   6.884   5.404   6.247 -0.2836  0.4332  0.0911
  297SOL     ow 1185   6.507   2.771   3.525 -0.1106 -0.2124 -0.0128
  297SOL     hw 1186   6.446   2.845   3.526  0.3029  0.1499 -0.4649
  297SOL     hw 1187   6.459   2.700   3.483 -0.9063 -0.5710  1.4473
  297SOL     vw 1188   6.493   2.772   3.520 -0.1609 -0.2118  0.1202
  298SOL     ow 1189   4.558   4.311   5.129  0.1565 -0.3176  0.1132
  298SOL     hw 1190   4.553   4.217   5.145  1.3197 -0.1835  1.4433
  298SOL     hw 1191   4.599   4.347   5.208 -0.1942  1.3012 -0.4004
  298SOL     vw 1192   4.563   4.303   5.142  0.2637 -0.0863  0.2208
  299SOL     ow 1193   0.380   1.087   4.686 -0.5522  0.4070 -0.3015
  299SOL     hw 1194   0.466   1.059   4.718 -2.8114 -3.4118  3.4605
  299SOL     hw 1195   0.371   1.044   4.601  0.0414 -2.2400  0.8651
  299SOL     vw 1196   0.390   1.077   4.679 -0.7720 -0.4461  0.3488
  300SOL     ow 1197   1.172   4.461   6.694 -0.2340 -0.2341 -0.1501
  300SOL     hw 1198   1.242   4.525   6.703 -0.0016 -0.6872  1.5990
  300SOL     hw 1199   1.115   4.498   6.627 -0.5372  2.2548  1.3280
  300SOL     vw 1200   1.173   4.475   6.687 -0.2434  0.0346  0.2756
  301SOL     ow 1201   1.841   5.129   1.407  0.1174  0.3852  0.4787
  301SOL     hw 1202   1.775   5.196   1.420  0.6334  1.0636 -0.2648
  301SOL     hw 1203   1.922   5.168   1.441  0.1012 -0.5289  1.6145
  301SOL     vw 1204   1.843   5.143   1.413  0.1833  0.3541  0.5305
  302SOL     ow 1205   2.226   0.390   3.015 -0.0730  0.3472  0.0308
  302SOL     hw 1206   2.305   0.422   3.057 -1.1642  1.7046  1.1289
  302SOL     hw 1207   2.207   0.454   2.946  0.2711 -0.4684 -0.8447
  302SOL     vw 1208   2.234   0.402   3.011 -0.1714  0.4187  0.0602
  303SOL     ow 1209   4.383   6.384   1.750 -0.3557 -0.2283  0.5378
  303SOL     hw 1210   4.333   6.431   1.683 -0.0195  0.9778  1.1014
  303SOL     hw 1211   4.419   6.453   1.805 -0.8535 -1.1901  2.1409
  303SOL     vw 1212   4.381   6.399   1.749 -0.3769 -0.1962  0.8237
  304SOL     ow 1213   4.748   6.452   3.254  0.1573 -0.0277  0.0243
  304SOL     hw 1214   4.816   6.478   3.316  0.1062  2.2118 -0.7654
  304SOL     hw 1215   4.779   6.486   3.169 -0.3062 -2.0322 -1.0266
  304SOL     vw 1216   4.761   6.460   3.251  0.0896  0.0033 -0.2185
  305SOL     ow 1217   1.652   1.015   1.391  0.4644 -0.1148 -0.2132
  305SOL     hw 1218   1.591   0.944   1.409  1.5610 -1.1780 -0.5402
  305SOL     hw 1219   1.677   1.047   1.478 -2.2309  1.8811 -0.0796
  305SOL     vw 1220   1.648   1.010   1.405  0.2534  0.0082 -0.2387
  306SOL     ow 1221   0.140   2.745   1.614  0.0555  0.5672 -0.3186
  306SOL     hw 1222   0.210   2.803   1.644 -0.7025  0.1756  2.4310
  306SOL     hw 1223   0.088   2.728   1.692 -3.1004  0.7691 -2.2125
  306SOL     vw 1224   0.142   2.751   1.628 -0.4609  0.5423 -0.2057
  307SOL     ow 1225   1.849   5.070   0.177  0.2215  0.0333 -0.2470
  307SOL     hw 1226   1.789   5.023   0.235 -0.1357  0.3222 -0.3782
  307SOL     hw 1227   1.924   5.092   0.232 -0.3500  0.7784  0.2481
  307SOL     vw 1228   1.851   5.067   0.192  0.0989  0.1698 -0.1990
  308SOL     ow 1229   2.293   4.384   6.204 -0.5453  0.1409  0.1280
  308SOL     hw 1230   2.362   4.362   6.142 -0.6240  0.3698 -0.0395
  308SOL     hw 1231   2.215   4.341   6.170 -0.9187  1.4400 -0.7170
  308SOL     vw 1232   2.292   4.375   6.192 -0.6051  0.3426 -0.0055
  309SOL     ow 1233   6.323   3.947   1.247  0.3793  0.0697  0.4586
  309SOL     hw 1234   6.272   3.894   1.309 -1.8262  1.2305 -0.2597
  309SOL     hw 1235   6.326   4.034   1.286  1.6031  0.1082  0.3253
  309SOL     vw 1236   6.316   3.951   1.261  0.2499  0.2279  0.3462
  310SOL     ow 1237   0.077   5.863   1.090 -0.3739 -0.3280  0.1621
  310SOL     hw 1238   0.062   5.786   1.036 -0.2903 -0.0154 -0.3159
  310SOL     hw 1239   0.152   5.840   1.145 -1.3699 -1.1868  1.1935
  310SOL     vw 1240   0.085   5.850   1.090 -0.4943 -0.3998  0.2351
  311SOL     ow 1241   3.399   1.941   2.676 -0.1912 -0.3419 -0.2538
  311SOL     hw 1242   3.423   1.848   2.674  1.1499 -0.1888  2.8083
  311SOL     hw 1243   3.325   1.945   2.737  1.4125  0.8039  1.7285
  311SOL     vw 1244   3.392   1.929   2.684  0.1973 -0.1705  0.4117
  312SOL     ow 1245   5.817   2.628   2.237 -0.1880  0.2462 -0.7155
  312SOL     hw 1246   5.754   2.566   2.199 -2.2477  1.1831  0.9445
  312SOL     hw 1247   5.881   2.573   2.281 -0.7677 -0.7548 -1.0807
  312SOL     vw 1248   5.817   2.613   2.238 -0.5362  0.2377 -0.5447
  313SOL     ow 1249   1.305   3.882   3.739  0.5920  0.0231 -0.1847
  313SOL     hw 1250   1.264   3.946   3.798 -0.8637  0.0627 -1.1793
  313SOL     hw 1251   1.378   3.930   3.699 -0.0619  0.8577 -0.4096
  313SOL     vw 1252   1.309   3.897   3.742  0.3137  0.1384 -0.3457
  314SOL     ow 1253   2.416   0.371   4.668 -0.1492  0.1510 -0.3870
  314SOL     hw 1254   2.348   0.361   4.735 -0.8484 -0.1717 -1.1379
  314SOL     hw 1255   2.468   0.445   4.699  0.7468 -1.1689  1.5375
  314SOL     vw 1256   2.414   0.379   4.681 -0.1233 -0.0657 -0.2322
  315SOL     ow 1257   5.930   5.616   3.013  0.7058 -0.4106 -0.3471
  315SOL     hw 1258   5.918   5.657   2.928 -1.3725  0.9637  0.5138
  315SOL     hw 1259   5.841   5.592   3.041  1.4345 -1.7244  1.0066
  315SOL     vw 1260   5.916   5.618   3.006  0.5279 -0.4027 -0.0551
  316SOL     ow 1261   1.926   0.639   5.593  0.1017  0.2605 -0.3721
  316SOL     hw 1262   1.849   0.632   5.649 -0.2370  0.7531 -0.7649
  316SOL     hw 1263   1.929   0.556   5.546  0.1348  0.0194  0.0564
  316SOL     vw 1264   1.917   0.627   5.594  0.0613  0.2937 -0.3676
  317SOL     ow 1265   5.764   3.451   0.907 -0.1223 -0.0181  0.5345
  317SOL     hw 1266   5.777   3.433   0.814  0.7864 -0.8337  0.8005
  317SOL     hw 1267   5.687   3.399   0.931  0.3318 -0.7253  0.4867
  317SOL     vw 1268   5.755   3.442   0.898  0.0575 -0.2191  0.5632
  318SOL     ow 1269   5.014   2.083   1.581  0.5033 -0.2180  0.0285
  318SOL     hw 1270   4.919   2.080   1.571  0.2981 -1.3606  1.9017
  318SOL     hw 1271   5.043   2.146   1.515 -1.4546 -0.4647 -1.1295
  318SOL     vw 1272   5.005   2.091   1.571  0.2177 -0.4014  0.1227
  319SOL     ow 1273   4.069   0.006   5.622 -0.6323  0.0769  0.3881
  319SOL     hw 1274   4.022  -0.075   5.640 -0.6364 -0.3606 -1.3885
  319SOL     hw 1275   4.162  -0.019   5.626 -0.6340 -0.0313 -0.1625
  319SOL     vw 1276   4.075  -0.008   5.625 -0.6335  0.0048  0.0811
  320SOL     ow 1277   1.061   1.001   4.794 -0.7260  0.2721 -0.5096
  320SOL     hw 1278   1.107   0.962   4.868  0.1627  1.2655 -0.5105
  320SOL     hw 1279   0.971   0.969   4.802 -0.9012  1.1451  1.5637
  320SOL     vw 1280   1.055   0.991   4.805 -0.6319  0.5184 -0.2363
  321SOL     ow 1281   0.217   2.958   6.266 -0.2069 -0.1499  0.1306
  321SOL     hw 1282   0.271   3.002   6.201 -0.9062  0.2381 -0.2020
  321SOL     hw 1283   0.153   2.908   6.214 -1.3107  0.8322  0.4984
  321SOL     vw 1284   0.216   2.957   6.251 -0.4448  0.0309  0.1354
  322SOL     ow 1285   0.460   1.894   4.576 -0.7813 -0.1531  0.1232
  322SOL     hw 1286   0.373   1.879   4.537 -1.2681 -0.8604  1.4411
  322SOL     hw 1287   0.444   1.895   4.670  0.7761 -1.2085  0.4243
  322SOL     vw 1288   0.446   1.892   4.583 -0.6401 -0.3858  0.3366
  323SOL     ow 1289   0.874   5.551   3.910  0.2627 -0.3620  0.1952
  323SOL     hw 1290   0.954   5.545   3.963 -0.6850  0.5617  1.8006
  323SOL     hw 1291   0.836   5.463   3.916  0.9802 -0.7155 -0.3045
  323SOL     vw 1292   0.880   5.539   3.918  0.2323 -0.2863  0.3411
  324SOL     ow 1293   6.522   6.522   5.922  0.4687 -0.1648  0.8281
  324SOL     hw 1294   6.457   6.531   5.991  1.6697  0.4040  1.9417
  324SOL     hw 1295   6.590   6.586   5.945  1.1940 -0.4029 -0.5461
  324SOL     vw 1296   6.523   6.532   5.934  0.7226 -0.1211  0.7939
  325SOL     ow 1297   4.757   6.708   5.860  0.0311 -0.0558 -0.1149
  325SOL     hw 1298   4.752   6.706   5.955 -0.2146  1.2072 -0.0782
  325SOL     hw 1299   4.674   6.748   5.833  1.7074  3.4921 -0.6037
  325SOL     vw 1300   4.745   6.713   5.869  0.2198  0.5789 -0.1748
  326SOL     ow 1301   5.831   1.450   6.012 -0.2722 -0.1329  0.3219
  326SOL     hw 1302   5.814   1.528   6.064  1.8357  0.1612  0.6350
  326SOL     hw 1303   5.787   1.379   6.060 -0.9451  0.6108  0.8252
  326SOL     vw 1304   5.823   1.451   6.025 -0.0827  0.0041  0.4296
  327SOL     ow 1305   0.633   4.436   6.467 -0.0181  0.7011 -0.7461
  327SOL     hw 1306   0.598   4.414   6.553 -0.6766  2.4613 -0.5199
  327SOL     hw 1307   0.680   4.357   6.439  1.5145  0.6013  1.8611
  327SOL     vw 1308   0.634   4.422   6.474  0.0972  0.9201 -0.3722
  328SOL     ow 1309   4.258   3.995   6.715  0.7031  0.0398 -0.2751
  328SOL     hw 1310   4.203   4.073   6.708  1.9485  1.0312  0.4761
  328SOL     hw 1311   4.283   3.992   6.808  0.3061 -1.5182 -0.2085
  328SOL     vw 1312   4.254   4.005   6.726  0.8149 -0.0348 -0.1674
  329SOL     ow 1313   6.669   6.796   6.042  0.2917 -0.2400  0.3719
  329SOL     hw 1314   6.621   6.841   5.972  0.0043 -0.8547  0.1746
  329SOL     hw 1315   6.744   6.756   5.998 -1.1130 -2.5846 -0.0226
  329SOL     vw 1316   6.673   6.797   6.027  0.0684 -0.6306  0.2940
  330SOL     ow 1317   5.788   4.857   6.504  0.1278 -0.3941 -0.1432
  330SOL     hw 1318   5.871   4.886   6.544  0.1078 -0.3192 -0.1569
  330SOL     hw 1319   5.760   4.932   6.451  0.2307 -0.5464 -0.4171
  330SOL     vw 1320   5.796   4.871   6.502  0.1385 -0.4044 -0.1812
  331SOL     ow 1321   2.771   3.088   5.080 -0.2220  0.4369 -0.8853
  331SOL     hw 1322   2.767   3.184   5.080 -0.2120  0.4882 -3.0638
  331SOL     hw 1323   2.681   3.061   5.099 -0.5403  0.9231 -1.6212
  331SOL     vw 1324   2.758   3.097   5.082 -0.2625  0.5077 -1.2696
  332SOL     ow 1325   4.059   4.360   4.023 -0.2887 -0.1454  0.3478
  332SOL     hw 1326   4.049   4.296   3.953 -3.1996 -0.5005  0.9725
  332SOL     hw 1327   3.999   4.431   4.000  0.4836  0.8562  1.3091
  332SOL     vw 1328   4.050   4.361   4.011 -0.5708 -0.0601  0.5574
  333SOL     ow 1329   5.846   5.337   5.523  0.2589 -0.6059 -0.2068
  333SOL     hw 1330   5.884   5.299   5.444 -0.1684  0.0226 -0.7191
  333SOL     hw 1331   5.837   5.263   5.583  0.8210 -1.0399 -0.6516
  333SOL     vw 1332   5.850   5.322   5.521  0.2766 -0.5803 -0.3331
  334SOL     ow 1333   2.806   5.182   5.466 -0.0350  0.3001 -0.2195
  334SOL     hw 1334   2.815   5.265   5.418  0.8491 -0.7097 -1.9163
  334SOL     hw 1335   2.891   5.170   5.509 -0.1447  0.2432 -0.0164
  334SOL     vw 1336   2.819   5.191   5.465  0.0672  0.1590 -0.4163
  335SOL     ow 1337   0.631   4.264   0.681  0.0854 -0.4332 -0.1082
  335SOL     hw 1338   0.687   4.187   0.669 -0.2116 -0.6722  0.0065
  335SOL     hw 1339   0.572   4.263   0.605  0.4143 -0.0284 -0.3689
  335SOL     vw 1340   0.630   4.254   0.670  0.0896 -0.4115 -0.1275
  336SOL     ow 1341   5.318   1.663   5.502  0.2396  0.3179  0.0097
  336SOL     hw 1342   5.225   1.641   5.494  0.6484 -1.5338 -0.1052
  336SOL     hw 1343   5.329   1.740   5.446 -0.7412 -0.9913 -2.1090
  336SOL     vw 1344   5.307   1.670   5.493  0.1643 -0.0991 -0.2849
  337SOL     ow 1345   4.792   3.186   1.207  0.3460 -0.3374  0.4234
  337SOL     hw 1346   4.771   3.279   1.219  1.3893  0.0225 -0.3248
  337SOL     hw 1347   4.805   3.153   1.295  1.5695  0.6518  0.6549
  337SOL     vw 1348   4.791   3.194   1.220  0.6452 -0.1594  0.3552
  338SOL     ow 1349   0.577   3.653   0.249  0.2911 -0.0793  0.0487
  338SOL     hw 1350   0.599   3.577   0.302  0.8685  0.9699  1.3874
  338SOL     hw 1351   0.482   3.658   0.253 -0.1119 -2.6638 -2.9210
  338SOL     vw 1352   0.568   3.644   0.257  0.3141 -0.2818 -0.1665
  339SOL     ow 1353   4.756   5.313   2.287 -0.0494 -0.7167 -0.1028
  339SOL     hw 1354   4.815   5.320   2.211 -1.5183  0.2540 -1.2146
  339SOL     hw 1355   4.808   5.345   2.361  1.3755 -1.5414 -0.6996
  339SOL     vw 1356   4.771   5.318   2.286 -0.0551 -0.6974 -0.3283
  340SOL     ow 1357   2.090   5.392   5.883  0.7889  0.7282 -0.4839
  340SOL     hw 1358   1.996   5.384   5.899  0.5208  1.7459 -1.4354
  340SOL     hw 1359   2.117   5.305   5.853  0.8204 -0.5284  2.7417
  340SOL     vw 1360   2.081   5.380   5.881  0.7578  0.6969 -0.1836
  341SOL     ow 1361   6.056   5.706   6.694 -0.4168  0.0056  0.2449
  341SOL     hw 1362   5.971   5.741   6.669 -1.2964 -2.5445 -0.7153
  341SOL     hw 1363   6.104   5.697   6.612 -1.0684 -2.9035  0.0776
  341SOL     vw 1364   6.051   5.709   6.680 -0.6189 -0.7145  0.0966
  342SOL     ow 1365   3.396   4.930   0.001  0.1305 -0.6768  0.0142
  342SOL     hw 1366   3.452   4.999  -0.034  1.1618 -2.4199 -1.9781
  342SOL     hw 1367   3.429   4.915   0.090  1.0342  0.1615 -0.1619
  342SOL     vw 1368   3.408   4.937   0.008  0.3860 -0.7961 -0.2719
  343SOL     ow 1369   3.482   1.360   1.271  0.3555  0.1911 -0.2210
  343SOL     hw 1370   3.473   1.312   1.189  1.5368 -1.4751  0.5796
  343SOL     hw 1371   3.520   1.444   1.245 -3.6564  1.7681 -1.9036
  343SOL     vw 1372   3.486   1.365   1.256 -0.0179  0.1794 -0.3374
  344SOL     ow 1373   2.535   1.185   4.260 -0.2473  0.3309 -0.3577
  344SOL     hw 1374   2.529   1.108   4.317  1.1687 -1.1396 -2.0176
  344SOL     hw 1375   2.447   1.195   4.224 -0.5228 -0.3598  0.0950
  344SOL     vw 1376   2.523   1.176   4.263 -0.0967  0.0457 -0.5169
  345SOL     ow 1377   5.725   0.857   0.478 -0.5718 -0.9047  0.2228
  345SOL     hw 1378   5.676   0.925   0.523 -0.4491 -0.0416 -0.8827
  345SOL     hw 1379   5.811   0.857   0.520 -0.4506 -0.1045 -0.0112
  345SOL     vw 1380   5.730   0.866   0.489 -0.5395 -0.6852  0.0460
  346SOL     ow 1381   5.999   5.502   1.667 -0.1512 -0.2331  0.6371
  346SOL     hw 1382   5.955   5.432   1.715 -0.4474 -0.2964  0.2824
  346SOL     hw 1383   6.091   5.478   1.668  0.0347  0.4195  2.2679
  346SOL     vw 1384   6.005   5.489   1.674 -0.1657 -0.1552  0.8055
  347SOL     ow 1385   1.427   2.943   4.117 -0.2706 -0.0029 -0.6104
  347SOL     hw 1386   1.392   2.855   4.101  0.1845 -0.1113 -1.0244
  347SOL     hw 1387   1.364   3.002   4.076  1.1364 -0.2858 -3.3848
  347SOL     vw 1388   1.414   2.939   4.110 -0.0250 -0.0545 -1.0312
  348SOL     ow 1389   1.839   6.565   4.980  0.0681 -0.1588 -0.1619
  348SOL     hw 1390   1.909   6.630   4.978  0.9513 -0.9992 -3.4451
  348SOL     hw 1391   1.863   6.505   5.051  0.5611  1.6441  1.2637
  348SOL     vw 1392   1.852   6.566   4.989  0.2497 -0.0319 -0.4072
  349SOL     ow 1393   4.605   5.114   6.797 -0.5775  0.3973  0.2649
  349SOL     hw 1394   4.615   5.209   6.788 -0.5835  0.5789  1.8922
  349SOL     hw 1395   4.532   5.103   6.859 -0.6741 -0.6702 -0.0206
  349SOL     vw 1396   4.597   5.125   6.804 -0.5913  0.2804  0.4420
  350SOL     ow 1397   4.875   5.947   4.432 -0.0440 -0.2044  0.3818
  350SOL     hw 1398   4.821   5.868   4.427 -1.5961  0.8879 -1.4569
  350SOL     hw 1399   4.812   6.018   4.445  0.9561  1.0709 -1.4155
  350SOL     vw 1400   4.859   5.946   4.433 -0.1171  0.1078 -0.0980
  351SOL     ow 1401   6.195   2.144   5.905 -0.2877  0.0073 -0.2142
  351SOL     hw 1402   6.132   2.157   5.976  0.6626  1.3273  0.4254
  351SOL     hw 1403   6.159   2.196   5.832 -0.2728  0.2282 -0.0641
  351SOL     vw 1404   6.182   2.153   5.904 -0.1605  0.2105 -0.1099
  352SOL     ow 1405   0.894   5.840   4.857 -0.0819  0.2269  0.3407
  352SOL     hw 1406   0.931   5.923   4.888  0.4754  0.4504 -0.8526
  352SOL     hw 1407   0.860   5.798   4.935 -1.9421  2.3552  0.7708
  352SOL     vw 1408   0.894   5.846   4.871 -0.2538  0.5372  0.2398
  353SOL     ow 1409   0.772   1.278   1.887  0.0960  0.1867 -0.1333
  353SOL     hw 1410   0.732   1.248   1.805  0.9132 -2.3274  0.2829
  353SOL     hw 1411   0.837   1.342   1.860 -1.1907  1.1102 -1.2082
  353SOL     vw 1412   0.775   1.282   1.873  0.0341 -0.0232 -0.2202
  354SOL     ow 1413   6.152   1.185   6.650  0.2526  0.4772  0.1311
  354SOL     hw 1414   6.189   1.269   6.679 -0.3251 -0.1239  2.8863
  354SOL     hw 1415   6.058   1.196   6.659  0.1179 -0.2346 -0.2880
  354SOL     vw 1416   6.145   1.198   6.655  0.1583  0.3040  0.4392
  355SOL     ow 1417   2.856   2.306   3.801  0.1100 -0.4710 -0.8013
  355SOL     hw 1418   2.828   2.216   3.817  1.2029 -0.9352 -1.3866
  355SOL     hw 1419   2.939   2.315   3.849 -0.0157  0.2483 -0.6995
  355SOL     vw 1420   2.864   2.296   3.810  0.2377 -0.4375 -0.8650
  356SOL     ow 1421   2.345   0.245   2.799  0.1739 -0.0251  0.0283
  356SOL     hw 1422   2.370   0.210   2.713  1.0677 -2.8229  1.3108
  356SOL     hw 1423   2.425   0.288   2.831 -0.0270  0.6280 -0.3242
  356SOL     vw 1424   2.359   0.246   2.792  0.2655 -0.3081  0.1509
  357SOL     ow 1425   6.606   5.493   2.150 -0.5949 -0.0596 -0.2902
  357SOL     hw 1426   6.671   5.447   2.203 -0.8598  1.2217  1.2269
  357SOL     hw 1427   6.642   5.490   2.061  0.5769 -1.0344  0.1805
  357SOL     vw 1428   6.619   5.487   2.145 -0.4752 -0.0188 -0.0279
  358SOL     ow 1429   1.713   5.658   2.013  0.0679 -0.5115 -0.0878
  358SOL     hw 1430   1.664   5.579   2.037  3.8303 -2.3153  2.6843
  358SOL     hw 1431   1.784   5.626   1.957  2.1389  0.6178  1.7233
  358SOL     vw 1432   1.716   5.644   2.009  0.8376 -0.6003  0.5169
  359SOL     ow 1433   4.753   1.919   4.681  0.0070 -0.7611  0.1132
  359SOL     hw 1434   4.704   1.839   4.698 -0.6232 -0.7693 -1.6136
  359SOL     hw 1435   4.696   1.972   4.626  1.3847 -0.1915 -0.8417
  359SOL     vw 1436   4.739   1.915   4.676  0.1054 -0.6871 -0.2403
  360SOL     ow 1437   1.945   2.399   3.413 -0.3585 -0.0041  0.2778
  360SOL     hw 1438   1.928   2.430   3.502  1.6181 -0.6743  0.9478
  360SOL     hw 1439   1.938   2.304   3.419  1.5824 -0.1995  0.2171
  360SOL     vw 1440   1.942   2.390   3.426  0.1584 -0.1184  0.3582
  361SOL     ow 1441   1.300   3.187   3.136  0.1188 -0.1594 -0.1906
  361SOL     hw 1442   1.346   3.107   3.109 -0.5093 -1.0876  1.3734
  361SOL     hw 1443   1.220   3.187   3.083  0.0010 -0.7090 -0.0207
  361SOL     vw 1444   1.296   3.177   3.125  0.0204 -0.3543  0.0381
  362SOL     ow 1445   0.630   6.309   3.095  0.1159  0.5266  0.2206
  362SOL     hw 1446   0.580   6.284   3.018  0.0113  0.5144  0.2909
  362SOL     hw 1447   0.677   6.388   3.070 -0.1255  0.6743  0.2278
  362SOL     vw 1448   0.630   6.316   3.082  0.0703  0.5443  0.2308
  363SOL     ow 1449   0.907   2.572   3.367 -0.0676  0.3864 -0.1097
  363SOL     hw 1450   0.994   2.559   3.406 -1.3891 -0.7465  2.8120
  363SOL     hw 1451   0.919   2.554   3.274  2.5679 -1.1540  0.4238
  363SOL     vw 1452   0.920   2.568   3.360  0.1058  0.0337  0.3461
  364SOL     ow 1453   3.150   6.894   3.515 -0.2598  0.6376 -0.0007
  364SOL     hw 1454   3.087   6.941   3.460  0.0601  1.3219  0.2124
  364SOL     hw 1455   3.216   6.960   3.538  0.3779  0.0081  0.0244
  364SOL     vw 1456   3.151   6.909   3.511 -0.1334  0.6448  0.0306
  365SOL     ow 1457   2.429   6.897   6.042 -0.0244  0.0732 -0.3992
  365SOL     hw 1458   2.396   6.956   5.974  1.1152  3.1509  1.5119
  365SOL     hw 1459   2.509   6.860   6.005  0.9387  2.2180 -0.6027
  365SOL     vw 1460   2.435   6.900   6.028  0.2530  0.7620 -0.1738
  366SOL     ow 1461   1.019   6.774   2.657  0.3158 -0.0372 -0.5752
  366SOL     hw 1462   0.954   6.705   2.644 -0.2718  0.4060 -0.0849
  366SOL     hw 1463   1.000   6.807   2.745  0.7853  0.5409 -0.6880
  366SOL     vw 1464   1.008   6.769   2.667  0.3002  0.0975 -0.5255
  367SOL     ow 1465   5.841   5.053   4.262  0.6618 -0.0950  0.0263
  367SOL     hw 1466   5.935   5.061   4.251  0.5019  0.9617 -0.7051
  367SOL     hw 1467   5.824   4.959   4.255  1.6312 -0.2717 -0.0579
  367SOL     vw 1468   5.851   5.041   4.260  0.7687  0.0212 -0.0815
  368SOL     ow 1469   0.882   1.864   2.422 -0.8034 -0.2530  0.3488
  368SOL     hw 1470   0.791   1.866   2.394 -1.1697  0.5183  1.5146
  368SOL     hw 1471   0.928   1.818   2.352 -1.9741 -0.0688 -0.5647
  368SOL     vw 1472   0.876   1.858   2.409 -1.0062 -0.1270  0.3819
  369SOL     ow 1473   5.685   4.905   2.572 -0.4271  0.6857 -0.0507
  369SOL     hw 1474   5.723   4.961   2.504 -0.0123  0.9229  0.3762
  369SOL     hw 1475   5.750   4.905   2.642 -0.9313  0.5812  0.4208
  369SOL     vw 1476   5.699   4.912   2.572 -0.4389  0.7031  0.0679
  370SOL     ow 1477   6.736   3.302   2.135 -0.3919 -0.6228  0.3709
  370SOL     hw 1478   6.721   3.313   2.041  0.1413 -0.0960  0.3425
  370SOL     hw 1479   6.687   3.223   2.158 -0.4404 -0.8131 -0.3663
  370SOL     vw 1480   6.727   3.293   2.126 -0.3281 -0.5783  0.2700
  371SOL     ow 1481   0.005   2.837   4.694  0.3514 -0.8762 -0.5332
  371SOL     hw 1482   0.093   2.828   4.658  0.9395  1.9324 -0.0524
  371SOL     hw 1483   0.018   2.871   4.782 -1.2140 -1.4663 -0.0293
  371SOL     vw 1484   0.018   2.840   4.701  0.2224 -0.5836 -0.4036
  372SOL     ow 1485   2.425   5.304   6.147  0.2828 -1.1732  0.3456
  372SOL     hw 1486   2.410   5.215   6.112  0.7694 -2.0502  2.2553
  372SOL     hw 1487   2.495   5.293   6.211 -0.0398  0.5039  1.0205
  372SOL     vw 1488   2.432   5.291   6.151  0.3046 -1.0676  0.6866
  373SOL     ow 1489   0.401   2.768   6.404  0.1988  0.1167  0.1675
  373SOL     hw 1490   0.484   2.807   6.376  0.0015 -0.3868 -1.1779
  373SOL     hw 1491   0.379   2.706   6.335  0.3871 -2.2662  2.0950
  373SOL     vw 1492   0.409   2.765   6.391  0.1976 -0.2642  0.2444
  374SOL     ow 1493   2.145   3.376   5.984 -0.3736  0.4523 -0.2406
  374SOL     hw 1494   2.192   3.296   5.965  0.9631  1.0406  0.4556
  374SOL     hw 1495   2.209   3.446   5.971 -0.8702  1.2387  1.2312
  374SOL     vw 1496   2.159   3.375   5.980 -0.2626  0.6337  0.0453
  375SOL     ow 1497   1.575   5.895   2.188  0.5277 -0.6558  0.7974
  375SOL     hw 1498   1.597   5.975   2.235  1.0595  0.9850 -2.0512
  375SOL     hw 1499   1.479   5.893   2.189  0.2588  2.1866 -2.2029
  375SOL     vw 1500   1.565   5.905   2.195  0.5624 -0.0644  0.0257
  376SOL     ow 1501   5.227   2.589   0.112 -0.3160 -1.0207  0.8172
  376SOL     hw 1502   5.204   2.566   0.202 -1.5584 -1.4348  0.4080
  376SOL     hw 1503   5.151   2.639   0.080  0.9680  0.9630  0.6587
  376SOL     vw 1504   5.214   2.593   0.120 -0.3107 -0.8135  0.7423
  377SOL     ow 1505   4.110   6.332   2.961  0.6490 -0.1188 -0.0696
  377SOL     hw 1506   4.149   6.393   2.898  1.7234 -0.6576  0.0487
  377SOL     hw 1507   4.097   6.385   3.040 -0.0131  0.3737 -0.4973
  377SOL     vw 1508   4.114   6.347   2.963  0.7031 -0.1249 -0.1104
  378SOL     ow 1509   5.983   6.867   1.041 -0.4088  0.2183  0.0627
  378SOL     hw 1510   5.934   6.820   1.109 -0.6453 -0.9426 -0.8791
  378SOL     hw 1511   5.924   6.937   1.013 -1.2244 -0.6783 -0.4975
  378SOL     vw 1512   5.969   6.870   1.046 -0.5476 -0.0532 -0.1354
  379SOL     ow 1513   6.390   2.682   1.868  0.4027 -0.1548 -0.3439
  379SOL     hw 1514   6.314   2.631   1.895  0.4124 -0.1574 -0.3216
  379SOL     hw 1515   6.458   2.659   1.932  0.1876  0.4563  0.1103
  379SOL     vw 1516   6.389   2.672   1.880  0.3757 -0.0745 -0.2810
  380SOL     ow 1517   3.559   0.070   3.049 -0.2485  0.3348 -0.4510
  380SOL     hw 1518   3.652   0.053   3.037  0.1197  0.4623  1.7643
  380SOL     hw 1519   3.527   0.093   2.961  1.8047  0.3887 -1.2393
  380SOL     vw 1520   3.567   0.071   3.036  0.0712  0.3587 -0.2626
  381SOL     ow 1521   0.234   5.154   3.738  0.7290 -0.3293  0.0483
  381SOL     hw 1522   0.296   5.117   3.675  1.4666 -1.3055  1.3011
  381SOL     hw 1523   0.281   5.154   3.822 -0.7958 -0.6764  0.9541
  381SOL     vw 1524   0.248   5.149   3.741  0.6251 -0.5035  0.3332
  382SOL     ow 1525   4.672   6.652   0.003 -0.4589 -0.0575 -0.0555
  382SOL     hw 1526   4.627   6.691   0.078  0.9652 -0.0261  0.8094
  382SOL     hw 1527   4.699   6.727  -0.050 -2.9135 -0.1060 -1.5565
  382SOL     vw 1528   4.669   6.667   0.006 -0.5949 -0.0598 -0.1395
  383SOL     ow 1529   2.735   3.327   6.503 -0.4958 -0.1393 -0.0892
  383SOL     hw 1530   2.766   3.334   6.593  0.7994 -2.3006 -0.2736
  383SOL     hw 1531   2.807   3.283   6.457 -1.4441  0.2040 -2.0056
  383SOL     vw 1532   2.749   3.322   6.509 -0.4500 -0.3792 -0.3667
  384SOL     ow 1533   5.239   6.542   4.799 -0.2043 -0.0651  0.1818
  384SOL     hw 1534   5.188   6.476   4.847 -0.3289 -0.6606 -0.7342
  384SOL     hw 1535   5.176   6.612   4.781 -0.1880  0.1054  0.7685
  384SOL     vw 1536   5.224   6.542   4.803 -0.2189 -0.1211  0.1385
  385SOL     ow 1537   3.722   1.125   3.612 -0.8431 -0.3143  0.0335
  385SOL     hw 1538   3.682   1.043   3.585 -1.4419  0.7978 -2.8963
  385SOL     hw 1539   3.806   1.100   3.652 -0.8091 -2.3321 -1.1877
  385SOL     vw 1540   3.728   1.111   3.614 -0.9177 -0.4338 -0.5144
  386SOL     ow 1541   5.233   3.064   3.175 -0.2514  0.2125  0.3487
  386SOL     hw 1542   5.218   3.041   3.083  1.7418 -0.4710  0.1452
  386SOL     hw 1543   5.160   3.024   3.222 -0.6116 -0.5289 -0.7977
  386SOL     vw 1544   5.221   3.056   3.169 -0.0360  0.0246  0.1707
  387SOL     ow 1545   4.491   0.822   6.407 -0.0365 -0.0289 -0.6539
  387SOL     hw 1546   4.560   0.850   6.346  0.2860 -0.5779 -0.5537
  387SOL     hw 1547   4.456   0.742   6.368  1.8690 -1.8264  1.0636
  387SOL     vw 1548   4.496   0.815   6.394  0.2573 -0.3385 -0.4144
  388SOL     ow 1549   5.290   1.634   1.478  0.3993  0.4676 -0.3017
  388SOL     hw 1550   5.358   1.589   1.527  1.6156  2.4421 -0.0669
  388SOL     hw 1551   5.210   1.584   1.496  1.4609 -0.8982  0.8099
  388SOL     vw 1552   5.288   1.622   1.487  0.6998  0.5479 -0.1241
  389SOL     ow 1553   5.356   3.456   0.005  0.4620 -0.4020  0.1884
  389SOL     hw 1554   5.354   3.456  -0.090  1.3005 -0.5526  0.1627
  389SOL     hw 1555   5.264   3.453   0.031  0.1739  0.8800 -0.6065
  389SOL     vw 1556   5.344   3.455  -0.004  0.5348 -0.2527  0.0801
  390SOL     ow 1557   4.009   2.017   6.571  0.1210  0.3174  0.0736
  390SOL     hw 1558   3.939   2.055   6.518 -0.2017 -2.2493 -1.4889
  390SOL     hw 1559   4.086   2.072   6.552 -0.4498  0.5953 -1.5830
  390SOL     vw 1560   4.010   2.029   6.561  0.0029  0.0154 -0.3512
  391SOL     ow 1561   5.565   2.983   3.875  0.2044 -0.0673  0.0878
  391SOL     hw 1562   5.626   3.057   3.872  0.5550 -0.3058  1.0542
  391SOL     hw 1563   5.483   3.018   3.842  0.7532  0.3583 -0.8866
  391SOL     vw 1564   5.562   2.997   3.870  0.3231 -0.0427  0.0868
  392SOL     ow 1565   1.472   3.432   2.265 -0.7427 -0.0007 -0.1934
  392SOL     hw 1566   1.426   3.385   2.195 -0.2589  0.6498 -0.9606
  392SOL     hw 1567   1.432   3.399   2.346 -0.2358 -1.9532 -0.6693
  392SOL     vw 1568   1.461   3.421   2.267 -0.6120 -0.1724 -0.3574
  393SOL     ow 1569   6.510   5.129   1.064 -0.1359  0.4457  0.4468
  393SOL     hw 1570   6.498   5.204   1.122 -0.0978  1.9728 -1.4491
  393SOL     hw 1571   6.603   5.129   1.043 -0.1251 -0.1738  0.4537
  393SOL     vw 1572   6.521   5.139   1.069 -0.1295  0.5655  0.1976
  394SOL     ow 1573   6.837   6.451   0.635 -0.0752 -0.0682  0.2704
  394SOL     hw 1574   6.860   6.401   0.713 -0.9954  0.2904  0.7823
  394SOL     hw 1575   6.846   6.543   0.661  2.3257  0.1226 -0.8721
  394SOL     vw 1576   6.841   6.457   0.649  0.1202  0.0043  0.1872
  395SOL     ow 1577   2.718   5.283   0.503 -0.2786  0.1194  0.2040
  395SOL     hw 1578   2.655   5.288   0.574  1.9994 -0.5193  2.4396
  395SOL     hw 1579   2.705   5.196   0.465  0.6239 -0.9118  2.1166
  395SOL     vw 1580   2.708   5.272   0.507  0.1410 -0.1011  0.7513
  396SOL     ow 1581   2.251   4.428   6.531 -0.1415 -0.1201 -0.5054
  396SOL     hw 1582   2.161   4.400   6.547  0.4263 -2.6710 -1.2989
  396SOL     hw 1583   2.292   4.429   6.618 -0.6086 -0.1728 -0.2805
  396SOL     vw 1584   2.244   4.424   6.545 -0.1281 -0.4635 -0.5805
  397SOL     ow 1585   1.081   2.623   1.667  0.1180  0.2508  0.5843
  397SOL     hw 1586   1.004   2.614   1.610  0.5572 -0.0701  0.0348
  397SOL     hw 1587   1.048   2.670   1.744 -0.7069 -0.2078  0.5191
  397SOL     vw 1588   1.066   2.628   1.669  0.0671  0.1479  0.5031
  398SOL     ow 1589   1.444   6.633   5.614  0.2391 -0.2819 -0.0817
  398SOL     hw 1590   1.536   6.657   5.624 -0.3266  1.3499  1.7570
  398SOL     hw 1591   1.410   6.631   5.704 -1.5697 -0.6455 -0.7382
  398SOL     vw 1592   1.452   6.636   5.627 -0.0741 -0.1147  0.0741
  399SOL     ow 1593   4.968   6.180   3.124 -0.9041  0.3944 -0.4228
  399SOL     hw 1594   4.902   6.247   3.104 -0.4821  1.0385  0.2947
  399SOL     hw 1595   4.933   6.134   3.200 -1.0725 -0.0507 -0.7616
  399SOL     vw 1596   4.955   6.183   3.131 -0.8707  0.4203 -0.3729
  400SOL     ow 1597   1.324   6.893   5.496 -0.3026  0.0646 -0.6439
  400SOL     hw 1598   1.376   6.922   5.571  2.3368 -0.2354 -2.2429
  400SOL     hw 1599   1.279   6.972   5.465  0.9990  0.8641 -0.5514
  400SOL     vw 1600   1.325   6.907   5.502  0.2174  0.1304 -0.8430
  401SOL     ow 1601   6.848   0.159   6.131 -0.0513  0.5018 -0.5801
  401SOL     hw 1602   6.909   0.137   6.061 -0.2360  1.3833 -1.0369
  401SOL     hw 1603   6.903   0.181   6.206  0.1496 -0.3102 -0.4860
  401SOL     vw 1604   6.863   0.159   6.132 -0.0491  0.5110 -0.6280
  402SOL     ow 1605   5.838   0.922   1.812  0.1021 -0.2773 -0.3088
  402SOL     hw 1606   5.764   0.864   1.831  0.3247 -0.4502  0.0549
  402SOL     hw 1607   5.836   0.934   1.717 -1.8327  1.6265 -0.1235
  402SOL     vw 1608   5.828   0.916   1.802 -0.1240 -0.0488 -0.2364
  403SOL     ow 1609   0.103   2.057   3.313  0.1136  0.7803 -0.3941
  403SOL     hw 1610   0.161   2.052   3.388  1.2605  0.3704 -1.2830
  403SOL     hw 1611   0.109   1.971   3.271 -0.6412  0.9421 -0.8553
  403SOL     vw 1612   0.111   2.045   3.317  0.1653  0.7476 -0.5722
  404SOL     ow 1613   0.972   4.246   3.373 -0.2057 -0.1043  0.2341
  404SOL     hw 1614   1.023   4.313   3.327 -1.2607  1.4385  1.1972
  404SOL     hw 1615   1.003   4.163   3.337  2.6575  0.7518  0.4878
  404SOL     vw 1616   0.983   4.244   3.362  0.0329  0.2122  0.3945
  405SOL     ow 1617   4.058   6.225   5.820 -0.0676  0.0056 -0.7455
  405SOL     hw 1618   4.103   6.163   5.762  0.0710 -1.0680  0.4519
  405SOL     hw 1619   4.001   6.275   5.762  0.8790 -0.2634 -1.9578
  405SOL     vw 1620   4.056   6.223   5.805  0.0758 -0.1717 -0.7477
  406SOL     ow 1621   3.918   3.278   5.244  0.4446  0.2977 -0.2895
  406SOL     hw 1622   3.840   3.263   5.192  0.1180  0.2664  0.2018
  406SOL     hw 1623   3.918   3.372   5.261 -0.4906  0.0641  1.2359
  406SOL     vw 1624   3.908   3.289   5.240  0.2781  0.2627 -0.0231
  407SOL     ow 1625   4.201   4.329   1.052  0.2940  0.2557  0.3158
  407SOL     hw 1626   4.238   4.401   1.000  4.4637 -1.9994 -0.3047
  407SOL     hw 1627   4.141   4.372   1.113  2.4865  4.2687  0.0231
  407SOL     vw 1628   4.198   4.344   1.053  1.1334  0.4876  0.1953
  408SOL     ow 1629   4.518   5.977   2.396  0.4311 -0.1751 -0.3662
  408SOL     hw 1630   4.509   5.923   2.318  1.1635 -0.5078 -0.2241
  408SOL     hw 1631   4.431   5.975   2.436 -0.1514  0.5896 -1.5412
  408SOL     vw 1632   4.505   5.969   2.391  0.4508 -0.1183 -0.5025
  409SOL     ow 1633   6.711   2.166   3.249 -0.0462  0.4235  0.4451
  409SOL     hw 1634   6.647   2.230   3.219  0.3942  0.0462 -1.4882
  409SOL     hw 1635   6.667   2.081   3.240  0.2842  0.2604  0.3177
  409SOL     vw 1636   6.697   2.163   3.244  0.0558  0.3523  0.1732
  410SOL     ow 1637   3.217   1.454   1.415 -0.3513  0.0262 -0.1737
  410SOL     hw 1638   3.130   1.420   1.434  0.1947 -1.2746  0.0840
  410SOL     hw 1639   3.220   1.462   1.320 -0.5744 -0.3972 -0.2163
  410SOL     vw 1640   3.206   1.451   1.405 -0.3086 -0.2013 -0.1454
  411SOL     ow 1641   3.345   1.235   4.915 -0.0422  0.5343 -0.4628
  411SOL     hw 1642   3.317   1.197   4.832  0.4888  0.4967 -0.6271
  411SOL     hw 1643   3.399   1.310   4.890  1.0694 -0.1471 -0.1741
  411SOL     vw 1644   3.348   1.240   4.901  0.1746  0.4394 -0.4468
  412SOL     ow 1645   1.814   1.417   3.549 -0.7496  0.2277 -0.1699
  412SOL     hw 1646   1.819   1.498   3.497 -0.1034 -0.1190 -0.6581
  412SOL     hw 1647   1.830   1.445   3.639  0.1104  0.5655 -0.4157
  412SOL     vw 1648   1.817   1.432   3.554 -0.5509  0.2266 -0.2668
  413SOL     ow 1649   4.259   5.600   3.657  0.1609  0.3178 -0.3670
  413SOL     hw 1650   4.340   5.554   3.679 -0.1706 -0.1872 -0.1763
  413SOL     hw 1651   4.200   5.531   3.628 -0.4942  0.5662  0.3615
  413SOL     vw 1652   4.262   5.585   3.656  0.0308  0.2840 -0.2457
  414SOL     ow 1653   6.429   4.276   5.116  0.0518 -0.2027 -0.3107
  414SOL     hw 1654   6.357   4.221   5.085  0.2707  0.4535 -2.1173
  414SOL     hw 1655   6.505   4.245   5.068  0.9244 -0.6379  1.2978
  414SOL     vw 1656   6.429   4.265   5.105  0.1957 -0.1738 -0.3366
  415SOL     ow 1657   2.120   3.675   5.243  0.2933 -0.0416 -0.7831
  415SOL     hw 1658   2.214   3.660   5.258 -0.1635 -1.7045  0.7427
  415SOL     hw 1659   2.104   3.762   5.279  1.0874 -0.1481 -0.1317
  415SOL     vw 1660   2.131   3.684   5.250  0.3376 -0.2750 -0.4957
  416SOL     ow 1661   1.360   0.707   2.364 -0.3759 -0.6645 -0.2324
  416SOL     hw 1662   1.401   0.725   2.279 -2.6511 -0.1018 -1.2744
  416SOL     hw 1663   1.266   0.704   2.346 -0.8258 -2.6403  1.9192
  416SOL     vw 1664   1.353   0.709   2.351 -0.7355 -0.8510 -0.0862
  417SOL     ow 1665   3.220   0.410   0.990 -0.0621  0.2329 -0.1214
  417SOL     hw 1666   3.130   0.409   0.956 -0.0151 -1.0218 -0.2652
  417SOL     hw 1667   3.210   0.428   1.083 -0.4896 -0.0878 -0.0973
  417SOL     vw 1668   3.207   0.412   0.998 -0.1124  0.0251 -0.1372
  418SOL     ow 1669   2.858   3.802   2.762  0.2493  0.0107 -0.1301
  418SOL     hw 1670   2.840   3.752   2.683  2.2086 -0.9811 -0.0243
  418SOL     hw 1671   2.953   3.811   2.763  0.1604  1.1274  1.4427
  418SOL     vw 1672   2.868   3.796   2.752  0.4963  0.0271  0.0912
  419SOL     ow 1673   2.358   4.421   6.771 -0.1964  0.0747 -0.8119
  419SOL     hw 1674   2.283   4.406   6.829  0.3536  1.4412  0.3096
  419SOL     hw 1675   2.416   4.478   6.822  1.1020 -0.0842 -2.0762
  419SOL     vw 1676   2.356   4.427   6.786  0.0474  0.2339 -0.8309
  420SOL     ow 1677   0.450   3.626   6.552 -0.1398 -0.3344  0.0575
  420SOL     hw 1678   0.517   3.619   6.484 -1.1566 -3.3675 -0.7802
  420SOL     hw 1679   0.489   3.582   6.628 -0.1169  0.4726  0.5248
  420SOL     vw 1680   0.464   3.619   6.553 -0.2709 -0.6281  0.0083
  421SOL     ow 1681   6.103   0.365   2.965  0.0893  0.2086 -0.3269
  421SOL     hw 1682   6.082   0.445   3.013  1.5276 -0.0125  0.7472
  421SOL     hw 1683   6.018   0.330   2.938 -0.7608  0.6693  1.5541
  421SOL     vw 1684   6.089   0.371   2.968  0.1669  0.2402  0.0631
  422SOL     ow 1685   0.424   5.353   4.011  0.4711 -0.3758 -1.2357
  422SOL     hw 1686   0.378   5.403   3.943  0.3204 -1.2741 -1.8031
  422SOL     hw 1687   0.440   5.268   3.972  0.8736 -0.7275 -0.3302
  422SOL     vw 1688   0.420   5.348   3.997  0.5043 -0.5407 -1.1911
  423SOL     ow 1689   5.428   3.992   5.989  0.2060 -0.3171 -0.2925
  423SOL     hw 1690   5.410   4.034   6.073 -0.3646  0.2751 -0.6929
  423SOL     hw 1691   5.512   4.030   5.961 -0.0953  0.2461 -0.4508
  423SOL     vw 1692   5.437   4.003   5.996  0.0913 -0.1647 -0.3660
  424SOL     ow 1693   5.840   3.907   5.159  0.4301  0.1116 -0.4170
  424SOL     hw 1694   5.931   3.878   5.163 -0.2151 -2.1029 -0.7443
  424SOL     hw 1695   5.834   3.954   5.075  1.1494 -0.1282 -0.6158
  424SOL     vw 1696   5.851   3.910   5.148  0.4399 -0.2122 -0.4864
  425SOL     ow 1697   3.543   4.032   1.727  0.2107  0.1689  0.1432
  425SOL     hw 1698   3.614   4.095   1.722 -0.2273  0.6698  0.1616
  425SOL     hw 1699   3.576   3.955   1.681  0.7882  0.3681  0.2119
  425SOL     vw 1700   3.557   4.030   1.720  0.2290  0.2613  0.1547
  426SOL     ow 1701   0.126   1.342   6.413  0.1512 -0.7074  0.0954
  426SOL     hw 1702   0.152   1.250   6.425  1.7012 -0.2934  0.1237
  426SOL     hw 1703   0.092   1.368   6.499  0.4308 -1.0366  0.3116
  426SOL     vw 1704   0.125   1.333   6.426  0.3926 -0.6962  0.1278
  427SOL     ow 1705   1.279   5.351   2.944 -0.0102  0.2492  0.4377
  427SOL     hw 1706   1.331   5.277   2.914  0.4598  0.5122  0.6030
  427SOL     hw 1707   1.201   5.349   2.888 -0.2700 -0.6967  0.8042
  427SOL     vw 1708   1.275   5.341   2.932  0.0176  0.1590  0.5080
  428SOL     ow 1709   6.280   1.877   1.879  0.1341  0.3173 -1.1518
  428SOL     hw 1710   6.229   1.882   1.960 -0.3071  1.3555 -1.4711
  428SOL     hw 1711   6.242   1.803   1.831  0.7090 -0.6059 -0.2258
  428SOL     vw 1712   6.268   1.868   1.883  0.1516  0.3325 -1.0717
  429SOL     ow 1713   2.465   5.572   6.206  0.2468 -0.5533 -0.3710
  429SOL     hw 1714   2.537   5.564   6.269 -0.2204  1.1942  0.4558
  429SOL     hw 1715   2.484   5.653   6.159 -0.5577 -0.6956 -0.9616
  429SOL     vw 1716   2.477   5.582   6.208  0.0789 -0.3414 -0.3397
  430SOL     ow 1717   5.622   1.746   5.607  0.1468 -0.5396  0.7607
  430SOL     hw 1718   5.628   1.842   5.611 -1.1644 -0.2501 -1.8895
  430SOL     hw 1719   5.689   1.721   5.544 -0.4306 -1.2072  0.4030
  430SOL     vw 1720   5.631   1.756   5.599 -0.1023 -0.5895  0.3641
  431SOL     ow 1721   1.566   3.270   6.889 -0.1316 -0.2121 -0.4116
  431SOL     hw 1722   1.592   3.329   6.818  0.1755 -0.9116 -0.8967
  431SOL     hw 1723   1.535   3.328   6.958  2.9872  0.7537  0.3694
  431SOL     vw 1724   1.566   3.285   6.888  0.3204 -0.1769 -0.3725
  432SOL     ow 1725   3.760   4.705   1.876 -0.1769  0.1777 -0.2473
  432SOL     hw 1726   3.741   4.700   1.970 -1.1828  0.8256 -0.3957
  432SOL     hw 1727   3.685   4.753   1.840  0.0567 -0.3291 -1.4236
  432SOL     vw 1728   3.748   4.711   1.884 -0.2787  0.1965 -0.4221
  433SOL     ow 1729   6.632   3.390   3.258 -0.3346 -0.8539 -0.3427
  433SOL     hw 1730   6.610   3.397   3.351  1.4502  1.1167  0.0039
  433SOL     hw 1731   6.607   3.301   3.235  0.2282 -1.8273  2.3460
  433SOL     vw 1732   6.626   3.379   3.267 -0.0248 -0.7224  0.0577
  434SOL     ow 1733   6.213   6.179   0.530  0.4376 -0.1818 -0.2692
  434SOL     hw 1734   6.273   6.116   0.570  0.3480 -0.0162  0.1303
  434SOL     hw 1735   6.161   6.128   0.469  0.4600 -0.4680 -0.0479
  434SOL     vw 1736   6.214   6.164   0.528  0.4289 -0.1976 -0.1873
  435SOL     ow 1737   4.690   4.432   2.264  0.1978  0.0969 -0.2642
  435SOL     hw 1738   4.629   4.401   2.197  1.0042  0.5470 -1.2259
  435SOL     hw 1739   4.769   4.380   2.251 -0.3141 -1.3206  1.7390
  435SOL     vw 1740   4.692   4.421   2.253  0.2365 -0.0305 -0.1266
  436SOL     ow 1741   5.010   1.344   4.847 -0.0746  0.5136 -0.3200
  436SOL     hw 1742   4.972   1.262   4.816  0.0806  0.5922 -0.7289
  436SOL     hw 1743   5.068   1.318   4.919 -1.2994  0.4507  0.6926
  436SOL     vw 1744   5.013   1.330   4.853 -0.2160  0.5156 -0.2401
  437SOL     ow 1745   6.610   0.580   2.439 -0.0034  0.4465 -0.4605
  437SOL     hw 1746   6.624   0.674   2.429  1.7596  0.3209  0.3602
  437SOL     hw 1747   6.611   0.546   2.349 -1.2490  1.2573 -0.8016
  437SOL     vw 1748   6.612   0.588   2.426  0.0648  0.5369 -0.3972
  438SOL     ow 1749   5.544   5.298   0.773 -0.0894 -0.1886 -0.1689
  438SOL     hw 1750   5.588   5.342   0.845 -1.3175 -1.7564  1.6454
  438SOL     hw 1751   5.593   5.216   0.761 -1.1008 -0.8853  0.3206
  438SOL     vw 1752   5.556   5.293   0.781 -0.3848 -0.4871  0.1350
  439SOL     ow 1753   4.324   6.108   1.785 -0.1030 -0.4489  0.1279
  439SOL     hw 1754   4.343   6.048   1.857 -1.1783 -0.4320  0.4432
  439SOL     hw 1755   4.272   6.055   1.724  2.2197 -1.0066 -1.5200
  439SOL     vw 1756   4.320   6.093   1.786  0.0618 -0.5200 -0.0479
  440SOL     ow 1757   3.651   4.099   6.519  0.0330  0.5310 -0.1631
  440SOL     hw 1758   3.665   4.157   6.444  0.7035  0.7051  0.0931
  440SOL     hw 1759   3.720   4.033   6.511 -0.3333  0.1408 -0.0943
  440SOL     vw 1760   3.662   4.098   6.508  0.0731  0.5026 -0.1199
  441SOL     ow 1761   2.721   6.365   2.482  0.3264  0.3247 -0.0918
  441SOL     hw 1762   2.652   6.300   2.498 -0.8766  1.5534 -0.0738
  441SOL     hw 1763   2.701   6.437   2.542  2.4403  0.1590  0.8737
  441SOL     vw 1764   2.709   6.366   2.492  0.4467  0.4652  0.0380
  442SOL     ow 1765   4.926   2.369   3.345  0.1564 -0.2324 -0.8102
  442SOL     hw 1766   4.980   2.317   3.285  0.8416 -1.7194  0.9951
  442SOL     hw 1767   4.836   2.349   3.319  0.3789 -2.6924  0.0001
  442SOL     vw 1768   4.922   2.359   3.333  0.2761 -0.7532 -0.4652
  443SOL     ow 1769   6.607   0.850   2.372  0.2659 -0.2871 -0.2415
  443SOL     hw 1770   6.620   0.902   2.292  1.8999  1.2309  0.9298
  443SOL     hw 1771   6.529   0.887   2.412 -0.4624 -0.9410 -1.0187
  443SOL     vw 1772   6.598   0.862   2.367  0.3853 -0.1731 -0.1895
  444SOL     ow 1773   1.767   1.701   0.085  0.3615 -0.0379 -0.4175
  444SOL     hw 1774   1.702   1.753   0.038 -0.2304  1.4380  1.8908
  444SOL     hw 1775   1.718   1.624   0.115  0.5980 -0.6848 -1.6061
  444SOL     vw 1776   1.752   1.697   0.083  0.3146  0.0715 -0.2697
  445SOL     ow 1777   5.146   0.904   1.592 -0.0903  0.4830  0.0507
  445SOL     hw 1778   5.166   0.970   1.526 -1.4087  1.7062  0.8302
  445SOL     hw 1779   5.198   0.929   1.668  0.0913  0.0878  0.0607
  445SOL     vw 1780   5.155   0.916   1.593 -0.2406  0.5922  0.1549
  446SOL     ow 1781   2.220   6.738   0.403 -0.1226 -0.0419  0.0281
  446SOL     hw 1782   2.218   6.784   0.319  0.0877  2.0063  1.0801
  446SOL     hw 1783   2.132   6.752   0.439 -0.8923 -2.6273 -0.6618
  446SOL     vw 1784   2.208   6.746   0.397 -0.1966 -0.1130  0.0758
  447SOL     ow 1785   2.932   1.554   4.269  0.4312  0.0115 -0.0548
  447SOL     hw 1786   2.950   1.472   4.317  1.0638  0.5345  0.6272
  447SOL     hw 1787   2.837   1.563   4.273  0.5272  0.6075  2.1275
  447SOL     vw 1788   2.922   1.544   4.276  0.5274  0.1591  0.3233
  448SOL     ow 1789   6.296   2.609   4.491 -0.4680  0.4934  0.9880
  448SOL     hw 1790   6.387   2.593   4.464 -0.6229  0.1673  0.6483
  448SOL     hw 1791   6.301   2.617   4.586 -0.3723 -1.7738  1.2395
  448SOL     vw 1792   6.309   2.608   4.500 -0.4759  0.1513  0.9766
  449SOL     ow 1793   5.298   6.444   1.631 -0.1902  0.1037 -0.0657
  449SOL     hw 1794   5.379   6.397   1.615  0.0779  0.2738  0.7635
  449SOL     hw 1795   5.242   6.382   1.678  0.1985  0.6221  1.1098
  449SOL     vw 1796   5.301   6.430   1.635 -0.1035  0.1943  0.1988
  450SOL     ow 1797   3.085   3.209   1.734  0.5407 -0.0317 -0.7564
  450SOL     hw 1798   3.133   3.251   1.662  0.8536 -0.0775 -0.5798
  450SOL     hw 1799   3.083   3.117   1.710 -0.0605  0.0680 -1.0967
  450SOL     vw 1800   3.091   3.203   1.721  0.5026 -0.0246 -0.7780
  451SOL     ow 1801   4.123   4.176   2.052 -0.5681 -0.4422  0.1494
  451SOL     hw 1802   4.166   4.175   2.137 -1.0810 -2.1026  0.4078
  451SOL     hw 1803   4.179   4.232   1.998 -0.1905  0.5690  1.5204
  451SOL     vw 1804   4.136   4.183   2.056 -0.5860 -0.5279  0.3645
  452SOL     ow 1805   2.903   6.328   5.344  0.5270  0.7232 -0.4247
  452SOL     hw 1806   2.906   6.391   5.272 -2.6663  0.6020 -0.8127
  452SOL     hw 1807   2.843   6.259   5.313  1.6394 -1.0337  1.1206
  452SOL     vw 1808   2.895   6.327   5.330  0.2526  0.4752 -0.2720
  453SOL     ow 1809   6.630   0.503   0.335 -0.0910  0.3453  0.3684
  453SOL     hw 1810   6.707   0.555   0.353  0.1170  0.4654 -0.7562
  453SOL     hw 1811   6.611   0.458   0.417  0.5223  1.1486  0.9638
  453SOL     vw 1812   6.638   0.504   0.348  0.0172  0.4672  0.2986
  454SOL     ow 1813   4.399   5.230   2.674  0.6047 -0.0188  0.4858
  454SOL     hw 1814   4.469   5.231   2.739 -0.1263 -1.7062  1.3745
  454SOL     hw 1815   4.346   5.154   2.698 -2.0731  1.6945  0.4541
  454SOL     vw 1816   4.401   5.220   2.686  0.1547 -0.0155  0.5988
  455SOL     ow 1817   5.992   1.590   0.468  0.0253  0.2782 -0.0520
  455SOL     hw 1818   5.965   1.670   0.422 -1.6117  0.0655  0.4558
  455SOL     hw 1819   6.004   1.617   0.559  3.1090  0.6642 -0.4823
  455SOL     vw 1820   5.990   1.604   0.474  0.2160  0.3011 -0.0418
  456SOL     ow 1821   3.319   2.741   2.790 -0.6320 -0.1849  0.2240
  456SOL     hw 1822   3.276   2.704   2.713  0.3983 -0.9762  0.0054
  456SOL     hw 1823   3.401   2.691   2.798  0.5193  1.6326  0.2960
  456SOL     vw 1824   3.324   2.729   2.781 -0.3440 -0.0494  0.2048
  457SOL     ow 1825   5.536   3.660   4.304  0.1785 -0.0341 -0.6106
  457SOL     hw 1826   5.582   3.675   4.387 -1.1338 -0.7692  0.2827
  457SOL     hw 1827   5.584   3.588   4.263  0.2353 -0.3328 -0.0266
  457SOL     vw 1828   5.549   3.653   4.310  0.0131 -0.1705 -0.4158
  458SOL     ow 1829   5.833   3.919   2.669  0.2707  0.3247  0.7070
  458SOL     hw 1830   5.877   3.993   2.711  0.5898  1.1409 -0.9703
  458SOL     hw 1831   5.743   3.923   2.701 -0.2025  2.5946 -0.6862
  458SOL     vw 1832   5.827   3.929   2.678  0.2503  0.7318  0.3018
  459SOL     ow 1833   0.471   5.461   4.240 -0.0053 -0.4826 -0.2240
  459SOL     hw 1834   0.449   5.435   4.150  3.3377  0.3898 -1.4603
  459SOL     hw 1835   0.487   5.556   4.234  2.5079 -0.7738  0.6672
  459SOL     vw 1836   0.470   5.470   4.227  0.7674 -0.4058 -0.2694
  460SOL     ow 1837   4.349   4.582   5.138  0.2842  0.4092 -0.3967
  460SOL     hw 1838   4.373   4.656   5.193  0.3380  0.4643 -0.4945
  460SOL     hw 1839   4.297   4.620   5.067 -0.5810  0.2177  0.1167
  460SOL     vw 1840   4.345   4.596   5.136  0.1774  0.3912 -0.3419
  461SOL     ow 1841   1.945   0.600   3.462 -0.0892  0.4045 -0.3328
  461SOL     hw 1842   1.866   0.622   3.512  0.2495  1.3483 -0.1829
  461SOL     hw 1843   2.015   0.649   3.506  0.1878  1.4124 -1.8400
  461SOL     vw 1844   1.944   0.610   3.475 -0.0079  0.6620 -0.5119
  462SOL     ow 1845   4.012   6.293   0.710 -0.2334 -0.1542 -0.3507
  462SOL     hw 1846   4.035   6.318   0.621  3.0958  0.4352  0.5525
  462SOL     hw 1847   3.955   6.363   0.741 -0.1584  0.4249 -1.4846
  462SOL     vw 1848   4.007   6.305   0.702  0.2158  0.0000 -0.3811
  463SOL     ow 1849   2.524   2.069   6.005 -0.1038 -0.2986 -0.4321
  463SOL     hw 1850   2.460   2.111   5.946 -0.9965  0.4512  1.0172
  463SOL     hw 1851   2.572   2.008   5.948 -0.3625  0.9762 -2.1141
  463SOL     vw 1852   2.522   2.067   5.989 -0.2557 -0.0316 -0.4628
  464SOL     ow 1853   2.063   6.244   6.696  0.4948  0.2086 -0.8858
  464SOL     hw 1854   2.025   6.239   6.608  0.0268 -1.5539 -0.6266
  464SOL     hw 1855   2.057   6.154   6.730 -0.5347  1.0807  1.4548
  464SOL     vw 1856   2.057   6.231   6.689  0.2971  0.0913 -0.5426
  465SOL     ow 1857   6.751   0.829   6.333 -0.0402 -0.3758  0.5365
  465SOL     hw 1858   6.810   0.817   6.407 -0.4304  1.5469  1.2140
  465SOL     hw 1859   6.789   0.901   6.283 -1.6012  0.6851  0.8130
  465SOL     vw 1860   6.764   0.837   6.336 -0.2975  0.0178  0.6621
  466SOL     ow 1861   6.597   2.720   6.816  0.2461 -0.5643 -0.0638
  466SOL     hw 1862   6.642   2.730   6.900 -2.7769 -0.9642  1.7541
  466SOL     hw 1863   6.587   2.626   6.805  0.1431 -0.4944 -0.5947
  466SOL     vw 1864   6.602   2.709   6.825 -0.1664 -0.6077  0.1059
  467SOL     ow 1865   4.913   1.001   6.779 -0.1883 -0.4515 -0.1350
  467SOL     hw 1866   4.844   0.999   6.845  1.7720 -0.9257  2.0323
  467SOL     hw 1867   4.874   0.960   6.702 -2.1099 -1.2874  1.2065
  467SOL     vw 1868   4.899   0.996   6.777 -0.1833 -0.6244  0.3278
  468SOL     ow 1869   3.301   1.884   3.325  0.0443  0.1373  0.1991
  468SOL     hw 1870   3.355   1.825   3.272  0.0486 -0.7310  1.1537
  468SOL     hw 1871   3.358   1.958   3.344  0.3644 -0.0119 -0.1617
  468SOL     vw 1872   3.316   1.886   3.320  0.0871  0.0030  0.2775
  469SOL     ow 1873   1.745   2.785   6.173  0.0148 -0.2783  0.2199
  469SOL     hw 1874   1.665   2.733   6.177 -1.1048  1.3499 -0.2272
  469SOL     hw 1875   1.731   2.855   6.237  0.2818  1.0724 -1.1514
  469SOL     vw 1876   1.733   2.787   6.182 -0.0977  0.1147 -0.0200
  470SOL     ow 1877   5.815   0.169   6.608  0.0890 -0.3399 -1.0222
  470SOL     hw 1878   5.880   0.240   6.609  0.4521 -0.6622  0.5277
  470SOL     hw 1879   5.731   0.214   6.597  0.0243  0.6735  2.5419
  470SOL     vw 1880   5.813   0.185   6.606  0.1283 -0.2487 -0.3476
  471SOL     ow 1881   2.330   0.087   6.337  0.1178 -0.0331 -0.0244
  471SOL     hw 1882   2.369   0.088   6.425 -0.1403  0.0405  0.0886
  471SOL     hw 1883   2.244   0.048   6.350  0.2705 -0.4713 -0.3259
  471SOL     vw 1884   2.324   0.082   6.351  0.1040 -0.0812 -0.0496
  472SOL     ow 1885   0.092   0.814   5.405  0.0298  0.0464 -0.2662
  472SOL     hw 1886   0.117   0.885   5.464 -2.9378  0.5271  0.5497
  472SOL     hw 1887   0.023   0.767   5.451 -0.3841 -1.3525 -2.1729
  472SOL     vw 1888   0.086   0.817   5.418 -0.4163 -0.0747 -0.4101
  473SOL     ow 1889   3.817   4.025   3.048  0.4373 -0.0193 -0.3553
  473SOL     hw 1890   3.910   4.043   3.035  0.1426  0.4497 -2.0192
  473SOL     hw 1891   3.811   3.930   3.052  0.9739 -0.0523 -0.2015
  473SOL     vw 1892   3.829   4.015   3.047  0.4692  0.0384 -0.5546
  474SOL     ow 1893   0.657   4.533   1.361 -0.2699 -0.2496  0.3152
  474SOL     hw 1894   0.652   4.627   1.376  0.6625 -0.4571  2.2210
  474SOL     hw 1895   0.747   4.518   1.331 -0.2032 -0.6020  0.6831
  474SOL     vw 1896   0.668   4.543   1.359 -0.1381 -0.3238  0.6151
  475SOL     ow 1897   1.624   6.868   6.243  0.3108  0.4433  0.1076
  475SOL     hw 1898   1.565   6.812   6.193 -0.2666  1.6867 -0.6691
  475SOL     hw 1899   1.712   6.837   6.220  0.0396  0.6487 -1.3035
  475SOL     vw 1900   1.628   6.857   6.233  0.1988  0.6342 -0.1812
  476SOL     ow 1901   1.144   4.674   1.946  0.5542  0.2564  0.1635
  476SOL     hw 1902   1.182   4.732   2.011  1.1051 -0.2367  0.2836
  476SOL     hw 1903   1.051   4.668   1.971  0.9740 -0.8056  1.5679
  476SOL     vw 1904   1.136   4.681   1.958  0.6822  0.0510  0.3646
  477SOL     ow 1905   4.061   1.851   0.856 -0.5376 -0.0112  0.0062
  477SOL     hw 1906   4.064   1.946   0.869  0.6943 -0.2013  1.4748
  477SOL     hw 1907   3.972   1.826   0.884 -0.4987  0.5854  0.6955
  477SOL     vw 1908   4.049   1.860   0.862 -0.3700  0.0425  0.2909
  478SOL     ow 1909   5.922   1.991   3.112 -0.9978  0.4724 -0.6763
  478SOL     hw 1910   5.905   1.900   3.137 -1.1273  0.7772  0.3727
  478SOL     hw 1911   5.836   2.033   3.111 -0.8255  0.8596 -0.0110
  478SOL     vw 1912   5.909   1.985   3.115 -0.9918  0.5637 -0.4501
  479SOL     ow 1913   3.117   3.376   1.995  0.2007 -0.6860  0.0730
  479SOL     hw 1914   3.119   3.385   2.090  2.2837  0.9985 -0.0523
  479SOL     hw 1915   3.054   3.443   1.966  1.3510  0.4800  0.1802
  479SOL     vw 1916   3.109   3.386   2.004  0.6273 -0.3098  0.0706
  480SOL     ow 1917   4.141   2.210   1.155  0.6170  0.2219 -0.0517
  480SOL     hw 1918   4.166   2.298   1.128  1.0315 -0.5668 -2.5363
  480SOL     hw 1919   4.129   2.162   1.073 -1.5799 -1.5306  1.1574
  480SOL     vw 1920   4.143   2.215   1.141  0.3817 -0.1134 -0.2200
  481SOL     ow 1921   1.633   4.930   6.448 -0.0195  0.0308 -1.0377
  481SOL     hw 1922   1.617   4.932   6.542  0.0872 -1.7811 -0.9567
  481SOL     hw 1923   1.547   4.942   6.409  0.1160  2.2628 -0.7654
  481SOL     vw 1924   1.620   4.932   6.455  0.0124  0.0865 -0.9913
  482SOL     ow 1925   2.216   2.642   6.476  0.1225  0.4367 -0.3908
  482SOL     hw 1926   2.243   2.721   6.522 -0.7683 -0.4240  1.7398
  482SOL     hw 1927   2.290   2.582   6.487  0.4101  0.6241 -1.1956
  482SOL     vw 1928   2.229   2.644   6.483  0.0429  0.3477 -0.2158
  483SOL     ow 1929   6.123   2.661   4.204 -0.3999 -1.1013  0.3083
  483SOL     hw 1930   6.141   2.749   4.171  0.6872 -0.6383  2.0084
  483SOL     hw 1931   6.110   2.608   4.125  1.3890  0.0793 -0.8508
  483SOL     vw 1932   6.124   2.666   4.190 -0.0203 -0.8845  0.3798
  484SOL     ow 1933   3.047   3.818   0.813  1.0512 -0.6164  1.0516
  484SOL     hw 1934   2.970   3.834   0.867  0.0821  0.7227 -0.5976
  484SOL     hw 1935   3.036   3.729   0.780 -0.2075 -0.1888  0.2584
  484SOL     vw 1936   3.036   3.809   0.816  0.7573 -0.3834  0.7293
  485SOL     ow 1937   3.496   3.561   4.738  0.3325  0.1859  0.1688
  485SOL     hw 1938   3.487   3.646   4.782 -0.5423  0.8526 -1.2174
  485SOL     hw 1939   3.448   3.572   4.656  0.5614 -1.5315 -0.2252
  485SOL     vw 1940   3.488   3.574   4.733  0.2472  0.0472 -0.0660
  486SOL     ow 1941   3.220   5.628   2.895  0.2649  0.0206 -0.0374
  486SOL     hw 1942   3.186   5.702   2.844  0.1678  0.2646  0.3808
  486SOL     hw 1943   3.310   5.654   2.916 -0.3202  0.8196  1.6209
  486SOL     vw 1944   3.227   5.641   2.891  0.1749  0.1581  0.2366
  487SOL     ow 1945   2.931   3.734   3.033 -0.1238  0.0126 -0.5074
  487SOL     hw 1946   2.984   3.660   3.004 -0.8193  0.2379 -2.5828
  487SOL     hw 1947   2.981   3.774   3.104  1.9014 -0.5068 -1.5494
  487SOL     vw 1948   2.945   3.730   3.038  0.0516 -0.0262 -0.9187
  488SOL     ow 1949   1.998   5.416   0.796 -0.2904 -0.3348  0.5054
  488SOL     hw 1950   1.950   5.497   0.780 -0.7636 -0.9999 -1.7916
  488SOL     hw 1951   1.942   5.347   0.761  0.9291 -1.4747  0.7096
  488SOL     vw 1952   1.985   5.417   0.789 -0.1919 -0.5729  0.2292
  489SOL     ow 1953   4.113   4.670   0.067 -0.4690  0.0260 -0.2551
  489SOL     hw 1954   4.050   4.711   0.008  0.1720 -1.4538 -2.0828
  489SOL     hw 1955   4.184   4.641   0.010  0.2361 -1.4003  1.2545
  489SOL     vw 1956   4.114   4.671   0.052 -0.2911 -0.3574 -0.2971
  490SOL     ow 1957   4.993   2.557   3.602 -0.1547 -0.2106 -0.4949
  490SOL     hw 1958   4.925   2.521   3.659 -2.2914  0.6315 -2.3596
  490SOL     hw 1959   5.017   2.641   3.643  0.2403 -0.7970  0.4996
  490SOL     vw 1960   4.988   2.564   3.615 -0.3841 -0.1768 -0.6096
  491SOL     ow 1961   1.488   5.610   4.669 -0.3682 -0.2831 -0.5768
  491SOL     hw 1962   1.445   5.650   4.745 -0.9663 -0.1326 -0.9843
  491SOL     hw 1963   1.532   5.683   4.625  0.8297 -0.5405  0.1764
  491SOL     vw 1964   1.488   5.625   4.673 -0.2890 -0.2971 -0.5312
  492SOL     ow 1965   3.720   5.767   5.335 -0.2924 -0.4511 -0.5350
  492SOL     hw 1966   3.725   5.700   5.403  0.5239 -0.8236 -0.9529
  492SOL     hw 1967   3.787   5.831   5.359 -1.3816  0.4807  0.1218
  492SOL     vw 1968   3.729   5.767   5.347 -0.3287 -0.3774 -0.5035
  493SOL     ow 1969   5.427   5.045   0.067 -0.3801  0.1471 -0.2912
  493SOL     hw 1970   5.385   4.980   0.123 -2.1314  1.0879 -0.4310
  493SOL     hw 1971   5.521   5.027   0.075 -0.7190 -1.2323  1.0642
  493SOL     vw 1972   5.434   5.034   0.075 -0.6561  0.0894 -0.1308
  494SOL     ow 1973   5.259   4.915   3.399  0.2833  0.1870  0.1461
  494SOL     hw 1974   5.334   4.897   3.454 -0.0460 -0.8523  0.2827
  494SOL     hw 1975   5.296   4.930   3.312  0.6851  0.1087  0.3021
  494SOL     vw 1976   5.274   4.914   3.395  0.2928  0.0398  0.1848
  495SOL     ow 1977   1.615   0.249   6.858  0.0512 -0.9301 -0.0347
  495SOL     hw 1978   1.571   0.251   6.773 -1.6053  0.7429  0.7899
  495SOL     hw 1979   1.674   0.325   6.856  0.1518 -0.9975  0.2461
  495SOL     vw 1980   1.617   0.259   6.847 -0.1540 -0.7182  0.1109
  496SOL     ow 1981   2.740   4.919   4.346 -0.1929  0.2620 -1.0116
  496SOL     hw 1982   2.797   4.859   4.298 -0.0447  0.8545 -1.6044
  496SOL     hw 1983   2.722   4.990   4.283  1.8141  2.2294  0.4430
  496SOL     vw 1984   2.745   4.921   4.332  0.0914  0.5999 -0.8979
  497SOL     ow 1985   6.885   3.193   5.201  0.2494  0.5024 -0.0163
  497SOL     hw 1986   6.842   3.211   5.118  2.5248 -0.7464 -1.5500
  497SOL     hw 1987   6.923   3.277   5.227  1.7366  0.3612 -1.6167
  497SOL     vw 1988   6.884   3.207   5.194  0.7458  0.3190 -0.4299
  498SOL     ow 1989   0.666   5.186   6.734  0.0237  0.5593  0.2107
  498SOL     hw 1990   0.653   5.180   6.829 -0.5036  0.9467  0.1633
  498SOL     hw 1991   0.746   5.136   6.718  0.7647  1.4540  1.0043
  498SOL     vw 1992   0.675   5.178   6.745  0.0519  0.7284  0.3092
  499SOL     ow 1993   2.086   0.853   5.356 -0.1392 -0.9040  0.0841
  499SOL     hw 1994   2.165   0.805   5.332  0.0126 -1.4088  1.5106
  499SOL     hw 1995   2.018   0.816   5.299  0.3848 -1.3842 -0.2427
  499SOL     vw 1996   2.087   0.842   5.345 -0.0501 -1.0339  0.2289
  500SOL     ow 1997   5.655   4.997   4.993 -0.2281  0.6025 -0.2915
  500SOL     hw 1998   5.739   5.044   4.988 -0.4353  0.9047 -0.9903
  500SOL     hw 1999   5.589   5.066   4.999 -0.4670  0.3774 -0.3162
  500SOL     vw 2000   5.658   5.012   4.993 -0.2868  0.6127 -0.3870
  501SOL     ow 2001   5.884   6.462   1.781  0.6176  0.4365 -0.1099
  501SOL     hw 2002   5.900   6.369   1.795 -1.1229 -0.1414 -1.7215
  501SOL     hw 2003   5.877   6.472   1.687  2.1919  2.4979 -0.0852
  501SOL     vw 2004   5.885   6.451   1.771  0.5958  0.6320 -0.3193
  502SOL     ow 2005   0.456   5.524   4.529 -0.0823  0.1746  0.2777
  502SOL     hw 2006   0.467   5.561   4.617 -1.2275 -0.3965  0.6792
  502SOL     hw 2007   0.377   5.567   4.495 -0.4690 -0.6593  0.1050
  502SOL     vw 2008   0.447   5.535   4.536 -0.2844 -0.0105  0.3080
  503SOL     ow 2009   4.083   1.707   6.711  0.1673 -0.5694  0.3340
  503SOL     hw 2010   4.149   1.752   6.763  0.4035  0.5624 -0.8803
  503SOL     hw 2011   4.125   1.624   6.686 -0.1219 -1.3332  2.2497
  503SOL     vw 2012   4.097   1.702   6.714  0.1602 -0.5208  0.4263
  504SOL     ow 2013   4.031   1.074   1.081  0.5006  0.2163 -0.4657
  504SOL     hw 2014   3.991   1.078   1.168 -0.4418 -0.2959 -0.8681
  504SOL     hw 2015   4.108   1.018   1.093 -0.4537 -1.1035 -0.2527
  504SOL     vw 2016   4.036   1.067   1.094  0.2503 -0.0253 -0.4907
  505SOL     ow 2017   4.320   5.922   0.284 -0.3055 -0.0060  0.2409
  505SOL     hw 2018   4.376   5.913   0.207  0.9369  2.1023  0.8116
  505SOL     hw 2019   4.298   6.016   0.287 -0.6058 -0.1029  2.2436
  505SOL     vw 2020   4.324   5.933   0.274 -0.1810  0.2596  0.5804
  506SOL     ow 2021   3.984   2.043   5.312  0.0384 -0.2921 -0.3088
  506SOL     hw 2022   3.903   2.022   5.266  0.0285  0.0168 -0.4393
  506SOL     hw 2023   4.043   2.075   5.243  1.1024 -2.7283 -0.6069
  506SOL     vw 2024   3.981   2.045   5.297  0.1775 -0.5728 -0.3655
  507SOL     ow 2025   1.041   3.824   5.908 -0.0765 -0.1625  0.5977
  507SOL     hw 2026   1.108   3.871   5.957  1.2984  0.0493 -1.3916
  507SOL     hw 2027   1.089   3.763   5.852 -1.6123 -0.9179  0.0210
  507SOL     vw 2028   1.056   3.822   5.907 -0.0977 -0.2341  0.2592
  508SOL     ow 2029   2.030   3.960   1.755 -0.3434  0.6095 -0.1450
  508SOL     hw 2030   2.062   4.038   1.711  0.6952  0.0262 -0.4557
  508SOL     hw 2031   2.099   3.936   1.817 -1.1879  0.6332  0.8406
  508SOL     vw 2032   2.043   3.967   1.757 -0.3177  0.5356 -0.0560
  509SOL     ow 2033   1.156   0.924   3.813  0.4156  0.0093 -0.2541
  509SOL     hw 2034   1.199   0.840   3.804  1.3585  0.4303  0.1920
  509SOL     hw 2035   1.073   0.905   3.857 -0.7249 -1.0501 -2.6415
  509SOL     vw 2036   1.150   0.911   3.817  0.3895 -0.0749 -0.5103
  510SOL     ow 2037   1.530   3.592   2.025  0.4694  0.0621 -0.1117
  510SOL     hw 2038   1.590   3.533   1.979  0.0448 -0.7399  0.3296
  510SOL     hw 2039   1.457   3.605   1.964 -0.5509 -1.7599  0.6301
  510SOL     vw 2040   1.528   3.586   2.011  0.2788 -0.2841  0.0445
  511SOL     ow 2041   1.650   4.517   1.018  0.1265  0.1004 -0.2345
  511SOL     hw 2042   1.696   4.484   1.095 -0.3332 -3.3582 -1.2416
  511SOL     hw 2043   1.572   4.560   1.052  0.7546  0.0970  1.2702
  511SOL     vw 2044   1.646   4.518   1.033  0.1487 -0.3564 -0.1688
  512SOL     ow 2045   4.181   3.407   3.227 -0.1508 -0.4524 -0.1394
  512SOL     hw 2046   4.088   3.385   3.237 -0.5515  1.0109 -0.4232
  512SOL     hw 2047   4.191   3.492   3.268  0.7634  0.0489 -1.3251
  512SOL     vw 2048   4.170   3.415   3.233 -0.0830 -0.1930 -0.3334
  513SOL     ow 2049   6.521   3.993   6.658  0.2312  0.7119  0.4562
  513SOL     hw 2050   6.517   3.909   6.703  0.3112  0.8005  0.6303
  513SOL     hw 2051   6.429   4.014   6.640  0.1474  0.9627  1.1204
  513SOL     vw 2052   6.508   3.985   6.662  0.2310  0.7566  0.5667
  514SOL     ow 2053   6.206   3.742   3.570  0.2077  0.1582 -0.0558
  514SOL     hw 2054   6.129   3.755   3.625  0.9543  0.2119  0.9901
  514SOL     hw 2055   6.205   3.649   3.549 -1.5044  0.5635 -2.1355
  514SOL     vw 2056   6.196   3.732   3.574  0.0801  0.2187 -0.1923
  515SOL     ow 2057   0.648   1.598   0.084  0.3656 -0.0086  0.2628
  515SOL     hw 2058   0.737   1.586   0.053  0.1189 -0.0753 -0.4365
  515SOL     hw 2059   0.653   1.584   0.178  0.9391 -0.8823  0.1115
  515SOL     vw 2060   0.660   1.595   0.092  0.4087 -0.1327  0.1506
  516SOL     ow 2061   0.910   0.136   4.366  0.5303  0.1307 -0.0709
  516SOL     hw 2062   0.919   0.041   4.352  0.8903  0.2154 -0.4115
  516SOL     hw 2063   0.998   0.166   4.387  0.5519  0.5043 -0.6644
  516SOL     vw 2064   0.922   0.127   4.367  0.5806  0.1911 -0.1943
  517SOL     ow 2065   3.693   0.525   4.744 -0.2633  0.3552 -0.0086
  517SOL     hw 2066   3.743   0.445   4.728 -1.6968 -0.7740  0.8710
  517SOL     hw 2067   3.756   0.585   4.784  1.0132 -0.0419 -1.3213
  517SOL     vw 2068   3.708   0.522   4.747 -0.2841  0.1538 -0.0660
  518SOL     ow 2069   3.272   5.841   4.387 -0.7724  0.4193  0.3711
  518SOL     hw 2070   3.231   5.927   4.377 -1.2908  0.1424  0.0992
  518SOL     hw 2071   3.213   5.780   4.343 -0.4005 -0.0782  0.5447
  518SOL     vw 2072   3.259   5.844   4.380 -0.7918  0.3171  0.3581
  519SOL     ow 2073   5.034   2.926   4.699 -0.5164  0.1363 -0.2788
  519SOL     hw 2074   4.955   2.980   4.704 -0.3206  0.3403  0.8258
  519SOL     hw 2075   5.003   2.841   4.666 -0.7555  1.0125 -2.4404
  519SOL     vw 2076   5.019   2.922   4.696 -0.5219  0.2788 -0.4179
  520SOL     ow 2077   3.805   0.509   5.730 -0.0930 -0.3393  0.2007
  520SOL     hw 2078   3.768   0.479   5.646 -0.4633  0.7425 -0.0304
  520SOL     hw 2079   3.858   0.435   5.759 -1.1323 -1.3120 -0.2585
  520SOL     vw 2080   3.807   0.495   5.723 -0.2789 -0.3249  0.1097
  521SOL     ow 2081   1.494   5.489   4.400 -0.3514 -0.3497 -0.4361
  521SOL     hw 2082   1.418   5.461   4.350 -1.5637 -0.3585  1.3364
  521SOL     hw 2083   1.533   5.559   4.347 -1.8264 -0.0658 -1.1867
  521SOL     vw 2084   1.489   5.495   4.386 -0.7059 -0.3135 -0.3011
  522SOL     ow 2085   4.395   3.721   6.646 -0.2439  0.0494 -0.5256
  522SOL     hw 2086   4.345   3.646   6.678 -1.6341  0.0541 -2.5135
  522SOL     hw 2087   4.477   3.683   6.614 -0.0878 -0.3304  0.3096
  522SOL     vw 2088   4.399   3.706   6.646 -0.4067  0.0000 -0.6776
  523SOL     ow 2089   3.212   2.809   0.013 -0.1778  0.2332  0.0962
  523SOL     hw 2090   3.220   2.770  -0.074  0.9565  1.7001 -0.5136
  523SOL     hw 2091   3.300   2.802   0.051 -0.8577 -1.1972  1.5352
  523SOL     vw 2092   3.225   2.803   0.007 -0.1178  0.2381  0.2058
  524SOL     ow 2093   0.363   1.783   3.351  0.2794 -0.2839  0.5647
  524SOL     hw 2094   0.277   1.774   3.311  0.5454 -0.4814  0.0296
  524SOL     hw 2095   0.360   1.867   3.398  0.1588  0.2399 -0.3622
  524SOL     vw 2096   0.351   1.793   3.352  0.2986 -0.2409  0.3718
  525SOL     ow 2097   6.470   3.945   6.363  0.2979 -0.3934  0.2260
  525SOL     hw 2098   6.392   3.958   6.309  1.2599 -2.4098 -1.7696
  525SOL     hw 2099   6.477   3.850   6.373  2.5205 -0.2613  0.3113
  525SOL     vw 2100   6.461   3.934   6.357  0.7181 -0.6419 -0.0262
  526SOL     ow 2101   3.431   6.549   1.071 -0.3903 -0.2868 -0.6097
  526SOL     hw 2102   3.486   6.542   0.993 -0.3834 -1.1293 -0.5309
  526SOL     hw 2103   3.398   6.461   1.086 -0.6925 -0.0590  0.1258
  526SOL     vw 2104   3.434   6.537   1.063 -0.4293 -0.3679 -0.5022
  527SOL     ow 2105   0.890   3.240   1.140  0.8866 -0.0493  0.1796
  527SOL     hw 2106   0.908   3.146   1.131  1.1337 -0.0185  0.3491
  527SOL     hw 2107   0.828   3.245   1.212  0.4259 -0.1306 -0.2090
  527SOL     vw 2108   0.884   3.228   1.149  0.8584 -0.0559  0.1507
  528SOL     ow 2109   2.140   2.776   1.699 -0.2196  0.6274  0.0908
  528SOL     hw 2110   2.159   2.857   1.747 -1.5157  1.5568 -0.9338
  528SOL     hw 2111   2.096   2.804   1.620  0.0766 -1.0438 -0.7052
  528SOL     vw 2112   2.137   2.790   1.695 -0.3514  0.5295 -0.1494
  529SOL     ow 2113   1.794   4.954   3.817 -0.0594  0.8568  0.0634
  529SOL     hw 2114   1.733   4.942   3.744  0.1680 -1.2813  0.1451
  529SOL     hw 2115   1.848   5.029   3.791 -1.2458  1.3606 -1.0574
  529SOL     vw 2116   1.793   4.962   3.804 -0.1859  0.6411 -0.0738
  530SOL     ow 2117   1.317   2.737   1.692 -0.7428  0.3651  0.0128
  530SOL     hw 2118   1.227   2.709   1.673 -0.0944 -0.0138 -3.1530
  530SOL     hw 2119   1.362   2.658   1.721 -1.1374  0.2840  0.4087
  530SOL     vw 2120   1.311   2.723   1.693 -0.7093  0.3045 -0.3527
  531SOL     ow 2121   6.135   5.449   2.884  0.3018  0.0845  0.6608
  531SOL     hw 2122   6.223   5.487   2.891  0.8565 -0.9657 -0.3284
  531SOL     hw 2123   6.106   5.472   2.795 -0.2789  0.0883  0.8439
  531SOL     vw 2124   6.143   5.457   2.873  0.2980 -0.0534  0.5544
  532SOL     ow 2125   2.702   6.311   2.202  0.4690 -0.3845  0.0995
  532SOL     hw 2126   2.697   6.232   2.148  1.0836 -0.3364 -0.0316
  532SOL     hw 2127   2.634   6.368   2.167  1.4042 -0.0126 -1.1864
  532SOL     vw 2128   2.693   6.308   2.191  0.6735 -0.3295 -0.0874
  533SOL     ow 2129   5.842   3.684   2.830  0.3905  0.1360 -0.2077
  533SOL     hw 2130   5.843   3.762   2.774 -3.0460  1.0244  0.7514
  533SOL     hw 2131   5.797   3.618   2.778 -0.5626  0.1708  0.5628
  533SOL     vw 2132   5.836   3.685   2.816 -0.1886  0.2580  0.0204
  534SOL     ow 2133   0.573   6.362   3.739 -0.5627  0.1709 -0.1973
  534SOL     hw 2134   0.621   6.424   3.793 -0.4615  0.8434 -1.0518
  534SOL     hw 2135   0.560   6.407   3.655  0.4631 -1.3584 -1.2182
  534SOL     vw 2136   0.577   6.376   3.735 -0.4140  0.0579 -0.4447
  535SOL     ow 2137   1.835   6.248   6.838 -0.0807  0.2201 -0.0729
  535SOL     hw 2138   1.798   6.331   6.868  0.4035 -0.0067  1.2167
  535SOL     hw 2139   1.900   6.272   6.772 -1.3870  0.7148 -1.2146
  535SOL     vw 2140   1.839   6.262   6.833 -0.1891  0.2558 -0.0536
  536SOL     ow 2141   4.202   3.650   2.537 -0.1071  0.6282  0.0964
  536SOL     hw 2142   4.119   3.679   2.574  0.3950  2.1612  0.0781
  536SOL     hw 2143   4.268   3.707   2.577  0.9946 -0.8061  0.4017
  536SOL     vw 2144   4.200   3.661   2.547  0.1044  0.6413  0.1342
  537SOL     ow 2145   2.498   1.092   5.925 -0.1508 -0.3274  0.2514
  537SOL     hw 2146   2.505   1.154   5.852  1.1817  0.4739  1.0175
  537SOL     hw 2147   2.491   1.006   5.883  1.7163  0.0011 -0.8671
  537SOL     vw 2148   2.498   1.089   5.909  0.2713 -0.1783  0.2050
  538SOL     ow 2149   2.285   1.773   3.647  0.1743 -0.4323 -0.4983
  538SOL     hw 2150   2.374   1.783   3.683 -0.1944 -1.9457  0.9472
  538SOL     hw 2151   2.285   1.685   3.609 -0.8588 -0.6339 -0.0401
  538SOL     vw 2152   2.297   1.763   3.646 -0.0106 -0.6585 -0.2470
  539SOL     ow 2153   2.213   5.470   1.044  0.2232 -0.1586  0.1983
  539SOL     hw 2154   2.292   5.424   1.017  0.9056  0.0316  1.7401
  539SOL     hw 2155   2.200   5.537   0.977 -0.1997 -1.8682 -1.5168
  539SOL     vw 2156   2.222   5.473   1.031  0.2575 -0.3591  0.1755
  540SOL     ow 2157   5.425   5.423   2.026 -0.0585  0.5271  0.0125
  540SOL     hw 2158   5.423   5.370   2.106  0.7465  1.8878  0.9837
  540SOL     hw 2159   5.443   5.361   1.956 -0.7987 -0.7030  0.8744
  540SOL     vw 2160   5.427   5.408   2.028 -0.0501  0.5441  0.2544
  541SOL     ow 2161   3.356   4.127   6.573 -0.5102  0.2149  0.1949
  541SOL     hw 2162   3.336   4.077   6.651  0.8482 -0.3293  0.2263
  541SOL     hw 2163   3.351   4.219   6.601  1.3931  0.0119  1.3357
  541SOL     vw 2164   3.353   4.133   6.587 -0.0799  0.1163  0.3498
  542SOL     ow 2165   4.739   3.420   5.964 -0.3832  0.0275  0.6287
  542SOL     hw 2166   4.722   3.508   5.997  0.1925  0.0152  0.9665
  542SOL     hw 2167   4.747   3.365   6.042 -0.6619 -0.3155  0.4234
  542SOL     vw 2168   4.738   3.424   5.979 -0.3443 -0.0193  0.6459
  543SOL     ow 2169   2.194   2.392   5.245  0.4922 -0.4347 -0.3616
  543SOL     hw 2170   2.138   2.441   5.305  2.2025  0.0614  0.9036
  543SOL     hw 2171   2.155   2.407   5.159 -2.6095 -1.9657  0.6324
  543SOL     vw 2172   2.182   2.401   5.242  0.3086 -0.5713 -0.0634
  544SOL     ow 2173   1.080   0.247   0.684 -0.6052 -0.1798  0.5254
  544SOL     hw 2174   1.001   0.297   0.705 -0.7462 -1.0175  2.2139
  544SOL     hw 2175   1.096   0.194   0.763  1.1386 -0.6840 -0.1215
  544SOL     vw 2176   1.072   0.246   0.697 -0.3937 -0.3568  0.6629
  545SOL     ow 2177   6.543   0.323   2.577  0.6453 -0.0360 -0.0252
  545SOL     hw 2178   6.570   0.286   2.492 -0.9206 -1.0925 -0.0920
  545SOL     hw 2179   6.623   0.321   2.630  2.0602  2.0604 -1.8943
  545SOL     vw 2180   6.557   0.318   2.573  0.6254  0.1012 -0.2806
  546SOL     ow 2181   2.635   4.966   5.444 -0.1397  0.2248  0.3016
  546SOL     hw 2182   2.709   5.026   5.452 -1.3472  2.4054 -2.6936
  546SOL     hw 2183   2.562   5.014   5.484 -0.4535 -0.8376  1.0359
  546SOL     vw 2184   2.635   4.980   5.450 -0.3403  0.3724  0.0031
  547SOL     ow 2185   4.782   2.206   4.768 -0.0469  0.0290 -0.0842
  547SOL     hw 2186   4.788   2.221   4.862  2.1171  1.1884 -0.3456
  547SOL     hw 2187   4.779   2.293   4.729  0.8872 -0.3715 -1.1432
  547SOL     vw 2188   4.783   2.219   4.775  0.3619  0.1291 -0.2582
  548SOL     ow 2189   4.865   3.056   0.784  0.1539  0.4403 -0.4302
  548SOL     hw 2190   4.825   3.059   0.871  1.0352  0.0272 -0.0028
  548SOL     hw 2191   4.927   3.129   0.784 -1.0798  1.5424 -1.3564
  548SOL     vw 2192   4.868   3.066   0.796  0.1078  0.5312 -0.4960
  549SOL     ow 2193   3.026   5.953   6.883  0.0825 -0.4035  0.3995
  549SOL     hw 2194   3.063   6.037   6.857 -2.2271  0.2460 -1.0947
  549SOL     hw 2195   2.966   5.973   6.954 -0.1674 -0.8671  0.3272
  549SOL     vw 2196   3.023   5.966   6.889 -0.2551 -0.3791  0.1928
  550SOL     ow 2197   2.988   6.194   6.435 -0.0128 -0.3592  0.5023
  550SOL     hw 2198   3.053   6.245   6.387  0.8999 -0.2612  1.7852
  550SOL     hw 2199   2.963   6.125   6.374 -0.8759  1.2527 -1.0752
  550SOL     vw 2200   2.993   6.192   6.421 -0.0063 -0.1335  0.4632
  551SOL     ow 2201   5.494   3.476   0.289 -0.6375  0.2713 -0.4967
  551SOL     hw 2202   5.535   3.407   0.342 -0.6598 -0.6531 -1.6332
  551SOL     hw 2203   5.443   3.527   0.351 -0.6171 -0.7444  0.3836
  551SOL     vw 2204   5.493   3.473   0.304 -0.6380  0.0153 -0.5305
  552SOL     ow 2205   0.526   5.326   2.006 -0.2361  0.0462 -0.6590
  552SOL     hw 2206   0.535   5.231   2.003 -1.5002 -0.0895 -0.6744
  552SOL     hw 2207   0.602   5.356   2.057  0.0992 -0.9747 -0.5380
  552SOL     vw 2208   0.537   5.318   2.012 -0.3587 -0.1063 -0.6450
  553SOL     ow 2209   4.435   2.573   6.837 -0.0680  0.2031  0.1967
  553SOL     hw 2210   4.515   2.618   6.811 -0.3831  1.5962  1.5257
  553SOL     hw 2211   4.424   2.504   6.771  2.9570 -0.9623  0.7693
  553SOL     vw 2212   4.444   2.570   6.825  0.2897  0.2333  0.4475
  554SOL     ow 2213   6.190   0.083   3.105  0.0467  0.1643  0.7874
  554SOL     hw 2214   6.212   0.066   3.197  0.6913 -0.9143  0.4581
  554SOL     hw 2215   6.110   0.032   3.091  1.3674 -1.8606  0.0965
  554SOL     vw 2216   6.182   0.074   3.116  0.3061 -0.2452  0.6528
  555SOL     ow 2217   6.410   5.538   0.267 -0.1052  0.0615  0.2054
  555SOL     hw 2218   6.328   5.584   0.252 -0.0305  0.1130 -0.0603
  555SOL     hw 2219   6.385   5.447   0.279 -0.1068 -0.1370 -1.1447
  555SOL     vw 2220   6.396   5.532   0.267 -0.0956  0.0420 -0.0077
  556SOL     ow 2221   4.693   2.801   0.819 -0.5216 -0.2545  0.5656
  556SOL     hw 2222   4.708   2.836   0.907 -2.3972  1.7142  0.1849
  556SOL     hw 2223   4.610   2.754   0.825  1.2113 -3.5967  0.6869
  556SOL     vw 2224   4.684   2.800   0.831 -0.5403 -0.4357  0.5313
  557SOL     ow 2225   0.188   3.745   1.799  0.1173  0.3231  0.2406
  557SOL     hw 2226   0.101   3.727   1.834  0.0910 -0.3065 -0.1354
  557SOL     hw 2227   0.243   3.754   1.877  0.0216 -0.8674  0.4658
  557SOL     vw 2228   0.184   3.744   1.814  0.1012  0.0829  0.2207
  558SOL     ow 2229   1.522   6.470   6.234 -0.7083 -0.0078  0.3445
  558SOL     hw 2230   1.616   6.485   6.244 -0.3772 -1.7486  0.2761
  558SOL     hw 2231   1.494   6.532   6.167  0.5343  0.1182 -0.0734
  558SOL     vw 2232   1.531   6.480   6.226 -0.5006 -0.2208  0.2804
  559SOL     ow 2233   2.044   2.458   3.100  0.4262 -0.3165 -0.3357
  559SOL     hw 2234   1.985   2.397   3.055  0.4136 -0.2362 -0.4282
  559SOL     hw 2235   2.034   2.541   3.053 -0.4587  0.0905  0.5224
  559SOL     vw 2236   2.035   2.461   3.088  0.3078 -0.2524 -0.2347
  560SOL     ow 2237   1.610   2.903   3.876  0.3840  0.0338 -0.1393
  560SOL     hw 2238   1.622   2.972   3.811 -0.5959 -0.1821 -0.5686
  560SOL     hw 2239   1.651   2.826   3.836  2.2565  0.5217  0.7061
  560SOL     vw 2240   1.617   2.902   3.862  0.5018  0.0697 -0.0845
  561SOL     ow 2241   1.486   3.699   0.186  0.2268  0.1230  0.0764
  561SOL     hw 2242   1.504   3.723   0.095  1.0565  0.4264  0.3087
  561SOL     hw 2243   1.449   3.611   0.181  1.8195 -0.5570 -0.4597
  561SOL     vw 2244   1.483   3.691   0.173  0.5463  0.0732  0.0364
  562SOL     ow 2245   2.674   5.946   1.569  0.0534  0.6799  0.2967
  562SOL     hw 2246   2.579   5.948   1.563  0.0935  1.2219 -0.2819
  562SOL     hw 2247   2.692   5.930   1.661 -0.5978  0.7414  0.4393
  562SOL     vw 2248   2.664   5.944   1.580 -0.0272  0.7596  0.2393
  563SOL     ow 2249   6.592   0.798   3.856 -0.5434 -0.0224 -0.5798
  563SOL     hw 2250   6.523   0.760   3.909  1.1275 -3.8646 -0.8488
  563SOL     hw 2251   6.663   0.816   3.918 -0.3879  0.2709 -0.8358
  563SOL     vw 2252   6.592   0.796   3.871 -0.3026 -0.4907 -0.6491
  564SOL     ow 2253   0.484   3.159   1.873 -0.1074 -0.1878  0.1755
  564SOL     hw 2254   0.489   3.084   1.814 -2.2033 -1.5369  1.5885
  564SOL     hw 2255   0.553   3.218   1.842  1.1334 -2.3333 -1.4467
  564SOL     vw 2256   0.494   3.157   1.861 -0.2202 -0.6490  0.1479
  565SOL     ow 2257   4.460   4.888   6.629 -0.2097 -0.7031 -0.0339
  565SOL     hw 2258   4.467   4.793   6.620 -1.5910 -1.0049  1.6427
  565SOL     hw 2259   4.392   4.914   6.567  0.1719 -0.7803 -0.4958
  565SOL     vw 2260   4.452   4.879   6.620 -0.3417 -0.7529  0.1266
  566SOL     ow 2261   5.482   5.947   2.525 -0.1798  0.2324 -0.6378
  566SOL     hw 2262   5.388   5.946   2.543 -0.4483  0.7427 -1.9404
  566SOL     hw 2263   5.516   5.873   2.575 -1.3422 -0.2540 -0.5251
  566SOL     vw 2264   5.474   5.937   2.534 -0.3686  0.2353 -0.7948
  567SOL     ow 2265   1.168   1.278   2.756  0.2441 -0.2135  0.1112
  567SOL     hw 2266   1.168   1.348   2.821  0.2607 -0.6487  0.5836
  567SOL     hw 2267   1.261   1.262   2.738  0.3090 -1.2241  1.2225
  567SOL     vw 2268   1.181   1.285   2.762  0.2549 -0.4042  0.3201
  568SOL     ow 2269   1.763   3.945   1.980 -0.0521  0.4998 -0.2302
  568SOL     hw 2270   1.801   4.001   2.048 -1.2578  1.5472 -0.3918
  568SOL     hw 2271   1.678   3.983   1.962 -1.2178 -1.7472  0.0870
  568SOL     vw 2272   1.757   3.957   1.987 -0.3650  0.3415 -0.2097
  569SOL     ow 2273   2.220   6.830   2.105 -0.0030  0.3637 -0.4807
  569SOL     hw 2274   2.295   6.855   2.051  1.3801 -1.8566  0.2925
  569SOL     hw 2275   2.253   6.836   2.195 -2.1126  3.5281  0.2508
  569SOL     vw 2276   2.235   6.834   2.110 -0.0989  0.4883 -0.2820
  570SOL     ow 2277   4.984   6.066   0.513  0.4377  0.3676 -0.2755
  570SOL     hw 2278   4.994   6.027   0.600 -0.1558  3.0639  1.0914
  570SOL     hw 2279   5.072   6.095   0.490  0.3401  0.9737  0.1028
  570SOL     vw 2280   4.997   6.065   0.521  0.3464  0.8037 -0.0453
  571SOL     ow 2281   0.410   2.669   6.655 -0.0083 -0.6032 -0.8329
  571SOL     hw 2282   0.411   2.690   6.561  2.1685  1.4834 -0.4362
  571SOL     hw 2283   0.487   2.713   6.690 -0.1799 -2.2034  1.8007
  571SOL     vw 2284   0.420   2.677   6.647  0.2563 -0.5389 -0.4330
  572SOL     ow 2285   0.876   6.247   3.322 -0.5062 -0.2368 -0.2825
  572SOL     hw 2286   0.948   6.184   3.330 -1.6196 -1.6137 -0.7105
  572SOL     hw 2287   0.898   6.316   3.385  0.9720 -0.8212 -0.1030
  572SOL     vw 2288   0.888   6.247   3.331 -0.4581 -0.4954 -0.3152
  573SOL     ow 2289   0.921   6.740   4.375 -0.1652 -0.1986  0.1781
  573SOL     hw 2290   1.016   6.745   4.389 -0.4320 -0.3430  2.3492
  573SOL     hw 2291   0.910   6.669   4.312  1.0995 -1.3355  1.1743
  573SOL     vw 2292   0.932   6.731   4.369 -0.0335 -0.3676  0.5958
  574SOL     ow 2293   4.845   0.800   3.363  0.3956 -0.1756 -0.3043
  574SOL     hw 2294   4.892   0.795   3.446 -0.0228  0.3583 -0.0262
  574SOL     hw 2295   4.755   0.774   3.384  0.4364 -0.6661 -0.7204
  574SOL     vw 2296   4.839   0.796   3.376  0.3459 -0.1699 -0.3226
  575SOL     ow 2297   0.775   6.714   4.607 -0.1429  0.2168 -0.3405
  575SOL     hw 2298   0.825   6.712   4.526  0.3551  1.1387 -0.0665
  575SOL     hw 2299   0.747   6.623   4.620  1.2900 -0.2908 -0.6142
  575SOL     vw 2300   0.778   6.701   4.598  0.1119  0.2716 -0.3407
  576SOL     ow 2301   1.029   5.677   0.824 -0.1515  0.3858  0.0273
  576SOL     hw 2302   0.952   5.649   0.873 -0.4511 -0.2231 -0.7686
  576SOL     hw 2303   0.996   5.696   0.736  1.0235 -2.7818 -1.2299
  576SOL     vw 2304   1.014   5.676   0.819 -0.0360 -0.1125 -0.2435
  577SOL     ow 2305   1.920   3.541   5.420  0.0117  0.2491  0.1252
  577SOL     hw 2306   1.965   3.607   5.472  0.3984 -0.2878  0.4954
  577SOL     hw 2307   1.845   3.586   5.382  0.5625  1.0299 -0.0615
  577SOL     vw 2308   1.916   3.555   5.421  0.1354  0.2813  0.1495
  578SOL     ow 2309   0.769   0.632   5.780  0.4486 -0.0379 -0.2100
  578SOL     hw 2310   0.728   0.571   5.842 -0.2600 -0.0018 -0.6331
  578SOL     hw 2311   0.762   0.718   5.821  1.2887 -0.2092  0.3078
  578SOL     vw 2312   0.763   0.635   5.794  0.4659 -0.0557 -0.1979
  579SOL     ow 2313   1.071   5.966   5.374  0.2069  0.1024 -0.1156
  579SOL     hw 2314   1.061   6.035   5.308 -0.0844 -0.3139 -0.5125
  579SOL     hw 2315   1.032   5.888   5.334  0.3863 -0.2561  0.3919
  579SOL     vw 2316   1.064   5.965   5.360  0.1921  0.0005 -0.1011
  580SOL     ow 2317   1.838   3.678   3.808  0.5923  0.2955  0.1134
  580SOL     hw 2318   1.790   3.751   3.771  0.6499  0.5324  0.5022
  580SOL     hw 2319   1.832   3.690   3.903  0.0971 -0.5279  0.1987
  580SOL     vw 2320   1.831   3.689   3.815  0.5346  0.2182  0.1760
  581SOL     ow 2321   6.837   5.909   1.353 -0.2299  0.1504  0.3431
  581SOL     hw 2322   6.884   5.847   1.409 -0.0900  0.0139  0.0780
  581SOL     hw 2323   6.878   5.993   1.371 -0.2126  0.1151  0.4732
  581SOL     vw 2324   6.848   5.911   1.363 -0.2093  0.1278  0.3253
  582SOL     ow 2325   1.539   6.120   0.804  0.6981 -0.3393 -0.1405
  582SOL     hw 2326   1.590   6.040   0.790  0.7174 -0.2408 -0.6255
  582SOL     hw 2327   1.523   6.120   0.899  1.7835 -0.2635  0.0609
  582SOL     vw 2328   1.543   6.109   0.815  0.8439 -0.3161 -0.1779
  583SOL     ow 2329   1.597   1.311   1.408  0.1026  0.2739 -0.1334
  583SOL     hw 2330   1.532   1.261   1.457 -1.4042 -0.8566 -3.0213
  583SOL     hw 2331   1.546   1.380   1.366  0.5304 -0.9371 -2.8559
  583SOL     vw 2332   1.581   1.313   1.409 -0.0398 -0.0350 -0.8737
  584SOL     ow 2333   2.320   3.445   0.738  0.2677  0.5313  0.4950
  584SOL     hw 2334   2.341   3.538   0.730  1.0089  0.4404  1.2534
  584SOL     hw 2335   2.391   3.401   0.691 -0.5801  0.3725 -0.6651
  584SOL     vw 2336   2.332   3.452   0.731  0.2536  0.4985  0.4419
  585SOL     ow 2337   4.191   5.685   4.184  0.3309  0.0830 -0.3672
  585SOL     hw 2338   4.170   5.710   4.274 -1.1502 -0.6954 -0.4606
  585SOL     hw 2339   4.241   5.604   4.192  1.8787  1.0255 -0.2006
  585SOL     vw 2340   4.195   5.678   4.197  0.3397  0.1047 -0.3574
  586SOL     ow 2341   2.730   4.905   0.467  0.3678 -0.4114  0.5307
  586SOL     hw 2342   2.809   4.869   0.507  1.1632  1.7180  1.0306
  586SOL     hw 2343   2.756   4.928   0.378  0.3208  0.2158  0.6679
  586SOL     vw 2344   2.744   4.903   0.461  0.4666 -0.0479  0.6148
  587SOL     ow 2345   4.998   3.384   5.832 -0.6260 -0.0750  0.0225
  587SOL     hw 2346   5.009   3.377   5.927 -0.3132 -1.0795 -0.0709
  587SOL     hw 2347   5.072   3.336   5.796 -3.3234 -4.2911 -0.6469
  587SOL     vw 2348   5.009   3.377   5.840 -0.9406 -0.7638 -0.0784
  588SOL     ow 2349   2.037   5.018   6.668 -0.0930 -0.9944 -0.6025
  588SOL     hw 2350   2.114   5.069   6.643 -0.9839  1.8554  1.8954
  588SOL     hw 2351   2.067   4.965   6.743 -0.7961  1.3014  1.4152
  588SOL     vw 2352   2.051   5.017   6.675 -0.3033 -0.3154 -0.0064
  589SOL     ow 2353   6.646   2.828   4.491  0.3720  0.6545 -0.0415
  589SOL     hw 2354   6.639   2.740   4.455  0.2394  0.1569  1.1394
  589SOL     hw 2355   6.592   2.882   4.433  0.7671  0.0405 -1.0025
  589SOL     vw 2356   6.638   2.824   4.479  0.4067  0.5077 -0.0126
  590SOL     ow 2357   4.055   4.668   5.877  0.1638 -0.2972 -0.2917
  590SOL     hw 2358   4.002   4.589   5.869 -1.8282  1.0100 -0.4936
  590SOL     hw 2359   4.037   4.718   5.798  3.6774 -0.8558 -1.6566
  590SOL     vw 2360   4.046   4.664   5.866  0.3643 -0.1984 -0.4985
  591SOL     ow 2361   2.396   6.204   2.996 -0.2304  0.3468  0.4229
  591SOL     hw 2362   2.416   6.156   2.916  0.9109  0.6050  0.5273
  591SOL     hw 2363   2.331   6.151   3.040 -2.6564  1.3186 -1.7417
  591SOL     vw 2364   2.390   6.191   2.991 -0.3999  0.5090  0.1512
  592SOL     ow 2365   0.958   0.599   1.008 -0.0039  0.4279  0.0185
  592SOL     hw 2366   0.951   0.588   0.913 -0.3126 -0.8434  0.1670
  592SOL     hw 2367   1.043   0.642   1.021 -0.4349  1.6110 -0.8757
  592SOL     vw 2368   0.969   0.603   0.997 -0.1015  0.4163 -0.0799
  593SOL     ow 2369   1.241   1.718   3.964  0.3773  0.1254  0.3933
  593SOL     hw 2370   1.171   1.653   3.957  1.1233 -0.7279  0.6117
  593SOL     hw 2371   1.236   1.769   3.883 -0.2550 -0.1734  0.2446
  593SOL     vw 2372   1.231   1.716   3.953  0.3923 -0.0266  0.4026
  594SOL     ow 2373   0.579   2.164   4.470 -0.0033  0.1259  0.0949
  594SOL     hw 2374   0.662   2.183   4.426 -1.3571  1.7655 -1.9399
  594SOL     hw 2375   0.581   2.217   4.549  0.4902  0.9780 -0.4677
  594SOL     vw 2376   0.590   2.174   4.474 -0.1168  0.4548 -0.2475
  595SOL     ow 2377   3.158   0.355   5.362 -0.2124  0.0974 -0.2253
  595SOL     hw 2378   3.182   0.390   5.448 -0.4739 -1.2130  0.4014
  595SOL     hw 2379   3.227   0.386   5.304  0.1601  0.7143  0.5239
  595SOL     vw 2380   3.170   0.364   5.366 -0.1978  0.0059 -0.0436
  596SOL     ow 2381   2.913   2.806   5.434  0.5526  0.4073  0.5859
  596SOL     hw 2382   2.903   2.716   5.464 -1.7753 -0.4645 -2.3134
  596SOL     hw 2383   2.825   2.844   5.440  0.5247  1.0053 -2.2417
  596SOL     vw 2384   2.900   2.799   5.439  0.2419  0.3712 -0.1695
  597SOL     ow 2385   4.761   3.449   1.162  0.3392 -0.4489  0.1915
  597SOL     hw 2386   4.835   3.442   1.222 -0.1005 -3.7190  0.5118
  597SOL     hw 2387   4.796   3.421   1.077  0.3322  1.7234 -0.5936
  597SOL     vw 2388   4.775   3.445   1.159  0.2801 -0.5939  0.1302
  598SOL     ow 2389   6.521   4.718   5.705 -0.0381  0.3305  0.1682
  598SOL     hw 2390   6.604   4.678   5.731  0.6488 -0.2083 -2.5465
  598SOL     hw 2391   6.544   4.774   5.632 -1.9108  1.1559  0.1726
  598SOL     vw 2392   6.535   4.720   5.699 -0.1948  0.3686 -0.1895
  599SOL     ow 2393   5.104   3.450   0.128  0.2833  0.5954  0.4136
  599SOL     hw 2394   5.123   3.380   0.190  0.3328  0.0877 -0.1662
  599SOL     hw 2395   5.123   3.531   0.176  0.8596  0.1939  0.8674
  599SOL     vw 2396   5.109   3.452   0.142  0.3660  0.4755  0.3970
  600SOL     ow 2397   5.535   0.806   4.756  0.0113 -0.3745  0.4522
  600SOL     hw 2398   5.561   0.802   4.848 -0.4335  0.0885  0.6032
  600SOL     hw 2399   5.568   0.891   4.726  1.1093 -0.9831 -0.1193
  600SOL     vw 2400   5.543   0.817   4.764  0.0973 -0.3937  0.3967
  601SOL     ow 2401   6.261   2.957   1.915  0.1575  0.4169  0.2331
  601SOL     hw 2402   6.172   2.985   1.892  0.1867  0.3842  0.0783
  601SOL     hw 2403   6.252   2.920   2.003  0.0987  0.8125  0.3965
  601SOL     vw 2404   6.248   2.956   1.924  0.1533  0.4649  0.2343
  602SOL     ow 2405   0.709   0.714   3.203 -0.0370 -0.2258 -0.2934
  602SOL     hw 2406   0.668   0.798   3.187 -3.4153 -1.5209  0.7213
  602SOL     hw 2407   0.708   0.670   3.118 -1.3328 -0.4242 -0.1934
  602SOL     vw 2408   0.704   0.719   3.190 -0.6537 -0.4228 -0.1463
  603SOL     ow 2409   4.337   0.871   2.127  0.6844  0.3451 -0.1148
  603SOL     hw 2410   4.414   0.924   2.147  0.1706  1.1166 -0.1393
  603SOL     hw 2411   4.327   0.878   2.032 -0.9168  2.4333  0.1302
  603SOL     vw 2412   4.346   0.879   2.117  0.4055  0.7224 -0.0857
  604SOL     ow 2413   3.290   3.900   3.797  0.1992  0.3625 -0.1614
  604SOL     hw 2414   3.230   3.899   3.872  0.1707  3.3796 -0.0223
  604SOL     hw 2415   3.244   3.952   3.731  1.9800  1.4837 -0.5990
  604SOL     vw 2416   3.276   3.907   3.798  0.4305  0.9086 -0.2007
  605SOL     ow 2417   1.822   5.149   6.778  0.1632  0.6298  0.0132
  605SOL     hw 2418   1.738   5.154   6.732 -0.4383 -1.2890  0.8466
  605SOL     hw 2419   1.881   5.107   6.716 -0.3266 -0.8260  0.4958
  605SOL     vw 2420   1.819   5.144   6.764  0.0192  0.1845  0.1867
  606SOL     ow 2421   1.823   1.608   4.374 -0.0664 -0.5738 -0.1462
  606SOL     hw 2422   1.839   1.587   4.282 -0.8187  0.3025 -0.4939
  606SOL     hw 2423   1.776   1.532   4.409  0.2242 -0.9075 -0.4823
  606SOL     vw 2424   1.819   1.596   4.367 -0.1273 -0.5023 -0.2365
  607SOL     ow 2425   1.019   5.544   6.042  0.0072  0.8203  0.1221
  607SOL     hw 2426   1.049   5.633   6.062  0.7015  1.2313 -2.3700
  607SOL     hw 2427   0.929   5.556   6.014  0.0322  0.7076 -0.0036
  607SOL     vw 2428   1.011   5.557   6.041  0.1022  0.8595 -0.2234
  608SOL     ow 2429   6.090   6.358   0.757  0.2152 -0.4492  0.8166
  608SOL     hw 2430   6.054   6.270   0.771  1.1888 -0.8594  0.7828
  608SOL     hw 2431   6.074   6.403   0.840  1.8734 -1.4396  1.7411
  608SOL     vw 2432   6.083   6.352   0.770  0.5627 -0.6340  0.9342
  609SOL     ow 2433   2.397   2.557   4.239  0.0919  0.4867 -0.2773
  609SOL     hw 2434   2.424   2.647   4.259 -0.1638  0.0868  2.1100
  609SOL     hw 2435   2.325   2.568   4.176 -1.6355  2.1767  1.7735
  609SOL     vw 2436   2.391   2.571   4.233 -0.1698  0.6571  0.3083
  610SOL     ow 2437   1.188   6.590   5.447 -0.0499  0.0735  0.1240
  610SOL     hw 2438   1.172   6.530   5.375 -1.2679  0.7762 -0.2276
  610SOL     hw 2439   1.109   6.585   5.500  1.5051 -1.7802  2.4676
  610SOL     vw 2440   1.175   6.582   5.445 -0.0055 -0.0784  0.3870
  611SOL     ow 2441   0.177   1.547   1.975  0.3360  0.1999 -0.4683
  611SOL     hw 2442   0.251   1.603   1.995 -1.3107  2.3492 -0.0233
  611SOL     hw 2443   0.210   1.486   1.909  2.0296  2.2630 -1.6522
  611SOL     vw 2444   0.191   1.547   1.969  0.3422  0.7556 -0.5658
  612SOL     ow 2445   4.494   0.987   6.674  0.4772  0.2735  0.0954
  612SOL     hw 2446   4.570   0.985   6.732 -0.0908  0.9866  0.9072
  612SOL     hw 2447   4.459   1.075   6.684 -0.9660 -0.3094  0.4352
  612SOL     vw 2448   4.499   0.998   6.683  0.2117  0.2907  0.2475
  613SOL     ow 2449   3.315   3.951   0.692  0.0778 -0.0045 -0.1549
  613SOL     hw 2450   3.392   4.002   0.669 -1.1946  1.9829 -0.1885
  613SOL     hw 2451   3.338   3.861   0.669  2.1120  0.6448 -0.8156
  613SOL     vw 2452   3.328   3.945   0.686  0.1783  0.3434 -0.2465
  614SOL     ow 2453   4.257   5.325   0.198 -0.0402  0.3002 -0.2820
  614SOL     hw 2454   4.189   5.362   0.254 -0.9208 -1.8675  0.1800
  614SOL     hw 2455   4.292   5.400   0.150 -1.3733  1.7635  0.9366
  614SOL     vw 2456   4.252   5.340   0.199 -0.3319  0.2072 -0.0603
  615SOL     ow 2457   0.172   5.310   5.458  0.0944 -0.3179 -0.0812
  615SOL     hw 2458   0.137   5.276   5.375  1.3882 -1.6599 -0.1383
  615SOL     hw 2459   0.222   5.388   5.433 -0.1967 -0.2474 -0.4506
  615SOL     vw 2460   0.174   5.316   5.444  0.2267 -0.4859 -0.1373
  616SOL     ow 2461   5.593   5.493   5.656 -0.2641 -0.3090  0.4452
  616SOL     hw 2462   5.599   5.543   5.738 -1.2836 -1.0195  0.9840
  616SOL     hw 2463   5.501   5.469   5.650 -0.0672 -0.8601 -0.5688
  616SOL     vw 2464   5.582   5.496   5.666 -0.3724 -0.4754  0.3829
  617SOL     ow 2465   3.925   2.738   2.233 -0.2775  0.4906 -0.2408
  617SOL     hw 2466   3.929   2.657   2.282  0.4455  2.0566  2.4666
  617SOL     hw 2467   3.990   2.728   2.164  1.2499 -0.5055  1.2804
  617SOL     vw 2468   3.934   2.726   2.230  0.0194  0.5658  0.3171
  618SOL     ow 2469   5.213   1.283   2.694 -0.2292  0.2539  0.2250
  618SOL     hw 2470   5.131   1.330   2.679 -0.5069 -0.5668 -1.0229
  618SOL     hw 2471   5.188   1.190   2.691  0.0991 -0.0706  3.7911
  618SOL     vw 2472   5.199   1.277   2.691 -0.2222  0.1028  0.5307
  619SOL     ow 2473   5.277   6.751   1.584 -0.1691 -0.0099  0.0061
  619SOL     hw 2474   5.314   6.805   1.654 -0.7573 -0.1565  0.4445
  619SOL     hw 2475   5.225   6.811   1.531  0.9348  0.2607 -0.8067
  619SOL     vw 2476   5.275   6.766   1.587 -0.1011  0.0067 -0.0433
  620SOL     ow 2477   1.057   2.947   2.363  0.0927 -1.3564  0.6965
  620SOL     hw 2478   1.003   2.880   2.320  0.2446 -0.6288 -0.6807
  620SOL     hw 2479   1.075   2.911   2.450 -1.9325 -1.9644  0.9071
  620SOL     vw 2480   1.052   2.933   2.368 -0.1545 -1.3406  0.5428
  621SOL     ow 2481   1.312   2.007   5.888  0.0411 -0.1798 -0.5540
  621SOL     hw 2482   1.388   1.987   5.944 -0.0210  0.1388 -0.3528
  621SOL     hw 2483   1.312   2.103   5.881 -0.9649 -0.1024  0.3152
  621SOL     vw 2484   1.322   2.017   5.894 -0.0998 -0.1276 -0.4127
  622SOL     ow 2485   6.481   2.584   6.008 -0.0553  0.2597 -0.3777
  622SOL     hw 2486   6.569   2.622   6.002  0.3351 -0.7826 -1.9011
  622SOL     hw 2487   6.437   2.614   5.929 -0.6171 -0.2955 -0.2795
  622SOL     vw 2488   6.487   2.593   5.996 -0.0780  0.0489 -0.5658
  623SOL     ow 2489   5.020   6.615   5.831 -0.0109 -0.2601  0.2264
  623SOL     hw 2490   5.015   6.541   5.892 -0.6079 -1.6644 -1.4322
  623SOL     hw 2491   5.096   6.594   5.776 -0.9550 -0.3270 -1.0798
  623SOL     vw 2492   5.029   6.602   5.832 -0.2141 -0.4542 -0.1645
  624SOL     ow 2493   3.821   2.145   0.583 -0.2746  0.6139  0.0029
  624SOL     hw 2494   3.814   2.051   0.564 -1.5520  0.5133  0.8714
  624SOL     hw 2495   3.915   2.159   0.598 -0.2025 -0.7909  1.1025
  624SOL     vw 2496   3.832   2.134   0.582 -0.4337  0.4152  0.2626
  625SOL     ow 2497   2.798   0.665   1.500 -0.1978 -0.5344  0.3879
  625SOL     hw 2498   2.892   0.656   1.486 -0.6912 -3.1144 -1.8694
  625SOL     hw 2499   2.773   0.743   1.450  0.6135 -0.1654  0.5488
  625SOL     vw 2500   2.807   0.674   1.492 -0.1559 -0.8261  0.1113
  626SOL     ow 2501   1.685   2.993   2.638 -0.4796  0.1037  0.0950
  626SOL     hw 2502   1.739   2.998   2.559 -0.7419 -1.0330 -0.1616
  626SOL     hw 2503   1.690   2.902   2.665 -0.4981  0.4487  1.3289
  626SOL     vw 2504   1.693   2.982   2.631 -0.5166 -0.0007  0.2239
  627SOL     ow 2505   4.439   5.345   2.308 -0.2892 -0.3351 -0.1990
  627SOL     hw 2506   4.422   5.411   2.376 -0.7619 -0.2099 -0.4372
  627SOL     hw 2507   4.358   5.340   2.258  0.1872 -0.1287 -1.0161
  627SOL     vw 2508   4.426   5.353   2.311 -0.2885 -0.2913 -0.3383
  628SOL     ow 2509   6.778   4.549   1.415  0.0641 -0.2799  0.0305
  628SOL     hw 2510   6.798   4.456   1.426  1.2173  0.0897  1.3519
  628SOL     hw 2511   6.801   4.588   1.499 -0.5482  1.1896 -0.4584
  628SOL     vw 2512   6.783   4.542   1.428  0.1354 -0.0374  0.1404
  629SOL     ow 2513   0.872   1.506   6.882  0.3358 -0.4167 -0.3244
  629SOL     hw 2514   0.909   1.486   6.968 -0.5955 -0.3290  0.1087
  629SOL     hw 2515   0.922   1.583   6.853  0.9394 -0.6977 -0.0514
  629SOL     vw 2516   0.883   1.514   6.890  0.2925 -0.4421 -0.2313
  630SOL     ow 2517   3.420   3.665   3.964 -0.0309  0.7964  0.1908
  630SOL     hw 2518   3.370   3.603   4.017 -0.2964  0.8105 -0.0426
  630SOL     hw 2519   3.471   3.716   4.028  0.5282  0.0427  0.3555
  630SOL     vw 2520   3.420   3.664   3.980  0.0077  0.6989  0.1818
  631SOL     ow 2521   2.526   6.642   0.444 -0.3208  0.1797 -0.2199
  631SOL     hw 2522   2.562   6.729   0.429  1.1256 -0.6176 -1.7340
  631SOL     hw 2523   2.601   6.590   0.472 -1.2315 -0.5177  0.9898
  631SOL     vw 2524   2.541   6.647   0.445 -0.2502 -0.0176 -0.2601
  632SOL     ow 2525   6.186   4.659   3.782  0.5355  0.4602  0.6033
  632SOL     hw 2526   6.106   4.605   3.786  0.5218  0.5039  0.9295
  632SOL     hw 2527   6.160   4.743   3.819  0.8935  0.2755  1.2922
  632SOL     vw 2528   6.172   4.663   3.788  0.5808  0.4418  0.7373
  633SOL     ow 2529   2.460   3.891   2.482 -0.0651 -0.0321  0.1096
  633SOL     hw 2530   2.396   3.822   2.463  0.4389 -0.7636  0.9959
  633SOL     hw 2531   2.544   3.846   2.482  0.6915  1.1820 -2.6142
  633SOL     vw 2532   2.462   3.876   2.480  0.1012  0.0316 -0.1329
  634SOL     ow 2533   6.609   5.566   0.518  0.0892 -0.2767  0.1411
  634SOL     hw 2534   6.536   5.620   0.548 -0.5974 -1.0784 -0.0738
  634SOL     hw 2535   6.677   5.579   0.585 -0.4443  0.0562  0.6233
  634SOL     vw 2536   6.609   5.575   0.531 -0.0718 -0.3383  0.1764
  635SOL     ow 2537   1.313   3.668   4.010  0.2871  0.3127 -0.7775
  635SOL     hw 2538   1.371   3.598   4.041 -0.3140 -1.1987 -2.8158
  635SOL     hw 2539   1.260   3.691   4.086  1.0479 -0.8806  0.1568
  635SOL     vw 2540   1.314   3.662   4.024  0.3082 -0.0441 -0.9229
  636SOL     ow 2541   1.322   0.422   1.926  0.1248  0.1358 -0.0997
  636SOL     hw 2542   1.347   0.445   2.016  0.2799  2.0835 -0.5889
  636SOL     hw 2543   1.227   0.437   1.924 -0.0324 -0.8012 -0.0316
  636SOL     vw 2544   1.313   0.427   1.938  0.1245  0.2692 -0.1553
  637SOL     ow 2545   4.823   0.411   5.626 -0.3155 -0.4317 -0.2017
  637SOL     hw 2546   4.808   0.403   5.531  1.2612  1.6013 -0.7004
  637SOL     hw 2547   4.913   0.381   5.639 -0.2581  0.0172  0.5137
  637SOL     vw 2548   4.833   0.406   5.615 -0.0997 -0.1042 -0.1731
  638SOL     ow 2549   5.079   4.563   0.648 -0.5201  0.1988 -0.1241
  638SOL     hw 2550   5.163   4.523   0.672 -0.9265  0.0482  1.0975
  638SOL     hw 2551   5.104   4.638   0.593  0.3590 -0.3569 -0.5152
  638SOL     vw 2552   5.093   4.568   0.644 -0.4575  0.1054 -0.0145
  639SOL     ow 2553   1.803   4.399   3.047 -0.3707 -0.0568  0.3049
  639SOL     hw 2554   1.849   4.465   3.099 -0.6127  0.3320  0.0320
  639SOL     hw 2555   1.762   4.342   3.112 -0.6307  0.3975  0.5463
  639SOL     vw 2556   1.804   4.400   3.063 -0.4370  0.0546  0.3008
  640SOL     ow 2557   4.470   3.248   4.148 -0.2170  0.2970  0.2344
  640SOL     hw 2558   4.522   3.318   4.186 -0.6414  1.6335 -1.4974
  640SOL     hw 2559   4.428   3.288   4.072 -1.3456 -1.5592 -0.1905
  640SOL     vw 2560   4.471   3.262   4.143 -0.4220  0.2284 -0.0501
  641SOL     ow 2561   3.648   5.786   5.862 -0.4375 -0.4691 -0.8227
  641SOL     hw 2562   3.686   5.757   5.779  0.3609 -1.9427  0.0050
  641SOL     hw 2563   3.628   5.878   5.848 -2.0361 -1.0787 -3.2605
  641SOL     vw 2564   3.651   5.794   5.849 -0.5431 -0.7441 -1.0352
  642SOL     ow 2565   6.658   3.025   4.715  0.0440  0.0813 -0.2678
  642SOL     hw 2566   6.640   3.118   4.729  0.8567  0.2117 -0.0057
  642SOL     hw 2567   6.590   2.979   4.764 -0.0475  0.5425  0.0388
  642SOL     vw 2568   6.647   3.031   4.724  0.1392  0.1594 -0.1929
  643SOL     ow 2569   4.515   0.401   1.874 -0.1175 -0.5546  0.1560
  643SOL     hw 2570   4.501   0.346   1.797  0.7005  0.4575 -0.7607
  643SOL     hw 2571   4.484   0.488   1.847  0.8769 -0.0174  0.6989
  643SOL     vw 2572   4.509   0.405   1.860  0.1216 -0.3502  0.1067
  644SOL     ow 2573   4.422   5.121   1.169  0.1887  0.1552 -0.5132
  644SOL     hw 2574   4.341   5.072   1.180  0.1278 -0.2880 -2.5030
  644SOL     hw 2575   4.442   5.114   1.076  2.8044 -0.2060 -0.0244
  644SOL     vw 2576   4.414   5.114   1.158  0.5260  0.0489 -0.7113
  645SOL     ow 2577   2.259   6.283   5.563 -0.4702  0.2568  0.0673
  645SOL     hw 2578   2.257   6.197   5.604  0.4048  0.7974  1.3243
  645SOL     hw 2579   2.226   6.269   5.475 -0.5383 -1.3180  0.3218
  645SOL     vw 2580   2.254   6.270   5.557 -0.3637  0.1204  0.2666
  646SOL     ow 2581   2.876   6.288   6.121  0.4885 -0.1770  0.3444
  646SOL     hw 2582   2.957   6.289   6.070  1.3317  1.7262  1.6024
  646SOL     hw 2583   2.839   6.375   6.109 -0.2865 -0.3329  1.4323
  646SOL     vw 2584   2.882   6.300   6.113  0.4975  0.0532  0.6537
  647SOL     ow 2585   0.300   5.423   1.835  0.1226 -0.0666  0.6130
  647SOL     hw 2586   0.249   5.342   1.844 -2.8553  1.7212  0.9600
  647SOL     hw 2587   0.270   5.463   1.754  1.0316  1.0534  0.7920
  647SOL     vw 2588   0.289   5.417   1.826 -0.1504  0.3171  0.6824
  648SOL     ow 2589   5.315   0.408   2.649  0.0419  0.4353  0.3241
  648SOL     hw 2590   5.239   0.456   2.681  0.7228  1.2916  0.6761
  648SOL     hw 2591   5.380   0.416   2.718  0.5648 -0.0319 -0.1052
  648SOL     vw 2592   5.314   0.415   2.662  0.2005  0.4866  0.3138
  649SOL     ow 2593   2.061   2.703   6.279  0.3298 -0.0221  0.4642
  649SOL     hw 2594   2.121   2.692   6.205 -0.7776  0.6893 -0.5682
  649SOL     hw 2595   2.116   2.686   6.356  2.1977  1.7535 -0.3653
  649SOL     vw 2596   2.076   2.700   6.279  0.4300  0.3060  0.2186
  650SOL     ow 2597   0.637   6.742   1.288 -0.2004 -0.1430  0.0571
  650SOL     hw 2598   0.546   6.711   1.296 -0.1229 -0.2080  0.8238
  650SOL     hw 2599   0.642   6.779   1.200 -1.1727  0.5136  0.2611
  650SOL     vw 2600   0.626   6.742   1.278 -0.3184 -0.0648  0.1851
  651SOL     ow 2601   2.743   4.747   1.502 -0.2586  0.7712  0.3535
  651SOL     hw 2602   2.815   4.809   1.518  0.7687 -0.7485  1.9528
  651SOL     hw 2603   2.770   4.699   1.424  0.5734  0.1416  0.9995
  651SOL     vw 2604   2.756   4.749   1.494 -0.0134  0.4878  0.6497
  652SOL     ow 2605   6.816   1.371   3.608  0.2204 -0.4105  0.0806
  652SOL     hw 2606   6.721   1.377   3.601  0.1653 -0.1767  0.9407
  652SOL     hw 2607   6.832   1.347   3.699  1.0016  0.0841  0.0832
  652SOL     vw 2608   6.805   1.369   3.619  0.3161 -0.3144  0.1944
  653SOL     ow 2609   4.698   3.040   1.004 -0.2500 -0.1402 -0.0689
  653SOL     hw 2610   4.635   2.997   1.063 -0.1630 -0.0243  0.1117
  653SOL     hw 2611   4.747   3.098   1.062  0.9357 -1.2119  0.0474
  653SOL     vw 2612   4.696   3.042   1.020 -0.0823 -0.2663 -0.0296
  654SOL     ow 2613   3.907   2.861   6.648  0.5024  0.0358 -0.0844
  654SOL     hw 2614   3.838   2.859   6.714 -0.9919  1.5385 -1.4899
  654SOL     hw 2615   3.982   2.901   6.692  0.4202 -1.3636  1.3928
  654SOL     vw 2616   3.908   2.866   6.662  0.2943  0.0495 -0.0751
  655SOL     ow 2617   3.798   5.999   1.630  0.3580 -0.5314  0.0260
  655SOL     hw 2618   3.859   6.069   1.608 -0.9313  0.0346 -1.9981
  655SOL     hw 2619   3.778   5.957   1.547 -0.0046 -2.4164  0.9997
  655SOL     vw 2620   3.803   6.002   1.616  0.1400 -0.7055 -0.1125
  656SOL     ow 2621   0.712   3.250   2.757  0.1517  0.2567  0.5710
  656SOL     hw 2622   0.687   3.158   2.771  0.5992 -0.0160 -0.3356
  656SOL     hw 2623   0.764   3.248   2.677 -1.3228  1.5499 -0.4640
  656SOL     vw 2624   0.716   3.237   2.748  0.0162  0.3914  0.3148
  657SOL     ow 2625   4.113   1.045   2.223 -0.0757  0.4550  0.8461
  657SOL     hw 2626   4.080   1.067   2.137  0.3537  0.7262  0.7429
  657SOL     hw 2627   4.181   1.111   2.240  1.3706 -0.8768  0.4622
  657SOL     vw 2628   4.118   1.057   2.214  0.1721  0.3151  0.7818
  658SOL     ow 2629   4.706   1.220   2.630  0.1254  0.1929  0.1757
  658SOL     hw 2630   4.611   1.204   2.640  0.3474 -0.5310  1.4965
  658SOL     hw 2631   4.744   1.132   2.631  0.7561  0.4181 -1.4351
  658SOL     vw 2632   4.698   1.206   2.632  0.2379  0.1271  0.1373
  659SOL     ow 2633   4.671   5.069   6.495  0.0024  0.1350  0.0274
  659SOL     hw 2634   4.756   5.093   6.458 -0.2538  0.1182 -0.5897
  659SOL     hw 2635   4.607   5.113   6.439 -0.3884  0.3627  0.6464
  659SOL     vw 2636   4.673   5.078   6.483 -0.0830  0.1626  0.0277
  660SOL     ow 2637   6.543   1.632   2.112 -0.3997  0.0407 -0.1865
  660SOL     hw 2638   6.522   1.695   2.181 -0.8848 -1.3158  0.9676
  660SOL     hw 2639   6.480   1.561   2.125  0.8827 -1.2295 -0.6617
  660SOL     vw 2640   6.532   1.631   2.123 -0.2947 -0.3058 -0.0969
  661SOL     ow 2641   1.984   6.004   6.763  0.1301 -0.0272 -0.2372
  661SOL     hw 2642   2.035   5.939   6.811  0.2788  0.5574  0.4058
  661SOL     hw 2643   2.019   6.000   6.674 -0.4220 -1.4005 -0.4161
  661SOL     vw 2644   1.996   5.995   6.757  0.0769 -0.1309 -0.1757
  662SOL     ow 2645   3.496   5.266   2.755  0.4967 -0.0669 -0.7219
  662SOL     hw 2646   3.522   5.310   2.836 -0.3384  0.4500 -0.7215
  662SOL     hw 2647   3.526   5.325   2.685 -0.3356  0.3669 -0.7297
  662SOL     vw 2648   3.504   5.280   2.756  0.2768  0.0587 -0.7229
  663SOL     ow 2649   2.455   3.327   1.765  0.1260 -0.4527  0.3124
  663SOL     hw 2650   2.439   3.268   1.839 -0.7063  2.4945  2.7139
  663SOL     hw 2651   2.539   3.369   1.787  0.1061  0.1236 -0.6929
  663SOL     vw 2652   2.464   3.325   1.778  0.0136  0.0123  0.4966
  664SOL     ow 2653   3.038   1.837   4.450  0.0451 -0.8765  0.4064
  664SOL     hw 2654   3.093   1.824   4.527  0.3587  2.0088  0.7908
  664SOL     hw 2655   2.969   1.897   4.481 -1.2460 -1.6181 -0.9578
  664SOL     vw 2656   3.036   1.844   4.465 -0.0839 -0.5937  0.2770
  665SOL     ow 2657   3.856   6.148   6.360 -0.1936  0.4068 -0.7859
  665SOL     hw 2658   3.918   6.076   6.346  0.6624  0.8317  0.5655
  665SOL     hw 2659   3.770   6.108   6.351  0.2528 -0.9109  0.4670
  665SOL     vw 2660   3.853   6.133   6.357 -0.0218  0.2890 -0.4420
  666SOL     ow 2661   2.362   2.169   5.308  0.8211  1.0144  0.2608
  666SOL     hw 2662   2.440   2.114   5.313  0.0871  0.0602  2.7519
  666SOL     hw 2663   2.290   2.107   5.296  0.3441  1.8260 -1.2598
  666SOL     vw 2664   2.363   2.153   5.307  0.6614  0.9956  0.3891
  667SOL     ow 2665   1.892   0.428   0.592 -0.1530  0.0241 -0.3445
  667SOL     hw 2666   1.831   0.493   0.557 -0.6675 -0.5869 -0.6225
  667SOL     hw 2667   1.969   0.433   0.536 -0.2324  0.3193 -0.4272
  667SOL     vw 2668   1.894   0.437   0.580 -0.2314 -0.0176 -0.3921
  668SOL     ow 2669   4.627   5.619   4.951  0.0203  0.6014  0.4046
  668SOL     hw 2670   4.558   5.679   4.979  0.2775  1.2155 -0.2212
  668SOL     hw 2671   4.708   5.668   4.968  0.2041  0.7599 -0.8260
  668SOL     vw 2672   4.629   5.634   4.957  0.0784  0.7033  0.1600
  669SOL     ow 2673   5.772   6.035   4.150 -0.6128  0.2240 -0.3031
  669SOL     hw 2674   5.718   6.081   4.215  0.2876  2.4417 -1.0415
  669SOL     hw 2675   5.861   6.042   4.183 -0.3641 -0.3526 -0.8352
  669SOL     vw 2676   5.776   6.042   4.163 -0.4613  0.4406 -0.4706
  670SOL     ow 2677   6.408   2.121   0.376  0.6503  0.0935  0.2031
  670SOL     hw 2678   6.316   2.149   0.377  0.4444 -0.5203  2.2158
  670SOL     hw 2679   6.454   2.193   0.332 -0.5173  1.3409  0.9296
  670SOL     vw 2680   6.402   2.134   0.370  0.4692  0.1771  0.5645
  671SOL     ow 2681   3.584   5.203   2.119 -0.0039 -0.0245 -0.1483
  671SOL     hw 2682   3.646   5.135   2.094 -0.8423 -0.2612 -1.6767
  671SOL     hw 2683   3.504   5.156   2.141  0.0915  0.3361  1.0594
  671SOL     vw 2684   3.582   5.188   2.118 -0.1019 -0.0079 -0.1906
  672SOL     ow 2685   4.424   5.057   0.091 -0.8201 -0.1437 -0.0021
  672SOL     hw 2686   4.491   5.108   0.136 -1.8428  1.2353  0.0314
  672SOL     hw 2687   4.451   4.966   0.102  0.8624  0.3523  0.2702
  672SOL     vw 2688   4.436   5.052   0.098 -0.7329  0.1037  0.0383
  673SOL     ow 2689   0.436   3.803   1.631 -0.3255 -0.5847 -0.1556
  673SOL     hw 2690   0.485   3.866   1.683 -0.2893 -1.5501  1.0505
  673SOL     hw 2691   0.495   3.728   1.623 -1.5286 -1.7640  1.3220
  673SOL     vw 2692   0.450   3.801   1.637 -0.4794 -0.8676  0.1985
  674SOL     ow 2693   4.296   2.410   0.144  0.0812  0.0655  0.3417
  674SOL     hw 2694   4.281   2.349   0.217 -0.7186 -0.0195  0.1083
  674SOL     hw 2695   4.240   2.378   0.074 -0.5277  1.1932  0.2855
  674SOL     vw 2696   4.287   2.398   0.144 -0.1047  0.2031  0.3035
  675SOL     ow 2697   4.873   6.099   0.233  0.4933  0.3422  0.3854
  675SOL     hw 2698   4.952   6.115   0.183  0.6166  1.8944  1.0338
  675SOL     hw 2699   4.803   6.142   0.183  0.4892  1.1991  1.1001
  675SOL     vw 2700   4.874   6.107   0.220  0.5093  0.6599  0.5653
  676SOL     ow 2701   6.560   4.196   6.242 -0.4660  0.5517  0.0156
  676SOL     hw 2702   6.624   4.224   6.177 -0.9977 -0.4469 -0.9581
  676SOL     hw 2703   6.479   4.184   6.193 -0.6575 -1.0897  0.6752
  676SOL     vw 2704   6.558   4.198   6.227 -0.5612  0.2036 -0.0255
  677SOL     ow 2705   6.844   2.893   5.316 -0.4316 -0.3740  0.0724
  677SOL     hw 2706   6.812   2.914   5.404  1.1162  1.0673  0.3514
  677SOL     hw 2707   6.865   2.800   5.319 -0.7786 -0.4347  1.0947
  677SOL     vw 2708   6.842   2.884   5.328 -0.2732 -0.1920  0.2441
  678SOL     ow 2709   1.414   3.460   0.148 -0.3922  0.0028 -0.0725
  678SOL     hw 2710   1.365   3.434   0.226 -0.3721  0.3882  0.0702
  678SOL     hw 2711   1.347   3.496   0.089 -0.2472  0.7671  0.2254
  678SOL     vw 2712   1.398   3.461   0.150 -0.3704  0.1545 -0.0144
  679SOL     ow 2713   1.569   1.957   1.240  0.0727 -0.4006 -0.0573
  679SOL     hw 2714   1.526   1.993   1.163  1.2604  0.8529 -0.1839
  679SOL     hw 2715   1.651   1.920   1.206  0.9091  0.7232  0.6325
  679SOL     vw 2716   1.574   1.957   1.225  0.3397 -0.0870  0.0170
  680SOL     ow 2717   5.449   2.058   3.496 -0.1205 -0.3659  0.3643
  680SOL     hw 2718   5.416   2.092   3.412 -1.3403 -0.6821  0.6845
  680SOL     hw 2719   5.535   2.098   3.506 -0.8851  1.4770  0.0243
  680SOL     vw 2720   5.456   2.068   3.486 -0.3822 -0.1645  0.3617
  681SOL     ow 2721   1.191   3.225   1.194  0.1457  0.4420 -0.1353
  681SOL     hw 2722   1.262   3.198   1.136  0.0032  1.0901 -0.6180
  681SOL     hw 2723   1.235   3.261   1.271  0.3502  1.1846 -0.5911
  681SOL     vw 2724   1.206   3.226   1.197  0.1539  0.6256 -0.2592
  682SOL     ow 2725   4.745   4.853   6.731  0.0326  0.2276  1.4434
  682SOL     hw 2726   4.784   4.784   6.678  1.5910  1.6372  0.6575
  682SOL     hw 2727   4.807   4.865   6.804 -0.4319  0.5200  1.7971
  682SOL     vw 2728   4.759   4.846   6.734  0.1767  0.4525  1.3862
  683SOL     ow 2729   2.516   4.123   3.855 -0.1599  0.6622 -0.3214
  683SOL     hw 2730   2.441   4.182   3.856 -0.2416  0.5631  1.1264
  683SOL     hw 2731   2.495   4.055   3.918  1.0925  0.5785  0.0485
  683SOL     vw 2732   2.504   4.122   3.863 -0.0055  0.6382 -0.0815
  684SOL     ow 2733   5.860   2.458   5.308  0.0754 -0.8302 -0.3794
  684SOL     hw 2734   5.833   2.367   5.314 -0.3670 -0.6655  0.1931
  684SOL     hw 2735   5.883   2.483   5.398  0.0905 -0.3520 -0.5106
  684SOL     vw 2736   5.859   2.450   5.321  0.0188 -0.7454 -0.3211
  685SOL     ow 2737   0.621   4.498   4.139  0.1308 -0.6390  0.3467
  685SOL     hw 2738   0.552   4.564   4.148  0.0013 -0.6035 -0.7510
  685SOL     hw 2739   0.576   4.419   4.108  0.4288 -0.9327  0.6523
  685SOL     vw 2740   0.606   4.496   4.136  0.1530 -0.6731  0.2425
  686SOL     ow 2741   5.681   0.218   6.258 -0.2755  0.5143 -0.9669
  686SOL     hw 2742   5.611   0.284   6.267  0.1626  0.8689  0.0761
  686SOL     hw 2743   5.758   0.261   6.295  0.2522 -0.2405 -1.1844
  686SOL     vw 2744   5.682   0.233   6.264 -0.1481  0.4615 -0.8581
  687SOL     ow 2745   4.075   3.392   1.491 -0.3823 -0.0974  0.0865
  687SOL     hw 2746   4.072   3.302   1.458  0.6571 -0.5188  1.0881
  687SOL     hw 2747   3.994   3.432   1.460 -2.0459 -2.1005  1.6155
  687SOL     vw 2748   4.064   3.386   1.483 -0.4647 -0.4174  0.4204
  688SOL     ow 2749   4.834   0.949   0.706  0.0664  0.2044  0.4968
  688SOL     hw 2750   4.793   0.916   0.627 -0.3004 -2.8826  1.8434
  688SOL     hw 2751   4.764   0.995   0.752 -0.6849 -1.0573  0.6432
  688SOL     vw 2752   4.819   0.951   0.702 -0.0808 -0.3694  0.6938
  689SOL     ow 2753   6.104   3.552   4.902 -0.5675 -0.4891 -0.5614
  689SOL     hw 2754   6.132   3.618   4.966  0.3305 -0.4266 -1.0007
  689SOL     hw 2755   6.044   3.599   4.844 -1.6374 -0.6268  0.4090
  689SOL     vw 2756   6.100   3.567   4.903 -0.5901 -0.4991 -0.4914
  690SOL     ow 2757   0.560   3.160   4.017  0.2346  0.2028 -0.5375
  690SOL     hw 2758   0.498   3.110   3.964  0.5199  0.8852 -1.5514
  690SOL     hw 2759   0.635   3.101   4.029  0.3617  0.2044 -1.2967
  690SOL     vw 2760   0.562   3.146   4.012  0.2890  0.2930 -0.7715
  691SOL     ow 2761   6.733   2.008   5.627  0.0913 -0.3265  0.4861
  691SOL     hw 2762   6.661   2.026   5.567  1.4778  0.0417 -1.1418
  691SOL     hw 2763   6.712   1.924   5.666 -1.9114  0.4300  1.1535
  691SOL     vw 2764   6.721   1.999   5.624  0.0098 -0.1782  0.3595
  692SOL     ow 2765   4.051   5.347   4.801  0.1669  0.0861  0.1137
  692SOL     hw 2766   4.017   5.407   4.868  0.5741  1.5141 -0.9186
  692SOL     hw 2767   4.106   5.286   4.849 -1.9789 -0.8890  1.5176
  692SOL     vw 2768   4.054   5.347   4.816 -0.0622  0.1457  0.1628
  693SOL     ow 2769   2.065   4.758   2.478  0.5448 -0.2419 -0.5450
  693SOL     hw 2770   2.061   4.665   2.455 -0.0294 -0.8626  1.7322
  693SOL     hw 2771   2.152   4.769   2.518  0.4705  0.0937 -0.4730
  693SOL     vw 2772   2.076   4.747   2.480  0.4592 -0.2794 -0.2351
  694SOL     ow 2773   0.440   1.518   6.383  0.3782 -1.1280 -0.4844
  694SOL     hw 2774   0.473   1.580   6.318  0.8942 -0.2395  0.5770
  694SOL     hw 2775   0.514   1.507   6.444 -0.1431 -1.8044  0.0389
  694SOL     vw 2776   0.454   1.525   6.383  0.3775 -1.1000 -0.2754
  695SOL     ow 2777   0.080   3.425   5.332  0.2772 -0.1449  0.1700
  695SOL     hw 2778   0.057   3.462   5.247 -1.6389 -1.0441  0.2434
  695SOL     hw 2779   0.175   3.426   5.334  0.3992  3.6490 -0.3058
  695SOL     vw 2780   0.089   3.430   5.321  0.0405  0.2370  0.1171
  696SOL     ow 2781   1.945   4.229   2.806  0.2733 -0.1900  0.4938
  696SOL     hw 2782   1.908   4.160   2.860  0.1047 -1.1705 -0.8195
  696SOL     hw 2783   2.039   4.210   2.804  0.3308  0.0611  0.7310
  696SOL     vw 2784   1.953   4.218   2.813  0.2586 -0.2861  0.3519
  697SOL     ow 2785   6.542   2.408   5.197 -0.2087  0.3141 -0.2695
  697SOL     hw 2786   6.523   2.501   5.182 -1.9858  0.0453  0.0687
  697SOL     hw 2787   6.456   2.369   5.214  0.3400 -1.6263 -1.6530
  697SOL     vw 2788   6.528   2.415   5.197 -0.3707  0.0226 -0.4075
  698SOL     ow 2789   4.211   2.353   3.472  1.1437  0.0969  0.0076
  698SOL     hw 2790   4.252   2.439   3.483  1.0460  0.2631 -0.8992
  698SOL     hw 2791   4.227   2.309   3.556  0.6373  1.2280  0.7273
  698SOL     vw 2792   4.219   2.358   3.485  1.0641  0.2681 -0.0170
  699SOL     ow 2793   4.730   6.372   6.784  0.5475 -0.2273 -0.5161
  699SOL     hw 2794   4.674   6.421   6.724  0.9769  0.2218 -0.5575
  699SOL     hw 2795   4.699   6.281   6.778  0.1287 -0.0602 -0.8823
  699SOL     vw 2796   4.719   6.366   6.775  0.5488 -0.1459 -0.5696
  700SOL     ow 2797   5.087   1.517   0.469 -0.2634 -0.1646 -0.4504
  700SOL     hw 2798   5.119   1.587   0.413 -0.9585 -1.4342 -2.5572
  700SOL     hw 2799   5.152   1.447   0.459  0.2192 -0.0140  1.3134
  700SOL     vw 2800   5.100   1.517   0.460 -0.2913 -0.3122 -0.4957
  701SOL     ow 2801   1.770   4.685   6.312  0.4011  0.1454 -0.4699
  701SOL     hw 2802   1.800   4.594   6.319  0.2216  0.1477  0.4151
  701SOL     hw 2803   1.674   4.678   6.318  0.3492  0.3431 -1.0171
  701SOL     vw 2804   1.761   4.672   6.313  0.3705  0.1717 -0.4253
  702SOL     ow 2805   5.820   1.205   1.917 -0.2120  0.0001 -0.1127
  702SOL     hw 2806   5.753   1.250   1.968  1.3253  2.4032 -0.0192
  702SOL     hw 2807   5.832   1.260   1.839  0.3897 -1.3501 -1.0044
  702SOL     vw 2808   5.813   1.218   1.914  0.0701  0.1391 -0.2180
  703SOL     ow 2809   5.240   0.966   6.864  0.5832  0.5767  0.2267
  703SOL     hw 2810   5.238   0.879   6.823  0.9819  0.5562  0.2525
  703SOL     hw 2811   5.331   0.979   6.888  0.5116  0.9814  0.2769
  703SOL     vw 2812   5.252   0.956   6.862  0.6266  0.6274  0.2367
  704SOL     ow 2813   2.881   0.896   3.207 -0.1112 -0.1512 -0.1468
  704SOL     hw 2814   2.852   0.976   3.251 -0.0942 -1.4001  2.2815
  704SOL     hw 2815   2.802   0.844   3.195  0.1576 -0.6448  0.1888
  704SOL     vw 2816   2.867   0.900   3.211 -0.0734 -0.3811  0.2178
  705SOL     ow 2817   4.677   4.611   2.558  0.3550  0.1135  0.7800
  705SOL     hw 2818   4.654   4.704   2.547 -0.1085  0.0882  1.4808
  705SOL     hw 2819   4.772   4.611   2.565  0.6289  0.2495 -1.9260
  705SOL     vw 2820   4.686   4.623   2.558  0.3302  0.1280  0.5152
  706SOL     ow 2821   1.219   1.248   3.789  0.4502  0.1001 -0.1165
  706SOL     hw 2822   1.159   1.304   3.839 -0.0984  0.3045 -0.9812
  706SOL     hw 2823   1.303   1.257   3.834 -0.0199  0.3200  0.7326
  706SOL     vw 2824   1.222   1.257   3.802  0.3157  0.1560 -0.1186
  707SOL     ow 2825   0.557   5.474   6.738 -0.6574 -0.3143  0.3393
  707SOL     hw 2826   0.551   5.462   6.833 -1.5323 -1.7329  0.1266
  707SOL     hw 2827   0.467   5.477   6.709 -0.4293  1.5789 -0.3218
  707SOL     vw 2828   0.545   5.473   6.747 -0.7427 -0.2518  0.2239
  708SOL     ow 2829   4.465   4.787   0.105 -0.4447  0.5383 -0.1712
  708SOL     hw 2830   4.552   4.753   0.127 -1.1435 -1.0667  0.2782
  708SOL     hw 2831   4.432   4.725   0.039 -1.4760  0.7813  0.1082
  708SOL     vw 2832   4.472   4.774   0.099 -0.6728  0.3588 -0.0750
  709SOL     ow 2833   3.189   2.814   5.865  0.3727 -0.2138  0.3621
  709SOL     hw 2834   3.097   2.830   5.886  0.5747  2.2349 -0.4018
  709SOL     hw 2835   3.237   2.855   5.936  0.9162 -0.4862  0.1555
  709SOL     vw 2836   3.183   2.821   5.878  0.4710  0.0733  0.2341
  710SOL     ow 2837   5.567   6.432   1.045  0.0377 -0.8362 -1.0418
  710SOL     hw 2838   5.657   6.454   1.070 -0.8534  0.6347  1.1641
  710SOL     hw 2839   5.556   6.341   1.070 -0.0826 -0.0707  2.0534
  710SOL     vw 2840   5.577   6.423   1.051 -0.0956 -0.5412 -0.3424
  711SOL     ow 2841   5.220   2.609   5.770  0.3747 -0.2088 -0.3101
  711SOL     hw 2842   5.270   2.602   5.851 -0.4892  0.0468  0.2473
  711SOL     hw 2843   5.220   2.702   5.750 -0.5689 -0.1091  0.1313
  711SOL     vw 2844   5.227   2.620   5.778  0.1361 -0.1619 -0.1786
  712SOL     ow 2845   2.603   1.647   1.473  0.2510  0.5400  0.4105
  712SOL     hw 2846   2.534   1.580   1.475  0.2295  0.5221 -0.4620
  712SOL     hw 2847   2.682   1.599   1.446 -0.3989  1.3150 -3.4625
  712SOL     vw 2848   2.604   1.632   1.470  0.1624  0.6399 -0.2155
  713SOL     ow 2849   6.687   3.346   2.443 -0.1746 -0.1016  0.0021
  713SOL     hw 2850   6.646   3.260   2.450 -1.3793  0.4528  0.0021
  713SOL     hw 2851   6.681   3.383   2.531 -3.1590  1.4782 -0.7370
  713SOL     vw 2852   6.681   3.339   2.455 -0.7272  0.1799 -0.0955
  714SOL     ow 2853   3.251   4.292   6.083 -0.9236  0.0562 -0.0955
  714SOL     hw 2854   3.304   4.328   6.154 -2.4527  2.0303  0.1430
  714SOL     hw 2855   3.220   4.208   6.116  0.1395 -0.0614  0.6626
  714SOL     vw 2856   3.254   4.286   6.096 -0.9850  0.3011  0.0358
  715SOL     ow 2857   4.547   1.511   1.429  0.3955  0.2078 -0.0720
  715SOL     hw 2858   4.635   1.482   1.406  0.0443 -1.1967  0.2424
  715SOL     hw 2859   4.557   1.604   1.448  1.6544  0.2489 -0.8126
  715SOL     vw 2860   4.560   1.520   1.429  0.5152  0.0279 -0.1282
  716SOL     ow 2861   0.449   2.072   1.473 -0.0867 -0.0052  0.6246
  716SOL     hw 2862   0.475   2.124   1.397 -1.9163  1.1411  0.7164
  716SOL     hw 2863   0.354   2.062   1.464 -0.1028 -1.3801  1.8417
  716SOL     vw 2864   0.440   2.077   1.462 -0.3302 -0.0353  0.7972
  717SOL     ow 2865   0.543   4.574   2.447 -0.5772  0.1964 -0.5122
  717SOL     hw 2866   0.576   4.498   2.495 -0.9345  0.5080  0.2390
  717SOL     hw 2867   0.582   4.649   2.491 -2.4306  0.5830  0.5475
  717SOL     vw 2868   0.553   4.574   2.459 -0.8689  0.2887 -0.2733
  718SOL     ow 2869   4.990   5.683   6.480 -0.1592  0.5305  0.8097
  718SOL     hw 2870   5.023   5.601   6.443 -2.5702  0.3302 -1.1342
  718SOL     hw 2871   4.933   5.656   6.551  0.7560  0.6850  1.6271
  718SOL     vw 2872   4.987   5.669   6.484 -0.3564  0.5243  0.6614
  719SOL     ow 2873   3.264   4.238   4.830 -0.5884 -0.0034 -0.1818
  719SOL     hw 2874   3.220   4.232   4.915 -0.1092  1.4903  0.2150
  719SOL     hw 2875   3.358   4.229   4.851 -0.2673  2.5137 -0.1829
  719SOL     vw 2876   3.271   4.236   4.844 -0.4829  0.5257 -0.1295
  720SOL     ow 2877   3.637   5.781   6.191  0.0829 -0.6438  0.2383
  720SOL     hw 2878   3.622   5.866   6.232  1.3474 -0.2596 -0.0572
  720SOL     hw 2879   3.624   5.718   6.262  2.2354  0.0080  1.2960
  720SOL     vw 2880   3.633   5.784   6.206  0.5336 -0.5071  0.3388
  721SOL     ow 2881   3.000   5.417   3.865  0.5320 -0.1930 -0.4160
  721SOL     hw 2882   2.933   5.477   3.832  0.3184 -0.6324 -0.7917
  721SOL     hw 2883   3.019   5.448   3.954  1.5334  1.3777 -1.1309
  721SOL     vw 2884   2.994   5.429   3.872  0.6359 -0.0439 -0.5598
  722SOL     ow 2885   5.400   2.366   0.785  0.0818 -0.5507  0.1148
  722SOL     hw 2886   5.351   2.407   0.714  1.5059  1.6861  0.3323
  722SOL     hw 2887   5.334   2.323   0.839 -1.3631  0.4301 -0.8290
  722SOL     vw 2888   5.385   2.366   0.783  0.0792 -0.1260  0.0190
  723SOL     ow 2889   0.456   3.045   2.199 -0.6200 -0.4895  0.3247
  723SOL     hw 2890   0.407   3.021   2.278  0.3413  0.1390  1.1405
  723SOL     hw 2891   0.524   2.979   2.191  0.3023  0.3476  0.9873
  723SOL     vw 2892   0.458   3.033   2.209 -0.3715 -0.2962  0.5198
  724SOL     ow 2893   3.785   5.084   2.670  0.5689  0.1555  0.4292
  724SOL     hw 2894   3.847   5.067   2.741  0.0474  1.2314  1.1611
  724SOL     hw 2895   3.828   5.049   2.592 -0.5300 -4.8864  1.7377
  724SOL     vw 2896   3.799   5.077   2.669  0.3551 -0.3679  0.6983
  725SOL     ow 2897   1.289   2.233   2.220  0.5167  0.3541  0.3412
  725SOL     hw 2898   1.369   2.269   2.259  1.2876 -0.4184 -0.4845
  725SOL     hw 2899   1.222   2.299   2.237  1.4425  1.2386  0.6278
  725SOL     vw 2900   1.290   2.247   2.227  0.7406  0.3690  0.2701
  726SOL     ow 2901   2.835   1.705   2.165 -0.3202 -0.4327 -0.2908
  726SOL     hw 2902   2.792   1.653   2.098 -1.0061  1.7786 -1.6877
  726SOL     hw 2903   2.808   1.665   2.248  0.1605 -2.9387 -1.2595
  726SOL     vw 2904   2.826   1.693   2.167 -0.3473 -0.4715 -0.6030
  727SOL     ow 2905   0.623   6.776   1.604 -0.5225  0.5160 -0.1736
  727SOL     hw 2906   0.605   6.847   1.666 -1.2773  0.1842 -0.0056
  727SOL     hw 2907   0.664   6.708   1.657 -0.7680  0.4066 -0.1234
  727SOL     vw 2908   0.626   6.776   1.619 -0.6544  0.4575 -0.1448
  728SOL     ow 2909   3.997   4.004   5.582  0.3276  0.6647  0.6389
  728SOL     hw 2910   3.959   4.036   5.500 -2.1236 -1.4786  0.8126
  728SOL     hw 2911   4.067   3.945   5.554 -0.0575  0.4509  0.1087
  728SOL     vw 2912   4.001   4.001   5.567 -0.0467  0.3538  0.5922
  729SOL     ow 2913   2.871   5.724   6.743 -0.0971 -0.2946  0.3379
  729SOL     hw 2914   2.777   5.734   6.756 -0.1062 -1.2573  1.1181
  729SOL     hw 2915   2.879   5.674   6.662 -0.1395  2.3026 -1.4062
  729SOL     vw 2916   2.860   5.719   6.734 -0.1040 -0.0787  0.2108
  730SOL     ow 2917   2.723   1.902   1.540 -0.4696  0.2910  0.0528
  730SOL     hw 2918   2.758   1.953   1.612 -1.1486  1.8053 -0.6510
  730SOL     hw 2919   2.797   1.848   1.511  0.2996  0.9581  0.7396
  730SOL     vw 2920   2.738   1.902   1.545 -0.4578  0.5788  0.0505
  731SOL     ow 2921   1.676   5.328   0.080 -0.1604  0.4771  0.5117
  731SOL     hw 2922   1.643   5.331   0.170 -0.6684 -0.7584  0.3820
  731SOL     hw 2923   1.614   5.380   0.029  0.8102  2.2445  1.0473
  731SOL     vw 2924   1.663   5.335   0.085 -0.0994  0.5472  0.5652
  732SOL     ow 2925   1.701   2.113   1.482  0.3376  0.3349 -0.1080
  732SOL     hw 2926   1.793   2.140   1.478 -0.0630  1.9984  0.7396
  732SOL     hw 2927   1.674   2.134   1.571 -0.6477 -0.9617 -0.0705
  732SOL     vw 2928   1.710   2.119   1.493  0.1547  0.3833  0.0088
  733SOL     ow 2929   5.767   1.999   0.004 -0.3162  0.8881  0.1272
  733SOL     hw 2930   5.706   2.005   0.077  0.6194  1.8241  0.8608
  733SOL     hw 2931   5.819   2.079   0.010  1.1260  0.0194 -0.3446
  733SOL     vw 2932   5.766   2.010   0.014 -0.0024  0.8970  0.1616
  734SOL     ow 2933   5.806   3.678   1.893  0.4655 -0.0344 -0.4103
  734SOL     hw 2934   5.775   3.604   1.946  0.4279  1.8917  2.4915
  734SOL     hw 2935   5.879   3.715   1.943 -0.1071  2.4252 -1.2446
  734SOL     vw 2936   5.811   3.673   1.907  0.3848  0.5443 -0.1375
  735SOL     ow 2937   0.483   6.070   6.708 -0.3690  0.2827 -0.5119
  735SOL     hw 2938   0.425   5.997   6.685 -0.1685 -0.1688  0.3655
  735SOL     hw 2939   0.443   6.110   6.785 -0.7330  1.4226 -1.2661
  735SOL     vw 2940   0.470   6.065   6.715 -0.3906  0.3736 -0.4957
  736SOL     ow 2941   1.158   4.209   2.456 -0.3667 -0.2455 -0.3347
  736SOL     hw 2942   1.175   4.178   2.367  1.8246  0.0084 -0.0597
  736SOL     hw 2943   1.174   4.133   2.511 -1.2141 -0.2574 -0.0811
  736SOL     vw 2944   1.162   4.195   2.451 -0.1894 -0.2131 -0.2649
  737SOL     ow 2945   3.661   5.323   1.858 -0.1365  0.2423  0.3594
  737SOL     hw 2946   3.681   5.392   1.795 -0.0855 -0.5087 -0.4580
  737SOL     hw 2947   3.743   5.276   1.869 -0.3726 -0.1908  0.2866
  737SOL     vw 2948   3.675   5.326   1.851 -0.1609  0.0861  0.2420
  738SOL     ow 2949   2.575   1.363   0.717  0.1282  1.0228  0.2473
  738SOL     hw 2950   2.543   1.332   0.632  0.4437 -1.3545  0.9054
  738SOL     hw 2951   2.648   1.304   0.738  0.7559  2.2384  1.6895
  738SOL     vw 2952   2.581   1.351   0.709  0.2525  0.8695  0.5244
  739SOL     ow 2953   3.682   6.489   2.181 -0.5702 -0.1688  0.7839
  739SOL     hw 2954   3.623   6.416   2.163  1.2559 -1.9804  1.7681
  739SOL     hw 2955   3.684   6.538   2.099 -1.1646 -1.7391 -0.2300
  739SOL     vw 2956   3.674   6.486   2.167 -0.4077 -0.6151  0.7801
  740SOL     ow 2957   0.369   4.415   3.476  0.2819 -0.6083  0.1710
  740SOL     hw 2958   0.345   4.408   3.568 -0.5962 -0.8779 -0.0737
  740SOL     hw 2959   0.398   4.506   3.466 -1.8118  0.1131  0.2161
  740SOL     vw 2960   0.370   4.426   3.487 -0.1102 -0.5488  0.1446
  741SOL     ow 2961   5.692   3.247   6.621 -0.2015 -0.2521  0.3603
  741SOL     hw 2962   5.614   3.239   6.565  0.2735 -2.0804 -0.1114
  741SOL     hw 2963   5.698   3.162   6.664  2.2004 -0.5882 -0.5176
  741SOL     vw 2964   5.682   3.235   6.619  0.1781 -0.5378  0.1824
  742SOL     ow 2965   3.776   4.362   3.897  0.4710 -0.4079 -0.5171
  742SOL     hw 2966   3.800   4.303   3.826  0.4808 -1.2921  0.2074
  742SOL     hw 2967   3.763   4.447   3.854  0.7482 -0.8612 -1.5262
  742SOL     vw 2968   3.777   4.366   3.882  0.5088 -0.5844 -0.5546
  743SOL     ow 2969   3.464   5.927   4.601 -0.3027  0.2511  0.8412
  743SOL     hw 2970   3.536   5.924   4.663 -0.2105 -1.4573  0.7079
  743SOL     hw 2971   3.385   5.912   4.654 -0.2943 -0.4450  0.6753
  743SOL     vw 2972   3.463   5.925   4.616 -0.2894 -0.0663  0.8016
  744SOL     ow 2973   6.794   6.807   6.313  0.6807 -0.3202  0.8496
  744SOL     hw 2974   6.870   6.765   6.272  0.7568 -0.3166  0.9860
  744SOL     hw 2975   6.821   6.824   6.403  0.2933 -0.9201  1.0878
  744SOL     vw 2976   6.807   6.803   6.319  0.6397 -0.3989  0.8988
  745SOL     ow 2977   5.790   3.067   3.218 -0.5875 -0.1954 -0.4582
  745SOL     hw 2978   5.722   3.061   3.285 -0.1794 -0.4236 -0.0607
  745SOL     hw 2979   5.841   3.144   3.242  0.6458 -1.2852  0.5306
  745SOL     vw 2980   5.787   3.076   3.230 -0.3710 -0.3692 -0.2753
  746SOL     ow 2981   2.496   4.223   6.681 -0.1717  0.0632  0.8291
  746SOL     hw 2982   2.448   4.301   6.710  1.8113  0.8426  2.2276
  746SOL     hw 2983   2.584   4.235   6.716  1.4007 -0.8055 -2.4555
  746SOL     vw 2984   2.501   4.235   6.690  0.2974  0.0513  0.5801
  747SOL     ow 2985   6.665   1.421   0.808 -0.3327 -0.9135 -0.6810
  747SOL     hw 2986   6.596   1.455   0.864  0.2036  0.8738 -1.0299
  747SOL     hw 2987   6.730   1.385   0.869 -1.0461 -1.5748 -0.3025
  747SOL     vw 2988   6.665   1.421   0.823 -0.3557 -0.7650 -0.6771
  748SOL     ow 2989   5.418   6.619   4.541  0.3652  0.2875  0.4221
  748SOL     hw 2990   5.477   6.614   4.466  0.9835  0.3322  0.8953
  748SOL     hw 2991   5.370   6.701   4.528 -0.7516 -0.5287 -0.7885
  748SOL     vw 2992   5.419   6.629   4.529  0.2995  0.1855  0.3250
  749SOL     ow 2993   0.010   4.872   0.284 -0.2240 -0.5811 -0.2460
  749SOL     hw 2994  -0.068   4.860   0.338 -0.5283 -1.5759 -0.8893
  749SOL     hw 2995   0.078   4.899   0.346 -0.7930 -0.8153  0.4904
  749SOL     vw 2996   0.009   4.874   0.300 -0.3392 -0.7434 -0.2337
  750SOL     ow 2997   6.375   1.483   1.480  0.1086 -0.6089  0.7238
  750SOL     hw 2998   6.334   1.397   1.478  0.3461 -0.7905 -2.7349
  750SOL     hw 2999   6.466   1.466   1.456  0.9440  0.3691  2.9402
  750SOL     vw 3000   6.382   1.470   1.477  0.2501 -0.5038  0.5598
  751SOL     ow 3001   3.869   6.350   2.359 -0.5229  0.4112 -0.0208
  751SOL     hw 3002   3.809   6.276   2.351  0.6482 -0.7294  1.2457
  751SOL     hw 3003   3.945   6.325   2.307 -0.3135  0.9472  0.0232
  751SOL     vw 3004   3.871   6.337   2.351 -0.3407  0.3314  0.1521
  752SOL     ow 3005   2.893   5.338   0.274 -0.0880  0.7052 -0.4843
  752SOL     hw 3006   2.867   5.330   0.182 -1.0442 -1.7669 -0.0908
  752SOL     hw 3007   2.947   5.261   0.289  1.6315  2.0657  0.5905
  752SOL     vw 3008   2.897   5.327   0.264  0.0126  0.5586 -0.2906
  753SOL     ow 3009   1.847   6.013   0.154 -0.2360 -0.0982 -0.0363
  753SOL     hw 3010   1.896   6.037   0.233  1.0649  1.6970 -1.3071
  753SOL     hw 3011   1.796   5.936   0.180  1.9666 -1.0448  1.8585
  753SOL     vw 3012   1.847   6.006   0.168  0.2263  0.0138  0.0461
  754SOL     ow 3013   5.090   0.195   2.415  0.1245 -0.1717 -0.2700
  754SOL     hw 3014   5.109   0.282   2.380  3.3901 -0.6907 -0.1547
  754SOL     hw 3015   5.099   0.137   2.340  0.4167 -0.6326  0.1187
  754SOL     vw 3016   5.094   0.199   2.401  0.5939 -0.3010 -0.2035
  755SOL     ow 3017   4.235   3.524   6.799 -0.4828  0.2984 -0.0526
  755SOL     hw 3018   4.144   3.505   6.822 -0.2613 -1.0648 -0.1897
  755SOL     hw 3019   4.283   3.511   6.881 -0.0745 -1.7216 -0.5636
  755SOL     vw 3020   4.229   3.520   6.813 -0.3998 -0.1479 -0.1380
  756SOL     ow 3021   2.279   5.543   5.962 -0.2943  0.0272  0.5881
  756SOL     hw 3022   2.196   5.511   5.929 -0.3980  2.3277 -1.7165
  756SOL     hw 3023   2.287   5.631   5.925  2.4288  0.5074  2.0513
  756SOL     vw 3024   2.269   5.551   5.953  0.0513  0.3941  0.4773
  757SOL     ow 3025   6.167   5.846   0.076  0.4559  0.6522  0.2603
  757SOL     hw 3026   6.238   5.910   0.080  1.0095 -0.0096  2.2702
  757SOL     hw 3027   6.099   5.881   0.133  0.1967  0.1070  0.2967
  757SOL     vw 3028   6.167   5.859   0.084  0.4947  0.4933  0.5303
  758SOL     ow 3029   1.200   4.181   5.659  0.1723 -0.0087 -0.0905
  758SOL     hw 3030   1.122   4.224   5.695  0.3154 -0.0696  0.2922
  758SOL     hw 3031   1.258   4.170   5.734  1.2297  1.5132 -0.6491
  758SOL     vw 3032   1.197   4.185   5.674  0.3307  0.1841 -0.1140
  759SOL     ow 3033   2.500   3.470   1.495  0.6542  0.4029 -0.6737
  759SOL     hw 3034   2.565   3.539   1.498  0.2332  0.8560 -1.7877
  759SOL     hw 3035   2.447   3.489   1.418 -2.4952  1.5778  1.5914
  759SOL     vw 3036   2.502   3.481   1.485  0.1832  0.6176 -0.5219
  760SOL     ow 3037   5.755   3.447   6.427  0.5237  0.5042 -0.0602
  760SOL     hw 3038   5.730   3.386   6.357 -0.4530  2.2879 -1.3442
  760SOL     hw 3039   5.675   3.495   6.446  1.4004  1.7767  0.5206
  760SOL     vw 3040   5.741   3.445   6.420  0.5102  0.9077 -0.1528
  761SOL     ow 3041   1.610   1.196   3.410 -0.4370 -0.0626  0.6711
  761SOL     hw 3042   1.581   1.166   3.323  1.5342  0.0058 -0.0730
  761SOL     hw 3043   1.564   1.279   3.424  0.2117  0.6231 -0.9597
  761SOL     vw 3044   1.600   1.203   3.400 -0.0914  0.0369  0.3577
  762SOL     ow 3045   5.754   5.509   1.509  0.3025 -0.2509 -0.5573
  762SOL     hw 3046   5.785   5.424   1.478 -1.4354 -1.3580  0.5689
  762SOL     hw 3047   5.699   5.541   1.438  1.0925  0.0415 -1.0540
  762SOL     vw 3048   5.751   5.502   1.496  0.1774 -0.3579 -0.4742
  763SOL     ow 3049   5.947   6.156   3.588 -0.1918 -0.2322  0.5407
  763SOL     hw 3050   6.020   6.095   3.574  1.4420  1.6535  0.4410
  763SOL     hw 3051   5.907   6.165   3.501  0.9049  0.4618  0.0945
  763SOL     vw 3052   5.952   6.149   3.575  0.1686  0.1085  0.4687
  764SOL     ow 3053   5.354   2.009   2.339 -0.5516 -0.0585  0.2874
  764SOL     hw 3054   5.272   1.964   2.359  0.7069 -1.7868  1.8973
  764SOL     hw 3055   5.408   1.943   2.295  0.5616  0.5364  0.7145
  764SOL     vw 3056   5.350   1.994   2.336 -0.2387 -0.2081  0.5561
  765SOL     ow 3057   5.304   1.936   1.430 -0.0686  0.4011 -0.1020
  765SOL     hw 3058   5.358   2.006   1.392  0.4629  0.7427  1.2119
  765SOL     hw 3059   5.309   1.951   1.525 -1.3610 -0.3973  0.1200
  765SOL     vw 3060   5.312   1.947   1.438 -0.1690  0.3408  0.1007
  766SOL     ow 3061   2.736   0.096   0.996  0.2244  0.1998 -0.0568
  766SOL     hw 3062   2.700   0.176   0.957  1.1538  0.1687 -1.0290
  766SOL     hw 3063   2.664   0.033   0.992  0.2799  0.1902 -1.7929
  766SOL     vw 3064   2.722   0.098   0.990  0.3544  0.1945 -0.4141
  767SOL     ow 3065   0.903   3.747   6.176 -0.2741 -0.2391 -0.0426
  767SOL     hw 3066   0.893   3.790   6.261 -2.3082 -1.2274  0.2917
  767SOL     hw 3067   0.985   3.698   6.183  0.5180  1.1342  0.6568
  767SOL     vw 3068   0.912   3.746   6.188 -0.4380 -0.1882  0.0937
  768SOL     ow 3069   2.238   6.448   3.700  0.2164  0.1360 -0.0182
  768SOL     hw 3070   2.243   6.538   3.668 -0.3789  0.3487  0.4830
  768SOL     hw 3071   2.316   6.405   3.663 -0.5230  0.3219 -1.8905
  768SOL     vw 3072   2.249   6.454   3.691  0.0404  0.1884 -0.1991
  769SOL     ow 3073   3.090   0.188   0.204 -0.0484 -0.2039 -0.1332
  769SOL     hw 3074   3.106   0.282   0.206 -0.1186 -0.2003  0.4318
  769SOL     hw 3075   3.177   0.149   0.196  0.1511 -0.1379  1.4203
  769SOL     vw 3076   3.103   0.195   0.203 -0.0315 -0.1947  0.1463
  770SOL     ow 3077   6.870   5.278   3.817 -0.2679  0.2024  0.0042
  770SOL     hw 3078   6.911   5.317   3.894  0.4132 -0.4513 -0.0212
  770SOL     hw 3079   6.822   5.202   3.851  1.1104 -0.8770 -0.3547
  770SOL     vw 3080   6.869   5.273   3.832  0.0038 -0.0262 -0.0466
  771SOL     ow 3081   3.415   6.217   0.621  0.5042 -0.6000  0.3740
  771SOL     hw 3082   3.375   6.192   0.704  2.0051 -0.6938  1.0948
  771SOL     hw 3083   3.483   6.280   0.644 -0.0503  0.5465 -0.9567
  771SOL     vw 3084   3.418   6.222   0.635  0.6291 -0.4611  0.2935
  772SOL     ow 3085   6.045   3.549   6.212 -0.0906 -0.2740  0.4267
  772SOL     hw 3086   6.093   3.553   6.295  0.9468  0.5334 -0.1855
  772SOL     hw 3087   6.108   3.512   6.150 -0.0247  1.2928 -0.5088
  772SOL     vw 3088   6.060   3.545   6.215  0.0548  0.0392  0.2227
  773SOL     ow 3089   6.300   6.481   5.673 -0.2781 -0.0820  0.0006
  773SOL     hw 3090   6.242   6.411   5.644 -1.5492  0.2024  1.7451
  773SOL     hw 3091   6.279   6.555   5.615 -1.9271  0.1153  0.7920
  773SOL     vw 3092   6.290   6.481   5.662 -0.6635 -0.0184  0.3352
  774SOL     ow 3093   5.847   3.715   1.579 -0.4135  0.5358 -0.7239
  774SOL     hw 3094   5.842   3.758   1.493 -1.1894  0.8331 -0.5331
  774SOL     hw 3095   5.899   3.636   1.562  1.0939  1.5444 -1.0666
  774SOL     vw 3096   5.854   3.710   1.565 -0.3169  0.7081 -0.7439
  775SOL     ow 3097   6.381   2.783   6.602  0.4083  0.3645 -0.1613
  775SOL     hw 3098   6.293   2.780   6.564 -0.2374  3.2360  0.8304
  775SOL     hw 3099   6.429   2.844   6.547  1.0701  0.5676  0.6131
  775SOL     vw 3100   6.376   2.791   6.590  0.4103  0.7701  0.0718
  776SOL     ow 3101   2.795   3.995   3.766 -0.3538  0.4279  0.1013
  776SOL     hw 3102   2.741   3.934   3.715  0.0862 -0.3720  0.5702
  776SOL     hw 3103   2.877   4.000   3.717 -0.0280 -0.1334  0.5803
  776SOL     vw 3104   2.799   3.988   3.752 -0.2527  0.2484  0.2264
  777SOL     ow 3105   3.227   5.349   2.744 -0.1796  0.0869 -0.5580
  777SOL     hw 3106   3.179   5.287   2.688 -0.1404  0.2964 -0.8298
  777SOL     hw 3107   3.318   5.321   2.740  0.1366  1.1739 -2.1023
  777SOL     vw 3108   3.232   5.337   2.736 -0.1327  0.2580 -0.7974
  778SOL     ow 3109   0.110   4.601   0.208  0.7845 -0.6034 -0.9602
  778SOL     hw 3110   0.199   4.565   0.207  1.3169  0.5764  0.5910
  778SOL     hw 3111   0.072   4.570   0.291 -0.6278 -1.8788 -2.0200
  778SOL     vw 3112   0.117   4.592   0.219  0.6684 -0.6158 -0.8953
  779SOL     ow 3113   3.573   4.505   4.069 -0.7367  0.1441  0.7192
  779SOL     hw 3114   3.487   4.547   4.061 -0.9048 -0.1820  0.8028
  779SOL     hw 3115   3.633   4.578   4.084 -0.8537  0.4771 -0.3525
  779SOL     vw 3116   3.569   4.520   4.070 -0.7744  0.1450  0.5889
  780SOL     ow 3117   1.586   2.868   1.590  0.0287  0.3263  0.8618
  780SOL     hw 3118   1.649   2.890   1.659 -0.1597  0.8598  0.8739
  780SOL     hw 3119   1.634   2.882   1.509  1.0624 -2.7009  0.8392
  780SOL     vw 3120   1.601   2.873   1.588  0.1403 -0.0026  0.8604
  781SOL     ow 3121   3.191   0.971   3.126 -0.5532 -0.0265  0.1959
  781SOL     hw 3122   3.170   1.063   3.143 -1.2633 -0.3487  1.1214
  781SOL     hw 3123   3.281   0.961   3.159 -0.7795  0.1370  0.8889
  781SOL     vw 3124   3.200   0.982   3.133 -0.6768 -0.0474  0.4095
  782SOL     ow 3125   3.905   4.603   0.264  0.1093 -0.1412  0.3415
  782SOL     hw 3126   3.848   4.678   0.284 -0.3963 -0.7626  1.3154
  782SOL     hw 3127   3.867   4.531   0.314  0.5360 -1.0769 -0.6487
  782SOL     vw 3128   3.892   4.603   0.273  0.0988 -0.3467  0.3394
  783SOL     ow 3129   6.523   2.458   0.921  0.3759  0.0719 -0.0880
  783SOL     hw 3130   6.604   2.504   0.942  1.1631 -1.5202  0.5603
  783SOL     hw 3131   6.492   2.426   1.006 -2.6629  3.2216  0.2155
  783SOL     vw 3132   6.530   2.460   0.935  0.0787  0.2775  0.0376
  784SOL     ow 3133   2.580   6.679   3.763  0.1681  0.1888 -0.9333
  784SOL     hw 3134   2.615   6.609   3.708  1.2422  1.5883 -2.1066
  784SOL     hw 3135   2.535   6.737   3.701  0.3780  1.1785 -0.1791
  784SOL     vw 3136   2.579   6.678   3.747  0.3375  0.5043 -0.9886
  785SOL     ow 3137   5.667   5.460   4.019 -0.4782  0.2062 -0.1226
  785SOL     hw 3138   5.660   5.464   4.115 -0.7064 -0.1726 -0.1172
  785SOL     hw 3139   5.590   5.410   3.993 -1.2990  1.6688 -0.6348
  785SOL     vw 3140   5.656   5.454   4.028 -0.6166  0.3490 -0.1895
  786SOL     ow 3141   6.378   1.151   5.543 -0.0750 -0.2287  0.2943
  786SOL     hw 3142   6.374   1.071   5.596 -1.9648 -1.4780 -1.5751
  786SOL     hw 3143   6.325   1.214   5.592  0.2360 -0.5450  1.0674
  786SOL     vw 3144   6.370   1.149   5.557 -0.2835 -0.4352  0.1500
  787SOL     ow 3145   3.723   2.020   5.215 -0.1890  0.7596  0.0214
  787SOL     hw 3146   3.665   2.050   5.285 -0.5459 -1.4822  0.7430
  787SOL     hw 3147   3.671   1.955   5.167  1.6321 -1.2710  0.6425
  787SOL     vw 3148   3.708   2.015   5.218  0.0041  0.1959  0.1986
  788SOL     ow 3149   5.953   6.476   3.508  0.1947  0.5290  0.4170
  788SOL     hw 3150   6.028   6.532   3.490 -0.1098  0.9005  0.3048
  788SOL     hw 3151   5.883   6.509   3.452  0.4180 -0.8524 -0.7235
  788SOL     vw 3152   5.954   6.488   3.498  0.1836  0.3955  0.2517
  789SOL     ow 3153   2.932   1.850   0.302  0.1493  0.6225 -0.9765
  789SOL     hw 3154   2.961   1.939   0.285 -0.0865  0.5264 -1.9690
  789SOL     hw 3155   2.859   1.860   0.363 -2.3587  1.4888 -3.8569
  789SOL     vw 3156   2.926   1.863   0.308 -0.2128  0.7241 -1.4875
  790SOL     ow 3157   1.855   1.754   5.872  0.1186  0.8456  0.0618
  790SOL     hw 3158   1.856   1.815   5.945 -0.0398 -0.4885  1.2387
  790SOL     hw 3159   1.836   1.669   5.913  2.0457 -0.2875 -1.2433
  790SOL     vw 3160   1.853   1.751   5.887  0.3519  0.5202  0.0451
  791SOL     ow 3161   1.501   5.250   3.385  0.3401 -0.1548  0.3975
  791SOL     hw 3162   1.584   5.245   3.338  0.9098  2.4694  0.9648
  791SOL     hw 3163   1.472   5.159   3.391  2.6604 -1.0667 -0.6899
  791SOL     vw 3164   1.508   5.237   3.380  0.7213  0.0713  0.3288
  792SOL     ow 3165   0.717   1.302   0.961  0.0732 -0.3435  0.2875
  792SOL     hw 3166   0.749   1.274   1.047  0.2037 -0.7073  0.1220
  792SOL     hw 3167   0.674   1.386   0.978  0.9139  0.0491  0.5522
  792SOL     vw 3168   0.716   1.310   0.975  0.2013 -0.3397  0.3006
  793SOL     ow 3169   4.319   3.374   6.581  0.7833  0.5834 -0.1066
  793SOL     hw 3170   4.270   3.416   6.652 -0.2910 -0.1386 -0.3875
  793SOL     hw 3171   4.387   3.323   6.626  1.0231  1.2655  0.3187
  793SOL     vw 3172   4.321   3.373   6.597  0.6733  0.5782 -0.0877
  794SOL     ow 3173   5.188   4.716   1.964  0.3020 -0.0698 -0.0737
  794SOL     hw 3174   5.214   4.640   2.016  1.6681  1.4122  1.5146
  794SOL     hw 3175   5.270   4.755   1.935 -0.3922  0.5695 -1.2353
  794SOL     vw 3176   5.202   4.711   1.967  0.3908  0.2100 -0.0173
  795SOL     ow 3177   2.031   1.778   0.217  0.4428  0.0167 -0.4789
  795SOL     hw 3178   2.105   1.782   0.279  0.3505  1.0463 -0.4054
  795SOL     hw 3179   2.072   1.785   0.131  0.3984  1.5453 -0.4052
  795SOL     vw 3180   2.046   1.780   0.214  0.4247  0.3543 -0.4594
  796SOL     ow 3181   1.169   3.354   3.382  0.1537  0.0118  0.2062
  796SOL     hw 3182   1.098   3.410   3.414 -0.5009 -0.8239  0.2796
  796SOL     hw 3183   1.161   3.274   3.434  0.9845 -0.2019  0.0163
  796SOL     vw 3184   1.158   3.351   3.393  0.1770 -0.1267  0.1909
  797SOL     ow 3185   5.877   0.027   3.467 -0.4461 -0.7986 -0.0745
  797SOL     hw 3186   5.970   0.044   3.482 -0.3897  3.1630 -3.1253
  797SOL     hw 3187   5.875  -0.032   3.392 -0.1696  1.5678 -2.0646
  797SOL     vw 3188   5.889   0.022   3.459 -0.4020  0.0363 -0.7395
  798SOL     ow 3189   4.809   3.844   2.657  0.0428 -0.1281  0.0302
  798SOL     hw 3190   4.768   3.795   2.586 -0.4109  1.7658 -1.0585
  798SOL     hw 3191   4.737   3.887   2.702  0.5874  1.1448 -0.2831
  798SOL     vw 3192   4.794   3.843   2.654  0.0546  0.2897 -0.1549
  799SOL     ow 3193   5.203   3.305   2.934 -0.6017 -0.3950  0.7546
  799SOL     hw 3194   5.256   3.307   2.853 -0.2072 -1.2976  0.9706
  799SOL     hw 3195   5.119   3.269   2.906 -0.3015 -1.1712  0.8195
  799SOL     vw 3196   5.199   3.301   2.919 -0.5097 -0.6164  0.7917
  800SOL     ow 3197   4.303   5.586   3.358  0.1612  0.4304  0.2027
  800SOL     hw 3198   4.391   5.549   3.351 -0.9480 -2.1374 -2.3973
  800SOL     hw 3199   4.285   5.624   3.272 -1.4191  0.5363  0.5335
  800SOL     vw 3200   4.312   5.586   3.346 -0.1938  0.1056 -0.0967
  801SOL     ow 3201   6.605   6.391   2.875 -0.4397 -0.2604  0.2148
  801SOL     hw 3202   6.670   6.408   2.943  0.1226 -0.7141 -0.2073
  801SOL     hw 3203   6.546   6.327   2.914 -0.4792 -0.0585  0.4948
  801SOL     vw 3204   6.606   6.385   2.889 -0.3710 -0.2935  0.1960
  802SOL     ow 3205   0.115   6.816   3.265 -0.0011 -0.5576  0.0086
  802SOL     hw 3206   0.122   6.721   3.257  1.2584 -0.6439  1.5692
  802SOL     hw 3207   0.074   6.844   3.183  0.1654 -2.3757 -0.7499
  802SOL     vw 3208   0.111   6.807   3.253  0.1870 -0.8090  0.1144
  803SOL     ow 3209   4.886   0.552   5.915  0.2440  0.2611 -0.2074
  803SOL     hw 3210   4.978   0.526   5.914  0.3311  0.5074 -1.8220
  803SOL     hw 3211   4.867   0.573   6.006  1.4652 -0.8814  0.3371
  803SOL     vw 3212   4.895   0.551   5.927  0.4168  0.1429 -0.3483
  804SOL     ow 3213   1.357   3.323   2.046  0.3456  0.3392  0.0582
  804SOL     hw 3214   1.342   3.409   2.004 -1.1823  0.5626  0.9862
  804SOL     hw 3215   1.424   3.282   1.991 -0.9229  0.9713 -2.1221
  804SOL     vw 3216   1.364   3.329   2.033 -0.0234  0.4519 -0.1069
  805SOL     ow 3217   5.175   2.334   5.620 -0.6430 -0.2103  0.3332
  805SOL     hw 3218   5.158   2.277   5.545  1.2313 -1.5262  0.8231
  805SOL     hw 3219   5.089   2.346   5.661 -1.2605 -1.9091 -0.3528
  805SOL     vw 3220   5.161   2.328   5.615 -0.4771 -0.6081  0.3073
  806SOL     ow 3221   2.821   0.661   2.139  0.0103 -0.0922 -0.0021
  806SOL     hw 3222   2.916   0.672   2.138  0.0520  1.6733  3.8863
  806SOL     hw 3223   2.787   0.748   2.161 -2.3856 -1.0255  0.3074
  806SOL     vw 3224   2.829   0.674   2.142 -0.3003  0.0176  0.5517
  807SOL     ow 3225   0.798   6.129   6.627  0.5919  0.6825  0.2734
  807SOL     hw 3226   0.803   6.111   6.534  0.4480  0.3704  0.3240
  807SOL     hw 3227   0.889   6.142   6.654  0.6523  0.5644  0.1281
  807SOL     vw 3228   0.811   6.128   6.619  0.5809  0.6258  0.2611
  808SOL     ow 3229   0.606   0.465   3.260 -0.4022 -0.6780 -0.0051
  808SOL     hw 3230   0.619   0.377   3.296 -0.1022 -0.8674 -0.5609
  808SOL     hw 3231   0.578   0.450   3.170 -1.1156 -0.2114  0.1343
  808SOL     vw 3232   0.604   0.452   3.253 -0.4567 -0.6414 -0.0601
  809SOL     ow 3233   1.934   3.215   2.767 -0.3011 -0.5519  0.4095
  809SOL     hw 3234   1.974   3.301   2.754 -0.2962 -0.4308  1.2351
  809SOL     hw 3235   2.007   3.153   2.754 -0.2927 -0.4392 -0.1207
  809SOL     vw 3236   1.949   3.218   2.763 -0.2993 -0.5212  0.4485
  810SOL     ow 3237   6.646   4.178   0.330  0.9409  0.1156  0.4713
  810SOL     hw 3238   6.688   4.112   0.384  0.5863  0.2394  0.9112
  810SOL     hw 3239   6.670   4.261   0.371 -0.1669  0.1679  1.0712
  810SOL     vw 3240   6.654   4.181   0.343  0.7482  0.1388  0.6085
  811SOL     ow 3241   2.273   0.569   1.476 -0.0978  0.4509  0.4181
  811SOL     hw 3242   2.240   0.484   1.506 -1.3577  0.2853 -1.2718
  811SOL     hw 3243   2.293   0.556   1.383 -0.2016  1.9598  0.1494
  811SOL     vw 3244   2.271   0.556   1.468 -0.2776  0.6281  0.1597
  812SOL     ow 3245   2.262   3.815   4.424 -0.3637  0.3689 -0.5765
  812SOL     hw 3246   2.207   3.741   4.398  1.7651 -2.5169  2.1401
  812SOL     hw 3247   2.336   3.812   4.363 -0.1309 -0.0017 -0.2847
  812SOL     vw 3248   2.265   3.805   4.413 -0.0522 -0.0608 -0.1793
  813SOL     ow 3249   1.159   1.755   5.974  0.5546  0.9756  0.4045
  813SOL     hw 3250   1.079   1.705   5.992  1.5701 -0.3852  1.4352
  813SOL     hw 3251   1.210   1.746   6.054  3.0841 -0.8716 -1.2739
  813SOL     vw 3252   1.155   1.747   5.987  1.0223  0.5523  0.3188
  814SOL     ow 3253   3.943   0.683   5.975 -0.5572  0.2043  0.1361
  814SOL     hw 3254   3.911   0.667   6.064 -0.2922  1.8348  0.5425
  814SOL     hw 3255   4.038   0.675   5.982 -0.5046  0.7657  0.1018
  814SOL     vw 3256   3.951   0.679   5.988 -0.5152  0.4935  0.1853
  815SOL     ow 3257   6.670   0.201   5.369  0.1138  0.1502 -0.3243
  815SOL     hw 3258   6.743   0.148   5.335  0.5260  0.6578 -0.2440
  815SOL     hw 3259   6.666   0.180   5.462 -0.8629 -1.0622 -0.6139
  815SOL     vw 3260   6.679   0.191   5.377  0.0396  0.0572 -0.3519
  816SOL     ow 3261   4.168   1.332   0.942 -0.0555  0.2283 -0.2448
  816SOL     hw 3262   4.257   1.296   0.944  0.1629  0.6666 -1.3697
  816SOL     hw 3263   4.112   1.256   0.959  0.5262 -0.0545  0.4784
  816SOL     vw 3264   4.172   1.317   0.944  0.0501  0.2488 -0.2978
  817SOL     ow 3265   5.894   0.778   4.348  0.8931 -0.0354 -0.3627
  817SOL     hw 3266   5.861   0.703   4.398  1.7566 -0.4896 -0.4455
  817SOL     hw 3267   5.821   0.802   4.290  1.1377 -1.9000 -1.5391
  817SOL     vw 3268   5.880   0.771   4.347  1.0393 -0.3413 -0.5288
  818SOL     ow 3269   6.571   1.861   1.947  0.2168 -0.0818  0.4212
  818SOL     hw 3270   6.622   1.896   2.020  0.6244 -0.3092  0.2494
  818SOL     hw 3271   6.540   1.776   1.979  0.2910 -0.1272  0.3699
  818SOL     vw 3272   6.573   1.854   1.961  0.2804 -0.1178  0.3917
  819SOL     ow 3273   6.023   1.198   6.014 -0.2056  0.2539 -0.5466
  819SOL     hw 3274   5.953   1.135   6.033  0.7177 -1.0994 -1.4768
  819SOL     hw 3275   6.101   1.144   6.001  0.7247  1.6384 -0.9190
  819SOL     vw 3276   6.024   1.183   6.015  0.0389  0.2579 -0.7184
  820SOL     ow 3277   2.913   6.002   3.454 -0.0711  0.2857  0.2135
  820SOL     hw 3278   2.871   5.932   3.504  1.0391 -0.8274 -0.3666
  820SOL     hw 3279   2.985   6.032   3.509  1.2178 -1.0124 -0.7115
  820SOL     vw 3280   2.917   5.997   3.468  0.2453 -0.0322  0.0149
  821SOL     ow 3281   0.476   6.807   6.489  0.3590  0.0571  0.5568
  821SOL     hw 3282   0.533   6.836   6.419 -0.5234 -2.5830 -1.4113
  821SOL     hw 3283   0.418   6.881   6.505  2.5182  1.8126  0.7391
  821SOL     vw 3284   0.476   6.821   6.482  0.5275 -0.0596  0.3209
  822SOL     ow 3285   0.799   2.140   5.505 -0.6789  0.5270 -0.2857
  822SOL     hw 3286   0.733   2.192   5.550  0.7140  0.5469  1.8499
  822SOL     hw 3287   0.882   2.185   5.522  0.1558 -0.6336 -1.1043
  822SOL     vw 3288   0.801   2.152   5.513 -0.3850  0.3765 -0.1123
  823SOL     ow 3289   5.539   3.676   0.081  0.4939 -0.0697  0.3364
  823SOL     hw 3290   5.590   3.756   0.090  1.1611 -0.1344 -2.1359
  823SOL     hw 3291   5.448   3.705   0.085  0.6847  1.1524 -2.0617
  823SOL     vw 3292   5.533   3.690   0.083  0.6070  0.0831 -0.3062
  824SOL     ow 3293   0.399   4.715   2.231 -0.4337 -0.0973  0.2486
  824SOL     hw 3294   0.475   4.731   2.174 -0.5333  1.1068  0.4401
  824SOL     hw 3295   0.330   4.688   2.170  0.0580 -0.9786  0.0481
  824SOL     vw 3296   0.400   4.713   2.215 -0.3819 -0.0548  0.2475
  825SOL     ow 3297   4.663   5.220   5.424 -0.2839  0.2248  0.7139
  825SOL     hw 3298   4.629   5.136   5.455 -1.9207  0.3241 -0.6942
  825SOL     hw 3299   4.752   5.201   5.396 -0.2940 -0.8118  1.3371
  825SOL     vw 3300   4.670   5.207   5.424 -0.5012  0.1013  0.6104
  826SOL     ow 3301   5.553   0.419   1.297  0.0758 -0.4424 -0.0490
  826SOL     hw 3302   5.632   0.442   1.248 -0.0962 -1.0707 -0.6542
  826SOL     hw 3303   5.579   0.344   1.351  0.5339  0.8610  1.6195
  826SOL     vw 3304   5.567   0.412   1.297  0.1137 -0.3533  0.0914
  827SOL     ow 3305   4.823   3.094   4.655  0.7804 -0.0648 -0.0426
  827SOL     hw 3306   4.741   3.133   4.684  0.9553  1.6023 -1.5874
  827SOL     hw 3307   4.833   3.123   4.564  2.4737 -1.2486 -0.2988
  827SOL     vw 3308   4.814   3.103   4.647  1.0269 -0.0012 -0.2804
  828SOL     ow 3309   3.648   1.277   3.328 -0.4044  0.7266 -0.0355
  828SOL     hw 3310   3.658   1.201   3.270  2.5154  1.4692 -0.6755
  828SOL     hw 3311   3.642   1.352   3.268 -2.1089  1.1477  0.6101
  828SOL     vw 3312   3.648   1.277   3.312 -0.2440  0.8801 -0.0347
  829SOL     ow 3313   6.712   4.312   2.317  0.0167  0.4459  0.5233
  829SOL     hw 3314   6.693   4.388   2.372  1.0826  0.5797  0.7214
  829SOL     hw 3315   6.744   4.350   2.235  0.8538  0.2255  0.7343
  829SOL     vw 3316   6.714   4.327   2.313  0.2675  0.4344  0.5772
  830SOL     ow 3317   6.879   2.540   2.684 -0.1809 -0.1280  0.1970
  830SOL     hw 3318   6.860   2.626   2.720 -0.0755 -0.2905  0.6507
  830SOL     hw 3319   6.957   2.553   2.629 -0.4694  0.1621 -0.1514
  830SOL     vw 3320   6.887   2.553   2.681 -0.2048 -0.1112  0.2110
  831SOL     ow 3321   0.395   4.048   5.625 -0.1042  0.1458  0.0227
  831SOL     hw 3322   0.387   4.143   5.627 -0.9015  0.1584 -1.7401
  831SOL     hw 3323   0.381   4.021   5.715 -0.3379  1.6582  0.4717
  831SOL     vw 3324   0.392   4.057   5.637 -0.2402  0.3469 -0.1509
  832SOL     ow 3325   1.316   5.344   4.629  0.1792 -0.0511  0.4916
  832SOL     hw 3326   1.332   5.319   4.720  0.3893  1.0168  0.7609
  832SOL     hw 3327   1.233   5.303   4.606 -0.4484  0.6229  1.5361
  832SOL     vw 3328   1.307   5.336   4.638  0.1241  0.1788  0.6647
  833SOL     ow 3329   4.633   0.201   4.468  0.0370 -0.0919  0.0845
  833SOL     hw 3330   4.729   0.198   4.476  0.1255 -2.0849 -1.0174
  833SOL     hw 3331   4.617   0.224   4.377 -0.4688 -1.2995 -0.1555
  833SOL     vw 3332   4.644   0.204   4.457 -0.0181 -0.5142 -0.0927
  834SOL     ow 3333   4.919   1.645   0.703 -0.2825  0.3492 -0.0357
  834SOL     hw 3334   4.829   1.630   0.732 -0.9604 -0.6012 -2.4237
  834SOL     hw 3335   4.929   1.740   0.707 -1.7885  0.5725 -0.7936
  834SOL     vw 3336   4.908   1.655   0.708 -0.5708  0.2533 -0.4508
  835SOL     ow 3337   5.374   1.944   3.787  0.1451  0.2086 -0.2169
  835SOL     hw 3338   5.456   1.919   3.828 -0.0066 -0.1937 -0.1473
  835SOL     hw 3339   5.307   1.896   3.836 -0.2046  1.0918  0.1985
  835SOL     vw 3340   5.376   1.934   3.799  0.0789  0.2722 -0.1529
  836SOL     ow 3341   5.707   0.106   3.683  0.0591 -0.2553 -0.0985
  836SOL     hw 3342   5.779   0.066   3.731 -0.1139  0.2022  0.5669
  836SOL     hw 3343   5.653   0.147   3.751 -2.2605 -2.7628 -0.2728
  836SOL     vw 3344   5.709   0.106   3.698 -0.2699 -0.5258 -0.0337
  837SOL     ow 3345   0.540   6.135   0.697 -0.1261 -0.3586  0.2097
  837SOL     hw 3346   0.471   6.104   0.638  0.3007 -1.0159  0.0510
  837SOL     hw 3347   0.509   6.109   0.784  0.0861 -0.9722  0.1056
  837SOL     vw 3348   0.527   6.128   0.701 -0.0418 -0.5264  0.1751
  838SOL     ow 3349   3.141   1.008   0.032  0.0144 -0.4087 -0.3565
  838SOL     hw 3350   3.121   0.963  -0.050  0.4389 -0.0659 -0.6552
  838SOL     hw 3351   3.060   1.004   0.082 -0.3182 -0.4280 -0.8879
  838SOL     vw 3352   3.128   1.002   0.028  0.0266 -0.3660 -0.4660
  839SOL     ow 3353   1.397   0.503   2.153 -0.1069 -0.2160 -0.4914
  839SOL     hw 3354   1.425   0.417   2.185  1.8949  0.8308  0.7855
  839SOL     hw 3355   1.323   0.527   2.208  2.3020  0.8632  2.5336
  839SOL     vw 3356   1.391   0.495   2.164  0.4750  0.0645  0.0762
  840SOL     ow 3357   5.864   2.544   4.047 -0.0792  0.2106 -0.2288
  840SOL     hw 3358   5.878   2.636   4.072  1.3161 -0.4552  1.7273
  840SOL     hw 3359   5.938   2.524   3.990 -0.2888  0.2475 -0.5151
  840SOL     vw 3360   5.876   2.554   4.043  0.0772  0.1276 -0.0086
  841SOL     ow 3361   5.944   5.783   6.436 -0.1066 -0.1873 -0.9261
  841SOL     hw 3362   5.920   5.693   6.415 -1.0675  0.4138 -2.5392
  841SOL     hw 3363   6.031   5.794   6.397  0.6822 -0.8196  0.5494
  841SOL     vw 3364   5.953   5.772   6.428 -0.1292 -0.1915 -0.9444
  842SOL     ow 3365   4.137   3.065   6.178  0.0059 -0.4222  0.3624
  842SOL     hw 3366   4.204   2.997   6.164  0.0504 -0.5245  1.0145
  842SOL     hw 3367   4.083   3.063   6.099  1.1685  0.1213 -0.4757
  842SOL     vw 3368   4.139   3.056   6.166  0.1652 -0.3641  0.3376
  843SOL     ow 3369   1.497   2.645   6.177  0.3432  0.1923 -0.1283
  843SOL     hw 3370   1.515   2.562   6.133  0.2942  0.9212 -1.5833
  843SOL     hw 3371   1.470   2.704   6.107  0.9362  1.6089  0.7890
  843SOL     vw 3372   1.496   2.642   6.162  0.4150  0.4754 -0.1991
  844SOL     ow 3373   6.578   1.678   4.033  0.1041  0.1101  0.1618
  844SOL     hw 3374   6.595   1.660   3.940  2.8371 -0.9773  0.7716
  844SOL     hw 3375   6.630   1.613   4.080 -0.4564  1.2394  2.4905
  844SOL     vw 3376   6.587   1.667   4.027  0.3908  0.1156  0.5496
  845SOL     ow 3377   0.601   3.466   6.725 -0.0394  0.1342  0.4717
  845SOL     hw 3378   0.676   3.431   6.677  0.1752  1.3507 -0.1150
  845SOL     hw 3379   0.599   3.416   6.806  0.9660 -0.4047  0.1788
  845SOL     vw 3380   0.611   3.455   6.729  0.1216  0.2236  0.3557
  846SOL     ow 3381   3.180   2.975   2.920 -0.3343  0.0069 -0.5231
  846SOL     hw 3382   3.264   3.021   2.923 -0.4373  0.2663  3.1705
  846SOL     hw 3383   3.121   3.038   2.878  0.5726  1.3608  0.1271
  846SOL     vw 3384   3.183   2.990   2.915 -0.2282  0.2197  0.0499
  847SOL     ow 3385   5.447   0.621   2.504 -0.6378  0.1786  0.0452
  847SOL     hw 3386   5.376   0.684   2.497 -0.2326  0.4846 -1.9987
  847SOL     hw 3387   5.526   0.671   2.484 -0.0936 -0.5908  0.1886
  847SOL     vw 3388   5.448   0.636   2.500 -0.5126  0.1175 -0.2055
  848SOL     ow 3389   4.573   5.128   2.435  0.5575  0.1530  0.6119
  848SOL     hw 3390   4.592   5.050   2.487 -0.9129 -0.5567  0.1602
  848SOL     hw 3391   4.509   5.176   2.488 -1.2624 -0.7776 -0.6432
  848SOL     vw 3392   4.567   5.124   2.449  0.1233 -0.0634  0.3867
  849SOL     ow 3393   4.720   2.651   1.185 -0.6051  0.0770 -0.3044
  849SOL     hw 3394   4.776   2.716   1.143  2.1257 -1.6948  0.3317
  849SOL     hw 3395   4.699   2.688   1.270  1.0825  0.1031  0.1251
  849SOL     vw 3396   4.724   2.664   1.191 -0.0222 -0.1533 -0.1639
  850SOL     ow 3397   0.697   0.375   4.306  0.0476 -0.0721  0.1744
  850SOL     hw 3398   0.693   0.457   4.354 -3.1117 -0.7148  1.2783
  850SOL     hw 3399   0.637   0.317   4.354  0.8191 -2.4620 -1.5628
  850SOL     vw 3400   0.688   0.378   4.319 -0.2675 -0.4722  0.0906
  851SOL     ow 3401   3.036   4.106   0.709  0.2930  0.5895  0.4246
  851SOL     hw 3402   3.077   4.192   0.712 -0.9803  1.3850 -2.0826
  851SOL     hw 3403   3.018   4.091   0.616 -0.6082 -1.8615  0.9215
  851SOL     vw 3404   3.039   4.115   0.697  0.0061  0.3712  0.1593
  852SOL     ow 3405   4.874   0.704   5.637 -0.1197  0.0383 -0.4052
  852SOL     hw 3406   4.912   0.778   5.686 -0.9875  0.8659 -0.9572
  852SOL     hw 3407   4.938   0.686   5.568 -0.1992  0.7039 -0.6597
  852SOL     vw 3408   4.888   0.712   5.635 -0.2446  0.2353 -0.5114
  853SOL     ow 3409   2.611   3.004   2.849  0.6136  0.0341  0.3085
  853SOL     hw 3410   2.571   3.075   2.899  1.7466  1.1360 -0.3123
  853SOL     hw 3411   2.620   2.933   2.912  0.5205  0.8353  1.2512
  853SOL     vw 3412   2.607   3.004   2.864  0.7507  0.2850  0.3511
  854SOL     ow 3413   3.613   3.763   4.118 -0.9009 -0.0115  0.1294
  854SOL     hw 3414   3.700   3.801   4.128 -1.0573  0.8194 -1.3399
  854SOL     hw 3415   3.607   3.696   4.186  1.5918 -1.3862 -0.8934
  854SOL     vw 3416   3.623   3.759   4.128 -0.5926 -0.0832 -0.1993
  855SOL     ow 3417   0.114   2.134   5.574 -0.5074  0.1000 -0.5114
  855SOL     hw 3418   0.148   2.050   5.543 -0.4312 -0.0101 -0.1329
  855SOL     hw 3419   0.141   2.197   5.507 -0.6881 -0.1994 -0.8657
  855SOL     vw 3420   0.122   2.131   5.561 -0.5212  0.0459 -0.5081
  856SOL     ow 3421   2.247   2.530   1.832  0.4468 -0.1182  0.2459
  856SOL     hw 3422   2.272   2.590   1.902  1.4259  0.3742 -0.5022
  856SOL     hw 3423   2.330   2.498   1.797 -0.0487 -1.1774 -0.0124
  856SOL     vw 3424   2.261   2.534   1.837  0.5106 -0.1929  0.1132
  857SOL     ow 3425   1.095   1.221   5.347  0.2750 -0.1548  0.6262
  857SOL     hw 3426   1.127   1.241   5.435 -0.0095 -1.3914  1.0346
  857SOL     hw 3427   1.144   1.143   5.321  1.7895  1.2936 -1.1476
  857SOL     vw 3428   1.105   1.214   5.355  0.4373 -0.1269  0.4461
  858SOL     ow 3429   0.603   2.462   0.642  0.6290  0.4247  0.4948
  858SOL     hw 3430   0.655   2.508   0.576  1.0232  0.9910  1.1797
  858SOL     hw 3431   0.597   2.372   0.610 -0.3837  0.9935 -1.0135
  858SOL     vw 3432   0.609   2.456   0.629  0.5474  0.5745  0.3861
  859SOL     ow 3433   5.591   1.869   4.156  0.2430 -0.4320  0.0106
  859SOL     hw 3434   5.499   1.867   4.132  0.5565 -0.2506 -1.2590
  859SOL     hw 3435   5.592   1.849   4.250 -1.2592  1.6445  0.5303
  859SOL     vw 3436   5.579   1.866   4.165  0.0863 -0.1341 -0.0885
  860SOL     ow 3437   5.270   0.227   3.646  0.7338 -0.2350  0.0893
  860SOL     hw 3438   5.323   0.304   3.668 -0.5486  0.0741  2.5369
  860SOL     hw 3439   5.327   0.153   3.666  1.7576  0.0413 -1.6675
  860SOL     vw 3440   5.284   0.227   3.652  0.6998 -0.1578  0.1805
  861SOL     ow 3441   0.063   1.562   2.253  0.3916 -0.1569  0.1952
  861SOL     hw 3442   0.136   1.621   2.234  2.8149 -2.0364  2.7959
  861SOL     hw 3443   0.036   1.584   2.342 -2.8408  0.9196 -0.8992
  861SOL     vw 3444   0.069   1.573   2.262  0.2848 -0.2628  0.3941
  862SOL     ow 3445   3.442   2.234   2.652  0.4267 -0.2226  0.6999
  862SOL     hw 3446   3.374   2.266   2.593  0.5629  1.6469  1.4773
  862SOL     hw 3447   3.511   2.299   2.646  0.7839 -0.4133  2.2938
  862SOL     vw 3448   3.442   2.247   2.644  0.4920 -0.0011  1.0126
  863SOL     ow 3449   5.624   3.380   6.884 -0.4316 -0.1288 -0.5256
  863SOL     hw 3450   5.718   3.391   6.900 -0.2091 -0.0362 -1.7944
  863SOL     hw 3451   5.618   3.367   6.789 -1.7278  0.1038 -0.4833
  863SOL     vw 3452   5.636   3.379   6.873 -0.5734 -0.0859 -0.6874
  864SOL     ow 3453   5.308   2.985   6.106  0.1823  0.1082  0.2604
  864SOL     hw 3454   5.275   3.060   6.156  2.5774  0.1796  1.9174
  864SOL     hw 3455   5.362   3.024   6.037 -1.7678 -0.0550 -1.4664
  864SOL     vw 3456   5.311   3.000   6.103  0.2408  0.0961  0.2515
  865SOL     ow 3457   1.642   4.314   2.811  0.4345  0.4045 -0.3276
  865SOL     hw 3458   1.570   4.333   2.751  0.6748  0.9970 -0.4351
  865SOL     hw 3459   1.600   4.279   2.889 -0.2464  3.3183  0.7290
  865SOL     vw 3460   1.627   4.312   2.813  0.3763  0.8674 -0.2023
  866SOL     ow 3461   1.968   6.564   4.674  0.0876  0.1075 -0.0184
  866SOL     hw 3462   2.050   6.546   4.627 -0.8656  2.2366 -2.7808
  866SOL     hw 3463   1.905   6.586   4.605 -2.2648  0.5886  2.1333
  866SOL     vw 3464   1.971   6.565   4.659 -0.3485  0.4520 -0.0992
  867SOL     ow 3465   3.805   0.136   5.683 -0.6463  0.0004  0.2648
  867SOL     hw 3466   3.761   0.052   5.692 -0.6353  0.0760  1.0581
  867SOL     hw 3467   3.827   0.162   5.773 -2.4824  1.8370  0.2555
  867SOL     vw 3468   3.802   0.128   5.696 -0.8870  0.2527  0.3684
  868SOL     ow 3469   2.063   3.197   4.503  0.0303 -0.3104  0.8591
  868SOL     hw 3470   2.103   3.168   4.421 -1.6292 -1.9590  0.5558
  868SOL     hw 3471   2.022   3.280   4.481 -0.9161 -1.0178 -0.2155
  868SOL     vw 3472   2.063   3.204   4.489 -0.3134 -0.6212  0.6771
  869SOL     ow 3473   3.992   3.844   0.582 -0.0029  0.4322  0.0291
  869SOL     hw 3474   3.914   3.880   0.539  0.1179  2.5887  1.4626
  869SOL     hw 3475   4.062   3.906   0.560  1.1895 -1.0649 -0.6085
  869SOL     vw 3476   3.991   3.857   0.573  0.1704  0.5192  0.1341
  870SOL     ow 3477   1.198   0.135   3.762 -0.3516 -0.3661  0.2916
  870SOL     hw 3478   1.263   0.205   3.769 -0.2368 -0.4228 -0.2013
  870SOL     hw 3479   1.172   0.136   3.670 -0.6135 -0.7350  0.3625
  870SOL     vw 3480   1.203   0.144   3.751 -0.3710 -0.4223  0.2360
  871SOL     ow 3481   6.634   6.037   6.430 -0.1773  0.1030 -0.5717
  871SOL     hw 3482   6.636   6.069   6.520  2.7355 -0.8332 -0.2259
  871SOL     hw 3483   6.561   5.974   6.429  1.7135 -2.3631  2.1142
  871SOL     vw 3484   6.624   6.033   6.442  0.4566 -0.3459 -0.1714
  872SOL     ow 3485   3.346   6.781   3.085 -0.5857  0.6472 -0.1000
  872SOL     hw 3486   3.310   6.827   3.009  0.9340  1.0086 -0.6315
  872SOL     hw 3487   3.372   6.695   3.051  0.7779  1.0712 -0.2055
  872SOL     vw 3488   3.345   6.776   3.071 -0.2053  0.7508 -0.1838
  873SOL     ow 3489   0.389   3.328   4.246  0.2207 -0.5804  0.0698
  873SOL     hw 3490   0.408   3.362   4.333 -1.9640  1.5737 -0.1711
  873SOL     hw 3491   0.314   3.270   4.259  1.5280 -2.3855 -0.0796
  873SOL     vw 3492   0.381   3.325   4.259  0.1050 -0.5343  0.0181
  874SOL     ow 3493   3.217   3.184   6.793  0.0418  0.2000  0.1416
  874SOL     hw 3494   3.132   3.212   6.828  0.0479 -0.5858  0.8052
  874SOL     hw 3495   3.197   3.146   6.708 -0.6204 -2.1163  1.2625
  874SOL     vw 3496   3.203   3.183   6.787 -0.0448 -0.2092  0.3769
  875SOL     ow 3497   3.923   2.202   3.536 -0.6620  0.1774  0.2684
  875SOL     hw 3498   3.831   2.179   3.524 -0.2781 -1.1134 -0.3260
  875SOL     hw 3499   3.924   2.252   3.618 -1.9187  0.4866  0.1301
  875SOL     vw 3500   3.911   2.206   3.545 -0.7772  0.0479  0.1717
  876SOL     ow 3501   5.449   2.293   2.194 -0.1457  0.8044  0.7027
  876SOL     hw 3502   5.426   2.370   2.143 -0.3618  0.0958 -0.3041
  876SOL     hw 3503   5.541   2.276   2.172  0.3754  1.6179  2.0730
  876SOL     vw 3504   5.458   2.301   2.185 -0.1054  0.8183  0.7505
  877SOL     ow 3505   0.378   1.850   1.643 -0.6127  0.3013  0.0108
  877SOL     hw 3506   0.344   1.760   1.636 -0.1031  0.1944 -1.2736
  877SOL     hw 3507   0.331   1.886   1.718 -1.1143 -0.9128  0.3207
  877SOL     vw 3508   0.367   1.843   1.652 -0.6116  0.1270 -0.1178
  878SOL     ow 3509   4.340   1.006   4.034 -0.1107 -0.1357 -0.4168
  878SOL     hw 3510   4.272   0.939   4.036 -1.1806  0.8588 -1.7946
  878SOL     hw 3511   4.328   1.050   3.949  3.1611 -0.8718 -1.4100
  878SOL     vw 3512   4.330   1.003   4.023  0.1795 -0.1016 -0.7296
  879SOL     ow 3513   4.847   1.939   5.967 -0.5143 -0.4930 -0.0379
  879SOL     hw 3514   4.760   1.899   5.969 -0.5445 -0.5039 -1.1307
  879SOL     hw 3515   4.879   1.924   5.878  0.8069 -0.9031  0.4812
  879SOL     vw 3516   4.840   1.932   5.956 -0.3440 -0.5485 -0.1137
  880SOL     ow 3517   1.458   0.463   1.670 -0.5972  0.3201  0.2420
  880SOL     hw 3518   1.386   0.516   1.635 -0.7389 -0.9129 -1.4880
  880SOL     hw 3519   1.511   0.442   1.593  0.6243 -0.2848  1.2194
  880SOL     vw 3520   1.456   0.467   1.655 -0.4548  0.0776  0.1428
  881SOL     ow 3521   2.168   5.696   1.601  0.3051  0.3689  0.2162
  881SOL     hw 3522   2.079   5.720   1.629 -0.0288  0.2983 -0.7496
  881SOL     hw 3523   2.156   5.620   1.545  0.7321  1.6707 -1.7195
  881SOL     vw 3524   2.155   5.689   1.598  0.3175  0.5312 -0.1667
  882SOL     ow 3525   5.051   4.652   3.463  0.3147  0.0407 -0.3016
  882SOL     hw 3526   5.001   4.618   3.537  0.1082  0.6093 -0.1751
  882SOL     hw 3527   5.134   4.604   3.466  2.0365  2.7909  2.7660
  882SOL     vw 3528   5.055   4.641   3.473  0.5143  0.4785  0.1198
  883SOL     ow 3529   4.534   6.658   3.351  0.1313 -0.7208  1.1604
  883SOL     hw 3530   4.449   6.685   3.318  0.3489 -0.9339  0.4241
  883SOL     hw 3531   4.550   6.716   3.426  0.3595  0.8803 -0.0831
  883SOL     vw 3532   4.525   6.669   3.357  0.1900 -0.5376  0.8992
  884SOL     ow 3533   5.949   0.987   2.118  0.4323 -0.0564  0.1823
  884SOL     hw 3534   5.883   0.968   2.184 -0.2948  0.5670 -0.3353
  884SOL     hw 3535   6.015   1.039   2.163 -1.0819  2.2038  0.0251
  884SOL     vw 3536   5.949   0.992   2.132  0.1369  0.3241  0.0933
  885SOL     ow 3537   2.390   5.544   5.134  0.0427 -0.8093 -0.0496
  885SOL     hw 3538   2.393   5.534   5.039  0.5767 -1.1278 -0.0027
  885SOL     hw 3539   2.400   5.455   5.168  0.5972 -0.6138  0.3122
  885SOL     vw 3540   2.392   5.531   5.126  0.1862 -0.8254  0.0043
  886SOL     ow 3541   2.418   0.098   4.524 -0.0704 -0.3987 -0.2963
  886SOL     hw 3542   2.346   0.041   4.550 -2.2566  1.4872 -1.8553
  886SOL     hw 3543   2.423   0.088   4.428  0.3364  1.0574 -0.4428
  886SOL     vw 3544   2.409   0.089   4.514 -0.3052  0.0422 -0.5212
  887SOL     ow 3545   2.097   3.483   6.240 -0.6933  0.4757 -0.4096
  887SOL     hw 3546   2.065   3.470   6.329 -0.8154  0.6287 -0.4307
  887SOL     hw 3547   2.169   3.545   6.250 -1.2517  1.1487 -0.5152
  887SOL     vw 3548   2.102   3.489   6.253 -0.7830  0.5846 -0.4261
  888SOL     ow 3549   5.010   0.079   3.545 -0.2861 -0.2985 -0.2532
  888SOL     hw 3550   5.008   0.057   3.452  2.3143 -1.1180 -0.1941
  888SOL     hw 3551   4.956   0.011   3.587 -0.1796 -0.8662 -1.0112
  888SOL     vw 3552   5.003   0.067   3.538  0.0710 -0.4815 -0.3453
  889SOL     ow 3553   0.217   0.536   5.294  0.0147  0.1993  0.2155
  889SOL     hw 3554   0.237   0.448   5.326  1.8261  0.8940  1.1087
  889SOL     hw 3555   0.165   0.521   5.215  0.9029 -1.6896 -0.0697
  889SOL     vw 3556   0.213   0.522   5.288  0.3709  0.0418  0.2959
  890SOL     ow 3557   3.056   0.101   6.263 -0.2327 -0.2335  0.4873
  890SOL     hw 3558   3.044   0.017   6.219 -4.9608  0.2302  0.3835
  890SOL     hw 3559   3.029   0.166   6.198  2.3359  1.3851  0.9172
  890SOL     vw 3560   3.051   0.099   6.249 -0.5176  0.0412  0.5305
  891SOL     ow 3561   1.962   4.849   1.397  0.0288  0.2925 -0.2458
  891SOL     hw 3562   2.042   4.867   1.446  0.5518 -0.3529 -0.8448
  891SOL     hw 3563   1.969   4.757   1.373 -0.6995  0.3374 -0.6692
  891SOL     vw 3564   1.974   4.839   1.401  0.0017  0.2129 -0.3807
  892SOL     ow 3565   3.528   6.617   4.728 -0.5270  0.3532  1.0116
  892SOL     hw 3566   3.541   6.688   4.666  0.0770  0.5499  1.3487
  892SOL     hw 3567   3.564   6.540   4.684 -0.2678  0.4557  1.0406
  892SOL     vw 3568   3.534   6.616   4.714 -0.4133  0.3927  1.0600
  893SOL     ow 3569   3.332   2.597   4.468  0.5809 -0.5819 -0.8016
  893SOL     hw 3570   3.252   2.563   4.509  1.1797 -0.5510  0.4512
  893SOL     hw 3571   3.353   2.533   4.399 -0.4291 -0.6687 -1.0410
  893SOL     vw 3572   3.324   2.584   4.465  0.5265 -0.5893 -0.6680
  894SOL     ow 3573   4.586   3.667   1.038  0.0648 -0.0617  0.0264
  894SOL     hw 3574   4.567   3.703   0.951  0.8905  1.4725  0.4439
  894SOL     hw 3575   4.668   3.709   1.063 -0.1604 -0.5010  1.5513
  894SOL     vw 3576   4.594   3.677   1.030  0.1440  0.0829  0.2827
  895SOL     ow 3577   0.064   1.580   3.379  0.4640 -0.7429 -0.2330
  895SOL     hw 3578  -0.011   1.610   3.328 -0.5156 -0.6388  1.2036
  895SOL     hw 3579   0.069   1.642   3.452  3.2615  0.5299 -1.3541
  895SOL     vw 3580   0.055   1.592   3.382  0.7038 -0.5612 -0.1915
  896SOL     ow 3581   0.828   0.528   5.497 -0.0823 -0.6632  0.2161
  896SOL     hw 3582   0.750   0.475   5.487 -0.5069  0.0785 -0.4527
  896SOL     hw 3583   0.884   0.504   5.423 -0.8750  0.8117 -0.9088
  896SOL     vw 3584   0.825   0.518   5.486 -0.2429 -0.3707 -0.0207
  897SOL     ow 3585   2.933   4.334   1.793  0.1853  0.0980 -0.2235
  897SOL     hw 3586   2.978   4.413   1.822 -1.2864  0.7950  0.2679
  897SOL     hw 3587   2.936   4.275   1.868 -0.8442  0.6644  0.2853
  897SOL     vw 3588   2.939   4.336   1.807 -0.1446  0.2644 -0.0915
  898SOL     ow 3589   5.274   6.524   5.751  0.4422 -0.2614 -0.0632
  898SOL     hw 3590   5.345   6.587   5.737  1.3362 -1.1930  0.1909
  898SOL     hw 3591   5.316   6.450   5.795 -0.7704 -0.6609  0.4516
  898SOL     vw 3592   5.289   6.522   5.755  0.4001 -0.4370  0.0386
  899SOL     ow 3593   2.900   3.848   5.216 -0.7611 -0.1918 -0.1893
  899SOL     hw 3594   2.808   3.852   5.189 -0.7310  1.4987 -0.1751
  899SOL     hw 3595   2.897   3.851   5.312 -0.6910 -0.0082 -0.1928
  899SOL     vw 3596   2.887   3.849   5.225 -0.7479  0.0553 -0.1879
  900SOL     ow 3597   6.242   4.436   2.204 -0.3394 -0.6854  0.3655
  900SOL     hw 3598   6.217   4.505   2.266 -0.3400  0.1449 -0.5348
  900SOL     hw 3599   6.173   4.370   2.213 -2.5725  1.2040 -1.5083
  900SOL     vw 3600   6.230   4.436   2.214 -0.6344 -0.3266 -0.0006
  901SOL     ow 3601   4.004   0.505   2.369  0.1076  0.7943  0.3572
  901SOL     hw 3602   4.092   0.478   2.395 -0.1095  0.7813  1.0808
  901SOL     hw 3603   4.018   0.574   2.304  0.6724 -0.6759 -1.1829
  901SOL     vw 3604   4.017   0.510   2.364  0.1533  0.5986  0.2495
  902SOL     ow 3605   0.887   6.897   4.788  0.3424  0.4847 -0.1577
  902SOL     hw 3606   0.878   6.834   4.717  1.3796 -0.4194  0.4839
  902SOL     hw 3607   0.897   6.981   4.745  0.9092 -0.0426 -1.0801
  902SOL     vw 3608   0.887   6.900   4.773  0.5540  0.2961 -0.1950
  903SOL     ow 3609   4.522   2.244   2.952 -0.0993  0.1882 -0.4747
  903SOL     hw 3610   4.440   2.197   2.937 -0.2841  0.5053 -0.4742
  903SOL     hw 3611   4.573   2.186   3.008 -1.7672  1.4890  2.6742
  903SOL     vw 3612   4.518   2.231   2.957 -0.3438  0.4017 -0.0591
  904SOL     ow 3613   5.695   5.493   2.134 -0.4631  0.4591 -0.2132
  904SOL     hw 3614   5.771   5.486   2.076 -0.2718  0.7943 -0.0044
  904SOL     hw 3615   5.730   5.478   2.222 -0.6594  0.4918 -0.1292
  904SOL     vw 3616   5.709   5.490   2.138 -0.4640  0.5076 -0.1746
  905SOL     ow 3617   6.586   0.344   0.090 -0.2125 -0.1054  0.6818
  905SOL     hw 3618   6.674   0.323   0.122  0.5222  0.3851 -0.9117
  905SOL     hw 3619   6.571   0.281   0.020 -0.1198  1.3162 -0.6555
  905SOL     vw 3620   6.596   0.333   0.085 -0.1035  0.1469  0.2952
  906SOL     ow 3621   4.570   1.067   4.242  0.1217 -0.2026 -0.1661
  906SOL     hw 3622   4.626   1.007   4.192  0.0334 -1.4634  1.1933
  906SOL     hw 3623   4.582   1.041   4.333 -0.7282  1.1940  0.3756
  906SOL     vw 3624   4.579   1.055   4.247 -0.0019 -0.1848  0.0844
  907SOL     ow 3625   0.240   1.392   4.736  0.0440  0.3507 -0.0898
  907SOL     hw 3626   0.305   1.436   4.792 -1.2396  0.4787  1.3689
  907SOL     hw 3627   0.273   1.405   4.647  2.1795  0.1228  0.6043
  907SOL     vw 3628   0.253   1.400   4.732  0.1564  0.3374  0.1941
  908SOL     ow 3629   0.973   1.731   6.778  0.4565 -0.1865 -0.5444
  908SOL     hw 3630   0.953   1.819   6.744 -2.4373 -0.2124  0.7956
  908SOL     hw 3631   1.044   1.745   6.840  0.8973  0.9940 -1.2833
  908SOL     vw 3632   0.980   1.745   6.781  0.1328 -0.0342 -0.4652
  909SOL     ow 3633   3.113   1.296   6.096 -0.5943  0.1762  0.6312
  909SOL     hw 3634   3.101   1.383   6.136 -0.5682 -0.0409  1.1272
  909SOL     hw 3635   3.182   1.256   6.150 -0.1236  0.1054 -0.0175
  909SOL     vw 3636   3.121   1.302   6.109 -0.5288  0.1383  0.6111
  910SOL     ow 3637   0.656   6.783   6.747  0.0124  0.3283  0.1476
  910SOL     hw 3638   0.644   6.861   6.802 -0.2972 -0.6492  1.5164
  910SOL     hw 3639   0.721   6.731   6.794  0.7136  0.0509 -1.0952
  910SOL     vw 3640   0.663   6.787   6.761  0.0641  0.1628  0.1645
  911SOL     ow 3641   0.930   0.277   6.833 -0.4504 -0.0854 -0.1272
  911SOL     hw 3642   1.019   0.243   6.842  0.3209  2.1444  1.8474
  911SOL     hw 3643   0.873   0.203   6.854  1.0164 -1.0882  0.4204
  911SOL     vw 3644   0.934   0.263   6.837 -0.1552  0.0765  0.2055
  912SOL     ow 3645   3.050   2.132   3.896 -0.4116  0.3189  0.8230
  912SOL     hw 3646   3.030   2.168   3.982  0.4389  0.6710  0.8780
  912SOL     hw 3647   3.144   2.118   3.897 -0.5289 -0.5599  0.2824
  912SOL     vw 3648   3.060   2.135   3.907 -0.3148  0.2495  0.7590
  913SOL     ow 3649   2.820   2.563   3.619 -0.2824  0.7842  0.8401
  913SOL     hw 3650   2.912   2.577   3.596 -0.5655  1.9922  0.3765
  913SOL     hw 3651   2.777   2.543   3.536 -0.0965 -2.0831  1.3244
  913SOL     vw 3652   2.827   2.562   3.605 -0.2952  0.5653  0.8428
  914SOL     ow 3653   3.249   5.430   3.771 -0.4743 -0.4110 -0.1874
  914SOL     hw 3654   3.156   5.435   3.794  0.0013 -0.7400  2.1017
  914SOL     hw 3655   3.282   5.518   3.785  0.0409 -0.8471  1.6323
  914SOL     vw 3656   3.241   5.442   3.776 -0.3437 -0.5124  0.3546
  915SOL     ow 3657   2.398   5.926   1.582  0.5038  0.0709 -0.2122
  915SOL     hw 3658   2.351   5.944   1.500  1.6278  1.2755 -0.6257
  915SOL     hw 3659   2.385   6.005   1.634  1.2553  0.0087  0.0707
  915SOL     vw 3660   2.390   5.939   1.578  0.7513  0.2215 -0.2295
  916SOL     ow 3661   3.825   6.521   4.004  0.1658 -0.2678  0.2141
  916SOL     hw 3662   3.858   6.445   3.957  2.5989  0.7043  0.1951
  916SOL     hw 3663   3.741   6.542   3.961  1.0249 -0.9958 -1.9365
  916SOL     vw 3664   3.818   6.514   3.992  0.6001 -0.2358 -0.0722
  917SOL     ow 3665   2.781   0.118   0.118  0.1577 -0.1576  0.1757
  917SOL     hw 3666   2.795   0.196   0.064  1.5944 -1.1225 -0.8979
  917SOL     hw 3667   2.687   0.120   0.137  0.3404  2.5159  1.2964
  917SOL     vw 3668   2.770   0.128   0.113  0.3713  0.0678  0.1819
  918SOL     ow 3669   1.301   5.428   5.940  0.2452  0.3229 -0.6754
  918SOL     hw 3670   1.291   5.405   5.848 -0.0395 -1.8534 -0.1716
  918SOL     hw 3671   1.391   5.458   5.948  0.0292  1.3127 -1.7928
  918SOL     vw 3672   1.311   5.429   5.929  0.1792  0.1664 -0.7563
  919SOL     ow 3673   1.624   1.826   2.484  0.0731 -0.0364  0.1463
  919SOL     hw 3674   1.606   1.750   2.429 -0.8701  0.9886 -1.0130
  919SOL     hw 3675   1.584   1.805   2.568  1.7998 -1.7603  0.6269
  919SOL     vw 3676   1.616   1.813   2.488  0.1765 -0.1286  0.0567
  920SOL     ow 3677   4.403   0.979   5.391  0.0833  0.1899 -0.6547
  920SOL     hw 3678   4.476   1.038   5.411 -0.9712  1.6222 -0.8808
  920SOL     hw 3679   4.329   1.037   5.374 -1.6884 -1.2307  1.6092
  920SOL     vw 3680   4.403   0.994   5.392 -0.2892  0.1915 -0.3858
  921SOL     ow 3681   1.696   5.785   5.164 -0.0314 -0.0981  0.0567
  921SOL     hw 3682   1.730   5.874   5.161 -0.6674  0.1222 -1.0606
  921SOL     hw 3683   1.612   5.793   5.209 -2.1627  0.6503 -3.6357
  921SOL     vw 3684   1.689   5.798   5.170 -0.3965  0.0296 -0.5779
  922SOL     ow 3685   1.271   4.504   1.736 -0.0871  0.4516  0.1453
  922SOL     hw 3686   1.341   4.486   1.673  0.3728 -0.8356  0.9789
  922SOL     hw 3687   1.255   4.420   1.778 -1.1573  1.0487  0.9732
  922SOL     vw 3688   1.278   4.491   1.733 -0.1675  0.3605  0.3645
  923SOL     ow 3689   5.014   1.724   0.078  0.0563 -0.5132  0.1456
  923SOL     hw 3690   5.088   1.752   0.131 -0.6144  3.2739 -0.6045
  923SOL     hw 3691   4.941   1.716   0.139  0.4285 -1.4302  0.4815
  923SOL     vw 3692   5.014   1.727   0.093  0.0169 -0.1345  0.0909
  924SOL     ow 3693   0.362   0.047   2.164  0.2324 -0.2643  0.1503
  924SOL     hw 3694   0.293   0.003   2.115 -2.0297  2.3366  0.7403
  924SOL     hw 3695   0.420   0.084   2.097 -2.5111  2.7728 -0.7770
  924SOL     vw 3696   0.361   0.046   2.149 -0.4281  0.4796  0.1057
  925SOL     ow 3697   3.825   6.433   2.869 -0.0611 -0.0287  0.0487
  925SOL     hw 3698   3.731   6.454   2.868  0.1754  1.6891 -3.3275
  925SOL     hw 3699   3.867   6.513   2.899  0.3822 -0.0494 -0.4975
  925SOL     vw 3700   3.818   6.446   2.872  0.0286  0.1955 -0.4690
  926SOL     ow 3701   6.485   1.735   5.009 -0.5673  0.5300  0.1278
  926SOL     hw 3702   6.391   1.750   5.012 -0.8342 -1.0274  0.2033
  926SOL     hw 3703   6.523   1.812   5.051 -1.7874  1.1937  0.0676
  926SOL     vw 3704   6.478   1.747   5.015 -0.7634  0.4121  0.1299
  927SOL     ow 3705   0.858   6.135   0.748  0.5509 -0.2220  0.6254
  927SOL     hw 3706   0.869   6.064   0.685  2.0487 -0.0648  0.6723
  927SOL     hw 3707   0.915   6.112   0.821  0.8731  0.9044  0.7488
  927SOL     vw 3708   0.867   6.123   0.749  0.7910 -0.0529  0.6478
  928SOL     ow 3709   5.642   2.648   3.903  0.0474  0.1055 -0.4315
  928SOL     hw 3710   5.657   2.621   3.813  0.2477 -0.9020 -0.1035
  928SOL     hw 3711   5.703   2.596   3.955 -0.2534  0.4749  0.3155
  928SOL     vw 3712   5.652   2.638   3.898  0.0343  0.0212 -0.2898
  929SOL     ow 3713   2.692   0.852   3.862  0.7626 -0.2989 -0.1752
  929SOL     hw 3714   2.685   0.918   3.931  2.6486  1.1558 -1.2922
  929SOL     hw 3715   2.622   0.875   3.800  1.9882  1.3532 -1.0401
  929SOL     vw 3716   2.681   0.864   3.863  1.1731  0.1110 -0.4368
  930SOL     ow 3717   6.572   0.118   6.234  0.3860  0.2020 -0.5387
  930SOL     hw 3718   6.500   0.170   6.196 -1.1220 -0.9806  0.5920
  930SOL     hw 3719   6.563   0.130   6.328  1.6768 -0.0049 -0.3724
  930SOL     vw 3720   6.561   0.127   6.241  0.3574  0.0187 -0.3679
  931SOL     ow 3721   0.775   6.442   4.610 -0.4695 -0.1174  0.1774
  931SOL     hw 3722   0.759   6.372   4.547  2.1208 -1.7272  1.1301
  931SOL     hw 3723   0.820   6.399   4.683  0.0410  2.3181  1.4170
  931SOL     vw 3724   0.779   6.428   4.611 -0.0604 -0.0083  0.4666
  932SOL     ow 3725   0.308   0.208   0.587  0.1297  0.5384 -0.5160
  932SOL     hw 3726   0.372   0.202   0.516  1.7260 -1.0644  0.9765
  932SOL     hw 3727   0.282   0.300   0.588  2.5591  1.2958 -1.0688
  932SOL     vw 3728   0.313   0.220   0.578  0.6609  0.4268 -0.3920
  933SOL     ow 3729   3.168   1.255   2.687  0.2441  0.1941 -0.5078
  933SOL     hw 3730   3.129   1.340   2.711 -0.7132 -0.8551  2.0265
  933SOL     hw 3731   3.254   1.256   2.729 -0.7351 -0.9579  1.7051
  933SOL     vw 3732   3.174   1.267   2.696 -0.0114 -0.0964  0.1185
  934SOL     ow 3733   0.937   4.565   5.343  0.5514 -0.2265 -0.3586
  934SOL     hw 3734   0.916   4.582   5.435  2.4316  1.5557 -0.1902
  934SOL     hw 3735   0.854   4.537   5.304 -0.7272  0.8420  1.4533
  934SOL     vw 3736   0.923   4.563   5.350  0.6307  0.1495 -0.0973
  935SOL     ow 3737   2.900   6.146   1.413  0.7483 -0.5137  0.4298
  935SOL     hw 3738   2.926   6.157   1.321 -0.4085  0.2161  0.1714
  935SOL     hw 3739   2.862   6.230   1.438 -0.8966 -1.3521  0.9119
  935SOL     vw 3740   2.898   6.159   1.404  0.3785 -0.5281  0.4593
  936SOL     ow 3741   1.897   2.526   0.537  0.2644  0.0115 -0.3035
  936SOL     hw 3742   1.818   2.576   0.559  0.1230 -1.6392  3.7374
  936SOL     hw 3743   1.870   2.473   0.462 -1.4564  1.5863 -0.9078
  936SOL     vw 3744   1.883   2.526   0.530  0.0187  0.0015  0.1499
  937SOL     ow 3745   1.163   4.170   6.855 -0.1974 -0.4748  0.0299
  937SOL     hw 3746   1.240   4.159   6.800 -0.3783  1.6661 -0.7674
  937SOL     hw 3747   1.110   4.092   6.839  1.7755 -2.0085  0.6429
  937SOL     vw 3748   1.166   4.159   6.846  0.0390 -0.3946  0.0057
  938SOL     ow 3749   2.081   5.127   0.324 -0.1758 -0.2119  0.5030
  938SOL     hw 3750   2.102   5.204   0.378  0.2271  0.7349 -0.9455
  938SOL     hw 3751   2.163   5.108   0.277 -1.0060  0.1623 -1.1683
  938SOL     vw 3752   2.095   5.135   0.325 -0.2321 -0.0374  0.0914
  939SOL     ow 3753   0.982   2.159   0.138  0.0398 -0.2241  0.1925
  939SOL     hw 3754   0.927   2.200   0.071  0.4292  0.6668  0.3941
  939SOL     hw 3755   0.927   2.090   0.175 -0.3657 -0.3855 -0.6777
  939SOL     vw 3756   0.968   2.156   0.134  0.0377 -0.1279  0.1043
  940SOL     ow 3757   6.419   4.924   4.457 -0.0816  0.3724 -0.1041
  940SOL     hw 3758   6.427   5.012   4.494  0.4210 -0.2815  1.4275
  940SOL     hw 3759   6.343   4.887   4.502  0.4104 -0.3711  0.1353
  940SOL     vw 3760   6.410   4.930   4.468  0.0494  0.1879  0.1295
  941SOL     ow 3761   5.042   3.960   2.820  0.5330 -0.3585 -0.4064
  941SOL     hw 3762   5.048   3.973   2.915 -0.0155  0.9828 -0.5418
  941SOL     hw 3763   5.131   3.977   2.789  0.2940  1.0784 -0.3353
  941SOL     vw 3764   5.055   3.964   2.829  0.4289  0.0081 -0.4150
  942SOL     ow 3765   5.892   0.151   5.614  0.4525 -0.1949 -0.2047
  942SOL     hw 3766   5.837   0.079   5.646 -0.5176  0.7708  0.3803
  942SOL     hw 3767   5.981   0.124   5.636 -0.0906  0.0738  2.8145
  942SOL     vw 3768   5.897   0.138   5.621  0.2527 -0.0321  0.2708
  943SOL     ow 3769   4.111   2.099   0.914  0.7750  0.4387 -0.0047
  943SOL     hw 3770   4.044   2.164   0.894 -0.0843 -0.6295 -0.7442
  943SOL     hw 3771   4.180   2.115   0.848  0.2102  0.1112 -0.6880
  943SOL     vw 3772   4.111   2.110   0.902  0.5870  0.2546 -0.1924
  944SOL     ow 3773   1.286   3.139   4.692 -0.1930 -0.0310  0.8187
  944SOL     hw 3774   1.215   3.082   4.723  0.3860 -1.3251 -0.1167
  944SOL     hw 3775   1.362   3.114   4.744  0.4499 -1.2776 -0.6229
  944SOL     vw 3776   1.287   3.128   4.703 -0.0318 -0.3661  0.5050
  945SOL     ow 3777   4.465   1.734   3.933 -0.1529  0.1152  0.0525
  945SOL     hw 3778   4.525   1.735   4.008 -1.9348 -0.3959  1.5619
  945SOL     hw 3779   4.407   1.809   3.948 -1.9316 -1.2491  0.4546
  945SOL     vw 3780   4.465   1.744   3.945 -0.6227 -0.1323  0.3048
  946SOL     ow 3781   3.564   6.019   5.197  0.2075  0.0661  0.5199
  946SOL     hw 3782   3.600   5.993   5.112  1.6846  0.5691  0.9607
  946SOL     hw 3783   3.534   6.109   5.184  2.6180  1.0325  1.0855
  946SOL     vw 3784   3.565   6.028   5.184  0.7205  0.2604  0.6528
  947SOL     ow 3785   1.903   6.718   2.098  0.2782 -0.3822 -0.2460
  947SOL     hw 3786   1.874   6.627   2.107 -1.4524 -0.0557 -2.0446
  947SOL     hw 3787   1.873   6.760   2.178 -1.4911 -0.7892 -0.6478
  947SOL     vw 3788   1.895   6.711   2.110 -0.1835 -0.3927 -0.5361
  948SOL     ow 3789   0.988   1.052   4.463  0.2822 -0.1158  0.2323
  948SOL     hw 3790   0.932   0.975   4.470 -0.1800  0.3597  2.6764
  948SOL     hw 3791   0.929   1.126   4.469  0.8909  0.4335 -0.3285
  948SOL     vw 3792   0.973   1.052   4.465  0.3015  0.0194  0.4807
  949SOL     ow 3793   0.693   2.857   5.304 -0.3568  0.2836 -0.2453
  949SOL     hw 3794   0.692   2.871   5.209  0.9483 -1.6845 -0.6052
  949SOL     hw 3795   0.619   2.799   5.321  0.0293 -0.2071 -0.2250
  949SOL     vw 3796   0.683   2.851   5.294 -0.1337 -0.0409 -0.2902
  950SOL     ow 3797   1.078   4.962   0.750  0.0556 -0.1696  0.0237
  950SOL     hw 3798   1.031   4.946   0.832  2.7315  2.0004  2.2065
  950SOL     hw 3799   1.132   4.883   0.739  0.2313 -0.1746  0.8033
  950SOL     vw 3800   1.079   4.949   0.760  0.4319  0.1161  0.4146
  951SOL     ow 3801   5.648   6.186   5.485 -0.2327  0.0237  0.2507
  951SOL     hw 3802   5.622   6.147   5.569 -0.4185 -0.1990  0.0907
  951SOL     hw 3803   5.740   6.163   5.476 -0.9583 -2.8275 -1.1544
  951SOL     vw 3804   5.657   6.178   5.495 -0.3529 -0.3815  0.0443
  952SOL     ow 3805   0.024   6.603   4.523  0.2051 -0.5438  0.7575
  952SOL     hw 3806   0.118   6.604   4.506  0.5900  1.2006  2.6414
  952SOL     hw 3807  -0.013   6.662   4.456  0.7874  0.6423  1.4457
  952SOL     vw 3808   0.031   6.611   4.512  0.3327 -0.1571  1.0967
  953SOL     ow 3809   0.165   6.472   5.519  0.1443  0.6292 -0.0941
  953SOL     hw 3810   0.092   6.453   5.460  0.8002  0.3144 -0.8329
  953SOL     hw 3811   0.130   6.536   5.581 -0.2865  1.8152 -1.4813
  953SOL     vw 3812   0.151   6.478   5.519  0.1740  0.7441 -0.3746
  954SOL     ow 3813   1.077   6.106   5.661  0.2582  0.1279  0.5245
  954SOL     hw 3814   1.159   6.145   5.632 -0.5397  1.5264  0.0458
  954SOL     hw 3815   1.047   6.164   5.731 -0.5833 -0.0514  0.3223
  954SOL     vw 3816   1.084   6.119   5.666  0.0420  0.2885  0.4346
  955SOL     ow 3817   2.375   6.511   2.906 -0.2873 -0.7866  0.1887
  955SOL     hw 3818   2.279   6.509   2.905 -0.3276  0.6112 -0.3919
  955SOL     hw 3819   2.399   6.575   2.839  1.0352 -0.5530  0.8442
  955SOL     vw 3820   2.365   6.519   2.897 -0.1181 -0.5717  0.1985
  956SOL     ow 3821   6.753   5.910   3.981 -0.6073 -0.2862  0.3322
  956SOL     hw 3822   6.737   6.001   3.956 -0.0467 -0.3337 -0.2037
  956SOL     hw 3823   6.805   5.916   4.061  0.7039 -0.1247 -0.5147
  956SOL     vw 3824   6.758   5.923   3.989 -0.3603 -0.2713  0.1498
  957SOL     ow 3825   2.637   1.462   4.203  0.3304 -0.4829 -0.4736
  957SOL     hw 3826   2.588   1.506   4.273  1.2217 -0.2471  0.0200
  957SOL     hw 3827   2.633   1.523   4.129  1.1046  0.2078  0.0356
  957SOL     vw 3828   2.630   1.476   4.202  0.5500 -0.3607 -0.3412
  958SOL     ow 3829   3.606   6.034   6.339 -0.3412  0.0500 -0.0875
  958SOL     hw 3830   3.551   6.111   6.326 -0.1929 -0.1299 -1.9900
  958SOL     hw 3831   3.576   5.997   6.422 -1.3384  1.3777  0.1739
  958SOL     vw 3832   3.595   6.039   6.348 -0.4534  0.2012 -0.3037
  959SOL     ow 3833   3.866   0.352   1.921 -0.5630  0.0055  0.2963
  959SOL     hw 3834   3.931   0.364   1.851 -1.5209 -0.0874 -0.6265
  959SOL     hw 3835   3.918   0.354   2.002  0.4040  1.5157 -0.3090
  959SOL     vw 3836   3.882   0.354   1.923 -0.5618  0.1925  0.0947
  960SOL     ow 3837   3.473   0.316   4.773 -0.4018  0.2474  0.1244
  960SOL     hw 3838   3.401   0.296   4.713 -1.1802  0.3868  1.0051
  960SOL     hw 3839   3.548   0.270   4.735 -1.2827 -1.1412 -0.0070
  960SOL     vw 3840   3.474   0.307   4.760 -0.6207  0.0825  0.2232
  961SOL     ow 3841   1.188   3.148   2.162  0.6768  0.1035 -0.1653
  961SOL     hw 3842   1.104   3.187   2.187 -0.1614 -1.0383 -1.1017
  961SOL     hw 3843   1.228   3.212   2.104 -0.4970 -0.2038 -1.3631
  961SOL     vw 3844   1.182   3.162   2.158  0.4113 -0.0876 -0.4469
  962SOL     ow 3845   0.849   1.950   2.741 -0.3343  0.0168 -0.2180
  962SOL     hw 3846   0.851   2.001   2.822  0.5327 -1.6756  0.8757
  962SOL     hw 3847   0.776   1.987   2.692  0.6479  2.7551  0.1836
  962SOL     vw 3848   0.840   1.962   2.745 -0.0904  0.1547 -0.0207
  963SOL     ow 3849   2.533   3.364   6.304  0.1394  0.3969  1.1891
  963SOL     hw 3850   2.542   3.269   6.304 -0.1538  0.3689  1.2624
  963SOL     hw 3851   2.591   3.394   6.234  1.1343  0.2526  1.9311
  963SOL     vw 3852   2.542   3.355   6.295  0.2320  0.3742  1.2968
  964SOL     ow 3853   6.548   4.124   6.881 -0.0711  0.0150  0.3381
  964SOL     hw 3854   6.469   4.168   6.913 -0.2489  0.9958 -1.3418
  964SOL     hw 3855   6.523   4.089   6.795  1.3450  0.5004 -0.3000
  964SOL     vw 3856   6.534   4.125   6.874  0.0920  0.2084  0.0324
  965SOL     ow 3857   3.839   3.012   5.468 -0.4024 -0.4341  0.7395
  965SOL     hw 3858   3.846   2.982   5.559 -0.0602  0.7821  1.1375
  965SOL     hw 3859   3.893   2.951   5.419  0.8473 -0.0872  1.6265
  965SOL     vw 3860   3.847   3.000   5.474 -0.1924 -0.2279  0.9091
  966SOL     ow 3861   5.098   0.830   0.613 -0.1771 -0.2177 -0.4773
  966SOL     hw 3862   5.058   0.758   0.564 -0.6279 -0.4049  0.1572
  966SOL     hw 3863   5.130   0.890   0.545 -1.7218  0.0461 -1.0207
  966SOL     vw 3864   5.097   0.828   0.598 -0.4404 -0.2076 -0.4653
  967SOL     ow 3865   5.113   1.861   6.146  0.0508 -0.1545 -0.0217
  967SOL     hw 3866   5.174   1.836   6.215  1.1294 -0.6824 -1.1209
  967SOL     hw 3867   5.123   1.956   6.136 -0.1177 -0.0780  0.5394
  967SOL     vw 3868   5.122   1.870   6.153  0.1707 -0.2140 -0.0927
  968SOL     ow 3869   3.447   3.416   6.685  1.2353 -0.0909 -0.2974
  968SOL     hw 3870   3.541   3.432   6.698  1.2939  0.8051 -1.6723
  968SOL     hw 3871   3.430   3.442   6.595 -0.4683  0.3427  0.1154
  968SOL     vw 3872   3.457   3.422   6.675  1.0183  0.0845 -0.4244
  969SOL     ow 3873   4.134   5.701   3.872  0.2840  0.2560 -0.2590
  969SOL     hw 3874   4.180   5.666   3.797  1.4656  0.7280  0.2235
  969SOL     hw 3875   4.064   5.638   3.890  1.3227 -0.9665 -0.4264
  969SOL     vw 3876   4.131   5.688   3.865  0.5767  0.1566 -0.2174
  970SOL     ow 3877   4.212   1.599   0.997  0.3769  0.1722  0.0814
  970SOL     hw 3878   4.185   1.513   0.966 -1.0668  0.1583  1.2651
  970SOL     hw 3879   4.306   1.591   1.013  0.1915 -1.3025  0.5364
  970SOL     vw 3880   4.221   1.587   0.995  0.1619 -0.0242  0.2976
  971SOL     ow 3881   0.032   1.051   2.813 -0.5823 -0.3808 -0.6696
  971SOL     hw 3882   0.116   1.018   2.846 -0.4214  0.5078 -0.1740
  971SOL     hw 3883  -0.033   1.011   2.871 -0.2919  1.3035  0.9154
  971SOL     vw 3884   0.034   1.041   2.825 -0.5228 -0.0413 -0.3952
  972SOL     ow 3885   0.667   1.892   3.319 -0.0331  0.0407  0.0286
  972SOL     hw 3886   0.734   1.891   3.251  0.0737  0.5979  0.1157
  972SOL     hw 3887   0.709   1.850   3.394 -0.1015 -0.4432 -0.2029
  972SOL     vw 3888   0.682   1.886   3.320 -0.0280  0.0504  0.0095
  973SOL     ow 3889   5.084   1.003   0.883  0.5203 -0.0510 -0.1043
  973SOL     hw 3890   5.178   0.994   0.871  0.2997 -1.0191 -1.4146
  973SOL     hw 3891   5.074   1.045   0.968  2.1250 -0.0535  0.1157
  973SOL     vw 3892   5.095   1.007   0.892  0.7029 -0.1792 -0.2481
  974SOL     ow 3893   4.017   3.381   2.498  0.5654  0.1413  0.1650
  974SOL     hw 3894   3.961   3.438   2.445  0.6227 -0.7380 -0.8720
  974SOL     hw 3895   3.960   3.310   2.526  1.5197 -1.9328 -2.6771
  974SOL     vw 3896   4.002   3.379   2.495  0.6990 -0.2483 -0.3467
  975SOL     ow 3897   4.973   3.526   5.261  0.9230 -0.8266 -0.0987
  975SOL     hw 3898   5.060   3.500   5.229  1.1349 -0.2545 -0.0122
  975SOL     hw 3899   4.990   3.604   5.314  0.2990 -0.4314 -0.4720
  975SOL     vw 3900   4.987   3.533   5.264  0.8690 -0.6989 -0.1366
  976SOL     ow 3901   2.805   4.521   1.643  0.4969  0.0542 -0.1241
  976SOL     hw 3902   2.780   4.603   1.600  0.2659  1.6092  2.7462
  976SOL     hw 3903   2.891   4.500   1.605 -0.1378  0.7083 -2.0524
  976SOL     vw 3904   2.813   4.529   1.633  0.3827  0.3457  0.0002
  977SOL     ow 3905   1.678   4.333   5.911  0.5864 -0.2835 -0.1920
  977SOL     hw 3906   1.710   4.285   5.987  0.5406  1.9071  1.3031
  977SOL     hw 3907   1.693   4.274   5.837  3.5126 -1.3030  1.0710
  977SOL     vw 3908   1.684   4.319   5.911  0.9664 -0.1287  0.1719
  978SOL     ow 3909   1.448   5.467   3.143  0.1900  0.5745 -0.1147
  978SOL     hw 3910   1.517   5.521   3.104  0.2611 -0.6955 -1.8374
  978SOL     hw 3911   1.389   5.447   3.071 -1.3135  0.5453  1.0594
  978SOL     vw 3912   1.449   5.472   3.129  0.0010  0.4029 -0.1872
  979SOL     ow 3913   1.636   0.839   4.329 -0.8072  0.3311  0.3244
  979SOL     hw 3914   1.546   0.831   4.297 -1.3690 -0.4914  2.0170
  979SOL     hw 3915   1.643   0.777   4.400  1.5338 -0.5857 -0.5800
  979SOL     vw 3916   1.625   0.830   4.334 -0.5726  0.1016  0.4284
  980SOL     ow 3917   1.097   2.697   6.490 -0.0704  0.5206  0.4858
  980SOL     hw 3918   1.102   2.706   6.585 -1.1437 -0.2987  0.6385
  980SOL     hw 3919   1.030   2.630   6.476  0.3602  0.3451 -0.8389
  980SOL     vw 3920   1.089   2.689   6.501 -0.1552  0.3895  0.3309
  981SOL     ow 3921   3.791   1.425   3.587  0.5111  0.1772  0.0580
  981SOL     hw 3922   3.820   1.513   3.563  1.5097 -0.1810 -0.0951
  981SOL     hw 3923   3.845   1.401   3.662  0.0731 -0.2171  0.2559
  981SOL     vw 3924   3.802   1.433   3.593  0.5851  0.0778  0.0639
  982SOL     ow 3925   1.480   0.914   2.600  0.3948 -0.5521 -0.4417
  982SOL     hw 3926   1.536   0.928   2.676 -1.8728  1.6492  0.9941
  982SOL     hw 3927   1.501   0.986   2.540  2.6849 -2.6695 -2.3984
  982SOL     vw 3928   1.490   0.926   2.602  0.3977 -0.5411 -0.5106
  983SOL     ow 3929   5.780   5.717   4.186  0.4296 -0.5048 -0.0205
  983SOL     hw 3930   5.753   5.760   4.267 -0.4354  0.5025 -0.8111
  983SOL     hw 3931   5.796   5.626   4.212 -0.3382 -0.3271  1.1859
  983SOL     vw 3932   5.779   5.710   4.200  0.2143 -0.3483  0.0343
  984SOL     ow 3933   1.537   6.252   0.540  0.0910 -0.0046  0.0607
  984SOL     hw 3934   1.537   6.305   0.460 -1.3631 -0.3796 -0.2076
  984SOL     hw 3935   1.475   6.182   0.523 -1.1252  0.5420  1.9387
  984SOL     vw 3936   1.529   6.250   0.527 -0.2612  0.0184  0.2731
  985SOL     ow 3937   5.568   6.632   4.795  0.0005 -0.4681  0.5193
  985SOL     hw 3938   5.653   6.591   4.778  0.5798  1.0434 -0.4039
  985SOL     hw 3939   5.573   6.661   4.886  0.2423 -0.8806  0.6401
  985SOL     vw 3940   5.580   6.630   4.805  0.1090 -0.3231  0.4134
  986SOL     ow 3941   5.648   2.655   5.200  0.0338  1.1074 -0.0482
  986SOL     hw 3942   5.681   2.709   5.272  1.6619  0.2742 -0.1249
  986SOL     hw 3943   5.624   2.718   5.132  1.0332  1.7907  0.2102
  986SOL     vw 3944   5.650   2.670   5.200  0.3805  1.0877 -0.0243
  987SOL     ow 3945   0.291   3.222   0.750  0.3571  0.8593  0.3202
  987SOL     hw 3946   0.345   3.223   0.670  0.9546 -0.6168  0.6694
  987SOL     hw 3947   0.355   3.223   0.821  0.0106 -1.6391  0.7427
  987SOL     vw 3948   0.307   3.222   0.749  0.3902  0.3349  0.4220
  988SOL     ow 3949   0.734   5.701   4.602  0.0414 -0.1036  0.0429
  988SOL     hw 3950   0.720   5.638   4.531  0.3220 -0.1044 -0.0137
  988SOL     hw 3951   0.649   5.709   4.644  0.0181 -0.5865  0.1007
  988SOL     vw 3952   0.721   5.694   4.598  0.0753 -0.1676  0.0429
  989SOL     ow 3953   4.160   3.487   4.730  0.2791  0.7220  0.5233
  989SOL     hw 3954   4.148   3.455   4.820 -1.2107 -0.2937  0.0045
  989SOL     hw 3955   4.084   3.543   4.715  0.3997  0.6978 -0.1829
  989SOL     vw 3956   4.149   3.490   4.740  0.0985  0.5848  0.3617
  990SOL     ow 3957   4.646   5.380   4.727  0.1811  0.1664 -0.2079
  990SOL     hw 3958   4.716   5.321   4.697 -0.7633 -0.1267 -1.9773
  990SOL     hw 3959   4.641   5.447   4.659 -2.2581 -0.6644 -0.9515
  990SOL     vw 3960   4.655   5.381   4.714 -0.2654  0.0186 -0.5393
  991SOL     ow 3961   1.184   2.365   3.754 -0.1286 -0.9590 -0.3447
  991SOL     hw 3962   1.261   2.421   3.767 -2.9312  3.0827  0.4695
  991SOL     hw 3963   1.164   2.332   3.842 -1.1509  0.7420  0.0999
  991SOL     vw 3964   1.192   2.368   3.767 -0.6332 -0.2013 -0.1787
  992SOL     ow 3965   6.812   3.639   3.209  1.1983 -0.0566 -0.0952
  992SOL     hw 3966   6.819   3.654   3.303 -0.1359 -1.7926  0.3358
  992SOL     hw 3967   6.879   3.695   3.170  1.1198  1.4374  1.7936
  992SOL     vw 3968   6.822   3.648   3.216  1.0118 -0.0885  0.2109
  993SOL     ow 3969   1.756   2.934   5.541 -0.3254  0.5467  0.3437
  993SOL     hw 3970   1.803   3.002   5.590  2.7677 -2.5800  2.1571
  993SOL     hw 3971   1.787   2.944   5.451  2.1760 -0.0009  1.0856
  993SOL     vw 3972   1.766   2.944   5.535  0.4128  0.0620  0.6804
  994SOL     ow 3973   5.807   6.877   6.398  0.0958  0.2863 -0.5045
  994SOL     hw 3974   5.790   6.791   6.437 -1.7565 -0.3852 -2.5713
  994SOL     hw 3975   5.804   6.938   6.472 -3.0719 -0.9046  0.5393
  994SOL     vw 3976   5.804   6.874   6.413 -0.5665  0.0408 -0.6397
  995SOL     ow 3977   1.126   2.546   3.524  0.0373  0.3318 -0.0373
  995SOL     hw 3978   1.134   2.641   3.531  1.4099  0.3402 -1.2983
  995SOL     hw 3979   1.213   2.516   3.499  0.6974 -1.7111  3.9545
  995SOL     vw 3980   1.138   2.555   3.521  0.3055  0.0634  0.3231
  996SOL     ow 3981   6.779   6.709   0.676  0.3956 -0.1255  0.0560
  996SOL     hw 3982   6.759   6.727   0.768 -0.4035  1.2500 -0.3544
  996SOL     hw 3983   6.696   6.722   0.631  0.7161 -1.0680 -0.8297
  996SOL     vw 3984   6.765   6.713   0.683  0.3324 -0.0684 -0.1150
  997SOL     ow 3985   1.872   4.530   3.279  0.1968 -0.2897  0.4543
  997SOL     hw 3986   1.784   4.566   3.278  0.2523 -0.1272 -1.5550
  997SOL     hw 3987   1.866   4.454   3.337 -0.9033  0.4980  1.4341
  997SOL     vw 3988   1.860   4.525   3.286  0.0590 -0.1640  0.3184
  998SOL     ow 3989   5.774   6.859   6.763  0.0729  0.0745  0.1326
  998SOL     hw 3990   5.697   6.833   6.713  0.5302 -0.0711 -0.5105
  998SOL     hw 3991   5.811   6.933   6.715 -1.0294  1.7606  1.7792
  998SOL     vw 3992   5.769   6.865   6.750 -0.0122  0.2778  0.2651
  999SOL     ow 3993   3.487   2.702   1.776 -0.2567  0.0962  0.0442
  999SOL     hw 3994   3.406   2.744   1.745 -0.0118  0.0242 -0.7055
  999SOL     hw 3995   3.555   2.766   1.758  0.1077 -0.5702 -1.0241
  999SOL     vw 3996   3.485   2.716   1.770 -0.1763 -0.0011 -0.1956
 1000SOL     ow 3997   0.008   6.158   6.419  0.0330  0.1643  0.1419
 1000SOL     hw 3998   0.092   6.176   6.378 -0.0776  1.2503  0.3650
 1000SOL     hw 3999  -0.044   6.238   6.406 -0.6588 -0.1668  0.7477
 1000SOL     vw 4000   0.012   6.171   6.412 -0.0730  0.2642  0.2513
 1001SOL     ow 4001   2.023   3.691   3.551 -0.7144  0.2538  0.0451
 1001SOL     hw 4002   2.022   3.787   3.558 -0.5624  0.4666 -2.1990
 1001SOL     hw 4003   2.107   3.670   3.511 -1.8453 -0.5304 -2.1106
 1001SOL     vw 4004   2.034   3.701   3.547 -0.8435  0.1785 -0.5355
 1002SOL     ow 4005   4.079   1.098   5.066  1.0572  0.1009 -0.4173
 1002SOL     hw 4006   4.128   1.022   5.033 -2.0073 -1.6816 -1.2635
 1002SOL     hw 4007   4.018   1.062   5.130  1.3841  2.3613  1.3039
 1002SOL     vw 4008   4.078   1.084   5.070  0.6962  0.1640 -0.3016
 1003SOL     ow 4009   2.475   2.451   2.432  0.3973 -0.1467  1.0003
 1003SOL     hw 4010   2.447   2.525   2.378  0.6665 -0.2804  0.6767
 1003SOL     hw 4011   2.570   2.451   2.425  0.3797 -0.7938  0.6349
 1003SOL     vw 4012   2.483   2.461   2.424  0.4305 -0.2496  0.9094
 1004SOL     ow 4013   5.014   1.024   3.225  0.9120 -0.3971 -0.0168
 1004SOL     hw 4014   5.099   0.981   3.238  0.5916 -0.6886  1.3061
 1004SOL     hw 4015   5.027   1.113   3.258  0.4751 -0.7065  1.0213
 1004SOL     vw 4016   5.027   1.030   3.231  0.8121 -0.4765  0.2947
 1005SOL     ow 4017   3.845   2.207   1.300 -0.0805  0.0598 -0.2417
 1005SOL     hw 4018   3.786   2.246   1.364 -1.7097 -1.0864 -0.9609
 1005SOL     hw 4019   3.794   2.203   1.219  0.5452 -2.0192 -0.6055
 1005SOL     vw 4020   3.831   2.212   1.298 -0.2129 -0.3657 -0.3846
 1006SOL     ow 4021   0.784   0.339   1.049 -0.1215 -0.0310 -0.3387
 1006SOL     hw 4022   0.804   0.256   1.007 -0.5515  0.7553 -2.2052
 1006SOL     hw 4023   0.700   0.366   1.011  0.4928  1.7267 -0.5407
 1006SOL     vw 4024   0.775   0.332   1.039 -0.0972  0.3047 -0.6116
 1007SOL     ow 4025   2.721   6.264   6.336 -0.4191  0.3298 -0.4434
 1007SOL     hw 4026   2.671   6.183   6.326  1.3680 -1.1457  1.5872
 1007SOL     hw 4027   2.783   6.264   6.264 -0.7244  0.1321 -0.7059
 1007SOL     vw 4028   2.723   6.253   6.325 -0.2236  0.1090 -0.2100
 1008SOL     ow 4029   6.389   4.984   0.831  0.0592  0.6037 -0.2182
 1008SOL     hw 4030   6.464   4.949   0.782  0.9504 -0.3319  1.6891
 1008SOL     hw 4031   6.316   4.981   0.769  1.1869 -0.2149 -1.5713
 1008SOL     vw 4032   6.389   4.979   0.817  0.3257  0.3722 -0.1450
 1009SOL     ow 4033   0.763   5.383   2.192  0.3359  0.6181  0.0479
 1009SOL     hw 4034   0.816   5.463   2.187 -0.6750  1.2348 -1.2125
 1009SOL     hw 4035   0.813   5.319   2.141 -0.0483  1.1730 -1.0644
 1009SOL     vw 4036   0.777   5.385   2.185  0.1519  0.7725 -0.2650
 1010SOL     ow 4037   3.929   3.250   3.741 -0.0670  0.5710 -0.2122
 1010SOL     hw 4038   3.938   3.338   3.705  2.0797  0.4143 -0.2350
 1010SOL     hw 4039   3.932   3.193   3.665 -0.4916  0.4406 -0.1310
 1010SOL     vw 4040   3.931   3.254   3.726  0.1602  0.5333 -0.2046
 1011SOL     ow 4041   4.676   2.550   2.975  0.3151  0.0989 -0.2349
 1011SOL     hw 4042   4.596   2.572   3.022 -0.0387 -0.7717 -0.3915
 1011SOL     hw 4043   4.739   2.615   3.002 -0.9419  1.9388 -1.5020
 1011SOL     vw 4044   4.674   2.561   2.985  0.1030  0.2270 -0.4227
 1012SOL     ow 4045   6.735   4.038   2.501  0.3422  0.4605  0.6351
 1012SOL     hw 4046   6.829   4.029   2.482  0.5462  1.5137  1.0312
 1012SOL     hw 4047   6.710   3.955   2.542  1.0736  0.1277  0.4221
 1012SOL     vw 4048   6.744   4.026   2.504  0.4654  0.5558  0.6593
 1013SOL     ow 4049   5.549   6.435   0.760 -0.3834 -0.1184 -0.3350
 1013SOL     hw 4050   5.504   6.377   0.699 -0.5515  0.0934 -0.4145
 1013SOL     hw 4051   5.581   6.507   0.705  0.1198 -0.3016 -0.2944
 1013SOL     vw 4052   5.548   6.437   0.744 -0.3390 -0.1147 -0.3401
 1014SOL     ow 4053   4.631   4.873   2.556  0.3020  0.3892 -0.1517
 1014SOL     hw 4054   4.706   4.901   2.608  0.9470 -1.0131 -0.2843
 1014SOL     hw 4055   4.561   4.859   2.620  0.5419  0.4389  0.1240
 1014SOL     vw 4056   4.631   4.875   2.571  0.4187  0.2110 -0.1329
 1015SOL     ow 4057   1.065   0.390   1.927  0.1872  0.0690 -0.6487
 1015SOL     hw 4058   1.053   0.367   2.019 -0.7488  0.5674 -0.6282
 1015SOL     hw 4059   0.979   0.377   1.888 -0.3169  2.9713 -0.7319
 1015SOL     vw 4060   1.052   0.385   1.934 -0.0028  0.5177 -0.6570
 1016SOL     ow 4061   5.316   0.878   3.913 -0.0827  0.7820 -0.3623
 1016SOL     hw 4062   5.341   0.816   3.845 -0.4414 -0.2991  0.4706
 1016SOL     hw 4063   5.395   0.892   3.965 -0.8145 -1.8483  1.6533
 1016SOL     vw 4064   5.330   0.872   3.911 -0.2263  0.2923  0.0136
 1017SOL     ow 4065   0.843   4.943   0.571  0.3035  0.5450 -0.4337
 1017SOL     hw 4066   0.809   4.949   0.481 -0.1031  0.8838 -0.2619
 1017SOL     hw 4067   0.783   4.997   0.622 -0.7850 -1.4287  0.4446
 1017SOL     vw 4068   0.830   4.951   0.566  0.1062  0.3293 -0.2951
 1018SOL     ow 4069   5.269   3.749   4.141  0.1952  0.3749  0.1080
 1018SOL     hw 4070   5.313   3.759   4.057 -0.0431  1.9064  0.1495
 1018SOL     hw 4071   5.272   3.835   4.181  0.0708 -0.2719  1.5699
 1018SOL     vw 4072   5.275   3.762   4.135  0.1476  0.4916  0.3061
 1019SOL     ow 4073   5.992   1.266   3.480  0.3755  0.0245  0.2745
 1019SOL     hw 4074   6.042   1.286   3.401 -1.9342  1.5042 -0.9294
 1019SOL     hw 4075   6.013   1.338   3.540 -0.2194  0.6245 -0.2154
 1019SOL     vw 4076   6.002   1.278   3.477 -0.0076  0.2989  0.0510
 1020SOL     ow 4077   2.215   4.668   3.307 -0.0776  0.4827 -0.2558
 1020SOL     hw 4078   2.266   4.592   3.278  0.6536  0.4619  1.0158
 1020SOL     hw 4079   2.214   4.660   3.402 -2.7705  0.3025 -0.2408
 1020SOL     vw 4080   2.222   4.657   3.315 -0.3364  0.4566 -0.0861
 1021SOL     ow 4081   5.690   1.486   0.489  0.0173  0.0944 -0.4375
 1021SOL     hw 4082   5.687   1.523   0.577  0.5554 -0.1683 -0.3099
 1021SOL     hw 4083   5.600   1.498   0.455  0.1049  1.2788 -0.3103
 1021SOL     vw 4084   5.677   1.493   0.496  0.1001  0.2159 -0.4039
 1022SOL     ow 4085   4.525   0.857   5.118 -0.5009  0.1978 -0.7853
 1022SOL     hw 4086   4.504   0.812   5.036 -0.4374  1.7311 -1.6709
 1022SOL     hw 4087   4.607   0.903   5.100 -0.5071  0.5893  0.1340
 1022SOL     vw 4088   4.533   0.857   5.105 -0.4933  0.4518 -0.7808
 1023SOL     ow 4089   4.708   6.697   4.183 -0.2310  0.4044  0.1534
 1023SOL     hw 4090   4.636   6.734   4.233 -0.1349  0.1459  0.4867
 1023SOL     hw 4091   4.667   6.632   4.126 -0.2943  0.4399  0.1580
 1023SOL     vw 4092   4.693   6.693   4.182 -0.2265  0.3748  0.1979
 1024SOL     ow 4093   5.899   0.471   5.516 -0.1421 -0.0247 -0.1987
 1024SOL     hw 4094   5.983   0.502   5.549  0.9647 -0.4487 -2.4300
 1024SOL     hw 4095   5.898   0.498   5.424 -2.7074  0.4473 -0.1052
 1024SOL     vw 4096   5.910   0.479   5.508 -0.3345 -0.0184 -0.4809
 1025SOL     ow 4097   5.473   6.265   5.222  0.0474  0.0764 -0.2647
 1025SOL     hw 4098   5.418   6.339   5.195 -1.7400 -1.0681  0.0915
 1025SOL     hw 4099   5.467   6.203   5.150 -0.5524 -0.7849  0.5000
 1025SOL     vw 4100   5.465   6.267   5.209 -0.2675 -0.1884 -0.1168
 1026SOL     ow 4101   2.622   5.018   1.591 -0.4015  0.1572  0.3809
 1026SOL     hw 4102   2.653   4.974   1.670  1.1113 -1.1826 -0.8858
 1026SOL     hw 4103   2.669   5.101   1.589  0.4243 -0.3029  0.3282
 1026SOL     vw 4104   2.632   5.023   1.601 -0.0927 -0.0806  0.2068
 1027SOL     ow 4105   1.718   2.999   0.163  0.3708 -0.6254  0.2319
 1027SOL     hw 4106   1.811   3.011   0.181 -0.0359  0.9823  1.5644
 1027SOL     hw 4107   1.691   2.928   0.221  0.5963 -0.4853  0.5108
 1027SOL     vw 4108   1.726   2.992   0.173  0.3469 -0.3947  0.4445
 1028SOL     ow 4109   6.387   4.607   5.050 -0.4316 -0.0848  0.2023
 1028SOL     hw 4110   6.450   4.676   5.028 -0.6788  0.4242  1.0516
 1028SOL     hw 4111   6.342   4.588   4.967 -1.4682  1.8978  0.2590
 1028SOL     vw 4112   6.390   4.613   5.036 -0.6006  0.2441  0.3216
 1029SOL     ow 4113   3.004   6.212   3.266  0.0708 -0.0848  0.0481
 1029SOL     hw 4114   3.032   6.270   3.195  0.9564  1.1069  1.3340
 1029SOL     hw 4115   2.960   6.269   3.328  0.2719 -0.9112  0.9749
 1029SOL     vw 4116   3.002   6.227   3.265  0.2140 -0.0370  0.3400
 1030SOL     ow 4117   0.875   0.170   0.490 -0.4168  0.0884 -0.4040
 1030SOL     hw 4118   0.805   0.126   0.441 -2.8605  2.5197  0.6431
 1030SOL     hw 4119   0.852   0.263   0.487  2.1707  0.8813  1.0293
 1030SOL     vw 4120   0.863   0.177   0.484 -0.3978  0.5138 -0.0767
 1031SOL     ow 4121   5.125   5.786   4.256  0.4203  0.5043  0.3687
 1031SOL     hw 4122   5.183   5.710   4.247 -0.9374 -0.8127  2.0885
 1031SOL     hw 4123   5.059   5.774   4.187 -0.4890 -0.6027  1.3824
 1031SOL     vw 4124   5.124   5.774   4.245  0.1211  0.1845  0.7291
 1032SOL     ow 4125   3.389   0.583   4.698 -0.1854 -0.2795  0.3181
 1032SOL     hw 4126   3.346   0.559   4.616  1.2454  1.4257 -1.0068
 1032SOL     hw 4127   3.384   0.679   4.701  0.3823 -0.2713  1.8730
 1032SOL     vw 4128   3.383   0.593   4.688  0.0782 -0.0535  0.3483
 1033SOL     ow 4129   2.829   3.017   3.531  0.1371 -0.3133 -0.3437
 1033SOL     hw 4130   2.862   3.051   3.448 -1.0124 -0.3878 -0.8463
 1033SOL     hw 4131   2.907   2.984   3.576  1.0609  1.5302 -0.5133
 1033SOL     vw 4132   2.844   3.017   3.526  0.1072 -0.0799 -0.4321
 1034SOL     ow 4133   0.917   3.820   5.016  0.1630 -0.5856  0.0023
 1034SOL     hw 4134   0.932   3.796   5.108  0.3307 -0.8968 -0.1092
 1034SOL     hw 4135   0.860   3.897   5.022  1.2674  0.2280  0.4033
 1034SOL     vw 4136   0.911   3.827   5.029  0.3309 -0.5195  0.0405
 1035SOL     ow 4137   0.060   0.006   0.603 -0.0860  0.1575  0.3825
 1035SOL     hw 4138   0.002  -0.069   0.612 -1.4784  1.1435 -0.0447
 1035SOL     hw 4139   0.001   0.082   0.601  1.0440  1.0649 -2.2919
 1035SOL     vw 4140   0.045   0.006   0.604 -0.1206  0.4075 -0.0267
 1036SOL     ow 4141   6.425   1.473   4.876 -0.5217 -0.1950  0.4223
 1036SOL     hw 4142   6.429   1.398   4.817 -1.3877  2.9769 -4.1406
 1036SOL     hw 4143   6.339   1.467   4.917 -1.1295 -1.0024 -0.9076
 1036SOL     vw 4144   6.414   1.462   4.874 -0.7162  0.1169 -0.3552
 1037SOL     ow 4145   4.517   4.271   1.042 -1.0034  0.4886  0.1151
 1037SOL     hw 4146   4.591   4.216   1.067  0.3832  0.8717 -2.6614
 1037SOL     hw 4147   4.554   4.360   1.038 -1.4235  0.6322 -1.6884
 1037SOL     vw 4148   4.532   4.276   1.045 -0.8762  0.5581 -0.4892
 1038SOL     ow 4149   5.352   3.618   1.899 -0.0936 -0.3958  0.2822
 1038SOL     hw 4150   5.434   3.568   1.895  1.6087  2.2332  0.2306
 1038SOL     hw 4151   5.371   3.692   1.956 -1.7748  1.3993 -1.3248
 1038SOL     vw 4152   5.365   3.621   1.906 -0.0906  0.1880  0.0634
 1039SOL     ow 4153   0.540   4.263   1.515 -0.0216 -0.4224 -0.4060
 1039SOL     hw 4154   0.483   4.187   1.525  1.0757 -1.2275 -0.0834
 1039SOL     hw 4155   0.620   4.239   1.562 -0.2069  1.5353  1.0244
 1039SOL     vw 4156   0.543   4.250   1.522  0.0988 -0.2701 -0.1748
 1040SOL     ow 4157   3.485   1.317   5.189  0.4664 -0.5034  0.4655
 1040SOL     hw 4158   3.571   1.335   5.227  0.3129  1.4959  0.0121
 1040SOL     hw 4159   3.434   1.396   5.208 -0.9650 -1.2390 -0.1360
 1040SOL     vw 4160   3.490   1.330   5.197  0.2571 -0.3367  0.3264
 1041SOL     ow 4161   1.975   1.288   6.613 -0.5613  0.3891  0.3664
 1041SOL     hw 4162   1.939   1.375   6.632  2.0318  1.8600 -1.0412
 1041SOL     hw 4163   1.976   1.282   6.518 -1.5544 -1.6350  0.4289
 1041SOL     vw 4164   1.970   1.299   6.603 -0.3502  0.3161  0.1886
 1042SOL     ow 4165   3.226   6.645   1.282 -0.5344  0.0180  0.7761
 1042SOL     hw 4166   3.143   6.610   1.250 -0.0604 -1.1122  0.7325
 1042SOL     hw 4167   3.254   6.583   1.350  0.8258 -0.2798 -0.0071
 1042SOL     vw 4168   3.219   6.632   1.287 -0.2925 -0.1700  0.6669
 1043SOL     ow 4169   4.793   1.820   6.808  0.0973  0.1050 -0.1077
 1043SOL     hw 4170   4.748   1.871   6.740  0.9668 -0.8782 -1.4937
 1043SOL     hw 4171   4.792   1.731   6.774  0.9294 -0.3381  0.9998
 1043SOL     vw 4172   4.787   1.815   6.794  0.3216 -0.0831 -0.1445
 1044SOL     ow 4173   2.952   1.565   0.215 -0.2649 -0.2575 -0.4249
 1044SOL     hw 4174   2.858   1.553   0.202 -0.3477  1.2742 -1.5148
 1044SOL     hw 4175   2.964   1.556   0.310 -0.9861 -3.4370 -0.4989
 1044SOL     vw 4176   2.941   1.562   0.226 -0.3710 -0.4749 -0.5785
 1045SOL     ow 4177   2.091   3.474   0.521 -0.2316  0.0368 -0.5969
 1045SOL     hw 4178   2.154   3.532   0.479 -0.1453  0.5251  0.1929
 1045SOL     hw 4179   2.031   3.448   0.451 -0.2470  1.0421 -0.9694
 1045SOL     vw 4180   2.091   3.478   0.506 -0.2222  0.2340 -0.5418
 1046SOL     ow 4181   4.054   6.780   4.134  0.2308 -0.2289  0.2787
 1046SOL     hw 4182   4.097   6.831   4.202 -2.8739  1.8680  0.8811
 1046SOL     hw 4183   4.112   6.788   4.058  1.1572  2.0600  1.1320
 1046SOL     vw 4184   4.067   6.788   4.133 -0.0567  0.3498  0.4706
 1047SOL     ow 4185   4.953   5.441   3.498  1.0000 -0.4595 -0.4187
 1047SOL     hw 4186   5.003   5.443   3.579  1.1101 -0.1415 -0.4921
 1047SOL     hw 4187   4.867   5.409   3.524  0.1185  2.2981  0.3501
 1047SOL     vw 4188   4.948   5.437   3.512  0.8984 -0.0536 -0.3270
 1048SOL     ow 4189   1.080   3.908   5.625  0.0240  0.2587  0.9687
 1048SOL     hw 4190   1.041   3.826   5.595 -0.8596  1.0897 -0.2185
 1048SOL     hw 4191   1.031   3.929   5.705 -0.3732  0.1089  0.7663
 1048SOL     vw 4192   1.068   3.900   5.632 -0.1450  0.3486  0.7854
 1049SOL     ow 4193   6.886   3.453   5.583  0.0576  0.2083 -0.1206
 1049SOL     hw 4194   6.949   3.444   5.655 -1.6442  2.3364  1.7870
 1049SOL     hw 4195   6.940   3.465   5.505  2.1524  2.8625  1.5514
 1049SOL     vw 4196   6.902   3.454   5.583  0.1097  0.8392  0.3517
 1050SOL     ow 4197   6.825   2.816   3.527  0.2930  0.6530  0.0380
 1050SOL     hw 4198   6.841   2.735   3.478 -0.3942  1.9014 -2.4576
 1050SOL     hw 4199   6.902   2.870   3.510  1.0161  0.3526  2.1730
 1050SOL     vw 4200   6.837   2.813   3.518  0.2978  0.7780 -0.0095
 1051SOL     ow 4201   4.292   3.005   4.087 -0.5937 -0.2151 -0.6658
 1051SOL     hw 4202   4.233   2.967   4.152  0.2443  1.5206  1.2233
 1051SOL     hw 4203   4.233   3.042   4.021 -1.7717  1.8738  1.4049
 1051SOL     vw 4204   4.276   3.005   4.086 -0.6387  0.2894 -0.1435
 1052SOL     ow 4205   3.311   4.514   4.636  0.3561  0.4032  0.4017
 1052SOL     hw 4206   3.346   4.585   4.690 -0.2174  0.5807  0.5466
 1052SOL     hw 4207   3.283   4.557   4.555  0.6095  0.2377  0.2259
 1052SOL     vw 4208   3.312   4.529   4.633  0.3138  0.4048  0.3977
 1053SOL     ow 4209   3.978   1.650   4.107  0.2609 -0.2681  0.0526
 1053SOL     hw 4210   3.997   1.558   4.092 -2.1891 -0.7104 -0.7920
 1053SOL     hw 4211   3.963   1.686   4.020  0.2160  0.7028  0.4450
 1053SOL     vw 4212   3.978   1.643   4.094 -0.0683 -0.1984 -0.0069
 1054SOL     ow 4213   2.697   0.921   4.139 -0.3404  0.6015 -0.0346
 1054SOL     hw 4214   2.769   0.977   4.167  0.7128 -0.1211 -1.1638
 1054SOL     hw 4215   2.672   0.872   4.217  0.2775  0.9905  0.4150
 1054SOL     vw 4216   2.703   0.922   4.153 -0.1199  0.5575 -0.1245
 1055SOL     ow 4217   1.523   2.496   5.108  0.1948  0.4342 -0.1687
 1055SOL     hw 4218   1.588   2.561   5.135  0.8516  0.4424 -1.7014
 1055SOL     hw 4219   1.483   2.467   5.190  0.8716  1.7433  0.6502
 1055SOL     vw 4220   1.526   2.500   5.123  0.3707  0.6081 -0.2627
 1056SOL     ow 4221   0.951   4.450   4.261 -0.6330 -0.1202  0.4186
 1056SOL     hw 4222   0.952   4.363   4.301  0.4105 -0.1570  0.3521
 1056SOL     hw 4223   1.040   4.483   4.274 -1.0401  0.9765  0.5236
 1056SOL     vw 4224   0.963   4.443   4.268 -0.5490  0.0198  0.4237
 1057SOL     ow 4225   1.742   3.088   6.748  0.1229  0.3910  0.2790
 1057SOL     hw 4226   1.836   3.071   6.755  0.0309  0.2361  1.2618
 1057SOL     hw 4227   1.736   3.158   6.682  0.8267 -0.3904 -0.6427
 1057SOL     vw 4228   1.754   3.095   6.740  0.2037  0.2675  0.2868
 1058SOL     ow 4229   1.710   4.597   6.032 -0.4195 -0.0964  0.3683
 1058SOL     hw 4230   1.691   4.691   6.034  2.6732  0.7190 -1.3015
 1058SOL     hw 4231   1.769   4.583   6.106  1.4349  0.0124 -0.9927
 1058SOL     vw 4232   1.715   4.607   6.042  0.2333  0.0257 -0.0315
 1059SOL     ow 4233   2.742   6.836   3.989 -0.2320 -0.2160  0.4210
 1059SOL     hw 4234   2.800   6.806   4.059 -0.8974 -1.1597  0.5865
 1059SOL     hw 4235   2.784   6.915   3.955  1.8869 -1.6115 -0.4035
 1059SOL     vw 4236   2.755   6.843   3.994 -0.0403 -0.5250  0.3340
 1060SOL     ow 4237   5.126   1.624   4.949  0.1253  0.4371  0.3753
 1060SOL     hw 4238   5.104   1.593   5.037 -0.8117  0.8355  0.2947
 1060SOL     hw 4239   5.219   1.647   4.954 -0.2144  1.7216  1.6508
 1060SOL     vw 4240   5.135   1.623   4.962 -0.0432  0.6591  0.5331
 1061SOL     ow 4241   2.024   4.688   3.097  0.1808 -0.3261  0.4908
 1061SOL     hw 4242   2.079   4.637   3.037 -1.3005 -1.6201  0.1467
 1061SOL     hw 4243   1.962   4.733   3.039  0.0191  0.0310  0.9397
 1061SOL     vw 4244   2.023   4.687   3.081 -0.0359 -0.4497  0.5046
 1062SOL     ow 4245   3.336   3.976   1.983 -0.3528  0.1807 -0.4404
 1062SOL     hw 4246   3.337   3.880   1.988 -0.3301  0.1554 -0.9084
 1062SOL     hw 4247   3.362   4.005   2.071 -0.2003 -0.2414 -0.3460
 1062SOL     vw 4248   3.339   3.967   1.995 -0.3297  0.1216 -0.4897
 1063SOL     ow 4249   5.623   1.873   3.850  0.4646 -0.0565 -0.4072
 1063SOL     hw 4250   5.663   1.941   3.796 -1.8942  0.2854 -1.8941
 1063SOL     hw 4251   5.629   1.794   3.797  0.3148 -0.2752 -0.0980
 1063SOL     vw 4252   5.629   1.872   3.836  0.1338 -0.0402 -0.5625
 1064SOL     ow 4253   3.718   0.464   2.518 -0.3514  0.0305 -0.5753
 1064SOL     hw 4254   3.648   0.480   2.581 -1.3179 -1.0718 -1.3373
 1064SOL     hw 4255   3.760   0.384   2.548  0.3529  0.4714 -0.3473
 1064SOL     vw 4256   3.715   0.456   2.530 -0.3860 -0.0568 -0.6459
 1065SOL     ow 4257   6.340   0.241   6.121 -0.5564  0.0197  0.4484
 1065SOL     hw 4258   6.263   0.292   6.145 -0.3068  1.4663 -1.5514
 1065SOL     hw 4259   6.319   0.207   6.033  0.9394  0.2018 -0.0090
 1065SOL     vw 4260   6.327   0.243   6.112 -0.3262  0.2346  0.1245
 1066SOL     ow 4261   0.839   0.149   5.023  0.2718 -0.2948 -0.0489
 1066SOL     hw 4262   0.744   0.138   5.017  0.0956 -0.6763  2.4522
 1066SOL     hw 4263   0.852   0.240   5.047  0.7202  0.3261 -2.3779
 1066SOL     vw 4264   0.828   0.159   5.026  0.3077 -0.2632 -0.0262
 1067SOL     ow 4265   6.753   2.358   2.444  0.0877 -0.1385 -0.3367
 1067SOL     hw 4266   6.717   2.421   2.381  1.2564  0.1688 -0.7308
 1067SOL     hw 4267   6.756   2.275   2.396 -1.0880 -0.4358  0.0576
 1067SOL     vw 4268   6.748   2.355   2.429  0.0868 -0.1372 -0.3366
 1068SOL     ow 4269   0.895   2.747   5.533 -0.3023  0.4635 -0.2429
 1068SOL     hw 4270   0.942   2.671   5.567 -0.5740  1.4099  2.4848
 1068SOL     hw 4271   0.835   2.772   5.603 -0.1018  3.2959 -0.9362
 1068SOL     vw 4272   0.893   2.741   5.547 -0.3116  0.9620  0.0255
 1069SOL     ow 4273   1.113   4.859   3.345  0.0255 -0.1611  0.6309
 1069SOL     hw 4274   1.112   4.876   3.439  0.8454  1.3064  0.4024
 1069SOL     hw 4275   1.205   4.866   3.321 -0.0762 -1.2807 -0.1770
 1069SOL     vw 4276   1.125   4.862   3.354  0.1203 -0.1154  0.4941
 1070SOL     ow 4277   6.731   1.510   4.209 -0.0376 -0.0973  0.4544
 1070SOL     hw 4278   6.759   1.422   4.187 -2.1708 -0.5871 -0.5514
 1070SOL     hw 4279   6.661   1.498   4.274 -2.1746  0.6164 -1.5811
 1070SOL     vw 4280   6.726   1.497   4.215 -0.6011 -0.0678  0.0529
 1071SOL     ow 4281   6.354   6.315   4.164 -0.0920 -0.0926 -0.3855
 1071SOL     hw 4282   6.346   6.223   4.190  0.2103  0.2333  0.9434
 1071SOL     hw 4283   6.278   6.358   4.203  1.1480  0.6804  1.3229
 1071SOL     vw 4284   6.343   6.308   4.173  0.1116  0.0525  0.0155
 1072SOL     ow 4285   2.998   6.659   3.921 -0.0243  0.4247 -0.0352
 1072SOL     hw 4286   3.069   6.606   3.958 -0.2109  0.4024  0.2951
 1072SOL     hw 4287   3.001   6.742   3.969 -1.1699 -0.1221  1.0620
 1072SOL     vw 4288   3.007   6.663   3.932 -0.2000  0.3495  0.1532
 1073SOL     ow 4289   6.610   3.836   1.324  0.0308  0.0744  0.0788
 1073SOL     hw 4290   6.614   3.789   1.407  1.8968  0.1015  0.0405
 1073SOL     hw 4291   6.632   3.926   1.347  1.3579 -0.0790 -0.5496
 1073SOL     vw 4292   6.613   3.842   1.338  0.4518  0.0577 -0.0092
 1074SOL     ow 4293   1.712   0.837   4.017  0.4779 -0.3048 -0.2292
 1074SOL     hw 4294   1.691   0.924   3.984 -2.8130 -1.4964 -1.7076
 1074SOL     hw 4295   1.678   0.777   3.950  1.7449 -2.7741  1.1841
 1074SOL     vw 4296   1.705   0.841   4.003  0.2109 -0.7878 -0.2377
 1075SOL     ow 4297   1.194   6.178   3.754 -0.3726  0.6997  0.0838
 1075SOL     hw 4298   1.200   6.125   3.675  1.1555  1.6278 -0.4804
 1075SOL     hw 4299   1.104   6.210   3.756 -0.4978  0.4405 -1.1348
 1075SOL     vw 4300   1.183   6.175   3.744 -0.1875  0.7880 -0.1514
 1076SOL     ow 4301   3.981   5.538   4.962  0.3158  0.5563  0.5558
 1076SOL     hw 4302   3.931   5.539   5.044 -0.1308  0.6467  0.2864
 1076SOL     hw 4303   3.951   5.616   4.915  0.2969  0.3023  0.1419
 1076SOL     vw 4304   3.971   5.549   4.967  0.2544  0.5348  0.4659
 1077SOL     ow 4305   0.781   3.714   0.497  0.1279 -0.3602  0.3423
 1077SOL     hw 4306   0.701   3.723   0.550 -1.3404  0.5084 -1.8642
 1077SOL     hw 4307   0.841   3.778   0.534 -1.8527  2.2493 -0.6056
 1077SOL     vw 4308   0.778   3.724   0.509 -0.3271  0.0987 -0.0739
 1078SOL     ow 4309   0.332   3.400   5.385 -0.5237 -0.4740 -0.1148
 1078SOL     hw 4310   0.352   3.398   5.479  0.3261 -0.5040 -0.2807
 1078SOL     hw 4311   0.399   3.458   5.349 -2.3022  1.4996 -0.3852
 1078SOL     vw 4312   0.344   3.407   5.393 -0.6462 -0.2177 -0.1721
 1079SOL     ow 4313   6.611   6.322   1.831 -0.1958 -0.3147  0.0648
 1079SOL     hw 4314   6.572   6.265   1.896  1.8741 -0.9136  0.8559
 1079SOL     hw 4315   6.640   6.399   1.880  1.6901 -0.9181 -0.0041
 1079SOL     vw 4316   6.610   6.325   1.846  0.3262 -0.4733  0.1602
 1080SOL     ow 4317   6.665   1.957   0.470  0.3498 -0.0384  0.4996
 1080SOL     hw 4318   6.755   1.974   0.443  1.1935 -1.3496  2.2898
 1080SOL     hw 4319   6.672   1.931   0.562 -1.6785 -1.7254  0.2497
 1080SOL     vw 4320   6.678   1.956   0.479  0.1934 -0.4340  0.7028
 1081poe    c31 4321   1.918   0.737   5.073 -0.3109 -0.5020 -0.1298
 1081poe     o2 4322   1.874   0.768   5.203  0.2183 -0.0042 -0.0644
 1081poe    c23 4323   1.789   0.880   5.204  0.0615 -0.1232  0.0280
 1081poe    c23 4324   1.729   0.908   5.343 -0.0271 -0.1430 -0.0067
 1081poe     o2 4325   1.825   0.957   5.434  0.0087 -0.0554 -0.0915
 1081poe    c23 4326   1.768   0.993   5.558 -0.2195 -0.1063 -0.1809
 1081poe    c23 4327   1.879   1.037   5.656  0.0326 -0.2878 -0.3841
 1081poe     o2 4328   1.969   0.929   5.669  0.2626 -0.0667 -0.1497
 1081poe    c23 4329   2.055   0.947   5.779 -0.0615 -0.0019  0.0952
 1081poe    c23 4330   2.149   0.826   5.762 -0.1259 -0.0869  0.3345
 1081poe     o2 4331   2.177   0.810   5.625 -0.1063 -0.1890  0.3504
 1081poe    c31 4332   2.274   0.708   5.622  0.6232  0.4908  0.4497
 1082poe    c31 4333   4.690   5.804   1.292  0.4644  0.0365 -0.3710
 1082poe     o2 4334   4.791   5.727   1.353  0.5812  0.4927  0.0159
 1082poe    c23 4335   4.749   5.690   1.482  0.1076  0.3134 -0.1891
 1082poe    c23 4336   4.857   5.614   1.561 -0.3882  0.2090  0.4022
 1082poe     o2 4337   4.979   5.678   1.528 -0.1300 -0.1603  0.6206
 1082poe    c23 4338   5.081   5.585   1.555 -0.1033 -0.4366 -0.3911
 1082poe    c23 4339   5.208   5.671   1.573  0.0456 -0.6829 -0.2614
 1082poe     o2 4340   5.201   5.777   1.481 -0.7358  0.1765  0.7548
 1082poe    c23 4341   5.314   5.860   1.498 -0.5652  0.0443  0.2902
 1082poe    c23 4342   5.328   5.975   1.397  0.2758 -0.2126  0.1062
 1082poe     o2 4343   5.221   6.064   1.418  0.6693  0.2062  0.3663
 1082poe    c31 4344   5.239   6.199   1.381  0.6953  0.0227 -0.3037
 1083poe    c31 4345   2.885   6.636   1.201 -0.3538 -0.1938 -0.3916
 1083poe     o2 4346   2.838   6.769   1.213  0.1583 -0.0468  0.0270
 1083poe    c23 4347   2.801   6.767   1.349  0.3341  0.1902  0.0778
 1083poe    c23 4348   2.680   6.862   1.359 -0.0493 -0.2597 -0.2589
 1083poe     o2 4349   2.717   6.973   1.280  0.6015 -0.2169  0.0969
 1083poe    c23 4350   2.640   7.088   1.309  0.3590 -0.3789  0.0978
 1083poe    c23 4351   2.732   7.209   1.330  0.2581 -0.2286 -0.3099
 1083poe     o2 4352   2.800   7.229   1.208  0.3864 -0.4764 -0.2789
 1083poe    c23 4353   2.851   7.360   1.205  0.2367 -0.4144 -0.1115
 1083poe    c23 4354   2.877   7.421   1.066 -0.6459 -0.0046 -0.1092
 1083poe     o2 4355   2.958   7.341   0.981 -0.4298 -0.1294  0.2118
 1083poe    c31 4356   2.889   7.291   0.869  0.2945  0.0002 -0.2938
 1084poe    c31 4357   4.821   6.794   1.014  0.2055 -0.1634 -0.1453
 1084poe     o2 4358   4.716   6.888   1.023  0.1552 -0.2505  0.1911
 1084poe    c23 4359   4.752   7.006   1.091  0.2526 -0.0948 -0.1285
 1084poe    c23 4360   4.634   7.105   1.094  0.1440 -0.2243 -0.0887
 1084poe     o2 4361   4.525   7.022   1.126 -0.0763  0.0136 -0.2173
 1084poe    c23 4362   4.398   7.082   1.137  0.0681  0.3271 -0.2634
 1084poe    c23 4363   4.281   6.983   1.155  0.1910  0.2461  0.0844
 1084poe     o2 4364   4.312   6.875   1.071 -0.2555 -0.0320  0.2719
 1084poe    c23 4365   4.196   6.805   1.032 -0.4764  0.1433  0.6126
 1084poe    c23 4366   4.233   6.669   0.969  0.4640  0.5696  0.2176
 1084poe     o2 4367   4.266   6.688   0.833 -0.2332 -0.1553 -0.0563
 1084poe    c31 4368   4.245   6.565   0.768 -0.0136 -0.0795 -0.2686
 1085poe    c31 4369   5.418   2.781   1.397 -0.5503 -0.3563  0.0659
 1085poe     o2 4370   5.542   2.727   1.359 -0.4225  0.0172 -0.0577
 1085poe    c23 4371   5.632   2.693   1.462  0.5594  0.4006 -0.7754
 1085poe    c23 4372   5.737   2.583   1.442 -0.0162 -0.2950 -0.0281
 1085poe     o2 4373   5.847   2.638   1.373 -0.0258 -0.1424  0.0789
 1085poe    c23 4374   5.909   2.544   1.289 -0.0015 -0.1405  0.0945
 1085poe    c23 4375   5.992   2.626   1.189 -0.0790 -0.2262 -0.0414
 1085poe     o2 4376   5.920   2.724   1.118  0.1724  0.3038  0.4272
 1085poe    c23 4377   5.995   2.771   1.009 -0.2549  0.0880  0.0353
 1085poe    c23 4378   5.906   2.860   0.920 -0.0779  0.3245  0.0932
 1085poe     o2 4379   5.848   2.961   1.000  0.1966  0.7530 -0.2459
 1085poe    c31 4380   5.817   3.074   0.921 -0.3304  0.1242 -0.9559
 1086poe    c31 4381   5.540   4.681   0.002 -0.8270  0.1142  0.0313
 1086poe     o2 4382   5.460   4.632  -0.103 -0.1451 -0.0838 -0.3992
 1086poe    c23 4383   5.384   4.740  -0.154 -0.0798  0.1106 -0.0871
 1086poe    c23 4384   5.326   4.711  -0.294  0.1562  0.2904 -0.2228
 1086poe     o2 4385   5.414   4.779  -0.380  0.4749  0.0793 -0.0670
 1086poe    c23 4386   5.400   4.731  -0.512 -0.0849 -0.2548  0.1098
 1086poe    c23 4387   5.521   4.758  -0.603 -0.3994 -0.1893 -0.2973
 1086poe     o2 4388   5.625   4.670  -0.565 -0.6966 -0.5099 -0.2135
 1086poe    c23 4389   5.720   4.669  -0.670  0.5371  0.9342  0.8362
 1086poe    c23 4390   5.842   4.581  -0.635  0.3191  0.0531 -0.5355
 1086poe     o2 4391   5.872   4.623  -0.503 -0.6895 -0.2683 -0.1968
 1086poe    c31 4392   5.981   4.554  -0.448 -0.4931  0.3296  0.1589
 1087poe    c31 4393   1.512   1.759   5.782  0.1459 -0.5278 -0.1095
 1087poe     o2 4394   1.604   1.812   5.690 -0.1905 -0.4040 -0.3729
 1087poe    c23 4395   1.574   1.940   5.639 -0.2427 -0.2156  0.1273
 1087poe    c23 4396   1.669   1.965   5.520 -0.0203  0.2629  0.4024
 1087poe     o2 4397   1.796   1.919   5.561 -0.2229 -0.2178  0.4977
 1087poe    c23 4398   1.881   1.900   5.450 -0.5808  0.0910  0.1687
 1087poe    c23 4399   2.013   1.868   5.522 -0.0650 -0.3904 -0.9797
 1087poe     o2 4400   1.988   1.752   5.597 -0.1978 -0.2337 -0.7818
 1087poe    c23 4401   2.100   1.675   5.635 -0.4181  0.0115  0.3934
 1087poe    c23 4402   2.076   1.564   5.739  0.2465 -0.1908  0.3304
 1087poe     o2 4403   1.980   1.468   5.702  0.1331 -0.0311  0.2095
 1087poe    c31 4404   1.974   1.362   5.795 -0.1154  0.0867  0.3279
 1088poe    c31 4405   5.354   3.076   4.510 -0.0860  0.1711 -0.1688
 1088poe     o2 4406   5.288   3.093   4.633  0.2901  0.2305  0.0244
 1088poe    c23 4407   5.309   3.225   4.678 -0.1581  0.3490 -0.1094
 1088poe    c23 4408   5.193   3.247   4.777  0.1370  0.1809  0.2744
 1088poe     o2 4409   5.190   3.150   4.879 -0.2528  0.3787  0.4538
 1088poe    c23 4410   5.069   3.153   4.951 -0.7249  0.3137 -0.3303
 1088poe    c23 4411   5.064   3.032   5.045 -0.5898  0.3339 -0.2966
 1088poe     o2 4412   5.110   2.918   4.976 -0.3940  0.0443  0.2986
 1088poe    c23 4413   5.051   2.809   5.042 -0.7115 -0.0071 -0.0705
 1088poe    c23 4414   5.063   2.673   4.970 -0.0693  0.1749 -0.3099
 1088poe     o2 4415   5.197   2.632   4.954 -0.0037  0.2758 -0.0123
 1088poe    c31 4416   5.196   2.511   4.881 -0.3642  0.4966 -0.3745
 1089poe    c31 4417   2.399   2.585   4.604  0.4786 -0.3790  0.4588
 1089poe     o2 4418   2.463   2.491   4.520  0.0871  0.3068 -0.6286
 1089poe    c23 4419   2.593   2.468   4.570 -0.2933 -0.1582  0.1775
 1089poe    c23 4420   2.650   2.337   4.513  0.0892  0.1036 -0.0472
 1089poe     o2 4421   2.603   2.321   4.381  0.1356  0.3308 -0.0924
 1089poe    c23 4422   2.643   2.199   4.324 -0.5395  0.0412  0.0414
 1089poe    c23 4423   2.595   2.197   4.178 -0.1914 -0.1096 -0.0724
 1089poe     o2 4424   2.468   2.254   4.157 -0.2814 -0.2441  0.0971
 1089poe    c23 4425   2.384   2.162   4.092  0.0197 -0.7370  0.3995
 1089poe    c23 4426   2.242   2.219   4.072  0.0232 -0.8781 -0.0505
 1089poe     o2 4427   2.170   2.226   4.193  0.2676  0.2523  0.0383
 1089poe    c31 4428   2.039   2.267   4.163  0.1506 -0.2267 -0.1081
 1090poe    c31 4429   2.018   3.587   0.846  0.8191 -0.0711 -0.0353
 1090poe     o2 4430   2.038   3.453   0.808 -0.5300 -0.3788  0.2831
 1090poe    c23 4431   1.922   3.374   0.817 -0.5198 -0.4492 -0.1451
 1090poe    c23 4432   1.967   3.229   0.799 -0.4485 -0.4515  0.0499
 1090poe     o2 4433   2.069   3.226   0.701 -0.6856  0.4279 -0.2231
 1090poe    c23 4434   2.109   3.096   0.665  0.1674  0.6865 -0.2309
 1090poe    c23 4435   2.213   3.102   0.552  0.1299 -0.5110 -0.3460
 1090poe     o2 4436   2.313   3.190   0.599 -0.4620  0.0384 -0.1016
 1090poe    c23 4437   2.413   3.207   0.501 -0.2328 -0.3924  0.0556
 1090poe    c23 4438   2.548   3.257   0.555 -0.2056  0.1625 -0.5182
 1090poe     o2 4439   2.537   3.384   0.614  0.1910 -0.0616  0.0525
 1090poe    c31 4440   2.661   3.438   0.653  0.1402  0.2214 -0.1701
 1091poe    c31 4441   0.955   5.873   6.011 -0.3710 -0.7809  0.2347
 1091poe     o2 4442   1.056   5.792   6.067  0.1959  0.0220  0.3915
 1091poe    c23 4443   1.130   5.851   6.171  0.1426  0.1633  0.3489
 1091poe    c23 4444   1.267   5.784   6.192  0.2461  0.2696  0.0233
 1091poe     o2 4445   1.254   5.645   6.211  0.3796  0.2640  0.0776
 1091poe    c23 4446   1.364   5.578   6.268  0.1697 -0.1530 -0.0006
 1091poe    c23 4447   1.314   5.447   6.330 -0.0290  0.1039  0.3802
 1091poe     o2 4448   1.263   5.376   6.219  0.3248  0.1456  0.1922
 1091poe    c23 4449   1.259   5.236   6.235  0.2113  0.0698 -0.4759
 1091poe    c23 4450   1.193   5.166   6.115 -0.1987 -0.4391  0.0395
 1091poe     o2 4451   1.091   5.249   6.064  0.2339  0.0177 -0.0901
 1091poe    c31 4452   1.030   5.186   5.954 -0.3293 -0.0022  0.2299
 1092poe    c31 4453   5.265   1.033   4.584 -0.2294 -0.4008 -0.0963
 1092poe     o2 4454   5.274   0.950   4.698  0.1177 -0.0326  0.1473
 1092poe    c23 4455   5.305   1.028   4.811  0.4507 -0.0735  0.0836
 1092poe    c23 4456   5.266   0.937   4.929  0.2680  0.3884  0.3790
 1092poe     o2 4457   5.346   0.821   4.927  0.2506  0.3812  0.0368
 1092poe    c23 4458   5.284   0.720   5.003 -0.1396  0.5375 -0.0698
 1092poe    c23 4459   5.262   0.603   4.905  0.1554  0.5627 -0.1692
 1092poe     o2 4460   5.226   0.664   4.783 -0.5069  0.2598 -0.1274
 1092poe    c23 4461   5.194   0.580   4.675 -0.3876 -0.2372  0.2191
 1092poe    c23 4462   5.218   0.660   4.545 -0.0398 -0.2519  0.2734
 1092poe     o2 4463   5.347   0.715   4.556 -0.1538  0.2688 -0.8332
 1092poe    c31 4464   5.404   0.743   4.430  0.4424  0.1488 -0.5949
 1093poe    c31 4465   5.975   4.117   5.390  0.2658  0.6255 -0.6302
 1093poe     o2 4466   5.841   4.073   5.392  0.3224  0.4613 -0.4665
 1093poe    c23 4467   5.751   4.181   5.403  0.4307  0.5808 -0.7397
 1093poe    c23 4468   5.607   4.126   5.411  0.5934  0.2486  0.0046
 1093poe     o2 4469   5.606   4.013   5.326 -0.3479  0.1167  0.1886
 1093poe    c23 4470   5.482   3.946   5.336 -0.4582  0.2649 -0.1873
 1093poe    c23 4471   5.506   3.819   5.252 -0.3300  0.1653  0.0011
 1093poe     o2 4472   5.617   3.752   5.309 -0.2991 -0.1467 -0.4180
 1093poe    c23 4473   5.626   3.622   5.256 -0.3267 -0.3583  0.0918
 1093poe    c23 4474   5.755   3.547   5.298 -0.1408  0.0160  0.1913
 1093poe     o2 4475   5.749   3.540   5.438 -0.0962 -0.2654  0.1802
 1093poe    c31 4476   5.842   3.450   5.493 -0.2136 -0.5438 -0.0808
 1094poe    c31 4477   5.665   2.130   1.992 -0.2517  0.0869 -0.1734
 1094poe     o2 4478   5.678   2.174   2.126  1.1114 -0.1267 -0.2130
 1094poe    c23 4479   5.746   2.086   2.212  0.2122 -0.5412  0.0838
 1094poe    c23 4480   5.740   2.123   2.361  0.4921 -0.4723  0.0770
 1094poe     o2 4481   5.608   2.130   2.410  0.2484  0.7246 -0.7010
 1094poe    c23 4482   5.628   2.188   2.537 -0.1469 -0.3833 -0.1175
 1094poe    c23 4483   5.495   2.198   2.613 -0.1748 -0.2858 -0.1793
 1094poe     o2 4484   5.399   2.269   2.537 -0.1979 -0.0351  0.0808
 1094poe    c23 4485   5.273   2.279   2.599 -0.3266  0.0823 -0.1974
 1094poe    c23 4486   5.170   2.337   2.500 -0.4375 -0.0680 -0.1714
 1094poe     o2 4487   5.207   2.290   2.372 -0.2087  0.0476 -0.1485
 1094poe    c31 4488   5.105   2.323   2.280 -0.1229  0.5235 -0.0736
 1095poe    c31 4489   5.444   1.376   5.601  0.8034 -0.0039  0.1597
 1095poe     o2 4490   5.442   1.497   5.675 -0.1352 -0.0216  0.1780
 1095poe    c23 4491   5.428   1.457   5.810  0.3637  0.5773  0.4074
 1095poe    c23 4492   5.469   1.586   5.883 -0.5303  0.4520  1.1301
 1095poe     o2 4493   5.399   1.688   5.814  0.2607 -0.0753 -0.4941
 1095poe    c23 4494   5.422   1.806   5.888  0.2402 -0.1876 -0.3072
 1095poe    c23 4495   5.350   1.913   5.804  0.9661  0.2673 -0.3617
 1095poe     o2 4496   5.393   1.886   5.672 -0.3186 -0.5521 -0.6317
 1095poe    c23 4497   5.342   1.989   5.591 -0.5878 -0.1967 -0.0166
 1095poe    c23 4498   5.404   2.007   5.451  0.3695 -0.3873  0.3750
 1095poe     o2 4499   5.386   1.892   5.371 -0.3463  0.0945 -0.1673
 1095poe    c31 4500   5.475   1.882   5.263  0.2118  0.0340  0.2928
 1096poe    c31 4501   3.742   0.316   4.287 -0.2180  0.1703 -0.4332
 1096poe     o2 4502   3.714   0.455   4.286  0.1199  0.2599  0.9724
 1096poe    c23 4503   3.688   0.494   4.419  0.1863  0.0398  1.0514
 1096poe    c23 4504   3.672   0.646   4.399  0.0030 -0.0558  0.4377
 1096poe     o2 4505   3.582   0.661   4.292 -0.1286  0.0446  0.5615
 1096poe    c23 4506   3.527   0.790   4.274 -0.0168  0.0116 -0.0476
 1096poe    c23 4507   3.441   0.795   4.147 -0.1874 -0.7078  0.0319
 1096poe     o2 4508   3.517   0.744   4.040  0.7218  0.1554  0.2535
 1096poe    c23 4509   3.549   0.842   3.945 -0.5798  0.3078 -0.0447
 1096poe    c23 4510   3.622   0.787   3.820 -0.1303 -0.7067  0.6547
 1096poe     o2 4511   3.736   0.712   3.855  0.4768 -0.0545  0.0969
 1096poe    c31 4512   3.813   0.675   3.742  0.8625  0.0152  0.3351
 1097poe    c31 4513   0.009   0.319   0.264  0.2451  0.0017  0.7346
 1097poe     o2 4514  -0.042   0.363   0.140  0.3473 -0.4624  0.5254
 1097poe    c23 4515   0.028   0.473   0.087 -0.3212  0.0954  0.7869
 1097poe    c23 4516  -0.051   0.522  -0.036  0.0575  0.0580  0.5277
 1097poe     o2 4517  -0.155   0.610   0.000 -0.2051 -0.1461  0.2774
 1097poe    c23 4518  -0.239   0.654  -0.104  0.2139 -0.1044 -0.0452
 1097poe    c23 4519  -0.371   0.708  -0.044 -0.1099 -0.3550 -0.5301
 1097poe     o2 4520  -0.424   0.610   0.042  0.5511  0.0828  0.3860
 1097poe    c23 4521  -0.557   0.640   0.080  0.3423 -0.0576 -0.2375
 1097poe    c23 4522  -0.627   0.508   0.117  0.1177  0.2034  0.2658
 1097poe     o2 4523  -0.536   0.469   0.217  0.2121 -0.1743  0.0337
 1097poe    c31 4524  -0.580   0.349   0.277 -0.2309 -0.2515 -0.4377
 1098poe    c31 4525   5.018   0.445   3.472  0.4707  0.2059  0.7716
 1098poe     o2 4526   5.016   0.369   3.590 -0.2900 -0.4097  0.3700
 1098poe    c23 4527   4.942   0.441   3.686  0.0667  0.0045  0.3347
 1098poe    c23 4528   4.878   0.340   3.783 -0.0472  0.3654  0.6394
 1098poe     o2 4529   4.987   0.252   3.802 -0.2937  0.0352  0.5305
 1098poe    c23 4530   4.957   0.154   3.899 -0.2878 -0.2913  0.2031
 1098poe    c23 4531   5.095   0.100   3.940 -0.1841  0.0271  0.2726
 1098poe     o2 4532   5.158   0.043   3.828 -0.0981  0.0944  0.2858
 1098poe    c23 4533   5.274  -0.028   3.864  0.1614  0.3836  0.0205
 1098poe    c23 4534   5.336  -0.113   3.751 -0.0728 -0.5656  0.5954
 1098poe     o2 4535   5.261  -0.228   3.720 -0.3949 -0.2130  0.0504
 1098poe    c31 4536   5.321  -0.298   3.613  0.5524  0.3216  0.2145
 1099poe    c31 4537   0.477   0.372   0.851  0.2549  0.0375  0.1561
 1099poe     o2 4538   0.568   0.426   0.944 -0.0423  0.3786  0.2517
 1099poe    c23 4539   0.502   0.488   1.053 -0.4730 -0.0323  0.2292
 1099poe    c23 4540   0.577   0.596   1.133  0.1796 -0.1429 -0.2212
 1099poe     o2 4541   0.673   0.538   1.218 -0.0180  0.0205  0.1163
 1099poe    c23 4542   0.731   0.640   1.296 -0.4118  0.1939  0.1860
 1099poe    c23 4543   0.847   0.591   1.385  0.0151 -0.4937 -0.7353
 1099poe     o2 4544   0.941   0.536   1.295  0.1808 -0.9003 -0.3156
 1099poe    c23 4545   1.051   0.484   1.366  0.3650  0.0102  0.0756
 1099poe    c23 4546   1.132   0.406   1.261 -0.1524 -0.5351  0.0782
 1099poe     o2 4547   1.051   0.345   1.164 -0.4006 -0.3623  0.1774
 1099poe    c31 4548   1.133   0.289   1.064  0.2426 -0.0321  0.5172
 1100poe    c31 4549   4.021   3.152   6.771  0.2763 -0.5122  0.3451
 1100poe     o2 4550   4.089   3.029   6.757 -0.0107 -0.6774  0.4030
 1100poe    c23 4551   4.209   3.042   6.684 -0.3399 -0.3137 -0.0796
 1100poe    c23 4552   4.289   2.913   6.662 -0.7782 -0.5867 -0.0973
 1100poe     o2 4553   4.237   2.872   6.538  0.4470 -0.6486 -0.6092
 1100poe    c23 4554   4.250   2.733   6.525 -0.1343 -0.8072  0.4221
 1100poe    c23 4555   4.187   2.687   6.392 -0.3759  0.4884  0.0793
 1100poe     o2 4556   4.049   2.713   6.403 -0.3504  0.5935  0.1562
 1100poe    c23 4557   3.971   2.640   6.311  0.5082  0.2633 -0.3241
 1100poe    c23 4558   3.824   2.669   6.350  0.6593  0.2137  0.2960
 1100poe     o2 4559   3.810   2.808   6.374 -0.0868  0.0668  0.7354
 1100poe    c31 4560   3.674   2.840   6.360 -0.1028 -0.1412  0.3985
 1101poe    c31 4561   5.418   3.115   0.072  0.1703 -0.4923 -0.4695
 1101poe     o2 4562   5.416   2.980   0.114  0.1818 -0.5713 -0.7203
 1101poe    c23 4563   5.390   2.969   0.252  0.0924 -0.4669 -0.7291
 1101poe    c23 4564   5.401   2.827   0.308 -0.1223  0.0077  0.5625
 1101poe     o2 4565   5.528   2.770   0.281 -0.2636  0.1984 -0.5408
 1101poe    c23 4566   5.535   2.634   0.319 -0.4183  0.3001 -0.1471
 1101poe    c23 4567   5.602   2.547   0.211 -0.1544 -0.0350  0.2859
 1101poe     o2 4568   5.516   2.517   0.104  0.3931  0.2939 -0.2486
 1101poe    c23 4569   5.555   2.411   0.020  0.1354  0.1941 -0.2449
 1101poe    c23 4570   5.431   2.368  -0.060  0.2407 -0.4276 -0.0799
 1101poe     o2 4571   5.383   2.488  -0.116  0.1322 -0.3309  0.2175
 1101poe    c31 4572   5.318   2.460  -0.238  0.1587 -0.2654  0.1887
 1102poe    c31 4573   6.828   2.910   5.006 -0.2915 -0.4689  0.1927
 1102poe     o2 4574   6.949   2.958   4.951 -0.6913  0.3002 -0.0306
 1102poe    c23 4575   7.060   2.876   4.976 -0.2714  0.8198 -0.1797
 1102poe    c23 4576   7.165   2.955   5.057 -0.0789  0.3991 -0.0138
 1102poe     o2 4577   7.118   2.978   5.189  0.1152 -0.2152  0.1651
 1102poe    c23 4578   7.213   3.031   5.278 -0.0481  0.0419  0.1866
 1102poe    c23 4579   7.176   3.015   5.426  0.2813 -0.1272  0.2516
 1102poe     o2 4580   7.043   3.061   5.432  0.3427  0.1083 -0.1742
 1102poe    c23 4581   7.007   3.074   5.568 -0.1184 -0.6640 -0.2168
 1102poe    c23 4582   6.856   3.102   5.578 -0.0255 -0.1729 -0.1645
 1102poe     o2 4583   6.795   2.984   5.532 -0.2564 -0.0043 -0.2928
 1102poe    c31 4584   6.682   2.957   5.612  0.0128 -0.0907  0.0625
 1103poe    c31 4585   5.683   5.784   6.181 -0.0952 -0.2450  0.2687
 1103poe     o2 4586   5.760   5.891   6.233  0.0514 -0.2478  0.0582
 1103poe    c23 4587   5.853   5.940   6.139  0.6587 -1.1419  0.1889
 1103poe    c23 4588   5.929   6.067   6.183 -0.6416 -0.1931 -0.2375
 1103poe     o2 4589   5.967   6.047   6.317  0.1352 -0.2731 -0.4647
 1103poe    c23 4590   6.045   6.142   6.386 -0.1672 -0.2387 -0.1682
 1103poe    c23 4591   6.069   6.075   6.522 -0.0516 -0.1982 -0.1682
 1103poe     o2 4592   5.941   6.036   6.565 -0.0983  0.5019  0.3465
 1103poe    c23 4593   5.948   6.026   6.706 -0.1086 -0.1956  0.3018
 1103poe    c23 4594   5.815   5.963   6.749 -0.3222  0.0804  0.0531
 1103poe     o2 4595   5.815   5.829   6.705 -0.3871  0.3278 -0.7051
 1103poe    c31 4596   5.691   5.773   6.739 -0.1328 -0.1714 -0.5895
 1104poe    c31 4597   4.879   4.845   5.137  0.7524  0.0690  0.1713
 1104poe     o2 4598   4.963   4.732   5.129  0.3379 -0.2283 -0.0392
 1104poe    c23 4599   5.021   4.704   5.254  0.1236 -0.3088  0.0436
 1104poe    c23 4600   5.026   4.550   5.260  0.2931 -0.3099 -0.0991
 1104poe     o2 4601   5.099   4.520   5.143  0.8723  0.0040  0.1769
 1104poe    c23 4602   5.113   4.384   5.108 -0.0540 -0.1183  0.2599
 1104poe    c23 4603   5.232   4.360   5.014 -0.3757 -0.1828 -0.1334
 1104poe     o2 4604   5.217   4.440   4.899  0.4542  0.1235 -0.0383
 1104poe    c23 4605   5.287   4.391   4.787 -0.0120  0.1516 -0.3453
 1104poe    c23 4606   5.238   4.491   4.680  0.1958 -0.1469 -0.7200
 1104poe     o2 4607   5.264   4.625   4.714  0.3778 -0.2833 -0.3198
 1104poe    c31 4608   5.256   4.681   4.585 -0.3812 -0.4683 -0.3579
 1105poe    c31 4609   5.053   4.100   3.150  0.1518 -0.1323 -0.5168
 1105poe     o2 4610   5.003   3.989   3.079  0.1722 -0.4513 -0.0386
 1105poe    c23 4611   5.014   3.871   3.154  0.2694 -0.1576  0.4108
 1105poe    c23 4612   4.975   3.739   3.084 -0.1156  0.1204  0.0962
 1105poe     o2 4613   5.056   3.705   2.974 -0.3669 -0.3810  0.0649
 1105poe    c23 4614   5.005   3.601   2.893 -0.5719 -0.1929 -0.0496
 1105poe    c23 4615   5.093   3.570   2.770 -0.0663  0.1996  0.2041
 1105poe     o2 4616   5.071   3.679   2.683 -0.1701 -0.0689 -0.1091
 1105poe    c23 4617   5.147   3.654   2.567 -0.2153 -0.2648 -0.0979
 1105poe    c23 4618   5.101   3.761   2.466 -0.1647 -0.2870 -0.1450
 1105poe     o2 4619   5.090   3.878   2.543  0.0703 -0.4166  0.0866
 1105poe    c31 4620   5.066   4.002   2.480 -0.4442 -0.5342  0.0456
 1106poe    c31 4621   5.564   6.855   5.099 -0.4371 -0.7722  0.1142
 1106poe     o2 4622   5.638   6.747   5.046  0.3000 -0.1713 -0.0871
 1106poe    c23 4623   5.759   6.741   5.118  0.1999 -0.1357  0.0848
 1106poe    c23 4624   5.845   6.627   5.060 -0.2128 -0.4531  0.0987
 1106poe     o2 4625   5.768   6.508   5.054 -0.3931 -0.3645  0.6490
 1106poe    c23 4626   5.823   6.396   4.989  0.7598  0.2483  0.5393
 1106poe    c23 4627   5.862   6.421   4.842 -0.5054 -0.2258  0.1082
 1106poe     o2 4628   5.758   6.428   4.747 -0.2054  0.2203 -0.1959
 1106poe    c23 4629   5.708   6.302   4.710 -0.1932 -0.0659  0.7387
 1106poe    c23 4630   5.582   6.308   4.621  0.3035 -0.1164  0.0225
 1106poe     o2 4631   5.462   6.354   4.679  0.5744 -0.3637  0.7990
 1106poe    c31 4632   5.397   6.264   4.766 -0.5037 -0.2517  0.1226
 1107poe    c31 4633   0.614   0.198   2.992  0.4352  0.0060 -0.0172
 1107poe     o2 4634   0.525   0.252   3.087  0.0538  0.1800 -0.4727
 1107poe    c23 4635   0.394   0.201   3.079  0.0515  0.2366 -0.8254
 1107poe    c23 4636   0.302   0.293   3.161  0.3020 -0.0103 -0.2653
 1107poe     o2 4637   0.175   0.242   3.191  0.2462  0.5004  0.4038
 1107poe    c23 4638   0.089   0.328   3.263  0.2310  0.5602  0.3146
 1107poe    c23 4639  -0.037   0.267   3.327  0.3225  0.4936  0.4327
 1107poe     o2 4640  -0.017   0.163   3.420 -0.1546 -0.2679 -0.2931
 1107poe    c23 4641  -0.142   0.128   3.473 -0.1365  0.0853 -0.0116
 1107poe    c23 4642  -0.100   0.029   3.584  0.4406  0.7338  0.3552
 1107poe     o2 4643   0.008  -0.040   3.526 -0.3012  0.1941 -0.4162
 1107poe    c31 4644   0.030  -0.161   3.594  1.5765  0.7034 -0.0552
 1108poe    c31 4645   6.565   3.043   3.198  0.1368 -0.2525 -0.8601
 1108poe     o2 4646   6.619   3.160   3.141 -0.1030  0.0348 -0.5023
 1108poe    c23 4647   6.733   3.138   3.061  0.1937  0.0707 -0.0921
 1108poe    c23 4648   6.866   3.174   3.128  0.1768 -0.1697  0.0693
 1108poe     o2 4649   6.890   3.311   3.155 -0.0474 -0.1822  0.3340
 1108poe    c23 4650   7.028   3.319   3.179  0.0631 -0.3244 -0.2430
 1108poe    c23 4651   7.079   3.450   3.241  0.6679 -0.5614 -0.2270
 1108poe     o2 4652   7.088   3.555   3.148 -0.0365 -0.2506  0.0461
 1108poe    c23 4653   7.151   3.675   3.188 -0.3388 -0.2377  0.4855
 1108poe    c23 4654   7.107   3.786   3.091 -0.1170 -0.8074 -0.2773
 1108poe     o2 4655   6.979   3.828   3.134 -0.0612 -0.4660 -0.4470
 1108poe    c31 4656   6.922   3.912   3.036  0.2681 -0.3944 -0.5779
 1109poe    c31 4657   3.340   0.203   0.501 -0.0456 -0.0653 -0.3613
 1109poe     o2 4658   3.322   0.331   0.558  0.4896 -0.0515 -0.2164
 1109poe    c23 4659   3.186   0.354   0.587  0.5579 -0.0620  0.1104
 1109poe    c23 4660   3.167   0.505   0.614 -0.1845 -0.0534 -0.4338
 1109poe     o2 4661   3.219   0.558   0.734 -0.2357  0.1387 -0.4963
 1109poe    c23 4662   3.192   0.696   0.737 -0.7300  0.0380 -0.0304
 1109poe    c23 4663   3.243   0.757   0.868 -0.4783 -0.1189 -0.0557
 1109poe     o2 4664   3.356   0.683   0.910 -0.5182  0.0834  0.4203
 1109poe    c23 4665   3.413   0.717   1.034  0.3409  0.2953 -0.0259
 1109poe    c23 4666   3.536   0.625   1.048  0.1891  0.0727 -0.1462
 1109poe     o2 4667   3.491   0.497   1.011 -0.4521  0.0960  0.5309
 1109poe    c31 4668   3.530   0.392   1.096  0.0078 -0.6483 -0.5791
 1110poe    c31 4669   3.706   3.214   6.452 -0.3845  0.3296  0.2626
 1110poe     o2 4670   3.816   3.218   6.364  0.0703 -0.2771  0.7971
 1110poe    c23 4671   3.783   3.299   6.253  0.3091 -0.1724  0.8000
 1110poe    c23 4672   3.872   3.273   6.131  0.0537  0.0905  0.5579
 1110poe     o2 4673   4.004   3.324   6.135 -0.0314  0.3456  0.1990
 1110poe    c23 4674   4.036   3.349   6.000 -0.1133  0.3724  0.1845
 1110poe    c23 4675   4.173   3.418   6.004  0.2390 -0.2627 -0.7425
 1110poe     o2 4676   4.247   3.322   6.076  0.0980 -0.0564 -0.3259
 1110poe    c23 4677   4.376   3.373   6.102  0.0818 -0.0346 -0.2862
 1110poe    c23 4678   4.454   3.256   6.167  0.3321  0.6112  0.5857
 1110poe     o2 4679   4.363   3.208   6.264 -0.1900 -0.2501 -0.3118
 1110poe    c31 4680   4.414   3.091   6.323 -0.6808  0.0202  0.6777
 1111poe    c31 4681   5.056   4.565   2.964  0.0151  0.2821 -0.2146
 1111poe     o2 4682   4.943   4.589   3.044 -0.3800 -0.5492 -0.5095
 1111poe    c23 4683   4.951   4.530   3.172 -0.1569  0.2778 -0.1353
 1111poe    c23 4684   4.855   4.413   3.200  0.1305  0.1880  0.4768
 1111poe     o2 4685   4.726   4.454   3.240 -0.1119 -0.6510  0.5777
 1111poe    c23 4686   4.724   4.496   3.375 -0.4297 -0.1391  0.4155
 1111poe    c23 4687   4.605   4.594   3.380 -0.4741 -0.1898  0.3456
 1111poe     o2 4688   4.486   4.551   3.318 -0.2210 -0.1474 -0.1748
 1111poe    c23 4689   4.391   4.654   3.331  0.2941  0.4070 -0.7607
 1111poe    c23 4690   4.274   4.603   3.245  0.0828 -0.0610 -0.1918
 1111poe     o2 4691   4.310   4.534   3.128  0.4322  0.0881 -0.1720
 1111poe    c31 4692   4.194   4.511   3.052 -0.3222  0.6158  0.8036
 1112poe    c31 4693   2.459   2.250   5.713 -0.4179  0.1759  0.1078
 1112poe     o2 4694   2.392   2.151   5.788 -0.3292 -0.1271 -0.2164
 1112poe    c23 4695   2.261   2.196   5.814 -0.2724 -0.0351 -0.0911
 1112poe    c23 4696   2.187   2.069   5.857  0.2985 -0.3262  0.0466
 1112poe     o2 4697   2.219   2.033   5.989 -0.1467  0.2484  0.3135
 1112poe    c23 4698   2.172   1.902   6.005  0.0918  0.1679  0.3641
 1112poe    c23 4699   2.201   1.845   6.145  0.0121  0.2987  0.4342
 1112poe     o2 4700   2.338   1.843   6.181  0.2575  0.4096 -0.4712
 1112poe    c23 4701   2.349   1.818   6.319  0.0503  0.5864 -0.4220
 1112poe    c23 4702   2.489   1.859   6.367 -0.0802  0.2853  0.2255
 1112poe     o2 4703   2.524   1.974   6.294 -0.6357  0.4942  0.2873
 1112poe    c31 4704   2.647   2.027   6.339 -0.4080 -0.3396  0.6700
 1113poe    c31 4705   2.299   2.506   3.378 -0.2066 -0.2336  0.0063
 1113poe     o2 4706   2.170   2.562   3.366 -0.1138  0.0158  0.1771
 1113poe    c23 4707   2.181   2.698   3.402 -0.0898 -0.1420  0.7770
 1113poe    c23 4708   2.035   2.730   3.441 -0.2198  0.3315 -0.0757
 1113poe     o2 4709   1.950   2.688   3.338  0.0572  0.2056 -0.2522
 1113poe    c23 4710   1.815   2.725   3.354  0.0215  0.2088 -0.5456
 1113poe    c23 4711   1.740   2.681   3.227 -0.6866  0.4199 -0.2058
 1113poe     o2 4712   1.746   2.541   3.220 -0.6574  0.4053  0.0973
 1113poe    c23 4713   1.693   2.502   3.095 -0.6930 -0.3346  0.3340
 1113poe    c23 4714   1.703   2.352   3.062 -0.6349 -0.3636  0.4829
 1113poe     o2 4715   1.833   2.308   3.032 -0.4486  0.6342 -0.2386
 1113poe    c31 4716   1.849   2.170   3.007  0.1219  0.6733 -0.0938
 1114poe    c31 4717   0.267   4.660   4.928 -0.0150  0.6799 -0.8153
 1114poe     o2 4718   0.233   4.606   4.802  0.2392 -0.8068 -0.2579
 1114poe    c23 4719   0.312   4.665   4.702 -0.0124  0.3246  0.1962
 1114poe    c23 4720   0.289   4.577   4.578  0.4857 -0.1463  0.4333
 1114poe     o2 4721   0.305   4.439   4.605 -0.1566 -0.3558 -0.2017
 1114poe    c23 4722   0.291   4.350   4.497  0.1261 -0.4247 -0.1826
 1114poe    c23 4723   0.291   4.209   4.561 -0.7707 -0.3678 -0.0356
 1114poe     o2 4724   0.229   4.223   4.687 -0.2812  0.2212  0.1455
 1114poe    c23 4725   0.218   4.095   4.744 -0.1243  0.1594  0.0377
 1114poe    c23 4726   0.074   4.052   4.778 -0.1181  0.2141  0.1332
 1114poe     o2 4727  -0.014   4.038   4.669 -0.0604 -0.0768  0.1240
 1114poe    c31 4728  -0.143   4.016   4.722  0.2984 -0.9006  0.6872
 1115poe    c31 4729   1.687   6.063   6.110  0.7798  0.0834  0.3144
 1115poe     o2 4730   1.551   6.099   6.103  0.8088  0.0583 -0.4561
 1115poe    c23 4731   1.521   6.187   5.997 -0.7049  0.3071  0.1570
 1115poe    c23 4732   1.367   6.195   6.006 -0.7556 -0.0860 -0.3467
 1115poe     o2 4733   1.327   6.267   6.120  0.1258  0.1146 -0.1528
 1115poe    c23 4734   1.187   6.262   6.139  0.1026  0.1884 -0.3019
 1115poe    c23 4735   1.150   6.384   6.227  0.7934  0.2771 -0.1218
 1115poe     o2 4736   1.238   6.393   6.336  0.8040  0.3058 -0.1332
 1115poe    c23 4737   1.217   6.499   6.427  0.2905  0.2258 -0.1579
 1115poe    c23 4738   1.303   6.460   6.548 -0.2534 -0.9948 -0.1473
 1115poe     o2 4739   1.420   6.402   6.494  0.3705  0.1567 -0.0672
 1115poe    c31 4740   1.505   6.371   6.602 -0.0123  0.3450  0.2915
 1116poe    c31 4741   5.661   4.732   1.198  0.2718  0.1753  0.3959
 1116poe     o2 4742   5.527   4.706   1.234  0.1848  0.0723 -0.0011
 1116poe    c23 4743   5.456   4.826   1.220 -0.0457 -0.0899 -0.2309
 1116poe    c23 4744   5.318   4.820   1.288  0.2754  0.0346  0.4404
 1116poe     o2 4745   5.340   4.755   1.411 -0.0899  0.2725  0.6359
 1116poe    c23 4746   5.216   4.758   1.477 -0.4178  0.1738  0.0285
 1116poe    c23 4747   5.234   4.656   1.591  0.1864 -0.1485 -0.3485
 1116poe     o2 4748   5.254   4.531   1.530 -0.1239 -0.3756  0.0121
 1116poe    c23 4749   5.235   4.426   1.622  0.3029 -0.6145 -0.1690
 1116poe    c23 4750   5.159   4.310   1.556 -0.5987  0.0126 -0.2490
 1116poe     o2 4751   5.254   4.230   1.488 -0.4841  0.0026 -0.0777
 1116poe    c31 4752   5.184   4.122   1.430 -0.9480  0.4599 -0.3767
 1117poe    c31 4753   4.286   5.844   2.616  1.0223 -0.1936  0.0346
 1117poe     o2 4754   4.321   5.978   2.590  0.1419  0.0938  0.2944
 1117poe    c23 4755   4.382   6.014   2.712 -0.3116  0.2670  0.4714
 1117poe    c23 4756   4.412   6.165   2.712 -0.0453  0.2162 -0.4445
 1117poe     o2 4757   4.487   6.206   2.600  0.3222 -0.4474 -0.4436
 1117poe    c23 4758   4.563   6.322   2.622 -0.4355 -0.0821  0.2678
 1117poe    c23 4759   4.626   6.356   2.486 -0.3232  0.3426  0.4216
 1117poe     o2 4760   4.726   6.261   2.455 -0.4976  0.3833 -0.2913
 1117poe    c23 4761   4.777   6.278   2.325 -0.3085  0.4654 -0.2068
 1117poe    c23 4762   4.868   6.157   2.297 -0.1977  0.5359 -0.1520
 1117poe     o2 4763   4.802   6.037   2.331  0.1953  0.1993 -0.5594
 1117poe    c31 4764   4.879   5.935   2.272 -0.2148 -0.5986  0.2733
 1118poe    c31 4765   0.339   4.484   6.263 -0.6451  0.7247  0.0449
 1118poe     o2 4766   0.476   4.485   6.229 -0.5777  0.1783  0.2934
 1118poe    c23 4767   0.480   4.497   6.089 -0.2682 -0.5450  0.2365
 1118poe    c23 4768   0.628   4.475   6.055 -0.2451 -0.3622  0.2169
 1118poe     o2 4769   0.704   4.554   6.144 -0.1726  0.0130 -0.1747
 1118poe    c23 4770   0.844   4.559   6.130 -0.2019 -0.0102 -0.4804
 1118poe    c23 4771   0.887   4.650   6.247  0.2530 -0.4574 -0.2964
 1118poe     o2 4772   0.817   4.613   6.364 -0.1697  0.1316 -0.3600
 1118poe    c23 4773   0.802   4.711   6.464  0.1042  0.0698 -0.2578
 1118poe    c23 4774   0.681   4.801   6.430 -0.1871 -0.3396 -0.3130
 1118poe     o2 4775   0.577   4.729   6.369 -0.4595 -0.1121 -0.1163
 1118poe    c31 4776   0.489   4.823   6.311  0.2808  0.3730 -0.4589
 1119poe    c31 4777   6.599   1.151   2.727 -0.0954  0.3653 -0.0473
 1119poe     o2 4778   6.731   1.196   2.704  0.0530 -0.1650 -0.2476
 1119poe    c23 4779   6.735   1.320   2.637 -0.4677 -0.1646 -0.2827
 1119poe    c23 4780   6.881   1.369   2.641 -0.5372 -0.0201  0.5667
 1119poe     o2 4781   6.963   1.256   2.622 -0.1127  0.4039 -0.1752
 1119poe    c23 4782   7.085   1.284   2.557  0.0237 -0.1108 -0.1508
 1119poe    c23 4783   7.171   1.159   2.578  0.4834  0.1174 -0.6602
 1119poe     o2 4784   7.103   1.036   2.580 -0.0027  0.3867 -0.5234
 1119poe    c23 4785   7.197   0.931   2.571 -0.2116  0.1438  0.0850
 1119poe    c23 4786   7.131   0.794   2.593  0.0207  0.0421  0.1529
 1119poe     o2 4787   7.019   0.773   2.509  0.1076 -0.3493  0.1340
 1119poe    c31 4788   6.990   0.635   2.511 -1.1282 -0.0905  0.2876
 1120poe    c31 4789   4.146   0.517   3.688 -0.0897  0.1765 -0.2118
 1120poe     o2 4790   4.086   0.436   3.589  0.3709 -0.3380 -0.0780
 1120poe    c23 4791   4.093   0.307   3.643 -0.0598 -0.0981  0.5706
 1120poe    c23 4792   4.092   0.203   3.529  0.1377 -0.1684  0.6312
 1120poe     o2 4793   4.174   0.261   3.430 -0.0620 -0.3009  0.3858
 1120poe    c23 4794   4.228   0.158   3.351 -0.5982 -0.0374 -0.3297
 1120poe    c23 4795   4.327   0.224   3.253 -0.3013  0.3526  0.2313
 1120poe     o2 4796   4.250   0.310   3.172  0.0737  0.2447 -0.2444
 1120poe    c23 4797   4.323   0.356   3.060  0.4423 -0.3817 -0.2643
 1120poe    c23 4798   4.252   0.476   2.996 -0.0383 -0.3273  0.3630
 1120poe     o2 4799   4.230   0.573   3.097 -0.3564 -0.3050  0.2753
 1120poe    c31 4800   4.171   0.687   3.041 -0.2606 -0.3320  0.1177
 1121poe    c31 4801   2.697   4.067   6.411 -0.5045  0.3211 -0.7364
 1121poe     o2 4802   2.566   4.035   6.453 -0.1520  0.3105  0.3694
 1121poe    c23 4803   2.480   4.026   6.342  0.4079  0.0438 -0.0438
 1121poe    c23 4804   2.337   3.986   6.383  0.3301  0.3009 -0.0589
 1121poe     o2 4805   2.317   4.036   6.513 -0.3671 -0.3319  0.0780
 1121poe    c23 4806   2.188   3.994   6.554 -0.0848 -1.1259  0.1742
 1121poe    c23 4807   2.173   4.024   6.704  0.5507 -0.2562  0.0730
 1121poe     o2 4808   2.260   3.931   6.765  0.1741 -0.4477  0.3209
 1121poe    c23 4809   2.274   3.968   6.900 -0.2325  0.1887  0.1957
 1121poe    c23 4810   2.371   3.879   6.982  0.0014 -0.1943 -0.4895
 1121poe     o2 4811   2.504   3.921   6.962 -0.1191  0.2424 -0.4089
 1121poe    c31 4812   2.551   4.001   7.068 -0.0481  0.0584 -0.3009
 1122poe    c31 4813   6.625   3.005   0.934  0.4255  0.1162  0.0183
 1122poe     o2 4814   6.503   2.961   0.880  0.3293  0.3981  0.0059
 1122poe    c23 4815   6.509   2.820   0.879 -0.1627  0.3738  0.2617
 1122poe    c23 4816   6.376   2.772   0.818  0.1368 -0.2263  0.0767
 1122poe     o2 4817   6.359   2.860   0.709  0.4638 -0.6329 -0.3046
 1122poe    c23 4818   6.224   2.861   0.669  0.6302 -1.0869 -0.9017
 1122poe    c23 4819   6.203   2.958   0.552  0.1982 -0.1178 -0.0358
 1122poe     o2 4820   6.279   3.074   0.578  0.2033 -0.0836 -0.2030
 1122poe    c23 4821   6.278   3.156   0.463  0.6449  0.2584  0.0339
 1122poe    c23 4822   6.347   3.293   0.470  0.4832  0.3142  0.5518
 1122poe     o2 4823   6.487   3.286   0.484  0.5181 -0.7170 -0.2561
 1122poe    c31 4824   6.545   3.395   0.416 -0.3047 -0.5362 -0.6739
 1123poe    c31 4825   5.688   3.738   0.649  0.2297  0.4314  0.2622
 1123poe     o2 4826   5.654   3.715   0.784  0.1473 -0.5239  0.0859
 1123poe    c23 4827   5.522   3.667   0.778 -0.2048  0.4357  0.1030
 1123poe    c23 4828   5.463   3.678   0.920  0.0748  0.4018  0.2222
 1123poe     o2 4829   5.552   3.642   1.024 -0.3149  0.0770  0.4474
 1123poe    c23 4830   5.499   3.657   1.154 -0.7299 -0.3486  0.3331
 1123poe    c23 4831   5.566   3.561   1.254  0.4510  0.3553  0.2436
 1123poe     o2 4832   5.703   3.584   1.229  0.4411 -0.2721 -0.3879
 1123poe    c23 4833   5.788   3.486   1.284 -0.0398 -0.3118  0.2906
 1123poe    c23 4834   5.933   3.506   1.238 -0.2077  0.1711 -0.0336
 1123poe     o2 4835   5.934   3.550   1.104  0.4895  0.0973 -0.0582
 1123poe    c31 4836   6.060   3.589   1.053  0.2022  0.5569 -0.4246
 1124poe    c31 4837   4.429   1.868   0.929  0.2823  0.1850 -0.2361
 1124poe     o2 4838   4.350   1.792   0.841  0.3345 -0.1019 -0.0347
 1124poe    c23 4839   4.390   1.810   0.708 -0.1655  0.2145 -0.1457
 1124poe    c23 4840   4.330   1.705   0.612 -0.2421 -0.1954  0.3488
 1124poe     o2 4841   4.198   1.682   0.657 -0.1973 -0.4592  0.3508
 1124poe    c23 4842   4.134   1.568   0.607 -0.1659 -0.1114 -0.5053
 1124poe    c23 4843   3.994   1.550   0.670 -0.4846  0.1645 -1.1156
 1124poe     o2 4844   4.007   1.550   0.811 -0.7298  0.1633 -1.0933
 1124poe    c23 4845   3.883   1.530   0.874 -0.0809 -0.1204  0.1213
 1124poe    c23 4846   3.774   1.638   0.863 -0.2896 -0.3584 -0.1657
 1124poe     o2 4847   3.820   1.768   0.893 -0.4166 -0.1779 -0.7459
 1124poe    c31 4848   3.723   1.870   0.901 -0.1252  0.0133  0.4902
 1125poe    c31 4849   2.245   6.279   4.002  0.3695  0.1523 -0.0454
 1125poe     o2 4850   2.135   6.294   3.915  0.3890 -0.0063 -0.0978
 1125poe    c23 4851   2.109   6.169   3.856  0.0384  0.1983 -0.3871
 1125poe    c23 4852   1.979   6.179   3.775 -0.2287 -0.2528 -0.0210
 1125poe     o2 4853   1.981   6.303   3.707 -0.0644 -0.2765 -0.0579
 1125poe    c23 4854   1.904   6.297   3.589 -0.2000 -0.3760  0.0342
 1125poe    c23 4855   1.917   6.425   3.503  0.2246 -0.1851  0.3788
 1125poe     o2 4856   1.898   6.533   3.591  0.1016 -0.1182  0.2684
 1125poe    c23 4857   1.906   6.658   3.525 -0.2328 -0.3708 -0.2633
 1125poe    c23 4858   1.854   6.771   3.617  0.4789  0.0409 -0.3571
 1125poe     o2 4859   1.917   6.769   3.743 -0.2199 -0.1257 -0.0080
 1125poe    c31 4860   1.902   6.896   3.801 -0.1057 -0.1240  0.0181
 1126poe    c31 4861   4.103   5.743   0.017  0.0500  0.7931  0.4109
 1126poe     o2 4862   4.061   5.667   0.128  0.1125 -0.1213 -0.1872
 1126poe    c23 4863   4.001   5.551   0.074  0.2909 -0.4321  0.2769
 1126poe    c23 4864   3.924   5.467   0.177 -0.0125 -0.8938 -0.3230
 1126poe     o2 4865   4.004   5.441   0.290 -0.2324 -0.5040 -0.0776
 1126poe    c23 4866   3.937   5.360   0.385 -0.2535 -0.4555 -0.0511
 1126poe    c23 4867   4.028   5.334   0.507  0.2438 -0.1502 -0.3527
 1126poe     o2 4868   4.084   5.456   0.552  0.1975 -0.1597 -0.2696
 1126poe    c23 4869   4.155   5.433   0.671  0.0497  0.6302 -0.0262
 1126poe    c23 4870   4.268   5.539   0.667  0.4783  0.1768 -0.0417
 1126poe     o2 4871   4.217   5.670   0.660  0.2439  0.0492 -0.7299
 1126poe    c31 4872   4.315   5.768   0.683  0.2092 -0.0149 -0.3138
 1127poe    c31 4873   4.575   1.206   5.588  0.1557  0.4120  0.1918
 1127poe     o2 4874   4.594   1.118   5.479 -0.1246  0.1223  0.3743
 1127poe    c23 4875   4.729   1.075   5.479 -0.2925 -0.4080  0.2236
 1127poe    c23 4876   4.773   1.007   5.348 -0.2025  0.1916 -0.0579
 1127poe     o2 4877   4.701   0.886   5.351 -0.0431  0.0981  0.0126
 1127poe    c23 4878   4.771   0.779   5.292 -0.0111  0.1664 -0.0737
 1127poe    c23 4879   4.702   0.660   5.360  0.3997 -0.0025  0.0509
 1127poe     o2 4880   4.563   0.682   5.350  0.3021 -0.6185  0.0319
 1127poe    c23 4881   4.491   0.567   5.390 -0.1249 -0.3461  0.0517
 1127poe    c23 4882   4.355   0.576   5.317  0.0566 -0.6665 -0.3306
 1127poe     o2 4883   4.310   0.709   5.320  0.2077 -0.6219  0.0987
 1127poe    c31 4884   4.181   0.734   5.268  0.2282 -0.1625  0.2640
 1128poe    c31 4885   2.470   1.537   5.143 -0.1284  0.1119 -0.2269
 1128poe     o2 4886   2.588   1.555   5.218 -0.2194  0.1763 -0.0992
 1128poe    c23 4887   2.652   1.429   5.225  0.2191  0.3973 -0.1130
 1128poe    c23 4888   2.756   1.421   5.339  0.2617  0.0753 -0.1739
 1128poe     o2 4889   2.827   1.541   5.325  0.1143  0.2156  0.2398
 1128poe    c23 4890   2.935   1.566   5.412  0.1721  0.1484  0.1880
 1128poe    c23 4891   3.004   1.700   5.381  0.1973  0.0010 -0.3890
 1128poe     o2 4892   2.896   1.779   5.337  0.2911  0.0039 -0.6210
 1128poe    c23 4893   2.944   1.887   5.261  0.4878  0.2054 -0.2117
 1128poe    c23 4894   2.823   1.922   5.172  0.4466 -0.4700 -0.4223
 1128poe     o2 4895   2.759   1.800   5.142 -0.7511 -0.1509  0.7323
 1128poe    c31 4896   2.669   1.829   5.038 -0.0819 -0.0295  0.1780
 1129poe    c31 4897   4.740   0.898   1.403  0.3003  0.4645 -0.3631
 1129poe     o2 4898   4.829   0.813   1.470 -0.6142 -0.0616  0.2082
 1129poe    c23 4899   4.780   0.686   1.509 -0.7006  0.0959  0.6260
 1129poe    c23 4900   4.905   0.606   1.549 -0.3558  0.3638  0.1060
 1129poe     o2 4901   4.981   0.681   1.641 -0.1539 -0.2293  0.4287
 1129poe    c23 4902   5.058   0.591   1.718  0.1687 -0.5368 -0.2382
 1129poe    c23 4903   5.164   0.666   1.802 -0.1319  0.2356 -0.5354
 1129poe     o2 4904   5.091   0.765   1.872 -0.1593  0.0946 -0.3631
 1129poe    c23 4905   5.169   0.830   1.970 -0.0104 -0.3545 -0.1791
 1129poe    c23 4906   5.202   0.972   1.920 -0.6336 -0.2624 -0.3370
 1129poe     o2 4907   5.271   0.982   1.798 -0.1002  0.4842  0.0183
 1129poe    c31 4908   5.382   1.068   1.800  0.2105  0.0685  0.7673
 1130poe    c31 4909   4.484   2.086   4.563  0.0300 -0.3408 -1.0187
 1130poe     o2 4910   4.622   2.090   4.531  0.3087  0.2405  0.2035
 1130poe    c23 4911   4.659   2.182   4.432  0.1750 -0.2134 -0.2724
 1130poe    c23 4912   4.803   2.155   4.383  0.2654  0.8392 -0.6308
 1130poe     o2 4913   4.883   2.134   4.497  0.0250 -0.0231 -0.6128
 1130poe    c23 4914   5.019   2.134   4.460  0.1919 -0.2254 -0.0133
 1130poe    c23 4915   5.118   2.172   4.572 -0.3771  0.7565  0.1726
 1130poe     o2 4916   5.072   2.097   4.682  0.2617 -0.2608 -0.2360
 1130poe    c23 4917   5.159   2.095   4.794  0.0589 -0.1946 -0.0753
 1130poe    c23 4918   5.107   1.981   4.883 -0.0633  0.4947  0.7401
 1130poe     o2 4919   4.967   1.995   4.870  0.0065  0.5582  0.0609
 1130poe    c31 4920   4.909   1.903   4.959  0.2639 -0.1420 -0.4833
 1131poe    c31 4921   5.012   5.133   0.008  0.0400  0.3630 -0.2755
 1131poe     o2 4922   5.135   5.124  -0.061  0.0085 -0.3424 -0.2476
 1131poe    c23 4923   5.096   5.160  -0.192 -0.1710 -0.0509 -0.1167
 1131poe    c23 4924   5.210   5.130  -0.292  0.2889 -0.1081  0.4214
 1131poe     o2 4925   5.329   5.168  -0.226  0.5397 -0.2523  0.0574
 1131poe    c23 4926   5.424   5.150  -0.328 -0.0987  0.3775 -0.6548
 1131poe    c23 4927   5.561   5.182  -0.266 -0.0337 -0.4878 -0.3334
 1131poe     o2 4928   5.592   5.107  -0.151 -0.1221  0.3529  0.2485
 1131poe    c23 4929   5.731   5.111  -0.127 -0.0995 -0.3144  0.2345
 1131poe    c23 4930   5.762   5.103   0.024  0.8207 -0.5444  0.0447
 1131poe     o2 4931   5.706   4.987   0.082 -0.0768 -0.1040  0.0870
 1131poe    c31 4932   5.753   4.950   0.210 -0.1351 -0.1463  0.0962
 1132poe    c31 4933   3.179   3.410   1.487 -0.3192  0.0554  0.3679
 1132poe     o2 4934   3.239   3.309   1.564 -0.2582  0.0096  0.2615
 1132poe    c23 4935   3.356   3.361   1.623 -0.0435  0.0186 -0.1707
 1132poe    c23 4936   3.424   3.241   1.692  0.1231  0.1065 -0.1827
 1132poe     o2 4937   3.347   3.185   1.796 -0.0724 -0.0643 -0.4181
 1132poe    c23 4938   3.420   3.114   1.894 -0.5943  0.1415  0.1256
 1132poe    c23 4939   3.333   3.004   1.958  0.0204 -0.2759  0.2490
 1132poe     o2 4940   3.212   3.061   2.002  0.1866  0.2198  0.0716
 1132poe    c23 4941   3.123   2.961   2.047  0.0409  0.0169 -0.6538
 1132poe    c23 4942   3.005   3.041   2.103  0.4971  0.1207  0.1694
 1132poe     o2 4943   2.976   3.146   2.014  0.1493  0.2250  0.4021
 1132poe    c31 4944   2.845   3.183   2.051 -0.2689 -0.7889 -0.0436
 1133poe    c31 4945   3.644   2.728   4.767  0.0071 -0.0789  0.7906
 1133poe     o2 4946   3.517   2.785   4.744  0.3063  0.2734 -0.0537
 1133poe    c23 4947   3.406   2.713   4.794  0.0343  0.2557 -0.6740
 1133poe    c23 4948   3.275   2.794   4.783 -0.2243 -0.1212 -0.3891
 1133poe     o2 4949   3.245   2.806   4.646  0.3166  0.0232 -0.4984
 1133poe    c23 4950   3.133   2.887   4.620  0.6751  0.7410  0.1294
 1133poe    c23 4951   3.159   2.948   4.481 -0.6490 -0.0736 -0.5035
 1133poe     o2 4952   3.234   2.862   4.398 -0.0950  0.2298 -0.3276
 1133poe    c23 4953   3.229   2.915   4.267 -0.1386  0.2136 -0.3326
 1133poe    c23 4954   3.264   2.804   4.166 -0.2274 -0.0548 -0.0706
 1133poe     o2 4955   3.401   2.779   4.188 -0.2035  0.2523  0.1337
 1133poe    c31 4956   3.461   2.716   4.077  0.0444  0.5658  0.0890
 1134poe    c31 4957   0.386   5.925   0.918 -0.0491  0.2595  0.5574
 1134poe     o2 4958   0.474   6.035   0.924  0.3948 -0.0662  0.1303
 1134poe    c23 4959   0.529   6.064   1.051  0.0452  0.2984  0.2000
 1134poe    c23 4960   0.654   6.153   1.039  0.3893 -0.2515 -0.3302
 1134poe     o2 4961   0.622   6.272   0.970  0.2071 -0.4330 -0.5631
 1134poe    c23 4962   0.726   6.364   0.994 -0.5288  0.2200  0.1993
 1134poe    c23 4963   0.718   6.473   0.885 -0.7051 -0.0033 -0.0133
 1134poe     o2 4964   0.731   6.402   0.764  0.0158 -0.3857  0.2749
 1134poe    c23 4965   0.734   6.502   0.664 -0.0347 -0.2483  0.4101
 1134poe    c23 4966   0.802   6.435   0.543 -0.3689  0.4655 -0.1793
 1134poe     o2 4967   0.731   6.314   0.530 -0.0279  0.2243  0.2042
 1134poe    c31 4968   0.783   6.246   0.418 -0.4822  0.0462  0.0999
 1135poe    c31 4969   2.991   3.888   4.842 -0.2066  0.0707 -0.0039
 1135poe     o2 4970   3.044   3.791   4.930 -0.7947 -0.2185  0.0387
 1135poe    c23 4971   3.110   3.691   4.856  0.0398  0.0356  0.4302
 1135poe    c23 4972   3.202   3.618   4.955  0.0214  0.1694  0.5451
 1135poe     o2 4973   3.119   3.611   5.069 -0.3449  0.0661  0.2728
 1135poe    c23 4974   3.181   3.545   5.177  0.2176  0.3552  0.1319
 1135poe    c23 4975   3.090   3.549   5.301  0.0542 -0.3339  0.0398
 1135poe     o2 4976   3.067   3.677   5.356  0.1371 -0.1293 -0.4029
 1135poe    c23 4977   3.031   3.668   5.492  0.1098  0.1979 -0.3893
 1135poe    c23 4978   2.994   3.809   5.541 -0.1061 -0.0614  0.2028
 1135poe     o2 4979   2.912   3.885   5.454 -0.2977 -0.2350  0.2306
 1135poe    c31 4980   2.906   4.019   5.496  0.2247 -0.1657  0.0994
 1136poe    c31 4981   5.682   0.120   4.804 -0.1490 -0.7883  0.6495
 1136poe     o2 4982   5.750   0.111   4.681 -0.4906  0.4661  0.3552
 1136poe    c23 4983   5.671   0.038   4.589  0.0641  0.3059  0.0025
 1136poe    c23 4984   5.779  -0.021   4.497 -0.3131 -0.0136 -0.2370
 1136poe     o2 4985   5.869   0.067   4.432  0.0175 -0.2416 -0.0923
 1136poe    c23 4986   5.835   0.105   4.301 -0.1077 -0.4959 -0.1332
 1136poe    c23 4987   5.915   0.234   4.275 -0.0299 -0.5247 -0.0399
 1136poe     o2 4988   6.043   0.218   4.330 -0.0803  0.3647  0.3484
 1136poe    c23 4989   6.120   0.336   4.321  0.3092  0.1145  0.3542
 1136poe    c23 4990   6.258   0.291   4.372  0.2389 -0.3372  0.1468
 1136poe     o2 4991   6.237   0.231   4.498 -0.6654 -0.1333  0.0955
 1136poe    c31 4992   6.360   0.195   4.556 -0.2561  0.0554 -0.6456
 1137poe    c31 4993   3.238   4.637   6.028 -0.4910 -0.2566  0.2762
 1137poe     o2 4994   3.212   4.539   5.930  0.4436 -0.4165  0.1725
 1137poe    c23 4995   3.311   4.558   5.831  0.2826 -0.0748  0.0726
 1137poe    c23 4996   3.278   4.464   5.713 -0.2303 -0.0547  0.1991
 1137poe     o2 4997   3.251   4.337   5.768 -0.8012  0.0228  0.1131
 1137poe    c23 4998   3.231   4.238   5.671 -0.2295  0.1434 -0.1308
 1137poe    c23 4999   3.230   4.110   5.757 -0.1193  0.1970 -0.0488
 1137poe     o2 5000   3.157   4.130   5.876 -0.0937 -0.0038  0.0006
 1137poe    c23 5001   3.127   4.009   5.941  0.4317  0.1824  0.6030
 1137poe    c23 5002   3.044   4.037   6.067  0.1059  0.0592  0.4163
 1137poe     o2 5003   3.116   4.089   6.176  0.2431  0.2197  0.2487
 1137poe    c31 5004   3.055   4.062   6.300  0.6026  0.3202  0.4485
 1138poe    c31 5005   0.746   6.649   3.071  0.4018  0.5349 -0.3224
 1138poe     o2 5006   0.792   6.524   3.026 -0.0082  0.4606 -0.5413
 1138poe    c23 5007   0.916   6.492   3.084 -0.5635 -0.0358  0.3927
 1138poe    c23 5008   0.974   6.363   3.022 -0.3173  0.3787 -0.2447
 1138poe     o2 5009   0.900   6.244   3.034 -0.0236  0.1995 -0.2169
 1138poe    c23 5010   0.918   6.181   2.909  0.0313 -0.1163 -0.0521
 1138poe    c23 5011   0.851   6.045   2.935 -0.2335 -0.0145 -0.1977
 1138poe     o2 5012   0.753   6.060   3.036 -0.1278 -0.4033 -0.0361
 1138poe    c23 5013   0.715   5.940   3.100 -0.1469 -0.3689  0.0173
 1138poe    c23 5014   0.603   5.973   3.201  0.4916 -0.4761  0.7606
 1138poe     o2 5015   0.664   6.076   3.277 -0.1702 -0.2997  1.0559
 1138poe    c31 5016   0.602   6.107   3.399 -0.5513  0.9628  0.5608
 1139poe    c31 5017   5.976   5.910   3.940  0.2112  0.0902 -0.8631
 1139poe     o2 5018   5.846   5.857   3.947  0.2014  0.1709 -0.4344
 1139poe    c23 5019   5.777   5.913   3.838 -0.0542 -0.1743 -0.4540
 1139poe    c23 5020   5.637   5.850   3.827  0.1030 -0.5830 -0.1372
 1139poe     o2 5021   5.589   5.871   3.958 -0.3844  0.0954 -0.4141
 1139poe    c23 5022   5.473   5.800   3.995  0.4404 -0.6580  0.8341
 1139poe    c23 5023   5.435   5.878   4.122 -0.2440  0.1892  0.1258
 1139poe     o2 5024   5.542   5.851   4.210 -0.1739  0.2676  0.0642
 1139poe    c23 5025   5.522   5.912   4.335  0.6472  0.5505  0.0613
 1139poe    c23 5026   5.583   5.825   4.447 -0.2223 -0.2058 -0.0428
 1139poe     o2 5027   5.720   5.800   4.428 -0.1642  0.0269  0.0684
 1139poe    c31 5028   5.798   5.906   4.480 -0.1050 -0.0600  0.1591
 1140poe    c31 5029   2.167   6.419   0.156  0.2020 -0.8379  0.2082
 1140poe     o2 5030   2.173   6.428   0.015 -0.3222 -0.0248  0.2316
 1140poe    c23 5031   2.213   6.562  -0.006  0.1607 -0.1715  0.1950
 1140poe    c23 5032   2.222   6.598  -0.155  0.1387 -0.3547  0.1498
 1140poe     o2 5033   2.281   6.483  -0.212  0.4189 -0.2144  0.1580
 1140poe    c23 5034   2.293   6.497  -0.352  0.3457  0.0667  0.1792
 1140poe    c23 5035   2.351   6.362  -0.399  0.5016  0.1547  0.1173
 1140poe     o2 5036   2.286   6.256  -0.332 -0.0797  0.3254 -0.1665
 1140poe    c23 5037   2.320   6.137  -0.400  0.2494 -0.0273  0.6064
 1140poe    c23 5038   2.255   6.011  -0.340  0.4168 -0.6868 -0.5549
 1140poe     o2 5039   2.116   5.990  -0.342  0.4090 -0.6429 -0.4745
 1140poe    c31 5040   2.049   5.997  -0.466 -0.0040  0.0331 -0.2218
 1141poe    c31 5041   3.497   4.665   4.436  0.3536 -0.2100  0.1170
 1141poe     o2 5042   3.388   4.752   4.412  0.4220 -0.0743  0.2901
 1141poe    c23 5043   3.402   4.854   4.507 -0.7141  0.2879  0.0795
 1141poe    c23 5044   3.292   4.962   4.499 -0.0618  0.9357 -0.2952
 1141poe     o2 5045   3.314   5.040   4.384  0.4392  0.7747 -0.3095
 1141poe    c23 5046   3.211   5.136   4.385  0.4912  0.8329 -0.4748
 1141poe    c23 5047   3.182   5.214   4.256 -0.3398  0.4836 -0.5027
 1141poe     o2 5048   3.162   5.122   4.151  0.4817  0.0759 -0.3100
 1141poe    c23 5049   3.171   5.191   4.028 -0.1694  0.1587 -0.3118
 1141poe    c23 5050   3.191   5.086   3.917  0.9780  0.2174 -0.1714
 1141poe     o2 5051   3.282   4.991   3.969  0.2472 -0.1968  0.3741
 1141poe    c31 5052   3.364   4.939   3.867  0.1809  0.0230  0.2061
 1142poe    c31 5053   5.653   1.061   5.099 -0.2515  0.2879  0.0160
 1142poe     o2 5054   5.692   1.064   5.235 -0.0480 -0.1821 -0.0297
 1142poe    c23 5055   5.814   0.994   5.239  0.0405 -0.0096  0.2779
 1142poe    c23 5056   5.865   0.955   5.379 -0.3397  0.1629  0.4652
 1142poe     o2 5057   5.764   0.886   5.450 -0.4123 -0.8616 -0.6008
 1142poe    c23 5058   5.823   0.862   5.576 -0.3792  0.0744 -0.4325
 1142poe    c23 5059   5.723   0.774   5.654  0.3386  0.0054  0.4268
 1142poe     o2 5060   5.602   0.845   5.664  0.4669  0.1825  0.7131
 1142poe    c23 5061   5.495   0.777   5.725  0.4925  0.0930  0.6589
 1142poe    c23 5062   5.377   0.871   5.695  0.0638 -0.6473  0.0053
 1142poe     o2 5063   5.366   0.910   5.560  0.0074  0.3696  0.2985
 1142poe    c31 5064   5.251   0.992   5.555 -0.1908  0.0421 -0.7380
 1143poe    c31 5065   6.287   0.510   3.246  0.8875 -0.1309  0.5945
 1143poe     o2 5066   6.345   0.390   3.200  0.1215 -0.3069  0.0794
 1143poe    c23 5067   6.446   0.407   3.103 -0.0036 -0.2322 -0.0376
 1143poe    c23 5068   6.504   0.281   3.037  0.1809 -0.2831  0.2203
 1143poe     o2 5069   6.404   0.223   2.957  0.2067 -0.1334  0.0784
 1143poe    c23 5070   6.442   0.125   2.863  0.3871  0.2986 -0.2995
 1143poe    c23 5071   6.333   0.096   2.757 -0.2086  0.2883  0.3108
 1143poe     o2 5072   6.215   0.124   2.829 -0.3886 -0.3505  0.2712
 1143poe    c23 5073   6.110   0.121   2.735  0.2991  0.1885 -0.5319
 1143poe    c23 5074   5.968   0.089   2.787  0.3628  0.4322 -0.2053
 1143poe     o2 5075   5.909   0.189   2.866  0.2134  0.3032 -0.1535
 1143poe    c31 5076   5.785   0.134   2.906  0.5648 -0.4371 -0.0809
 1144poe    c31 5077   4.161   2.112   6.875 -0.8827 -0.3883 -0.4146
 1144poe     o2 5078   4.135   2.247   6.905  0.3873 -0.1300 -0.4345
 1144poe    c23 5079   4.090   2.314   6.790 -0.1621  0.2528 -0.0014
 1144poe    c23 5080   4.024   2.443   6.843  0.0889  0.1618  0.5436
 1144poe     o2 5081   4.122   2.529   6.896  0.7725 -0.0106 -0.4146
 1144poe    c23 5082   4.063   2.657   6.913  0.2213 -0.3045 -0.0842
 1144poe    c23 5083   4.096   2.723   7.048 -0.4699 -0.1344  0.0033
 1144poe     o2 5084   4.237   2.723   7.050 -0.4721 -0.3051  0.3987
 1144poe    c23 5085   4.282   2.802   7.157 -0.7706 -0.0313  0.3216
 1144poe    c23 5086   4.432   2.773   7.176 -0.7583 -0.2171 -0.0533
 1144poe     o2 5087   4.459   2.641   7.133  0.1092  0.1430 -0.6527
 1144poe    c31 5088   4.594   2.604   7.148  0.0826  0.2426 -0.1220
 1145poe    c31 5089   2.952   0.450   1.718 -0.1189  0.3990 -0.0600
 1145poe     o2 5090   2.898   0.580   1.723 -0.0192  0.4436 -0.1448
 1145poe    c23 5091   2.977   0.660   1.806  0.1969 -0.1951  0.2735
 1145poe    c23 5092   2.952   0.806   1.764  0.4036 -0.1289  0.3766
 1145poe     o2 5093   2.812   0.819   1.773  0.4453  0.3287  0.4153
 1145poe    c23 5094   2.762   0.943   1.728  0.2655  0.1983  0.2505
 1145poe    c23 5095   2.615   0.921   1.768  0.2291  0.0150  0.0156
 1145poe     o2 5096   2.580   0.799   1.707  0.1062 -0.1070  0.3263
 1145poe    c23 5097   2.472   0.744   1.778 -0.2879  0.0038 -0.1814
 1145poe    c23 5098   2.475   0.596   1.734  0.0517 -0.0884  0.1547
 1145poe     o2 5099   2.609   0.553   1.741 -0.0107 -0.2932  0.0711
 1145poe    c31 5100   2.608   0.425   1.682  0.1349 -0.0700 -0.4213
 1146poe    c31 5101   6.456   5.529   2.735 -0.1134 -0.2235 -0.0944
 1146poe     o2 5102   6.359   5.591   2.817  0.0553  0.0355 -0.0896
 1146poe    c23 5103   6.418   5.690   2.899  0.0069  0.0707 -0.0970
 1146poe    c23 5104   6.304   5.752   2.981  0.4763 -0.0455  0.6508
 1146poe     o2 5105   6.251   5.652   3.065  0.1913 -0.2154  0.2694
 1146poe    c23 5106   6.210   5.701   3.191  0.0397 -0.2372  0.2295
 1146poe    c23 5107   6.175   5.588   3.289  0.3608 -0.1987  0.3907
 1146poe     o2 5108   6.088   5.494   3.230  0.1578  0.1902  0.0693
 1146poe    c23 5109   6.053   5.388   3.315  0.2452  0.0940 -0.0136
 1146poe    c23 5110   5.935   5.322   3.241 -0.0095  0.3445  0.1664
 1146poe     o2 5111   5.967   5.330   3.104 -0.0411  0.2721  0.1545
 1146poe    c31 5112   5.879   5.239   3.042  0.6925 -0.0538 -0.4379
 1147poe    c31 5113   0.732   3.136   3.502 -0.1534  0.0824  0.4894
 1147poe     o2 5114   0.773   3.016   3.440 -0.4443  0.2398 -0.0118
 1147poe    c23 5115   0.883   3.050   3.358 -0.2413  0.2475  0.2641
 1147poe    c23 5116   0.924   2.936   3.263 -0.2887  0.3917  0.0711
 1147poe     o2 5117   0.823   2.911   3.167 -0.4161  0.0908  0.2821
 1147poe    c23 5118   0.852   2.785   3.112 -0.1630  0.1189  0.3494
 1147poe    c23 5119   0.737   2.748   3.017  0.1911  0.3438 -0.1767
 1147poe     o2 5120   0.626   2.702   3.091  0.4349  0.1821  0.0899
 1147poe    c23 5121   0.513   2.686   3.008  0.2630  0.4681  0.2650
 1147poe    c23 5122   0.397   2.629   3.091  0.3694  0.0833  0.1573
 1147poe     o2 5123   0.405   2.699   3.213  0.0619  0.4538 -0.0323
 1147poe    c31 5124   0.298   2.663   3.298 -0.1092 -0.0062 -0.4384
 1148poe    c31 5125   5.396   6.704   0.039  0.0014  0.0808 -0.2336
 1148poe     o2 5126   5.528   6.671   0.075 -0.1244  0.2231  0.3741
 1148poe    c23 5127   5.578   6.593  -0.032 -0.1427  0.1456  0.4225
 1148poe    c23 5128   5.720   6.535  -0.022 -0.0773  0.3290  0.5420
 1148poe     o2 5129   5.827   6.627  -0.015  0.0625  0.2539 -0.4492
 1148poe    c23 5130   5.950   6.558  -0.014 -0.1043 -0.0606  0.6696
 1148poe    c23 5131   6.063   6.662  -0.006 -0.1455  0.0587 -0.1758
 1148poe     o2 5132   6.014   6.760   0.083 -0.3213 -0.0390 -0.1643
 1148poe    c23 5133   6.114   6.860   0.087 -0.5688  0.2153 -0.2707
 1148poe    c23 5134   6.028   6.977   0.138 -0.0061  0.5245 -0.0196
 1148poe     o2 5135   5.908   6.995   0.065 -0.2222 -0.3748  0.1073
 1148poe    c31 5136   5.875   7.132   0.070  0.1060 -0.2966  0.1939
 1149poe    c31 5137   2.338   4.945   0.542 -0.4130 -0.5055  0.2588
 1149poe     o2 5138   2.429   4.852   0.488 -0.5491 -0.1828 -0.5416
 1149poe    c23 5139   2.378   4.805   0.365 -0.5568  0.5045 -0.8042
 1149poe    c23 5140   2.430   4.662   0.340 -0.0692  0.3249  1.0272
 1149poe     o2 5141   2.567   4.667   0.370  0.1634  0.2020  0.0148
 1149poe    c23 5142   2.629   4.545   0.335 -0.4728 -0.1747  0.1995
 1149poe    c23 5143   2.776   4.545   0.380 -0.6055  0.1064  0.6369
 1149poe     o2 5144   2.777   4.587   0.514 -0.0440 -0.4699  0.8197
 1149poe    c23 5145   2.902   4.587   0.580  0.5511  0.2599 -0.2647
 1149poe    c23 5146   2.924   4.700   0.681 -0.5729  0.5450 -0.3251
 1149poe     o2 5147   2.936   4.829   0.624  0.8642  0.4801 -0.2119
 1149poe    c31 5148   2.952   4.914   0.735  0.4237  0.6193 -0.2539
 1150poe    c31 5149   6.378   2.093   5.635  0.1005 -0.5173  0.4306
 1150poe     o2 5150   6.309   1.981   5.685 -0.1528 -0.3966  0.3488
 1150poe    c23 5151   6.233   1.918   5.584  0.3858  0.0661 -0.3550
 1150poe    c23 5152   6.151   1.808   5.654 -0.1370  0.4514 -0.3586
 1150poe     o2 5153   6.107   1.858   5.778 -0.0261 -0.2433 -0.0331
 1150poe    c23 5154   6.037   1.762   5.854  0.2264 -0.4152 -0.0163
 1150poe    c23 5155   5.967   1.823   5.977  0.1716 -0.0217 -0.2392
 1150poe     o2 5156   6.072   1.870   6.058 -0.1112 -0.5229  0.4324
 1150poe    c23 5157   6.040   1.928   6.183 -0.1892 -0.0681  0.2047
 1150poe    c23 5158   5.970   2.065   6.175  0.0091  0.0447  0.3715
 1150poe     o2 5159   6.056   2.169   6.133 -0.1469  0.1915  0.4147
 1150poe    c31 5160   5.997   2.297   6.143 -0.3248  0.1321  0.1294
 1151poe    c31 5161   5.282   3.325   5.260 -0.6159  0.4811  0.2190
 1151poe     o2 5162   5.200   3.412   5.185 -0.6583  0.4061  0.1774
 1151poe    c23 5163   5.287   3.506   5.126 -0.2138 -0.3102 -0.3124
 1151poe    c23 5164   5.217   3.554   4.997  0.2286  0.7007 -0.1854
 1151poe     o2 5165   5.092   3.614   5.022 -0.3094 -0.6621  0.4890
 1151poe    c23 5166   5.054   3.701   4.918 -0.3164 -0.6938  0.4649
 1151poe    c23 5167   4.935   3.792   4.954 -0.1074 -0.4049  0.4310
 1151poe     o2 5168   4.833   3.713   5.013 -0.1215 -0.3276  0.5105
 1151poe    c23 5169   4.742   3.801   5.074 -0.1541 -0.0716  0.0977
 1151poe    c23 5170   4.632   3.702   5.116 -0.3996  0.0926 -0.1524
 1151poe     o2 5171   4.695   3.596   5.185 -0.0543  0.4291  0.0510
 1151poe    c31 5172   4.598   3.515   5.248 -0.0639  0.3017 -0.1285
 1152poe    c31 5173   5.052   5.351   3.796  0.4617  0.1268 -0.0725
 1152poe     o2 5174   5.099   5.453   3.709 -0.1328  0.3661 -0.1151
 1152poe    c23 5175   5.237   5.473   3.687 -0.0338  0.0586  0.2176
 1152poe    c23 5176   5.313   5.369   3.603  0.4008  0.2459  0.3749
 1152poe     o2 5177   5.246   5.364   3.478  0.3565  0.2687  0.3976
 1152poe    c23 5178   5.255   5.232   3.429 -0.0507  0.3995 -0.0290
 1152poe    c23 5179   5.214   5.230   3.280 -0.3077 -0.5182  0.0469
 1152poe     o2 5180   5.094   5.303   3.266  0.0522  0.0354 -0.1832
 1152poe    c23 5181   5.051   5.311   3.132  0.2949 -0.5173 -0.2976
 1152poe    c23 5182   4.935   5.411   3.131  0.5801 -0.1823 -0.0315
 1152poe     o2 5183   4.971   5.515   3.219 -0.1692  0.0588  0.0012
 1152poe    c31 5184   4.895   5.634   3.213  0.3802  0.4027 -0.2313
 1153poe    c31 5185   3.385   3.193   1.268 -0.1923 -0.1847 -0.0087
 1153poe     o2 5186   3.447   3.118   1.166 -0.5115 -0.4645  0.0002
 1153poe    c23 5187   3.515   3.200   1.074 -0.6468 -0.4259 -0.0658
 1153poe    c23 5188   3.617   3.125   0.986  0.1543  0.9558 -0.3460
 1153poe     o2 5189   3.554   3.047   0.887  0.3991  0.4752 -0.1267
 1153poe    c23 5190   3.645   2.953   0.833 -0.2166 -0.1367 -0.1175
 1153poe    c23 5191   3.581   2.883   0.712 -0.2585 -0.2268 -0.0428
 1153poe     o2 5192   3.449   2.853   0.753 -0.1492 -0.1665  0.3650
 1153poe    c23 5193   3.398   2.722   0.741  0.0216 -0.2350  0.3881
 1153poe    c23 5194   3.245   2.716   0.750 -0.0180 -0.4955 -0.3601
 1153poe     o2 5195   3.204   2.825   0.830  0.0010 -0.2315 -0.7036
 1153poe    c31 5196   3.064   2.842   0.845  0.1086  0.0819  0.0351
 1154poe    c31 5197   4.451   0.236   4.871 -0.4168  0.4868  0.3905
 1154poe     o2 5198   4.523   0.325   4.788  0.4462 -0.5731 -0.0195
 1154poe    c23 5199   4.612   0.409   4.859 -0.5522  0.2718  0.2730
 1154poe    c23 5200   4.652   0.515   4.755 -0.1458 -0.2970 -0.1653
 1154poe     o2 5201   4.682   0.457   4.630 -0.2742 -0.7488  0.0135
 1154poe    c23 5202   4.731   0.563   4.551 -0.8302 -0.2497  0.3267
 1154poe    c23 5203   4.719   0.528   4.402 -0.2841  0.1459  0.1858
 1154poe     o2 5204   4.580   0.514   4.380 -0.3177  0.2179  0.3510
 1154poe    c23 5205   4.538   0.506   4.245 -0.2689  0.3419  0.3287
 1154poe    c23 5206   4.582   0.383   4.165 -0.1637  0.0512  0.8269
 1154poe     o2 5207   4.578   0.260   4.235 -0.0471 -0.1500  0.4853
 1154poe    c31 5208   4.600   0.165   4.134 -0.1607 -0.4052  0.6997
 1155poe    c31 5209   2.883   0.125   6.630  0.1394  0.1604 -0.3739
 1155poe     o2 5210   2.831   0.254   6.605  0.1887  0.2486 -0.0226
 1155poe    c23 5211   2.941   0.330   6.561  0.4841  0.0876  0.4335
 1155poe    c23 5212   2.887   0.467   6.517  0.0678 -0.2106  0.0149
 1155poe     o2 5213   2.812   0.520   6.624 -0.3257  0.1150 -0.4141
 1155poe    c23 5214   2.771   0.649   6.586 -0.2077  0.2142 -0.2101
 1155poe    c23 5215   2.758   0.739   6.710  0.2265  0.5021 -0.3717
 1155poe     o2 5216   2.657   0.697   6.799  0.2999  0.0329 -0.5073
 1155poe    c23 5217   2.618   0.810   6.874  0.3690 -0.3364  0.0889
 1155poe    c23 5218   2.477   0.794   6.933  0.2388 -0.5397 -0.2757
 1155poe     o2 5219   2.382   0.761   6.834 -0.2099  0.2253 -0.1120
 1155poe    c31 5220   2.258   0.748   6.899 -0.3095 -0.2265 -0.3876
 1156poe    c31 5221   6.084   4.399   4.131  0.1252  0.2322 -0.3016
 1156poe     o2 5222   5.993   4.320   4.058  0.1654 -0.2220  0.1393
 1156poe    c23 5223   6.036   4.186   4.047  0.2081 -0.1400 -0.7285
 1156poe    c23 5224   5.939   4.101   3.963 -0.9173  0.0560  0.3438
 1156poe     o2 5225   5.931   4.171   3.840  0.4487 -0.0355  0.1915
 1156poe    c23 5226   5.875   4.101   3.731  0.0264  0.2215  0.2444
 1156poe    c23 5227   5.822   4.210   3.636  0.1714  0.0412 -0.0436
 1156poe     o2 5228   5.781   4.337   3.681 -0.4402  0.0043 -0.4760
 1156poe    c23 5229   5.740   4.416   3.572 -0.1315  0.2993 -0.3810
 1156poe    c23 5230   5.701   4.555   3.627 -0.0299  0.4219 -0.6189
 1156poe     o2 5231   5.800   4.623   3.700  0.1309  0.0842 -0.5218
 1156poe    c31 5232   5.783   4.762   3.713 -0.4780 -0.0273 -0.1009
 1157poe    c31 5233   6.868   1.356   0.206  0.1639  0.6361 -0.0465
 1157poe     o2 5234   6.783   1.421   0.298  0.4092  0.4095  0.3435
 1157poe    c23 5235   6.750   1.552   0.259  0.0053  0.2794  0.2437
 1157poe    c23 5236   6.660   1.593   0.377 -0.4300 -0.2067  0.0863
 1157poe     o2 5237   6.562   1.493   0.393 -0.3540 -0.2919  0.0213
 1157poe    c23 5238   6.483   1.524   0.506 -0.2309  0.2621 -0.0432
 1157poe    c23 5239   6.376   1.419   0.541 -0.2109  0.2373 -0.0562
 1157poe     o2 5240   6.424   1.287   0.546 -0.5547  0.1109 -0.0656
 1157poe    c23 5241   6.323   1.191   0.566 -0.7066  0.2464 -0.1787
 1157poe    c23 5242   6.381   1.049   0.552  0.2055  0.6028 -0.0357
 1157poe     o2 5243   6.436   1.010   0.428 -0.4533  0.1210 -0.1799
 1157poe    c31 5244   6.413   0.872   0.416 -0.3088  0.1181 -0.4270
 1158poe    c31 5245   6.571   5.601   4.046 -0.9284 -0.0351  0.0724
 1158poe     o2 5246   6.660   5.633   3.941 -0.3995 -0.1451  0.4830
 1158poe    c23 5247   6.635   5.539   3.839  0.4198 -0.1718  0.3002
 1158poe    c23 5248   6.735   5.575   3.728 -0.2333 -0.7752 -0.4997
 1158poe     o2 5249   6.697   5.708   3.701  0.2425 -0.5123  0.1065
 1158poe    c23 5250   6.779   5.750   3.594 -0.1105 -0.1826 -0.0373
 1158poe    c23 5251   6.759   5.901   3.571 -0.8169 -0.2245  0.2802
 1158poe     o2 5252   6.785   5.965   3.694 -0.1607  0.3786 -0.1614
 1158poe    c23 5253   6.762   6.103   3.673  0.5934  0.4956 -0.2489
 1158poe    c23 5254   6.791   6.177   3.805  0.1168 -0.4198  0.3815
 1158poe     o2 5255   6.707   6.149   3.915 -0.3272  0.0720  0.1697
 1158poe    c31 5256   6.581   6.212   3.903 -0.5557 -0.2874  0.6357
 1159poe    c31 5257   6.386   0.069   1.169 -0.0829 -0.1396 -0.0639
 1159poe     o2 5258   6.310   0.001   1.072  0.2229  0.1844 -0.5321
 1159poe    c23 5259   6.385  -0.079   0.983  0.1696 -0.3590 -0.0893
 1159poe    c23 5260   6.284  -0.132   0.880  0.0359  0.0056 -0.1491
 1159poe     o2 5261   6.207  -0.023   0.835  0.4199  0.1806 -0.3831
 1159poe    c23 5262   6.148  -0.061   0.713 -0.0604 -0.1053 -0.0636
 1159poe    c23 5263   6.062   0.062   0.678  0.1050 -0.0462 -0.2597
 1159poe     o2 5264   5.961   0.083   0.774  0.1229 -0.5429 -0.1329
 1159poe    c23 5265   5.901   0.210   0.778  0.1631 -0.5358  0.3454
 1159poe    c23 5266   5.780   0.201   0.872 -0.0187  0.0707  0.1743
 1159poe     o2 5267   5.820   0.155   0.999 -0.0936 -0.1658  0.1137
 1159poe    c31 5268   5.724   0.173   1.101 -0.1129  0.6170 -0.0322
 1160poe    c31 5269   2.442   6.201   1.766  0.1803 -0.7710 -0.1873
 1160poe     o2 5270   2.338   6.135   1.697 -0.0012 -0.6027 -0.0733
 1160poe    c23 5271   2.218   6.209   1.704  0.2916 -0.0993 -0.3106
 1160poe    c23 5272   2.107   6.153   1.613 -0.2602  0.3661  0.0693
 1160poe     o2 5273   2.055   6.028   1.650 -0.5674  0.4701 -0.0126
 1160poe    c23 5274   1.960   5.986   1.554  0.0194 -0.2637 -0.2796
 1160poe    c23 5275   1.866   5.876   1.605  0.5173 -0.7241 -0.3432
 1160poe     o2 5276   1.926   5.753   1.639  0.8099 -0.6153 -0.4653
 1160poe    c23 5277   1.831   5.649   1.646 -0.2182  0.3223 -0.1860
 1160poe    c23 5278   1.865   5.520   1.723  0.6705  0.7765  0.1965
 1160poe     o2 5279   1.845   5.534   1.862 -0.1422 -0.0524  0.1726
 1160poe    c31 5280   1.879   5.408   1.915 -0.3806 -0.1022  0.2077
 1161poe    c31 5281   4.065   3.701   1.603 -0.0082  0.0200 -0.1679
 1161poe     o2 5282   4.163   3.601   1.624  0.2169  0.2165 -0.2790
 1161poe    c23 5283   4.246   3.648   1.727  0.1592 -0.2932  0.0053
 1161poe    c23 5284   4.319   3.523   1.778  0.1567 -0.1700  0.3135
 1161poe     o2 5285   4.219   3.423   1.787 -0.0211 -0.0129  0.1024
 1161poe    c23 5286   4.260   3.305   1.852  0.0635  0.0036  0.0791
 1161poe    c23 5287   4.166   3.186   1.824 -0.6330  0.4674  0.4133
 1161poe     o2 5288   4.148   3.179   1.684 -0.2427 -0.3636  0.3942
 1161poe    c23 5289   4.089   3.062   1.634  0.5681 -0.3879 -0.5317
 1161poe    c23 5290   4.090   3.033   1.482  0.0849 -0.3874 -0.5356
 1161poe     o2 5291   4.021   3.143   1.426  0.3217 -0.1205 -0.3068
 1161poe    c31 5292   3.993   3.122   1.290 -0.0682 -0.3226 -0.1977
 1162poe    c31 5293   6.200   3.376   4.587 -0.7480 -0.2613 -0.0403
 1162poe     o2 5294   6.144   3.346   4.712  0.6321 -0.3745  0.5686
 1162poe    c23 5295   6.046   3.245   4.700  0.1189  0.1986 -0.1069
 1162poe    c23 5296   5.955   3.253   4.824  0.4526  0.1822  0.1396
 1162poe     o2 5297   6.050   3.253   4.929  0.4352  0.8036  0.1588
 1162poe    c23 5298   5.990   3.275   5.055  0.2553  0.1489  0.1919
 1162poe    c23 5299   6.114   3.283   5.146  0.4278  0.0725 -0.0328
 1162poe     o2 5300   6.201   3.372   5.081  0.4686  0.4795  0.5692
 1162poe    c23 5301   6.333   3.343   5.120  0.5151  0.0244  0.0793
 1162poe    c23 5302   6.432   3.425   5.034  0.7663 -0.1563  0.1942
 1162poe     o2 5303   6.379   3.394   4.907  0.2321 -0.2566  0.4354
 1162poe    c31 5304   6.449   3.468   4.809  0.3102 -0.5955  0.2345
 1163poe    c31 5305   4.144   2.083   3.297  0.4051  0.0713  0.0301
 1163poe     o2 5306   4.080   2.208   3.292  0.3701  0.0549  0.0650
 1163poe    c23 5307   4.031   2.252   3.167  0.0417  0.5847  0.3733
 1163poe    c23 5308   4.001   2.403   3.171  0.1187  0.6193 -0.1836
 1163poe     o2 5309   3.968   2.433   3.305  0.1207  0.7105 -0.2034
 1163poe    c23 5310   3.937   2.569   3.325  0.0024  0.5546  0.7212
 1163poe    c23 5311   3.861   2.602   3.455 -0.0805  0.5563  0.6722
 1163poe     o2 5312   3.942   2.549   3.558  0.1715 -0.5616 -0.0773
 1163poe    c23 5313   3.867   2.563   3.676  0.4945  0.4037  0.0256
 1163poe    c23 5314   3.933   2.480   3.788 -0.1985 -0.0128  0.1265
 1163poe     o2 5315   3.919   2.341   3.766 -0.6298  0.1608 -0.7412
 1163poe    c31 5316   3.915   2.273   3.889 -0.1725  0.0996 -0.7603
 1164poe    c31 5317   3.052   4.998   0.250 -0.2504 -0.2270 -0.6398
 1164poe     o2 5318   3.055   5.136   0.281  0.0848 -0.3097 -0.2982
 1164poe    c23 5319   3.182   5.168   0.334 -0.1736  0.2096  0.0152
 1164poe    c23 5320   3.190   5.215   0.480 -0.1545 -0.6282  0.2866
 1164poe     o2 5321   3.124   5.339   0.481  0.3512 -0.3518  0.0292
 1164poe    c23 5322   3.107   5.388   0.612 -0.1781 -0.4645  0.0077
 1164poe    c23 5323   3.022   5.516   0.621  0.2867 -0.1539  0.0577
 1164poe     o2 5324   2.892   5.515   0.564  0.4122 -0.0772 -0.2336
 1164poe    c23 5325   2.830   5.642   0.564  0.4080 -0.0751  0.2550
 1164poe    c23 5326   2.690   5.622   0.504  0.3410  0.0781  0.3598
 1164poe     o2 5327   2.706   5.555   0.380 -0.0309  0.2601  0.2118
 1164poe    c31 5328   2.587   5.554   0.305  0.3889 -0.4377 -0.4548
 1165poe    c31 5329   1.102   5.289   2.197  0.1920  0.4458 -0.6397
 1165poe     o2 5330   1.019   5.315   2.309  0.1410 -0.7635 -0.3872
 1165poe    c23 5331   1.092   5.315   2.429  0.1935 -0.2183 -0.4144
 1165poe    c23 5332   1.046   5.445   2.498 -0.2605 -0.3223 -0.5185
 1165poe     o2 5333   0.909   5.426   2.524 -0.2573  0.2162 -0.0949
 1165poe    c23 5334   0.849   5.543   2.574 -0.5159  0.1810 -0.3189
 1165poe    c23 5335   0.703   5.499   2.596 -0.1905 -0.5573  0.4157
 1165poe     o2 5336   0.653   5.437   2.480  0.0876  0.2596 -0.1504
 1165poe    c23 5337   0.516   5.404   2.491  0.2102 -0.3009 -0.2684
 1165poe    c23 5338   0.475   5.332   2.362 -0.4846 -0.1601 -0.1332
 1165poe     o2 5339   0.551   5.215   2.343 -0.4260 -0.1372 -0.0450
 1165poe    c31 5340   0.475   5.118   2.273 -0.4854 -0.1965  0.1003
 1166poe    c31 5341   3.666   4.350   6.284  0.0097  0.1272 -0.1954
 1166poe     o2 5342   3.679   4.211   6.265 -0.1665  0.0899 -0.0437
 1166poe    c23 5343   3.564   4.173   6.194 -0.0312 -0.0325 -0.1992
 1166poe    c23 5344   3.519   4.026   6.201 -0.1910  0.0348  0.2314
 1166poe     o2 5345   3.470   3.983   6.326  0.1991 -0.2127  0.3004
 1166poe    c23 5346   3.435   3.847   6.315 -0.0155 -0.1766  0.5292
 1166poe    c23 5347   3.354   3.811   6.441 -0.5699 -0.3275  0.1318
 1166poe     o2 5348   3.421   3.854   6.557  0.0624 -0.5090 -0.1648
 1166poe    c23 5349   3.359   3.805   6.674 -0.3726 -0.2320 -0.2776
 1166poe    c23 5350   3.418   3.864   6.803  0.2347  0.4850 -0.8695
 1166poe     o2 5351   3.411   4.004   6.801 -0.6654  0.4699  0.3332
 1166poe    c31 5352   3.431   4.045   6.935  0.7751 -0.4585  0.4196
 1167poe    c31 5353   5.152   1.517   2.916 -0.2828 -0.2958 -0.0949
 1167poe     o2 5354   5.272   1.472   2.976 -0.3248 -0.2414  0.0313
 1167poe    c23 5355   5.233   1.350   3.036  0.4255 -0.3711  0.2599
 1167poe    c23 5356   5.354   1.255   3.048  0.2666 -0.5977  0.0747
 1167poe     o2 5357   5.414   1.246   2.921  0.2759  0.3531  0.0045
 1167poe    c23 5358   5.541   1.185   2.930  0.1712  0.0846 -0.2983
 1167poe    c23 5359   5.576   1.114   2.798  0.1029  0.0617 -0.3043
 1167poe     o2 5360   5.540   1.198   2.691 -0.1086  0.1253 -0.1843
 1167poe    c23 5361   5.577   1.146   2.565 -0.8945 -0.4464 -0.1875
 1167poe    c23 5362   5.565   1.264   2.467 -0.2183  0.0424  0.3064
 1167poe     o2 5363   5.432   1.302   2.498 -0.2123  0.1340  0.2179
 1167poe    c31 5364   5.377   1.400   2.412 -0.7967  0.0353  0.4818
 1168poe    c31 5365   6.589   2.956   1.922 -0.0784 -0.1058  0.1522
 1168poe     o2 5366   6.523   2.915   1.805  0.3341 -0.4140  0.0244
 1168poe    c23 5367   6.580   2.968   1.688  0.4969 -0.0428  0.2708
 1168poe    c23 5368   6.460   3.014   1.603  0.4015 -0.1396  0.3533
 1168poe     o2 5369   6.361   2.915   1.620  0.1737  0.0252  0.0002
 1168poe    c23 5370   6.260   2.923   1.521  0.0940  0.1583  0.0913
 1168poe    c23 5371   6.181   2.793   1.540 -0.0217  0.2655  0.3547
 1168poe     o2 5372   6.162   2.759   1.676 -0.1564 -0.2924  0.1996
 1168poe    c23 5373   6.095   2.636   1.691 -0.4214 -0.2495 -0.5943
 1168poe    c23 5374   6.064   2.595   1.836 -0.1677 -0.1059 -0.4993
 1168poe     o2 5375   6.182   2.547   1.896 -0.2558 -0.0762 -0.3027
 1168poe    c31 5376   6.140   2.485   2.016  0.0013 -0.5169 -0.4367
 1169poe    c31 5377   4.413   0.373   1.534 -0.3275  0.1438  0.5257
 1169poe     o2 5378   4.495   0.302   1.623  0.0966  0.4414  0.3816
 1169poe    c23 5379   4.603   0.239   1.558 -0.2479 -0.3350  0.5415
 1169poe    c23 5380   4.695   0.164   1.656  0.5333  0.2290  0.2551
 1169poe     o2 5381   4.771   0.256   1.730  0.4697  0.4260  0.0751
 1169poe    c23 5382   4.822   0.183   1.839 -0.2896  0.1933  0.2780
 1169poe    c23 5383   4.899   0.273   1.937  0.3204  0.0010 -0.0216
 1169poe     o2 5384   4.805   0.332   2.023  0.0080 -0.5694  0.0350
 1169poe    c23 5385   4.861   0.414   2.123  0.0377 -0.4372 -0.0894
 1169poe    c23 5386   4.776   0.542   2.117  0.5134 -0.1181 -0.0480
 1169poe     o2 5387   4.644   0.496   2.123  0.1867  0.8369  0.3507
 1169poe    c31 5388   4.570   0.603   2.177  0.0335  1.0532 -0.2754
 1170poe    c31 5389   0.587   6.466   3.406  0.5190 -0.0029 -0.0098
 1170poe     o2 5390   0.528   6.490   3.532  0.7000  0.2807  0.0219
 1170poe    c23 5391   0.420   6.578   3.513  0.1998 -0.3422 -0.0648
 1170poe    c23 5392   0.342   6.621   3.638  0.0064  0.1188 -0.3431
 1170poe     o2 5393   0.317   6.516   3.729  0.2059  0.4033  0.0448
 1170poe    c23 5394   0.284   6.568   3.856  0.0566  0.3973  0.0086
 1170poe    c23 5395   0.225   6.461   3.949  0.5034 -0.0413 -0.2049
 1170poe     o2 5396   0.305   6.347   3.928  0.1427 -0.2455 -0.4962
 1170poe    c23 5397   0.243   6.224   3.959 -0.2709  0.1768  0.3941
 1170poe    c23 5398   0.347   6.111   3.946 -0.0229  0.4291  0.1631
 1170poe     o2 5399   0.415   6.121   3.823 -0.2374 -0.3338 -0.0224
 1170poe    c31 5400   0.532   6.042   3.830  0.0478  0.0825 -0.0926
 1171poe    c31 5401   4.275   4.281   4.289  0.0986  0.1066  0.1804
 1171poe     o2 5402   4.338   4.301   4.164  0.1129 -0.0841  0.1566
 1171poe    c23 5403   4.424   4.200   4.117  0.0316 -0.1523  0.1546
 1171poe    c23 5404   4.469   4.252   3.979 -0.2777  0.2340  0.1986
 1171poe     o2 5405   4.357   4.288   3.901 -0.1790 -0.4307 -0.2668
 1171poe    c23 5406   4.399   4.341   3.777 -0.0341  0.0042 -0.0341
 1171poe    c23 5407   4.289   4.426   3.711 -0.2467 -0.4264 -0.2316
 1171poe     o2 5408   4.250   4.537   3.788  0.1037 -0.0798 -0.5503
 1171poe    c23 5409   4.129   4.596   3.744  0.2891  0.4414 -0.3722
 1171poe    c23 5410   4.109   4.735   3.806 -0.0905  0.1870  0.0872
 1171poe     o2 5411   4.125   4.745   3.946  1.1430 -0.6913  0.0264
 1171poe    c31 5412   4.163   4.879   3.970 -0.0108 -0.3503  0.0362
 1172poe    c31 5413   4.611   6.220   1.984 -0.2381  0.5923 -0.0188
 1172poe     o2 5414   4.604   6.204   1.844  0.2110 -0.2132  0.0470
 1172poe    c23 5415   4.696   6.295   1.788 -0.1010  0.1299  0.0933
 1172poe    c23 5416   4.710   6.252   1.641 -0.3172 -0.1389  0.1508
 1172poe     o2 5417   4.581   6.230   1.587  0.0548 -0.4036 -0.6336
 1172poe    c23 5418   4.594   6.209   1.448  0.3361 -0.1936 -0.6405
 1172poe    c23 5419   4.450   6.181   1.401  0.1530 -0.4055  0.0440
 1172poe     o2 5420   4.386   6.094   1.492 -0.0191 -0.3182  0.0059
 1172poe    c23 5421   4.254   6.071   1.447 -0.0998 -0.1694  0.1633
 1172poe    c23 5422   4.181   5.947   1.502 -0.4125 -0.1495 -0.2051
 1172poe     o2 5423   4.177   5.956   1.643  0.5579 -0.0836 -0.1755
 1172poe    c31 5424   4.128   5.843   1.711  0.0790  0.2402  0.0182
 1173poe    c31 5425   0.424   5.486   0.171 -0.2040 -0.0162 -0.1508
 1173poe     o2 5426   0.531   5.442   0.091 -0.2673 -0.3792 -0.0385
 1173poe    c23 5427   0.614   5.358   0.169  0.2236  0.4793  0.3721
 1173poe    c23 5428   0.764   5.381   0.141 -0.0747  1.2034 -0.6812
 1173poe     o2 5429   0.794   5.350   0.007  0.3298 -0.4323 -0.2302
 1173poe    c23 5430   0.912   5.420  -0.025  0.1855 -0.1462 -0.1371
 1173poe    c23 5431   0.976   5.406  -0.164 -0.1944  0.2143 -0.3507
 1173poe     o2 5432   0.865   5.428  -0.248 -0.1415  0.1616 -0.4360
 1173poe    c23 5433   0.901   5.403  -0.382  0.2618  0.6580 -0.4230
 1173poe    c23 5434   0.775   5.442  -0.461 -0.3824 -0.5102 -0.0076
 1173poe     o2 5435   0.664   5.383  -0.399 -0.2563 -0.0069  0.7029
 1173poe    c31 5436   0.555   5.400  -0.486  0.4578 -0.1068 -0.2207
 1174poe    c31 5437   0.867   2.853   1.225 -0.6846  0.1881 -0.0527
 1174poe     o2 5438   0.855   2.948   1.121  0.0775 -0.0074 -0.3214
 1174poe    c23 5439   0.943   2.895   1.025  0.0895 -0.1059 -0.2561
 1174poe    c23 5440   0.973   2.980   0.900 -0.1613  0.5659  0.1340
 1174poe     o2 5441   1.047   3.090   0.946  0.0515  0.2472  0.5563
 1174poe    c23 5442   1.046   3.183   0.840 -0.7030 -0.0329  0.3094
 1174poe    c23 5443   1.132   3.306   0.875  0.1755 -0.5257 -0.0684
 1174poe     o2 5444   1.058   3.386   0.964  0.6144 -0.4844  0.2619
 1174poe    c23 5445   1.105   3.519   0.963 -0.3586 -0.1381 -0.3605
 1174poe    c23 5446   1.043   3.593   1.083  0.3532  0.1299 -0.1590
 1174poe     o2 5447   1.024   3.499   1.186 -0.4793 -0.0051 -0.4288
 1174poe    c31 5448   0.968   3.565   1.297 -0.1958  0.4240 -0.5376
 1175poe    c31 5449   3.330   2.327   6.392  0.3470 -0.1587 -0.0555
 1175poe     o2 5450   3.256   2.251   6.299  0.0203  0.0178  0.0571
 1175poe    c23 5451   3.122   2.238   6.340  0.1248 -0.2558  0.3117
 1175poe    c23 5452   3.021   2.217   6.226  0.3256 -0.5088  0.1824
 1175poe     o2 5453   3.067   2.122   6.131  0.5563 -0.3745  0.1573
 1175poe    c23 5454   2.970   2.114   6.029  0.5546  0.1412  0.1160
 1175poe    c23 5455   3.041   2.095   5.893 -0.4656 -0.0794 -0.3980
 1175poe     o2 5456   3.120   1.978   5.889 -0.0927  0.1599 -0.1303
 1175poe    c23 5457   3.184   1.946   5.769 -0.4213 -0.2357 -0.2035
 1175poe    c23 5458   3.270   1.825   5.810 -0.8554 -0.5198 -0.1262
 1175poe     o2 5459   3.320   1.843   5.941  0.2212 -0.3024 -0.5576
 1175poe    c31 5460   3.382   1.733   6.004 -0.3796 -0.1915  0.2317
 1176poe    c31 5461   0.519   1.950   6.546  0.0190  0.4632  0.2308
 1176poe     o2 5462   0.568   1.826   6.590 -0.2283  0.1495 -0.3606
 1176poe    c23 5463   0.672   1.773   6.510 -0.1657 -0.0456 -0.1488
 1176poe    c23 5464   0.733   1.640   6.559 -0.0192  0.1685  0.2579
 1176poe     o2 5465   0.643   1.531   6.547  0.4339 -0.1654 -0.1346
 1176poe    c23 5466   0.692   1.421   6.620  0.4281  0.2003  0.4239
 1176poe    c23 5467   0.579   1.326   6.664  0.7026 -0.1889  0.2820
 1176poe     o2 5468   0.507   1.380   6.771 -0.1580 -0.4430 -0.1599
 1176poe    c23 5469   0.404   1.291   6.809  0.0727 -0.6773 -0.0810
 1176poe    c23 5470   0.380   1.324   6.957  0.7680 -0.0187 -0.1083
 1176poe     o2 5471   0.366   1.463   6.977  0.3438 -0.0892  0.1052
 1176poe    c31 5472   0.350   1.498   7.113 -0.2789  0.3258 -0.0690
 1177poe    c31 5473   4.915   2.381   5.859  0.1596  0.3969  0.3500
 1177poe     o2 5474   4.946   2.425   5.729 -0.2585 -0.3818 -0.0181
 1177poe    c23 5475   4.905   2.557   5.699 -0.1867 -0.3831 -0.1205
 1177poe    c23 5476   4.938   2.582   5.550  0.1304 -0.4710 -0.0663
 1177poe     o2 5477   5.076   2.594   5.527  0.0626 -0.4353 -0.4542
 1177poe    c23 5478   5.113   2.597   5.391  0.5046 -0.3351 -0.3347
 1177poe    c23 5479   5.266   2.605   5.376  0.5411 -0.1166  0.1309
 1177poe     o2 5480   5.316   2.517   5.473 -0.3599 -0.4637  0.2918
 1177poe    c23 5481   5.456   2.518   5.488 -0.3080 -0.5473 -0.1864
 1177poe    c23 5482   5.500   2.425   5.602 -0.1152  0.1800  0.3426
 1177poe     o2 5483   5.437   2.462   5.723 -0.2544  0.2233  0.2582
 1177poe    c31 5484   5.451   2.378   5.836  0.7681  0.0509  0.0204
 1178poe    c31 5485   6.713   2.564   1.588  0.3026 -0.2346  0.4631
 1178poe     o2 5486   6.826   2.537   1.509  0.1441  0.3779  0.0220
 1178poe    c23 5487   6.877   2.411   1.547 -0.0794  0.4483  0.5572
 1178poe    c23 5488   7.002   2.395   1.458 -0.4783  0.3973 -0.0006
 1178poe     o2 5489   7.075   2.514   1.442 -0.0453  0.1398  0.0321
 1178poe    c23 5490   7.182   2.489   1.355 -0.0097  0.1229  0.0808
 1178poe    c23 5491   7.275   2.612   1.362  0.0314  0.0735  0.4298
 1178poe     o2 5492   7.181   2.717   1.360  0.1295  0.1590  0.2050
 1178poe    c23 5493   7.262   2.829   1.334  0.2956 -0.1268 -0.5155
 1178poe    c23 5494   7.196   2.964   1.367 -0.0325 -0.3834 -0.1188
 1178poe     o2 5495   7.190   2.980   1.507  0.0099  0.2562 -0.1874
 1178poe    c31 5496   7.157   3.110   1.550 -0.4943  0.1768 -0.3233
 1179poe    c31 5497   5.876   0.859   6.038 -0.4555 -0.2597  0.0150
 1179poe     o2 5498   5.855   0.997   6.020  0.0084 -0.1660  0.1798
 1179poe    c23 5499   5.714   1.007   6.030 -0.0220 -0.3115 -0.0841
 1179poe    c23 5500   5.681   1.158   6.025  0.2485 -0.2401  0.2055
 1179poe     o2 5501   5.755   1.236   6.116 -0.0015  0.2269  0.0124
 1179poe    c23 5502   5.743   1.216   6.255  0.2863 -0.2944 -0.0360
 1179poe    c23 5503   5.802   1.329   6.342 -0.1082 -0.2104  0.1244
 1179poe     o2 5504   5.933   1.346   6.293 -0.3419  0.1366 -0.3832
 1179poe    c23 5505   5.977   1.477   6.318  0.3286 -0.3622  1.2011
 1179poe    c23 5506   6.126   1.496   6.283 -0.1220  0.4736 -0.3915
 1179poe     o2 5507   6.131   1.464   6.146  0.1321  0.3994 -0.3634
 1179poe    c31 5508   6.262   1.488   6.099  0.2483 -0.1214 -0.3152
 1180poe    c31 5509   2.149   3.964   1.116 -0.0992  0.1970  0.3561
 1180poe     o2 5510   2.238   4.072   1.099 -0.3850  0.3672 -0.0849
 1180poe    c23 5511   2.316   4.083   1.216 -0.0031 -0.0590 -0.2972
 1180poe    c23 5512   2.404   4.209   1.207 -0.0171 -0.0837 -0.8213
 1180poe     o2 5513   2.498   4.201   1.102  0.0804 -0.1903 -0.7263
 1180poe    c23 5514   2.560   4.328   1.102 -0.1254 -0.0870  0.4314
 1180poe    c23 5515   2.678   4.322   1.004 -0.1475 -0.4645  0.4234
 1180poe     o2 5516   2.623   4.267   0.886 -0.1595 -0.0146  0.2160
 1180poe    c23 5517   2.707   4.270   0.773 -0.4831  0.7997 -0.0060
 1180poe    c23 5518   2.638   4.183   0.666  0.1786 -0.0340  0.2375
 1180poe     o2 5519   2.608   4.050   0.700 -0.0420  0.0105  0.2181
 1180poe    c31 5520   2.702   3.960   0.647 -0.5621 -0.4926  0.1350
 1181poe    c31 5521   4.261   2.692   5.507 -0.4886  0.2139 -0.5177
 1181poe     o2 5522   4.335   2.573   5.494 -0.1456  0.3610  0.0668
 1181poe    c23 5523   4.473   2.599   5.481 -0.1140  0.0756 -0.1680
 1181poe    c23 5524   4.554   2.468   5.498  0.1682  0.2585 -0.0966
 1181poe     o2 5525   4.587   2.438   5.632 -0.4103 -0.0690 -0.0211
 1181poe    c23 5526   4.618   2.301   5.646 -0.4648 -0.0792 -0.0064
 1181poe    c23 5527   4.591   2.243   5.787  0.1362 -0.2478  0.0404
 1181poe     o2 5528   4.461   2.262   5.837  0.1802  0.1126  0.0225
 1181poe    c23 5529   4.451   2.177   5.949 -0.7838  0.3301  0.1071
 1181poe    c23 5530   4.302   2.183   5.988 -0.6585 -0.2668  0.6894
 1181poe     o2 5531   4.271   2.316   6.023 -0.0744  0.1043 -0.1713
 1181poe    c31 5532   4.161   2.311   6.112  0.1722  0.0827  0.1308
 1182poe    c31 5533   2.762   1.742   6.852  0.3208  0.1356  0.0691
 1182poe     o2 5534   2.894   1.773   6.892  0.5238 -0.4599 -0.1326
 1182poe    c23 5535   2.987   1.730   6.795  0.2339  0.2990 -0.7613
 1182poe    c23 5536   3.134   1.757   6.833  0.0806 -0.4533  0.4322
 1182poe     o2 5537   3.154   1.737   6.971 -0.4310 -0.1776  0.5515
 1182poe    c23 5538   3.284   1.743   7.027 -0.0395 -0.6236 -0.2886
 1182poe    c23 5539   3.302   1.650   7.148 -0.2489  0.2261  0.4044
 1182poe     o2 5540   3.219   1.698   7.251 -0.3549  0.5536  0.1669
 1182poe    c23 5541   3.228   1.617   7.366 -0.2685 -0.3277 -0.4538
 1182poe    c23 5542   3.095   1.597   7.442  0.0536 -0.5502  0.0552
 1182poe     o2 5543   2.987   1.541   7.371 -0.0819  0.1577 -0.3005
 1182poe    c31 5544   2.893   1.510   7.471  0.2206  0.5642  0.1152
 1183poe    c31 5545   3.788   4.781   4.022  0.6793  0.1317  0.1735
 1183poe     o2 5546   3.759   4.677   4.113 -0.1482  0.2164  0.0143
 1183poe    c23 5547   3.883   4.642   4.171 -0.3590  0.1083  0.4021
 1183poe    c23 5548   3.868   4.512   4.253  0.1273 -0.2148 -0.0203
 1183poe     o2 5549   3.819   4.398   4.187  0.5023 -0.3482 -0.0758
 1183poe    c23 5550   3.786   4.299   4.282 -0.3845  0.3454  0.3538
 1183poe    c23 5551   3.746   4.168   4.211 -0.1150  0.2950  0.2934
 1183poe     o2 5552   3.645   4.200   4.118  0.0775 -0.4309 -0.1672
 1183poe    c23 5553   3.596   4.081   4.061 -0.3369 -0.5299  0.3842
 1183poe    c23 5554   3.476   4.122   3.974 -0.0432 -0.8334 -0.1721
 1183poe     o2 5555   3.522   4.239   3.911 -0.2598 -0.6803 -0.0485
 1183poe    c31 5556   3.442   4.290   3.807 -0.0974 -0.0430  0.1359
 1184poe    c31 5557   2.385   6.668   4.071 -0.1679  0.0288  0.0616
 1184poe     o2 5558   2.523   6.657   4.098 -0.1309  0.4452  0.0415
 1184poe    c23 5559   2.545   6.658   4.237  0.2886 -0.3953 -0.0124
 1184poe    c23 5560   2.687   6.611   4.273  0.2641 -0.4858 -0.0333
 1184poe     o2 5561   2.773   6.721   4.258  0.1048 -0.3700 -0.1027
 1184poe    c23 5562   2.906   6.674   4.248  0.0507 -0.4831 -0.3043
 1184poe    c23 5563   3.000   6.794   4.224 -0.5140  0.0246  0.0044
 1184poe     o2 5564   2.984   6.849   4.095  0.0064  0.1496 -0.0100
 1184poe    c23 5565   3.055   6.970   4.082  0.3891 -0.0943 -0.2032
 1184poe    c23 5566   3.016   7.057   3.961 -0.0797  0.4283  0.3197
 1184poe     o2 5567   2.875   7.063   3.960 -0.1331 -0.6107 -0.1277
 1184poe    c31 5568   2.840   7.150   3.854 -0.3435  0.0948  0.5068
 1185poe    c31 5569   1.461   3.994   5.502 -0.0280 -0.3293 -0.2294
 1185poe     o2 5570   1.327   3.978   5.461 -0.0890 -0.2876 -0.0469
 1185poe    c23 5571   1.325   3.972   5.321  0.4314  1.1411 -0.1326
 1185poe    c23 5572   1.174   3.959   5.295  0.4529 -0.2395  0.3507
 1185poe     o2 5573   1.111   4.055   5.376  0.1667 -0.4147  0.3360
 1185poe    c23 5574   0.980   4.085   5.335  0.3159 -0.0928  0.0912
 1185poe    c23 5575   0.954   4.218   5.408  0.4875 -0.1063  0.1758
 1185poe     o2 5576   0.958   4.205   5.548 -0.3773 -0.1508  0.1991
 1185poe    c23 5577   0.907   4.321   5.609  0.5024  0.2918  0.1052
 1185poe    c23 5578   0.894   4.295   5.760  0.1757  0.5834  0.1282
 1185poe     o2 5579   1.025   4.286   5.810  0.1111 -0.0941  0.1891
 1185poe    c31 5580   1.035   4.298   5.950  0.5629  0.2661  0.1285
 1186poe    c31 5581   5.420   3.899   2.194 -0.3150 -0.3136  0.2631
 1186poe     o2 5582   5.362   3.852   2.075  0.1615 -0.6220  0.1497
 1186poe    c23 5583   5.227   3.894   2.076 -0.0131 -1.1732 -0.0112
 1186poe    c23 5584   5.166   3.907   1.935 -0.2244 -0.1178  0.1703
 1186poe     o2 5585   5.160   3.794   1.851 -0.0198  0.1847 -0.2530
 1186poe    c23 5586   5.071   3.830   1.748 -0.4707  0.0457  0.0804
 1186poe    c23 5587   5.065   3.711   1.650 -0.1127  0.1180 -0.0335
 1186poe     o2 5588   5.061   3.594   1.728 -0.8969  0.3526  0.2967
 1186poe    c23 5589   5.054   3.481   1.644 -0.1034  0.3757  0.1906
 1186poe    c23 5590   5.078   3.355   1.729  0.2623  0.1467 -0.2477
 1186poe     o2 5591   5.167   3.398   1.829  0.5807 -0.2468 -0.3593
 1186poe    c31 5592   5.221   3.294   1.907 -0.2539  0.0446  0.6259
 1187poe    c31 5593   0.531   0.367   5.919  0.4685  0.1527  0.2681
 1187poe     o2 5594   0.590   0.489   5.957  0.2117  0.3418  0.0606
 1187poe    c23 5595   0.522   0.564   6.056  0.1429 -0.2050  0.4310
 1187poe    c23 5596   0.611   0.674   6.116 -0.0124  0.0460  0.2001
 1187poe     o2 5597   0.633   0.770   6.014  0.1889  0.2924  0.4743
 1187poe    c23 5598   0.739   0.854   6.055  0.3146  0.1882  0.3639
 1187poe    c23 5599   0.764   0.957   5.943  0.6173  0.3183  0.5506
 1187poe     o2 5600   0.795   0.898   5.819  0.3408 -0.3070  0.7744
 1187poe    c23 5601   0.909   0.953   5.757  0.0123 -0.6593 -0.1766
 1187poe    c23 5602   0.951   0.875   5.631  0.9675  0.1824 -0.3906
 1187poe     o2 5603   0.987   0.741   5.657 -0.1265  0.0359  0.4317
 1187poe    c31 5604   1.113   0.717   5.599 -0.3859  0.4923 -0.3495
 1188poe    c31 5605   4.057   0.792   5.650  0.1623 -0.4856 -0.2151
 1188poe     o2 5606   3.928   0.780   5.705  0.0808  0.1236 -0.2717
 1188poe    c23 5607   3.872   0.908   5.727  0.2411  0.0939  0.3275
 1188poe    c23 5608   3.719   0.890   5.730  0.1897  0.4455 -0.0624
 1188poe     o2 5609   3.690   0.785   5.820  0.2995  0.3857 -0.0964
 1188poe    c23 5610   3.564   0.805   5.881  0.7066  0.3484  0.7765
 1188poe    c23 5611   3.533   0.700   5.988 -0.1231 -0.0103  0.1931
 1188poe     o2 5612   3.642   0.697   6.078  0.2329 -0.2876 -0.2480
 1188poe    c23 5613   3.640   0.608   6.187 -0.3549  0.4161  0.3241
 1188poe    c23 5614   3.764   0.622   6.277 -0.0505  0.4696 -0.1004
 1188poe     o2 5615   3.887   0.587   6.218 -0.2880  0.0496 -0.3520
 1188poe    c31 5616   3.985   0.550   6.313 -0.7098 -0.4291 -0.0970
 1189poe    c31 5617   1.713   4.204   4.874 -0.4968  0.1024  0.1688
 1189poe     o2 5618   1.660   4.333   4.898 -0.5718  0.1032  0.0062
 1189poe    c23 5619   1.583   4.383   4.791 -0.4727  0.5516  0.1397
 1189poe    c23 5620   1.483   4.494   4.827 -1.1364 -0.0280  0.1122
 1189poe     o2 5621   1.550   4.607   4.878 -0.2704 -0.4395 -0.0968
 1189poe    c23 5622   1.485   4.729   4.850  0.4272 -0.0219  0.0842
 1189poe    c23 5623   1.471   4.797   4.988 -0.5222 -0.2848  0.1261
 1189poe     o2 5624   1.597   4.784   5.050 -0.2712  0.2609 -0.2625
 1189poe    c23 5625   1.607   4.848   5.176 -0.3247 -0.7165  0.2524
 1189poe    c23 5626   1.756   4.861   5.215 -0.3846  0.1282  0.2323
 1189poe     o2 5627   1.814   4.743   5.163  0.6399  0.5575  0.3771
 1189poe    c31 5628   1.944   4.725   5.212  0.5307 -0.1375  0.4185
 1190poe    c31 5629   3.299   0.069   6.032  0.1140 -0.1559 -0.5349
 1190poe     o2 5630   3.397   0.094   6.130 -0.5726  0.4214  0.0189
 1190poe    c23 5631   3.403  -0.017   6.216 -0.0226  0.6745  0.3190
 1190poe    c23 5632   3.503  -0.007   6.332  0.8377  0.3678 -0.3789
 1190poe     o2 5633   3.469   0.104   6.412  0.2205  0.0920 -0.2543
 1190poe    c23 5634   3.565   0.104   6.515  0.6948  0.9941 -0.6816
 1190poe    c23 5635   3.522   0.186   6.637  0.0605 -0.0526 -0.1840
 1190poe     o2 5636   3.473   0.304   6.576 -0.3410 -0.0840  0.0700
 1190poe    c23 5637   3.415   0.402   6.658 -0.1313  0.0990  0.0006
 1190poe    c23 5638   3.372   0.516   6.564  0.4400  0.2898 -0.0372
 1190poe     o2 5639   3.305   0.453   6.456  0.1996  0.1050  0.2193
 1190poe    c31 5640   3.246   0.557   6.382  0.5555  0.4298  0.3878
 1191poe    c31 5641   6.537   2.572   2.621 -0.3802 -0.2095 -0.3388
 1191poe     o2 5642   6.592   2.445   2.648  0.2576  0.0603 -0.3615
 1191poe    c23 5643   6.545   2.399   2.773  0.2989 -0.0898 -0.4004
 1191poe    c23 5644   6.615   2.267   2.810  0.3789  0.0951  0.1142
 1191poe     o2 5645   6.748   2.280   2.764  0.4000 -0.1819  0.0957
 1191poe    c23 5646   6.799   2.152   2.739 -0.0477 -0.2154 -0.6633
 1191poe    c23 5647   6.949   2.167   2.705  0.2283 -0.0301  0.6150
 1191poe     o2 5648   6.957   2.291   2.639 -0.0536 -0.3732 -0.0719
 1191poe    c23 5649   7.084   2.314   2.582 -0.0429  0.1660  0.1668
 1191poe    c23 5650   7.106   2.393   2.452  0.2866 -0.3600 -0.0998
 1191poe     o2 5651   7.087   2.527   2.494  0.1444 -0.3530 -0.1837
 1191poe    c31 5652   7.100   2.619   2.388  0.0752  0.4994  0.5373
 1192poe    c31 5653   1.090   4.946   5.274  0.5559 -0.6184 -0.2211
 1192poe     o2 5654   1.150   4.827   5.320 -0.1184 -0.6637  0.5644
 1192poe    c23 5655   1.282   4.857   5.360 -0.1826  0.1922  0.1573
 1192poe    c23 5656   1.335   4.721   5.408  0.7726  0.4002 -0.2791
 1192poe     o2 5657   1.294   4.623   5.316 -0.0851  0.3300  0.1646
 1192poe    c23 5658   1.300   4.495   5.376  0.2034  0.1400 -0.2599
 1192poe    c23 5659   1.302   4.388   5.266 -0.3920 -0.3977  0.2515
 1192poe     o2 5660   1.199   4.405   5.171 -0.2521 -0.7131  0.0418
 1192poe    c23 5661   1.209   4.305   5.072 -0.3395 -0.6151 -0.0667
 1192poe    c23 5662   1.125   4.337   4.947 -0.3332 -0.5386 -0.0510
 1192poe     o2 5663   1.175   4.448   4.875 -0.1232 -0.6732 -0.1110
 1192poe    c31 5664   1.118   4.453   4.746  0.1763 -0.2784 -0.2302
 1193poe    c31 5665   5.033   6.614   3.374 -0.0876  0.4459  0.2002
 1193poe     o2 5666   4.931   6.525   3.416  0.2275  0.1210  0.2788
 1193poe    c23 5667   4.878   6.565   3.540 -0.2108  0.0876  0.1026
 1193poe    c23 5668   4.775   6.465   3.597 -0.0565 -0.2404 -0.1915
 1193poe     o2 5669   4.659   6.438   3.521 -0.4344  0.1863  0.2271
 1193poe    c23 5670   4.567   6.372   3.604 -0.0980 -0.2765  0.2376
 1193poe    c23 5671   4.435   6.407   3.531 -0.0803 -0.3053  0.1914
 1193poe     o2 5672   4.457   6.369   3.397  0.1335 -0.5687  0.3000
 1193poe    c23 5673   4.335   6.350   3.330 -0.2827  0.5543  0.7132
 1193poe    c23 5674   4.381   6.325   3.186  0.3763  0.2191  0.9770
 1193poe     o2 5675   4.471   6.430   3.157  0.4598 -0.0172  0.3686
 1193poe    c31 5676   4.499   6.434   3.018 -0.2906  0.1192  0.2171
 1194poe    c31 5677   2.818   6.447   1.551  0.4976  0.1666 -0.1056
 1194poe     o2 5678   2.769   6.376   1.439  0.1961  0.6262 -0.2671
 1194poe    c23 5679   2.629   6.371   1.431  0.2132 -0.0385 -0.1476
 1194poe    c23 5680   2.601   6.305   1.295 -0.0861 -0.0727 -0.0705
 1194poe     o2 5681   2.627   6.166   1.301  0.2063 -0.0152  0.0103
 1194poe    c23 5682   2.637   6.116   1.170  1.0128 -0.1147  0.1080
 1194poe    c23 5683   2.673   5.967   1.185 -0.3268 -0.4182  0.4409
 1194poe     o2 5684   2.782   5.936   1.269  0.5492  0.3069 -0.4038
 1194poe    c23 5685   2.828   5.804   1.250 -0.2902 -0.0940  0.2554
 1194poe    c23 5686   2.952   5.782   1.338  0.1353  0.3351 -0.2296
 1194poe     o2 5687   2.919   5.846   1.460 -0.1098  0.0349 -0.1399
 1194poe    c31 5688   3.024   5.842   1.553 -0.2878  0.0078  0.0612
 1195poe    c31 5689   2.527   0.701   0.657 -0.0124 -0.3312 -0.2715
 1195poe     o2 5690   2.558   0.766   0.779 -0.0612 -0.6455 -0.0903
 1195poe    c23 5691   2.695   0.781   0.808 -0.2864  0.6391  0.3887
 1195poe    c23 5692   2.689   0.879   0.926 -0.1175  0.4151  0.5843
 1195poe     o2 5693   2.588   0.974   0.901 -0.2992  0.0466 -0.1108
 1195poe    c23 5694   2.582   1.066   1.007  0.2925 -0.0490  0.0050
 1195poe    c23 5695   2.468   1.157   0.958  0.1119 -0.4305 -0.2846
 1195poe     o2 5696   2.364   1.072   0.916 -0.4427  0.0508  0.0899
 1195poe    c23 5697   2.285   1.125   0.813  0.4592  0.1752 -0.5511
 1195poe    c23 5698   2.193   1.012   0.764  0.6587  0.0999 -0.7517
 1195poe     o2 5699   2.266   0.891   0.763  0.4754 -0.0482  0.9043
 1195poe    c31 5700   2.180   0.788   0.722  0.0965  0.3754  0.6269
 1196poe    c31 5701   1.149   4.524   3.261 -0.3989 -0.2109 -0.3412
 1196poe     o2 5702   1.157   4.402   3.332  0.4364  0.1881  0.2608
 1196poe    c23 5703   1.277   4.404   3.406  0.4897  0.3979  0.1687
 1196poe    c23 5704   1.271   4.313   3.530 -0.0702  0.0256 -0.1302
 1196poe     o2 5705   1.159   4.304   3.616 -0.5479  0.2999 -0.7142
 1196poe    c23 5706   1.137   4.406   3.710  0.2161 -0.3314  0.1618
 1196poe    c23 5707   0.997   4.389   3.771  0.0077  0.5378 -0.0689
 1196poe     o2 5708   0.894   4.358   3.680 -0.0786  0.8596 -0.0844
 1196poe    c23 5709   0.774   4.321   3.745  0.1016  0.5118  0.0560
 1196poe    c23 5710   0.668   4.257   3.654 -0.2139 -0.5096  1.1181
 1196poe     o2 5711   0.737   4.197   3.546 -0.4860  1.0225  0.0584
 1196poe    c31 5712   0.632   4.143   3.470  0.1818 -0.4082  0.1321
 1197poe    c31 5713   1.517   4.069   0.182 -0.6278  0.8338  0.4475
 1197poe     o2 5714   1.493   3.972   0.282 -0.3285  0.3111  0.0173
 1197poe    c23 5715   1.451   4.037   0.400  0.1591  0.2753  0.2139
 1197poe    c23 5716   1.453   3.932   0.513  0.4076 -0.1788 -0.2107
 1197poe     o2 5717   1.472   3.802   0.460  0.3446 -0.4438  0.4113
 1197poe    c23 5718   1.455   3.713   0.568 -0.0402 -0.1883  0.5620
 1197poe    c23 5719   1.473   3.571   0.513  0.1146 -0.1793  0.5910
 1197poe     o2 5720   1.356   3.517   0.456 -0.0886  0.3615  0.4931
 1197poe    c23 5721   1.354   3.376   0.460 -0.2882  0.3562  0.1859
 1197poe    c23 5722   1.224   3.303   0.424  0.2094 -0.2506 -0.3985
 1197poe     o2 5723   1.208   3.336   0.288  0.1922  0.2755 -0.2676
 1197poe    c31 5724   1.129   3.244   0.216 -0.1604  0.1691  0.2507
 1198poe    c31 5725   4.037   4.608   6.233  0.0565  0.0223 -0.1354
 1198poe     o2 5726   4.007   4.715   6.145  0.2175 -0.0736 -0.3070
 1198poe    c23 5727   3.886   4.767   6.194  0.1219 -0.3909 -0.1994
 1198poe    c23 5728   3.801   4.827   6.080  0.0810 -0.4488 -0.1993
 1198poe     o2 5729   3.898   4.900   6.008  0.1548  0.3939  0.7302
 1198poe    c23 5730   3.824   4.986   5.924 -0.1531 -0.2459  0.3328
 1198poe    c23 5731   3.917   5.033   5.811  0.4718 -0.6676  0.6638
 1198poe     o2 5732   3.980   4.922   5.752  0.1875 -0.3990 -0.1664
 1198poe    c23 5733   3.970   4.917   5.612 -0.5045  0.0874 -0.1366
 1198poe    c23 5734   4.032   4.788   5.556  0.0838  0.2082  0.2410
 1198poe     o2 5735   3.973   4.664   5.587  0.5581  0.0035  0.3362
 1198poe    c31 5736   4.044   4.575   5.503 -0.3354  0.4070 -0.8767
 1199poe    c31 5737   2.588   6.607   6.298 -0.5051  0.8071  0.2210
 1199poe     o2 5738   2.618   6.739   6.337  0.0999  0.6174  0.3993
 1199poe    c23 5739   2.714   6.804   6.257 -0.1835  0.5286 -0.0105
 1199poe    c23 5740   2.733   6.954   6.283 -0.1175  0.4824  0.2046
 1199poe     o2 5741   2.638   7.033   6.216 -0.3204 -0.0020 -0.0843
 1199poe    c23 5742   2.679   7.168   6.208  0.1542 -0.1518 -0.1897
 1199poe    c23 5743   2.598   7.221   6.088  0.4876 -0.2761 -0.4729
 1199poe     o2 5744   2.469   7.166   6.091  0.3615  0.0262 -0.2982
 1199poe    c23 5745   2.384   7.218   5.991 -0.2824  0.3416  0.4009
 1199poe    c23 5746   2.413   7.185   5.843 -0.1178 -0.0365  0.5172
 1199poe     o2 5747   2.390   7.049   5.812 -0.0267  0.1187 -0.2379
 1199poe    c31 5748   2.460   7.010   5.696 -0.1720 -0.3803 -0.1596
 1200poe    c31 5749   3.429   5.592   6.008 -0.0079  0.3256 -0.0728
 1200poe     o2 5750   3.561   5.553   5.979 -0.1150 -0.1904  0.1356
 1200poe    c23 5751   3.608   5.437   6.045  0.1620 -0.4640 -0.5362
 1200poe    c23 5752   3.760   5.442   6.021  0.2894 -0.1325  0.2985
 1200poe     o2 5753   3.810   5.569   6.056 -0.3590  0.3184 -0.3879
 1200poe    c23 5754   3.941   5.582   6.005 -0.1657 -0.1835 -0.0245
 1200poe    c23 5755   4.005   5.718   6.041 -0.3750 -0.0064 -0.3227
 1200poe     o2 5756   3.904   5.812   6.012 -0.5175  0.1390  0.6101
 1200poe    c23 5757   3.953   5.944   6.012  0.1237 -0.0889  0.0044
 1200poe    c23 5758   3.847   6.055   6.026 -0.0998 -0.3460  0.3868
 1200poe     o2 5759   3.746   6.061   5.928  0.5727  0.5035 -0.2703
 1200poe    c31 5760   3.650   6.164   5.932  0.1269  0.0864 -0.1456
 1201poe    c31 5761   1.153   5.016   3.023  0.2743 -0.3985  0.1940
 1201poe     o2 5762   1.054   4.937   3.084  0.2570 -0.1664  0.4739
 1201poe    c23 5763   1.031   4.835   2.988  0.3567  0.3298 -0.0815
 1201poe    c23 5764   0.884   4.792   3.002  0.2965  0.5195 -0.1222
 1201poe     o2 5765   0.880   4.767   3.140  0.0018  0.8180 -0.0781
 1201poe    c23 5766   0.752   4.730   3.185  0.2193  0.2471  0.0739
 1201poe    c23 5767   0.769   4.683   3.331  0.3387 -0.1686 -0.0711
 1201poe     o2 5768   0.829   4.796   3.390  0.5459 -0.5112  0.3835
 1201poe    c23 5769   0.806   4.792   3.529  0.0173 -0.2285  0.3051
 1201poe    c23 5770   0.871   4.908   3.606  0.4270  0.3022 -0.8152
 1201poe     o2 5771   1.008   4.930   3.583  0.5830  0.1880 -0.0301
 1201poe    c31 5772   1.049   5.060   3.619  0.0130  0.4309 -0.2461
 1202poe    c31 5773   4.812   2.373   3.863  0.8187 -0.1592  0.0665
 1202poe     o2 5774   4.809   2.441   3.740 -0.1028 -0.0770  0.1298
 1202poe    c23 5775   4.730   2.377   3.643  0.0695  0.4026 -0.3333
 1202poe    c23 5776   4.646   2.461   3.544 -0.4445 -0.0090 -0.2528
 1202poe     o2 5777   4.735   2.537   3.466 -0.0600 -0.1036  0.0866
 1202poe    c23 5778   4.678   2.663   3.437 -0.4515 -0.3208 -0.0928
 1202poe    c23 5779   4.758   2.734   3.326 -0.1824  0.2019  0.4356
 1202poe     o2 5780   4.897   2.716   3.346 -0.1481  0.0630  0.0660
 1202poe    c23 5781   4.969   2.744   3.228 -0.5733 -0.2916 -0.2843
 1202poe    c23 5782   5.112   2.708   3.272 -0.6780 -0.2724  0.0719
 1202poe     o2 5783   5.105   2.592   3.352  0.6108 -0.2389  0.2537
 1202poe    c31 5784   5.233   2.540   3.385  0.9308  0.3487 -0.0517
 1203poe    c31 5785   3.884   2.200   2.268 -0.1776  0.3357 -0.2598
 1203poe     o2 5786   3.992   2.133   2.206  0.2207  0.3196  0.4390
 1203poe    c23 5787   4.054   2.217   2.112  0.3724  0.2680  0.4923
 1203poe    c23 5788   4.129   2.125   2.014  0.5163  0.6682  0.2213
 1203poe     o2 5789   4.206   2.023   2.075 -0.1739 -0.3082 -0.5146
 1203poe    c23 5790   4.313   1.973   1.999 -0.2364 -0.3939 -0.5462
 1203poe    c23 5791   4.381   1.860   2.079  0.1642  0.2960  0.0977
 1203poe     o2 5792   4.287   1.760   2.113  0.6917 -0.5445 -0.8934
 1203poe    c23 5793   4.342   1.648   2.179  0.1966 -0.1583  0.1908
 1203poe    c23 5794   4.229   1.557   2.232 -0.0194 -0.0138 -0.0180
 1203poe     o2 5795   4.141   1.624   2.318 -0.2607  0.1710 -0.4038
 1203poe    c31 5796   4.030   1.538   2.331  0.2739 -0.5186 -0.3082
 1204poe    c31 5797   2.702   3.056   6.171 -0.0273 -0.2456  0.7266
 1204poe     o2 5798   2.596   3.090   6.258 -0.0473  0.2482  0.5153
 1204poe    c23 5799   2.580   2.998   6.363 -0.2287 -0.7199 -0.3349
 1204poe    c23 5800   2.454   3.037   6.443  0.5797  0.1733  0.5423
 1204poe     o2 5801   2.476   3.167   6.494  0.1569  0.4774 -0.0443
 1204poe    c23 5802   2.366   3.199   6.576  0.1752 -0.2449  0.2665
 1204poe    c23 5803   2.374   3.322   6.668  0.0193  0.1046 -0.1844
 1204poe     o2 5804   2.443   3.423   6.599  0.3098 -0.2674 -0.4379
 1204poe    c23 5805   2.461   3.539   6.677  0.0757 -0.1550 -0.5511
 1204poe    c23 5806   2.525   3.643   6.585  0.9447  0.0293  0.2459
 1204poe     o2 5807   2.603   3.584   6.483  0.4815 -0.4229  0.1482
 1204poe    c31 5808   2.639   3.684   6.391 -0.4289  0.5020  0.7720
 1205poe    c31 5809   5.504   2.821   0.803  0.1949 -0.1348  0.0434
 1205poe     o2 5810   5.559   2.712   0.874 -0.3395 -0.5374 -0.1505
 1205poe    c23 5811   5.477   2.670   0.980 -0.1322  0.2821  0.3484
 1205poe    c23 5812   5.543   2.578   1.084 -0.3428 -0.2850 -0.0157
 1205poe     o2 5813   5.576   2.459   1.015  0.2125 -0.0843 -0.1016
 1205poe    c23 5814   5.631   2.359   1.098 -0.6087 -0.2103  0.3043
 1205poe    c23 5815   5.611   2.224   1.026 -0.2763 -0.0338 -0.1190
 1205poe     o2 5816   5.655   2.240   0.893 -0.1370  0.0956 -0.0575
 1205poe    c23 5817   5.640   2.120   0.821 -0.0053  0.0550 -0.0176
 1205poe    c23 5818   5.679   2.145   0.674 -0.1933 -0.0103 -0.0792
 1205poe     o2 5819   5.619   2.264   0.628 -0.6033 -0.2052 -0.0479
 1205poe    c31 5820   5.605   2.264   0.488 -0.5732 -0.0090 -0.0513
 1206poe    c31 5821   5.017   0.002   5.642  0.2867  0.0378 -0.2611
 1206poe     o2 5822   4.948  -0.117   5.616  0.6849 -0.1261 -0.5701
 1206poe    c23 5823   4.882  -0.109   5.491 -0.4274 -0.5207 -0.0179
 1206poe    c23 5824   4.846  -0.256   5.458 -0.7376 -0.4399 -0.0389
 1206poe     o2 5825   4.802  -0.316   5.578  0.7348 -0.5800  0.4499
 1206poe    c23 5826   4.731  -0.437   5.564 -0.0598 -0.0839  0.1177
 1206poe    c23 5827   4.691  -0.489   5.704 -0.4610  0.4677  0.2121
 1206poe     o2 5828   4.809  -0.499   5.781 -0.1960  0.0638 -0.2375
 1206poe    c23 5829   4.773  -0.538   5.911  0.3809 -0.1102 -0.1286
 1206poe    c23 5830   4.899  -0.566   5.994  0.1695 -0.1484  0.1825
 1206poe     o2 5831   5.003  -0.471   5.990  0.1950 -0.1973 -0.3604
 1206poe    c31 5832   5.116  -0.537   6.041 -0.1399 -0.4596  0.0445
 1207poe    c31 5833   1.869   6.703   2.430 -0.1950 -0.0481  0.1721
 1207poe     o2 5834   1.881   6.825   2.362  0.5235 -0.1966  0.0277
 1207poe    c23 5835   1.987   6.906   2.409  0.2263 -0.1125  0.5561
 1207poe    c23 5836   2.002   7.028   2.317 -1.5944  0.0793  0.4733
 1207poe     o2 5837   1.998   6.988   2.181 -0.6442  0.0316  0.4518
 1207poe    c23 5838   1.996   7.111   2.112  0.1455  0.0411  0.4401
 1207poe    c23 5839   1.956   7.079   1.967 -0.5111 -0.1569  0.6609
 1207poe     o2 5840   2.020   6.969   1.907  0.0218  0.5381 -0.0641
 1207poe    c23 5841   1.959   6.929   1.786 -0.0026  0.3503  0.0096
 1207poe    c23 5842   2.047   6.811   1.742  0.0247  0.4175 -0.1158
 1207poe     o2 5843   2.078   6.740   1.860  0.1562 -0.1713 -0.5018
 1207poe    c31 5844   2.122   6.612   1.820 -0.1527 -0.5098  0.2435
 1208poe    c31 5845   1.918   1.670   2.344 -0.1639  0.0305 -0.4787
 1208poe     o2 5846   1.880   1.804   2.370  0.6600  0.0638  0.6435
 1208poe    c23 5847   1.914   1.897   2.270 -0.2089 -0.3901 -0.0949
 1208poe    c23 5848   1.944   2.022   2.355 -0.2187 -0.4383 -0.0197
 1208poe     o2 5849   1.845   2.031   2.455 -0.4018  0.4866 -0.2731
 1208poe    c23 5850   1.889   2.111   2.563 -0.1378  0.3865 -0.3059
 1208poe    c23 5851   1.760   2.128   2.644  0.0148 -0.4682  0.1275
 1208poe     o2 5852   1.735   1.998   2.693  0.2893 -0.4535  0.3080
 1208poe    c23 5853   1.604   1.997   2.744  0.4094  0.3853  0.6435
 1208poe    c23 5854   1.563   1.863   2.808  0.6429 -0.0217 -0.0497
 1208poe     o2 5855   1.549   1.758   2.715  0.2203 -0.0557  0.0527
 1208poe    c31 5856   1.494   1.639   2.766 -0.9205  0.1371 -0.6789
 1209poe    c31 5857   2.778   4.210   4.080  0.5363  0.8432  0.0234
 1209poe     o2 5858   2.758   4.251   3.947 -0.3765  0.0818 -0.0871
 1209poe    c23 5859   2.837   4.364   3.915 -0.4696  0.1865  0.0465
 1209poe    c23 5860   2.789   4.421   3.780  0.4767  0.5668 -0.1359
 1209poe     o2 5861   2.791   4.310   3.693 -0.1932  0.2878  0.2009
 1209poe    c23 5862   2.722   4.345   3.574  0.5589 -0.0478 -0.3420
 1209poe    c23 5863   2.700   4.210   3.502  0.1553  0.0429 -0.3887
 1209poe     o2 5864   2.632   4.122   3.588  0.1333  0.2979 -0.1414
 1209poe    c23 5865   2.574   4.017   3.513 -0.2338 -0.0102  0.5649
 1209poe    c23 5866   2.504   3.899   3.584 -0.1878 -0.8541 -0.7630
 1209poe     o2 5867   2.601   3.841   3.668  0.0801  0.4077 -0.1708
 1209poe    c31 5868   2.535   3.727   3.719  0.3230  0.4773  0.3043
 1210poe    c31 5869   2.400   6.190   0.716  0.1177  0.1473  0.2176
 1210poe     o2 5870   2.303   6.292   0.708  0.1488  0.2052  0.5531
 1210poe    c23 5871   2.235   6.298   0.831 -0.3463 -0.3145  0.3102
 1210poe    c23 5872   2.134   6.414   0.828  0.2239  0.1756 -0.1609
 1210poe     o2 5873   2.185   6.544   0.840  0.0120  0.2001  0.5243
 1210poe    c23 5874   2.092   6.629   0.903 -0.0225  0.6151 -0.0704
 1210poe    c23 5875   2.148   6.758   0.965  0.6586  0.1358  0.3177
 1210poe     o2 5876   2.245   6.816   0.880 -0.1438  0.5906 -0.2982
 1210poe    c23 5877   2.327   6.912   0.942 -0.1872  0.1724  0.4136
 1210poe    c23 5878   2.423   6.887   1.060 -0.2048  0.1009  0.4130
 1210poe     o2 5879   2.541   6.819   1.026 -0.3440 -0.0316  0.1948
 1210poe    c31 5880   2.532   6.680   1.005  0.2548 -0.1302  0.5543
 1211poe    c31 5881   2.263   5.265   5.350 -0.1652  0.5975 -0.4841
 1211poe     o2 5882   2.377   5.336   5.308  0.5324  0.1098  0.5535
 1211poe    c23 5883   2.472   5.358   5.410  1.1512  0.5168 -0.1046
 1211poe    c23 5884   2.442   5.484   5.494  0.0432  0.1428  0.0797
 1211poe     o2 5885   2.443   5.592   5.404  0.0348  0.1423  0.0789
 1211poe    c23 5886   2.398   5.706   5.474  0.0064  0.0182  0.2634
 1211poe    c23 5887   2.343   5.809   5.373  0.1072 -0.1881 -0.0013
 1211poe     o2 5888   2.428   5.820   5.261 -0.2174 -0.5281 -0.2839
 1211poe    c23 5889   2.372   5.883   5.147  0.2432  0.1434 -0.1448
 1211poe    c23 5890   2.487   5.886   5.044  0.1982 -0.1382 -0.2044
 1211poe     o2 5891   2.520   5.751   5.021  0.0899 -0.1934 -0.0375
 1211poe    c31 5892   2.621   5.744   4.922 -0.3824 -0.1314 -0.5287
 1212poe    c31 5893   4.424   4.720   4.435 -0.3054 -0.1634 -0.0082
 1212poe     o2 5894   4.563   4.697   4.442 -0.3165 -0.2281  0.0042
 1212poe    c23 5895   4.587   4.571   4.383 -0.1717 -0.2779  0.1686
 1212poe    c23 5896   4.731   4.519   4.395  0.0172  0.1765 -0.0789
 1212poe     o2 5897   4.820   4.590   4.312 -0.1193 -0.1539 -0.5081
 1212poe    c23 5898   4.947   4.529   4.307  0.1180  0.3504 -0.7062
 1212poe    c23 5899   5.021   4.615   4.203  0.4042  0.2947 -0.5495
 1212poe     o2 5900   5.012   4.744   4.260  0.1181  0.1201 -0.1919
 1212poe    c23 5901   5.093   4.840   4.195  0.5644 -0.2467 -0.1829
 1212poe    c23 5902   5.023   4.968   4.244 -0.2896 -0.6729 -0.2669
 1212poe     o2 5903   4.890   4.953   4.198 -0.2522  0.1570 -0.6708
 1212poe    c31 5904   4.820   5.074   4.215  0.1675  0.2939  0.1381
 1213poe    c31 5905   6.788   1.281   5.702 -0.5397  0.9793 -0.0402
 1213poe     o2 5906   6.717   1.281   5.580  0.0153 -0.1917 -0.3817
 1213poe    c23 5907   6.606   1.367   5.591  0.3704  0.2366 -0.0940
 1213poe    c23 5908   6.563   1.441   5.463  0.5678 -0.7347 -0.7363
 1213poe     o2 5909   6.480   1.358   5.386 -0.6420 -0.3206  0.0953
 1213poe    c23 5910   6.436   1.416   5.265 -0.0750  0.4930  0.2722
 1213poe    c23 5911   6.338   1.325   5.188  0.1329  0.0920  0.4784
 1213poe     o2 5912   6.395   1.198   5.209  0.3716  0.1277  0.0599
 1213poe    c23 5913   6.297   1.102   5.177  0.4648 -0.1327  0.5556
 1213poe    c23 5914   6.355   0.960   5.198  0.8857 -0.0651 -0.1139
 1213poe     o2 5915   6.412   0.984   5.325  0.1892  0.0501  0.1860
 1213poe    c31 5916   6.477   0.869   5.374  0.4134  0.0232 -0.1708
 1214poe    c31 5917   0.718   2.785   6.663 -0.1125  0.4986 -0.8794
 1214poe     o2 5918   0.609   2.786   6.753  0.6988  0.1402  0.1342
 1214poe    c23 5919   0.643   2.718   6.872 -0.1565 -0.9543 -0.2320
 1214poe    c23 5920   0.527   2.709   6.973  0.0384 -0.2414  0.0624
 1214poe     o2 5921   0.414   2.636   6.929 -0.3607  0.4096 -0.0193
 1214poe    c23 5922   0.300   2.651   7.009 -0.2152 -0.1401  0.2981
 1214poe    c23 5923   0.200   2.537   6.980  0.0411 -0.2957  0.0238
 1214poe     o2 5924   0.197   2.524   6.840  0.0796  0.5973 -0.0704
 1214poe    c23 5925   0.119   2.415   6.796  0.8707 -0.1235  0.2874
 1214poe    c23 5926   0.131   2.408   6.642 -0.3331  0.0898  0.1757
 1214poe     o2 5927   0.267   2.431   6.614 -0.3064 -0.2114  0.0543
 1214poe    c31 5928   0.313   2.367   6.497  0.6535  0.0680  0.2727
 1215poe    c31 5929   4.979   1.742   1.738 -0.1061 -0.5192 -0.1744
 1215poe     o2 5930   5.007   1.871   1.787 -0.1614 -0.5852  0.0335
 1215poe    c23 5931   4.903   1.911   1.874 -0.0117  0.2455 -0.1551
 1215poe    c23 5932   4.936   2.037   1.955  0.0530  0.2797 -0.2352
 1215poe     o2 5933   5.009   2.115   1.863  0.1065  0.7424  0.1952
 1215poe    c23 5934   5.046   2.243   1.912 -0.0531  0.8070  0.1469
 1215poe    c23 5935   5.129   2.314   1.803 -0.0902 -0.0761 -0.4695
 1215poe     o2 5936   5.240   2.234   1.767  0.5278  0.3946  0.3685
 1215poe    c23 5937   5.305   2.302   1.662  0.1824 -0.2978 -0.2995
 1215poe    c23 5938   5.448   2.251   1.641  0.2180 -0.3514  0.0673
 1215poe     o2 5939   5.445   2.111   1.633 -0.5480 -0.3306 -0.0830
 1215poe    c31 5940   5.575   2.075   1.590 -0.1976 -0.4212  1.0341
 1216poe    c31 5941   4.256   6.616   2.775 -0.1304 -0.0160 -0.4480
 1216poe     o2 5942   4.184   6.495   2.764  0.3076 -0.2727 -0.5416
 1216poe    c23 5943   4.101   6.492   2.649 -0.2860  0.1993 -0.1310
 1216poe    c23 5944   4.069   6.348   2.607 -0.4050  0.0907  0.3187
 1216poe     o2 5945   3.999   6.271   2.702  0.0948 -0.0421  0.5862
 1216poe    c23 5946   3.986   6.136   2.661 -0.6812  0.2100 -0.0231
 1216poe    c23 5947   3.857   6.083   2.725 -0.4423 -0.2319  0.0942
 1216poe     o2 5948   3.863   6.116   2.861  0.2099 -0.0756  0.0304
 1216poe    c23 5949   3.760   6.069   2.946  0.3412 -0.1846  0.1303
 1216poe    c23 5950   3.814   6.114   3.083  0.4426 -0.0900  0.0596
 1216poe     o2 5951   3.848   6.251   3.080  0.0558  0.0151  0.4595
 1216poe    c31 5952   3.879   6.283   3.214 -0.0509  0.6728  0.3257
 1217poe    c31 5953   6.850   5.029   1.004  0.0408  0.3705 -0.2470
 1217poe     o2 5954   6.735   5.099   0.960 -0.2919 -0.0332 -0.0217
 1217poe    c23 5955   6.752   5.103   0.821  0.0477  0.2483  0.0264
 1217poe    c23 5956   6.679   5.219   0.751  0.1909  0.2127 -0.1841
 1217poe     o2 5957   6.542   5.230   0.781  0.3107  0.4228  0.2863
 1217poe    c23 5958   6.486   5.338   0.710 -0.0103 -0.3550 -0.6620
 1217poe    c23 5959   6.333   5.335   0.723  0.0893 -0.7167  0.5230
 1217poe     o2 5960   6.318   5.319   0.862  0.2469 -0.1844  0.6017
 1217poe    c23 5961   6.180   5.313   0.889  0.0637 -0.6471 -0.3998
 1217poe    c23 5962   6.163   5.242   1.025  0.2837 -0.1923 -0.1315
 1217poe     o2 5963   6.235   5.122   1.012  0.1152 -0.3170  0.0852
 1217poe    c31 5964   6.209   5.027   1.113 -0.2125 -0.0361  0.2651
 1218poe    c31 5965   3.673   4.639   5.358  0.1951 -0.1547 -0.1643
 1218poe     o2 5966   3.709   4.774   5.375  0.5695 -0.2850  0.1109
 1218poe    c23 5967   3.610   4.844   5.447  0.4745 -0.2482 -0.0541
 1218poe    c23 5968   3.607   4.995   5.418  0.4435 -0.1072  0.6611
 1218poe     o2 5969   3.561   5.019   5.287  0.3232 -0.2143  0.6832
 1218poe    c23 5970   3.501   5.144   5.264  0.3637 -0.3453 -0.1691
 1218poe    c23 5971   3.596   5.237   5.186  0.7475 -0.5055  0.1061
 1218poe     o2 5972   3.600   5.166   5.064 -0.0044  0.0219 -0.2323
 1218poe    c23 5973   3.697   5.222   4.978 -0.1069 -0.4675 -0.6665
 1218poe    c23 5974   3.701   5.149   4.842  0.0598 -0.3387 -0.7321
 1218poe     o2 5975   3.715   5.015   4.883  0.3699 -0.0311  0.1966
 1218poe    c31 5976   3.731   4.935   4.768 -0.0115  0.0795  0.0638
 1219poe    c31 5977   6.428   2.515   0.530  0.2886 -0.1616 -0.0849
 1219poe     o2 5978   6.532   2.429   0.571  0.0313 -0.5759 -0.2965
 1219poe    c23 5979   6.661   2.485   0.579 -0.3007  0.1124  0.3363
 1219poe    c23 5980   6.758   2.369   0.606  0.2314  0.4715 -0.0263
 1219poe     o2 5981   6.723   2.309   0.728  0.1806 -0.1627 -0.3453
 1219poe    c23 5982   6.818   2.212   0.765  0.1364 -0.0113  0.1749
 1219poe    c23 5983   6.808   2.193   0.918 -0.1005 -0.1371  0.1459
 1219poe     o2 5984   6.671   2.191   0.947 -0.1450  0.5712  0.0213
 1219poe    c23 5985   6.656   2.193   1.088 -0.0836 -0.3101  0.0473
 1219poe    c23 5986   6.508   2.176   1.127 -0.1216 -0.0342  0.0226
 1219poe     o2 5987   6.433   2.275   1.061  0.0497 -0.2715 -0.5354
 1219poe    c31 5988   6.297   2.239   1.070 -0.0143  0.1188  0.0810
 1220poe    c31 5989   0.343   1.203   5.015 -0.1266 -0.3971  0.4065
 1220poe     o2 5990   0.238   1.193   4.921  0.2550  0.2956 -0.1048
 1220poe    c23 5991   0.122   1.145   4.984  0.2125 -0.4149 -0.7049
 1220poe    c23 5992   0.068   1.037   4.888 -0.5931 -0.1929 -0.5111
 1220poe     o2 5993   0.074   1.102   4.763  0.1314  0.3930 -0.1791
 1220poe    c23 5994   0.075   1.010   4.656  0.0022  0.2155 -0.0289
 1220poe    c23 5995   0.058   1.100   4.532  0.0248  0.6210  0.2609
 1220poe     o2 5996   0.168   1.188   4.538  0.1717  0.4212  0.4757
 1220poe    c23 5997   0.174   1.252   4.413 -0.0032 -0.4732 -0.0036
 1220poe    c23 5998   0.294   1.349   4.404 -0.1466 -0.3236 -0.3167
 1220poe     o2 5999   0.281   1.452   4.499  0.2007 -0.5782  0.0097
 1220poe    c31 6000   0.378   1.553   4.480 -0.0791 -0.1960  0.5845
 1221poe    c31 6001   1.758   3.284   0.431 -0.8395  0.3637 -0.3307
 1221poe     o2 6002   1.868   3.363   0.392 -0.2361 -0.3700 -0.1231
 1221poe    c23 6003   1.838   3.421   0.268  0.5324  0.1288 -0.0840
 1221poe    c23 6004   1.967   3.422   0.184  0.2965  0.3809 -0.4534
 1221poe     o2 6005   2.055   3.519   0.238  0.6345  0.0617 -0.4240
 1221poe    c23 6006   2.190   3.492   0.208  0.5598 -0.1541 -0.5764
 1221poe    c23 6007   2.287   3.598   0.264 -0.2019  0.2567 -0.0134
 1221poe     o2 6008   2.292   3.604   0.405 -0.0902  0.2518 -0.0167
 1221poe    c23 6009   2.412   3.652   0.461 -0.1281  0.0479  0.2396
 1221poe    c23 6010   2.393   3.755   0.574 -0.5626  0.3936 -0.1419
 1221poe     o2 6011   2.333   3.696   0.688 -0.5195 -0.0471 -0.3443
 1221poe    c31 6012   2.281   3.797   0.771 -0.1469 -0.2520  0.1430
 1222poe    c31 6013   3.034   0.322   4.910 -0.3003  0.1783 -0.2598
 1222poe     o2 6014   2.965   0.273   5.023 -0.2316 -0.4224 -0.4757
 1222poe    c23 6015   2.847   0.346   5.045  0.0214 -0.2155  0.2412
 1222poe    c23 6016   2.761   0.281   5.154  0.1433 -0.6202  0.0975
 1222poe     o2 6017   2.820   0.292   5.282  0.2070 -0.3513  0.0446
 1222poe    c23 6018   2.742   0.236   5.385 -0.4727  0.2834 -0.1103
 1222poe    c23 6019   2.825   0.259   5.513 -0.1905 -0.0229 -0.2377
 1222poe     o2 6020   2.940   0.177   5.517 -0.2572 -0.1099 -0.0634
 1222poe    c23 6021   2.997   0.175   5.646  0.1438  0.6767 -0.2203
 1222poe    c23 6022   3.128   0.094   5.633 -0.3136 -0.0730 -0.2123
 1222poe     o2 6023   3.187   0.125   5.509  0.2243 -0.3250 -0.0198
 1222poe    c31 6024   3.325   0.102   5.528  0.3198  0.4314  0.2365
 1223poe    c31 6025   3.611   3.350   4.482  0.1944  0.1033  0.2921
 1223poe     o2 6026   3.682   3.382   4.600 -0.3491  0.1328  0.6153
 1223poe    c23 6027   3.790   3.294   4.620 -0.5998 -0.2633  0.2587
 1223poe    c23 6028   3.815   3.315   4.771  0.5399  0.6643 -0.0374
 1223poe     o2 6029   3.809   3.454   4.793  0.3000  0.6193  0.1924
 1223poe    c23 6030   3.837   3.468   4.930 -0.3896  0.1372  0.3859
 1223poe    c23 6031   3.809   3.611   4.980 -0.2682  0.1953  0.2866
 1223poe     o2 6032   3.686   3.660   4.933 -0.4628 -0.1217  0.4595
 1223poe    c23 6033   3.662   3.789   4.986  0.0259  0.2627 -0.2360
 1223poe    c23 6034   3.604   3.868   4.867 -0.4452  0.0823 -0.1265
 1223poe     o2 6035   3.484   3.812   4.819 -0.6027 -0.1583  0.5369
 1223poe    c31 6036   3.397   3.900   4.751  0.0886  0.1900  0.1012
 1224poe    c31 6037   3.791   5.526   4.577  0.2831  0.0851 -0.0692
 1224poe     o2 6038   3.905   5.445   4.556  0.0750 -0.3533  0.4841
 1224poe    c23 6039   3.993   5.516   4.472 -0.2659  0.0487  0.4663
 1224poe    c23 6040   4.106   5.426   4.419  0.2039  0.6372  0.4523
 1224poe     o2 6041   4.140   5.327   4.514 -0.1517  0.3297  0.2634
 1224poe    c23 6042   4.252   5.259   4.464 -0.5760  0.0569 -0.3341
 1224poe    c23 6043   4.319   5.176   4.576 -0.4936  0.4669 -0.0785
 1224poe     o2 6044   4.227   5.108   4.658 -0.2557  0.3031  0.0525
 1224poe    c23 6045   4.289   5.035   4.761 -0.5355  0.3484  0.2544
 1224poe    c23 6046   4.197   5.020   4.884  0.0357 -0.2820  0.6129
 1224poe     o2 6047   4.163   5.146   4.938 -0.3988 -0.0637 -0.1482
 1224poe    c31 6048   4.096   5.123   5.060 -0.3508  0.9070  0.0663
 1225poe    c31 6049   5.925   1.065   3.819  0.7539  0.6415  0.0970
 1225poe     o2 6050   5.871   1.039   3.691  0.2959  0.3627  0.3405
 1225poe    c23 6051   5.731   1.029   3.689  0.2740  0.7324 -0.1056
 1225poe    c23 6052   5.684   1.006   3.544 -0.1004  0.3632  0.0687
 1225poe     o2 6053   5.774   1.071   3.456  0.1510 -0.1063 -0.0199
 1225poe    c23 6054   5.728   1.067   3.323  0.0064 -0.3060  0.0348
 1225poe    c23 6055   5.830   1.129   3.225  0.0627  0.4808  0.5816
 1225poe     o2 6056   5.956   1.070   3.248  0.0489  0.1169 -0.2312
 1225poe    c23 6057   6.052   1.115   3.155 -0.2560  0.1300 -0.5398
 1225poe    c23 6058   6.190   1.135   3.220 -0.2170 -0.0519 -0.5646
 1225poe     o2 6059   6.189   1.254   3.296  0.4443 -0.2286 -0.2765
 1225poe    c31 6060   6.321   1.302   3.307  0.3741 -0.0436 -0.2364
 1226poe    c31 6061   2.211   2.479   2.744  0.5023  0.5991  0.1428
 1226poe     o2 6062   2.288   2.361   2.733 -0.0788  0.2170  0.0813
 1226poe    c23 6063   2.422   2.399   2.757 -0.0202  0.3573 -0.4515
 1226poe    c23 6064   2.526   2.290   2.724  0.0095  0.2435  0.0092
 1226poe     o2 6065   2.531   2.255   2.588  0.0052 -0.3035  0.1479
 1226poe    c23 6066   2.618   2.146   2.571  0.3763  0.0450 -0.2096
 1226poe    c23 6067   2.608   2.105   2.423 -0.2188 -0.5281 -0.0163
 1226poe     o2 6068   2.475   2.115   2.378 -0.2114  0.5318  0.1661
 1226poe    c23 6069   2.449   2.083   2.243 -0.0228  0.4521  0.1486
 1226poe    c23 6070   2.315   2.155   2.220 -0.2328 -0.0128 -0.1030
 1226poe     o2 6071   2.327   2.295   2.237  0.0411  0.0165 -0.5087
 1226poe    c31 6072   2.211   2.361   2.191 -0.0512  0.2591  0.0596
 1227poe    c31 6073   4.234   3.954   5.914 -0.1666 -0.3574 -0.5958
 1227poe     o2 6074   4.096   3.984   5.916 -0.0978 -0.0577 -0.3601
 1227poe    c23 6075   4.023   3.871   5.958 -0.1883  0.1038 -0.0806
 1227poe    c23 6076   3.872   3.897   5.955 -0.3219 -0.6760 -0.2744
 1227poe     o2 6077   3.826   3.915   5.822 -0.1912 -0.4987 -0.2959
 1227poe    c23 6078   3.687   3.935   5.823 -0.0557  0.5042 -0.3910
 1227poe    c23 6079   3.652   3.960   5.675  0.4425 -0.0204 -0.6024
 1227poe     o2 6080   3.737   4.067   5.642  0.3155  0.2666 -0.0230
 1227poe    c23 6081   3.675   4.123   5.528 -0.0050 -0.4197 -0.1917
 1227poe    c23 6082   3.777   4.183   5.429 -0.2691  0.2118 -0.0811
 1227poe     o2 6083   3.876   4.094   5.385 -0.2870  0.1709 -0.0386
 1227poe    c31 6084   3.867   4.088   5.244 -0.3383  0.0354 -0.0292
 1228poe    c31 6085   1.836   5.518   2.869  0.1697  0.1550  0.2539
 1228poe     o2 6086   1.791   5.646   2.831  0.1577  0.1241  0.1644
 1228poe    c23 6087   1.905   5.730   2.828  0.0189  0.3000 -0.3288
 1228poe    c23 6088   1.870   5.875   2.790 -0.0909  0.3667  0.0164
 1228poe     o2 6089   1.753   5.903   2.864  0.1403  0.3001  0.4085
 1228poe    c23 6090   1.724   6.041   2.872  0.7014  0.4002  0.7832
 1228poe    c23 6091   1.588   6.032   2.944  0.2318  0.0660 -0.1313
 1228poe     o2 6092   1.509   5.920   2.907  0.2436  0.0675 -0.1597
 1228poe    c23 6093   1.449   5.926   2.780 -0.2447 -0.2848  0.0548
 1228poe    c23 6094   1.423   5.778   2.743 -0.2511 -0.2806  0.0440
 1228poe     o2 6095   1.544   5.705   2.742  0.1560  0.3829 -0.2527
 1228poe    c31 6096   1.505   5.570   2.740  0.8228  0.1771  0.3104
 1229poe    c31 6097   0.291   2.949   4.574 -0.3687  0.5880  0.0586
 1229poe     o2 6098   0.244   2.817   4.592 -0.0629  0.4820  0.0924
 1229poe    c23 6099   0.354   2.737   4.628 -0.0968  0.1457 -0.5410
 1229poe    c23 6100   0.345   2.589   4.585  0.1855  0.1607 -0.6565
 1229poe     o2 6101   0.357   2.545   4.452  0.3708 -0.3751 -0.4664
 1229poe    c23 6102   0.314   2.411   4.450  0.1954 -0.3271  0.0115
 1229poe    c23 6103   0.300   2.359   4.306  0.2989  0.2417 -0.2041
 1229poe     o2 6104   0.409   2.418   4.237  0.4418 -0.0357 -0.2179
 1229poe    c23 6105   0.440   2.354   4.115  0.3029 -0.6874  0.0828
 1229poe    c23 6106   0.573   2.408   4.059  0.2584 -0.2960  0.3426
 1229poe     o2 6107   0.560   2.545   4.087  0.2157 -0.0772 -0.7005
 1229poe    c31 6108   0.679   2.609   4.047  0.3354  0.1543 -0.0008
 1230poe    c31 6109   3.105   2.638   3.421 -0.0422 -0.5444 -0.0820
 1230poe     o2 6110   3.069   2.571   3.540 -0.3992  0.4668  0.3929
 1230poe    c23 6111   3.149   2.609   3.650  0.5658  0.5823 -0.3379
 1230poe    c23 6112   3.128   2.518   3.772 -0.0410  0.5428 -0.4703
 1230poe     o2 6113   3.007   2.520   3.844 -0.1926  0.1684 -0.7087
 1230poe    c23 6114   2.985   2.628   3.932 -0.0925 -0.3021 -0.0963
 1230poe    c23 6115   2.850   2.609   4.003 -0.3182  0.2389 -0.3739
 1230poe     o2 6116   2.750   2.592   3.905 -0.1350  0.1274 -0.5401
 1230poe    c23 6117   2.634   2.540   3.965 -0.0067  0.6942  0.2001
 1230poe    c23 6118   2.529   2.506   3.858  0.3474 -0.0346  0.0823
 1230poe     o2 6119   2.578   2.428   3.751  0.2826 -0.2360  0.1983
 1230poe    c31 6120   2.474   2.357   3.688 -0.2037  0.3858  0.2884
 1231poe    c31 6121   0.973   3.586   0.277 -0.5637  0.2015  0.4077
 1231poe     o2 6122   0.885   3.679   0.217 -0.2877  0.2704  0.1060
 1231poe    c23 6123   0.962   3.795   0.197 -0.0514  0.1301  0.1953
 1231poe    c23 6124   0.879   3.922   0.170  0.2374  0.2921  0.0507
 1231poe     o2 6125   0.773   3.924   0.263  0.5132 -0.0100  0.3745
 1231poe    c23 6126   0.677   4.027   0.254 -0.0730 -0.5597  0.2378
 1231poe    c23 6127   0.598   4.051   0.384  0.3517 -0.4673  0.4802
 1231poe     o2 6128   0.540   3.928   0.420 -0.2527 -0.3741 -0.1628
 1231poe    c23 6129   0.475   3.941   0.544 -0.6332 -0.0146 -0.3948
 1231poe    c23 6130   0.444   3.803   0.604  0.2017  0.0174  0.1394
 1231poe     o2 6131   0.563   3.730   0.625  0.2612  0.1683  0.3279
 1231poe    c31 6132   0.551   3.638   0.732  0.8071 -0.3302 -0.0337
 1232poe    c31 6133   5.483   1.754   4.953  0.0173  0.3984 -0.1579
 1232poe     o2 6134   5.410   1.642   4.908  0.4571  0.0807 -0.1010
 1232poe    c23 6135   5.467   1.556   4.812 -0.1059  0.4756 -0.8115
 1232poe    c23 6136   5.361   1.452   4.772 -0.4721  0.3135  0.5096
 1232poe     o2 6137   5.237   1.489   4.715 -0.0951  0.1841 -0.4169
 1232poe    c23 6138   5.228   1.576   4.604 -0.0942  0.4465 -0.2125
 1232poe    c23 6139   5.090   1.568   4.537 -0.1664 -0.3709  0.0147
 1232poe     o2 6140   4.995   1.573   4.641  0.2255  0.1845  0.3545
 1232poe    c23 6141   4.856   1.575   4.615  0.2296 -0.0450  0.3120
 1232poe    c23 6142   4.774   1.539   4.741  0.2049 -0.9902  0.0372
 1232poe     o2 6143   4.852   1.573   4.854  0.2248 -0.2287 -0.1995
 1232poe    c31 6144   4.777   1.576   4.973  0.4863  0.0714 -0.0411
 1233poe    c31 6145   2.975   6.530   6.392 -0.0717 -0.0706  0.3068
 1233poe     o2 6146   2.877   6.462   6.467 -0.2482 -0.1489  0.0097
 1233poe    c23 6147   2.845   6.529   6.587  0.6234 -0.3175  0.3437
 1233poe    c23 6148   2.748   6.434   6.659 -0.2123  0.1162 -0.2067
 1233poe     o2 6149   2.779   6.298   6.639 -0.7062 -0.0760  0.3318
 1233poe    c23 6150   2.700   6.212   6.719 -0.2029 -0.6930  0.1623
 1233poe    c23 6151   2.750   6.072   6.677  0.1112 -0.4441 -0.3065
 1233poe     o2 6152   2.743   6.054   6.537  0.1235  0.0498 -0.3718
 1233poe    c23 6153   2.761   5.917   6.511  0.7521  0.0785 -0.1051
 1233poe    c23 6154   2.770   5.903   6.358 -0.1373 -0.1850 -0.1385
 1233poe     o2 6155   2.873   5.983   6.305 -0.3078 -0.0687 -0.2941
 1233poe    c31 6156   2.881   5.969   6.165  0.5741  0.0149 -0.2559
 1234poe    c31 6157   1.806   3.650   2.196 -0.0748  0.1647  0.2257
 1234poe     o2 6158   1.676   3.684   2.239 -0.4675 -0.2048 -0.6521
 1234poe    c23 6159   1.679   3.798   2.321  0.0194 -0.5283 -0.2123
 1234poe    c23 6160   1.539   3.852   2.353  0.2132 -0.1137 -0.0482
 1234poe     o2 6161   1.446   3.752   2.317  0.0921 -0.0050 -0.0393
 1234poe    c23 6162   1.318   3.807   2.292  0.1682  0.4284  0.5088
 1234poe    c23 6163   1.209   3.704   2.257  0.5229  0.3961 -0.5471
 1234poe     o2 6164   1.243   3.650   2.132  0.2985 -0.3106 -0.3126
 1234poe    c23 6165   1.130   3.593   2.071 -0.3922  0.2615  0.4077
 1234poe    c23 6166   1.152   3.577   1.919  0.2498  0.0451  0.5204
 1234poe     o2 6167   1.285   3.544   1.885  0.2226  0.4009  0.0639
 1234poe    c31 6168   1.302   3.523   1.747 -0.6753  0.7225 -0.1036
 1235poe    c31 6169   1.593   5.117   1.873  0.4963 -0.0556  0.2878
 1235poe     o2 6170   1.499   5.039   1.945  0.2658  0.0920  0.1496
 1235poe    c23 6171   1.515   5.051   2.084 -0.1475  0.1036  0.1971
 1235poe    c23 6172   1.385   4.982   2.129 -0.2813 -0.2861 -0.7611
 1235poe     o2 6173   1.384   4.846   2.091  0.2277 -0.3194 -0.6728
 1235poe    c23 6174   1.469   4.763   2.166  0.0704  0.3696  0.2902
 1235poe    c23 6175   1.499   4.624   2.106  0.4055  0.5507  0.0338
 1235poe     o2 6176   1.552   4.638   1.977  0.2614 -0.0841 -0.1011
 1235poe    c23 6177   1.628   4.525   1.941  0.4898  0.0475 -0.0344
 1235poe    c23 6178   1.670   4.531   1.792 -0.2653  0.2926 -0.2422
 1235poe     o2 6179   1.565   4.554   1.702 -0.4618  0.0016 -0.0865
 1235poe    c31 6180   1.603   4.542   1.567 -0.3310  0.0200 -0.0509
 1236poe    c31 6181   6.684   4.893   5.452 -0.0573 -0.3542 -0.2131
 1236poe     o2 6182   6.551   4.873   5.495 -0.0078 -0.2708 -0.0234
 1236poe    c23 6183   6.474   4.991   5.491  0.3692 -0.0325 -0.3327
 1236poe    c23 6184   6.325   4.962   5.520  0.4500 -0.6621 -0.5476
 1236poe     o2 6185   6.290   4.904   5.644 -0.2958  0.7886 -0.0662
 1236poe    c23 6186   6.159   4.854   5.655  0.2755 -0.7368  0.0723
 1236poe    c23 6187   6.139   4.792   5.794 -0.4076 -0.1967  0.2238
 1236poe     o2 6188   6.230   4.685   5.809 -0.3004 -0.1416 -0.0278
 1236poe    c23 6189   6.201   4.605   5.921 -0.1575 -0.0680  0.0629
 1236poe    c23 6190   6.330   4.530   5.960 -0.0602  0.2622  0.3834
 1236poe     o2 6191   6.387   4.465   5.848 -0.3692 -0.4704  0.6454
 1236poe    c31 6192   6.497   4.386   5.887  0.1312 -0.0501  0.1007
 1237poe    c31 6193   5.471   2.311   3.924 -0.3678 -0.0763  0.9909
 1237poe     o2 6194   5.578   2.219   3.917 -0.3650 -0.0324  0.3588
 1237poe    c23 6195   5.662   2.223   4.030  0.4716  0.1440 -0.2594
 1237poe    c23 6196   5.803   2.166   4.010  0.4079 -0.2109  0.2639
 1237poe     o2 6197   5.810   2.026   4.000  0.0008 -0.2352  0.3075
 1237poe    c23 6198   5.949   1.998   4.000 -0.1074 -0.7885  0.7158
 1237poe    c23 6199   5.972   1.860   3.936  0.2584 -0.2400 -0.3518
 1237poe     o2 6200   5.875   1.780   3.998  0.5338 -0.1941  0.1452
 1237poe    c23 6201   5.887   1.642   3.971 -0.1566 -0.2819  0.2507
 1237poe    c23 6202   5.770   1.580   4.049 -0.2475 -0.0793  0.2748
 1237poe     o2 6203   5.651   1.627   3.989 -0.1482 -0.1007  0.0621
 1237poe    c31 6204   5.536   1.563   4.040  0.4129 -0.4318  0.9266
 1238poe    c31 6205   0.058   5.334   4.158 -0.2964  0.1291  1.0450
 1238poe     o2 6206   0.037   5.229   4.066 -0.7591  0.5029  0.7156
 1238poe    c23 6207  -0.020   5.111   4.117 -0.2095 -0.3844 -0.6627
 1238poe    c23 6208   0.004   4.995   4.019  0.0667 -0.8031 -0.1016
 1238poe     o2 6209  -0.054   5.009   3.891 -0.1329  0.2959  0.1009
 1238poe    c23 6210   0.017   4.926   3.802 -0.4829  0.3514 -0.2306
 1238poe    c23 6211  -0.034   4.933   3.657  0.0433  0.0193 -0.4322
 1238poe     o2 6212  -0.007   5.061   3.603  0.5956  0.0139 -0.1773
 1238poe    c23 6213  -0.000   5.054   3.462  0.4309  0.0758 -0.1881
 1238poe    c23 6214  -0.002   5.199   3.410 -0.3107 -0.0362 -0.4824
 1238poe     o2 6215   0.047   5.284   3.511 -0.2237 -0.2675 -0.3293
 1238poe    c31 6216   0.055   5.417   3.464 -0.3498 -0.0929  0.1383
 1239poe    c31 6217   2.387   6.470   2.138 -0.2920  0.2180 -0.4197
 1239poe     o2 6218   2.522   6.499   2.113 -0.1309  0.3048  0.5033
 1239poe    c23 6219   2.558   6.624   2.170  0.6861 -0.0093  0.6932
 1239poe    c23 6220   2.707   6.656   2.147  0.6305 -0.0492  0.2628
 1239poe     o2 6221   2.786   6.579   2.235  0.2000  0.2172  0.8876
 1239poe    c23 6222   2.920   6.592   2.193 -0.2230 -0.1951 -0.6462
 1239poe    c23 6223   3.021   6.550   2.302 -0.4709 -0.0681 -0.3656
 1239poe     o2 6224   3.003   6.411   2.320 -1.1211  0.0782  0.1400
 1239poe    c23 6225   3.082   6.357   2.423 -0.2571  0.4583 -0.3163
 1239poe    c23 6226   3.069   6.203   2.415  0.1220  0.4088 -0.0042
 1239poe     o2 6227   2.933   6.198   2.377  0.1347 -0.2838  0.0309
 1239poe    c31 6228   2.889   6.065   2.361 -0.1491 -0.1950  0.0644
 1240poe    c31 6229   3.686   4.200   3.368  0.2066 -0.0331  0.5124
 1240poe     o2 6230   3.620   4.146   3.256  0.0806 -0.1848  0.6605
 1240poe    c23 6231   3.538   4.034   3.282 -0.3570  0.0525  0.3040
 1240poe    c23 6232   3.448   4.016   3.158  0.1478 -0.2748 -0.0181
 1240poe     o2 6233   3.527   4.041   3.043 -0.1620  0.0283 -0.1650
 1240poe    c23 6234   3.456   4.043   2.921 -0.2807  0.2959 -0.0925
 1240poe    c23 6235   3.551   4.053   2.801  0.0935  0.3277  0.2051
 1240poe     o2 6236   3.639   4.162   2.818 -0.3358  0.7825 -0.4681
 1240poe    c23 6237   3.741   4.165   2.721  0.7545  0.2811  0.6349
 1240poe    c23 6238   3.772   4.312   2.686 -0.3999  0.2839 -0.4416
 1240poe     o2 6239   3.790   4.389   2.802 -0.1214 -0.4664  0.0168
 1240poe    c31 6240   3.849   4.515   2.784 -0.3945 -0.3270  0.0981
 1241poe    c31 6241   2.822   3.538   2.557 -0.3972 -0.2517 -0.2781
 1241poe     o2 6242   2.813   3.675   2.523  0.2150 -0.0162  0.4998
 1241poe    c23 6243   2.779   3.699   2.388  0.2594  0.0884  0.5068
 1241poe    c23 6244   2.820   3.845   2.365  0.0907 -0.0020 -0.3935
 1241poe     o2 6245   2.744   3.947   2.426 -0.1615 -0.1230 -0.5051
 1241poe    c23 6246   2.805   4.074   2.424  0.2127 -0.2882  0.0702
 1241poe    c23 6247   2.721   4.178   2.500 -0.1545 -0.5254 -0.0064
 1241poe     o2 6248   2.589   4.182   2.450 -0.1513  0.3467  0.0371
 1241poe    c23 6249   2.510   4.290   2.494 -0.4555  0.1181  0.0493
 1241poe    c23 6250   2.372   4.287   2.424 -0.2856  0.0502 -0.2853
 1241poe     o2 6251   2.336   4.152   2.407  0.2921 -0.1025 -0.3308
 1241poe    c31 6252   2.199   4.132   2.435  0.2041  0.6599 -0.1833
 1242poe    c31 6253   3.265   1.376   6.896 -0.3395  0.0989 -0.0447
 1242poe     o2 6254   3.346   1.276   6.953 -0.1777  0.1123 -0.2488
 1242poe    c23 6255   3.443   1.242   6.857 -0.1240  0.1630 -0.2124
 1242poe    c23 6256   3.514   1.113   6.904  0.0106  0.3506  0.1021
 1242poe     o2 6257   3.416   1.017   6.933  0.0243  0.2167 -0.2982
 1242poe    c23 6258   3.464   0.913   7.015 -0.5034  0.0237 -0.2309
 1242poe    c23 6259   3.472   0.966   7.159 -0.1308  0.4314 -0.4009
 1242poe     o2 6260   3.347   1.032   7.169 -0.4728 -0.2881  0.2131
 1242poe    c23 6261   3.322   1.087   7.296  0.3988 -0.1966  0.3506
 1242poe    c23 6262   3.183   1.150   7.278  0.1869 -0.8434 -0.2958
 1242poe     o2 6263   3.162   1.207   7.151 -0.0167  0.4187  0.2979
 1242poe    c31 6264   3.025   1.240   7.138 -0.0286  0.1729 -0.2265
 1243poe    c31 6265   4.653   5.896   5.576  0.3379  0.2329 -0.9622
 1243poe     o2 6266   4.778   5.846   5.619  0.0874  0.0837 -0.3882
 1243poe    c23 6267   4.825   5.884   5.746 -0.0435 -0.6136 -0.1287
 1243poe    c23 6268   4.873   6.030   5.742 -0.1805 -0.5672 -0.0724
 1243poe     o2 6269   4.993   6.027   5.668  0.4986  0.0613  0.9653
 1243poe    c23 6270   5.038   6.156   5.634 -0.0939  0.0762  0.2116
 1243poe    c23 6271   5.117   6.150   5.502 -0.2486  0.3446  0.1043
 1243poe     o2 6272   5.221   6.055   5.515 -0.1724  0.3760 -0.2669
 1243poe    c23 6273   5.295   6.031   5.397  0.7235  0.6493  0.2258
 1243poe    c23 6274   5.375   5.901   5.413 -0.1737  0.0487 -0.0542
 1243poe     o2 6275   5.297   5.814   5.491  0.0936 -0.1438  0.0004
 1243poe    c31 6276   5.337   5.680   5.476  0.2769 -0.0355 -0.4912
 1244poe    c31 6277   3.982   1.588   5.803  0.1477 -0.1874 -0.4848
 1244poe     o2 6278   3.901   1.521   5.897  0.1474 -0.2774 -0.5494
 1244poe    c23 6279   3.799   1.441   5.841 -0.5961  0.0339  0.3358
 1244poe    c23 6280   3.740   1.344   5.945 -0.3424 -0.4322  0.0470
 1244poe     o2 6281   3.822   1.230   5.960 -0.2681 -0.3969 -0.0890
 1244poe    c23 6282   3.792   1.163   6.080 -0.3142  0.3298  0.3128
 1244poe    c23 6283   3.893   1.049   6.105 -0.2247  0.3349 -0.0260
 1244poe     o2 6284   4.028   1.087   6.092 -0.1342  0.0077 -0.0471
 1244poe    c23 6285   4.126   0.986   6.086  0.1696  0.2756  0.3047
 1244poe    c23 6286   4.258   1.064   6.102  0.5055 -0.2529  0.1510
 1244poe     o2 6287   4.254   1.165   6.004  0.1526 -0.3333  0.0818
 1244poe    c31 6288   4.370   1.205   5.936  0.0793 -0.0320  0.1323
 1245poe    c31 6289   1.893   5.123   6.298 -0.5647  0.3929 -0.0245
 1245poe     o2 6290   1.888   4.983   6.282  0.1532  0.3759 -0.1396
 1245poe    c23 6291   1.950   4.930   6.168 -0.3781 -0.4127 -0.0737
 1245poe    c23 6292   1.890   4.976   6.034 -0.2971 -0.2735 -0.0623
 1245poe     o2 6293   1.765   4.916   6.010 -0.2119 -0.4417 -0.0893
 1245poe    c23 6294   1.648   4.991   6.033 -0.0691 -0.2991  0.1770
 1245poe    c23 6295   1.534   4.935   5.946 -0.0827  0.0832 -0.0548
 1245poe     o2 6296   1.478   4.813   5.989 -0.2185  0.3784  0.6232
 1245poe    c23 6297   1.378   4.782   5.894  0.8056  0.1415 -0.4084
 1245poe    c23 6298   1.336   4.634   5.888  0.1519  0.3213 -0.4006
 1245poe     o2 6299   1.439   4.547   5.846  0.1279  0.1997 -0.2100
 1245poe    c31 6300   1.391   4.415   5.833  0.5144  0.0196  0.1846
 1246poe    c31 6301   1.888   5.982   1.968 -0.3615  0.5017  0.2819
 1246poe     o2 6302   1.852   5.918   2.088 -0.1708 -0.4191 -0.1384
 1246poe    c23 6303   1.960   5.916   2.179 -0.0118  0.3602 -0.2964
 1246poe    c23 6304   1.904   5.863   2.313 -0.0931  0.6246 -0.2253
 1246poe     o2 6305   1.822   5.752   2.286  0.1616  0.3654  0.0637
 1246poe    c23 6306   1.817   5.670   2.401  0.4854  0.4533  0.1415
 1246poe    c23 6307   1.793   5.528   2.349 -0.2014  0.8283 -0.5808
 1246poe     o2 6308   1.668   5.527   2.283 -0.6036  0.1810  0.1708
 1246poe    c23 6309   1.608   5.401   2.259  0.0877 -0.0966 -0.1373
 1246poe    c23 6310   1.500   5.421   2.152 -0.2402 -0.2910  0.1564
 1246poe     o2 6311   1.556   5.446   2.025 -0.3136  0.3020  0.2339
 1246poe    c31 6312   1.460   5.460   1.922  0.4388 -0.5849 -0.6166
 1247poe    c31 6313   6.236   0.576   5.562 -0.4510 -0.2942  0.2474
 1247poe     o2 6314   6.108   0.627   5.594 -0.2667  0.5183 -0.2886
 1247poe    c23 6315   6.103   0.682   5.724  0.1034 -0.2629  0.0587
 1247poe    c23 6316   6.083   0.578   5.836  0.6425  0.0885  0.4885
 1247poe     o2 6317   5.948   0.539   5.821  0.5455  0.3514  0.6659
 1247poe    c23 6318   5.917   0.421   5.892  0.1346 -0.3514 -0.6553
 1247poe    c23 6319   5.766   0.394   5.879  0.1800 -0.8481 -0.1640
 1247poe     o2 6320   5.734   0.380   5.743  0.2401 -0.5108 -0.2142
 1247poe    c23 6321   5.596   0.356   5.732  0.1758 -0.2814  0.1112
 1247poe    c23 6322   5.553   0.339   5.585  0.3042  0.4629 -0.0143
 1247poe     o2 6323   5.650   0.276   5.505  0.2014 -0.2730  0.4336
 1247poe    c31 6324   5.585   0.253   5.382  0.4047  0.4265  0.1880
 1248poe    c31 6325   0.849   1.842   0.208  0.5740 -0.0620 -0.4344
 1248poe     o2 6326   0.880   1.962   0.275  0.6167  0.0056 -0.5750
 1248poe    c23 6327   0.934   1.928   0.401 -0.5238 -0.1105 -0.0993
 1248poe    c23 6328   0.938   2.046   0.499  0.0094  0.3286 -0.6413
 1248poe     o2 6329   1.009   2.153   0.441  0.2505  0.6031  0.1458
 1248poe    c23 6330   0.992   2.272   0.516 -0.0016  0.3370  0.5143
 1248poe    c23 6331   1.107   2.371   0.488  0.6611 -0.6127 -0.2601
 1248poe     o2 6332   1.128   2.386   0.350 -0.1106  0.0920 -0.3126
 1248poe    c23 6333   1.258   2.433   0.323 -0.1055  0.2310 -0.0455
 1248poe    c23 6334   1.262   2.449   0.170 -0.4629  0.0908 -0.0701
 1248poe     o2 6335   1.211   2.324   0.128 -0.2154 -0.0466  0.0342
 1248poe    c31 6336   1.235   2.310  -0.010  0.3177 -0.0614  0.1252
 1249poe    c31 6337   4.844   1.949   0.809  0.3639 -0.0058 -0.2655
 1249poe     o2 6338   4.947   1.885   0.736  0.3693 -0.2855 -0.0119
 1249poe    c23 6339   5.074   1.945   0.751  0.3000 -0.1433  0.0120
 1249poe    c23 6340   5.192   1.877   0.680  0.0544 -0.2887 -0.2598
 1249poe     o2 6341   5.222   1.764   0.759  0.0042  0.2814  0.5888
 1249poe    c23 6342   5.308   1.673   0.693 -0.3412  0.0938  0.3913
 1249poe    c23 6343   5.301   1.535   0.760  0.3520 -0.1376 -0.0018
 1249poe     o2 6344   5.169   1.485   0.756  0.2303  0.2078 -0.4048
 1249poe    c23 6345   5.173   1.353   0.808  0.5038  0.1673 -0.5258
 1249poe    c23 6346   5.031   1.296   0.789  0.6598 -0.2803 -0.3493
 1249poe     o2 6347   4.987   1.343   0.664  0.1077  0.1992  0.0179
 1249poe    c31 6348   4.887   1.249   0.632  0.5943 -0.3588  0.1200
 1250poe    c31 6349   0.343   4.349   1.241  0.0781 -0.1544 -0.5115
 1250poe     o2 6350   0.383   4.453   1.327 -0.8822 -0.4745  0.3495
 1250poe    c23 6351   0.270   4.534   1.347 -0.4396  0.2807 -0.1194
 1250poe    c23 6352   0.329   4.633   1.449  0.1882  0.0259 -0.2347
 1250poe     o2 6353   0.401   4.566   1.550  0.5017  0.5420 -0.1100
 1250poe    c23 6354   0.470   4.659   1.629 -0.4777  0.7389  0.5239
 1250poe    c23 6355   0.570   4.583   1.718 -0.5246 -0.5054 -0.4782
 1250poe     o2 6356   0.660   4.503   1.644  0.7433  0.4579 -0.0083
 1250poe    c23 6357   0.756   4.445   1.729  0.2397 -0.0593  0.2208
 1250poe    c23 6358   0.847   4.333   1.676 -0.3578 -0.3743 -0.1402
 1250poe     o2 6359   0.777   4.217   1.637 -0.4497 -0.5855  0.6436
 1250poe    c31 6360   0.854   4.116   1.576 -0.1321  0.6579 -1.0900
 1251poe    c31 6361   3.675   0.186   5.988  0.1839 -0.1265  0.5658
 1251poe     o2 6362   3.808   0.210   5.947 -0.1727  0.4779 -0.2702
 1251poe    c23 6363   3.881   0.314   6.010 -0.3394  0.3999  0.0533
 1251poe    c23 6364   4.014   0.317   5.933  0.0284 -0.1896  0.6490
 1251poe     o2 6365   3.993   0.342   5.795  0.7019  0.4754  0.6627
 1251poe    c23 6366   4.111   0.326   5.720  0.1737  0.2094 -0.1146
 1251poe    c23 6367   4.103   0.365   5.571  0.5020 -0.5073 -0.3264
 1251poe     o2 6368   4.027   0.269   5.501  0.4241 -0.3070 -0.5208
 1251poe    c23 6369   3.990   0.303   5.370  0.4415  0.1280 -0.4153
 1251poe    c23 6370   3.932   0.175   5.305 -0.2537  0.1645  0.1232
 1251poe     o2 6371   3.868   0.110   5.412 -0.1878  0.4528  0.3409
 1251poe    c31 6372   3.750   0.049   5.363  0.2033 -0.4040  0.4401
 1252poe    c31 6373   5.585   2.304   5.091  0.2778 -0.4411  0.2838
 1252poe     o2 6374   5.714   2.361   5.097 -0.2916  0.8777  0.2837
 1252poe    c23 6375   5.774   2.354   4.970 -0.0008 -0.7307  0.4977
 1252poe    c23 6376   5.908   2.428   4.959 -0.2363 -0.3673  0.0388
 1252poe     o2 6377   5.889   2.558   5.010 -0.1017 -0.4669  0.3486
 1252poe    c23 6378   6.014   2.622   5.003 -0.2236 -0.2558  0.0378
 1252poe    c23 6379   5.997   2.753   5.082 -0.2419 -0.4943  0.4290
 1252poe     o2 6380   5.951   2.713   5.210  0.0524  0.0215  0.6986
 1252poe    c23 6381   5.957   2.825   5.295  0.5300  0.0089  0.6865
 1252poe    c23 6382   5.886   2.820   5.431 -0.7106 -0.2841  0.0460
 1252poe     o2 6383   5.748   2.794   5.418 -0.6365 -0.6039 -0.1198
 1252poe    c31 6384   5.668   2.858   5.515 -0.0543  0.2723 -0.2016
 1253poe    c31 6385   3.468   4.708   1.085 -0.1162  0.2324 -0.2171
 1253poe     o2 6386   3.595   4.718   1.024 -0.3738 -0.2337 -0.8502
 1253poe    c23 6387   3.614   4.836   0.950  0.0098 -0.3402 -0.9272
 1253poe    c23 6388   3.750   4.815   0.882  0.2581  0.2184 -0.6087
 1253poe     o2 6389   3.761   4.681   0.839 -0.2233 -0.0270  0.0238
 1253poe    c23 6390   3.879   4.661   0.765 -0.7346 -0.2252 -0.7477
 1253poe    c23 6391   3.905   4.515   0.723 -0.3225 -0.4143  0.1419
 1253poe     o2 6392   3.882   4.441   0.841 -0.1823 -0.3962  0.1805
 1253poe    c23 6393   3.861   4.309   0.795 -0.2009 -0.5163  0.5369
 1253poe    c23 6394   3.863   4.212   0.915  0.1636 -0.7938  0.3067
 1253poe     o2 6395   3.740   4.204   0.982 -0.0382 -0.1184  0.0200
 1253poe    c31 6396   3.652   4.106   0.932  0.3599 -0.3640 -0.1927
 1254poe    c31 6397   5.212   2.941   1.738  0.4930  0.2251  0.6181
 1254poe     o2 6398   5.109   2.851   1.774  0.5816 -0.1447 -0.0319
 1254poe    c23 6399   5.030   2.827   1.659  0.2625 -0.2750  0.2135
 1254poe    c23 6400   4.969   2.688   1.685 -0.3617 -0.1865 -0.7468
 1254poe     o2 6401   4.909   2.705   1.811 -0.0508  0.1752 -0.6434
 1254poe    c23 6402   4.819   2.603   1.850  0.1817  0.2712  0.1735
 1254poe    c23 6403   4.773   2.649   1.989  0.6009 -0.2263  0.4831
 1254poe     o2 6404   4.889   2.661   2.069  0.5879  0.0465  0.4608
 1254poe    c23 6405   4.864   2.666   2.208  0.7661  0.1651  0.4889
 1254poe    c23 6406   4.803   2.795   2.267 -0.0515  0.2812 -0.5715
 1254poe     o2 6407   4.894   2.903   2.272  0.1333  0.1331 -0.7255
 1254poe    c31 6408   4.852   3.019   2.340 -0.2107 -0.1119 -0.5155
 1255poe    c31 6409   0.143   1.881   4.610  0.1523 -0.1267  0.1536
 1255poe     o2 6410   0.214   1.868   4.489 -0.0881 -0.8290  0.0797
 1255poe    c23 6411   0.146   1.925   4.379  0.6268 -0.0422  0.0347
 1255poe    c23 6412   0.210   1.898   4.241  0.3467 -0.0576 -0.0919
 1255poe     o2 6413   0.338   1.956   4.229 -0.0344  0.8221 -0.0450
 1255poe    c23 6414   0.426   1.865   4.166 -0.4875  0.7347 -0.5550
 1255poe    c23 6415   0.566   1.929   4.156 -0.1221  0.0849  0.3160
 1255poe     o2 6416   0.618   1.926   4.287 -0.2436  0.2212  0.3683
 1255poe    c23 6417   0.753   1.887   4.274 -0.3813 -0.0741 -0.2201
 1255poe    c23 6418   0.806   1.846   4.413 -0.2141  0.2867 -0.1765
 1255poe     o2 6419   0.754   1.946   4.497 -0.1153 -0.0382  0.2779
 1255poe    c31 6420   0.776   1.905   4.629  0.6024  0.0833  0.2032
 1256poe    c31 6421   0.683   4.544   4.486  0.1655 -0.1428 -0.2697
 1256poe     o2 6422   0.744   4.599   4.372 -0.0750 -0.1488 -0.4032
 1256poe    c23 6423   0.703   4.733   4.354  0.4333  0.0946  0.2006
 1256poe    c23 6424   0.812   4.795   4.265 -0.4926  0.9346 -0.3668
 1256poe     o2 6425   0.837   4.715   4.152 -0.5005 -0.1922  0.4139
 1256poe    c23 6426   0.944   4.773   4.079 -0.1665 -0.6448  0.5372
 1256poe    c23 6427   0.999   4.701   3.955 -0.5843 -0.1072  0.0364
 1256poe     o2 6428   1.082   4.597   4.001  0.3646  0.5692 -0.1400
 1256poe    c23 6429   1.221   4.620   4.015  0.4795  0.1045 -0.4853
 1256poe    c23 6430   1.286   4.535   4.126 -0.1023 -0.0499 -0.2555
 1256poe     o2 6431   1.214   4.547   4.246 -0.3938 -0.3403 -0.3993
 1256poe    c31 6432   1.290   4.560   4.364 -0.8304 -0.7635 -0.0676
 1257poe    c31 6433   1.843   5.696   4.871 -0.0377  0.1194  0.1707
 1257poe     o2 6434   1.882   5.655   5.001 -0.1401 -0.1865  0.1062
 1257poe    c23 6435   2.021   5.656   5.022 -0.1357 -0.0899  0.0739
 1257poe    c23 6436   2.048   5.576   5.151  0.2753 -0.0470  0.0170
 1257poe     o2 6437   1.963   5.638   5.245 -0.1810 -0.0999 -0.3578
 1257poe    c23 6438   1.985   5.595   5.378 -0.1961  0.4664 -0.1703
 1257poe    c23 6439   1.870   5.645   5.466 -0.1259  0.0141  0.1828
 1257poe     o2 6440   1.755   5.617   5.390 -0.0459 -0.8834  0.3915
 1257poe    c23 6441   1.643   5.629   5.475 -0.0185 -0.6703  0.3960
 1257poe    c23 6442   1.515   5.623   5.389  0.3237 -0.0331 -0.1762
 1257poe     o2 6443   1.491   5.742   5.318 -0.2400  0.1398  0.2953
 1257poe    c31 6444   1.360   5.728   5.268 -0.1110 -0.2208  0.0568
 1258poe    c31 6445   5.056   4.041   6.021  0.0568 -0.1896 -0.1637
 1258poe     o2 6446   5.127   3.943   5.949 -0.0985 -0.3395 -0.1141
 1258poe    c23 6447   5.052   3.835   5.899 -0.4670 -0.0987 -0.0793
 1258poe    c23 6448   5.152   3.722   5.871 -0.2539  0.1356 -0.2736
 1258poe     o2 6449   5.272   3.785   5.833 -0.0942 -0.0464 -0.0788
 1258poe    c23 6450   5.370   3.696   5.785 -0.0949  0.0616 -0.2818
 1258poe    c23 6451   5.484   3.770   5.714 -0.1547  0.6625  0.2444
 1258poe     o2 6452   5.570   3.837   5.804  0.1514  0.4426  0.1201
 1258poe    c23 6453   5.645   3.934   5.735  0.4862 -0.2119 -0.4478
 1258poe    c23 6454   5.728   4.028   5.824 -0.3552  0.3358 -0.2223
 1258poe     o2 6455   5.652   4.092   5.924 -0.1892 -0.3609  0.3614
 1258poe    c31 6456   5.730   4.187   5.992  0.0316 -0.4717  0.2637
 1259poe    c31 6457   5.016   2.742   6.067 -0.3606 -0.3400  0.3871
 1259poe     o2 6458   5.116   2.782   6.159  0.0388 -0.2366 -0.0876
 1259poe    c23 6459   5.074   2.752   6.290 -0.3737  0.2454 -0.1089
 1259poe    c23 6460   5.177   2.801   6.393 -0.0958 -0.4675 -0.0413
 1259poe     o2 6461   5.295   2.759   6.328  0.1162  0.2924 -0.1583
 1259poe    c23 6462   5.409   2.811   6.392  0.4129 -0.4577 -0.0651
 1259poe    c23 6463   5.538   2.779   6.315  0.2702 -0.0635 -0.4753
 1259poe     o2 6464   5.526   2.815   6.180  0.0834 -0.0910 -0.4647
 1259poe    c23 6465   5.648   2.850   6.119  0.2201 -0.0299 -0.1583
 1259poe    c23 6466   5.620   2.893   5.973 -0.2892  0.1955  0.0029
 1259poe     o2 6467   5.557   2.790   5.899  0.2110 -0.3772  0.3570
 1259poe    c31 6468   5.644   2.690   5.853  0.0155 -0.5630  0.3893
 1260poe    c31 6469   5.028   4.688   2.567 -0.5084  0.7035  0.4760
 1260poe     o2 6470   4.940   4.579   2.553  0.2135  0.2160 -0.4002
 1260poe    c23 6471   5.020   4.464   2.560  0.2775  0.2966  0.2884
 1260poe    c23 6472   4.946   4.346   2.626 -0.2907  0.5044  0.0243
 1260poe     o2 6473   4.829   4.310   2.556  0.4380 -0.4531 -0.7265
 1260poe    c23 6474   4.757   4.229   2.645  0.3023  0.5036  0.0489
 1260poe    c23 6475   4.624   4.198   2.573  0.3293  0.3697  0.0577
 1260poe     o2 6476   4.564   4.316   2.525 -0.5210  0.0700  0.3750
 1260poe    c23 6477   4.450   4.282   2.449  0.0354 -0.4795 -0.2329
 1260poe    c23 6478   4.361   4.407   2.431  0.1521 -0.4556 -0.6403
 1260poe     o2 6479   4.446   4.510   2.386 -0.2020 -0.0053 -0.2840
 1260poe    c31 6480   4.373   4.631   2.387 -0.1135  0.0473 -0.1906
 1261poe    c31 6481   6.255   3.533   4.194 -0.1700 -0.1216  0.1860
 1261poe     o2 6482   6.287   3.655   4.257  0.3316  0.1994 -0.6780
 1261poe    c23 6483   6.393   3.631   4.346 -0.0655  0.3351 -0.1672
 1261poe    c23 6484   6.416   3.743   4.450  0.0909  0.3589 -0.2273
 1261poe     o2 6485   6.292   3.773   4.511  0.1564  0.2029 -0.0205
 1261poe    c23 6486   6.299   3.895   4.581  0.2009  0.3819 -0.3385
 1261poe    c23 6487   6.161   3.954   4.617  0.3002  0.4140 -0.0123
 1261poe     o2 6488   6.088   3.977   4.499 -0.0320  0.2297  0.1526
 1261poe    c23 6489   5.966   4.037   4.535  0.1566  0.5032  0.3408
 1261poe    c23 6490   5.864   4.072   4.425  0.3014  0.2464  0.1247
 1261poe     o2 6491   5.839   3.966   4.335  0.0149  0.0524  0.4337
 1261poe    c31 6492   5.728   4.009   4.259  0.1095 -0.4917 -0.0071
 1262poe    c31 6493   4.562   5.730   3.499 -0.1978  0.3109 -0.3981
 1262poe     o2 6494   4.434   5.777   3.535 -0.3013  0.0775 -0.4602
 1262poe    c23 6495   4.417   5.908   3.484 -0.2274  0.1848 -0.2099
 1262poe    c23 6496   4.278   5.955   3.530  0.0348 -0.0906  0.9111
 1262poe     o2 6497   4.188   5.856   3.486  0.1067  0.3384 -0.2655
 1262poe    c23 6498   4.055   5.887   3.522 -0.0243  0.1700 -0.6049
 1262poe    c23 6499   3.954   5.788   3.461  0.3944 -0.3653 -0.4440
 1262poe     o2 6500   4.028   5.670   3.479  0.4308 -0.3327 -0.3824
 1262poe    c23 6501   3.939   5.565   3.447  0.2127 -0.2235 -0.1351
 1262poe    c23 6502   4.003   5.425   3.451 -0.3310 -0.4642  0.3931
 1262poe     o2 6503   4.067   5.406   3.575  0.4505  0.7357  0.1941
 1262poe    c31 6504   4.088   5.268   3.596 -0.1063  0.6209  0.0128
 1263poe    c31 6505   6.456   1.374   4.378  0.0746 -0.1703 -0.3545
 1263poe     o2 6506   6.454   1.505   4.327  0.1488 -0.0878 -0.1492
 1263poe    c23 6507   6.368   1.517   4.216 -0.1561  0.5222  0.1494
 1263poe    c23 6508   6.273   1.637   4.226 -0.5663  0.1752  0.4783
 1263poe     o2 6509   6.348   1.756   4.237 -0.2148  0.1047 -0.8958
 1263poe    c23 6510   6.261   1.858   4.282 -0.0945  0.0621 -0.5659
 1263poe    c23 6511   6.355   1.979   4.277  0.0033  0.0038 -0.1992
 1263poe     o2 6512   6.422   1.975   4.153 -0.0829 -0.0165 -0.2451
 1263poe    c23 6513   6.522   2.073   4.165  0.0635 -0.2268  0.2583
 1263poe    c23 6514   6.591   2.080   4.027 -0.8132 -0.2715 -0.1857
 1263poe     o2 6515   6.591   1.950   3.972  0.2003 -0.4419  0.2077
 1263poe    c31 6516   6.661   1.956   3.850 -0.5498  0.1370 -0.2055
 1264poe    c31 6517   1.848   2.048   0.050  0.1617 -0.0753  0.2502
 1264poe     o2 6518   1.837   1.976   0.171  0.3747  0.1223  0.3900
 1264poe    c23 6519   1.767   2.060   0.260  0.3434  0.4520  0.0589
 1264poe    c23 6520   1.777   1.989   0.396  0.4518 -0.0955 -0.2306
 1264poe     o2 6521   1.777   1.850   0.369  0.1929 -0.1809  0.1876
 1264poe    c23 6522   1.770   1.781   0.492 -0.3990  0.1460  0.3415
 1264poe    c23 6523   1.757   1.629   0.478  0.4017  0.0632  0.4226
 1264poe     o2 6524   1.841   1.590   0.372 -0.8928  0.0432 -0.6246
 1264poe    c23 6525   1.839   1.449   0.364 -0.3228 -0.0043 -0.0159
 1264poe    c23 6526   1.868   1.384   0.227 -0.2821 -0.4041  0.1800
 1264poe     o2 6527   1.763   1.426   0.143  0.1648  0.1166 -0.1285
 1264poe    c31 6528   1.775   1.372   0.014 -0.0502 -0.5711  0.1366
 1265poe    c31 6529   6.077   1.565   2.400  0.3332  0.3803  0.2681
 1265poe     o2 6530   6.048   1.676   2.483 -0.2180  0.4212  0.0252
 1265poe    c23 6531   6.145   1.774   2.453  0.3727 -0.0260  0.4385
 1265poe    c23 6532   6.174   1.852   2.582 -0.2077  0.5422  0.2313
 1265poe     o2 6533   6.040   1.876   2.618 -0.3930  0.7799 -0.5885
 1265poe    c23 6534   6.027   1.942   2.742  0.1939  0.3297 -0.2847
 1265poe    c23 6535   5.879   1.985   2.747 -0.0361 -0.4871  0.1853
 1265poe     o2 6536   5.811   1.865   2.716  0.1572 -0.6019  0.1989
 1265poe    c23 6537   5.679   1.889   2.759  0.1627  0.0240 -0.1213
 1265poe    c23 6538   5.569   1.789   2.722 -0.2515  0.3266  0.2701
 1265poe     o2 6539   5.557   1.803   2.582 -0.0443  0.1557  0.2349
 1265poe    c31 6540   5.445   1.727   2.542  0.2305  0.0162 -0.2815
 1266poe    c31 6541   0.233   3.458   6.229  0.2275  0.2512 -0.0294
 1266poe     o2 6542   0.153   3.516   6.330  0.4155  0.1863  0.1573
 1266poe    c23 6543   0.091   3.413   6.405 -0.5254  0.3083 -0.4409
 1266poe    c23 6544   0.027   3.474   6.531 -0.1505 -0.2777  0.0356
 1266poe     o2 6545   0.120   3.544   6.610 -0.3556 -0.3934  0.3819
 1266poe    c23 6546   0.092   3.549   6.748  0.0411  0.1262  0.4499
 1266poe    c23 6547   0.220   3.610   6.809  0.0534  0.4300  0.1212
 1266poe     o2 6548   0.238   3.742   6.762 -0.8387  0.6274  0.3161
 1266poe    c23 6549   0.341   3.805   6.835  0.0536 -0.1837 -0.2108
 1266poe    c23 6550   0.397   3.928   6.762 -0.0976  0.1413  0.2127
 1266poe     o2 6551   0.393   3.905   6.623  0.3301  0.1597  0.1946
 1266poe    c31 6552   0.452   4.016   6.559 -0.2472  0.6274  0.4686
 1267poe    c31 6553   5.241   1.455   3.747 -0.4383 -0.2710 -0.1981
 1267poe     o2 6554   5.271   1.317   3.737 -0.1290 -0.2220  0.0708
 1267poe    c23 6555   5.259   1.250   3.861  0.0206 -0.5935 -0.1163
 1267poe    c23 6556   5.114   1.210   3.895 -0.0010 -0.0605  0.4229
 1267poe     o2 6557   5.112   1.110   3.994  0.2314 -0.3165  0.1706
 1267poe    c23 6558   5.123   1.140   4.132 -0.0601  0.2721  0.0684
 1267poe    c23 6559   5.072   1.017   4.208  0.7276 -0.0254  0.1206
 1267poe     o2 6560   5.130   0.898   4.160  0.2357 -0.1414 -0.1867
 1267poe    c23 6561   5.079   0.784   4.227  0.2607 -0.2209 -0.3026
 1267poe    c23 6562   5.121   0.658   4.149 -0.0186 -0.4565 -0.0678
 1267poe     o2 6563   5.103   0.692   4.014  0.0664  0.1812  0.0802
 1267poe    c31 6564   5.143   0.586   3.929 -0.0340  0.1787  0.0364
 1268poe    c31 6565   0.899   2.561   5.257 -0.5284 -0.0675 -0.3928
 1268poe     o2 6566   0.913   2.701   5.247 -0.1235 -0.1105 -0.4333
 1268poe    c23 6567   1.017   2.732   5.156  0.1886  0.3868  0.0926
 1268poe    c23 6568   1.022   2.886   5.147  0.2926  0.3923  0.2406
 1268poe     o2 6569   1.002   2.931   5.280  1.0982  0.2579  0.4124
 1268poe    c23 6570   0.997   3.072   5.290 -0.0193  0.2479  0.0844
 1268poe    c23 6571   0.959   3.108   5.434 -0.2569  0.1307  0.0523
 1268poe     o2 6572   0.852   3.026   5.477  0.1424 -0.2561  0.3132
 1268poe    c23 6573   0.803   3.072   5.601 -0.3415  0.3681 -0.1019
 1268poe    c23 6574   0.665   3.007   5.623 -0.1210 -0.1684 -0.2956
 1268poe     o2 6575   0.672   2.866   5.613 -0.3978 -0.1795 -0.3225
 1268poe    c31 6576   0.563   2.797   5.672 -0.3485  0.2799  0.3119
 1269poe    c31 6577   0.710   6.157   6.292 -0.0986 -0.3953  0.0078
 1269poe     o2 6578   0.776   6.068   6.379  0.1086 -0.0672  0.1883
 1269poe    c23 6579   0.769   5.935   6.335 -0.5892 -0.0354  0.1986
 1269poe    c23 6580   0.815   5.831   6.439 -0.2204  0.2787  0.3479
 1269poe     o2 6581   0.719   5.820   6.541 -0.4378 -0.5816  0.0590
 1269poe    c23 6582   0.771   5.744   6.648 -0.1451  0.0403  0.3674
 1269poe    c23 6583   0.681   5.758   6.772 -0.5406 -0.3951  0.1350
 1269poe     o2 6584   0.696   5.891   6.816 -0.2690 -0.2877 -0.2675
 1269poe    c23 6585   0.647   5.902   6.948 -0.4677 -0.2156 -0.3474
 1269poe    c23 6586   0.684   6.038   7.012 -0.3072 -0.4333  0.0245
 1269poe     o2 6587   0.682   6.135   6.910 -0.1816 -0.1182  0.3203
 1269poe    c31 6588   0.681   6.266   6.962  0.1882 -0.2626  0.6925
 1270poe    c31 6589   6.451   3.799   3.311 -0.1813 -0.8130  0.2704
 1270poe     o2 6590   6.472   3.834   3.446  0.4345 -0.1181 -0.0006
 1270poe    c23 6591   6.534   3.960   3.457 -0.4840  0.3355 -0.0085
 1270poe    c23 6592   6.589   3.975   3.600  0.2548  0.3052 -0.2867
 1270poe     o2 6593   6.478   3.949   3.682  0.1381  0.0653 -0.5205
 1270poe    c23 6594   6.519   3.941   3.817  0.0745  0.3439 -0.4839
 1270poe    c23 6595   6.388   3.940   3.899  0.4575  0.1452  0.1280
 1270poe     o2 6596   6.313   3.844   3.828  0.0584  0.2314  0.4323
 1270poe    c23 6597   6.208   3.821   3.920 -0.2648  0.1647  0.0491
 1270poe    c23 6598   6.124   3.696   3.889 -0.0501  0.0560 -0.1005
 1270poe     o2 6599   6.051   3.706   3.769 -0.1815  0.0477 -0.0212
 1270poe    c31 6600   5.944   3.614   3.763 -0.1222 -0.0416  0.2800
 1271poe    c31 6601   2.824   4.102   2.892  0.2237 -0.9437 -0.5322
 1271poe     o2 6602   2.757   4.000   2.963 -0.2944 -0.3907 -0.2145
 1271poe    c23 6603   2.618   4.022   2.975 -0.1028  0.4766  0.4544
 1271poe    c23 6604   2.550   3.899   3.037  0.3563  0.1751  0.3655
 1271poe     o2 6605   2.610   3.786   2.977  0.0035 -0.1200  0.5629
 1271poe    c23 6606   2.564   3.660   3.019 -0.7842 -0.0947 -0.1914
 1271poe    c23 6607   2.611   3.556   2.916  0.3198  0.4087 -0.2087
 1271poe     o2 6608   2.751   3.553   2.924  0.2985 -0.1359 -0.0381
 1271poe    c23 6609   2.805   3.428   2.962 -0.1163 -0.2845  0.0665
 1271poe    c23 6610   2.952   3.412   2.920 -0.1898  0.0866 -0.3409
 1271poe     o2 6611   3.036   3.514   2.968  0.2975 -0.2614 -0.4390
 1271poe    c31 6612   3.168   3.494   2.924  0.5434  0.0865  0.1269
 1272poe    c31 6613   5.846   6.830   6.029 -0.2123 -0.5606 -0.0277
 1272poe     o2 6614   5.741   6.844   6.122  0.0568 -0.4212  0.2569
 1272poe    c23 6615   5.621   6.838   6.048  0.2347 -0.2068 -0.0524
 1272poe    c23 6616   5.513   6.784   6.145  0.3944  0.1174  0.3088
 1272poe     o2 6617   5.511   6.873   6.254  0.6533  0.4451  0.0520
 1272poe    c23 6618   5.440   6.804   6.355 -0.3551  0.8714 -0.3550
 1272poe    c23 6619   5.412   6.886   6.482 -0.5718  0.6695 -0.2717
 1272poe     o2 6620   5.531   6.930   6.543 -0.3391 -0.1548 -0.1223
 1272poe    c23 6621   5.508   7.018   6.651 -0.1026  0.0272 -0.2210
 1272poe    c23 6622   5.488   7.168   6.621  0.2305  0.2103  0.4497
 1272poe     o2 6623   5.613   7.220   6.582  0.2236  0.0084  0.1553
 1272poe    c31 6624   5.598   7.360   6.574 -0.2677 -0.0218  0.5327
 1273poe    c31 6625   4.370   4.046   5.533 -0.6745  0.0155  0.3553
 1273poe     o2 6626   4.345   4.120   5.415  0.7335 -0.2759 -0.1435
 1273poe    c23 6627   4.287   4.245   5.442 -0.1796 -0.6693 -0.2239
 1273poe    c23 6628   4.201   4.276   5.319  0.0171 -0.0359 -0.2087
 1273poe     o2 6629   4.270   4.271   5.196  0.1175 -0.4688 -0.1374
 1273poe    c23 6630   4.178   4.235   5.096 -0.0146  0.3195 -0.3101
 1273poe    c23 6631   4.251   4.188   4.969  0.1412  0.1434 -0.1558
 1273poe     o2 6632   4.329   4.301   4.933  0.3486  0.1248  0.2325
 1273poe    c23 6633   4.338   4.334   4.797  0.4911 -0.0107  0.2085
 1273poe    c23 6634   4.393   4.477   4.788  0.4145 -0.0115 -0.3553
 1273poe     o2 6635   4.485   4.493   4.894  0.2104 -0.2157 -0.1480
 1273poe    c31 6636   4.556   4.610   4.864 -0.2713  0.1169 -0.0010
 1274poe    c31 6637   6.797   5.001   2.850  0.3005 -0.7680 -0.3242
 1274poe     o2 6638   6.658   5.010   2.830  0.1717  0.7218  1.0376
 1274poe    c23 6639   6.653   5.113   2.734  0.4808 -0.4347 -0.2515
 1274poe    c23 6640   6.510   5.119   2.677  0.3192 -0.2579  0.1658
 1274poe     o2 6641   6.424   5.121   2.788 -0.0287  0.2208 -0.1101
 1274poe    c23 6642   6.288   5.091   2.764  0.0372  0.0347 -0.2512
 1274poe    c23 6643   6.223   5.057   2.899  0.2062  0.3021 -0.1011
 1274poe     o2 6644   6.323   4.973   2.953  0.0111  0.2187  0.1320
 1274poe    c23 6645   6.297   4.907   3.075 -0.2879  0.3535  0.1436
 1274poe    c23 6646   6.407   4.802   3.101 -0.0972  0.5660  0.2045
 1274poe     o2 6647   6.526   4.860   3.051 -0.0799 -0.2257 -0.6962
 1274poe    c31 6648   6.629   4.764   3.063  0.0340 -0.0509 -0.2781
 1275poe    c31 6649   5.878   5.247   1.322 -0.2880  0.3875 -0.0149
 1275poe     o2 6650   5.847   5.279   1.455  0.0170 -0.0889  0.1733
 1275poe    c23 6651   5.842   5.172   1.547 -0.1276 -0.0912  0.1635
 1275poe    c23 6652   5.791   5.229   1.681  0.2664  0.0491  0.2557
 1275poe     o2 6653   5.890   5.298   1.753  0.1193  0.1908  0.3208
 1275poe    c23 6654   5.879   5.259   1.888  0.2419 -0.1242  0.2398
 1275poe    c23 6655   5.963   5.334   1.993  0.0297  0.1291  0.2288
 1275poe     o2 6656   5.920   5.466   2.019  0.0104  0.1961 -0.1450
 1275poe    c23 6657   6.015   5.537   2.095  0.2093  0.0798 -0.2813
 1275poe    c23 6658   6.093   5.647   2.021  0.3601 -0.3650 -0.7841
 1275poe     o2 6659   6.227   5.614   1.989  0.5660 -0.0680 -0.2464
 1275poe    c31 6660   6.293   5.728   1.939  0.0316  0.3280 -0.0595
 1276poe    c31 6661   6.014   4.635   1.271 -0.2033  0.3132  0.5234
 1276poe     o2 6662   5.951   4.511   1.247  0.3590  0.1666 -0.2319
 1276poe    c23 6663   5.973   4.417   1.349 -0.4335  0.4814  0.2367
 1276poe    c23 6664   5.855   4.404   1.448 -0.4712  0.4636  0.1896
 1276poe     o2 6665   5.832   4.509   1.539 -0.6249  0.6386 -0.0501
 1276poe    c23 6666   5.946   4.549   1.612 -0.2578  0.2448 -0.4017
 1276poe    c23 6667   5.938   4.695   1.659 -0.0341  0.0467  0.2565
 1276poe     o2 6668   5.972   4.778   1.550  0.6812 -0.0216  0.4213
 1276poe    c23 6669   6.091   4.851   1.564  0.4160  0.4315  0.3510
 1276poe    c23 6670   6.225   4.776   1.557  0.0014 -0.3227  0.4393
 1276poe     o2 6671   6.250   4.693   1.669 -0.3105  0.0564  0.7905
 1276poe    c31 6672   6.372   4.624   1.655 -0.3544  0.2843 -0.9223
 1277poe    c31 6673   3.867   1.477   1.245 -0.2454  0.1282  0.1289
 1277poe     o2 6674   3.733   1.520   1.237 -0.3663 -0.2235  0.2732
 1277poe    c23 6675   3.728   1.608   1.348 -0.3788  0.2735 -0.1204
 1277poe    c23 6676   3.585   1.648   1.387 -0.1634  0.6032  0.3350
 1277poe     o2 6677   3.519   1.551   1.466  0.0007  0.3757  0.1940
 1277poe    c23 6678   3.568   1.562   1.598  0.0584  0.4169  0.1693
 1277poe    c23 6679   3.456   1.495   1.680  0.6433 -0.8313 -0.0376
 1277poe     o2 6680   3.438   1.369   1.619  0.1517 -0.7245 -0.1164
 1277poe    c23 6681   3.352   1.282   1.688 -0.2797 -0.3071 -0.1242
 1277poe    c23 6682   3.338   1.156   1.601  0.2042 -0.5403  0.1319
 1277poe     o2 6683   3.308   1.197   1.469 -0.5150 -0.0594  0.4363
 1277poe    c31 6684   3.318   1.091   1.376 -0.2184 -0.1382  0.5562
 1278poe    c31 6685   5.530   5.630   2.667  0.3462 -0.3423  0.6111
 1278poe     o2 6686   5.517   5.764   2.711  0.0039 -0.0386 -0.4107
 1278poe    c23 6687   5.570   5.791   2.838 -0.5067  0.1447 -0.2353
 1278poe    c23 6688   5.537   5.932   2.890 -0.5707 -0.1278  0.4801
 1278poe     o2 6689   5.595   6.022   2.797 -0.2688 -0.0166  0.7742
 1278poe    c23 6690   5.564   6.148   2.851  0.3322  0.2277  0.5518
 1278poe    c23 6691   5.627   6.264   2.772  0.3471 -0.2831 -0.1958
 1278poe     o2 6692   5.584   6.252   2.638  0.0435 -0.4439 -0.0853
 1278poe    c23 6693   5.632   6.354   2.553  0.0856  0.0354  0.5118
 1278poe    c23 6694   5.589   6.297   2.417 -0.1390 -0.0902  0.6349
 1278poe     o2 6695   5.609   6.159   2.402  0.0038 -0.0001 -0.0613
 1278poe    c31 6696   5.591   6.117   2.269 -0.5421 -0.0663  0.0299
 1279poe    c31 6697   5.747   6.817   1.789  0.2070 -0.1266 -0.3422
 1279poe     o2 6698   5.736   6.695   1.859 -0.1243 -0.0808 -0.3138
 1279poe    c23 6699   5.621   6.686   1.941  0.0767  0.6436  0.0608
 1279poe    c23 6700   5.638   6.547   2.006  0.6468  0.4487 -0.4932
 1279poe     o2 6701   5.773   6.538   2.048  0.5734  0.0736 -0.3395
 1279poe    c23 6702   5.793   6.420   2.123 -0.3415  0.4009  0.4329
 1279poe    c23 6703   5.935   6.414   2.182 -0.1823  0.0084  0.0151
 1279poe     o2 6704   6.027   6.422   2.076  0.1715 -0.1408  0.3100
 1279poe    c23 6705   6.160   6.419   2.124  0.3941 -0.6733 -0.3165
 1279poe    c23 6706   6.242   6.435   1.995  0.2768  0.1020 -0.3036
 1279poe     o2 6707   6.218   6.561   1.938 -0.0448  0.0166 -0.3598
 1279poe    c31 6708   6.310   6.580   1.832  0.1973 -0.7751 -0.3000
 1280poe    c31 6709   6.688   3.163   5.978  0.2662  0.4283  0.0419
 1280poe     o2 6710   6.673   3.301   5.954 -0.2983  0.4316  0.3793
 1280poe    c23 6711   6.790   3.370   5.993 -0.1424  0.2010  0.3208
 1280poe    c23 6712   6.769   3.519   5.962  0.4284  0.2006 -0.0848
 1280poe     o2 6713   6.737   3.549   5.828 -0.2578  0.1298  0.0551
 1280poe    c23 6714   6.685   3.679   5.814 -0.6031 -0.0507 -0.3481
 1280poe    c23 6715   6.697   3.738   5.672 -0.4807  0.2844 -0.1986
 1280poe     o2 6716   6.637   3.630   5.603  0.0563  0.1710 -0.4995
 1280poe    c23 6717   6.608   3.682   5.475  0.3079  0.0038 -0.6234
 1280poe    c23 6718   6.561   3.558   5.396 -0.6085 -0.1988  0.2201
 1280poe     o2 6719   6.658   3.459   5.420  0.1847  0.3373 -0.7094
 1280poe    c31 6720   6.619   3.332   5.373 -0.0559  0.0236  0.3096
 1281poe    c31 6721   6.342   2.630   5.674  0.0062  0.5290  0.5794
 1281poe     o2 6722   6.316   2.641   5.812 -0.2378 -0.1052  0.5903
 1281poe    c23 6723   6.178   2.634   5.841 -0.4109  0.3217 -0.0991
 1281poe    c23 6724   6.144   2.689   5.980  0.1589  0.1397  0.1180
 1281poe     o2 6725   6.186   2.596   6.078  1.3182  0.2499 -0.2643
 1281poe    c23 6726   6.162   2.649   6.206  0.5583 -0.0673 -0.2710
 1281poe    c23 6727   6.190   2.540   6.311  0.7493  0.8531  0.6528
 1281poe     o2 6728   6.310   2.473   6.279  0.0858 -0.2125  0.3425
 1281poe    c23 6729   6.366   2.404   6.388  0.0178 -0.2021  0.3834
 1281poe    c23 6730   6.485   2.312   6.356 -0.0895 -0.1995 -0.0234
 1281poe     o2 6731   6.564   2.387   6.266 -0.0770 -0.2227 -0.0309
 1281poe    c31 6732   6.697   2.354   6.299 -0.2866 -0.3203  0.7323
 1282poe    c31 6733   5.044   3.355   3.238 -0.3758 -0.3617 -0.1131
 1282poe     o2 6734   5.184   3.346   3.223 -0.3482  0.1259 -0.1838
 1282poe    c23 6735   5.244   3.375   3.347 -0.0626 -0.7922 -0.0952
 1282poe    c23 6736   5.395   3.379   3.320 -0.0763  0.6406 -0.0810
 1282poe     o2 6737   5.425   3.275   3.229  0.1049  0.1612  0.5201
 1282poe    c23 6738   5.539   3.315   3.156  0.0666 -0.0789  0.3278
 1282poe    c23 6739   5.555   3.224   3.033 -0.4429  0.0649  0.1552
 1282poe     o2 6740   5.428   3.188   2.982 -0.4390  0.1599  0.0782
 1282poe    c23 6741   5.456   3.094   2.881 -0.1113 -0.0449  0.3593
 1282poe    c23 6742   5.323   3.034   2.833  0.0184 -0.1700  0.1554
 1282poe     o2 6743   5.241   2.977   2.933  0.4228 -0.4072  0.3539
 1282poe    c31 6744   5.170   2.866   2.883 -0.3763  0.2226  0.0719
 1283poe    c31 6745   5.819   5.434   4.376  0.8133  0.2454  0.0727
 1283poe     o2 6746   5.860   5.464   4.245  0.0138 -0.3033 -0.3121
 1283poe    c23 6747   5.995   5.429   4.226  0.0255 -0.4392  0.0161
 1283poe    c23 6748   6.051   5.490   4.096 -0.2411  0.0232  0.1151
 1283poe     o2 6749   5.970   5.462   3.984 -0.0864 -0.3181  0.0870
 1283poe    c23 6750   6.039   5.493   3.865 -0.1950 -0.4044  0.0004
 1283poe    c23 6751   5.939   5.474   3.750 -0.4310  0.7386 -0.0025
 1283poe     o2 6752   5.834   5.388   3.789  0.1396 -0.1133 -0.3175
 1283poe    c23 6753   5.751   5.354   3.679 -0.1817 -0.2537 -0.0327
 1283poe    c23 6754   5.733   5.202   3.656  0.0267 -0.2722 -0.0776
 1283poe     o2 6755   5.676   5.125   3.758 -0.0961 -0.1145 -0.0266
 1283poe    c31 6756   5.561   5.054   3.717 -0.0955 -0.1035 -0.0479
 1284poe    c31 6757   6.850   4.531   1.046  0.0185  0.6211 -0.1640
 1284poe     o2 6758   6.763   4.609   1.126 -0.2651 -0.0535  0.1984
 1284poe    c23 6759   6.701   4.702   1.040 -0.3943 -0.3273 -0.0059
 1284poe    c23 6760   6.577   4.754   1.117 -0.3692 -0.3920  0.0775
 1284poe     o2 6761   6.608   4.770   1.254 -0.2494 -0.3903  0.0508
 1284poe    c23 6762   6.505   4.839   1.322 -0.0064  0.1874 -0.1577
 1284poe    c23 6763   6.579   4.920   1.430  0.4385 -0.3442 -0.0593
 1284poe     o2 6764   6.645   5.018   1.353 -0.0749  0.3574  0.3825
 1284poe    c23 6765   6.721   5.104   1.434 -0.0572  0.2112  0.5220
 1284poe    c23 6766   6.842   5.173   1.368 -0.2374 -0.3601 -0.4213
 1284poe     o2 6767   6.952   5.087   1.349  0.0270 -0.1820  0.2429
 1284poe    c31 6768   7.069   5.155   1.309 -0.1454 -0.0977 -0.1264
 1285poe    c31 6769   3.527   2.008   2.391  0.4657  0.0794 -0.1577
 1285poe     o2 6770   3.607   2.044   2.501  0.0481  0.4740  0.0174
 1285poe    c23 6771   3.712   1.954   2.526 -0.3657 -0.0893 -0.2593
 1285poe    c23 6772   3.784   2.006   2.652  0.1198 -0.2413 -0.4710
 1285poe     o2 6773   3.690   2.016   2.756  0.4938  0.8743 -0.2336
 1285poe    c23 6774   3.741   2.080   2.871 -0.2726  0.6755  0.2260
 1285poe    c23 6775   3.634   2.069   2.981 -0.3182 -0.2239  0.0956
 1285poe     o2 6776   3.511   2.089   2.915 -0.2627  0.0228  0.0677
 1285poe    c23 6777   3.405   2.115   3.005 -0.2171 -0.4352  0.2584
 1285poe    c23 6778   3.272   2.160   2.941  0.2160  0.3454 -0.1080
 1285poe     o2 6779   3.192   2.069   2.870  0.5093  0.3283 -0.4204
 1285poe    c31 6780   3.076   2.138   2.829  0.3401  0.0189 -0.4670
 1286poe    c31 6781   6.724   0.127   2.361 -0.0033  0.5269  0.3914
 1286poe     o2 6782   6.610   0.210   2.374 -0.0141  0.5893 -0.0773
 1286poe    c23 6783   6.509   0.144   2.301  0.0513 -0.0996  0.4383
 1286poe    c23 6784   6.406   0.245   2.247  0.8551  0.5079  0.0205
 1286poe     o2 6785   6.337   0.307   2.354  0.1969 -0.0472 -0.0755
 1286poe    c23 6786   6.238   0.403   2.326 -0.0665 -0.1450  0.5119
 1286poe    c23 6787   6.190   0.460   2.461 -0.6572  0.5050  0.0326
 1286poe     o2 6788   6.298   0.524   2.525 -0.0879 -0.2701 -0.1442
 1286poe    c23 6789   6.243   0.608   2.624 -0.3492 -0.1456 -0.3953
 1286poe    c23 6790   6.356   0.700   2.675 -0.1835 -0.3600 -0.3754
 1286poe     o2 6791   6.466   0.619   2.710  0.1900  0.2058 -0.2248
 1286poe    c31 6792   6.574   0.690   2.765 -0.0328  0.1299  0.3139
 1287poe    c31 6793   1.005   5.879   3.777  0.7140 -1.0227 -0.3008
 1287poe     o2 6794   0.953   5.774   3.699  0.4922 -0.8573 -0.3762
 1287poe    c23 6795   0.998   5.806   3.570  0.5913 -0.1844 -0.1736
 1287poe    c23 6796   0.950   5.684   3.490 -0.3830  0.4354 -0.5593
 1287poe     o2 6797   0.838   5.625   3.553  0.1000 -0.1778 -0.2615
 1287poe    c23 6798   0.776   5.530   3.470  0.4027 -0.2104 -0.4534
 1287poe    c23 6799   0.670   5.441   3.537 -0.1399  0.9084  0.2005
 1287poe     o2 6800   0.742   5.390   3.647  0.4753 -0.0934 -0.6469
 1287poe    c23 6801   0.664   5.295   3.717  0.4243  0.1952 -0.3086
 1287poe    c23 6802   0.760   5.211   3.803  0.5696  0.0734 -0.5891
 1287poe     o2 6803   0.810   5.287   3.911  0.1493 -0.1479 -0.2373
 1287poe    c31 6804   0.885   5.214   4.005  0.2407 -0.1552 -0.3150
 1288poe    c31 6805   3.882   0.389   3.218 -0.3356  0.1932  0.2219
 1288poe     o2 6806   3.961   0.456   3.313 -0.0368 -0.1011  0.1837
 1288poe    c23 6807   3.866   0.544   3.369 -0.0288 -0.0948  0.1872
 1288poe    c23 6808   3.914   0.689   3.347 -0.1776 -0.0387  0.2332
 1288poe     o2 6809   4.011   0.727   3.442 -0.1811 -0.3483  0.3627
 1288poe    c23 6810   4.062   0.852   3.403  0.4458 -0.6735  0.1415
 1288poe    c23 6811   4.199   0.892   3.461  0.2343  0.2716  0.0059
 1288poe     o2 6812   4.302   0.800   3.431 -0.1792 -0.0543 -0.4216
 1288poe    c23 6813   4.410   0.825   3.518 -0.5300  0.7178 -0.1929
 1288poe    c23 6814   4.516   0.715   3.502 -0.5726  0.6362  0.0835
 1288poe     o2 6815   4.591   0.736   3.384 -0.0485 -0.0839  0.2772
 1288poe    c31 6816   4.565   0.644   3.280  0.0597 -0.5122  0.6252
 1289poe    c31 6817   4.287   3.436   4.438  0.1967 -0.0681 -0.2615
 1289poe     o2 6818   4.348   3.540   4.511  0.3060 -0.1435 -0.2444
 1289poe    c23 6819   4.333   3.663   4.444 -0.3022 -0.0009  0.1438
 1289poe    c23 6820   4.396   3.767   4.538 -0.1421  0.1824 -0.1634
 1289poe     o2 6821   4.351   3.723   4.665  0.4703 -0.2958 -0.1054
 1289poe    c23 6822   4.365   3.818   4.768 -0.4034  0.4530 -0.6582
 1289poe    c23 6823   4.260   3.781   4.874  0.3622  0.1985  0.0255
 1289poe     o2 6824   4.283   3.652   4.926  0.2908  0.2486  0.1791
 1289poe    c23 6825   4.200   3.612   5.033  0.0832  0.0955 -0.0390
 1289poe    c23 6826   4.211   3.461   5.061  0.1647  0.1724  0.3455
 1289poe     o2 6827   4.148   3.382   4.963  0.1113  0.5339  0.0888
 1289poe    c31 6828   4.137   3.257   5.026  0.0916  0.2085 -0.5502
 1290poe    c31 6829   3.513   5.661   5.043 -0.1123 -0.2196 -0.0173
 1290poe     o2 6830   3.479   5.742   5.153 -0.5405  0.0897 -0.3764
 1290poe    c23 6831   3.396   5.660   5.231 -0.6204 -0.4721 -1.0364
 1290poe    c23 6832   3.330   5.760   5.329  0.6184 -0.3197 -0.3392
 1290poe     o2 6833   3.427   5.824   5.408 -0.0504  0.4118 -0.0985
 1290poe    c23 6834   3.381   5.898   5.519 -0.0913  0.2524 -0.0089
 1290poe    c23 6835   3.513   5.932   5.590 -0.3795  0.5625  0.3795
 1290poe     o2 6836   3.616   5.974   5.504 -0.1374 -0.2117  0.2900
 1290poe    c23 6837   3.723   6.016   5.585  0.3841 -0.2840 -0.3490
 1290poe    c23 6838   3.834   6.073   5.494  0.1409  0.2151 -0.3367
 1290poe     o2 6839   3.871   5.972   5.403 -0.0258 -0.2069  0.0593
 1290poe    c31 6840   3.950   6.028   5.301 -0.0209  0.0138  0.1827
 1291poe    c31 6841   5.488   3.623   2.881  0.6742 -0.8854 -0.4748
 1291poe     o2 6842   5.539   3.618   3.013 -0.3272  0.0213 -0.0395
 1291poe    c23 6843   5.489   3.735   3.074 -0.2167 -0.1884  0.4584
 1291poe    c23 6844   5.596   3.799   3.164 -0.3397 -0.3359  0.7079
 1291poe     o2 6845   5.715   3.830   3.095 -0.5712  0.2226  0.5615
 1291poe    c23 6846   5.785   3.931   3.164  0.1720 -0.1903  0.4220
 1291poe    c23 6847   5.925   3.953   3.104  0.2145  0.0535  0.6068
 1291poe     o2 6848   5.981   3.826   3.078  0.5133  0.3128 -0.0291
 1291poe    c23 6849   6.116   3.839   3.039  0.5008 -0.0489 -0.2028
 1291poe    c23 6850   6.175   3.697   3.027  0.0040 -0.2629 -0.1578
 1291poe     o2 6851   6.093   3.609   2.954 -0.6153 -0.1264  0.3605
 1291poe    c31 6852   6.162   3.496   2.906 -0.1531  0.2721  0.0643
 1292poe    c31 6853   5.010   5.412   2.031  0.3904 -0.3364  0.2226
 1292poe     o2 6854   4.947   5.313   2.109 -0.1527 -0.0667  0.1265
 1292poe    c23 6855   5.032   5.238   2.193 -0.4868  0.0790  0.6058
 1292poe    c23 6856   5.121   5.132   2.124 -0.3482  0.4364  0.2296
 1292poe     o2 6857   5.061   5.011   2.081 -0.1106  0.5233 -0.3604
 1292poe    c23 6858   5.023   4.926   2.187 -0.2175  1.0297  0.0164
 1292poe    c23 6859   4.895   4.855   2.138  0.2521  0.1374  0.0710
 1292poe     o2 6860   4.906   4.776   2.021  0.2860  0.2929 -0.0313
 1292poe    c23 6861   4.847   4.649   2.036  1.1187 -0.0868  0.1208
 1292poe    c23 6862   4.829   4.587   1.896  0.1358 -0.1506  0.2643
 1292poe     o2 6863   4.927   4.645   1.812 -0.2462  0.3867  0.1822
 1292poe    c31 6864   4.901   4.637   1.674  0.0038  0.5167  0.1264
 1293poe    c31 6865   4.181   5.117   6.792  0.6611 -0.1672 -0.2315
 1293poe     o2 6866   4.149   5.118   6.930 -0.0274 -0.0282 -0.3878
 1293poe    c23 6867   4.011   5.099   6.954  0.1224 -0.1944  0.3386
 1293poe    c23 6868   4.010   5.001   7.073  0.4537 -0.2214  0.3226
 1293poe     o2 6869   4.100   5.057   7.165  0.0076  0.7298  0.1927
 1293poe    c23 6870   4.150   4.963   7.257  0.2236  0.3875 -0.2697
 1293poe    c23 6871   4.258   5.026   7.347 -0.1389  0.5716  0.0438
 1293poe     o2 6872   4.341   5.099   7.260  0.1488  0.2644  0.0592
 1293poe    c23 6873   4.453   5.149   7.330  0.1725 -0.2406  0.3846
 1293poe    c23 6874   4.548   5.235   7.245 -0.3889 -0.0524 -0.0554
 1293poe     o2 6875   4.604   5.163   7.138 -0.0733 -0.0170  0.0842
 1293poe    c31 6876   4.704   5.243   7.079 -0.2739  0.1424 -0.0419
 1294poe    c31 6877   1.131   6.727   1.876  0.1555  0.7279  0.2382
 1294poe     o2 6878   1.271   6.713   1.870  0.0277 -0.3623 -0.3828
 1294poe    c23 6879   1.308   6.670   1.998 -0.0088  0.4244 -0.1024
 1294poe    c23 6880   1.462   6.676   1.997  0.0220 -0.1801  0.3929
 1294poe     o2 6881   1.502   6.604   1.882 -0.1883  0.1147  0.1349
 1294poe    c23 6882   1.640   6.622   1.860 -0.1242 -0.3714  0.1414
 1294poe    c23 6883   1.667   6.559   1.722  0.1666  0.0959 -0.0172
 1294poe     o2 6884   1.561   6.613   1.646  0.2437  0.1281 -0.1024
 1294poe    c23 6885   1.589   6.579   1.512 -0.2441 -0.3609 -0.0830
 1294poe    c23 6886   1.503   6.643   1.402 -0.2129 -0.0268  0.0850
 1294poe     o2 6887   1.366   6.612   1.413 -0.1777 -0.3444 -0.3274
 1294poe    c31 6888   1.288   6.670   1.311 -0.1190  0.3509  0.0184
 1295poe    c31 6889   4.921   0.421   2.629 -0.5988 -0.1905 -0.2454
 1295poe     o2 6890   4.901   0.289   2.583  0.1781 -0.3767 -0.0646
 1295poe    c23 6891   4.763   0.259   2.575  0.1594 -0.3421  0.1261
 1295poe    c23 6892   4.748   0.120   2.510 -0.0104 -0.1845 -0.1755
 1295poe     o2 6893   4.853   0.035   2.549 -0.0910 -0.1867  0.0401
 1295poe    c23 6894   4.865  -0.079   2.466  0.0853 -0.3530  0.2915
 1295poe    c23 6895   4.982  -0.170   2.510  0.3738 -0.1742 -0.0978
 1295poe     o2 6896   5.092  -0.086   2.533  0.1834  0.0448  0.0224
 1295poe    c23 6897   5.200  -0.174   2.555  0.0962 -0.0217  0.1879
 1295poe    c23 6898   5.305  -0.078   2.614  0.1835 -0.0308  0.0489
 1295poe     o2 6899   5.280  -0.030   2.745  0.1262  0.1686 -0.0343
 1295poe    c31 6900   5.398   0.024   2.799  0.0606  0.0813  0.1973
 1296poe    c31 6901   1.551   6.075   6.831 -0.0302 -0.3562 -0.0198
 1296poe     o2 6902   1.668   5.999   6.816  0.0105 -0.4605  0.7790
 1296poe    c23 6903   1.634   5.865   6.787 -0.0231 -0.2197 -0.3464
 1296poe    c23 6904   1.708   5.756   6.867 -0.4298 -0.0919  0.2074
 1296poe     o2 6905   1.681   5.783   7.003 -0.6184 -0.6161  0.2756
 1296poe    c23 6906   1.736   5.684   7.088 -0.5336 -0.6675  0.1612
 1296poe    c23 6907   1.728   5.730   7.235 -0.5964  0.0971 -0.0793
 1296poe     o2 6908   1.808   5.843   7.261 -0.2151 -0.2543  0.2709
 1296poe    c23 6909   1.767   5.917   7.375 -0.2846  0.0437  0.0534
 1296poe    c23 6910   1.888   6.004   7.413  0.0511 -0.3682 -0.0539
 1296poe     o2 6911   1.933   6.090   7.310 -0.0961 -0.3962 -0.1417
 1296poe    c31 6912   2.061   6.140   7.341 -0.2320  0.1310 -0.4317
 1297poe    c31 6913   4.548   1.230   1.294  0.1026 -0.5878  0.2475
 1297poe     o2 6914   4.429   1.271   1.357  0.0965 -0.4353  0.1371
 1297poe    c23 6915   4.325   1.285   1.262  0.1374  0.6179  0.2375
 1297poe    c23 6916   4.206   1.309   1.356 -0.1614  0.2503 -0.0451
 1297poe     o2 6917   4.259   1.405   1.445  0.1050  0.4313 -0.3971
 1297poe    c23 6918   4.165   1.432   1.546  0.5793 -0.0533  0.1773
 1297poe    c23 6919   4.225   1.562   1.603  0.0436  0.1883  0.1943
 1297poe     o2 6920   4.357   1.537   1.646  0.0899 -0.1063 -0.1132
 1297poe    c23 6921   4.382   1.616   1.760  0.1989  0.1111 -0.2854
 1297poe    c23 6922   4.529   1.604   1.806  0.1708 -0.0542 -0.2375
 1297poe     o2 6923   4.560   1.474   1.853 -0.2563 -0.2144 -0.3911
 1297poe    c31 6924   4.679   1.483   1.929 -0.0018  0.1702 -0.8321
 1298poe    c31 6925   5.371   5.017   0.609  0.2297 -0.4529 -0.0734
 1298poe     o2 6926   5.331   5.121   0.695  0.2759 -0.2187 -0.3382
 1298poe    c23 6927   5.214   5.071   0.755  0.5894 -0.5536 -0.0054
 1298poe    c23 6928   5.194   5.156   0.882  0.3421 -0.4582 -0.1099
 1298poe     o2 6929   5.220   5.289   0.843 -0.0798 -0.3233  0.0567
 1298poe    c23 6930   5.154   5.388   0.918 -0.5314 -0.1405 -0.5667
 1298poe    c23 6931   5.191   5.523   0.853  1.0472 -0.0662  0.4364
 1298poe     o2 6932   5.324   5.514   0.806  0.6672  0.0330 -0.6608
 1298poe    c23 6933   5.371   5.641   0.767 -0.1816  0.4175 -0.4732
 1298poe    c23 6934   5.504   5.623   0.690 -0.2884  0.4418 -0.6617
 1298poe     o2 6935   5.489   5.553   0.568 -0.4194  0.4546 -0.6532
 1298poe    c31 6936   5.617   5.522   0.517 -0.3470 -0.1752 -0.0966
 1299poe    c31 6937   5.877   5.677   5.568 -0.2802  0.6027  0.2655
 1299poe     o2 6938   5.771   5.625   5.490  0.4515 -0.2856 -0.1538
 1299poe    c23 6939   5.725   5.715   5.392 -0.4260 -0.2470  0.2864
 1299poe    c23 6940   5.702   5.629   5.266 -0.4098 -0.0022  0.1171
 1299poe     o2 6941   5.638   5.518   5.324  0.2607 -0.2206  0.4497
 1299poe    c23 6942   5.608   5.418   5.229  0.3418  0.3048 -0.1345
 1299poe    c23 6943   5.552   5.293   5.299  0.1207  0.2790 -0.3548
 1299poe     o2 6944   5.601   5.285   5.431  0.0915 -0.1904 -0.3673
 1299poe    c23 6945   5.565   5.159   5.483 -0.2821  0.2535  0.4755
 1299poe    c23 6946   5.618   5.121   5.622 -0.0690  0.0559  0.3399
 1299poe     o2 6947   5.756   5.138   5.645 -0.0165 -0.0856  0.1364
 1299poe    c31 6948   5.784   5.089   5.774  0.3005 -0.1028  0.0624
 1300poe    c31 6949   1.061   1.378   4.989 -0.4562  0.4759 -0.0628
 1300poe     o2 6950   0.991   1.303   5.086 -0.0309  0.1387 -0.0106
 1300poe    c23 6951   0.900   1.206   5.038  0.1126 -0.1022  0.2057
 1300poe    c23 6952   0.826   1.127   5.148 -0.0960 -0.1298  0.0451
 1300poe     o2 6953   0.793   1.224   5.245  0.3656  0.4277 -0.3518
 1300poe    c23 6954   0.713   1.162   5.343  0.1780  0.5378 -0.4347
 1300poe    c23 6955   0.706   1.255   5.465 -0.2546 -0.3385  0.2128
 1300poe     o2 6956   0.836   1.265   5.518 -0.2228  0.0850  0.0566
 1300poe    c23 6957   0.841   1.331   5.642  0.0364 -0.3535  0.2841
 1300poe    c23 6958   0.973   1.392   5.693  0.0313  0.0852 -0.2168
 1300poe     o2 6959   1.043   1.462   5.593 -0.1412  0.2816 -0.1996
 1300poe    c31 6960   1.177   1.488   5.627 -0.1473 -0.1027  0.1204
 1301poe    c31 6961   5.409   3.458   4.010 -0.1893  0.4185 -0.0946
 1301poe     o2 6962   5.371   3.483   4.144 -0.5704 -0.1100 -0.1030
 1301poe    c23 6963   5.300   3.375   4.199  0.1296 -0.4627  0.1233
 1301poe    c23 6964   5.297   3.407   4.350 -0.0722 -0.5686  0.1425
 1301poe     o2 6965   5.249   3.539   4.365  0.4702 -0.2824 -0.5595
 1301poe    c23 6966   5.222   3.572   4.499 -0.4641  0.0980 -0.8333
 1301poe    c23 6967   5.156   3.711   4.501 -0.2778  0.1789 -0.2002
 1301poe     o2 6968   5.234   3.804   4.429 -0.0787  0.5791  0.5133
 1301poe    c23 6969   5.176   3.932   4.440 -0.3711  0.4756  0.2204
 1301poe    c23 6970   5.269   4.025   4.359 -0.1940 -0.1745 -0.3298
 1301poe     o2 6971   5.291   3.988   4.225  0.4182  0.2569 -0.3508
 1301poe    c31 6972   5.358   4.090   4.154 -0.1078  0.8227 -0.0364
 1302poe    c31 6973   3.748   2.391   4.196  0.0472  0.2151 -0.3378
 1302poe     o2 6974   3.789   2.389   4.331 -0.3403 -0.8272 -0.2281
 1302poe    c23 6975   3.708   2.467   4.416  0.3598 -0.2267 -0.1035
 1302poe    c23 6976   3.742   2.442   4.564 -0.2165 -0.0931  0.0550
 1302poe     o2 6977   3.866   2.497   4.602 -0.2490  0.4167 -0.5496
 1302poe    c23 6978   3.915   2.455   4.728 -0.4061 -0.3459 -0.7394
 1302poe    c23 6979   4.045   2.527   4.768 -0.8547  0.2480 -0.3308
 1302poe     o2 6980   4.141   2.505   4.667 -0.3076 -0.1873  0.2749
 1302poe    c23 6981   4.264   2.562   4.705 -0.2122 -0.4460  0.3516
 1302poe    c23 6982   4.360   2.500   4.602 -0.6283 -0.5052 -0.0018
 1302poe     o2 6983   4.293   2.508   4.478 -0.2575 -0.2450 -0.1876
 1302poe    c31 6984   4.366   2.431   4.385 -0.4310 -0.3574 -0.2318
 1303poe    c31 6985   4.862   5.684   4.053  0.1528 -0.0984 -0.2262
 1303poe     o2 6986   4.958   5.784   4.077  0.3303 -0.3284  0.0307
 1303poe    c23 6987   4.929   5.905   4.011 -0.4408 -0.1764  0.6320
 1303poe    c23 6988   5.027   6.016   4.054 -0.4398  0.1831 -0.2764
 1303poe     o2 6989   5.043   6.045   4.191  0.5542  0.2024 -0.3942
 1303poe    c23 6990   5.143   6.143   4.207  0.6322  0.0753 -0.0972
 1303poe    c23 6991   5.173   6.164   4.357 -0.3402  0.6275  0.0256
 1303poe     o2 6992   5.181   6.039   4.421  0.1593  0.4538 -0.3628
 1303poe    c23 6993   5.185   6.037   4.562  0.0885 -0.1163 -0.3646
 1303poe    c23 6994   5.213   5.893   4.608 -0.1744 -0.0184  0.1049
 1303poe     o2 6995   5.110   5.820   4.545 -0.1735 -0.0767  0.1709
 1303poe    c31 6996   5.065   5.723   4.637 -0.0760 -0.3766 -0.0955
 1304poe    c31 6997   5.922   2.865   3.912 -0.9448 -0.0982  0.1234
 1304poe     o2 6998   5.875   2.818   4.036  0.2514 -0.0452  0.6149
 1304poe    c23 6999   5.860   2.920   4.133 -0.1138  0.3695  0.1284
 1304poe    c23 7000   5.748   2.894   4.235 -0.1151  0.1440  0.0717
 1304poe     o2 7001   5.635   2.857   4.159  0.2679 -0.6903 -0.0990
 1304poe    c23 7002   5.540   2.803   4.248  0.0667 -0.2939 -0.0718
 1304poe    c23 7003   5.398   2.829   4.194 -0.0074 -0.1788  0.1738
 1304poe     o2 7004   5.401   2.782   4.061  0.0966 -0.0027  0.1129
 1304poe    c23 7005   5.270   2.769   4.011  0.1280 -0.3199  0.1084
 1304poe    c23 7006   5.280   2.686   3.882 -0.3166  0.4072 -0.4039
 1304poe     o2 7007   5.382   2.736   3.797  0.4022  0.1417  0.2919
 1304poe    c31 7008   5.371   2.713   3.659  0.3092 -0.0410  0.3289
 1305poe    c31 7009   0.651   2.715   6.175 -0.1446  0.1492 -0.2053
 1305poe     o2 7010   0.613   2.817   6.265 -0.0701 -0.3927  0.4492
 1305poe    c23 7011   0.721   2.905   6.289 -0.0679 -0.1733 -0.3341
 1305poe    c23 7012   0.654   3.039   6.325 -0.3503 -0.3676 -0.1284
 1305poe     o2 7013   0.565   3.007   6.430 -0.2981 -0.1220 -0.0089
 1305poe    c23 7014   0.534   3.112   6.518  0.5269 -0.0885  0.2534
 1305poe    c23 7015   0.449   3.062   6.637  0.0542  0.1297  0.0084
 1305poe     o2 7016   0.324   3.012   6.594  0.2189  0.0223 -0.3493
 1305poe    c23 7017   0.222   3.039   6.687 -0.0237  0.0142 -0.6109
 1305poe    c23 7018   0.140   2.910   6.673  0.2358 -0.2154 -0.0617
 1305poe     o2 7019   0.139   2.873   6.537  0.2853 -0.2483 -0.0528
 1305poe    c31 7020   0.034   2.785   6.503 -0.0290  0.0848  0.0454
 1306poe    c31 7021   6.449   4.269   1.861  0.6104 -0.7429  0.5281
 1306poe     o2 7022   6.438   4.371   1.958  0.1836 -0.1073 -0.1782
 1306poe    c23 7023   6.563   4.434   1.974  0.2723 -0.5031  0.8006
 1306poe    c23 7024   6.539   4.542   2.080  0.1589  0.4934 -0.2164
 1306poe     o2 7025   6.425   4.613   2.037 -0.1786  0.3472  0.4199
 1306poe    c23 7026   6.408   4.726   2.119  0.0759  0.4186  0.3751
 1306poe    c23 7027   6.275   4.779   2.063  0.1397 -0.2800 -0.4588
 1306poe     o2 7028   6.169   4.687   2.053 -0.1987  0.0730 -0.1270
 1306poe    c23 7029   6.045   4.755   2.050 -0.3682 -0.2295 -0.0679
 1306poe    c23 7030   5.928   4.661   2.085 -0.7062  0.1064 -0.2890
 1306poe     o2 7031   5.939   4.552   1.998  0.1128 -0.0624  0.0118
 1306poe    c31 7032   5.853   4.444   2.028 -0.1731  0.0860 -0.2546
 1307poe    c31 7033   1.266   0.327   5.373 -0.3842  0.5958 -0.3752
 1307poe     o2 7034   1.199   0.217   5.431  0.2510  0.6663  0.5121
 1307poe    c23 7035   1.060   0.238   5.420  0.1512 -0.0656  0.3051
 1307poe    c23 7036   0.955   0.154   5.494 -0.1552  0.1530  0.1227
 1307poe     o2 7037   0.952   0.196   5.629  0.2197  0.3656  0.0663
 1307poe    c23 7038   0.837   0.137   5.686  0.4521  0.0068  0.1709
 1307poe    c23 7039   0.861   0.161   5.836 -0.0130  0.0878  0.2325
 1307poe     o2 7040   0.852   0.297   5.869 -0.2172  0.0583  0.3014
 1307poe    c23 7041   0.906   0.329   5.995 -0.6024  0.6866  0.3111
 1307poe    c23 7042   0.931   0.476   6.036 -0.1545  0.6894  0.0387
 1307poe     o2 7043   1.024   0.538   5.951 -0.5254  0.0552 -0.8488
 1307poe    c31 7044   1.064   0.659   6.011 -0.2987 -0.3155 -0.2487
 1308poe    c31 7045   2.575   5.265   2.349 -0.2728 -0.7031 -0.0000
 1308poe     o2 7046   2.685   5.261   2.261 -0.7006 -0.0432 -0.5745
 1308poe    c23 7047   2.682   5.144   2.183  0.3587 -0.1377 -0.4921
 1308poe    c23 7048   2.617   5.168   2.046 -0.1318 -0.2767 -0.2906
 1308poe     o2 7049   2.488   5.223   2.053 -0.0917 -0.2032 -0.1364
 1308poe    c23 7050   2.424   5.258   1.932  0.4908  0.8290 -0.1590
 1308poe    c23 7051   2.301   5.351   1.932 -0.1821 -0.0523 -0.6083
 1308poe     o2 7052   2.310   5.478   1.991  0.0263 -0.2116 -0.2934
 1308poe    c23 7053   2.313   5.463   2.131  0.3493 -0.0887 -0.2852
 1308poe    c23 7054   2.336   5.597   2.204  0.8410 -0.6371  0.5906
 1308poe     o2 7055   2.463   5.653   2.180  0.3281  0.2606 -0.0760
 1308poe    c31 7056   2.462   5.771   2.257 -0.3355  0.1565  0.0834
 1309poe    c31 7057   2.986   0.300   3.467  0.0410  0.0343  0.4090
 1309poe     o2 7058   2.998   0.177   3.399 -0.3143  0.7261 -0.9425
 1309poe    c23 7059   2.872   0.131   3.354 -0.5897  0.2337  0.3001
 1309poe    c23 7060   2.833  -0.007   3.409 -0.5609 -0.2320 -0.8299
 1309poe     o2 7061   2.936  -0.101   3.386  0.0325  0.2420 -0.1241
 1309poe    c23 7062   2.902  -0.183   3.277  0.0152 -0.8373  0.6822
 1309poe    c23 7063   3.039  -0.246   3.243  0.5210  0.5649  0.0809
 1309poe     o2 7064   3.086  -0.297   3.365 -0.1649  0.0719  0.1481
 1309poe    c23 7065   3.216  -0.347   3.341 -0.1360 -0.0399  0.5327
 1309poe    c23 7066   3.287  -0.377   3.474  0.2283 -0.5468  0.2272
 1309poe     o2 7067   3.218  -0.288   3.559  0.1530 -0.4806  0.0964
 1309poe    c31 7068   3.292  -0.269   3.677 -0.2888  0.2824  0.2509
 1310poe    c31 7069   0.915   2.029   5.196 -0.0040  0.0015 -0.0667
 1310poe     o2 7070   0.794   1.987   5.255  0.3279  0.1026  0.7011
 1310poe    c23 7071   0.800   1.847   5.242  0.0878  0.1861 -0.4888
 1310poe    c23 7072   0.693   1.779   5.329  0.2179  0.2685 -0.2633
 1310poe     o2 7073   0.672   1.862   5.441  0.2972 -0.3243  0.1990
 1310poe    c23 7074   0.574   1.800   5.521  0.1872 -0.1513  0.1977
 1310poe    c23 7075   0.550   1.895   5.640 -0.0156  0.2275 -0.1411
 1310poe     o2 7076   0.542   2.029   5.597 -0.2960  0.0547 -0.6367
 1310poe    c23 7077   0.494   2.113   5.699  0.7382 -0.2372  0.1022
 1310poe    c23 7078   0.513   2.260   5.658  0.4985 -0.2830 -0.1760
 1310poe     o2 7079   0.646   2.285   5.617  0.5739 -0.3045  0.0525
 1310poe    c31 7080   0.663   2.425   5.610  0.1705 -0.2342  0.3818
 1311poe    c31 7081   1.081   4.744   0.443  0.6069 -0.2925  0.3743
 1311poe     o2 7082   1.083   4.884   0.454  0.1452 -0.2753  0.2185
 1311poe    c23 7083   1.170   4.953   0.367  0.2982  0.0918  0.6597
 1311poe    c23 7084   1.111   5.094   0.347  0.2413  0.0305  0.3929
 1311poe     o2 7085   1.059   5.153   0.464 -0.4918  0.1019  0.0418
 1311poe    c23 7086   1.017   5.282   0.427 -0.1323  0.2952  0.3013
 1311poe    c23 7087   0.933   5.341   0.541  0.4655 -0.0418  0.9229
 1311poe     o2 7088   0.821   5.255   0.547 -0.2658  0.7860 -0.4725
 1311poe    c23 7089   0.708   5.296   0.621 -0.0058 -0.0617  0.4092
 1311poe    c23 7090   0.608   5.179   0.616 -0.4309  0.3115  0.1606
 1311poe     o2 7091   0.656   5.065   0.682  0.7475  0.5504 -0.2674
 1311poe    c31 7092   0.654   5.085   0.822  0.2130  0.4598 -0.2614
 1312poe    c31 7093   6.642   6.558   5.567 -0.1672  0.0423  0.2279
 1312poe     o2 7094   6.609   6.448   5.649 -0.1304  0.2018  0.4567
 1312poe    c23 7095   6.600   6.333   5.568 -0.3156  0.5722 -0.0553
 1312poe    c23 7096   6.564   6.216   5.662 -0.0555  0.6681  0.1655
 1312poe     o2 7097   6.469   6.258   5.756 -0.1523  0.2820  0.2411
 1312poe    c23 7098   6.406   6.150   5.821  0.4162 -0.2501 -0.0854
 1312poe    c23 7099   6.324   6.189   5.946  0.4627  0.2128 -0.1992
 1312poe     o2 7100   6.245   6.302   5.915  0.2357  0.0968 -0.0437
 1312poe    c23 7101   6.172   6.355   6.024  0.1865 -0.4868  0.2093
 1312poe    c23 7102   6.190   6.505   6.056  0.1249 -0.2605 -0.7739
 1312poe     o2 7103   6.323   6.537   6.091 -0.0927 -0.1170 -0.0636
 1312poe    c31 7104   6.329   6.668   6.143 -0.0336 -0.1451 -0.0004
 1313poe    c31 7105   3.014   4.498   4.819 -0.3446 -0.2104 -0.0435
 1313poe     o2 7106   3.057   4.391   4.738  0.4619 -0.0293  0.1353
 1313poe    c23 7107   2.975   4.358   4.628  0.0589 -0.1486  0.4655
 1313poe    c23 7108   3.038   4.236   4.559 -0.0802  0.0851 -0.0794
 1313poe     o2 7109   3.173   4.272   4.543 -0.2160  0.2653 -0.8837
 1313poe    c23 7110   3.245   4.181   4.462  0.5375 -0.3468  0.4426
 1313poe    c23 7111   3.395   4.216   4.461  0.5306 -0.3297 -0.1052
 1313poe     o2 7112   3.420   4.246   4.597  0.2145 -0.1223 -0.0924
 1313poe    c23 7113   3.557   4.246   4.629  0.1268 -0.1664  0.2812
 1313poe    c23 7114   3.592   4.306   4.767  0.0131  0.2767  0.1173
 1313poe     o2 7115   3.529   4.232   4.869  0.0925 -0.1955 -0.1710
 1313poe    c31 7116   3.597   4.251   4.991 -0.2682  0.3564 -0.0512
 1314poe    c31 7117   5.774   4.040   1.799 -0.2161  0.0491 -0.3631
 1314poe     o2 7118   5.712   3.921   1.757 -0.1266 -0.2048  0.2103
 1314poe    c23 7119   5.572   3.937   1.742 -0.1119  0.1886  0.4942
 1314poe    c23 7120   5.516   3.829   1.647  0.2793  0.3306  0.0972
 1314poe     o2 7121   5.560   3.702   1.690 -0.0320  0.1758 -0.0437
 1314poe    c23 7122   5.513   3.591   1.616  0.6466  0.1776 -0.4788
 1314poe    c23 7123   5.571   3.473   1.696 -0.7186 -0.2329 -0.0739
 1314poe     o2 7124   5.548   3.477   1.835  0.1792 -0.1306  0.0789
 1314poe    c23 7125   5.596   3.359   1.894 -0.5111 -0.1572  0.6073
 1314poe    c23 7126   5.637   3.396   2.037  0.4856 -0.1418  0.3269
 1314poe     o2 7127   5.746   3.484   2.055  0.0673  0.3610  0.4273
 1314poe    c31 7128   5.793   3.472   2.187  0.3431 -0.2300  0.2773
 1315poe    c31 7129   2.206   0.700   2.794 -0.5238  0.3997 -0.1457
 1315poe     o2 7130   2.177   0.568   2.833  0.0757  0.3195  0.0403
 1315poe    c23 7131   2.070   0.526   2.752  0.1154  0.0541  0.1242
 1315poe    c23 7132   1.966   0.421   2.794  0.2836 -0.1961 -0.0803
 1315poe     o2 7133   2.025   0.294   2.814  0.2306 -0.1634  0.2975
 1315poe    c23 7134   1.930   0.194   2.842  0.4379 -0.3580  0.3065
 1315poe    c23 7135   1.997   0.056   2.857 -0.0480 -0.5836  0.4232
 1315poe     o2 7136   2.109   0.074   2.940  0.0857  0.8056 -0.0260
 1315poe    c23 7137   2.194  -0.038   2.957 -0.2665  0.5904  0.3456
 1315poe    c23 7138   2.282   0.005   3.076  0.2350  0.2119  0.1147
 1315poe     o2 7139   2.338   0.128   3.039  0.5980  0.1021  0.2922
 1315poe    c31 7140   2.436   0.174   3.130  0.4631  0.0572  0.4596
 1316poe    c31 7141   4.123   6.149   2.234 -0.0951 -0.0666 -0.2561
 1316poe     o2 7142   4.054   6.260   2.181 -0.3484 -0.0946  0.0103
 1316poe    c23 7143   4.149   6.357   2.141 -0.5291  0.4074  0.7796
 1316poe    c23 7144   4.080   6.493   2.121  0.1333  0.5940 -0.3256
 1316poe     o2 7145   4.030   6.543   2.244 -0.0031  0.3686 -0.2892
 1316poe    c23 7146   4.022   6.683   2.229 -0.0705  0.3332 -0.6097
 1316poe    c23 7147   3.979   6.740   2.366 -0.1712 -0.6073 -0.2456
 1316poe     o2 7148   3.855   6.679   2.396 -0.7072  0.4445 -0.2898
 1316poe    c23 7149   3.820   6.687   2.532  0.6463  0.1639  0.0806
 1316poe    c23 7150   3.684   6.619   2.553  0.4554  0.3869 -0.4433
 1316poe     o2 7151   3.672   6.503   2.473  0.1608  0.1511 -0.0593
 1316poe    c31 7152   3.563   6.428   2.521  0.2355 -0.1302 -0.3243
 1317poe    c31 7153   3.930   5.940   0.276  0.5253 -0.7119 -0.0958
 1317poe     o2 7154   3.898   5.932   0.413  0.5158  0.1834 -0.0344
 1317poe    c23 7155   3.839   6.054   0.451 -0.0191  0.0178 -0.3232
 1317poe    c23 7156   3.761   6.056   0.583 -0.1351 -0.3709 -0.3844
 1317poe     o2 7157   3.847   6.038   0.693 -0.6108 -0.0251  0.0508
 1317poe    c23 7158   3.778   6.009   0.812  0.1974  0.0169  0.5432
 1317poe    c23 7159   3.891   5.967   0.908 -0.0374  0.0093  0.8184
 1317poe     o2 7160   3.999   6.057   0.895  0.1192 -0.3444 -0.4857
 1317poe    c23 7161   4.076   6.030   1.011  0.0390 -0.0833 -0.3715
 1317poe    c23 7162   4.205   6.113   0.999 -0.0707  0.2349  0.5839
 1317poe     o2 7163   4.274   6.061   0.887 -0.1032  0.0730  0.6381
 1317poe    c31 7164   4.402   6.119   0.882 -0.2925  0.4350 -0.1843
 1318poe    c31 7165   6.095   4.737   5.138 -0.0232 -0.6149 -0.7135
 1318poe     o2 7166   6.066   4.653   5.247 -0.0715 -0.4406 -0.5915
 1318poe    c23 7167   6.029   4.725   5.362 -0.1899 -0.0897 -0.8475
 1318poe    c23 7168   5.927   4.646   5.446  0.0928  0.0743 -0.3386
 1318poe     o2 7169   5.998   4.561   5.532 -0.4909  0.2726  0.3462
 1318poe    c23 7170   5.908   4.484   5.609 -0.4687 -0.4340 -0.3257
 1318poe    c23 7171   5.987   4.387   5.699 -0.3912 -0.1983 -0.1385
 1318poe     o2 7172   6.070   4.297   5.628  0.2784  0.1295  0.2213
 1318poe    c23 7173   6.157   4.215   5.703  0.0504 -0.1797  0.1489
 1318poe    c23 7174   6.283   4.169   5.627 -0.0018 -0.4357  0.2170
 1318poe     o2 7175   6.373   4.274   5.600  0.1177 -0.7735 -0.7202
 1318poe    c31 7176   6.490   4.210   5.555  0.7265  0.0204 -0.2806
 1319poe    c31 7177   2.180   1.213   4.950 -0.0911 -0.0898  0.0670
 1319poe     o2 7178   2.084   1.229   5.053  0.1183  0.1825  0.2217
 1319poe    c23 7179   2.111   1.140   5.159 -0.0388 -0.0794  0.0448
 1319poe    c23 7180   2.085   1.212   5.292 -0.1128  0.1036 -0.0677
 1319poe     o2 7181   1.953   1.261   5.283 -0.2902 -0.3697 -0.0817
 1319poe    c23 7182   1.906   1.316   5.404  0.6097  0.5569 -0.1358
 1319poe    c23 7183   1.761   1.365   5.383  0.3301 -0.3267 -0.2955
 1319poe     o2 7184   1.676   1.276   5.314  0.1347 -0.0574 -0.4022
 1319poe    c23 7185   1.561   1.341   5.267  0.1325  0.1441 -0.1168
 1319poe    c23 7186   1.468   1.242   5.194 -0.0079  0.4225 -0.3185
 1319poe     o2 7187   1.534   1.198   5.077 -0.1725 -0.3882 -0.1075
 1319poe    c31 7188   1.436   1.189   4.975  0.3224 -0.0147 -0.6213
 1320poe    c31 7189   1.342   2.168   1.393 -0.0240  0.2583 -0.2166
 1320poe     o2 7190   1.399   2.068   1.473 -0.6508  0.2019  0.1700
 1320poe    c23 7191   1.322   1.950   1.483 -0.0841 -0.1552  0.3970
 1320poe    c23 7192   1.400   1.841   1.559 -0.0803 -0.4013  0.0420
 1320poe     o2 7193   1.513   1.817   1.479  0.2253  0.2611  0.2672
 1320poe    c23 7194   1.594   1.727   1.550  0.3578 -0.0868 -0.3172
 1320poe    c23 7195   1.718   1.698   1.463  0.3574 -0.2214 -0.2742
 1320poe     o2 7196   1.771   1.828   1.443 -0.0364 -0.0776 -0.3946
 1320poe    c23 7197   1.897   1.826   1.378  0.1213 -0.1414 -0.0862
 1320poe    c23 7198   1.888   1.811   1.225 -0.0796 -0.5479 -0.0350
 1320poe     o2 7199   1.787   1.880   1.156  0.0691 -0.0990  0.1940
 1320poe    c31 7200   1.797   1.863   1.017 -0.3919  0.7322  0.0526
 1321poe    c31 7201   1.463   0.528   6.227 -0.1441  0.1941  0.4883
 1321poe     o2 7202   1.562   0.472   6.309 -0.2732 -0.4888  0.1829
 1321poe    c23 7203   1.556   0.530   6.437  0.2660 -0.0501  0.0136
 1321poe    c23 7204   1.641   0.439   6.528 -0.2110 -0.5284 -0.0108
 1321poe     o2 7205   1.757   0.398   6.460 -0.1695  0.0813 -0.3166
 1321poe    c23 7206   1.838   0.312   6.538 -0.3809  0.0224 -0.1617
 1321poe    c23 7207   1.958   0.289   6.444 -0.2300  0.0373  0.0279
 1321poe     o2 7208   1.912   0.260   6.314  0.2886 -0.0687 -0.1328
 1321poe    c23 7209   2.017   0.258   6.220  0.4877  0.0102  0.0874
 1321poe    c23 7210   1.988   0.217   6.075  0.7855  0.1971 -0.0246
 1321poe     o2 7211   1.920   0.317   6.002  0.0342  0.2908  0.7921
 1321poe    c31 7212   1.891   0.264   5.875  0.1193  0.5386  0.6694
 1322poe    c31 7213   2.247   5.433   0.438 -0.1411  0.0060 -0.2412
 1322poe     o2 7214   2.123   5.375   0.406 -0.1465  0.0125 -0.2322
 1322poe    c23 7215   2.019   5.452   0.462 -0.2030 -0.0096 -0.3064
 1322poe    c23 7216   1.885   5.376   0.473 -0.4760  0.4783 -0.2467
 1322poe     o2 7217   1.899   5.288   0.582  0.2202  0.7580 -0.1005
 1322poe    c23 7218   1.782   5.212   0.606  0.7238  0.1375  0.4290
 1322poe    c23 7219   1.771   5.141   0.742 -0.3137  0.1209  0.3466
 1322poe     o2 7220   1.788   5.242   0.840  0.0182  0.0224  0.3936
 1322poe    c23 7221   1.753   5.197   0.969  0.0769  0.2332  0.4838
 1322poe    c23 7222   1.790   5.302   1.075 -0.4066  0.7597  0.1357
 1322poe     o2 7223   1.922   5.352   1.079  0.0798 -0.4673  0.0107
 1322poe    c31 7224   1.922   5.431   1.196 -0.1975  0.1191 -0.3810
 1323poe    c31 7225   1.954   2.633   1.989  0.0198  0.3685  0.0632
 1323poe     o2 7226   1.978   2.575   1.862 -0.2620 -0.2620  0.2947
 1323poe    c23 7227   1.860   2.536   1.795 -0.0550  0.2230 -0.3626
 1323poe    c23 7228   1.917   2.437   1.692 -0.3287  0.3520 -0.6391
 1323poe     o2 7229   2.011   2.509   1.615 -0.2957  0.6326 -0.3385
 1323poe    c23 7230   2.059   2.448   1.497 -0.3128  0.3045 -0.1784
 1323poe    c23 7231   2.178   2.517   1.429  0.0242 -0.3771 -0.2814
 1323poe     o2 7232   2.297   2.544   1.500 -0.0518  0.0410 -0.3090
 1323poe    c23 7233   2.388   2.439   1.477  0.0582  0.1984 -0.5942
 1323poe    c23 7234   2.503   2.452   1.579 -0.3512 -0.3462 -0.0509
 1323poe     o2 7235   2.465   2.432   1.713  0.0239  0.2610  0.1499
 1323poe    c31 7236   2.580   2.429   1.794  0.3155 -0.4994 -0.2793
 1324poe    c31 7237   4.271   3.822   0.094 -0.1334 -0.0211  0.4935
 1324poe     o2 7238   4.314   3.948   0.048 -0.6072  0.1307  0.4620
 1324poe    c23 7239   4.431   3.996   0.111 -0.1926 -0.8701  0.4703
 1324poe    c23 7240   4.563   3.924   0.078  0.5979  0.5136  0.5063
 1324poe     o2 7241   4.589   3.923  -0.061 -0.2885  0.1122  0.3361
 1324poe    c23 7242   4.676   4.024  -0.106 -0.2789  0.1774  0.5000
 1324poe    c23 7243   4.689   4.014  -0.259 -0.3220  0.0421  0.5049
 1324poe     o2 7244   4.560   4.016  -0.318 -0.1694  0.1327  0.1724
 1324poe    c23 7245   4.580   4.043  -0.455  0.5984  0.2363  0.2958
 1324poe    c23 7246   4.440   4.049  -0.520  0.9215 -1.1792 -0.5672
 1324poe     o2 7247   4.371   3.939  -0.464  0.0241 -0.4382 -0.1985
 1324poe    c31 7248   4.252   3.919  -0.538 -0.2370 -0.3601  0.2001
 1325poe    c31 7249   4.069   0.192   1.731 -0.4277 -0.3661  0.0083
 1325poe     o2 7250   3.997   0.310   1.703  0.1767  0.0752  0.2907
 1325poe    c23 7251   3.935   0.306   1.576 -0.3172 -0.2872  0.5394
 1325poe    c23 7252   3.803   0.386   1.575 -0.1918 -0.0835 -0.0192
 1325poe     o2 7253   3.714   0.346   1.677 -0.2387 -0.2008 -0.1045
 1325poe    c23 7254   3.634   0.461   1.691  0.2446  0.1168  0.0875
 1325poe    c23 7255   3.510   0.417   1.771  0.1453 -0.0886 -0.1803
 1325poe     o2 7256   3.562   0.354   1.886  0.3983 -0.3909 -0.4574
 1325poe    c23 7257   3.468   0.284   1.963 -0.1975  0.4606 -0.3945
 1325poe    c23 7258   3.544   0.242   2.090 -0.2717  0.4258 -0.3613
 1325poe     o2 7259   3.657   0.166   2.054 -0.3326 -0.1299  0.5852
 1325poe    c31 7260   3.718   0.125   2.175 -0.0420 -1.0210  0.1492
 1326poe    c31 7261   2.153   3.225   1.638  0.0387  0.3499 -0.2780
 1326poe     o2 7262   2.271   3.228   1.560  0.3624 -0.3481  0.1722
 1326poe    c23 7263   2.286   3.108   1.488  0.7531 -0.0770 -0.2062
 1326poe    c23 7264   2.339   3.128   1.345  0.0561 -0.1859 -0.4828
 1326poe     o2 7265   2.451   3.213   1.350  0.0213 -0.1556 -0.2041
 1326poe    c23 7266   2.454   3.290   1.232  0.3759 -0.5508 -0.4543
 1326poe    c23 7267   2.344   3.396   1.215  0.2293 -0.5393  0.5075
 1326poe     o2 7268   2.328   3.496   1.313  0.0906  0.3127 -0.3664
 1326poe    c23 7269   2.214   3.575   1.287 -0.2462 -0.0287  0.0699
 1326poe    c23 7270   2.208   3.712   1.356 -0.5127 -0.0112  0.0134
 1326poe     o2 7271   2.226   3.713   1.496  0.5775 -0.0361 -0.1179
 1326poe    c31 7272   2.281   3.829   1.553  0.0268  0.2463 -0.1530
 1327poe    c31 7273   4.011   1.749   1.873  0.3027 -0.0852  0.4862
 1327poe     o2 7274   3.994   1.617   1.829 -0.2878  0.0160  0.4010
 1327poe    c23 7275   3.949   1.534   1.934 -0.3022 -0.3087  0.1407
 1327poe    c23 7276   3.983   1.385   1.913 -0.1043 -0.2341 -0.0731
 1327poe     o2 7277   4.119   1.363   1.942 -0.1425 -0.6037 -0.1677
 1327poe    c23 7278   4.182   1.242   1.908 -0.1174 -0.6980  0.2122
 1327poe    c23 7279   4.328   1.222   1.952 -0.0357  0.2910  0.4119
 1327poe     o2 7280   4.339   1.189   2.089 -0.3262 -0.9313  0.1563
 1327poe    c23 7281   4.477   1.185   2.115 -0.3921 -0.5571  0.5719
 1327poe    c23 7282   4.528   1.142   2.254  0.0372 -0.3608  0.4770
 1327poe     o2 7283   4.513   1.003   2.272  0.6212 -0.4847  0.0329
 1327poe    c31 7284   4.489   0.987   2.410 -0.6246  0.0418 -0.1111
 1328poe    c31 7285   0.320   5.579   5.557  0.1068  0.1675  0.0199
 1328poe     o2 7286   0.356   5.494   5.450 -0.0055  0.0737  0.0572
 1328poe    c23 7287   0.486   5.451   5.481  0.0837  0.4325  0.1810
 1328poe    c23 7288   0.517   5.337   5.382 -0.7426  0.0901  0.3152
 1328poe     o2 7289   0.451   5.215   5.406 -0.2371 -0.2958 -0.2370
 1328poe    c23 7290   0.498   5.105   5.330 -0.0156  0.0112 -0.5458
 1328poe    c23 7291   0.453   4.975   5.400 -0.4266  0.5615  0.2339
 1328poe     o2 7292   0.321   5.002   5.441 -0.2780  0.4081  0.8241
 1328poe    c23 7293   0.253   4.882   5.469  0.3811 -0.0620  0.4445
 1328poe    c23 7294   0.110   4.920   5.511  0.1068 -0.4456 -0.1307
 1328poe     o2 7295   0.104   5.036   5.591 -0.1408 -0.1308 -0.6015
 1328poe    c31 7296  -0.007   5.047   5.677  0.2739 -0.2349 -0.0459
 1329poe    c31 7297   5.950   6.804   3.842  0.2288 -0.4166  0.1297
 1329poe     o2 7298   5.915   6.939   3.822  0.0008 -0.4365  0.3940
 1329poe    c23 7299   6.010   7.033   3.866  0.2460 -0.2626 -0.4859
 1329poe    c23 7300   5.990   7.170   3.797 -0.0048 -0.0250  0.0543
 1329poe     o2 7301   5.973   7.158   3.658 -0.0717  0.0249  0.0580
 1329poe    c23 7302   5.989   7.287   3.605  0.4804 -0.1420 -0.1938
 1329poe    c23 7303   5.967   7.275   3.453 -0.3249 -0.0604 -0.0876
 1329poe     o2 7304   5.836   7.225   3.432 -0.4086  0.0659  0.1206
 1329poe    c23 7305   5.810   7.220   3.293  0.1755  0.1909  0.0002
 1329poe    c23 7306   5.657   7.198   3.297  0.1869  0.1360  0.1599
 1329poe     o2 7307   5.630   7.090   3.383  0.3503 -0.0385 -0.0047
 1329poe    c31 7308   5.491   7.069   3.383  0.3012  0.2834 -0.1803
 1330poe    c31 7309   3.450   2.056   5.466  0.2085  0.2930  0.3256
 1330poe     o2 7310   3.578   2.087   5.415  0.2533 -0.4403 -0.0246
 1330poe    c23 7311   3.612   2.223   5.437  0.5883 -0.4318 -0.5565
 1330poe    c23 7312   3.554   2.307   5.322  0.3276 -0.4601 -0.4491
 1330poe     o2 7313   3.581   2.272   5.188 -0.3698 -0.9538 -0.4627
 1330poe    c23 7314   3.509   2.363   5.107  0.3242 -0.1457 -0.1785
 1330poe    c23 7315   3.460   2.267   4.997 -0.2629 -0.4805  0.3705
 1330poe     o2 7316   3.571   2.194   4.949  0.1688  0.3003  0.1583
 1330poe    c23 7317   3.546   2.091   4.855 -0.0992  0.1505  0.3904
 1330poe    c23 7318   3.687   2.034   4.829 -0.2176  0.2124 -0.4039
 1330poe     o2 7319   3.756   2.025   4.951  0.0346  0.2715 -0.5432
 1330poe    c31 7320   3.867   1.939   4.934 -0.3581 -0.3483 -0.0093
 1331poe    c31 7321   6.827   1.138   6.110 -0.3957 -0.5153  0.3761
 1331poe     o2 7322   6.864   1.004   6.134  0.0473 -0.4101  0.2983
 1331poe    c23 7323   6.918   0.942   6.020  0.3726  0.0467  0.2002
 1331poe    c23 7324   6.987   0.810   6.061  0.3220 -0.1405 -0.3099
 1331poe     o2 7325   6.897   0.711   6.105 -0.0620  0.0984 -0.5507
 1331poe    c23 7326   6.959   0.585   6.119  0.0939  0.3082  0.8069
 1331poe    c23 7327   6.854   0.472   6.118  0.0001  0.3893 -0.1630
 1331poe     o2 7328   6.751   0.526   6.198 -0.2012  0.3581 -0.3999
 1331poe    c23 7329   6.628   0.459   6.184 -0.3201  0.4155  0.3283
 1331poe    c23 7330   6.542   0.495   6.307 -0.8021 -0.2122  0.1807
 1331poe     o2 7331   6.529   0.634   6.324 -0.3726 -0.2023  0.4563
 1331poe    c31 7332   6.467   0.646   6.450  0.3212 -0.0755  0.7910
 1332poe    c31 7333   3.152   0.671   3.306  0.5110 -0.2381 -0.4797
 1332poe     o2 7334   3.081   0.696   3.186 -0.0029  0.1418 -0.1015
 1332poe    c23 7335   3.141   0.630   3.076 -0.1914 -0.3872  0.1125
 1332poe    c23 7336   3.059   0.658   2.948 -0.2909  0.3089  0.3210
 1332poe     o2 7337   3.031   0.796   2.940 -0.3381  0.2664 -0.2309
 1332poe    c23 7338   2.941   0.835   2.838  0.2344  0.4216 -0.6856
 1332poe    c23 7339   2.943   0.988   2.846 -0.5729  0.3966  0.1715
 1332poe     o2 7340   2.949   1.038   2.978  0.0730 -0.4707  0.4813
 1332poe    c23 7341   2.930   1.178   2.971  0.1414 -0.5025 -0.3859
 1332poe    c23 7342   2.977   1.235   3.106 -0.4815 -0.8296 -0.0235
 1332poe     o2 7343   3.116   1.226   3.128 -0.4705  0.3251  0.4517
 1332poe    c31 7344   3.156   1.327   3.218  0.2803  0.0817  0.3969
 1333poe    c31 7345   2.210   1.443   3.487 -0.1867 -0.0843 -0.4701
 1333poe     o2 7346   2.274   1.568   3.484  0.5338 -0.4282  0.0942
 1333poe    c23 7347   2.334   1.584   3.357 -0.2727 -0.2310 -0.2691
 1333poe    c23 7348   2.390   1.726   3.335 -0.3889 -0.1352  0.0488
 1333poe     o2 7349   2.290   1.826   3.344 -0.2013  0.1214 -0.7120
 1333poe    c23 7350   2.348   1.939   3.283  0.3764  0.0685 -0.2661
 1333poe    c23 7351   2.264   2.056   3.338  0.1509 -0.2923  0.1575
 1333poe     o2 7352   2.265   2.065   3.479  0.2793  0.5185  0.1104
 1333poe    c23 7353   2.202   2.182   3.527 -0.6243  0.0727  0.0381
 1333poe    c23 7354   2.141   2.156   3.666 -0.0340 -0.2609  0.2363
 1333poe     o2 7355   2.100   2.022   3.675  0.2235 -0.3295  0.4203
 1333poe    c31 7356   2.046   1.999   3.803 -0.0459  0.1291  0.3910
 1334poe    c31 7357   3.744   2.977   3.628  0.1519  0.1199  0.1336
 1334poe     o2 7358   3.688   3.070   3.718 -0.2429  0.0268 -0.0135
 1334poe    c23 7359   3.634   3.001   3.829  0.3730  0.0111  0.2796
 1334poe    c23 7360   3.554   3.107   3.907  0.2649 -0.4552  0.7973
 1334poe     o2 7361   3.653   3.204   3.931  0.2043 -0.2870  0.3576
 1334poe    c23 7362   3.610   3.323   3.992 -0.0767 -0.2029  0.0018
 1334poe    c23 7363   3.733   3.408   4.026  0.0855 -0.5505  0.2965
 1334poe     o2 7364   3.794   3.420   3.899 -0.0280  0.0276  0.2945
 1334poe    c23 7365   3.868   3.541   3.898  0.0282 -0.0081  0.0159
 1334poe    c23 7366   3.889   3.595   3.756  0.5844 -0.0438  0.0814
 1334poe     o2 7367   3.946   3.503   3.665 -0.4471 -0.4686 -0.1534
 1334poe    c31 7368   3.941   3.560   3.537 -0.0198 -0.2697 -0.0807
 1335poe    c31 7369   0.405   2.092   3.186  0.2768  0.3187 -0.6560
 1335poe     o2 7370   0.440   1.962   3.143 -0.5320 -0.0843 -0.1326
 1335poe    c23 7371   0.476   1.982   3.008 -0.3941 -0.0881 -0.0965
 1335poe    c23 7372   0.522   1.841   2.967 -0.0130 -0.0500  0.1863
 1335poe     o2 7373   0.582   1.783   3.081  0.3535 -0.0313  0.0029
 1335poe    c23 7374   0.607   1.648   3.049  0.3032  0.0070 -0.2021
 1335poe    c23 7375   0.681   1.586   3.169  0.0315  0.0433 -0.0142
 1335poe     o2 7376   0.625   1.623   3.293 -0.0390  0.2732 -0.1151
 1335poe    c23 7377   0.689   1.568   3.405  0.1859  0.5239 -0.1186
 1335poe    c23 7378   0.804   1.650   3.466  0.3708  0.1979 -0.0220
 1335poe     o2 7379   0.766   1.779   3.510 -0.5215 -0.1080  0.1347
 1335poe    c31 7380   0.803   1.830   3.636 -0.0486 -0.7434  0.2596
 1336poe    c31 7381   1.049   0.149   2.837 -0.3013  0.1235  0.4075
 1336poe     o2 7382   0.992   0.022   2.858 -0.2737  0.0056 -0.2163
 1336poe    c23 7383   1.016  -0.039   2.983 -0.5965 -0.1828 -0.2460
 1336poe    c23 7384   1.162  -0.083   3.003 -0.2887  0.5922 -0.7265
 1336poe     o2 7385   1.180  -0.193   2.916 -0.1739 -0.0048  0.0382
 1336poe    c23 7386   1.306  -0.247   2.952 -0.3066 -0.3622 -0.0319
 1336poe    c23 7387   1.318  -0.368   2.858 -0.3604 -0.2313 -0.2082
 1336poe     o2 7388   1.330  -0.306   2.732  0.3312 -0.5603 -0.3126
 1336poe    c23 7389   1.372  -0.386   2.624  0.4924 -0.3871 -0.3802
 1336poe    c23 7390   1.365  -0.298   2.498 -0.0439  0.3760  0.1735
 1336poe     o2 7391   1.233  -0.249   2.506 -0.0353  0.4003  0.1642
 1336poe    c31 7392   1.190  -0.199   2.381 -0.5808 -0.2058  0.1040
 1337poe    c31 7393   5.641   0.493   4.475  0.0697  0.1372  0.2030
 1337poe     o2 7394   5.762   0.561   4.498  0.2135  0.0139 -0.1670
 1337poe    c23 7395   5.827   0.515   4.615  0.1020 -0.1960 -0.1869
 1337poe    c23 7396   5.955   0.597   4.639 -0.1312  0.2565 -0.4725
 1337poe     o2 7397   6.046   0.605   4.531  0.0797  0.1140 -0.3047
 1337poe    c23 7398   6.160   0.676   4.574  0.4151 -0.4639 -0.2235
 1337poe    c23 7399   6.243   0.729   4.455  0.6041  0.6042  0.3668
 1337poe     o2 7400   6.179   0.832   4.383  0.1421 -0.0774 -0.2204
 1337poe    c23 7401   6.279   0.896   4.307 -0.0195  0.3593 -0.0691
 1337poe    c23 7402   6.207   0.991   4.210  0.2166  0.6112  0.0017
 1337poe     o2 7403   6.088   1.034   4.272  0.0583  0.0653  0.0787
 1337poe    c31 7404   6.028   1.132   4.191  0.2526 -0.2556 -0.4582
 1338poe    c31 7405   2.871   1.965   0.688 -0.3215 -0.1765  0.0517
 1338poe     o2 7406   2.836   2.073   0.772  0.0078 -0.2832  0.3298
 1338poe    c23 7407   2.708   2.063   0.829 -0.1997  0.1029 -0.0603
 1338poe    c23 7408   2.649   2.197   0.878 -0.5504 -0.1572  0.2330
 1338poe     o2 7409   2.731   2.252   0.978 -0.0630 -0.1271 -0.1785
 1338poe    c23 7410   2.679   2.370   1.035  0.0407  0.0398 -0.4283
 1338poe    c23 7411   2.783   2.483   1.023 -0.0173  0.1312 -0.0776
 1338poe     o2 7412   2.906   2.460   1.088 -0.1645 -0.0773  0.1288
 1338poe    c23 7413   2.970   2.585   1.094  0.0964 -0.2148  0.2454
 1338poe    c23 7414   3.075   2.562   1.204  0.2250 -0.2037  0.1250
 1338poe     o2 7415   3.117   2.428   1.194 -0.0991 -0.3109  0.2016
 1338poe    c31 7416   3.256   2.426   1.219  0.0434  0.0075 -0.5413
 1339poe    c31 7417   1.500   2.669   5.627  0.0655 -0.0636  0.7605
 1339poe     o2 7418   1.473   2.799   5.581  0.6031 -0.4477 -0.6781
 1339poe    c23 7419   1.359   2.798   5.498  0.2841  0.0369 -0.2498
 1339poe    c23 7420   1.350   2.919   5.404  0.4404  0.0452 -0.2536
 1339poe     o2 7421   1.422   3.025   5.464 -0.2075  0.2484  0.1676
 1339poe    c23 7422   1.410   3.156   5.414 -0.5740  0.2135  0.1564
 1339poe    c23 7423   1.508   3.245   5.494 -0.0588  0.1450 -0.3904
 1339poe     o2 7424   1.630   3.187   5.535 -0.2138  0.0822 -0.0082
 1339poe    c23 7425   1.681   3.254   5.649  0.4816  0.4005 -0.4940
 1339poe    c23 7426   1.833   3.248   5.674  0.3355 -0.0163  0.3350
 1339poe     o2 7427   1.877   3.115   5.679 -0.3351 -0.2513  0.1294
 1339poe    c31 7428   2.007   3.113   5.735 -0.3703 -0.2788  0.2117
 1340poe    c31 7429   6.113   2.323   4.341 -0.3219  0.4071 -0.8324
 1340poe     o2 7430   6.062   2.440   4.401  0.4609  0.1794  0.3266
 1340poe    c23 7431   5.973   2.426   4.509  0.0259 -0.2268 -0.0752
 1340poe    c23 7432   5.905   2.564   4.523  0.0477 -0.2339  0.1120
 1340poe     o2 7433   6.006   2.662   4.510 -0.1772 -0.0469 -0.2323
 1340poe    c23 7434   5.971   2.777   4.584  0.0041 -0.0119 -0.2025
 1340poe    c23 7435   6.072   2.891   4.562 -0.3735  0.2562 -0.5515
 1340poe     o2 7436   6.102   2.902   4.425  0.1753 -0.1083 -0.4636
 1340poe    c23 7437   6.222   2.972   4.399  0.2978 -0.0029  0.3518
 1340poe    c23 7438   6.221   3.006   4.248  0.4957 -0.5257  0.2321
 1340poe     o2 7439   6.249   2.894   4.168  0.0571 -0.3941 -0.1099
 1340poe    c31 7440   6.340   2.913   4.061  0.4891 -0.9805  0.1442
 1341poe    c31 7441   4.648   5.982   6.640 -0.0536  0.3021 -0.0570
 1341poe     o2 7442   4.677   6.089   6.727  0.7753  0.0440 -0.0116
 1341poe    c23 7443   4.653   6.034   6.855 -0.1914 -0.2173 -0.2913
 1341poe    c23 7444   4.587   6.119   6.965  0.2148 -0.3093  0.0264
 1341poe     o2 7445   4.675   6.217   7.015 -0.1766  0.3742 -0.6053
 1341poe    c23 7446   4.583   6.304   7.077 -0.3087 -0.4018  0.3198
 1341poe    c23 7447   4.677   6.394   7.158 -0.1214 -0.1132 -0.2135
 1341poe     o2 7448   4.793   6.435   7.089 -0.2044  0.1996 -0.1680
 1341poe    c23 7449   4.872   6.540   7.141 -0.2153  0.2338 -0.2188
 1341poe    c23 7450   5.005   6.553   7.065 -0.1003  0.0063 -0.0584
 1341poe     o2 7451   4.958   6.560   6.932 -0.2666 -0.4662 -0.0276
 1341poe    c31 7452   5.062   6.524   6.843  0.2559 -0.3946  0.5476
 1342poe    c31 7453   5.153   5.819   3.044  0.6628 -0.3561  0.0514
 1342poe     o2 7454   5.164   5.948   3.099 -0.1758 -0.5626  0.7074
 1342poe    c23 7455   5.278   5.959   3.180 -0.0428  0.1460  0.4326
 1342poe    c23 7456   5.262   6.095   3.250 -0.4747  0.3100  0.0137
 1342poe     o2 7457   5.248   6.188   3.145  0.5395  0.3416 -0.1006
 1342poe    c23 7458   5.294   6.319   3.170 -0.3461  0.5093  0.7051
 1342poe    c23 7459   5.250   6.419   3.061  0.1976  0.6352  0.5986
 1342poe     o2 7460   5.110   6.428   3.054  0.1629 -0.1202  0.2326
 1342poe    c23 7461   5.065   6.519   2.956  0.0971  0.3790  0.7190
 1342poe    c23 7462   4.917   6.503   2.918  0.4097 -0.2474 -0.2770
 1342poe     o2 7463   4.811   6.538   3.004  0.3242  0.0333 -0.4947
 1342poe    c31 7464   4.805   6.678   3.016  0.0463  0.0009 -0.2235
 1343poe    c31 7465   0.292   4.380   5.704  0.0438  0.1522  0.3388
 1343poe     o2 7466   0.378   4.303   5.623 -0.1610  0.3490 -0.0704
 1343poe    c23 7467   0.412   4.376   5.507  0.6267  0.1690  0.0385
 1343poe    c23 7468   0.493   4.292   5.407  0.4032 -0.2113  0.1773
 1343poe     o2 7469   0.415   4.180   5.370 -0.4318  0.3106  0.3333
 1343poe    c23 7470   0.350   4.180   5.246  0.2279 -0.3888 -0.0228
 1343poe    c23 7471   0.321   4.035   5.202 -0.4110 -0.3552  0.2730
 1343poe     o2 7472   0.247   3.984   5.310 -0.7064  0.6412  0.5515
 1343poe    c23 7473   0.233   3.846   5.287 -0.1091  0.6444  0.1587
 1343poe    c23 7474   0.184   3.772   5.413 -0.1006  0.3859  0.0111
 1343poe     o2 7475   0.265   3.790   5.527  0.3780  0.0216 -0.2693
 1343poe    c31 7476   0.193   3.766   5.646  0.4673 -0.2429 -0.2672
 1344poe    c31 7477   6.453   0.093   1.829 -0.3458 -0.5556  0.1953
 1344poe     o2 7478   6.354   0.155   1.908 -0.2788 -0.4385  0.1869
 1344poe    c23 7479   6.226   0.102   1.884 -0.2828 -0.5444  0.4363
 1344poe    c23 7480   6.100   0.171   1.940 -0.3877 -0.1469 -0.2696
 1344poe     o2 7481   6.081   0.306   1.905  0.0914 -0.0397 -0.1325
 1344poe    c23 7482   6.018   0.371   2.013 -0.8522 -0.1128 -0.6226
 1344poe    c23 7483   5.997   0.516   1.967  0.0340  0.2946  0.2158
 1344poe     o2 7484   6.105   0.581   1.904  0.0871  0.1468  0.1544
 1344poe    c23 7485   6.082   0.720   1.897 -0.2998  0.0637 -0.2783
 1344poe    c23 7486   6.218   0.789   1.875 -0.1183 -0.2222 -0.0587
 1344poe     o2 7487   6.308   0.704   1.809  0.0738 -0.4464  0.4823
 1344poe    c31 7488   6.399   0.776   1.729 -0.3318 -0.3882  0.0653
 1345poe    c31 7489   0.098   1.896   1.843 -0.2765  0.7462  1.0189
 1345poe     o2 7490   0.227   1.949   1.824 -0.2542  0.4247  0.2334
 1345poe    c23 7491   0.263   2.064   1.897  0.0852  0.3581  0.1725
 1345poe    c23 7492   0.377   2.154   1.845  0.3037 -0.0330 -0.0342
 1345poe     o2 7493   0.492   2.075   1.827  0.0943 -0.3388 -0.0221
 1345poe    c23 7494   0.601   2.154   1.786  0.1722 -0.0546  0.7256
 1345poe    c23 7495   0.722   2.069   1.743 -0.1772 -0.1700 -0.0376
 1345poe     o2 7496   0.675   1.976   1.648 -0.2153  0.0649 -0.2483
 1345poe    c23 7497   0.771   1.874   1.631  0.2725  0.4980 -0.1063
 1345poe    c23 7498   0.748   1.809   1.493  0.0624  0.0517  0.1391
 1345poe     o2 7499   0.609   1.810   1.472  0.1306 -0.1631 -0.3254
 1345poe    c31 7500   0.582   1.733   1.357 -0.3692 -1.0316  0.3672
 1346poe    c31 7501   0.376   1.805   2.149  0.4529 -0.0705 -0.1331
 1346poe     o2 7502   0.380   1.713   2.042 -0.1956 -0.2490 -0.0036
 1346poe    c23 7503   0.515   1.686   2.015 -0.1632 -0.3591  0.2636
 1346poe    c23 7504   0.536   1.601   1.888  0.2461 -0.0371  0.1108
 1346poe     o2 7505   0.464   1.484   1.920 -0.1890  0.0990 -0.3552
 1346poe    c23 7506   0.450   1.387   1.819  0.3940 -0.2564 -0.0998
 1346poe    c23 7507   0.379   1.260   1.868 -0.1050  0.0777  0.0410
 1346poe     o2 7508   0.244   1.296   1.887 -0.0827  0.2101 -0.0531
 1346poe    c23 7509   0.164   1.189   1.932 -0.3500  0.1444 -0.6746
 1346poe    c23 7510   0.024   1.236   1.976 -0.0758  0.3092  0.0215
 1346poe     o2 7511   0.027   1.320   2.090 -0.3356 -0.0279  0.2819
 1346poe    c31 7512   0.034   1.250   2.212  0.4659 -0.8188 -0.1992
 1347poe    c31 7513   5.641   1.564   3.653 -0.3243  0.2254  0.0480
 1347poe     o2 7514   5.629   1.704   3.649 -0.6988  0.1915  0.0223
 1347poe    c23 7515   5.618   1.734   3.511  0.3476  0.2336 -0.0579
 1347poe    c23 7516   5.486   1.698   3.439  0.1932  0.7835 -0.0569
 1347poe     o2 7517   5.375   1.766   3.493 -0.2916 -0.0299 -0.0177
 1347poe    c23 7518   5.253   1.726   3.434 -0.4930  0.6375 -0.0653
 1347poe    c23 7519   5.128   1.799   3.487 -0.6559  0.1653  0.2092
 1347poe     o2 7520   5.164   1.931   3.521  0.3121 -0.1440  0.4164
 1347poe    c23 7521   5.051   2.007   3.557  0.2156 -0.1853  0.2035
 1347poe    c23 7522   5.099   2.152   3.577  0.2883 -0.1396 -0.2965
 1347poe     o2 7523   5.213   2.147   3.659  0.2679  0.3301 -0.2388
 1347poe    c31 7524   5.243   2.281   3.693 -0.0002  0.3514 -0.0815
 1348poe    c31 7525   6.532   6.722   3.127 -0.2350  0.4580 -0.2591
 1348poe     o2 7526   6.493   6.650   3.012  0.1335 -0.0152 -0.0942
 1348poe    c23 7527   6.356   6.619   3.023  0.2605 -0.5315  0.0257
 1348poe    c23 7528   6.281   6.627   2.889 -0.2176  0.2815  0.3363
 1348poe     o2 7529   6.347   6.537   2.803 -0.8750  0.1322 -0.0191
 1348poe    c23 7530   6.272   6.517   2.685 -0.2137 -0.1893 -0.3953
 1348poe    c23 7531   6.342   6.428   2.581 -0.2982 -0.1692 -0.4701
 1348poe     o2 7532   6.466   6.491   2.559 -0.5229  0.1387 -0.8494
 1348poe    c23 7533   6.534   6.448   2.443  0.0555  0.2440 -0.5475
 1348poe    c23 7534   6.673   6.511   2.467  0.1862 -0.2737  0.0723
 1348poe     o2 7535   6.712   6.462   2.594  0.0054  0.2459  0.3303
 1348poe    c31 7536   6.848   6.489   2.621  0.0208  0.3659  0.1370
 1349poe    c31 7537   0.289   5.761   6.773 -0.2204  0.2364  0.2163
 1349poe     o2 7538   0.349   5.837   6.670  0.2436 -0.0659  0.2601
 1349poe    c23 7539   0.336   5.769   6.547  0.6528 -0.1994  0.2913
 1349poe    c23 7540   0.393   5.840   6.423  0.6414 -0.4158  0.1628
 1349poe     o2 7541   0.342   5.966   6.385  0.4994 -0.5362 -0.0512
 1349poe    c23 7542   0.397   6.005   6.262  0.2532 -0.5349 -0.1615
 1349poe    c23 7543   0.281   6.063   6.179  0.5477 -0.1159 -0.2795
 1349poe     o2 7544   0.221   6.170   6.250 -0.1368 -0.1563 -0.7916
 1349poe    c23 7545   0.256   6.293   6.190 -0.2135  0.2339 -0.0421
 1349poe    c23 7546   0.200   6.419   6.257 -0.0938  0.1520  0.2119
 1349poe     o2 7547   0.268   6.436   6.379 -0.0766 -0.3251  0.2711
 1349poe    c31 7548   0.250   6.564   6.437 -0.3508 -0.3428  0.2254
 1350poe    c31 7549   6.652   5.195   6.396 -1.0672  1.2624 -0.1915
 1350poe     o2 7550   6.662   5.260   6.271 -0.2252  0.5127 -0.5230
 1350poe    c23 7551   6.537   5.285   6.212 -0.4847 -0.0773 -0.2316
 1350poe    c23 7552   6.545   5.407   6.118 -0.2232  0.2146  0.1639
 1350poe     o2 7553   6.658   5.382   6.037 -0.2961  0.5031 -0.0290
 1350poe    c23 7554   6.701   5.500   5.973 -0.3300  0.5708  0.0729
 1350poe    c23 7555   6.827   5.466   5.892  0.1719  0.4953  0.8735
 1350poe     o2 7556   6.903   5.375   5.969  0.5693  0.1795  0.1214
 1350poe    c23 7557   7.029   5.346   5.914  0.4080  0.3796 -0.3579
 1350poe    c23 7558   7.109   5.257   6.011 -0.4127 -0.1853 -0.1908
 1350poe     o2 7559   7.128   5.310   6.140 -0.0666 -0.3550 -0.1725
 1350poe    c31 7560   7.202   5.222   6.223  0.5879  0.7168  0.4076
 1351poe    c31 7561   1.409   2.787   4.504  0.5401 -0.4047  0.8919
 1351poe     o2 7562   1.477   2.900   4.454 -0.2538 -0.1843  0.3060
 1351poe    c23 7563   1.573   2.939   4.550  0.1132 -0.4144  0.0324
 1351poe    c23 7564   1.631   3.081   4.535 -0.1990 -0.2856  0.0363
 1351poe     o2 7565   1.538   3.186   4.545  0.3381  0.1837  0.1522
 1351poe    c23 7566   1.593   3.311   4.511 -0.0939  0.2769 -0.2181
 1351poe    c23 7567   1.503   3.427   4.557 -0.1872  0.3239 -0.5237
 1351poe     o2 7568   1.373   3.383   4.525 -0.2061  0.2914 -0.4025
 1351poe    c23 7569   1.296   3.486   4.468 -0.2269  0.6290  0.2333
 1351poe    c23 7570   1.196   3.412   4.378  0.6570 -0.2398 -0.0451
 1351poe     o2 7571   1.175   3.286   4.438  0.2910 -0.2634 -0.2149
 1351poe    c31 7572   1.037   3.272   4.462  0.2691 -0.1614 -0.2804
 1352poe    c31 7573   0.363   1.268   6.110 -0.3689 -0.6695  0.3680
 1352poe     o2 7574   0.310   1.390   6.156  0.6526  0.1260 -0.5128
 1352poe    c23 7575   0.223   1.445   6.060 -0.0630 -0.3545 -0.1450
 1352poe    c23 7576   0.175   1.585   6.106 -0.0684 -0.4268  0.0700
 1352poe     o2 7577   0.150   1.581   6.245  0.0321  0.6539  0.1275
 1352poe    c23 7578   0.119   1.712   6.286 -0.0480  0.8095 -0.4174
 1352poe    c23 7579   0.092   1.685   6.435  0.3389 -0.3877 -0.5544
 1352poe     o2 7580   0.192   1.606   6.496  0.0590  0.0940  0.5570
 1352poe    c23 7581   0.178   1.593   6.636  0.2082 -0.2362  0.5427
 1352poe    c23 7582   0.045   1.545   6.696 -0.3285  0.0988 -0.3648
 1352poe     o2 7583   0.029   1.415   6.644 -0.0320  0.0128 -0.2370
 1352poe    c31 7584  -0.079   1.352   6.709  0.5869 -0.5181  0.3004
 1353poe    c31 7585   2.714   5.035   1.259 -0.5139  0.2438  0.1553
 1353poe     o2 7586   2.622   4.943   1.314  0.1546 -0.6449 -0.1924
 1353poe    c23 7587   2.518   4.917   1.222 -0.2061 -0.1108  0.0605
 1353poe    c23 7588   2.452   4.786   1.267  0.5511 -0.4146  0.3130
 1353poe     o2 7589   2.457   4.784   1.407  0.1013  0.2274  0.3414
 1353poe    c23 7590   2.382   4.679   1.465  0.4615 -0.2788 -0.1088
 1353poe    c23 7591   2.364   4.716   1.613 -0.1102  0.1416 -0.2790
 1353poe     o2 7592   2.491   4.735   1.671 -0.1209  0.2700 -0.2995
 1353poe    c23 7593   2.477   4.755   1.810  0.4162 -0.5479 -0.1206
 1353poe    c23 7594   2.615   4.767   1.877  0.1408 -0.2771  0.4049
 1353poe     o2 7595   2.686   4.882   1.837 -0.0522 -0.2798  0.0579
 1353poe    c31 7596   2.812   4.871   1.899 -0.0765 -0.7617  0.0260
 1354poe    c31 7597   6.724   3.854   0.103  0.4036 -0.2855 -0.0213
 1354poe     o2 7598   6.764   3.989   0.115 -0.1824 -0.1117 -0.0021
 1354poe    c23 7599   6.894   4.010   0.065 -0.3126  0.2487 -0.1951
 1354poe    c23 7600   6.913   4.162   0.075 -0.0274  0.1812  0.3224
 1354poe     o2 7601   6.793   4.236   0.067 -0.1925 -0.1453 -0.2041
 1354poe    c23 7602   6.819   4.374   0.053  0.0162 -0.1878 -0.2421
 1354poe    c23 7603   6.679   4.426   0.016 -0.0935 -0.0276  0.3880
 1354poe     o2 7604   6.593   4.393   0.123 -0.1756 -0.6388  0.1351
 1354poe    c23 7605   6.463   4.423   0.077 -0.0733  0.3446  0.4784
 1354poe    c23 7606   6.352   4.338   0.140 -0.2688  0.0244 -0.2846
 1354poe     o2 7607   6.352   4.202   0.100  0.3451 -0.0833  0.0613
 1354poe    c31 7608   6.224   4.144   0.112  0.1270  0.2228 -0.7208
 1355poe    c31 7609   3.450   6.285   4.532 -0.1428 -0.2658 -0.2280
 1355poe     o2 7610   3.550   6.364   4.592 -0.4455 -0.3004  0.3321
 1355poe    c23 7611   3.641   6.270   4.644  0.5858  0.0053 -0.8547
 1355poe    c23 7612   3.758   6.344   4.711  0.1207 -0.4451  0.4878
 1355poe     o2 7613   3.718   6.416   4.826 -0.1685 -0.4004  0.3604
 1355poe    c23 7614   3.826   6.470   4.901  0.0804 -0.3779 -0.0099
 1355poe    c23 7615   3.763   6.525   5.030 -0.0076  0.2283 -0.3082
 1355poe     o2 7616   3.653   6.609   5.002  0.1258  0.3339 -0.5212
 1355poe    c23 7617   3.603   6.667   5.120  0.5622  0.0881 -0.2128
 1355poe    c23 7618   3.487   6.757   5.075  0.1164 -0.2013  0.3371
 1355poe     o2 7619   3.404   6.688   4.984  0.2427 -0.0541  0.1083
 1355poe    c31 7620   3.275   6.743   4.975  0.0905 -0.4145  0.0645
 1356poe    c31 7621   5.816   4.386   0.316 -0.1574  0.4882 -0.2083
 1356poe     o2 7622   5.857   4.344   0.444  0.2102  0.3678 -0.3635
 1356poe    c23 7623   5.885   4.206   0.451 -0.3668  0.2909  0.6564
 1356poe    c23 7624   5.835   4.141   0.581 -0.8877 -0.4414  0.0921
 1356poe     o2 7625   5.935   4.179   0.672 -0.2280 -0.3282 -0.6701
 1356poe    c23 7626   5.921   4.082   0.774 -0.2337  0.0163 -0.3404
 1356poe    c23 7627   6.044   4.067   0.866 -0.3180  0.1086 -0.2124
 1356poe     o2 7628   6.064   4.198   0.914  0.4142  0.1471 -0.6077
 1356poe    c23 7629   6.167   4.211   1.010  0.2879  0.0482 -0.4573
 1356poe    c23 7630   6.185   4.364   1.024 -0.3591  0.0814  0.0293
 1356poe     o2 7631   6.196   4.433   0.902 -0.5003  0.0106 -0.0241
 1356poe    c31 7632   6.250   4.561   0.923 -0.4745  0.0323 -0.2266
 1357poe    c31 7633   1.257   0.622   2.698 -0.2497  0.0398 -0.3207
 1357poe     o2 7634   1.391   0.645   2.662 -0.0601 -0.0481  0.3200
 1357poe    c23 7635   1.466   0.526   2.676  0.0092 -0.1066 -0.4864
 1357poe    c23 7636   1.607   0.553   2.620  0.3758 -0.3229  0.3213
 1357poe     o2 7637   1.606   0.625   2.499  0.4736 -0.3742  0.2894
 1357poe    c23 7638   1.732   0.675   2.459 -0.0353  0.9828  0.3285
 1357poe    c23 7639   1.703   0.755   2.331  0.0832  0.4278 -0.0438
 1357poe     o2 7640   1.627   0.868   2.365 -0.6952 -0.0450 -0.1825
 1357poe    c23 7641   1.635   0.955   2.255  0.2980  0.3104  0.1624
 1357poe    c23 7642   1.495   0.980   2.196  0.2682 -0.2117  0.0054
 1357poe     o2 7643   1.445   0.857   2.150  0.0694 -0.1969  0.1838
 1357poe    c31 7644   1.384   0.888   2.027 -0.1202 -0.3488  0.2372
 1358poe    c31 7645   0.859   6.214   3.665 -0.8267  0.1286 -0.1971
 1358poe     o2 7646   0.960   6.259   3.753 -0.6439 -0.1012 -0.2890
 1358poe    c23 7647   0.915   6.333   3.864  0.0497  0.3731 -0.3236
 1358poe    c23 7648   1.032   6.408   3.932  0.5444 -0.2801 -0.4437
 1358poe     o2 7649   1.143   6.334   3.976  0.5105 -0.0455  0.0456
 1358poe    c23 7650   1.223   6.385   4.080 -0.0823 -0.0377  0.4999
 1358poe    c23 7651   1.350   6.303   4.108  0.4659  0.5120 -0.3433
 1358poe     o2 7652   1.409   6.271   3.984  0.0705 -0.0368 -0.3921
 1358poe    c23 7653   1.483   6.150   3.984  0.0049 -0.0814  0.4114
 1358poe    c23 7654   1.583   6.169   3.869 -0.3870 -0.0708  0.0694
 1358poe     o2 7655   1.499   6.219   3.768 -0.0581  0.2360 -0.0558
 1358poe    c31 7656   1.571   6.255   3.652  0.1487 -0.1632 -0.0539
 1359poe    c31 7657   1.524   3.569   3.719 -0.2229  0.0462  0.8034
 1359poe     o2 7658   1.386   3.598   3.728 -0.2752 -0.0809  0.4075
 1359poe    c23 7659   1.311   3.483   3.696  0.0866 -0.2878  0.2895
 1359poe    c23 7660   1.167   3.537   3.682  0.0112 -0.6289 -0.2389
 1359poe     o2 7661   1.143   3.632   3.783  0.4874 -0.6050 -0.1427
 1359poe    c23 7662   1.007   3.633   3.820  0.3758 -0.0882 -0.5531
 1359poe    c23 7663   0.973   3.782   3.840  0.3240 -0.2119  0.3400
 1359poe     o2 7664   1.079   3.843   3.910  0.0452  0.4655  0.1777
 1359poe    c23 7665   1.039   3.976   3.931 -0.4166  0.3219  0.2052
 1359poe    c23 7666   1.149   4.071   3.981 -0.1700  0.3236 -0.3423
 1359poe     o2 7667   1.239   4.095   3.875 -0.0071  0.6194 -0.1396
 1359poe    c31 7668   1.348   4.160   3.937  0.0426 -0.1774  0.6134
 1360poe    c31 7669   2.523   0.538   2.453  0.5151  0.9881 -0.1593
 1360poe     o2 7670   2.582   0.514   2.327 -0.1332  0.9102 -0.4499
 1360poe    c23 7671   2.486   0.543   2.227 -0.6933 -0.4513 -0.3430
 1360poe    c23 7672   2.502   0.438   2.116 -0.1619 -0.5027 -0.2219
 1360poe     o2 7673   2.628   0.442   2.053 -0.2381 -0.4740 -0.3739
 1360poe    c23 7674   2.674   0.309   2.044  0.4052 -0.3021  0.2811
 1360poe    c23 7675   2.823   0.314   2.085  0.3422 -0.9307  0.5988
 1360poe     o2 7676   2.836   0.379   2.209  0.3734  0.2824 -0.0309
 1360poe    c23 7677   2.967   0.382   2.262  0.2262  0.3155  0.3396
 1360poe    c23 7678   2.945   0.433   2.405  0.4880 -0.1427  0.5428
 1360poe     o2 7679   2.849   0.535   2.394  0.4938 -0.2510 -0.5582
 1360poe    c31 7680   2.905   0.635   2.475  0.3125 -0.2185 -0.4722
 1361poe    c31 7681   2.446   4.034   5.578 -0.2490 -0.1882 -0.1893
 1361poe     o2 7682   2.472   4.172   5.560 -0.0518 -0.2722 -0.5527
 1361poe    c23 7683   2.554   4.175   5.445  0.0631 -0.0312 -0.4654
 1361poe    c23 7684   2.625   4.311   5.434  0.0200  0.0777  0.5226
 1361poe     o2 7685   2.528   4.399   5.487  0.0418  0.0661  0.5819
 1361poe    c23 7686   2.579   4.524   5.529 -0.1118  0.4514 -0.3460
 1361poe    c23 7687   2.462   4.597   5.597 -0.3769 -0.2202 -0.0609
 1361poe     o2 7688   2.420   4.498   5.687 -0.1867 -0.0496  0.2207
 1361poe    c23 7689   2.283   4.528   5.705 -0.2850  0.0593 -0.6354
 1361poe    c23 7690   2.214   4.418   5.787  0.4515  0.0538 -0.0002
 1361poe     o2 7691   2.244   4.294   5.728  0.2955 -0.2803  0.6145
 1361poe    c31 7692   2.161   4.194   5.783 -0.1067 -0.5099 -0.3897
 1362poe    c31 7693   2.250   1.483   0.685 -0.1201 -0.0308  0.3473
 1362poe     o2 7694   2.317   1.447   0.804  0.3121 -0.2946  0.0244
 1362poe    c23 7695   2.259   1.505   0.919 -0.6298 -0.2455 -0.4673
 1362poe    c23 7696   2.364   1.494   1.031 -0.4347  0.2805 -0.5977
 1362poe     o2 7697   2.496   1.510   0.983 -0.2292 -0.0006 -0.1334
 1362poe    c23 7698   2.592   1.518   1.086 -0.1381 -0.2690 -0.1975
 1362poe    c23 7699   2.733   1.507   1.025  0.0517 -0.2075  0.2266
 1362poe     o2 7700   2.750   1.382   0.961 -0.2640 -0.0661 -0.1369
 1362poe    c23 7701   2.876   1.364   0.901 -0.1833 -0.0925  0.0414
 1362poe    c23 7702   2.879   1.227   0.831 -0.3953  0.0064 -0.1591
 1362poe     o2 7703   2.779   1.227   0.731 -0.2367  0.3362 -0.3199
 1362poe    c31 7704   2.799   1.130   0.630  0.7216  0.4132 -0.2163
 1363poe    c31 7705   1.747   4.853   2.428  0.2247 -0.2128 -0.3235
 1363poe     o2 7706   1.857   4.891   2.348  0.2615  0.6405  0.1154
 1363poe    c23 7707   1.816   4.892   2.213 -0.4949  0.2610  0.3355
 1363poe    c23 7708   1.932   4.947   2.127 -0.1978 -0.7062  0.1081
 1363poe     o2 7709   2.046   4.926   2.207 -0.1467  0.0331  0.2389
 1363poe    c23 7710   2.160   4.959   2.131 -0.5125 -0.0173 -0.3385
 1363poe    c23 7711   2.288   4.883   2.172 -0.5358  0.2550  0.2381
 1363poe     o2 7712   2.324   4.916   2.305 -0.1725 -0.7949  0.4109
 1363poe    c23 7713   2.420   4.832   2.363  0.2623 -0.6396 -0.0763
 1363poe    c23 7714   2.425   4.855   2.515 -0.0048  0.1073 -0.1766
 1363poe     o2 7715   2.297   4.827   2.569  0.0913 -0.0329 -0.0199
 1363poe    c31 7716   2.296   4.831   2.710 -0.6714 -0.0869 -0.0244
 1364poe    c31 7717   5.372   4.646   0.777 -0.3402 -0.3630  0.2904
 1364poe     o2 7718   5.302   4.524   0.775 -0.7644 -0.1192 -0.4033
 1364poe    c23 7719   5.285   4.473   0.906 -0.2842  0.4151 -0.1284
 1364poe    c23 7720   5.203   4.342   0.900 -0.3034  0.4067  0.2877
 1364poe     o2 7721   5.067   4.361   0.869 -0.1864 -0.2691 -0.6950
 1364poe    c23 7722   4.994   4.241   0.869 -0.3537 -0.1812  0.5581
 1364poe    c23 7723   4.847   4.283   0.851 -0.1883  0.0495 -0.2856
 1364poe     o2 7724   4.823   4.388   0.760 -0.5469  0.0371 -0.2067
 1364poe    c23 7725   4.688   4.427   0.747 -0.6757 -0.1887  0.4085
 1364poe    c23 7726   4.688   4.553   0.659 -0.1698 -0.3958  0.1044
 1364poe     o2 7727   4.778   4.649   0.710 -0.8692  0.1436  0.3415
 1364poe    c31 7728   4.731   4.770   0.654 -0.5743  0.0725 -0.0666
 1365poe    c31 7729   0.597   3.194   0.921 -0.1171 -0.0025  0.3495
 1365poe     o2 7730   0.473   3.251   0.954 -0.4018 -0.4108 -0.0067
 1365poe    c23 7731   0.474   3.374   1.023 -0.3817 -0.1596 -0.4582
 1365poe    c23 7732   0.340   3.389   1.097 -0.0480  0.1014  0.0985
 1365poe     o2 7733   0.221   3.382   1.021 -0.0025 -1.0238  0.1196
 1365poe    c23 7734   0.107   3.391   1.102 -0.2169  0.8337 -0.3592
 1365poe    c23 7735  -0.014   3.438   1.018 -0.4270  0.5091 -0.2399
 1365poe     o2 7736  -0.015   3.354   0.905 -0.3237 -0.1607  0.2494
 1365poe    c23 7737  -0.106   3.383   0.801  0.0732 -0.1929 -0.1140
 1365poe    c23 7738  -0.082   3.275   0.694 -0.0812 -0.4873  0.1437
 1365poe     o2 7739   0.049   3.289   0.644 -0.2996  0.1679 -0.2661
 1365poe    c31 7740   0.082   3.220   0.525 -0.1291  0.4664 -0.3918
 1366poe    c31 7741   2.060   3.252   5.271 -0.1886 -0.0305  0.0151
 1366poe     o2 7742   2.128   3.374   5.250 -0.1207 -0.0744 -0.0209
 1366poe    c23 7743   2.250   3.361   5.319  0.1441 -0.2607 -0.5237
 1366poe    c23 7744   2.254   3.397   5.469 -0.5803 -0.6479 -0.4062
 1366poe     o2 7745   2.197   3.523   5.495  0.8039 -0.1123  0.1603
 1366poe    c23 7746   2.189   3.550   5.633 -0.8247  0.2897  0.0135
 1366poe    c23 7747   2.134   3.692   5.650  0.0040  0.5701  0.4063
 1366poe     o2 7748   2.043   3.735   5.551 -0.2446 -0.0301  0.3738
 1366poe    c23 7749   2.003   3.870   5.560  0.6932  0.2676  0.1486
 1366poe    c23 7750   1.975   3.923   5.418  0.7052 -0.2718 -0.0572
 1366poe     o2 7751   2.093   3.917   5.341  0.4475 -1.3136 -0.3885
 1366poe    c31 7752   2.086   4.010   5.236 -0.4770 -0.8769  0.0527
 1367poe    c31 7753   4.565   3.065   2.087  0.7351 -0.2122  0.1522
 1367poe     o2 7754   4.525   2.999   2.205 -0.0967  0.1528  0.0852
 1367poe    c23 7755   4.387   2.968   2.212 -0.0382 -0.1613 -0.1418
 1367poe    c23 7756   4.324   2.899   2.334 -0.0271  0.5788  0.2915
 1367poe     o2 7757   4.305   2.981   2.447  0.3984  0.2206  0.6288
 1367poe    c23 7758   4.265   2.901   2.556 -0.8356 -0.0933 -0.0328
 1367poe    c23 7759   4.214   2.995   2.667  0.1469  0.6198 -0.1635
 1367poe     o2 7760   4.081   3.036   2.646 -0.0144  0.2088  0.0327
 1367poe    c23 7761   4.029   3.122   2.744  0.0836 -0.2421  0.4814
 1367poe    c23 7762   3.880   3.152   2.715  0.2118 -0.4481 -0.4223
 1367poe     o2 7763   3.860   3.223   2.596  0.0635  0.7171  0.2809
 1367poe    c31 7764   3.725   3.264   2.591 -0.0649  0.2432 -0.1678
 1368poe    c31 7765   6.146   4.812   6.233  0.0245 -0.2957  0.6401
 1368poe     o2 7766   6.181   4.919   6.148 -0.1323 -0.7953 -0.0573
 1368poe    c23 7767   6.312   4.954   6.188 -0.4768  0.5003 -0.0328
 1368poe    c23 7768   6.413   4.979   6.075 -0.3096 -0.0272 -0.0015
 1368poe     o2 7769   6.364   5.093   6.009 -0.2194  0.1413  0.2215
 1368poe    c23 7770   6.414   5.101   5.877  0.0597 -0.4354  0.2898
 1368poe    c23 7771   6.392   5.239   5.814 -0.0252 -0.7583 -0.3981
 1368poe     o2 7772   6.255   5.273   5.824  0.1718 -0.0519 -0.0027
 1368poe    c23 7773   6.234   5.399   5.766 -0.3101 -0.1701 -0.0935
 1368poe    c23 7774   6.081   5.408   5.776 -0.2973  0.3771 -0.3314
 1368poe     o2 7775   6.026   5.375   5.901 -0.2997 -0.1197 -0.4603
 1368poe    c31 7776   5.916   5.459   5.926  0.0786  0.3678 -0.4066
 1369poe    c31 7777   1.428   5.983   1.734 -0.0274  0.3743 -0.0308
 1369poe     o2 7778   1.297   5.948   1.699  0.0431  0.4344 -0.3565
 1369poe    c23 7779   1.233   6.071   1.671  0.0304  0.4339 -0.3276
 1369poe    c23 7780   1.081   6.046   1.686  0.1122 -0.0688 -0.3421
 1369poe     o2 7781   1.053   5.935   1.604 -0.0545 -0.4364  0.2045
 1369poe    c23 7782   0.917   5.925   1.566 -0.0706 -0.1660  0.1902
 1369poe    c23 7783   0.920   5.813   1.461 -0.6063  0.1494 -0.1688
 1369poe     o2 7784   1.007   5.707   1.497 -0.1754  0.4525 -0.3017
 1369poe    c23 7785   0.965   5.589   1.432 -0.4709  0.3296  0.1076
 1369poe    c23 7786   1.017   5.459   1.497 -0.7788  0.0494 -0.1968
 1369poe     o2 7787   1.017   5.454   1.637  0.3388 -0.4708 -0.2019
 1369poe    c31 7788   1.055   5.327   1.685 -0.0459 -0.6993 -0.5007
 1370poe    c31 7789   4.830   6.065   4.804  0.2706 -0.1358 -0.5044
 1370poe     o2 7790   4.695   6.105   4.810  0.5507  0.7690  0.1035
 1370poe    c23 7791   4.626   6.006   4.736  0.2405  0.6675  0.5292
 1370poe    c23 7792   4.473   6.019   4.747  0.1082  0.1015 -0.5630
 1370poe     o2 7793   4.449   6.157   4.731  0.4013  0.2068 -0.1085
 1370poe    c23 7794   4.315   6.196   4.750  0.1586 -0.2641 -0.8194
 1370poe    c23 7795   4.310   6.347   4.722 -0.5213 -0.0571  0.3401
 1370poe     o2 7796   4.408   6.429   4.782 -0.5562  0.2203  0.0213
 1370poe    c23 7797   4.376   6.567   4.780 -0.1877  0.3205  0.7136
 1370poe    c23 7798   4.458   6.658   4.873  0.2577  0.6743 -0.0217
 1370poe     o2 7799   4.596   6.632   4.862  0.0016 -0.6360 -0.2499
 1370poe    c31 7800   4.657   6.683   4.978  0.0145 -0.8316 -0.1700
 1371poe    c31 7801   0.895   0.307   4.672 -0.3057 -0.3446  0.5564
 1371poe     o2 7802   0.977   0.222   4.749  0.2435 -0.0037  0.3558
 1371poe    c23 7803   1.088   0.294   4.797  0.3126  0.6461 -0.7373
 1371poe    c23 7804   1.182   0.194   4.867 -0.5237 -0.2770 -0.9093
 1371poe     o2 7805   1.126   0.122   4.975  0.0554  0.2358 -0.2571
 1371poe    c23 7806   1.228   0.038   5.024  0.0219  0.2974 -0.0852
 1371poe    c23 7807   1.171  -0.033   5.149 -0.1458 -0.0107 -0.3366
 1371poe     o2 7808   1.058  -0.091   5.088 -0.0088 -0.3769 -0.2458
 1371poe    c23 7809   0.961  -0.136   5.180 -0.1550 -0.0118 -0.2185
 1371poe    c23 7810   0.866  -0.221   5.095 -0.3353  0.0946 -0.1246
 1371poe     o2 7811   0.792  -0.119   5.032 -0.1455  0.2063 -0.1677
 1371poe    c31 7812   0.677  -0.176   4.975 -0.5519  0.3197  0.5249
 1372poe    c31 7813   2.311   4.801   5.305  0.4025 -0.0866  0.6008
 1372poe     o2 7814   2.416   4.881   5.257  0.1501  0.2589  0.6178
 1372poe    c23 7815   2.383   4.928   5.128  0.0997 -0.3876  0.3918
 1372poe    c23 7816   2.483   5.037   5.087 -0.3816 -0.1354 -0.1364
 1372poe     o2 7817   2.612   4.988   5.118 -0.2846  0.1893 -0.0101
 1372poe    c23 7818   2.714   5.075   5.076  0.2299 -0.3633  0.0835
 1372poe    c23 7819   2.838   4.997   5.125  0.2728  0.1406  0.7951
 1372poe     o2 7820   2.818   4.954   5.258  0.0645 -0.2132  0.6506
 1372poe    c23 7821   2.946   4.921   5.305  0.4240  0.4259  0.1374
 1372poe    c23 7822   2.937   4.832   5.431 -0.0944 -0.0322 -0.2184
 1372poe     o2 7823   2.865   4.715   5.401 -0.2454 -0.0834  0.3417
 1372poe    c31 7824   2.911   4.604   5.475  0.1978 -0.2634 -0.1982
 1373poe    c31 7825   1.045   6.793   3.971  0.0743  0.7105 -0.4841
 1373poe     o2 7826   1.183   6.803   3.944  0.0699  0.9327 -0.4313
 1373poe    c23 7827   1.265   6.840   4.053 -0.1159 -0.5424  0.2377
 1373poe    c23 7828   1.414   6.826   4.016 -0.1393 -0.1534 -0.0012
 1373poe     o2 7829   1.417   6.895   3.893  0.1260 -0.9670 -0.4551
 1373poe    c23 7830   1.539   6.886   3.823  0.3441  0.5476 -0.3065
 1373poe    c23 7831   1.539   6.980   3.701 -0.7202  0.4114 -0.4196
 1373poe     o2 7832   1.439   6.931   3.615 -0.1589 -0.6424 -0.4871
 1373poe    c23 7833   1.426   7.030   3.515  0.1814  0.1135  0.2086
 1373poe    c23 7834   1.298   7.030   3.431  0.0171 -0.0347  0.4574
 1373poe     o2 7835   1.187   7.051   3.515 -0.3188  0.0141  0.0092
 1373poe    c31 7836   1.066   7.058   3.444 -0.3543  0.0511  0.0726
 1374poe    c31 7837   6.073   4.703   3.323 -0.1537 -0.0676  0.0247
 1374poe     o2 7838   6.174   4.788   3.374 -0.7238  0.5473  0.1442
 1374poe    c23 7839   6.130   4.882   3.470 -0.5778  0.1707  0.5873
 1374poe    c23 7840   6.248   4.950   3.541 -0.0497  0.1009 -0.2144
 1374poe     o2 7841   6.318   4.867   3.631 -0.0973  0.0239 -0.2470
 1374poe    c23 7842   6.456   4.898   3.637 -0.0313 -0.3715  0.3848
 1374poe    c23 7843   6.526   4.817   3.748  0.2947 -0.3342  0.2076
 1374poe     o2 7844   6.489   4.682   3.732 -0.6662 -0.0766  0.1771
 1374poe    c23 7845   6.541   4.601   3.835 -0.0139  0.0755 -0.0236
 1374poe    c23 7846   6.511   4.452   3.808 -0.5929  0.1919 -0.0311
 1374poe     o2 7847   6.379   4.441   3.759 -0.6562  0.0333  0.1701
 1374poe    c31 7848   6.331   4.310   3.774  0.2664 -0.3298  0.0059
 1375poe    c31 7849   5.977   6.032   0.851  0.0292  0.5101 -0.2036
 1375poe     o2 7850   5.973   6.140   0.761  0.2504  0.3352 -0.4240
 1375poe    c23 7851   5.884   6.111   0.655  0.5232  0.1113 -0.5930
 1375poe    c23 7852   5.839   6.238   0.581 -0.1836  0.2963  0.1443
 1375poe     o2 7853   5.951   6.310   0.533 -0.1930  0.2080 -0.0087
 1375poe    c23 7854   5.903   6.421   0.460  0.1209  0.1952 -0.2362
 1375poe    c23 7855   6.027   6.484   0.394  0.0402  0.4917 -0.1056
 1375poe     o2 7856   6.130   6.501   0.489 -0.0738  0.6018 -0.0005
 1375poe    c23 7857   6.250   6.538   0.424 -0.1737  0.5623 -0.2078
 1375poe    c23 7858   6.362   6.531   0.529 -0.6120  0.1451  0.2377
 1375poe     o2 7859   6.337   6.413   0.602 -0.0657 -0.0262  0.1570
 1375poe    c31 7860   6.448   6.402   0.688  0.5977  0.0735 -0.6711
 1376poe    c31 7861   6.118   1.814   3.331 -0.3548  0.9929  0.7960
 1376poe     o2 7862   6.133   1.951   3.302  0.1533  0.7423 -0.1419
 1376poe    c23 7863   6.269   1.977   3.275  0.2796  0.5267  0.2854
 1376poe    c23 7864   6.271   2.131   3.276 -0.0330  0.5295  0.7544
 1376poe     o2 7865   6.156   2.174   3.206  0.2256 -0.1234 -0.0912
 1376poe    c23 7866   6.127   2.310   3.230 -0.3517 -0.2790  0.0910
 1376poe    c23 7867   5.996   2.348   3.158 -0.2691  0.4512  0.3125
 1376poe     o2 7868   5.895   2.255   3.191  0.1070 -0.1834 -0.2784
 1376poe    c23 7869   5.784   2.290   3.113 -0.0210 -0.4308 -0.2082
 1376poe    c23 7870   5.660   2.201   3.131 -0.1261 -0.2353  0.0454
 1376poe     o2 7871   5.689   2.065   3.105  0.2357 -0.2673  0.6024
 1376poe    c31 7872   5.572   1.995   3.140 -0.0861  0.1842  0.4427
 1377poe    c31 7873   2.040   6.841   4.925  0.0921  0.1668  0.1863
 1377poe     o2 7874   2.051   6.707   4.969 -0.1306  0.0700 -0.0566
 1377poe    c23 7875   2.186   6.667   4.974  0.0001  0.4834 -0.2539
 1377poe    c23 7876   2.198   6.517   5.002 -0.5683  0.3475 -0.7117
 1377poe     o2 7877   2.130   6.443   4.903 -0.3149 -0.0969 -0.5568
 1377poe    c23 7878   2.121   6.304   4.928 -0.1665 -0.0100 -0.0121
 1377poe    c23 7879   2.064   6.241   4.799  0.1868 -0.4698  0.0527
 1377poe     o2 7880   1.934   6.295   4.785  0.2701 -0.2553  0.1005
 1377poe    c23 7881   1.868   6.250   4.669  0.0725 -0.1032  0.1528
 1377poe    c23 7882   1.724   6.302   4.676  0.1138  0.1719 -0.8766
 1377poe     o2 7883   1.727   6.432   4.731  0.4074 -0.2031  0.0006
 1377poe    c31 7884   1.599   6.472   4.772  0.3601  0.6314 -0.9474
 1378poe    c31 7885   0.700   3.910   1.828  0.2876 -0.5880  0.6848
 1378poe     o2 7886   0.570   3.937   1.780  0.4328 -0.2360  0.4851
 1378poe    c23 7887   0.545   4.072   1.816 -0.1679 -0.1176 -0.3490
 1378poe    c23 7888   0.402   4.103   1.770 -0.0705  0.8446 -0.0136
 1378poe     o2 7889   0.367   4.093   1.634  0.4417 -0.5261 -0.0577
 1378poe    c23 7890   0.229   4.116   1.617  0.4651 -0.4438 -0.1406
 1378poe    c23 7891   0.173   4.029   1.503  0.0574  0.0261 -0.2968
 1378poe     o2 7892   0.146   3.893   1.525 -0.3087  0.2022  0.3554
 1378poe    c23 7893   0.097   3.846   1.402 -0.3161 -0.3744  0.5752
 1378poe    c23 7894   0.077   3.693   1.408 -0.1413 -0.3987  0.5643
 1378poe     o2 7895   0.175   3.638   1.493  0.5752  0.2050  0.1384
 1378poe    c31 7896   0.208   3.507   1.453 -0.1684  0.1265 -0.2450
 1379poe    c31 7897   3.956   5.440   4.020  0.2096 -0.0844  0.1238
 1379poe     o2 7898   3.946   5.578   3.994 -0.5311 -0.2393 -0.4312
 1379poe    c23 7899   3.863   5.649   4.083  0.5606 -0.0833  0.4799
 1379poe    c23 7900   3.863   5.802   4.070 -0.0178 -0.1062  0.1880
 1379poe     o2 7901   3.996   5.848   4.071  0.0213 -0.1948 -0.4500
 1379poe    c23 7902   3.976   5.988   4.067  0.5776 -0.0986 -0.0513
 1379poe    c23 7903   4.095   6.036   4.152  0.0578  0.0615  0.5940
 1379poe     o2 7904   4.205   5.972   4.092 -0.1385  0.3718 -0.1129
 1379poe    c23 7905   4.324   6.028   4.141  0.0004 -0.2023  0.2197
 1379poe    c23 7906   4.430   5.959   4.053 -0.1894  0.0963 -0.2443
 1379poe     o2 7907   4.387   5.829   4.018  0.0997 -0.0604 -0.0198
 1379poe    c31 7908   4.477   5.780   3.922 -0.1298 -0.0862 -0.2229
 1380poe    c31 7909   1.439   1.671   6.165  0.1241 -0.2988 -0.4685
 1380poe     o2 7910   1.320   1.742   6.187  0.1689 -0.3548 -0.0349
 1380poe    c23 7911   1.321   1.840   6.288 -0.4367 -0.0455 -0.3216
 1380poe    c23 7912   1.180   1.902   6.295 -0.0545  0.7780  0.2524
 1380poe     o2 7913   1.143   1.985   6.188 -0.0771 -0.0629 -0.4041
 1380poe    c23 7914   1.006   2.018   6.193  0.0657  0.4614  0.1680
 1380poe    c23 7915   0.963   2.078   6.058 -0.1233  0.0951  0.0637
 1380poe     o2 7916   0.992   1.993   5.950 -0.3069 -0.4435  0.4342
 1380poe    c23 7917   0.906   2.014   5.840 -0.0071  0.4681  0.3697
 1380poe    c23 7918   0.947   1.921   5.725  0.8130  0.2616  0.8225
 1380poe     o2 7919   1.087   1.905   5.732  0.8099 -0.0547  0.1926
 1380poe    c31 7920   1.144   1.838   5.621 -0.0813  0.0520 -0.3420
 1381poe    c31 7921   2.950   3.954   0.345 -0.0724 -0.2983 -0.0876
 1381poe     o2 7922   2.996   4.065   0.421 -0.3004 -0.3976  0.1979
 1381poe    c23 7923   3.100   4.138   0.360 -0.3636 -0.3948  0.0933
 1381poe    c23 7924   3.082   4.285   0.403  0.0631 -0.3692  0.1794
 1381poe     o2 7925   3.104   4.320   0.538 -0.3580  0.1186  0.1222
 1381poe    c23 7926   3.232   4.365   0.575 -0.2806 -0.1511  0.1848
 1381poe    c23 7927   3.247   4.400   0.725 -0.7585  0.3123  0.1285
 1381poe     o2 7928   3.190   4.297   0.803  0.0581 -0.3466 -0.1185
 1381poe    c23 7929   3.225   4.299   0.940 -0.3061  0.5211 -0.0316
 1381poe    c23 7930   3.165   4.181   1.017 -0.2092  0.1357 -0.5410
 1381poe     o2 7931   3.191   4.057   0.954  0.1229 -0.1902  0.2283
 1381poe    c31 7932   3.230   3.969   1.057  0.1151 -0.4198  0.0354
 1382poe    c31 7933   2.489   4.300   1.626 -0.2732  0.0748  0.0207
 1382poe     o2 7934   2.627   4.274   1.619 -0.3652 -0.4749  0.1957
 1382poe    c23 7935   2.661   4.143   1.580  0.0309 -0.0688 -0.8424
 1382poe    c23 7936   2.678   4.057   1.706  0.0045  0.6371 -0.3517
 1382poe     o2 7937   2.806   4.063   1.767 -0.2199 -0.7415  0.3098
 1382poe    c23 7938   2.817   3.994   1.889  0.1341 -0.5145  0.4066
 1382poe    c23 7939   2.955   4.009   1.955  0.2637 -0.7654  0.1932
 1382poe     o2 7940   2.973   4.146   1.983 -0.0840 -0.7040  0.1218
 1382poe    c23 7941   3.081   4.167   2.072 -0.1240 -0.4148  0.1030
 1382poe    c23 7942   3.097   4.312   2.119 -0.5332 -0.3558  0.0649
 1382poe     o2 7943   3.098   4.401   2.009 -0.0842 -0.1558  0.2266
 1382poe    c31 7944   3.113   4.534   2.053 -0.5017 -0.3265  0.9004
 1383poe    c31 7945   0.024   2.433   5.009 -0.2116 -0.4479  0.3707
 1383poe     o2 7946  -0.115   2.428   4.986 -0.1209  0.3735 -0.4429
 1383poe    c23 7947  -0.166   2.532   4.906 -0.3077  0.4529 -0.2230
 1383poe    c23 7948  -0.284   2.477   4.824 -0.2315 -0.1112  0.0416
 1383poe     o2 7949  -0.363   2.389   4.901 -0.5587  0.5759  0.5080
 1383poe    c23 7950  -0.466   2.330   4.825  0.2398 -0.2114  0.0156
 1383poe    c23 7951  -0.540   2.234   4.919  0.1394  0.1063  0.2630
 1383poe     o2 7952  -0.615   2.310   5.011  0.0555 -0.3682  0.5923
 1383poe    c23 7953  -0.695   2.231   5.095  0.0300 -0.6960  0.2619
 1383poe    c23 7954  -0.729   2.311   5.222 -0.5385 -0.1459 -0.2276
 1383poe     o2 7955  -0.622   2.345   5.308 -0.1349 -0.7659 -0.4821
 1383poe    c31 7956  -0.651   2.369   5.443 -0.1410 -0.3902 -0.5503
 1384poe    c31 7957   6.673   1.651   1.238 -0.0399  1.1211 -0.5747
 1384poe     o2 7958   6.535   1.624   1.244  0.2433 -0.2911 -0.0039
 1384poe    c23 7959   6.460   1.738   1.207  0.4633 -0.1628 -0.0533
 1384poe    c23 7960   6.312   1.699   1.215  0.5140 -0.3682 -0.1081
 1384poe     o2 7961   6.245   1.692   1.339 -0.1433  0.4856 -0.4058
 1384poe    c23 7962   6.122   1.636   1.300  0.1939 -0.7501  0.2399
 1384poe    c23 7963   6.035   1.662   1.425 -0.0768 -0.1442 -0.0718
 1384poe     o2 7964   6.099   1.609   1.538 -0.2651 -0.4853 -0.1253
 1384poe    c23 7965   6.011   1.616   1.648 -0.2746 -0.2809 -0.1464
 1384poe    c23 7966   6.064   1.535   1.767  0.2066  0.0544 -0.1281
 1384poe     o2 7967   6.186   1.594   1.807  0.0288  0.2384  0.1418
 1384poe    c31 7968   6.240   1.525   1.917 -0.1538 -0.7918 -0.4053
 1385poe    c31 7969   0.076   4.947   0.585  0.3656  0.6229 -0.0986
 1385poe     o2 7970   0.156   4.989   0.477 -0.2857  0.8173 -0.5081
 1385poe    c23 7971   0.280   4.921   0.479 -0.8114 -0.1528 -0.4864
 1385poe    c23 7972   0.353   4.952   0.348 -0.7682  0.3677 -0.3420
 1385poe     o2 7973   0.330   4.867   0.238 -0.7593  0.0612 -0.1084
 1385poe    c23 7974   0.350   4.945   0.122 -0.8549  0.2700  0.0149
 1385poe    c23 7975   0.314   4.859  -0.000 -0.3250  0.0245  0.0275
 1385poe     o2 7976   0.179   4.819   0.012 -0.3453  0.2509  0.5913
 1385poe    c23 7977   0.119   4.828  -0.115  0.1079 -0.4923  0.3096
 1385poe    c23 7978  -0.031   4.858  -0.094  0.1485 -0.0307 -0.0317
 1385poe     o2 7979  -0.067   4.764   0.005 -0.2992  0.3138  0.1364
 1385poe    c31 7980  -0.206   4.771   0.031 -0.4232  0.0140 -0.4191
 1386poe    c31 7981   4.079   0.759   4.015  0.2853 -0.0566 -0.0631
 1386poe     o2 7982   4.165   0.826   4.103  0.6045 -0.3694 -0.1359
 1386poe    c23 7983   4.098   0.881   4.214  0.6145 -0.9703  0.1656
 1386poe    c23 7984   4.180   0.929   4.336  0.1613 -0.4412  0.2633
 1386poe     o2 7985   4.252   1.048   4.312  0.3149 -0.4790  0.5311
 1386poe    c23 7986   4.167   1.160   4.322  0.7512 -0.1105  0.1425
 1386poe    c23 7987   4.249   1.290   4.322  0.5608  0.0109 -0.0281
 1386poe     o2 7988   4.329   1.272   4.207 -0.0995 -0.0158 -0.4826
 1386poe    c23 7989   4.381   1.399   4.175 -0.6165  0.3049 -0.0629
 1386poe    c23 7990   4.446   1.387   4.036 -0.2899  0.0628  0.1093
 1386poe     o2 7991   4.499   1.256   4.039  0.1438  0.2266 -0.3435
 1386poe    c31 7992   4.556   1.231   3.913 -0.0409  0.0996 -0.4020
 1387poe    c31 7993   1.385   4.076   6.617  0.5910 -0.1523  0.1597
 1387poe     o2 7994   1.386   4.149   6.738 -0.7878  0.2413 -0.0495
 1387poe    c23 7995   1.465   4.266   6.735  0.0288 -0.2991  0.0998
 1387poe    c23 7996   1.481   4.347   6.865  0.0829 -0.1849  0.0228
 1387poe     o2 7997   1.364   4.417   6.904  0.3231  0.4727 -0.4147
 1387poe    c23 7998   1.386   4.483   7.027  0.4917  0.0092 -0.1913
 1387poe    c23 7999   1.252   4.558   7.040  0.3288 -0.3178  0.0350
 1387poe     o2 8000   1.150   4.463   7.017  0.1555 -0.0885 -0.1533
 1387poe    c23 8001   1.030   4.537   7.013  0.3953  0.3268  0.1641
 1387poe    c23 8002   0.908   4.451   6.977  0.5894  0.2588 -0.3462
 1387poe     o2 8003   0.943   4.379   6.861  0.5620 -0.1163 -0.1223
 1387poe    c31 8004   0.840   4.342   6.772  0.2308  0.5121 -0.0054
 1388poe    c31 8005   1.188   1.620   4.314 -0.2658 -0.4207 -0.4884
 1388poe     o2 8006   1.287   1.705   4.261 -0.1367 -0.2657 -0.0017
 1388poe    c23 8007   1.397   1.709   4.349  0.0773 -0.0489 -0.2782
 1388poe    c23 8008   1.513   1.750   4.256  0.1422  0.3370 -0.0279
 1388poe     o2 8009   1.478   1.845   4.158 -0.3082  0.1407 -0.0593
 1388poe    c23 8010   1.589   1.903   4.093 -0.1482  0.3143  0.3663
 1388poe    c23 8011   1.533   1.995   3.983 -0.1715  0.0599  0.1648
 1388poe     o2 8012   1.491   1.917   3.873 -0.3155 -0.1038  0.3357
 1388poe    c23 8013   1.404   2.006   3.808  0.1799  0.2487  0.1514
 1388poe    c23 8014   1.320   1.942   3.695 -0.2619  0.6729  0.2337
 1388poe     o2 8015   1.226   1.850   3.745  0.2685  0.1843  0.3395
 1388poe    c31 8016   1.164   1.799   3.629  0.0309  0.6031  0.2816
 1389poe    c31 8017   1.586   5.288   6.587 -1.2970  0.1849 -0.4846
 1389poe     o2 8018   1.597   5.165   6.654  0.1388  0.5737  0.0045
 1389poe    c23 8019   1.479   5.089   6.665  0.6932 -0.3432 -0.1939
 1389poe    c23 8020   1.507   4.976   6.766  0.0237 -0.1871  0.1747
 1389poe     o2 8021   1.589   4.878   6.708  0.1146 -0.0489  0.0686
 1389poe    c23 8022   1.606   4.776   6.804 -0.2715 -0.4004 -0.2302
 1389poe    c23 8023   1.717   4.674   6.772  0.1065 -0.3008  0.7179
 1389poe     o2 8024   1.846   4.731   6.779  0.1122 -0.1459 -0.4543
 1389poe    c23 8025   1.909   4.720   6.904 -0.1031  0.1858 -0.3165
 1389poe    c23 8026   2.060   4.731   6.877 -0.0934  0.0650 -0.3126
 1389poe     o2 8027   2.112   4.860   6.855  0.5033 -0.1571 -0.2239
 1389poe    c31 8028   2.252   4.853   6.865  0.4767 -0.4209 -0.0180
 1390poe    c31 8029   0.228   1.503   0.592  0.2667  0.2122 -0.2731
 1390poe     o2 8030   0.240   1.409   0.696 -0.4585  0.2717 -0.1274
 1390poe    c23 8031   0.149   1.424   0.803  0.2767  0.5219  0.4685
 1390poe    c23 8032   0.118   1.307   0.897  0.0801 -0.2178 -0.4994
 1390poe     o2 8033  -0.005   1.344   0.954  0.4101  0.4487 -0.2107
 1390poe    c23 8034  -0.033   1.264   1.066  0.4991  0.8724  0.1145
 1390poe    c23 8035  -0.168   1.303   1.131  0.2186 -0.0345  0.0854
 1390poe     o2 8036  -0.284   1.275   1.057 -0.0378 -0.5955  0.6946
 1390poe    c23 8037  -0.401   1.316   1.125  0.0846  0.7734  0.1234
 1390poe    c23 8038  -0.503   1.369   1.023  0.1815 -0.5790 -0.6969
 1390poe     o2 8039  -0.482   1.493   0.960  0.0695 -0.2417 -0.0722
 1390poe    c31 8040  -0.569   1.515   0.851 -0.0966 -0.1300  0.0824
 1391poe    c31 8041   0.157   1.805   5.431 -0.0436 -0.8783 -0.0233
 1391poe     o2 8042   0.146   1.878   5.551  0.2580 -0.2121 -0.3950
 1391poe    c23 8043   0.120   1.790   5.658 -0.4167  0.2021 -0.2106
 1391poe    c23 8044   0.143   1.864   5.790  0.3753 -0.1632 -0.1362
 1391poe     o2 8045   0.058   1.975   5.806  0.2043 -0.2953 -0.1288
 1391poe    c23 8046   0.069   2.025   5.938  0.3768 -0.4696 -0.0775
 1391poe    c23 8047  -0.033   2.138   5.955  0.4576 -0.3873 -0.1351
 1391poe     o2 8048  -0.038   2.220   5.840 -0.1483  0.2186  0.3064
 1391poe    c23 8049  -0.118   2.335   5.844 -0.1747  0.2490 -0.7412
 1391poe    c23 8050  -0.102   2.406   5.708  0.4673  0.5374 -0.5182
 1391poe     o2 8051  -0.132   2.305   5.615  0.4377  0.2513 -0.2009
 1391poe    c31 8052  -0.140   2.351   5.482 -0.3565  0.3379 -0.1296
 1392poe    c31 8053   3.299   6.504   1.571  0.5858 -0.1283 -0.0387
 1392poe     o2 8054   3.375   6.535   1.457  0.3939  0.1912 -0.0791
 1392poe    c23 8055   3.501   6.585   1.498  0.4056  0.0643  0.0403
 1392poe    c23 8056   3.592   6.627   1.381  0.0950 -0.3462 -0.3551
 1392poe     o2 8057   3.531   6.722   1.296 -0.0396 -0.1342 -0.0236
 1392poe    c23 8058   3.627   6.814   1.250  0.1634 -0.0601  0.5397
 1392poe    c23 8059   3.549   6.924   1.174 -0.1905 -0.5403  0.2031
 1392poe     o2 8060   3.450   6.849   1.108 -0.5336  0.0303  0.0722
 1392poe    c23 8061   3.378   6.929   1.017 -0.6956  0.2723  0.4117
 1392poe    c23 8062   3.299   6.837   0.922  0.3629 -0.3105  0.0858
 1392poe     o2 8063   3.181   6.784   0.977  0.0566 -0.2225 -0.4842
 1392poe    c31 8064   3.131   6.680   0.895 -0.4989 -0.5141  0.2184
 1393poe    c31 8065   4.238   2.474   0.982 -0.5223  0.7170  0.3195
 1393poe     o2 8066   4.197   2.436   1.111  0.3820 -0.1765  0.3595
 1393poe    c23 8067   4.128   2.534   1.185  0.6213  0.4284 -0.2203
 1393poe    c23 8068   4.131   2.511   1.337 -0.5453  0.2289 -0.2186
 1393poe     o2 8069   4.089   2.383   1.378 -0.1057  0.1061 -0.1447
 1393poe    c23 8070   4.136   2.348   1.506  0.0019 -0.5661 -0.3658
 1393poe    c23 8071   4.052   2.227   1.552 -0.1498 -0.2353  0.2431
 1393poe     o2 8072   4.066   2.129   1.452  0.0731  0.4475 -0.4051
 1393poe    c23 8073   4.061   1.998   1.504  0.3128  0.1413 -1.1341
 1393poe    c23 8074   4.089   1.887   1.401 -0.4023 -0.6667 -0.4770
 1393poe     o2 8075   3.981   1.879   1.311 -0.4022 -0.2975 -0.5121
 1393poe    c31 8076   4.024   1.865   1.177  0.7829 -0.0083 -0.1781
 1394poe    c31 8077   4.619   2.445   1.446 -0.2042  0.1811 -0.0077
 1394poe     o2 8078   4.619   2.410   1.309  0.3480  0.0781  0.0165
 1394poe    c23 8079   4.501   2.345   1.269  0.0245  0.3950  0.4516
 1394poe    c23 8080   4.535   2.267   1.141 -0.8548  0.1384  0.3663
 1394poe     o2 8081   4.621   2.352   1.070 -0.1121 -0.8709  0.0359
 1394poe    c23 8082   4.706   2.286   0.978  0.4084  0.2889 -0.3426
 1394poe    c23 8083   4.793   2.377   0.889  0.6597 -0.1386 -0.5376
 1394poe     o2 8084   4.866   2.471   0.964 -0.1331 -0.3498  0.5341
 1394poe    c23 8085   4.930   2.566   0.882 -0.0423 -0.4375  0.5028
 1394poe    c23 8086   5.009   2.667   0.968 -0.6889  0.0542  0.5226
 1394poe     o2 8087   4.921   2.743   1.049 -0.6881  0.6115  0.0120
 1394poe    c31 8088   4.987   2.854   1.105  0.0898 -0.0498  0.4275
 1395poe    c31 8089   1.426   1.908   2.240  0.2113  0.4489  0.5328
 1395poe     o2 8090   1.372   1.960   2.121  0.2778 -0.0149  0.2984
 1395poe    c23 8091   1.349   1.858   2.027  0.0746  0.4497 -0.1651
 1395poe    c23 8092   1.311   1.933   1.898 -0.2120 -0.1511 -0.4382
 1395poe     o2 8093   1.201   2.020   1.917  0.0548  0.2053 -0.5032
 1395poe    c23 8094   1.191   2.118   1.817 -0.0635  0.7926  0.0804
 1395poe    c23 8095   1.083   2.221   1.855 -0.4506  0.6304 -0.5582
 1395poe     o2 8096   1.106   2.267   1.986  0.0373 -0.5067 -0.2334
 1395poe    c23 8097   1.011   2.366   2.018  0.2193 -0.4487  0.1404
 1395poe    c23 8098   1.059   2.473   2.118 -0.0776 -0.1776 -0.0024
 1395poe     o2 8099   1.107   2.419   2.239  0.3846  0.1744 -0.0249
 1395poe    c31 8100   1.169   2.526   2.306  0.3245 -0.0633  0.4105
 1396poe    c31 8101   2.395   1.886   1.721  0.0560 -0.2969  0.2646
 1396poe     o2 8102   2.420   1.864   1.585 -0.2453 -0.4273  0.2299
 1396poe    c23 8103   2.300   1.879   1.512  0.0691 -0.3992 -0.2845
 1396poe    c23 8104   2.334   1.838   1.367 -0.2512 -0.2126 -0.4143
 1396poe     o2 8105   2.462   1.890   1.338 -0.4185  0.4184 -0.0372
 1396poe    c23 8106   2.494   1.858   1.205  0.0059 -0.4215  0.2558
 1396poe    c23 8107   2.640   1.888   1.167 -0.1474 -0.4442 -0.3728
 1396poe     o2 8108   2.731   1.793   1.221  0.0391  0.0136  0.1274
 1396poe    c23 8109   2.865   1.822   1.191  0.0101  0.1191  0.0963
 1396poe    c23 8110   2.953   1.743   1.290  0.3801  0.5428  0.1099
 1396poe     o2 8111   2.933   1.774   1.426 -0.3617  0.1012  0.1036
 1396poe    c31 8112   3.020   1.706   1.513 -0.2556  0.2483  0.1125
 1397poe    c31 8113   1.170   1.454   6.287 -0.0670 -0.5554  0.2783
 1397poe     o2 8114   1.129   1.371   6.393  0.4516 -0.2483  0.7277
 1397poe    c23 8115   1.078   1.440   6.506  0.0100  0.3597  0.1655
 1397poe    c23 8116   1.089   1.348   6.629 -0.0803  0.4672  0.2526
 1397poe     o2 8117   1.221   1.301   6.637 -0.3346 -0.2531  0.2849
 1397poe    c23 8118   1.239   1.198   6.732  0.4798 -0.4242 -0.0409
 1397poe    c23 8119   1.389   1.182   6.762  0.6703  0.8316 -0.2896
 1397poe     o2 8120   1.447   1.132   6.644 -0.0648 -0.3518 -0.1627
 1397poe    c23 8121   1.587   1.146   6.654 -0.1541  0.3873  0.0743
 1397poe    c23 8122   1.641   1.165   6.511 -0.8391  0.4822 -0.1783
 1397poe     o2 8123   1.574   1.074   6.427 -0.0750 -0.2338 -0.0252
 1397poe    c31 8124   1.594   1.103   6.291 -0.5695 -0.2079 -0.0944
 1398poe    c31 8125   4.954   0.675   6.207  0.1556 -0.1348 -0.3441
 1398poe     o2 8126   4.863   0.573   6.174 -0.0070 -0.0154 -0.2701
 1398poe    c23 8127   4.820   0.501   6.287 -0.1634 -0.1253 -0.3987
 1398poe    c23 8128   4.741   0.382   6.229 -0.2926 -0.3116  0.1527
 1398poe     o2 8129   4.838   0.290   6.184 -0.0820 -0.0558  0.0813
 1398poe    c23 8130   4.792   0.212   6.076  0.0054 -0.1117  0.0848
 1398poe    c23 8131   4.893   0.108   6.026  0.1875 -0.0074  0.2342
 1398poe     o2 8132   4.912   0.023   6.137 -0.1655  0.1666  0.4269
 1398poe    c23 8133   5.015  -0.069   6.109 -0.4774 -0.0306 -0.0781
 1398poe    c23 8134   5.006  -0.180   6.216  0.0172  0.0439  0.0439
 1398poe     o2 8135   5.054  -0.128   6.338  0.1715  0.4740 -0.1983
 1398poe    c31 8136   5.052  -0.226   6.439 -0.2267  0.1665 -0.5029
 1399poe    c31 8137   0.384   5.639   2.948  0.1642 -0.2405  0.3835
 1399poe     o2 8138   0.341   5.772   2.926  0.0348 -0.3257  0.1146
 1399poe    c23 8139   0.387   5.814   2.800 -0.2768 -0.2738  0.0164
 1399poe    c23 8140   0.334   5.958   2.784 -0.1856 -0.2179  0.2093
 1399poe     o2 8141   0.194   5.970   2.799 -0.2327 -0.3572 -0.1081
 1399poe    c23 8142   0.154   6.101   2.829  0.0148 -0.2888 -0.0782
 1399poe    c23 8143   0.001   6.116   2.833 -0.0013 -0.4707 -0.0149
 1399poe     o2 8144  -0.036   6.034   2.941  0.0301 -0.5181 -0.0402
 1399poe    c23 8145  -0.161   6.064   2.998  0.2777 -0.0318  0.2433
 1399poe    c23 8146  -0.186   5.973   3.120  0.0468  0.3449  0.4828
 1399poe     o2 8147  -0.167   5.836   3.092 -0.1283  0.4516 -0.1976
 1399poe    c31 8148  -0.225   5.751   3.189  0.3031  0.3486 -0.0269
 1400poe    c31 8149   3.090   6.057   0.683  0.2491 -0.5788  0.4035
 1400poe     o2 8150   3.162   6.074   0.563 -0.8314 -0.2716 -0.2223
 1400poe    c23 8151   3.136   5.958   0.486  0.3546 -0.7311  0.0484
 1400poe    c23 8152   3.181   6.000   0.345 -0.1158 -0.5992 -0.0626
 1400poe     o2 8153   3.305   6.067   0.355 -0.3617 -0.0974 -0.2989
 1400poe    c23 8154   3.370   6.087   0.231 -0.0985 -0.1264 -0.1668
 1400poe    c23 8155   3.483   6.186   0.265 -0.1158 -0.0956 -0.1991
 1400poe     o2 8156   3.427   6.282   0.351  0.0001  0.0754 -0.3149
 1400poe    c23 8157   3.348   6.374   0.279 -0.1303 -0.1046 -0.4004
 1400poe    c23 8158   3.259   6.439   0.385  0.6544 -0.2633  0.3673
 1400poe     o2 8159   3.189   6.339   0.456 -0.4641 -0.0391 -0.3856
 1400poe    c31 8160   3.088   6.380   0.545 -0.2631  0.1784 -0.2564
 1401poe    c31 8161   4.029   2.493   0.669 -0.0412 -0.1906  0.3589
 1401poe     o2 8162   3.988   2.404   0.567  0.1710 -0.2473  0.3239
 1401poe    c23 8163   4.004   2.442   0.433 -0.1148  0.2363  0.4239
 1401poe    c23 8164   3.945   2.336   0.338  0.1032  0.0436  0.5045
 1401poe     o2 8165   3.805   2.335   0.349  0.0436  0.1749 -0.2300
 1401poe    c23 8166   3.737   2.279   0.239 -0.1105  0.0667 -0.0806
 1401poe    c23 8167   3.586   2.273   0.267 -0.1174 -0.8160 -0.2577
 1401poe     o2 8168   3.565   2.232   0.400 -0.5344  0.1838 -0.0004
 1401poe    c23 8169   3.429   2.209   0.426 -0.4732 -0.2541 -0.0516
 1401poe    c23 8170   3.407   2.066   0.478 -0.4511 -0.2245  0.0392
 1401poe     o2 8171   3.428   2.057   0.617  0.1819 -0.1754 -0.0497
 1401poe    c31 8172   3.421   1.923   0.658 -0.3685 -0.1602 -0.0843
 1402poe    c31 8173   1.990   2.520   4.976 -0.8839 -0.2091 -0.0004
 1402poe     o2 8174   2.083   2.422   5.015 -0.3885  0.1166 -0.3469
 1402poe    c23 8175   2.112   2.344   4.902 -0.0831  0.0964 -0.2548
 1402poe    c23 8176   2.223   2.241   4.928 -0.3381 -0.0769  0.1513
 1402poe     o2 8177   2.341   2.306   4.970 -0.3058 -0.0386  0.0018
 1402poe    c23 8178   2.446   2.214   4.956 -0.1088  0.1196  0.4304
 1402poe    c23 8179   2.577   2.266   5.019  0.3803 -0.7640  0.1600
 1402poe     o2 8180   2.553   2.313   5.150  0.0460  0.6379 -0.3839
 1402poe    c23 8181   2.654   2.394   5.205  0.1460  0.3154 -0.0902
 1402poe    c23 8182   2.617   2.426   5.351  0.0753  0.9264 -0.2405
 1402poe     o2 8183   2.480   2.460   5.353 -0.1584 -0.0111  0.0009
 1402poe    c31 8184   2.462   2.552   5.458 -0.1519 -0.0058 -0.0027
 1403poe    c31 8185   3.220   2.436   1.709  1.0255 -0.5050 -0.4238
 1403poe     o2 8186   3.325   2.434   1.804  0.1147 -0.2913  0.6032
 1403poe    c23 8187   3.281   2.388   1.930 -0.3909  0.4803  0.7139
 1403poe    c23 8188   3.409   2.355   2.009  0.0122  0.0954 -0.0865
 1403poe     o2 8189   3.491   2.467   1.987 -0.1060  0.1717 -0.1435
 1403poe    c23 8190   3.620   2.432   2.034 -0.2357  0.2733  0.2883
 1403poe    c23 8191   3.710   2.557   2.032  0.0899  0.0438  0.4875
 1403poe     o2 8192   3.716   2.595   1.896 -0.1006 -0.4596  0.3365
 1403poe    c23 8193   3.817   2.692   1.876 -0.6131 -0.0179 -0.1296
 1403poe    c23 8194   3.809   2.751   1.734  0.5567  0.2623 -0.0832
 1403poe     o2 8195   3.690   2.826   1.724 -0.0253 -0.7047 -0.5743
 1403poe    c31 8196   3.696   2.934   1.634  0.0750 -0.4000 -0.2033
 1404poe    c31 8197   1.448   2.584   3.458  0.6732 -0.5257 -0.1787
 1404poe     o2 8198   1.367   2.470   3.469  0.0027 -0.0594 -0.1984
 1404poe    c23 8199   1.393   2.396   3.352  0.0152 -0.1393 -0.1455
 1404poe    c23 8200   1.313   2.264   3.345 -0.2355  0.0028  0.0403
 1404poe     o2 8201   1.186   2.272   3.407 -0.2292 -0.1143  0.0680
 1404poe    c23 8202   1.083   2.178   3.385  0.1436 -0.5638  0.2242
 1404poe    c23 8203   0.947   2.229   3.437  0.3638  0.2209  0.0452
 1404poe     o2 8204   0.961   2.270   3.572  0.3053  0.1270  0.0796
 1404poe    c23 8205   0.841   2.268   3.646  0.3236  0.1433  0.1097
 1404poe    c23 8206   0.800   2.414   3.675  0.1873  0.1704 -0.2093
 1404poe     o2 8207   0.918   2.485   3.703  0.3183  0.0976 -0.5724
 1404poe    c31 8208   0.885   2.616   3.742  0.5716 -0.0702  0.2364
 1405poe    c31 8209   1.736   1.320   4.529 -0.1973 -0.1542 -0.6551
 1405poe     o2 8210   1.681   1.450   4.526  0.1870  0.0418  0.2476
 1405poe    c23 8211   1.633   1.487   4.653 -0.2190 -0.3361  0.2086
 1405poe    c23 8212   1.618   1.640   4.653  0.2732 -0.2862 -0.4413
 1405poe     o2 8213   1.741   1.708   4.643  0.1092  0.0954  0.1077
 1405poe    c23 8214   1.720   1.845   4.672 -0.3567  0.1324 -0.3791
 1405poe    c23 8215   1.859   1.910   4.685 -0.3038 -0.0806  0.1714
 1405poe     o2 8216   1.913   1.880   4.558  0.0381  0.2624  0.2338
 1405poe    c23 8217   2.032   1.953   4.537  0.4597 -0.4565  0.0524
 1405poe    c23 8218   2.051   1.929   4.387  0.2531 -0.3996  0.0154
 1405poe     o2 8219   2.045   1.789   4.365  0.3443 -0.3931 -0.0544
 1405poe    c31 8220   2.096   1.749   4.240  0.3480 -0.5008 -0.0179
 1406poe    c31 8221   3.995   1.996   5.806 -0.1952  0.6766 -0.2410
 1406poe     o2 8222   4.110   2.048   5.742  0.1959 -0.4619 -0.4857
 1406poe    c23 8223   4.085   2.175   5.687  0.2561 -0.1615  0.1714
 1406poe    c23 8224   4.203   2.181   5.589  0.6840 -0.4683  0.6661
 1406poe     o2 8225   4.199   2.078   5.492 -0.0666  0.3073 -0.1450
 1406poe    c23 8226   4.321   2.092   5.424  0.5390 -0.6186  0.7230
 1406poe    c23 8227   4.356   1.956   5.360  0.0070 -0.5827  0.3484
 1406poe     o2 8228   4.235   1.913   5.302 -0.1026 -0.1148  0.2262
 1406poe    c23 8229   4.251   1.800   5.219  0.1088 -0.0196  0.1369
 1406poe    c23 8230   4.107   1.747   5.203  0.3031 -0.5382  0.0916
 1406poe     o2 8231   4.059   1.725   5.333 -0.0383 -0.5050 -0.0271
 1406poe    c31 8232   3.923   1.690   5.333 -0.0231 -0.5710 -0.5137
 1407poe    c31 8233   4.471   3.090   4.457 -0.6956 -0.4126 -0.0287
 1407poe     o2 8234   4.505   3.040   4.330 -0.3190  0.2020 -0.1777
 1407poe    c23 8235   4.551   2.908   4.350 -0.3335  0.0885 -0.8620
 1407poe    c23 8236   4.547   2.829   4.218 -0.6144 -0.7208 -0.3797
 1407poe     o2 8237   4.562   2.920   4.111 -0.2527 -0.2566  0.0621
 1407poe    c23 8238   4.610   2.869   3.989  0.2588 -0.0843  0.1901
 1407poe    c23 8239   4.618   2.982   3.884  0.0272 -0.1430  0.1091
 1407poe     o2 8240   4.498   3.054   3.901  0.3298  0.3833  0.0354
 1407poe    c23 8241   4.480   3.141   3.792 -0.4999 -0.0855 -0.2046
 1407poe    c23 8242   4.359   3.237   3.796 -0.3297  0.1199 -0.0154
 1407poe     o2 8243   4.351   3.320   3.910 -0.5145 -0.3450  0.3109
 1407poe    c31 8244   4.315   3.451   3.873 -0.4656 -0.3046  0.4054
 1408poe    c31 8245   0.641   4.175   1.017  0.1971  0.1379 -0.0523
 1408poe     o2 8246   0.629   4.316   1.020  0.0551  0.1319 -0.3510
 1408poe    c23 8247   0.756   4.378   1.012  0.2822 -0.3288 -0.3878
 1408poe    c23 8248   0.767   4.530   0.987 -0.1769 -0.2654 -0.2092
 1408poe     o2 8249   0.727   4.556   0.854 -0.0213  0.1494 -0.1764
 1408poe    c23 8250   0.710   4.692   0.823 -0.2666  0.1317 -0.1226
 1408poe    c23 8251   0.666   4.666   0.677 -0.0222  0.3568 -0.2364
 1408poe     o2 8252   0.571   4.564   0.657  0.1725  0.1366 -0.0461
 1408poe    c23 8253   0.518   4.581   0.528  0.1549 -0.0519 -0.0643
 1408poe    c23 8254   0.394   4.490   0.522  0.1376 -0.0511  0.2748
 1408poe     o2 8255   0.427   4.359   0.563  0.8094  0.0386  0.0448
 1408poe    c31 8256   0.318   4.270   0.558  0.6102  0.2598  0.3862
 1409poe    c31 8257   3.650   1.797   3.688 -0.1016 -0.1971 -0.5368
 1409poe     o2 8258   3.600   1.759   3.814  0.0336  0.1063 -0.3895
 1409poe    c23 8259   3.499   1.661   3.808  0.0260  0.0607  0.3405
 1409poe    c23 8260   3.546   1.539   3.889  0.3459  0.1195  0.2446
 1409poe     o2 8261   3.546   1.567   4.027  0.1175 -0.3197  0.3363
 1409poe    c23 8262   3.632   1.472   4.087 -0.1648 -0.4991  0.4596
 1409poe    c23 8263   3.672   1.500   4.233  0.0458 -0.4955  0.4008
 1409poe     o2 8264   3.737   1.618   4.272 -0.9089 -0.0264  0.6055
 1409poe    c23 8265   3.760   1.627   4.410  0.5870 -0.5802  0.4108
 1409poe    c23 8266   3.765   1.779   4.434 -0.1490 -0.4431 -0.2590
 1409poe     o2 8267   3.845   1.846   4.340  0.4247 -0.1538  0.4258
 1409poe    c31 8268   3.853   1.981   4.381  0.1973 -0.0520  0.1381
 1410poe    c31 8269   2.777   1.877   4.222  0.2568  0.4288 -0.0161
 1410poe     o2 8270   2.907   1.826   4.204  0.0694 -0.1144  0.1471
 1410poe    c23 8271   2.978   1.879   4.095 -0.2852 -0.1942 -0.1217
 1410poe    c23 8272   3.127   1.877   4.131 -0.1896  0.0414 -0.4941
 1410poe     o2 8273   3.165   1.755   4.190  0.0514  0.0998 -0.5270
 1410poe    c23 8274   3.296   1.768   4.242  0.1443 -0.1141 -0.7029
 1410poe    c23 8275   3.333   1.640   4.319 -0.1460 -0.0927 -0.5265
 1410poe     o2 8276   3.218   1.591   4.384 -0.0378  0.1652 -0.1387
 1410poe    c23 8277   3.240   1.460   4.434  0.1319  0.2510  0.0121
 1410poe    c23 8278   3.126   1.419   4.529 -0.1976 -0.0386 -0.5023
 1410poe     o2 8279   3.000   1.419   4.465 -0.2958 -0.1708 -0.3092
 1410poe    c31 8280   2.895   1.382   4.551  0.1554 -0.1864  0.2459
 1411poe    c31 8281   4.515   3.984   2.232  0.6234  0.6481  0.1904
 1411poe     o2 8282   4.396   4.033   2.288  0.2904  0.1157 -0.0452
 1411poe    c23 8283   4.296   3.933   2.292  0.4354 -0.0158  0.2717
 1411poe    c23 8284   4.175   3.971   2.379  0.1482 -0.4559  0.0706
 1411poe     o2 8285   4.090   4.064   2.316  0.1306 -0.4188  0.1485
 1411poe    c23 8286   3.963   4.072   2.378 -0.0241 -0.4464 -0.1618
 1411poe    c23 8287   3.862   4.139   2.284  0.0676 -0.5265 -0.3175
 1411poe     o2 8288   3.856   4.096   2.150  0.0094 -0.0658 -0.4656
 1411poe    c23 8289   3.766   4.166   2.066 -0.3570 -0.2439 -0.2227
 1411poe    c23 8290   3.774   4.107   1.924  0.0666  0.0676 -0.3307
 1411poe     o2 8291   3.908   4.071   1.897 -0.0025 -0.4269 -0.0474
 1411poe    c31 8292   3.931   4.019   1.768 -0.3329  0.3327 -0.4249
 1412poe    c31 8293   3.918   5.064   1.903 -0.3168 -0.0753 -0.4612
 1412poe     o2 8294   3.877   5.199   1.906  0.2616  0.0878  0.2550
 1412poe    c23 8295   3.951   5.263   2.008  0.7088  0.5028 -0.3150
 1412poe    c23 8296   3.914   5.402   2.061  0.1441  0.1870  0.1401
 1412poe     o2 8297   3.777   5.429   2.082  0.0367  0.0022 -0.3104
 1412poe    c23 8298   3.740   5.561   2.116 -0.6521 -0.2129 -0.2104
 1412poe    c23 8299   3.600   5.576   2.178 -0.2575  0.4197  0.5407
 1412poe     o2 8300   3.517   5.498   2.095  0.4460  0.5375 -0.2869
 1412poe    c23 8301   3.385   5.542   2.077 -0.0426 -0.5089  0.6438
 1412poe    c23 8302   3.314   5.423   2.009  0.4130 -0.4623  0.0815
 1412poe     o2 8303   3.394   5.356   1.914  0.4118 -0.2221 -0.0876
 1412poe    c31 8304   3.335   5.247   1.845 -0.3810  0.1019  0.0583
 1413poe    c31 8305   0.538   2.114   0.625 -0.1780  0.4285  0.5089
 1413poe     o2 8306   0.577   2.226   0.550  0.8534 -0.3572 -0.1555
 1413poe    c23 8307   0.559   2.200   0.413  0.1376  0.1502 -0.1629
 1413poe    c23 8308   0.663   2.270   0.323  0.0573 -0.0640 -0.4229
 1413poe     o2 8309   0.658   2.410   0.338 -0.0063 -0.0840 -0.2557
 1413poe    c23 8310   0.773   2.480   0.297 -0.2728  0.2775 -0.4023
 1413poe    c23 8311   0.794   2.617   0.363  0.6412  0.0816 -0.2680
 1413poe     o2 8312   0.815   2.587   0.500  0.3100  0.6956 -0.0796
 1413poe    c23 8313   0.874   2.687   0.580 -0.2848  0.4073  0.7364
 1413poe    c23 8314   0.960   2.623   0.690  0.2652 -0.0596  0.0451
 1413poe     o2 8315   0.877   2.575   0.793 -0.5519  0.2454 -0.4587
 1413poe    c31 8316   0.936   2.476   0.875 -0.7518  0.7334  0.2889
 1414poe    c31 8317   4.382   4.416   6.112 -0.3552 -0.1724 -0.2117
 1414poe     o2 8318   4.460   4.534   6.106  0.1950 -0.5439 -0.5020
 1414poe    c23 8319   4.410   4.625   6.201  0.3509 -0.0822 -0.8582
 1414poe    c23 8320   4.488   4.758   6.204  0.1477  0.0370 -0.8305
 1414poe     o2 8321   4.484   4.813   6.074 -0.2426 -0.3375 -0.9832
 1414poe    c23 8322   4.615   4.859   6.049 -0.1512 -0.1717 -0.2210
 1414poe    c23 8323   4.664   4.806   5.913  0.6251 -0.0828  0.0177
 1414poe     o2 8324   4.659   4.665   5.920  0.4105 -0.0800 -0.0758
 1414poe    c23 8325   4.725   4.617   5.805 -0.0777 -0.1056 -0.3480
 1414poe    c23 8326   4.737   4.467   5.841 -0.3369 -0.0498 -0.0197
 1414poe     o2 8327   4.613   4.411   5.878 -0.2353 -0.1420  0.1831
 1414poe    c31 8328   4.621   4.271   5.890  0.0416 -0.1159  0.3168
 1415poe    c31 8329   0.070   6.365   1.625  0.0049 -0.5138 -0.6563
 1415poe     o2 8330  -0.029   6.279   1.677  0.1390 -0.0262  0.4254
 1415poe    c23 8331   0.035   6.153   1.682 -0.3136 -0.3185 -0.7785
 1415poe    c23 8332  -0.064   6.048   1.735  0.2995 -0.4594  0.1106
 1415poe     o2 8333  -0.198   6.075   1.699  0.2891 -0.3268  0.2470
 1415poe    c23 8334  -0.274   5.957   1.711  0.1701 -0.2291  0.4504
 1415poe    c23 8335  -0.424   5.987   1.707  0.2142 -0.0605  0.0253
 1415poe     o2 8336  -0.464   6.065   1.596  0.0223  0.1906  0.2685
 1415poe    c23 8337  -0.579   6.144   1.617  0.3867  0.7111  0.3153
 1415poe    c23 8338  -0.626   6.223   1.494  0.2940 -0.5036 -0.4364
 1415poe     o2 8339  -0.514   6.291   1.441  0.1424 -0.0780 -0.2144
 1415poe    c31 8340  -0.547   6.389   1.346  0.2291  0.1335 -0.0281
 1416poe    c31 8341   2.171   4.779   4.696  0.0800  0.4246  0.2044
 1416poe     o2 8342   2.219   4.812   4.567  0.0837  0.0799  0.1184
 1416poe    c23 8343   2.123   4.883   4.492 -0.0686  0.2193  0.4418
 1416poe    c23 8344   2.216   4.953   4.390  0.2539 -0.3395  0.3479
 1416poe     o2 8345   2.289   4.849   4.330  0.4013  0.0691 -0.1851
 1416poe    c23 8346   2.389   4.899   4.244 -0.0922 -0.2047 -0.9316
 1416poe    c23 8347   2.439   4.784   4.155 -0.0502 -0.2356 -0.8683
 1416poe     o2 8348   2.452   4.667   4.233 -0.1441  0.0045 -0.4926
 1416poe    c23 8349   2.532   4.576   4.161 -0.4086 -0.2168 -0.5061
 1416poe    c23 8350   2.532   4.443   4.239  0.1363 -0.3914 -0.8013
 1416poe     o2 8351   2.599   4.469   4.360 -0.5517 -0.0370 -0.4925
 1416poe    c31 8352   2.621   4.354   4.438 -0.6031  0.2870  0.0061
 1417poe    c31 8353   3.711   1.100   1.046 -0.2731 -0.1815 -0.0242
 1417poe     o2 8354   3.799   1.070   0.940  0.0784  0.9071 -0.0598
 1417poe    c23 8355   3.788   1.163   0.835  0.3028  0.5933 -0.3647
 1417poe    c23 8356   3.860   1.088   0.722  0.3042  0.4393 -0.2615
 1417poe     o2 8357   3.991   1.057   0.766  0.2136  0.0957 -0.2352
 1417poe    c23 8358   4.068   0.975   0.681 -0.1589 -0.1505 -0.3426
 1417poe    c23 8359   4.197   0.958   0.764 -0.4850 -0.4990  0.0915
 1417poe     o2 8360   4.164   0.914   0.894 -0.1061  0.1394  0.4055
 1417poe    c23 8361   4.276   0.850   0.951  0.2239  0.3364 -0.0151
 1417poe    c23 8362   4.224   0.803   1.088  0.2088 -0.0201 -0.1406
 1417poe     o2 8363   4.193   0.910   1.175 -0.3246  0.0420 -0.4011
 1417poe    c31 8364   4.172   0.859   1.305  0.7044  0.1544 -0.1840
 1418poe    c31 8365   4.690   1.730   0.235  0.1454 -0.0395  0.0289
 1418poe     o2 8366   4.827   1.762   0.234  0.0541  0.3611 -0.2995
 1418poe    c23 8367   4.856   1.886   0.294 -0.5253  0.2178  0.2922
 1418poe    c23 8368   4.856   2.013   0.207  0.0303  0.2509  0.3343
 1418poe     o2 8369   4.948   2.009   0.101  0.4415 -0.0563  0.6985
 1418poe    c23 8370   4.940   2.139   0.046 -0.0115 -0.2260  0.3516
 1418poe    c23 8371   5.025   2.149  -0.081  0.5942 -0.2955  0.7462
 1418poe     o2 8372   4.993   2.035  -0.158  0.4675  0.0752  0.2411
 1418poe    c23 8373   5.073   2.030  -0.274  0.1157 -0.1454  0.0088
 1418poe    c23 8374   5.082   1.880  -0.311  0.5611 -0.1789  0.2496
 1418poe     o2 8375   5.057   1.794  -0.203  0.0681 -0.1287  0.1765
 1418poe    c31 8376   5.061   1.661  -0.248  0.1933 -0.0167 -0.1467
 1419poe    c31 8377   6.526   5.833   0.271 -0.1582 -0.1973 -0.1676
 1419poe     o2 8378   6.623   5.730   0.281 -0.0244 -0.0444  0.1168
 1419poe    c23 8379   6.737   5.753   0.202 -0.1113  0.1282  0.0415
 1419poe    c23 8380   6.824   5.632   0.238 -0.1963  0.1225  0.2265
 1419poe     o2 8381   6.748   5.516   0.263 -0.2364  0.0979 -0.0137
 1419poe    c23 8382   6.821   5.395   0.260  0.2312  0.3611  0.5343
 1419poe    c23 8383   6.747   5.291   0.347 -0.0534 -0.1556 -0.3138
 1419poe     o2 8384   6.615   5.301   0.298 -0.0004  0.3301 -0.3624
 1419poe    c23 8385   6.554   5.178   0.328 -0.1639  0.4713 -0.1091
 1419poe    c23 8386   6.406   5.185   0.287 -0.2315  0.8181  0.1921
 1419poe     o2 8387   6.340   5.300   0.334  0.0847  0.8823  0.4845
 1419poe    c31 8388   6.199   5.297   0.344  0.0292  0.1245 -0.4049
 1420poe    c31 8389   0.968   1.647   2.738 -0.2113 -0.2687 -0.1000
 1420poe     o2 8390   1.030   1.741   2.654 -0.1980  0.0233  0.2358
 1420poe    c23 8391   1.170   1.752   2.670 -0.2021  0.3348  0.0721
 1420poe    c23 8392   1.217   1.866   2.579  0.0979  0.0923 -0.0799
 1420poe     o2 8393   1.135   1.977   2.608 -0.1611 -0.2519  0.5064
 1420poe    c23 8394   1.184   2.101   2.564 -0.3584 -0.3643 -0.0371
 1420poe    c23 8395   1.069   2.202   2.568 -0.2341 -0.2339  0.2773
 1420poe     o2 8396   0.969   2.139   2.491 -0.1859  0.0124  0.0117
 1420poe    c23 8397   0.880   2.234   2.437  0.4847  0.0778 -1.0079
 1420poe    c23 8398   0.785   2.187   2.325 -0.6535 -0.2056  0.0545
 1420poe     o2 8399   0.852   2.113   2.225  0.1335  0.4945  0.0534
 1420poe    c31 8400   0.758   2.063   2.133  0.9141  0.4735 -0.7441
 1421poe    c31 8401   5.978   5.745   4.967  0.1107 -0.1788  0.1311
 1421poe     o2 8402   6.028   5.875   4.988  0.3010 -0.2209 -0.0667
 1421poe    c23 8403   6.026   5.922   5.121  0.7550  0.0042 -0.1374
 1421poe    c23 8404   6.115   5.849   5.223  0.1145 -0.3399  0.1810
 1421poe     o2 8405   6.252   5.879   5.205  0.0290 -0.2706 -0.3637
 1421poe    c23 8406   6.336   5.786   5.269 -0.0465 -0.3147 -0.3295
 1421poe    c23 8407   6.474   5.851   5.254  0.1914 -0.7501 -0.0698
 1421poe     o2 8408   6.499   5.909   5.128  0.3820 -0.4894  0.0879
 1421poe    c23 8409   6.616   5.988   5.122  0.0810 -0.0616 -0.3446
 1421poe    c23 8410   6.611   6.075   4.996  0.1071  0.0797 -0.2480
 1421poe     o2 8411   6.479   6.124   4.987 -0.0769 -0.3529  0.0948
 1421poe    c31 8412   6.471   6.224   4.888  0.4333 -0.0656  0.3420
 1422poe    c31 8413   1.811   4.466   0.485 -0.1705  0.0851  0.0880
 1422poe     o2 8414   1.775   4.409   0.610 -0.0521  0.8309  0.4667
 1422poe    c23 8415   1.891   4.383   0.686 -0.1370  0.6789  0.5438
 1422poe    c23 8416   1.866   4.280   0.797 -0.1237 -0.0581 -0.1263
 1422poe     o2 8417   1.762   4.292   0.892  0.2967  0.3491  0.2893
 1422poe    c23 8418   1.766   4.172   0.966  0.0379  0.2611  0.1604
 1422poe    c23 8419   1.664   4.176   1.082 -0.2197 -0.8946 -0.0157
 1422poe     o2 8420   1.552   4.242   1.027  0.1826  0.0373  0.2625
 1422poe    c23 8421   1.447   4.257   1.119  0.2121  0.1564  0.2769
 1422poe    c23 8422   1.325   4.300   1.036  0.2962  0.2940  0.2241
 1422poe     o2 8423   1.351   4.406   0.947 -0.2574  0.1707 -0.0913
 1422poe    c31 8424   1.235   4.441   0.876 -0.1166  0.2057 -0.3052
 1423poe    c31 8425   6.589   1.948   0.106 -0.2719  0.0581  0.3643
 1423poe     o2 8426   6.528   1.896   0.222 -0.0231  0.1509  0.5367
 1423poe    c23 8427   6.396   1.864   0.184  0.0835  0.1442  0.1699
 1423poe    c23 8428   6.328   1.797   0.305 -0.3688  0.6308  0.1898
 1423poe     o2 8429   6.357   1.868   0.423 -0.0391  0.0902  0.4397
 1423poe    c23 8430   6.264   1.857   0.529 -0.4359  0.0570  0.0936
 1423poe    c23 8431   6.343   1.903   0.653 -0.2873 -0.1807  0.0877
 1423poe     o2 8432   6.460   1.824   0.658  0.0708  0.3304 -0.1132
 1423poe    c23 8433   6.532   1.850   0.776  0.1656 -0.2198 -0.0446
 1423poe    c23 8434   6.670   1.780   0.773  0.2866 -0.0133  0.6806
 1423poe     o2 8435   6.757   1.862   0.699 -0.3647  0.1165  0.0454
 1423poe    c31 8436   6.892   1.837   0.731 -0.3015  0.1828 -0.1706
 1424poe    c31 8437   2.224   0.405   0.486  0.1262 -0.1032 -0.6792
 1424poe     o2 8438   2.121   0.320   0.534  0.4433 -0.0668  0.0683
 1424poe    c23 8439   2.164   0.240   0.641 -0.0982 -0.0372  0.3085
 1424poe    c23 8440   2.052   0.141   0.678 -0.0995 -0.1408  0.0254
 1424poe     o2 8441   1.923   0.187   0.712 -0.1767 -0.2757 -0.0839
 1424poe    c23 8442   1.861   0.083   0.785 -0.0719 -0.3987 -0.1694
 1424poe    c23 8443   1.720   0.130   0.826  0.1340  0.5549 -0.5178
 1424poe     o2 8444   1.744   0.262   0.869 -0.0089  0.3292  0.2695
 1424poe    c23 8445   1.618   0.321   0.886 -0.1982  0.2080 -0.6794
 1424poe    c23 8446   1.644   0.470   0.911  0.1514  0.0014  0.2199
 1424poe     o2 8447   1.728   0.524   0.811 -0.2260  0.2910  0.0538
 1424poe    c31 8448   1.724   0.663   0.828  1.0079  0.2831  0.4936
 1425poe    c31 8449   6.281   2.570   6.871  0.3834  0.2273  0.0995
 1425poe     o2 8450   6.307   2.709   6.874  0.0512  0.2993 -0.1884
 1425poe    c23 8451   6.228   2.768   6.974  0.2541  0.2695 -0.0092
 1425poe    c23 8452   6.300   2.901   7.003 -0.0769  0.3463  0.4884
 1425poe     o2 8453   6.346   2.950   6.879 -0.2471 -0.2824  0.1710
 1425poe    c23 8454   6.423   3.066   6.900 -0.2294 -0.2132 -0.2524
 1425poe    c23 8455   6.475   3.116   6.764 -0.4154 -0.2117 -0.3222
 1425poe     o2 8456   6.532   3.001   6.705  0.1083 -0.1832  0.1195
 1425poe    c23 8457   6.616   3.031   6.596 -0.2227 -0.4822 -0.2207
 1425poe    c23 8458   6.550   3.058   6.459  0.1582  0.3376 -0.2495
 1425poe     o2 8459   6.463   2.953   6.424 -0.2423  0.5376  0.1274
 1425poe    c31 8460   6.422   2.966   6.290 -0.2193 -0.0445  0.0592
 1426poe    c31 8461   1.851   2.923   2.365  0.2593 -0.2495  0.5085
 1426poe     o2 8462   1.797   3.037   2.427  0.5668 -0.0396  0.3924
 1426poe    c23 8463   1.864   3.152   2.379  0.4610  0.1561  0.7053
 1426poe    c23 8464   1.790   3.278   2.428 -0.1971  0.1262 -0.1840
 1426poe     o2 8465   1.766   3.275   2.567 -0.1258  0.0661 -0.1728
 1426poe    c23 8466   1.674   3.375   2.605 -0.4526 -0.1624 -0.3498
 1426poe    c23 8467   1.648   3.381   2.757  0.5870  0.1168 -0.1776
 1426poe     o2 8468   1.660   3.248   2.800  0.2611  0.1472  0.0006
 1426poe    c23 8469   1.560   3.227   2.898  0.0690  0.0773 -0.2096
 1426poe    c23 8470   1.582   3.087   2.958  0.1639  0.1231 -0.1376
 1426poe     o2 8471   1.467   3.024   3.009  0.2303  0.1094 -0.0029
 1426poe    c31 8472   1.496   2.897   3.064  0.3101 -0.0886 -0.4920
 1427poe    c31 8473   0.045   0.658   3.649 -0.3323  0.8903  0.0325
 1427poe     o2 8474  -0.083   0.638   3.591 -0.0354  0.1036 -0.3655
 1427poe    c23 8475  -0.151   0.535   3.659  0.1710  0.1600 -0.0677
 1427poe    c23 8476  -0.291   0.522   3.596  0.1532 -0.0725  0.0173
 1427poe     o2 8477  -0.358   0.646   3.610 -0.1077 -0.2627  0.4726
 1427poe    c23 8478  -0.479   0.644   3.538  0.1587  0.0799  0.0167
 1427poe    c23 8479  -0.519   0.781   3.480 -0.8236 -0.0161  0.4436
 1427poe     o2 8480  -0.506   0.870   3.589 -0.3271 -0.2549  0.5792
 1427poe    c23 8481  -0.552   1.000   3.564 -0.5668 -0.3600  0.4680
 1427poe    c23 8482  -0.493   1.074   3.686  0.1771 -0.3074  0.0869
 1427poe     o2 8483  -0.360   1.046   3.723  0.5262  0.5170 -0.5161
 1427poe    c31 8484  -0.323   1.129   3.832  0.2579 -0.0216 -0.0101
 1428poe    c31 8485   0.505   2.233   4.800 -0.5447 -0.5078  0.3336
 1428poe     o2 8486   0.581   2.280   4.691 -0.5412  0.2259  0.6468
 1428poe    c23 8487   0.669   2.378   4.741  0.2770 -0.4657  0.5927
 1428poe    c23 8488   0.754   2.456   4.638 -0.7717  0.4110  0.3657
 1428poe     o2 8489   0.692   2.557   4.562 -0.3714  0.2327 -0.1948
 1428poe    c23 8490   0.741   2.593   4.435 -0.2199 -0.4760 -0.3420
 1428poe    c23 8491   0.670   2.724   4.396  0.1137 -0.0798  0.3766
 1428poe     o2 8492   0.536   2.714   4.353  0.1810 -0.0295  0.1546
 1428poe    c23 8493   0.496   2.833   4.289  0.2771  0.0549  0.2493
 1428poe    c23 8494   0.385   2.821   4.183  0.2516  0.1108  0.2699
 1428poe     o2 8495   0.324   2.696   4.207 -0.0712  0.3173  0.5346
 1428poe    c31 8496   0.223   2.662   4.114  0.6743 -0.2191 -0.0874
 1429poe    c31 8497   5.878   6.149   3.228 -0.0157  0.8981 -0.3153
 1429poe     o2 8498   5.809   6.170   3.349  0.0952  0.1133 -0.1107
 1429poe    c23 8499   5.685   6.235   3.328 -0.0724 -0.1872 -0.0495
 1429poe    c23 8500   5.610   6.273   3.457 -0.5441  0.3034 -0.4640
 1429poe     o2 8501   5.688   6.353   3.543 -0.6119  0.2030 -0.3089
 1429poe    c23 8502   5.626   6.388   3.664  0.2085  0.3347  0.0815
 1429poe    c23 8503   5.721   6.455   3.765  0.0216  0.2139  0.3408
 1429poe     o2 8504   5.831   6.368   3.781 -0.1529 -0.1120 -0.2055
 1429poe    c23 8505   5.892   6.392   3.905 -0.0658 -0.1750 -0.2363
 1429poe    c23 8506   6.020   6.306   3.908 -0.5163 -0.8547 -0.1299
 1429poe     o2 8507   6.088   6.328   3.786  0.1962  0.1474  0.4293
 1429poe    c31 8508   6.217   6.272   3.794  0.2735  0.3260  0.4267
 1430poe    c31 8509   2.138   0.391   5.539 -0.2643 -0.0562 -0.2207
 1430poe     o2 8510   2.074   0.462   5.436  0.0968 -0.2874 -0.6090
 1430poe    c23 8511   1.979   0.396   5.355 -0.4133  0.2936 -0.4924
 1430poe    c23 8512   1.845   0.346   5.413  0.0792 -0.3510  0.1005
 1430poe     o2 8513   1.766   0.447   5.470 -0.0278 -0.2582 -0.2110
 1430poe    c23 8514   1.638   0.402   5.509  0.2643 -0.8256  0.1003
 1430poe    c23 8515   1.561   0.509   5.588  0.1383 -0.9613  0.1608
 1430poe     o2 8516   1.635   0.560   5.696  0.1132 -0.4470 -0.0618
 1430poe    c23 8517   1.556   0.650   5.770  0.4695 -0.1776 -0.0020
 1430poe    c23 8518   1.632   0.749   5.861 -0.1712  0.3181  0.0066
 1430poe     o2 8519   1.717   0.691   5.957 -0.2300 -0.0958 -0.1834
 1430poe    c31 8520   1.793   0.801   6.004  0.4799 -0.5563 -0.2434
 1431poe    c31 8521   4.056   4.493   1.891  0.2130 -0.2746 -0.3183
 1431poe     o2 8522   4.031   4.593   1.795  0.2115  0.1381  0.1077
 1431poe    c23 8523   4.153   4.626   1.732  0.1997 -0.2166 -0.1038
 1431poe    c23 8524   4.144   4.773   1.686  0.4902 -0.1889 -0.0796
 1431poe     o2 8525   4.013   4.788   1.636  0.5367  0.2530 -0.0663
 1431poe    c23 8526   4.002   4.913   1.570 -0.4359 -0.2292 -0.8515
 1431poe    c23 8527   3.854   4.928   1.531 -0.6083  0.3670 -0.0062
 1431poe     o2 8528   3.761   4.899   1.632 -0.2284 -0.0615  0.2218
 1431poe    c23 8529   3.627   4.931   1.600 -0.2954 -0.1952  0.3608
 1431poe    c23 8530   3.545   4.932   1.730 -0.1345  0.2636  0.4631
 1431poe     o2 8531   3.546   4.804   1.790  0.1270  0.0149 -0.0598
 1431poe    c31 8532   3.427   4.738   1.752  0.2913 -0.1413 -0.3028
 1432poe    c31 8533   4.274   4.554   0.795  0.2331  0.3798  0.1598
 1432poe     o2 8534   4.287   4.546   0.935  0.0929  0.0105  0.1528
 1432poe    c23 8535   4.376   4.649   0.972  0.2161 -0.0678  0.0737
 1432poe    c23 8536   4.382   4.643   1.126 -0.4108 -0.4323  0.0847
 1432poe     o2 8537   4.383   4.515   1.185 -0.2096 -0.4926 -0.0462
 1432poe    c23 8538   4.337   4.527   1.318 -0.2873 -0.0706 -0.1103
 1432poe    c23 8539   4.380   4.399   1.392  0.7861  0.1388 -0.3600
 1432poe     o2 8540   4.336   4.281   1.330  0.2249  0.1435  0.0258
 1432poe    c23 8541   4.387   4.159   1.380 -0.4836 -0.1124  0.1425
 1432poe    c23 8542   4.329   4.042   1.298 -0.0392  0.1607 -0.5693
 1432poe     o2 8543   4.353   4.064   1.161  0.5672  0.1563 -0.4696
 1432poe    c31 8544   4.325   3.940   1.100  0.5105  0.1548 -0.4403
 1433poe    c31 8545   6.652   0.506   0.956 -0.5687 -0.7361  0.4089
 1433poe     o2 8546   6.540   0.590   0.969 -0.2467 -0.1710 -0.3988
 1433poe    c23 8547   6.448   0.547   1.066 -0.0793  0.2061 -0.0664
 1433poe    c23 8548   6.375   0.670   1.122 -0.0821  0.2639 -0.1979
 1433poe     o2 8549   6.349   0.759   1.015 -0.1037  0.2857 -0.1747
 1433poe    c23 8550   6.338   0.892   1.061  0.2143  0.0781  0.5217
 1433poe    c23 8551   6.468   0.962   1.015  0.1671 -0.2863 -0.1856
 1433poe     o2 8552   6.502   0.916   0.886 -0.0782 -0.1853 -0.2878
 1433poe    c23 8553   6.635   0.954   0.860  0.0347 -0.4128 -0.0427
 1433poe    c23 8554   6.664   0.883   0.727  0.5837 -0.4232  0.0769
 1433poe     o2 8555   6.617   0.750   0.737 -0.1026 -0.1778  0.1583
 1433poe    c31 8556   6.672   0.676   0.631 -0.1181 -0.2150  0.1763
 1434poe    c31 8557   2.578   5.964   3.317 -0.0045 -0.0509 -0.0471
 1434poe     o2 8558   2.673   6.019   3.229  0.2721 -0.0530  0.2483
 1434poe    c23 8559   2.656   5.976   3.095 -0.5263 -0.0650  0.3510
 1434poe    c23 8560   2.794   5.979   3.029 -0.3660 -0.3760  0.6655
 1434poe     o2 8561   2.893   5.947   3.125  0.2475  0.0356  0.1806
 1434poe    c23 8562   3.003   5.897   3.052 -0.0379 -0.1717 -0.1097
 1434poe    c23 8563   3.099   5.838   3.156 -0.0511 -0.0801 -0.0462
 1434poe     o2 8564   3.108   5.921   3.271  0.0192  0.0683 -0.1578
 1434poe    c23 8565   3.184   5.866   3.376 -0.3701  0.7134  0.4650
 1434poe    c23 8566   3.258   5.979   3.450  0.2182  0.6398 -0.0055
 1434poe     o2 8567   3.172   6.069   3.517 -0.2296  0.2647 -0.0741
 1434poe    c31 8568   3.243   6.186   3.549  0.0990  0.0627 -0.0533
 1435poe    c31 8569   3.587   3.099   6.794 -0.5463  0.0889 -0.0787
 1435poe     o2 8570   3.508   3.193   6.864 -0.2323  0.4918 -0.2549
 1435poe    c23 8571   3.557   3.244   6.986 -0.1501  0.0613 -0.1052
 1435poe    c23 8572   3.440   3.316   7.056 -0.1924 -0.5609  0.4743
 1435poe     o2 8573   3.386   3.412   6.968  0.3383 -0.4562  0.2563
 1435poe    c23 8574   3.273   3.463   7.035  0.1372 -0.4269 -0.1047
 1435poe    c23 8575   3.179   3.536   6.937  0.5609  0.0077 -0.1927
 1435poe     o2 8576   3.172   3.465   6.816  0.5694  0.3813 -0.4148
 1435poe    c23 8577   3.092   3.537   6.724 -0.3140  0.0893  0.1111
 1435poe    c23 8578   3.095   3.495   6.576  0.2036  0.1333  0.1051
 1435poe     o2 8579   3.213   3.535   6.510 -0.0410 -0.0832 -0.4728
 1435poe    c31 8580   3.217   3.467   6.387  0.7735  0.1171 -0.5619
 1436poe    c31 8581   1.405   2.478   0.986 -0.3671  0.2332 -0.2717
 1436poe     o2 8582   1.341   2.603   0.974 -0.5482  0.2496  0.7073
 1436poe    c23 8583   1.372   2.662   0.849 -0.3783 -0.4128  0.4299
 1436poe    c23 8584   1.282   2.787   0.840  0.4310  0.1180 -0.4361
 1436poe     o2 8585   1.316   2.894   0.926  0.2691 -0.1188 -0.0775
 1436poe    c23 8586   1.414   2.987   0.888 -0.1394  0.2811 -0.1539
 1436poe    c23 8587   1.486   3.027   1.018 -0.2730  0.4761 -0.1398
 1436poe     o2 8588   1.436   3.133   1.097 -0.2904  0.3571  0.0090
 1436poe    c23 8589   1.518   3.175   1.204 -0.0821 -0.2340  0.0833
 1436poe    c23 8590   1.493   3.315   1.263  0.1792 -0.3057  0.3657
 1436poe     o2 8591   1.376   3.322   1.340  0.0481  0.6934  0.0893
 1436poe    c31 8592   1.390   3.431   1.428  0.6239  0.5400  0.1926
 1437poe    c31 8593   1.843   1.119   1.669 -0.4780  0.1443  0.4328
 1437poe     o2 8594   1.717   1.080   1.619 -0.4016  0.0700  0.2977
 1437poe    c23 8595   1.631   1.085   1.731 -0.5018 -0.6800  0.2594
 1437poe    c23 8596   1.485   1.067   1.687 -0.3043 -0.8542 -0.3334
 1437poe     o2 8597   1.454   1.176   1.603  0.1965 -0.3595  0.1166
 1437poe    c23 8598   1.315   1.169   1.583  0.1729  0.3413  0.0225
 1437poe    c23 8599   1.242   1.294   1.528  0.2947  0.3144 -0.2021
 1437poe     o2 8600   1.293   1.332   1.403 -0.2039  0.1018 -0.4742
 1437poe    c23 8601   1.253   1.458   1.355 -0.1022  0.3099 -0.0129
 1437poe    c23 8602   1.333   1.501   1.231 -0.3727 -0.1662 -0.3562
 1437poe     o2 8603   1.474   1.506   1.238 -0.3662 -0.1455 -0.5073
 1437poe    c31 8604   1.503   1.611   1.149 -0.4985  0.3866  0.0725
 1438poe    c31 8605   2.184   5.187   0.825  0.0149  0.1445 -0.0836
 1438poe     o2 8606   2.125   5.201   0.952  0.5436  0.9330  0.0797
 1438poe    c23 8607   2.151   5.109   1.055  0.2013 -0.0756 -0.7206
 1438poe    c23 8608   2.084   4.971   1.042 -0.2429  0.1013 -0.3279
 1438poe     o2 8609   1.943   4.973   1.055 -0.2320 -0.0357 -0.1906
 1438poe    c23 8610   1.893   4.843   1.030 -0.2034 -0.1480  0.3193
 1438poe    c23 8611   1.742   4.843   1.062 -0.2919 -0.0932 -0.0840
 1438poe     o2 8612   1.722   4.875   1.198  0.0249 -0.4073  0.0381
 1438poe    c23 8613   1.585   4.867   1.231  0.0287  0.4082  0.2627
 1438poe    c23 8614   1.585   4.834   1.381 -0.3186  0.4098  0.2632
 1438poe     o2 8615   1.687   4.903   1.449  0.1140  0.3231 -0.2975
 1438poe    c31 8616   1.699   4.871   1.585 -0.0714  0.5809 -0.2183
 1439poe    c31 8617   1.357   4.024   2.654  0.1041 -0.0087  0.2080
 1439poe     o2 8618   1.232   3.995   2.595  0.3206 -0.3903 -0.0702
 1439poe    c23 8619   1.146   3.962   2.702  0.2788  0.6381  0.2241
 1439poe    c23 8620   1.006   3.920   2.655  0.4627  0.1575  0.0984
 1439poe     o2 8621   0.958   4.033   2.585 -0.1033 -0.4225 -0.4666
 1439poe    c23 8622   0.824   4.016   2.546 -0.2605 -0.6111  0.1510
 1439poe    c23 8623   0.785   4.104   2.426 -0.1022 -0.1612  0.4262
 1439poe     o2 8624   0.822   4.238   2.446 -0.0600 -0.1164  0.0437
 1439poe    c23 8625   0.803   4.323   2.335 -0.1830  0.0240  0.1722
 1439poe    c23 8626   0.861   4.464   2.354 -0.4230  0.1315  0.1175
 1439poe     o2 8627   0.965   4.434   2.445  0.0841  0.0553 -0.4769
 1439poe    c31 8628   1.030   4.557   2.465 -0.2107  0.2250 -0.5475
 1440poe    c31 8629   3.594   1.005   4.931 -0.2470  0.0175 -0.5289
 1440poe     o2 8630   3.519   1.032   5.048 -0.3289  0.4189 -0.6716
 1440poe    c23 8631   3.463   0.911   5.093 -0.9058  0.6792 -0.6836
 1440poe    c23 8632   3.383   0.960   5.215 -0.2819 -0.1279  0.0557
 1440poe     o2 8633   3.307   1.074   5.183  0.2281  0.1965 -0.0152
 1440poe    c23 8634   3.184   1.074   5.252 -0.2244 -0.0645 -0.8081
 1440poe    c23 8635   3.121   1.215   5.257 -0.1831 -0.0700 -0.0675
 1440poe     o2 8636   3.073   1.258   5.132  0.4508  0.0298 -0.2815
 1440poe    c23 8637   3.067   1.398   5.111 -0.0672  0.1271  0.4831
 1440poe    c23 8638   3.045   1.423   4.961 -0.0437  0.3559  0.5183
 1440poe     o2 8639   2.915   1.383   4.922  0.1653  0.1076  0.0762
 1440poe    c31 8640   2.821   1.488   4.916 -0.1853 -0.2081  0.0334
 1441poe    c31 8641   2.958   3.184   5.331 -0.0293 -0.4661 -0.0645
 1441poe     o2 8642   2.965   3.194   5.472 -0.4111  0.1389 -0.0868
 1441poe    c23 8643   2.870   3.285   5.522 -0.5893 -0.1629  0.1257
 1441poe    c23 8644   2.861   3.253   5.672  0.4450 -0.2049  0.1840
 1441poe     o2 8645   2.992   3.247   5.725  0.3949 -0.1498  0.3139
 1441poe    c23 8646   2.998   3.217   5.863 -0.4668 -0.2996  0.3259
 1441poe    c23 8647   3.144   3.207   5.911 -0.3883 -0.3221  0.0819
 1441poe     o2 8648   3.211   3.128   5.815 -0.0163  0.3963 -0.2586
 1441poe    c23 8649   3.346   3.166   5.832  0.0819  0.1544 -0.5006
 1441poe    c23 8650   3.447   3.075   5.760  0.4056 -0.1684  0.3450
 1441poe     o2 8651   3.470   3.108   5.625  0.3051  0.0476  0.3809
 1441poe    c31 8652   3.515   2.999   5.547 -1.2897 -0.1704 -0.2782
 1442poe    c31 8653   6.771   1.292   3.258 -0.4053  0.0943  0.3987
 1442poe     o2 8654   6.875   1.299   3.352 -0.5613  0.4667  0.5450
 1442poe    c23 8655   7.000   1.251   3.308 -0.7112  0.0982  0.5204
 1442poe    c23 8656   7.089   1.218   3.429 -0.5073 -0.0187  0.3415
 1442poe     o2 8657   7.104   1.341   3.498  0.1860  0.0239  0.1206
 1442poe    c23 8658   7.210   1.338   3.591  0.5239  0.4505 -0.2495
 1442poe    c23 8659   7.223   1.477   3.655 -0.1033  0.3587  0.0832
 1442poe     o2 8660   7.089   1.509   3.687 -0.0177  0.0257  0.7986
 1442poe    c23 8661   7.068   1.634   3.749 -0.2024  0.2596  0.2653
 1442poe    c23 8662   6.928   1.695   3.724 -0.0707  0.3595 -0.2441
 1442poe     o2 8663   6.922   1.727   3.587 -0.3926 -0.4604 -0.4244
 1442poe    c31 8664   6.801   1.796   3.565 -0.0682 -0.0231 -0.8576
 1443poe    c31 8665   6.600   4.467   4.814  0.0716 -0.6444  0.1655
 1443poe     o2 8666   6.726   4.531   4.819 -0.0705 -0.3486 -0.0494
 1443poe    c23 8667   6.741   4.624   4.924 -0.1452  0.1713 -0.4990
 1443poe    c23 8668   6.679   4.764   4.904 -0.1270  0.2419 -0.0667
 1443poe     o2 8669   6.539   4.776   4.915 -0.1346 -0.0813  0.2066
 1443poe    c23 8670   6.493   4.907   4.888 -0.1838 -0.0926  0.2345
 1443poe    c23 8671   6.341   4.928   4.885 -0.2603 -0.6426  0.1777
 1443poe     o2 8672   6.301   4.859   4.769 -0.7275 -0.6892  0.3624
 1443poe    c23 8673   6.163   4.882   4.749 -0.7236 -0.5544  0.4908
 1443poe    c23 8674   6.102   4.809   4.628 -0.3607  0.2562 -0.1921
 1443poe     o2 8675   6.153   4.843   4.501  0.6432  0.4280  0.2467
 1443poe    c31 8676   6.071   4.804   4.393  0.3201  0.7134  0.3898
 1444poe    c31 8677   3.083   5.564   0.117 -1.0327 -0.0879  0.4362
 1444poe     o2 8678   3.108   5.659   0.016 -0.0117 -0.2279  0.5414
 1444poe    c23 8679   3.188   5.587  -0.074 -0.1909  0.1169  0.1011
 1444poe    c23 8680   3.259   5.677  -0.177 -0.6353 -0.1165 -0.4148
 1444poe     o2 8681   3.157   5.757  -0.232 -0.5333  0.1786 -0.1764
 1444poe    c23 8682   3.195   5.839  -0.340  0.1080  0.0954 -0.0182
 1444poe    c23 8683   3.268   5.970  -0.307  0.2304 -0.0515  0.2962
 1444poe     o2 8684   3.186   6.052  -0.228 -0.2166 -0.0036 -0.2179
 1444poe    c23 8685   3.238   6.181  -0.205  0.1784 -0.1301 -0.3844
 1444poe    c23 8686   3.139   6.272  -0.128  0.1266 -0.3731 -0.1622
 1444poe     o2 8687   3.085   6.207  -0.015 -0.1773  0.2553  0.0543
 1444poe    c31 8688   3.025   6.301   0.072  0.3098  0.4032  0.2348
 1445poe    c31 8689   0.731   3.284   2.168  0.4673  0.4715 -0.0796
 1445poe     o2 8690   0.609   3.301   2.098  0.2455 -0.3233  0.1153
 1445poe    c23 8691   0.542   3.425   2.103 -0.1471 -0.5261 -0.0398
 1445poe    c23 8692   0.406   3.419   2.032 -0.3431  0.3471  0.2535
 1445poe     o2 8693   0.332   3.309   2.079 -0.2304  0.0004 -0.3795
 1445poe    c23 8694   0.198   3.313   2.034 -0.3962 -0.4405  0.0642
 1445poe    c23 8695   0.144   3.170   2.052 -0.1591 -0.5936 -0.4158
 1445poe     o2 8696   0.245   3.081   2.008  0.4913 -0.0492 -0.0369
 1445poe    c23 8697   0.205   2.946   2.004 -0.2226  0.1596 -0.2300
 1445poe    c23 8698   0.305   2.841   1.950 -0.3907  0.0955 -0.4195
 1445poe     o2 8699   0.319   2.840   1.810  0.1118  0.2117 -0.3710
 1445poe    c31 8700   0.430   2.762   1.771  0.3421  0.3421  0.0117
 1446poe    c31 8701   4.706   5.584   5.384  0.3214 -0.4817 -0.4989
 1446poe     o2 8702   4.605   5.512   5.452 -0.0164  0.0364 -0.4481
 1446poe    c23 8703   4.480   5.532   5.391 -0.1916  0.0667 -0.0848
 1446poe    c23 8704   4.376   5.471   5.487  0.0782 -0.0168  0.1546
 1446poe     o2 8705   4.438   5.357   5.542  0.3395  0.1675  0.2440
 1446poe    c23 8706   4.365   5.293   5.644 -0.0855  0.3071  0.0295
 1446poe    c23 8707   4.448   5.169   5.683 -0.0818  0.2916 -0.0307
 1446poe     o2 8708   4.588   5.180   5.673 -0.0133 -0.5919 -0.1286
 1446poe    c23 8709   4.639   5.235   5.793  0.1359 -0.4378 -0.2604
 1446poe    c23 8710   4.763   5.317   5.757 -0.1563  0.3244  0.4415
 1446poe     o2 8711   4.732   5.438   5.691  0.3887  0.1127 -0.2196
 1446poe    c31 8712   4.817   5.536   5.746  0.0688 -0.1997  0.8648
 1447poe    c31 8713   5.477   0.495   2.926 -0.0606 -0.1655 -0.0432
 1447poe     o2 8714   5.521   0.424   2.813 -0.2361 -0.1295 -0.1338
 1447poe    c23 8715   5.630   0.490   2.751 -0.1333 -0.3761 -0.2177
 1447poe    c23 8716   5.693   0.396   2.647  1.0201  0.0242  0.1046
 1447poe     o2 8717   5.583   0.351   2.570  0.5647 -0.1169  0.8232
 1447poe    c23 8718   5.642   0.280   2.464 -0.1798  0.0741  0.2777
 1447poe    c23 8719   5.534   0.215   2.376  0.4288  0.3770 -0.7143
 1447poe     o2 8720   5.437   0.315   2.355 -0.4917 -0.2330  0.4948
 1447poe    c23 8721   5.357   0.302   2.240 -0.3506 -0.0017  0.3696
 1447poe    c23 8722   5.264   0.421   2.208  0.0795  0.2194 -0.0616
 1447poe     o2 8723   5.143   0.440   2.278  0.1855  0.1585  0.1379
 1447poe    c31 8724   5.121   0.579   2.277  0.6235  0.2400  0.9585
 1448poe    c31 8725   2.594   0.556   5.685  0.5225 -0.4118 -0.1098
 1448poe     o2 8726   2.577   0.575   5.824  0.2402 -0.0424 -0.1914
 1448poe    c23 8727   2.635   0.699   5.859  0.1811 -0.1014  0.1200
 1448poe    c23 8728   2.602   0.736   6.004 -0.4881  0.4728 -0.1707
 1448poe     o2 8729   2.652   0.866   6.028  0.1844  0.2033 -0.0898
 1448poe    c23 8730   2.685   0.891   6.163 -0.1113 -0.3509  0.0877
 1448poe    c23 8731   2.767   1.019   6.184 -0.0602 -0.3417 -0.1688
 1448poe     o2 8732   2.692   1.136   6.160  0.3081 -0.0449  0.1117
 1448poe    c23 8733   2.758   1.252   6.206  0.6213 -0.0500 -0.3256
 1448poe    c23 8734   2.648   1.360   6.205  0.6817  0.0142 -0.1065
 1448poe     o2 8735   2.568   1.322   6.096  0.7504  0.0725 -0.1781
 1448poe    c31 8736   2.506   1.437   6.044  0.2166 -0.0576  0.1652
 1449poe    c31 8737   4.239   4.460   0.335  0.8993 -0.2553  0.2093
 1449poe     o2 8738   4.162   4.412   0.228  0.3330  0.2214  0.3964
 1449poe    c23 8739   4.152   4.271   0.234 -0.9092  0.2874  0.2028
 1449poe    c23 8740   4.052   4.234   0.124 -0.6680 -0.6383  0.2852
 1449poe     o2 8741   3.965   4.345   0.119 -0.0794 -0.1788  0.1936
 1449poe    c23 8742   3.837   4.309   0.071 -0.0110 -0.2212  0.0419
 1449poe    c23 8743   3.801   4.405  -0.043  0.3091 -0.2412 -0.0788
 1449poe     o2 8744   3.834   4.536  -0.003  0.1318 -0.2518  0.1048
 1449poe    c23 8745   3.769   4.631  -0.084 -0.0169 -0.4316  0.0138
 1449poe    c23 8746   3.823   4.773  -0.057  0.1897 -0.4557 -0.2648
 1449poe     o2 8747   3.953   4.796  -0.106  0.1366 -0.1604 -0.2670
 1449poe    c31 8748   3.946   4.847  -0.237 -0.4694 -0.5483 -0.3897
 1450poe    c31 8749   5.012   4.009   4.055  0.0534  0.2821 -0.4975
 1450poe     o2 8750   4.940   3.901   4.001 -0.5763  0.6193 -0.3462
 1450poe    c23 8751   4.841   3.871   4.097  0.1253  0.6902  0.4130
 1450poe    c23 8752   4.818   3.720   4.075  0.0430  0.7326  0.2038
 1450poe     o2 8753   4.822   3.703   3.935 -0.0995  0.4330  0.2352
 1450poe    c23 8754   4.855   3.572   3.894 -0.1847  0.3527  0.4219
 1450poe    c23 8755   4.993   3.575   3.826 -0.2704  0.1033  0.2363
 1450poe     o2 8756   4.999   3.704   3.768 -0.2757  0.1053  0.2401
 1450poe    c23 8757   5.126   3.735   3.714 -0.3067 -0.1731  0.0016
 1450poe    c23 8758   5.104   3.867   3.638  0.3831 -0.0202  0.0612
 1450poe     o2 8759   5.026   3.961   3.709 -0.1844 -0.4512  0.0149
 1450poe    c31 8760   5.016   4.081   3.636 -0.2090 -0.2255  0.3887
 1451poe    c31 8761   6.220   3.005   3.571  0.3817 -0.3476  0.0404
 1451poe     o2 8762   6.353   2.974   3.533  0.5975 -0.1292  0.6053
 1451poe    c23 8763   6.445   3.080   3.532  0.5996 -0.1294 -0.2836
 1451poe    c23 8764   6.519   3.120   3.661  0.1124  0.1617 -0.0897
 1451poe     o2 8765   6.626   3.029   3.675 -0.1017 -0.1530 -0.4671
 1451poe    c23 8766   6.703   3.045   3.793 -0.4515  0.2979 -0.2953
 1451poe    c23 8767   6.795   2.922   3.804 -0.3868  0.3525 -0.2317
 1451poe     o2 8768   6.725   2.800   3.800  0.3371 -0.0697 -0.2234
 1451poe    c23 8769   6.812   2.693   3.828  0.4376  0.1127  0.1624
 1451poe    c23 8770   6.734   2.564   3.796  0.0851  0.2688  0.3875
 1451poe     o2 8771   6.688   2.596   3.667  0.8285 -0.3047 -0.0275
 1451poe    c31 8772   6.635   2.475   3.618  0.2893  0.1498 -0.5824
 1452poe    c31 8773   6.580   4.107   1.042  0.4650 -0.5499  0.4418
 1452poe     o2 8774   6.549   3.971   1.064 -0.3904 -0.4707 -0.1787
 1452poe    c23 8775   6.619   3.901   0.964 -0.4120 -0.2354 -0.3593
 1452poe    c23 8776   6.643   3.756   1.008  0.1803  0.3076  1.1803
 1452poe     o2 8777   6.526   3.720   1.079 -0.0805  0.3035  0.7503
 1452poe    c23 8778   6.526   3.587   1.127 -0.2370 -0.0096 -0.0994
 1452poe    c23 8779   6.388   3.559   1.188 -0.2236 -0.2099 -0.1602
 1452poe     o2 8780   6.376   3.656   1.290  0.2311 -0.1510 -0.1626
 1452poe    c23 8781   6.271   3.623   1.377 -0.2808  0.5671 -0.4977
 1452poe    c23 8782   6.239   3.721   1.492 -0.4676 -0.2130  0.1227
 1452poe     o2 8783   6.186   3.846   1.456 -0.2138 -0.1258  0.0514
 1452poe    c31 8784   6.174   3.937   1.563 -0.1273  0.3948 -0.3789
 1453poe    c31 8785   0.503   1.350   2.267 -0.0280 -0.3407  0.7048
 1453poe     o2 8786   0.536   1.213   2.260  0.4139 -0.2007 -0.0872
 1453poe    c23 8787   0.416   1.146   2.229  0.1091 -0.2633  1.1857
 1453poe    c23 8788   0.449   1.008   2.169  0.7716  0.2587  0.3241
 1453poe     o2 8789   0.545   1.023   2.067  0.3854  0.3267 -0.0326
 1453poe    c23 8790   0.577   0.899   2.010 -0.0860  0.0481  0.3061
 1453poe    c23 8791   0.691   0.908   1.907  0.1750 -0.1751  0.5712
 1453poe     o2 8792   0.806   0.967   1.961  0.4910 -0.2447 -0.0152
 1453poe    c23 8793   0.912   0.972   1.869  0.3530  0.2708 -0.1484
 1453poe    c23 8794   1.043   1.020   1.935  0.0290 -0.0668  0.7390
 1453poe     o2 8795   1.012   1.144   1.994 -0.1680 -0.0650  0.6325
 1453poe    c31 8796   1.114   1.181   2.084  0.4820 -0.0785 -0.0857
 1454poe    c31 8797   0.545   0.331   4.606  0.0426  0.0460 -0.2219
 1454poe     o2 8798   0.537   0.271   4.479 -0.8114 -0.5557  0.1052
 1454poe    c23 8799   0.582   0.139   4.499 -0.4169 -0.4382 -0.0035
 1454poe    c23 8800   0.571   0.061   4.367  0.3580 -0.1417 -0.2507
 1454poe     o2 8801   0.655   0.110   4.265 -0.1030  0.5735 -0.3012
 1454poe    c23 8802   0.654   0.022   4.154  0.6142 -0.2554  0.3288
 1454poe    c23 8803   0.712   0.094   4.031  0.1929  0.2798  0.4401
 1454poe     o2 8804   0.838   0.151   4.060  0.4391  0.3095 -0.6525
 1454poe    c23 8805   0.868   0.247   3.961  0.9902  0.0439 -0.7478
 1454poe    c23 8806   0.973   0.334   4.032  0.3320  0.2456 -0.0047
 1454poe     o2 8807   0.931   0.350   4.166 -0.1586 -0.7999 -0.0224
 1454poe    c31 8808   1.014   0.442   4.233 -0.2921 -0.5922 -0.1368
 1455poe    c31 8809   0.002   5.909   6.643 -0.3276 -0.2841  0.0215
 1455poe     o2 8810  -0.037   5.885   6.510 -0.0146  0.0243 -0.1281
 1455poe    c23 8811   0.016   5.763   6.463 -0.1068 -0.1160  0.1304
 1455poe    c23 8812  -0.044   5.729   6.325  0.6521 -0.0638 -0.2176
 1455poe     o2 8813  -0.046   5.851   6.256  0.7487 -0.1398 -0.3531
 1455poe    c23 8814  -0.129   5.846   6.142  0.1669 -0.1397  0.0645
 1455poe    c23 8815  -0.118   5.988   6.083  0.3917 -0.1451  0.0913
 1455poe     o2 8816  -0.152   6.084   6.181 -0.0202  0.4177 -0.5967
 1455poe    c23 8817  -0.143   6.214   6.127 -0.1411  0.6819  0.0157
 1455poe    c23 8818  -0.226   6.314   6.211 -0.1453  0.3598  0.3957
 1455poe     o2 8819  -0.151   6.360   6.322  0.0226 -0.2199  0.5284
 1455poe    c31 8820  -0.226   6.445   6.405 -0.1660  0.1500 -0.0125
 1456poe    c31 8821   1.403   1.060   0.406 -0.0632  0.0297 -0.1074
 1456poe     o2 8822   1.389   1.184   0.473  0.1620 -0.2059  0.3836
 1456poe    c23 8823   1.478   1.287   0.437  0.1701 -0.3459 -0.0030
 1456poe    c23 8824   1.408   1.423   0.420  0.0412 -0.3908  0.1723
 1456poe     o2 8825   1.343   1.452   0.542 -0.3172 -0.2766 -0.0430
 1456poe    c23 8826   1.244   1.552   0.533 -0.0856 -0.0750 -0.3834
 1456poe    c23 8827   1.192   1.573   0.677  0.4922 -0.4066 -0.1227
 1456poe     o2 8828   1.172   1.443   0.728  0.1804 -0.3283 -0.0427
 1456poe    c23 8829   1.098   1.457   0.847  0.1059 -0.2206 -0.1018
 1456poe    c23 8830   1.055   1.317   0.895  0.2349 -0.1379  0.2629
 1456poe     o2 8831   1.171   1.246   0.930  0.3468 -0.3919 -0.5931
 1456poe    c31 8832   1.137   1.114   0.967 -0.1481 -0.0569  0.1735
 1457poe    c31 8833   2.437   0.871   1.374 -0.6851  0.7162 -0.3433
 1457poe     o2 8834   2.298   0.852   1.387 -0.5826  0.2903  0.1974
 1457poe    c23 8835   2.233   0.909   1.274 -0.1706  0.2602 -0.0559
 1457poe    c23 8836   2.089   0.932   1.323 -0.2305  0.1033 -0.1576
 1457poe     o2 8837   2.041   0.804   1.358 -0.0435  0.1525  0.2888
 1457poe    c23 8838   1.907   0.812   1.402 -0.2349 -0.0135 -0.2543
 1457poe    c23 8839   1.872   0.662   1.407 -0.0256 -0.0647 -0.2771
 1457poe     o2 8840   1.964   0.593   1.488 -0.2352 -0.3122 -0.2490
 1457poe    c23 8841   1.923   0.461   1.518 -0.3325 -0.2134  0.0592
 1457poe    c23 8842   2.018   0.380   1.607 -0.2303 -0.0193  0.1283
 1457poe     o2 8843   2.146   0.359   1.553 -0.4170 -0.2024 -0.2470
 1457poe    c31 8844   2.199   0.237   1.599 -0.1758 -0.1030 -0.2564
 1458poe    c31 8845   5.035   6.099   6.418 -0.3819  0.1335  0.1650
 1458poe     o2 8846   5.095   5.973   6.401 -0.2561  0.2817 -0.5142
 1458poe    c23 8847   5.233   5.991   6.377 -0.1882 -0.0651 -0.3901
 1458poe    c23 8848   5.309   5.864   6.419 -0.5643  0.0033  0.5396
 1458poe     o2 8849   5.243   5.761   6.349  0.2989 -0.3586  0.2390
 1458poe    c23 8850   5.320   5.642   6.343  0.5703 -0.1390 -0.7826
 1458poe    c23 8851   5.239   5.529   6.278  0.2716 -0.5765  0.3221
 1458poe     o2 8852   5.115   5.500   6.339  0.2252 -0.0932  0.4626
 1458poe    c23 8853   5.052   5.399   6.263  0.1223  0.0878  0.3068
 1458poe    c23 8854   4.900   5.413   6.241  0.2344  0.2332 -0.4162
 1458poe     o2 8855   4.853   5.532   6.182 -0.1315 -0.2263 -1.0684
 1458poe    c31 8856   4.713   5.535   6.194 -0.0810  0.2223 -0.5620
 1459poe    c31 8857   5.658   0.614   0.821  0.5848 -0.0375  0.0122
 1459poe     o2 8858   5.581   0.586   0.707  0.0446 -0.1486  0.4034
 1459poe    c23 8859   5.452   0.644   0.714 -0.3015 -0.8502  0.0191
 1459poe    c23 8860   5.383   0.634   0.577  0.2661 -0.4574 -0.2986
 1459poe     o2 8861   5.447   0.711   0.477 -0.2249  0.0475 -0.2319
 1459poe    c23 8862   5.367   0.712   0.361  0.0563  0.5253 -0.4211
 1459poe    c23 8863   5.445   0.788   0.252  0.5001  0.5776 -0.0728
 1459poe     o2 8864   5.577   0.738   0.252  0.0972 -0.5002  0.0037
 1459poe    c23 8865   5.641   0.796   0.141  0.3584  0.1920  0.5153
 1459poe    c23 8866   5.778   0.727   0.125  0.2723  0.2121 -0.3778
 1459poe     o2 8867   5.863   0.751   0.236 -0.1018 -0.2712  0.0187
 1459poe    c31 8868   5.920   0.627   0.271  0.4144  0.0469  0.3053
 1460poe    c31 8869   1.115   3.544   6.838  0.3347 -0.6944  0.5831
 1460poe     o2 8870   1.240   3.586   6.888  0.5724 -0.4841 -0.1678
 1460poe    c23 8871   1.264   3.710   6.826 -0.2481 -0.2499 -0.0377
 1460poe    c23 8872   1.397   3.746   6.756 -0.1422 -0.4311  0.0696
 1460poe     o2 8873   1.498   3.777   6.850 -0.3207  0.1917  0.0619
 1460poe    c23 8874   1.597   3.863   6.799 -0.0381 -0.1285  0.0710
 1460poe    c23 8875   1.739   3.844   6.856  0.0262  0.2886  0.0514
 1460poe     o2 8876   1.734   3.836   6.997 -0.2074  0.0326  0.0293
 1460poe    c23 8877   1.863   3.814   7.049 -0.1173 -0.1546 -0.2716
 1460poe    c23 8878   1.855   3.845   7.199 -0.0177 -0.1974 -0.2576
 1460poe     o2 8879   1.747   3.781   7.262  0.1100  0.1048  0.2795
 1460poe    c31 8880   1.801   3.745   7.387  0.3135 -0.4267  0.0401
 1461poe    c31 8881   5.796   4.267   2.881  0.0774  0.3162 -0.0130
 1461poe     o2 8882   5.874   4.184   2.799 -0.0567  0.1035  0.0722
 1461poe    c23 8883   5.999   4.240   2.764  0.1216  0.3807  1.1344
 1461poe    c23 8884   6.110   4.136   2.739 -0.3051  0.2236 -0.1904
 1461poe     o2 8885   6.093   4.028   2.650 -0.1561 -0.1999  0.2894
 1461poe    c23 8886   6.193   3.929   2.663 -0.4062 -0.4846  0.0568
 1461poe    c23 8887   6.185   3.823   2.552  0.3862 -0.3062 -0.1754
 1461poe     o2 8888   6.055   3.768   2.546  0.2300  0.0740 -0.2599
 1461poe    c23 8889   6.038   3.645   2.479 -0.0027 -0.2429  0.3764
 1461poe    c23 8890   5.885   3.633   2.468 -0.0932  0.4779  0.7772
 1461poe     o2 8891   5.832   3.755   2.422  0.3658  0.3750 -0.0353
 1461poe    c31 8892   5.692   3.751   2.414  0.3916 -0.5575 -0.0903
 1462poe    c31 8893   3.284   5.321   3.113  0.2531 -0.1082 -0.2178
 1462poe     o2 8894   3.176   5.351   3.028  0.1783  0.1142 -0.0453
 1462poe    c23 8895   3.055   5.296   3.075  0.0309  0.6456  0.2095
 1462poe    c23 8896   2.969   5.284   2.948  0.2684 -0.7110  0.1551
 1462poe     o2 8897   2.950   5.408   2.884  0.4198 -0.8237 -0.1096
 1462poe    c23 8898   2.892   5.390   2.756 -0.4191  0.1602  0.1136
 1462poe    c23 8899   2.901   5.532   2.697  0.0314  0.0471 -0.0936
 1462poe     o2 8900   3.031   5.586   2.702  0.1413 -0.2084 -0.1939
 1462poe    c23 8901   3.024   5.704   2.625  0.8428 -0.1971 -0.2500
 1462poe    c23 8902   3.157   5.781   2.616  0.3598  0.6699 -0.1090
 1462poe     o2 8903   3.201   5.844   2.734  0.3284  0.2286  0.1411
 1462poe    c31 8904   3.285   5.954   2.708  0.0980  0.3480 -0.1002
 1463poe    c31 8905   6.054   1.008   0.069 -0.1158  0.5239 -0.0636
 1463poe     o2 8906   6.191   0.983   0.046 -0.0454  0.5789  0.2816
 1463poe    c23 8907   6.268   1.087   0.101  0.3224  0.2179  0.4574
 1463poe    c23 8908   6.408   1.092   0.038 -0.0557 -0.3591 -0.4537
 1463poe     o2 8909   6.397   1.077  -0.101 -0.1918  0.3609 -0.5211
 1463poe    c23 8910   6.496   1.145  -0.176  0.0425  0.6562  0.0521
 1463poe    c23 8911   6.507   1.097  -0.322 -0.9762 -0.2219  0.2510
 1463poe     o2 8912   6.381   1.109  -0.384 -0.6262  0.3010 -0.3699
 1463poe    c23 8913   6.390   1.074  -0.520 -0.4303 -0.2482 -0.2166
 1463poe    c23 8914   6.243   1.048  -0.561 -0.4681 -0.0322 -0.2175
 1463poe     o2 8915   6.175   0.990  -0.452  0.1868  0.0427  0.2387
 1463poe    c31 8916   6.035   1.003  -0.466  0.1966  0.1397  0.2303
 1464poe    c31 8917   1.968   2.733   0.814  0.5610  0.0494 -0.2460
 1464poe     o2 8918   2.060   2.642   0.758  0.0261 -0.4099 -0.3880
 1464poe    c23 8919   2.134   2.577   0.859 -0.0026  0.3922  0.1679
 1464poe    c23 8920   2.245   2.494   0.790 -0.1666  0.5457 -0.2865
 1464poe     o2 8921   2.191   2.459   0.665 -0.2221 -0.2649 -0.0439
 1464poe    c23 8922   2.285   2.390   0.586 -0.0096  0.1488 -0.1541
 1464poe    c23 8923   2.222   2.310   0.471 -0.2521 -0.2955  0.2842
 1464poe     o2 8924   2.138   2.391   0.392 -0.3024 -0.0404  0.5946
 1464poe    c23 8925   2.059   2.322   0.297  0.4983 -0.0974 -0.0401
 1464poe    c23 8926   1.973   2.412   0.206  0.1470 -0.2071  0.1815
 1464poe     o2 8927   1.858   2.472   0.260  0.0236 -0.1804 -0.1094
 1464poe    c31 8928   1.792   2.561   0.173 -0.5414 -0.8463 -0.3661
 1465poe    c31 8929   5.386   1.224   3.428  0.2034 -0.2059 -0.1686
 1465poe     o2 8930   5.410   1.091   3.387  0.2399 -0.3351  0.2757
 1465poe    c23 8931   5.316   1.015   3.459 -0.0362 -0.3315 -0.0786
 1465poe    c23 8932   5.288   0.875   3.400 -0.1646 -0.4064  0.1561
 1465poe     o2 8933   5.216   0.859   3.279 -0.6154  0.3804  0.3069
 1465poe    c23 8934   5.191   0.721   3.267  0.0479  0.2923 -0.1267
 1465poe    c23 8935   5.107   0.681   3.144  0.0323 -0.1373  0.0227
 1465poe     o2 8936   4.997   0.767   3.125  0.3711  0.2607 -0.1527
 1465poe    c23 8937   4.912   0.699   3.035  0.4190  0.0995 -0.0771
 1465poe    c23 8938   4.814   0.800   2.974 -0.0297 -0.1107  0.2911
 1465poe     o2 8939   4.759   0.872   3.083  0.1106  0.4865 -0.0255
 1465poe    c31 8940   4.634   0.925   3.048 -0.4690 -0.6350  0.2822
 1466poe    c31 8941   5.129   3.319   0.431 -1.0025 -0.2493  0.2330
 1466poe     o2 8942   5.108   3.274   0.299  0.0274 -0.0586 -0.0019
 1466poe    c23 8943   5.032   3.158   0.326  0.1007 -0.1438 -0.1615
 1466poe    c23 8944   5.006   3.100   0.185 -0.2346  0.5965 -0.4099
 1466poe     o2 8945   4.940   3.194   0.103 -0.4181  0.4205 -0.4628
 1466poe    c23 8946   4.983   3.160  -0.027  0.3164 -0.6340  0.0422
 1466poe    c23 8947   4.894   3.236  -0.127  0.9292 -0.0771 -0.0893
 1466poe     o2 8948   4.884   3.364  -0.070 -0.1385 -0.3823  0.4328
 1466poe    c23 8949   4.842   3.465  -0.159 -0.4657 -0.6173  0.3205
 1466poe    c23 8950   4.791   3.582  -0.073  0.5508 -0.0061  0.1049
 1466poe     o2 8951   4.867   3.577   0.045  0.7556 -0.0195 -0.0277
 1466poe    c31 8952   4.874   3.708   0.095 -0.3165 -0.1234  0.4025
 1467poe    c31 8953   1.900   1.054   4.220  1.3246 -0.2908  0.4099
 1467poe     o2 8954   1.900   0.913   4.204 -0.2731 -0.2879  0.2432
 1467poe    c23 8955   2.023   0.851   4.233 -0.0544  0.2097  0.4050
 1467poe    c23 8956   2.023   0.719   4.152  0.3944  0.0199  0.7141
 1467poe     o2 8957   1.897   0.668   4.187  0.0848  0.0591 -0.3358
 1467poe    c23 8958   1.867   0.541   4.134  0.0996 -0.2527  0.3969
 1467poe    c23 8959   1.740   0.485   4.201 -0.4877  0.6521  0.0583
 1467poe     o2 8960   1.639   0.578   4.169 -0.1998  0.7489 -0.5811
 1467poe    c23 8961   1.513   0.540   4.218  0.1943  0.1501 -0.0156
 1467poe    c23 8962   1.394   0.616   4.156  0.2355  0.2553  0.0355
 1467poe     o2 8963   1.395   0.751   4.197 -0.5228  0.0424  0.7809
 1467poe    c31 8964   1.315   0.830   4.113  0.1149 -0.3945 -0.2509
 1468poe    c31 8965   3.225   2.931   0.355 -0.2675  0.1694  0.3742
 1468poe     o2 8966   3.116   2.862   0.297 -0.1418  0.4472 -0.1990
 1468poe    c23 8967   2.998   2.938   0.314 -0.0851  0.5801 -0.3965
 1468poe    c23 8968   2.869   2.863   0.277  0.2087 -0.0564 -0.1540
 1468poe     o2 8969   2.911   2.803   0.157  0.3112 -0.6366  0.1672
 1468poe    c23 8970   2.802   2.755   0.082 -0.0459  0.4732 -0.0439
 1468poe    c23 8971   2.851   2.719  -0.060 -0.0257 -0.1324  0.1174
 1468poe     o2 8972   2.957   2.626  -0.045 -0.3465 -0.4158  0.6876
 1468poe    c23 8973   2.996   2.554  -0.160  0.2265  0.6430  0.2020
 1468poe    c23 8974   3.069   2.627  -0.275 -0.2810  0.2430 -0.3801
 1468poe     o2 8975   3.178   2.701  -0.225 -0.2288  0.2944 -0.5706
 1468poe    c31 8976   3.290   2.656  -0.299 -0.2025  0.0547 -0.3899
 1469poe    c31 8977   1.329   2.381   4.781  0.2571  0.4849  0.2801
 1469poe     o2 8978   1.457   2.356   4.833  0.2386  0.1844  0.1835
 1469poe    c23 8979   1.481   2.217   4.821 -0.1605  0.1128  0.2109
 1469poe    c23 8980   1.625   2.186   4.867 -0.2316 -0.3710  0.1087
 1469poe     o2 8981   1.666   2.267   4.974 -0.2219  0.0444 -0.2071
 1469poe    c23 8982   1.759   2.193   5.051 -0.1781  0.0018 -0.3015
 1469poe    c23 8983   1.762   2.223   5.202  0.1029 -0.0153 -0.3027
 1469poe     o2 8984   1.817   2.351   5.226  0.0664  0.0310 -0.4623
 1469poe    c23 8985   1.827   2.367   5.366 -0.0577  0.5609 -0.5113
 1469poe    c23 8986   1.897   2.496   5.413 -0.7141  0.5836  0.4053
 1469poe     o2 8987   2.037   2.504   5.404 -0.6766 -0.1634  0.2772
 1469poe    c31 8988   2.082   2.629   5.450  0.0277 -0.5089  0.5449
 1470poe    c31 8989   2.586   1.067   4.968 -0.3293  0.2917 -0.1924
 1470poe     o2 8990   2.717   1.016   4.965 -0.4296  0.0471 -0.4241
 1470poe    c23 8991   2.777   1.069   4.849  0.1389  0.7493  0.1833
 1470poe    c23 8992   2.921   1.013   4.857 -0.1052  0.0524 -0.1602
 1470poe     o2 8993   2.925   0.879   4.899  0.1018  0.0099 -0.3192
 1470poe    c23 8994   3.057   0.830   4.882  0.2039  0.2836 -0.3161
 1470poe    c23 8995   3.060   0.713   4.982  0.1031  0.6563  0.1304
 1470poe     o2 8996   3.062   0.743   5.119 -0.6011  0.2338  0.2396
 1470poe    c23 8997   3.094   0.639   5.209 -0.4343 -0.1088 -0.2119
 1470poe    c23 8998   3.073   0.686   5.355 -0.1363 -0.6368  0.0018
 1470poe     o2 8999   2.940   0.704   5.398 -0.0128 -0.4248  0.2919
 1470poe    c31 9000   2.940   0.716   5.539  0.7460 -0.0314  0.2646
 1471poe    c31 9001   1.326   3.100   1.686 -0.6953 -0.0149  0.3003
 1471poe     o2 9002   1.316   2.997   1.590 -0.0761  0.3219 -0.1271
 1471poe    c23 9003   1.232   3.038   1.484 -0.3752  0.3443  0.1201
 1471poe    c23 9004   1.205   2.920   1.390  0.5587 -0.1836  0.5083
 1471poe     o2 9005   1.332   2.858   1.376  0.5249 -0.1504  0.0150
 1471poe    c23 9006   1.321   2.742   1.297 -0.0912 -0.1944  0.1568
 1471poe    c23 9007   1.443   2.651   1.319  0.1422  0.1223  0.1726
 1471poe     o2 9008   1.452   2.624   1.457  0.2836 -0.3176  0.0790
 1471poe    c23 9009   1.557   2.538   1.494  0.9056  0.5735  0.4462
 1471poe    c23 9010   1.516   2.463   1.623  0.4896  0.0830  0.0355
 1471poe     o2 9011   1.486   2.551   1.729  0.7040  0.1255  0.0628
 1471poe    c31 9012   1.467   2.485   1.852 -0.3113 -0.0252 -0.1684
 1472poe    c31 9013   5.327   4.455   3.376  0.8540 -0.7758  0.0904
 1472poe     o2 9014   5.265   4.521   3.484  0.5636  0.1468 -0.6229
 1472poe    c23 9015   5.356   4.599   3.560  0.1242 -0.3789  0.4649
 1472poe    c23 9016   5.305   4.662   3.691 -0.6410  0.0113 -0.0121
 1472poe     o2 9017   5.243   4.784   3.659  0.0026  0.2023 -0.5471
 1472poe    c23 9018   5.157   4.832   3.760 -0.0688 -0.0727 -0.4780
 1472poe    c23 9019   5.070   4.955   3.729 -0.0445  0.1921  0.4748
 1472poe     o2 9020   5.023   4.939   3.597  0.0957  0.7509  0.3540
 1472poe    c23 9021   4.914   5.029   3.585 -0.2359  0.2914 -0.1420
 1472poe    c23 9022   4.847   4.967   3.461  0.1665 -0.3082 -0.0673
 1472poe     o2 9023   4.953   4.915   3.383  0.0975 -0.7036  0.1029
 1472poe    c31 9024   4.918   4.886   3.250 -0.6159 -0.4767  0.2356
 1473poe    c31 9025   2.875   2.313   1.397  0.1075  0.0107 -0.2912
 1473poe     o2 9026   2.953   2.231   1.312 -0.0404 -0.7385  0.2871
 1473poe    c23 9027   3.041   2.158   1.394  0.5420 -0.0507  0.2757
 1473poe    c23 9028   3.133   2.064   1.314  0.4099 -0.1355  0.2238
 1473poe     o2 9029   3.184   2.138   1.206 -0.1216  0.0520  0.0974
 1473poe    c23 9030   3.265   2.059   1.121  0.2489  0.1773  0.3337
 1473poe    c23 9031   3.335   2.123   1.000 -0.2413  0.3729  0.1535
 1473poe     o2 9032   3.229   2.170   0.919 -0.2067  0.2057  0.0116
 1473poe    c23 9033   3.276   2.242   0.807  0.2854  0.8921  0.6559
 1473poe    c23 9034   3.159   2.290   0.720  0.0009 -0.0557  0.5078
 1473poe     o2 9035   3.067   2.378   0.779 -0.5425 -0.1227 -0.2218
 1473poe    c31 9036   2.942   2.382   0.713 -0.8225 -0.1004  0.2973
 1474poe    c31 9037   2.989   4.754   4.540  0.0134 -0.0376  0.4337
 1474poe     o2 9038   2.867   4.810   4.583 -0.5335 -0.3307 -0.7015
 1474poe    c23 9039   2.870   4.807   4.724 -0.0741  0.0415 -0.6999
 1474poe    c23 9040   2.743   4.883   4.766  0.0909  0.1233 -0.3432
 1474poe     o2 9041   2.728   4.998   4.684  0.5555  0.5209  0.1220
 1474poe    c23 9042   2.606   5.059   4.718 -0.1384 -0.6953 -0.1162
 1474poe    c23 9043   2.600   5.183   4.627  0.0652 -0.2513  0.4729
 1474poe     o2 9044   2.632   5.139   4.497 -0.3293  0.1971  0.2179
 1474poe    c23 9045   2.573   5.221   4.399 -0.4840  0.0992  0.2301
 1474poe    c23 9046   2.655   5.257   4.273 -0.6503 -0.3678 -0.0146
 1474poe     o2 9047   2.677   5.135   4.206  0.0015  0.0385 -0.5512
 1474poe    c31 9048   2.725   5.146   4.074  0.1173  0.8658 -0.4427
 1475poe    c31 9049   0.193   2.221   0.512  0.3158 -0.0714  0.0518
 1475poe     o2 9050   0.199   2.348   0.573  0.6283 -0.0887  0.0562
 1475poe    c23 9051   0.223   2.449   0.478 -0.3743  0.2754  0.1780
 1475poe    c23 9052   0.216   2.598   0.519  0.2289  0.6095 -0.8841
 1475poe     o2 9053   0.329   2.640   0.592 -0.1492  0.7009 -0.3487
 1475poe    c23 9054   0.318   2.777   0.626 -0.4932  0.5951 -0.0299
 1475poe    c23 9055   0.453   2.821   0.686 -0.4841  0.0002  0.3959
 1475poe     o2 9056   0.473   2.724   0.786  0.1918 -0.1767  0.0907
 1475poe    c23 9057   0.580   2.766   0.868 -0.0199 -0.3664  0.4709
 1475poe    c23 9058   0.589   2.669   0.987  0.4604 -0.9485 -0.0297
 1475poe     o2 9059   0.563   2.545   0.927 -0.1258 -0.7587 -0.1715
 1475poe    c31 9060   0.595   2.433   1.007 -0.6830 -0.5148  0.4006
 1476poe    c31 9061   0.356   6.688   0.653 -0.1006  0.3052  0.3055
 1476poe     o2 9062   0.332   6.806   0.726  0.1023  0.4130  0.1976
 1476poe    c23 9063   0.302   6.772   0.859 -0.1656  0.4641  0.1518
 1476poe    c23 9064   0.264   6.897   0.940  0.2838  0.4935  0.3222
 1476poe     o2 9065   0.176   6.974   0.860 -0.1262 -0.2182  0.0786
 1476poe    c23 9066   0.095   7.045   0.951 -0.2012 -0.3787  0.1379
 1476poe    c23 9067   0.029   7.162   0.876  0.7921  0.0670 -0.0557
 1476poe     o2 9068   0.121   7.253   0.819  0.4713  0.3865 -0.0644
 1476poe    c23 9069   0.059   7.329   0.717 -0.0067 -0.2002 -0.2184
 1476poe    c23 9070   0.175   7.410   0.656 -0.3655  0.2561 -0.2963
 1476poe     o2 9071   0.239   7.341   0.550  0.0608 -0.0380  0.1491
 1476poe    c31 9072   0.330   7.416   0.473 -0.4282  0.0575 -0.3483
 1477poe    c31 9073   2.229   1.347   4.235  0.0333  0.4781 -0.4864
 1477poe     o2 9074   2.323   1.297   4.143 -0.4005 -1.0361 -0.1269
 1477poe    c23 9075   2.341   1.383   4.033 -0.0873 -0.7770  0.1248
 1477poe    c23 9076   2.413   1.302   3.923  0.2363  0.0472 -0.2760
 1477poe     o2 9077   2.543   1.274   3.968  0.2860  0.0868 -0.3958
 1477poe    c23 9078   2.614   1.190   3.879 -0.2911 -0.5922 -0.2218
 1477poe    c23 9079   2.761   1.216   3.917 -0.2724 -0.6884 -0.2280
 1477poe     o2 9080   2.768   1.199   4.057 -0.3586 -0.0626 -0.1473
 1477poe    c23 9081   2.906   1.200   4.085 -0.3098 -0.6470 -0.3501
 1477poe    c23 9082   2.938   1.174   4.234 -0.7052  0.5356 -0.0483
 1477poe     o2 9083   2.877   1.054   4.273  0.4550 -0.1273 -0.2058
 1477poe    c31 9084   2.886   1.037   4.413  0.5090 -0.5570 -0.2614
 1478poe    c31 9085   0.455   4.373   2.182  0.0457  0.3449  0.2505
 1478poe     o2 9086   0.382   4.394   2.301 -0.0561  0.7168  0.1218
 1478poe    c23 9087   0.246   4.358   2.293  0.1469 -0.1042  0.3370
 1478poe    c23 9088   0.178   4.412   2.420 -0.0069  0.2150  0.1177
 1478poe     o2 9089   0.212   4.549   2.426  0.3119  0.1188  0.4817
 1478poe    c23 9090   0.151   4.616   2.534  0.2600  0.3660  0.2988
 1478poe    c23 9091   0.219   4.752   2.557  0.0123  0.4986  0.2472
 1478poe     o2 9092   0.359   4.742   2.550 -0.0249  0.0340  0.1754
 1478poe    c23 9093   0.417   4.866   2.582  0.0034 -0.1449  0.8267
 1478poe    c23 9094   0.553   4.852   2.653  0.3733  0.1498  0.1802
 1478poe     o2 9095   0.638   4.781   2.565 -0.0769 -0.0285 -0.1159
 1478poe    c31 9096   0.775   4.789   2.600 -0.0809 -0.4407 -0.0064
 1479poe    c31 9097   4.585   3.677   1.401  0.1432 -0.8172 -0.1048
 1479poe     o2 9098   4.517   3.588   1.316  0.0271 -0.4004 -0.4518
 1479poe    c23 9099   4.450   3.479   1.377  0.3939 -0.2603  0.2120
 1479poe    c23 9100   4.369   3.425   1.258  0.1486  0.0746  0.2272
 1479poe     o2 9101   4.449   3.405   1.144 -0.2850 -0.5344  0.0243
 1479poe    c23 9102   4.374   3.371   1.029 -0.3666  0.2917 -0.1726
 1479poe    c23 9103   4.462   3.314   0.916 -0.4364 -0.1192 -0.0218
 1479poe     o2 9104   4.555   3.420   0.909  0.2783 -0.7139  0.2492
 1479poe    c23 9105   4.642   3.394   0.801  0.2429  0.1280  0.0118
 1479poe    c23 9106   4.773   3.476   0.797  0.1388  0.2691 -0.6370
 1479poe     o2 9107   4.859   3.428   0.898  0.2612 -0.2046 -0.9677
 1479poe    c31 9108   4.986   3.489   0.899  0.2836 -0.2620 -0.4398
 1480poe    c31 9109   1.161   0.936   2.843  0.0377  0.2230  0.7197
 1480poe     o2 9110   1.051   1.024   2.837  0.2168  0.3834 -0.6058
 1480poe    c23 9111   1.021   1.075   2.965  0.3063 -0.1102 -0.3849
 1480poe    c23 9112   0.891   1.157   2.961  0.2880 -0.1126  0.0428
 1480poe     o2 9113   0.876   1.202   2.828  0.3611 -0.0864  0.0438
 1480poe    c23 9114   0.767   1.288   2.808 -0.2598 -0.8839 -0.0374
 1480poe    c23 9115   0.758   1.301   2.655  0.0075 -0.0798  0.0084
 1480poe     o2 9116   0.889   1.297   2.601 -0.1068 -0.3257 -0.2571
 1480poe    c23 9117   0.899   1.275   2.463 -0.1556 -0.1799 -0.2836
 1480poe    c23 9118   1.043   1.225   2.445 -0.2937 -0.4777 -0.5789
 1480poe     o2 9119   1.064   1.129   2.546 -0.1205 -0.2479 -0.3936
 1480poe    c31 9120   1.172   1.044   2.512  0.0509 -0.1992  0.0236
 1481poe    c31 9121   5.034   1.102   0.217 -0.3028 -0.3799 -0.0216
 1481poe     o2 9122   5.066   1.155   0.090  0.1167 -0.5724  0.0017
 1481poe    c23 9123   5.148   1.269   0.097 -0.2401 -0.3146 -0.0326
 1481poe    c23 9124   5.143   1.336  -0.042  0.0946  0.3277  0.2603
 1481poe     o2 9125   5.140   1.235  -0.140  0.2984  0.5166  0.0598
 1481poe    c23 9126   5.133   1.263  -0.278  0.3975  0.1482 -0.0214
 1481poe    c23 9127   5.194   1.140  -0.348  0.1798 -0.0827  0.1926
 1481poe     o2 9128   5.132   1.025  -0.294 -0.2091 -0.0505 -0.1750
 1481poe    c23 9129   5.181   0.913  -0.364 -0.2016 -0.1439 -0.0221
 1481poe    c23 9130   5.153   0.775  -0.304 -0.3295 -0.0472  0.1414
 1481poe     o2 9131   5.206   0.760  -0.174  0.0470  0.0052 -0.0056
 1481poe    c31 9132   5.319   0.675  -0.162  0.0116  0.0408  0.6230
 1482poe    c31 9133   1.085   5.733   4.530 -0.4992 -0.3782 -0.1602
 1482poe     o2 9134   1.019   5.843   4.588 -0.1356 -0.3346  0.1674
 1482poe    c23 9135   1.019   5.957   4.506 -0.1951 -0.1140  0.4696
 1482poe    c23 9136   0.931   6.062   4.576 -0.0185 -0.2280  0.8621
 1482poe     o2 9137   0.810   5.994   4.599 -0.0847 -0.3696  0.1006
 1482poe    c23 9138   0.705   6.084   4.627  0.3485  0.1878 -0.0567
 1482poe    c23 9139   0.560   6.033   4.639  0.3636  0.0620 -0.4029
 1482poe     o2 9140   0.555   5.926   4.730  0.2168  0.1298 -0.3303
 1482poe    c23 9141   0.425   5.873   4.733  0.1591  0.3062  0.4438
 1482poe    c23 9142   0.425   5.744   4.817 -0.0231 -0.2035 -0.3243
 1482poe     o2 9143   0.503   5.640   4.763 -0.0999 -0.4552  0.0487
 1482poe    c31 9144   0.542   5.554   4.868  0.4311  0.4243  0.5814
 1483poe    c31 9145   5.288   4.071   6.301  0.2192  0.3160  0.4041
 1483poe     o2 9146   5.355   4.143   6.200  0.4416 -0.4579 -0.0053
 1483poe    c23 9147   5.368   4.274   6.249  0.4662 -0.4027 -0.1591
 1483poe    c23 9148   5.347   4.384   6.143  0.1384 -0.2672  0.0425
 1483poe     o2 9149   5.214   4.417   6.112  0.2088 -0.4002 -0.4129
 1483poe    c23 9150   5.198   4.509   6.007  0.1439  0.1343  0.0619
 1483poe    c23 9151   5.055   4.556   5.972  0.1825  0.1433 -0.0891
 1483poe     o2 9152   5.033   4.591   5.837  0.2926  0.1215 -0.1122
 1483poe    c23 9153   5.097   4.711   5.799  0.0056  0.3109  0.0016
 1483poe    c23 9154   5.070   4.746   5.651  0.1363 -0.1427 -0.1306
 1483poe     o2 9155   4.945   4.776   5.593  0.1322  0.3139  0.1121
 1483poe    c31 9156   4.903   4.906   5.628 -0.1511  0.1629  0.3341
 1484poe    c31 9157   3.443   1.284   6.251 -0.6431 -0.0110  0.4478
 1484poe     o2 9158   3.341   1.200   6.202 -0.1835 -0.5501  0.4034
 1484poe    c23 9159   3.403   1.089   6.142  0.1736 -0.0700 -0.1183
 1484poe    c23 9160   3.298   0.977   6.123  0.6113 -0.4317 -0.4490
 1484poe     o2 9161   3.217   1.003   6.011  0.0649  0.2705  0.0953
 1484poe    c23 9162   3.104   0.919   6.016 -0.1617  0.5816  0.1617
 1484poe    c23 9163   3.001   0.938   5.903  0.0753 -0.4219 -0.2288
 1484poe     o2 9164   2.970   1.076   5.899  0.0646 -0.4186 -0.0503
 1484poe    c23 9165   2.891   1.101   5.785 -0.4779  0.0109  0.4165
 1484poe    c23 9166   2.831   1.241   5.810 -0.4868  0.0046  0.4296
 1484poe     o2 9167   2.935   1.323   5.859 -0.6711  0.1988  0.4980
 1484poe    c31 9168   2.897   1.458   5.866 -0.2581  0.3056  0.7446
 1485poe    c31 9169   4.072   5.252   2.537  0.1956  0.5395  0.4469
 1485poe     o2 9170   4.125   5.306   2.657  0.5463  0.1262  0.4796
 1485poe    c23 9171   4.035   5.295   2.764  0.1325 -0.1181  0.1108
 1485poe    c23 9172   4.122   5.304   2.891 -0.0194 -0.4273  0.2398
 1485poe     o2 9173   4.224   5.397   2.862 -0.0826 -0.3776  0.1777
 1485poe    c23 9174   4.324   5.411   2.960 -0.2120 -0.2746  0.2949
 1485poe    c23 9175   4.423   5.519   2.912 -0.6248 -0.0097  0.0294
 1485poe     o2 9176   4.453   5.480   2.780 -0.0723  0.1242  0.1133
 1485poe    c23 9177   4.580   5.528   2.742  0.2612 -0.7217  0.1185
 1485poe    c23 9178   4.614   5.493   2.597 -0.1096 -0.1482 -0.1113
 1485poe     o2 9179   4.529   5.551   2.501 -0.0450  0.8801  0.4434
 1485poe    c31 9180   4.608   5.612   2.401  0.3887 -0.0901  0.1829
 1486poe    c31 9181   2.878   5.009   5.827  0.4556  0.5604 -0.0869
 1486poe     o2 9182   2.819   5.132   5.862  0.3667  0.5252 -0.1135
 1486poe    c23 9183   2.700   5.140   5.786  0.2443  0.2681  0.0465
 1486poe    c23 9184   2.620   5.258   5.843 -0.2982 -0.0583 -0.0322
 1486poe     o2 9185   2.712   5.363   5.868  0.3282 -0.5635 -0.1980
 1486poe    c23 9186   2.654   5.472   5.935  0.2538 -0.7189 -0.0098
 1486poe    c23 9187   2.779   5.559   5.958 -0.0779 -0.2684  0.0959
 1486poe     o2 9188   2.885   5.513   6.038  0.1620 -0.0661 -0.1030
 1486poe    c23 9189   2.992   5.602   6.061  0.1086  0.0255 -0.2104
 1486poe    c23 9190   3.099   5.555   6.160 -0.0513 -0.1775 -0.1336
 1486poe     o2 9191   3.172   5.442   6.116  0.1544 -0.0805 -0.0438
 1486poe    c31 9192   3.211   5.364   6.226  0.5032  0.5088  0.2533
 1487poe    c31 9193   3.140   4.436   3.182 -0.1480  0.6552 -0.0931
 1487poe     o2 9194   3.218   4.426   3.065  0.2082  0.1908  0.1825
 1487poe    c23 9195   3.345   4.482   3.086  0.5942 -0.5909 -0.0066
 1487poe    c23 9196   3.426   4.460   2.957 -0.0669 -0.7430 -0.3964
 1487poe     o2 9197   3.352   4.511   2.848 -0.1306  0.0077 -0.0073
 1487poe    c23 9198   3.417   4.502   2.723  0.0137  0.7708  0.0052
 1487poe    c23 9199   3.328   4.581   2.625 -0.1260  0.5604 -0.0385
 1487poe     o2 9200   3.194   4.543   2.643  0.1022 -0.1515  0.2202
 1487poe    c23 9201   3.111   4.549   2.529  0.5396  0.6140 -0.0706
 1487poe    c23 9202   2.978   4.602   2.586  0.0656 -0.1932 -0.4068
 1487poe     o2 9203   2.944   4.533   2.704 -0.1161 -0.0412 -0.3688
 1487poe    c31 9204   2.806   4.529   2.731 -0.0338 -0.8014 -0.0387
 1488poe    c31 9205   5.861   1.911   0.388 -0.2576 -0.1020  0.1389
 1488poe     o2 9206   5.913   1.788   0.342 -0.2153 -0.0874  0.1464
 1488poe    c23 9207   5.934   1.793   0.202  0.1438 -0.5193  0.1845
 1488poe    c23 9208   5.826   1.698   0.149  0.0795 -0.5218  0.3200
 1488poe     o2 9209   5.814   1.572   0.211 -0.1000 -0.4112  0.5124
 1488poe    c23 9210   5.888   1.479   0.135  0.4557 -0.0695  0.6289
 1488poe    c23 9211   5.833   1.340   0.174 -0.4345  0.0591 -0.1078
 1488poe     o2 9212   5.842   1.324   0.314 -0.3589  0.2236 -0.0926
 1488poe    c23 9213   5.840   1.189   0.357  0.2083  0.2237 -0.0666
 1488poe    c23 9214   5.837   1.201   0.510 -0.2589  0.3733 -0.0869
 1488poe     o2 9215   5.924   1.307   0.541  0.2097  0.0550 -0.2980
 1488poe    c31 9216   5.981   1.284   0.668 -0.2276 -0.4949 -0.1997
 1489poe    c31 9217   3.240   1.902   3.685 -0.3776 -0.3347  0.0680
 1489poe     o2 9218   3.190   1.829   3.575 -0.0894 -0.0832 -0.2325
 1489poe    c23 9219   3.122   1.715   3.623  0.0449  0.0686  0.3266
 1489poe    c23 9220   3.067   1.628   3.509 -0.1904  0.0791  0.4321
 1489poe     o2 9221   3.023   1.719   3.411 -0.1711 -0.5873 -0.1980
 1489poe    c23 9222   2.980   1.657   3.291 -0.0144 -0.0964 -0.5112
 1489poe    c23 9223   2.915   1.773   3.213  0.4406  0.0511 -0.6753
 1489poe     o2 9224   2.999   1.882   3.242 -0.1390  0.2306  0.4096
 1489poe    c23 9225   2.952   2.012   3.215 -0.8628  0.1341  1.1865
 1489poe    c23 9226   3.064   2.096   3.279 -0.3579  0.1222  0.3290
 1489poe     o2 9227   3.102   2.050   3.407 -0.1390 -0.1643  0.1623
 1489poe    c31 9228   3.042   2.123   3.511  0.2332 -0.2807  0.4610
 1490poe    c31 9229   0.320   6.846   6.800  0.5253 -0.2499  0.3005
 1490poe     o2 9230   0.374   6.726   6.748  0.2268 -0.2447 -0.0287
 1490poe    c23 9231   0.343   6.611   6.824  0.4146  0.0646  0.5269
 1490poe    c23 9232   0.377   6.480   6.750 -0.2349  0.1504  0.0683
 1490poe     o2 9233   0.491   6.518   6.678 -0.0968  0.0025  0.2090
 1490poe    c23 9234   0.544   6.409   6.605 -0.6145 -0.2225  0.1632
 1490poe    c23 9235   0.663   6.468   6.526 -0.3641 -0.3705  0.4254
 1490poe     o2 9236   0.640   6.590   6.459  0.6205 -0.3080  0.1953
 1490poe    c23 9237   0.757   6.631   6.391  0.2020 -0.4602 -0.6217
 1490poe    c23 9238   0.726   6.722   6.270  0.1201 -0.0068 -0.2645
 1490poe     o2 9239   0.682   6.848   6.315  0.6601  0.1134 -0.0701
 1490poe    c31 9240   0.720   6.957   6.234 -0.2095  0.5020  0.0292
 1491poe    c31 9241   6.337   5.600   2.290  0.9278 -0.1299 -0.2294
 1491poe     o2 9242   6.350   5.462   2.263  0.4808 -0.1333 -0.4415
 1491poe    c23 9243   6.254   5.380   2.325  0.4384 -0.0176 -0.3561
 1491poe    c23 9244   6.313   5.240   2.348 -0.3240 -0.3522 -0.3757
 1491poe     o2 9245   6.392   5.220   2.233  0.3283 -0.5166  0.0879
 1491poe    c23 9246   6.491   5.121   2.244  0.1973 -0.6067  0.4882
 1491poe    c23 9247   6.561   5.117   2.106  0.1510  0.7166  0.4128
 1491poe     o2 9248   6.573   5.242   2.042  0.4678  0.3952 -0.1628
 1491poe    c23 9249   6.646   5.230   1.922 -0.0494  0.0281 -0.4443
 1491poe    c23 9250   6.766   5.327   1.921 -0.0551  0.0351 -0.3965
 1491poe     o2 9251   6.725   5.461   1.905 -0.4873 -0.1647 -1.0095
 1491poe    c31 9252   6.830   5.554   1.912 -0.6333 -0.0698  0.1458
 1492poe    c31 9253   4.585   4.792   3.064 -0.0808  0.3236 -0.7407
 1492poe     o2 9254   4.573   4.652   3.061 -0.2602  0.3266 -0.2547
 1492poe    c23 9255   4.620   4.601   2.938 -0.3074  0.3290 -0.2737
 1492poe    c23 9256   4.542   4.480   2.883  0.1776 -0.0469 -0.1349
 1492poe     o2 9257   4.515   4.403   2.998 -0.6513  0.1568 -0.1904
 1492poe    c23 9258   4.489   4.268   2.971  0.3835 -0.1504  0.2939
 1492poe    c23 9259   4.483   4.207   3.113  0.0185 -0.3249  0.2054
 1492poe     o2 9260   4.435   4.306   3.202 -0.5172 -0.2504 -0.1599
 1492poe    c23 9261   4.391   4.245   3.321 -0.1565 -0.2091 -0.0053
 1492poe    c23 9262   4.240   4.214   3.328 -0.2551  0.2871  0.0681
 1492poe     o2 9263   4.170   4.334   3.353 -0.2765  0.2128  0.3665
 1492poe    c31 9264   4.032   4.311   3.373 -0.2090 -0.6082 -0.0336
 1493poe    c31 9265   3.614   6.659   3.303 -0.4159  0.0403  0.7012
 1493poe     o2 9266   3.558   6.789   3.305 -1.0387 -0.2023 -0.2303
 1493poe    c23 9267   3.617   6.870   3.404 -0.9477 -0.8534  0.2550
 1493poe    c23 9268   3.523   6.990   3.426  0.7743  0.6391 -0.2490
 1493poe     o2 9269   3.451   7.021   3.309 -0.3379  0.4298  0.3564
 1493poe    c23 9270   3.371   7.135   3.330 -0.0619  0.6342  0.3209
 1493poe    c23 9271   3.305   7.181   3.198 -0.0644  0.2361  0.1816
 1493poe     o2 9272   3.226   7.082   3.137 -0.0818  0.2877  0.1200
 1493poe    c23 9273   3.186   7.119   3.007 -0.1103  0.9138  0.3063
 1493poe    c23 9274   3.114   7.002   2.938  0.4996  0.7013  0.0264
 1493poe     o2 9275   3.211   6.906   2.904 -0.0450  0.2024 -0.1386
 1493poe    c31 9276   3.147   6.832   2.803 -0.0736 -0.2079  0.1747
 1494poe    c31 9277   4.476   1.393   5.219 -0.4346 -0.4932 -0.0293
 1494poe     o2 9278   4.432   1.353   5.091 -0.1380 -0.0870 -0.2596
 1494poe    c23 9279   4.509   1.240   5.056 -0.0670  0.0841 -0.6611
 1494poe    c23 9280   4.479   1.204   4.910  0.1577 -0.5507 -0.5521
 1494poe     o2 9281   4.341   1.184   4.885  0.0194 -0.2378 -0.0634
 1494poe    c23 9282   4.317   1.191   4.746  0.3353 -0.2628 -0.1210
 1494poe    c23 9283   4.167   1.160   4.728  0.1606  0.5569 -0.1160
 1494poe     o2 9284   4.081   1.245   4.801 -0.2187 -0.0668  0.1657
 1494poe    c23 9285   3.949   1.226   4.757 -0.1574 -0.4893  0.1595
 1494poe    c23 9286   3.868   1.324   4.845  0.7202  0.1627  0.2489
 1494poe     o2 9287   3.912   1.330   4.979 -0.3623 -0.0808  0.6206
 1494poe    c31 9288   3.869   1.449   5.041  0.2068  0.3067  0.2859
 1495poe    c31 9289   1.826   3.369   3.662 -0.5203  0.2293  0.7437
 1495poe     o2 9290   1.948   3.428   3.700 -0.3449 -0.0892  0.6757
 1495poe    c23 9291   2.030   3.343   3.778  0.3922 -0.1665 -0.1706
 1495poe    c23 9292   2.150   3.424   3.830  0.0586  0.4480 -0.3526
 1495poe     o2 9293   2.101   3.550   3.871  0.0063  0.3638 -0.1549
 1495poe    c23 9294   2.207   3.630   3.920 -0.1185  0.5430 -0.1764
 1495poe    c23 9295   2.165   3.776   3.943  0.4851  0.5971  0.6089
 1495poe     o2 9296   2.149   3.834   3.816 -0.3354 -0.4009  0.2429
 1495poe    c23 9297   2.075   3.954   3.806  0.1051 -0.1125  0.4127
 1495poe    c23 9298   2.091   4.029   3.673  0.0296 -0.2238  0.3410
 1495poe     o2 9299   2.039   3.952   3.567 -0.7900  0.2504  0.3857
 1495poe    c31 9300   2.059   4.016   3.443  0.0319 -0.1005  0.3298
 1496poe    c31 9301   4.383   2.520   3.204  0.2802  0.3839 -0.0406
 1496poe     o2 9302   4.439   2.596   3.100 -0.2760  0.3699 -0.3564
 1496poe    c23 9303   4.339   2.646   3.015 -0.1184  0.3222 -0.5708
 1496poe    c23 9304   4.307   2.549   2.900 -0.6228  0.0211 -0.1788
 1496poe     o2 9305   4.419   2.531   2.817 -0.3662  0.0401  0.1632
 1496poe    c23 9306   4.388   2.481   2.689 -0.0986  0.4236 -0.0565
 1496poe    c23 9307   4.509   2.438   2.605 -0.3610  0.2024 -0.3244
 1496poe     o2 9308   4.602   2.380   2.694 -0.2281  0.2478 -0.4326
 1496poe    c23 9309   4.708   2.333   2.615  0.3681  0.8068  0.0209
 1496poe    c23 9310   4.797   2.260   2.717 -0.5323 -0.2233  0.0874
 1496poe     o2 9311   4.807   2.336   2.835 -0.0315 -0.9196  0.5036
 1496poe    c31 9312   4.908   2.289   2.921  0.8686 -0.4734 -0.2832
 1497poe    c31 9313   4.289   3.384   2.281 -0.0451 -0.2584  0.2553
 1497poe     o2 9314   4.292   3.378   2.422 -0.1994 -0.5591  0.2479
 1497poe    c23 9315   4.425   3.369   2.470  0.0170 -0.6881 -0.3632
 1497poe    c23 9316   4.421   3.318   2.616  0.5927  0.2804  0.0020
 1497poe     o2 9317   4.328   3.407   2.673  0.1355  0.1755 -0.5567
 1497poe    c23 9318   4.282   3.366   2.800  0.0204  0.1394 -0.6108
 1497poe    c23 9319   4.193   3.482   2.848 -0.1697 -0.3509  0.2414
 1497poe     o2 9320   4.078   3.497   2.768 -0.1462  0.1468  0.2970
 1497poe    c23 9321   3.997   3.607   2.802 -0.8097 -0.2304 -0.0276
 1497poe    c23 9322   3.884   3.617   2.699 -0.4505 -0.7235 -0.4749
 1497poe     o2 9323   3.910   3.684   2.578  0.2009  0.1597  0.1435
 1497poe    c31 9324   3.788   3.724   2.519  0.1264 -0.2258  0.0299
 1498poe    c31 9325   0.282   6.452   4.423  0.2682 -0.5350  0.2598
 1498poe     o2 9326   0.288   6.576   4.490 -0.2056 -0.4395  0.1289
 1498poe    c23 9327   0.365   6.563   4.608  0.0694  0.2205  0.0262
 1498poe    c23 9328   0.382   6.699   4.676 -0.0092  0.4453 -0.3982
 1498poe     o2 9329   0.267   6.737   4.749 -0.3532  0.1637 -0.7866
 1498poe    c23 9330   0.251   6.876   4.766 -0.5894  0.0859 -0.3422
 1498poe    c23 9331   0.111   6.920   4.810 -0.4192 -0.0612  0.3560
 1498poe     o2 9332   0.007   6.860   4.737 -0.2594 -0.1820  0.2292
 1498poe    c23 9333  -0.116   6.915   4.780 -0.0356  0.0677  0.5500
 1498poe    c23 9334  -0.224   6.829   4.712 -0.0193  0.1483  0.4202
 1498poe     o2 9335  -0.188   6.693   4.726 -0.2712  0.0872  0.4913
 1498poe    c31 9336  -0.302   6.611   4.721 -0.4048  0.3124 -0.2710
 1499poe    c31 9337   1.823   3.617   6.030 -0.4518 -0.1415  0.6507
 1499poe     o2 9338   1.862   3.490   6.077 -0.1199 -0.2867 -0.0050
 1499poe    c23 9339   1.745   3.422   6.118 -0.1094 -0.3834 -0.1340
 1499poe    c23 9340   1.783   3.305   6.211 -0.2099 -0.4217 -0.1412
 1499poe     o2 9341   1.909   3.254   6.174 -0.1401  0.0056 -0.4988
 1499poe    c23 9342   1.946   3.153   6.265 -0.4329 -0.2513 -0.6629
 1499poe    c23 9343   2.086   3.097   6.232 -0.2682 -0.2179 -0.0244
 1499poe     o2 9344   2.117   3.084   6.095 -0.5283 -0.1083 -0.0930
 1499poe    c23 9345   2.251   3.041   6.106 -0.6509 -0.5077 -0.1531
 1499poe    c23 9346   2.302   3.052   5.962 -0.3746 -0.0480 -0.0235
 1499poe     o2 9347   2.315   3.190   5.939  0.6073 -0.0483  0.5015
 1499poe    c31 9348   2.409   3.223   5.838 -0.3030  0.4113 -0.2075
 1500poe    c31 9349   0.534   5.649   2.107 -0.5739  0.2103 -0.3297
 1500poe     o2 9350   0.596   5.599   1.991 -0.0384  0.2263 -0.0557
 1500poe    c23 9351   0.574   5.688   1.883 -0.4545  0.1778 -0.0139
 1500poe    c23 9352   0.633   5.621   1.758 -0.0881  0.1280  0.1823
 1500poe     o2 9353   0.567   5.499   1.731 -0.6471  0.4888 -0.0991
 1500poe    c23 9354   0.613   5.437   1.613 -0.0968  1.0427 -0.1847
 1500poe    c23 9355   0.520   5.316   1.588  0.3908  0.4350  0.8617
 1500poe     o2 9356   0.487   5.241   1.703  0.0110  0.1888  0.5924
 1500poe    c23 9357   0.399   5.134   1.675  0.3802  0.2071 -0.7111
 1500poe    c23 9358   0.342   5.067   1.801 -0.1074  0.9842 -0.5108
 1500poe     o2 9359   0.266   5.159   1.876  0.0216  0.4844  0.2464
 1500poe    c31 9360   0.253   5.105   2.006 -0.3783 -0.7104 -0.2766
 1501poe    c31 9361   2.643   2.337   0.413  0.0203  0.2302 -0.0285
 1501poe     o2 9362   2.530   2.410   0.372  0.1460  0.2252 -0.3894
 1501poe    c23 9363   2.564   2.547   0.373  0.6402  0.0991  0.0962
 1501poe    c23 9364   2.463   2.625   0.288  0.1196 -0.6245  0.0449
 1501poe     o2 9365   2.459   2.568   0.159 -0.6495 -0.3384 -0.0625
 1501poe    c23 9366   2.362   2.621   0.071 -0.1820  0.0492 -0.3466
 1501poe    c23 9367   2.395   2.575  -0.072  0.2233  0.0305 -0.2482
 1501poe     o2 9368   2.441   2.441  -0.072  0.8847  0.2519 -0.2718
 1501poe    c23 9369   2.454   2.394  -0.204 -0.4291  0.0871 -0.3647
 1501poe    c23 9370   2.535   2.263  -0.216 -0.0710  0.2140  0.5964
 1501poe     o2 9371   2.668   2.293  -0.182  0.2355 -0.2201 -0.2080
 1501poe    c31 9372   2.750   2.178  -0.183 -0.1344 -0.4840 -0.2635
 1502poe    c31 9373   1.384   5.963   4.777  0.7568  0.0010 -0.2807
 1502poe     o2 9374   1.359   5.825   4.798 -0.3393  0.1608 -0.4468
 1502poe    c23 9375   1.273   5.807   4.908  0.1798 -0.2084 -0.0933
 1502poe    c23 9376   1.188   5.679   4.908 -0.1041 -0.0216  0.1074
 1502poe     o2 9377   1.268   5.563   4.912 -0.1970 -0.0896  0.0298
 1502poe    c23 9378   1.205   5.444   4.952  0.0965 -0.2522  0.0117
 1502poe    c23 9379   1.301   5.327   4.981  0.2928  0.0041  0.3960
 1502poe     o2 9380   1.387   5.314   4.869 -0.1056  0.3222  0.0504
 1502poe    c23 9381   1.515   5.267   4.903 -0.0662  0.3646 -0.0383
 1502poe    c23 9382   1.606   5.246   4.781 -0.7827 -0.7761 -0.3866
 1502poe     o2 9383   1.590   5.337   4.675  0.3150 -0.1407 -0.0187
 1502poe    c31 9384   1.698   5.307   4.589  0.5362  0.1060  0.1685
 1503poe    c31 9385   4.788   3.581   5.581  0.7053 -0.1648  0.6069
 1503poe     o2 9386   4.765   3.456   5.642  0.0217 -0.1343  0.4147
 1503poe    c23 9387   4.642   3.404   5.597 -0.0342  0.0656  0.3357
 1503poe    c23 9388   4.644   3.258   5.644 -0.2388  0.0800  0.3881
 1503poe     o2 9389   4.704   3.240   5.771  0.5829  0.2656  0.0263
 1503poe    c23 9390   4.675   3.109   5.813  0.7779  0.2166  0.0084
 1503poe    c23 9391   4.766   3.065   5.929  0.2734 -0.1428  0.2697
 1503poe     o2 9392   4.755   3.151   6.041  0.0936 -0.3208  0.3899
 1503poe    c23 9393   4.877   3.152   6.112 -0.0392 -0.4748  0.6191
 1503poe    c23 9394   4.929   3.280   6.180 -0.6056  0.4382 -0.6489
 1503poe     o2 9395   5.002   3.360   6.089  0.4059 -0.2007 -0.4061
 1503poe    c31 9396   5.057   3.475   6.149 -0.3614 -0.0143 -0.0517
 1504poe    c31 9397   5.112   4.093   6.738  0.3753  0.1630 -0.3140
 1504poe     o2 9398   5.190   4.155   6.838  0.1185 -0.1276  0.0705
 1504poe    c23 9399   5.286   4.244   6.784  0.3376 -0.2427  0.2670
 1504poe    c23 9400   5.364   4.291   6.908  0.6728  0.3474 -0.1669
 1504poe     o2 9401   5.271   4.348   6.997  0.5655  0.1252 -0.1377
 1504poe    c23 9402   5.331   4.382   7.120 -0.1629 -0.5625  0.4204
 1504poe    c23 9403   5.218   4.419   7.219 -0.1076 -0.2500  0.3694
 1504poe     o2 9404   5.132   4.307   7.221 -0.1336 -0.2472 -0.2732
 1504poe    c23 9405   5.035   4.336   7.320  0.1344  0.3763 -0.1867
 1504poe    c23 9406   4.911   4.245   7.323  0.2778  0.1781 -0.2260
 1504poe     o2 9407   4.840   4.240   7.201 -0.0061  0.0345 -0.0560
 1504poe    c31 9408   4.733   4.152   7.226  0.0490 -0.2174 -0.7081
 1505poe    c31 9409   1.733   5.207   3.118  0.0188 -0.2394  0.0889
 1505poe     o2 9410   1.711   5.254   3.249  0.2863  0.2083 -0.0240
 1505poe    c23 9411   1.814   5.342   3.287  0.2808  0.0821  0.2820
 1505poe    c23 9412   1.772   5.421   3.412  0.0247  0.1760  0.1364
 1505poe     o2 9413   1.654   5.495   3.392  0.0445  0.0096 -0.6260
 1505poe    c23 9414   1.625   5.567   3.510 -0.4004 -0.3677 -0.5028
 1505poe    c23 9415   1.510   5.666   3.485 -0.1038  0.1562  0.1989
 1505poe     o2 9416   1.409   5.587   3.427  0.3247  0.0592 -0.4191
 1505poe    c23 9417   1.319   5.548   3.528  0.5411  0.1197 -0.1987
 1505poe    c23 9418   1.199   5.479   3.460  0.1561  1.0296 -0.4599
 1505poe     o2 9419   1.262   5.395   3.365 -0.2659  0.0433  0.1094
 1505poe    c31 9420   1.178   5.337   3.269 -0.1892  0.2633 -0.0929
 1506poe    c31 9421   3.525   5.848   1.770  0.0711 -0.0217 -0.2825
 1506poe     o2 9422   3.527   5.970   1.699 -0.3107 -0.0532 -0.3511
 1506poe    c23 9423   3.393   5.996   1.667 -0.2393  0.6051 -0.1314
 1506poe    c23 9424   3.393   6.043   1.520  0.0962 -0.3422 -0.4368
 1506poe     o2 9425   3.510   6.120   1.506  0.0006 -0.2247 -0.5858
 1506poe    c23 9426   3.491   6.214   1.402  0.0577  0.4859  0.0341
 1506poe    c23 9427   3.635   6.248   1.362 -0.0883  0.3018 -0.6586
 1506poe     o2 9428   3.700   6.286   1.481 -0.1685  0.1693 -0.5724
 1506poe    c23 9429   3.833   6.324   1.454  0.0468  0.2401  0.5126
 1506poe    c23 9430   3.915   6.339   1.583  0.1177  0.4226  0.4474
 1506poe     o2 9431   3.958   6.214   1.633  0.1719  0.3332  0.1771
 1506poe    c31 9432   4.027   6.219   1.755  0.1387 -0.3579  0.2253
 1507poe    c31 9433   2.141   0.800   3.213  0.2962 -0.2198 -0.5899
 1507poe     o2 9434   2.137   0.681   3.288  0.2205  0.1336 -0.0264
 1507poe    c23 9435   2.265   0.623   3.290 -0.0372 -0.4407  0.1416
 1507poe    c23 9436   2.264   0.488   3.364  0.6394 -0.2523  0.5129
 1507poe     o2 9437   2.148   0.429   3.309  0.4842  0.5410 -0.0226
 1507poe    c23 9438   2.138   0.296   3.352  0.0074  0.5042 -0.2395
 1507poe    c23 9439   2.001   0.245   3.304  0.0291  0.1708  0.0452
 1507poe     o2 9440   1.900   0.339   3.331 -0.5975 -0.4236 -0.1929
 1507poe    c23 9441   1.770   0.286   3.314 -0.6348 -0.3640 -0.0926
 1507poe    c23 9442   1.669   0.399   3.343 -0.4680 -0.1405 -0.3758
 1507poe     o2 9443   1.674   0.479   3.228 -0.3357  0.0401 -0.2460
 1507poe    c31 9444   1.564   0.567   3.226 -0.5422 -0.2238 -0.7727
 1508poe    c31 9445   6.130   1.757   5.103 -0.0653  0.2662  0.1012
 1508poe     o2 9446   6.225   1.774   5.000  0.1325  0.5001  0.3230
 1508poe    c23 9447   6.169   1.770   4.871  0.4785 -0.0566  0.1828
 1508poe    c23 9448   6.252   1.842   4.763  0.3326  0.2338  0.2613
 1508poe     o2 9449   6.354   1.754   4.721  0.0832 -0.1788  0.5075
 1508poe    c23 9450   6.446   1.815   4.632  0.3021 -0.0400  0.8269
 1508poe    c23 9451   6.553   1.713   4.589  0.0305 -0.0385  0.1512
 1508poe     o2 9452   6.615   1.654   4.700 -0.0199 -0.0825  0.1565
 1508poe    c23 9453   6.744   1.600   4.680 -0.0300  0.0805 -0.3503
 1508poe    c23 9454   6.812   1.606   4.817 -0.5426  0.4263 -0.1088
 1508poe     o2 9455   6.719   1.568   4.916  0.0256  0.2038  0.3472
 1508poe    c31 9456   6.784   1.567   5.041  0.0561 -0.0335  0.3294
 1509poe    c31 9457   1.658   0.507   5.160 -0.5124 -0.0389 -0.2947
 1509poe     o2 9458   1.653   0.375   5.111 -0.0489 -0.2532  0.2243
 1509poe    c23 9459   1.520   0.350   5.071 -0.0825  0.1548  0.0817
 1509poe    c23 9460   1.530   0.212   5.004  0.1130  0.0947  0.2362
 1509poe     o2 9461   1.617   0.215   4.893  0.0558  0.1026  0.1914
 1509poe    c23 9462   1.634   0.082   4.849  0.3309  0.0028  0.5898
 1509poe    c23 9463   1.717   0.082   4.719 -0.1148 -0.2616  0.3015
 1509poe     o2 9464   1.808   0.189   4.715 -0.1375 -0.2537  0.0177
 1509poe    c23 9465   1.856   0.193   4.582 -0.4811  0.2034 -0.0945
 1509poe    c23 9466   1.970   0.297   4.579 -0.3467  0.0539 -0.1611
 1509poe     o2 9467   1.930   0.398   4.669 -0.1549 -0.0289  0.0170
 1509poe    c31 9468   2.007   0.516   4.664 -0.2608  0.0292 -0.2826
 1510poe    c31 9469   6.795   3.888   6.406  0.3674  0.4551 -0.1009
 1510poe     o2 9470   6.750   4.020   6.422 -0.1461  0.3022 -0.2591
 1510poe    c23 9471   6.808   4.104   6.520  0.1163 -0.3295  0.1308
 1510poe    c23 9472   6.755   4.247   6.502  0.2964 -0.2735  0.0363
 1510poe     o2 9473   6.615   4.239   6.516  0.2839 -0.0515  0.0329
 1510poe    c23 9474   6.565   4.355   6.580 -0.2347 -0.0131 -0.4341
 1510poe    c23 9475   6.412   4.360   6.563 -0.3261 -0.1610  0.3294
 1510poe     o2 9476   6.358   4.249   6.631  0.2068 -0.5069  0.1893
 1510poe    c23 9477   6.220   4.236   6.605  0.3625 -0.4932 -0.6806
 1510poe    c23 9478   6.177   4.105   6.674  0.0064 -0.0533 -0.0530
 1510poe     o2 9479   6.261   3.999   6.635  0.1369  0.1525 -0.3441
 1510poe    c31 9480   6.203   3.882   6.690  0.1760 -0.2758 -1.1949
 1511poe    c31 9481   0.103   4.022   4.066 -0.3531  0.1857  0.4639
 1511poe     o2 9482   0.071   3.894   4.117  0.6579 -0.1570  0.2642
 1511poe    c23 9483  -0.055   3.849   4.074  0.5397  0.4953 -0.0963
 1511poe    c23 9484  -0.059   3.702   4.119 -0.0537  0.3089 -0.7439
 1511poe     o2 9485  -0.034   3.698   4.258 -0.2953 -0.6693 -0.7192
 1511poe    c23 9486  -0.040   3.570   4.318 -0.5437 -0.6077 -0.6126
 1511poe    c23 9487   0.013   3.567   4.462  0.1491 -0.1446 -0.8548
 1511poe     o2 9488   0.139   3.630   4.450  0.1380 -0.0318 -0.3818
 1511poe    c23 9489   0.235   3.568   4.533 -0.1809  0.0148  0.0258
 1511poe    c23 9490   0.371   3.641   4.539 -0.0792 -0.1957  0.2793
 1511poe     o2 9491   0.444   3.630   4.419  0.1482  0.3415  0.3636
 1511poe    c31 9492   0.567   3.696   4.437  0.2689  0.2097  0.0214
 1512poe    c31 9493   5.793   4.393   0.957 -0.5357 -0.1082 -0.4701
 1512poe     o2 9494   5.892   4.408   0.857 -0.3323  0.0308 -0.2481
 1512poe    c23 9495   5.871   4.534   0.799  0.0814  0.0444 -0.3642
 1512poe    c23 9496   5.942   4.539   0.662  0.4041 -0.2115 -0.2095
 1512poe     o2 9497   6.058   4.460   0.676  0.8161  0.4414  0.0787
 1512poe    c23 9498   6.142   4.470   0.564 -0.1114 -0.1754 -0.6874
 1512poe    c23 9499   6.271   4.388   0.581 -0.3506 -0.3072  0.6279
 1512poe     o2 9500   6.236   4.253   0.568 -0.1112 -0.4104  1.0371
 1512poe    c23 9501   6.357   4.182   0.580  0.3317  0.1528  0.0631
 1512poe    c23 9502   6.365   4.035   0.534  0.1297  0.2923 -0.4169
 1512poe     o2 9503   6.312   3.955   0.637 -0.0218 -0.0056 -0.7230
 1512poe    c31 9504   6.331   3.820   0.600 -0.3534 -0.1706 -0.3055
 1513poe    c31 9505   4.023   5.849   6.387 -0.5525  0.2182 -0.1387
 1513poe     o2 9506   4.045   5.983   6.351  0.3554  0.1234  0.0203
 1513poe    c23 9507   4.179   6.018   6.375  0.4367  0.1229 -0.4283
 1513poe    c23 9508   4.205   6.165   6.335  0.1783  0.3427  0.2037
 1513poe     o2 9509   4.131   6.250   6.420 -0.0527  0.7752 -0.4229
 1513poe    c23 9510   4.193   6.376   6.420  0.3244  0.5915 -0.2600
 1513poe    c23 9511   4.126   6.468   6.524  0.3770  0.1884  0.1327
 1513poe     o2 9512   3.994   6.422   6.533  0.4304  0.0276  0.0963
 1513poe    c23 9513   3.920   6.505   6.620  0.2759  0.0416 -0.0471
 1513poe    c23 9514   3.775   6.455   6.606  0.1469  0.3197  0.2799
 1513poe     o2 9515   3.776   6.316   6.628  0.6655  0.2825  0.0531
 1513poe    c31 9516   3.660   6.273   6.696  0.9313 -0.0453  0.3052
 1514poe    c31 9517   1.978   5.452   4.270 -0.0341 -0.4648 -0.6430
 1514poe     o2 9518   2.089   5.519   4.214  0.0392 -0.2756 -0.2776
 1514poe    c23 9519   2.199   5.513   4.302 -0.6548  0.1989  0.6315
 1514poe    c23 9520   2.301   5.625   4.276  0.3791 -0.8240  0.1918
 1514poe     o2 9521   2.354   5.622   4.146  0.5460 -0.0251  0.2359
 1514poe    c23 9522   2.366   5.751   4.090 -0.8812 -0.0086 -0.0729
 1514poe    c23 9523   2.300   5.758   3.951 -0.3765 -0.8085 -0.3611
 1514poe     o2 9524   2.161   5.738   3.967 -0.3549 -0.4925  0.2675
 1514poe    c23 9525   2.095   5.721   3.843 -0.1649  1.1174 -0.0833
 1514poe    c23 9526   1.943   5.711   3.867 -0.1671  0.4159 -0.3595
 1514poe     o2 9527   1.930   5.633   3.983  0.3016  0.6836 -0.1249
 1514poe    c31 9528   1.794   5.618   4.018  0.5602  0.3175  0.7559
 1515poe    c31 9529   6.036   1.925   2.146  0.0633  0.4989  0.8858
 1515poe     o2 9530   6.172   1.940   2.112 -0.0024 -0.0214  0.3763
 1515poe    c23 9531   6.203   2.075   2.136 -0.1596  0.0532  0.1610
 1515poe    c23 9532   6.349   2.123   2.135 -0.2294  0.2516 -0.3248
 1515poe     o2 9533   6.409   2.107   2.008 -0.2429 -0.1344 -0.2839
 1515poe    c23 9534   6.507   2.208   1.995  0.1876 -0.3775  0.9381
 1515poe    c23 9535   6.547   2.213   1.846 -1.0626 -0.2494  0.6008
 1515poe     o2 9536   6.559   2.086   1.787 -0.0879  0.0703  0.0992
 1515poe    c23 9537   6.606   2.096   1.654  0.0369 -0.2062  0.1219
 1515poe    c23 9538   6.680   1.965   1.620  0.2476 -0.0793  0.0852
 1515poe     o2 9539   6.581   1.864   1.614  0.4350 -0.3076  0.8018
 1515poe    c31 9540   6.646   1.739   1.597  0.3132 -0.1945 -0.5321
 1516poe    c31 9541   4.059   2.485   2.387 -0.1949 -0.5926 -0.4959
 1516poe     o2 9542   3.923   2.518   2.371 -0.1785 -0.1624  0.2606
 1516poe    c23 9543   3.838   2.474   2.475 -0.1793 -0.2535  0.2210
 1516poe    c23 9544   3.703   2.547   2.458 -0.1848 -0.3100  0.0137
 1516poe     o2 9545   3.714   2.687   2.464 -0.1313 -0.3144  0.0228
 1516poe    c23 9546   3.591   2.754   2.484  0.0424 -0.0268  0.1396
 1516poe    c23 9547   3.580   2.846   2.362  0.0205 -0.2105  0.0022
 1516poe     o2 9548   3.695   2.926   2.349  0.1134 -0.4421 -0.6673
 1516poe    c23 9549   3.654   3.046   2.287 -0.2208 -0.1050  0.1827
 1516poe    c23 9550   3.782   3.132   2.286 -0.3542  0.0965 -0.9117
 1516poe     o2 9551   3.898   3.052   2.280 -0.4047 -0.1008  0.4525
 1516poe    c31 9552   4.003   3.142   2.253 -0.0638 -0.3953  0.7842
 1517poe    c31 9553   4.314   5.523   4.816  0.5170  0.0493 -0.3476
 1517poe     o2 9554   4.411   5.456   4.893  0.1431 -0.6806 -0.5063
 1517poe    c23 9555   4.347   5.373   4.988 -0.2935 -0.1121 -0.2982
 1517poe    c23 9556   4.448   5.272   5.045 -0.0802  0.1124 -0.2812
 1517poe     o2 9557   4.579   5.322   5.025  0.0630 -0.0496  0.2283
 1517poe    c23 9558   4.687   5.237   5.057  0.2846  0.0243 -0.3053
 1517poe    c23 9559   4.811   5.324   5.081  0.0042  0.3454 -0.0052
 1517poe     o2 9560   4.810   5.418   4.975 -0.3093  0.1583 -0.1692
 1517poe    c23 9561   4.935   5.481   4.956 -0.1462  0.0474  0.5183
 1517poe    c23 9562   4.957   5.615   5.029 -0.3280  0.0014  0.6585
 1517poe     o2 9563   4.853   5.709   5.012 -0.1975  0.0929  0.3580
 1517poe    c31 9564   4.864   5.801   5.119  0.0818 -0.0573  0.4594
 1518poe    c31 9565   6.729   0.594   5.526  0.2448  0.0075  0.1937
 1518poe     o2 9566   6.862   0.640   5.536  0.3052 -0.0371 -0.3854
 1518poe    c23 9567   6.931   0.539   5.607  0.0518 -0.3726 -0.6133
 1518poe    c23 9568   7.068   0.586   5.659 -0.1371 -0.1562 -0.3096
 1518poe     o2 9569   7.155   0.636   5.561  0.1625 -0.2594 -0.0966
 1518poe    c23 9570   7.279   0.647   5.629  0.0080 -0.5304  0.2317
 1518poe    c23 9571   7.389   0.694   5.532 -0.1359 -0.2276  0.2130
 1518poe     o2 9572   7.336   0.771   5.426 -0.0535 -0.1728  0.2114
 1518poe    c23 9573   7.421   0.756   5.315  0.2514  0.2407  0.3892
 1518poe    c23 9574   7.371   0.825   5.187 -0.2346 -0.0970  0.3940
 1518poe     o2 9575   7.239   0.778   5.174 -0.3594  0.3013  0.2109
 1518poe    c31 9576   7.195   0.819   5.047 -0.0982  0.5437  0.1972
 1519poe    c31 9577   2.115   2.868   4.675 -0.6620 -0.2541  0.1043
 1519poe     o2 9578   2.157   2.995   4.721 -0.2836 -0.1782 -0.4455
 1519poe    c23 9579   2.088   3.032   4.838 -0.0060  0.1565 -0.3866
 1519poe    c23 9580   2.144   3.164   4.894 -0.1095  0.1832 -0.3469
 1519poe     o2 9581   2.143   3.256   4.787  0.5025  0.1137 -0.4177
 1519poe    c23 9582   2.145   3.388   4.835 -0.4126  0.0573 -0.1982
 1519poe    c23 9583   2.136   3.470   4.705  0.2392  0.2452 -0.1316
 1519poe     o2 9584   2.222   3.420   4.605  0.2986 -0.1246  0.1012
 1519poe    c23 9585   2.306   3.527   4.568  0.3199 -0.1364  0.1156
 1519poe    c23 9586   2.389   3.477   4.449 -0.2730  0.2859 -0.4769
 1519poe     o2 9587   2.477   3.372   4.485  0.3055  0.8028 -0.3756
 1519poe    c31 9588   2.588   3.360   4.399  0.3771  0.1210 -0.1848
 1520poe    c31 9589   0.784   1.127   0.646 -0.4249  0.2686 -0.3669
 1520poe     o2 9590   0.684   1.107   0.744 -0.2299  0.4663 -0.1260
 1520poe    c23 9591   0.623   0.980   0.735  0.7622 -0.0084 -0.2725
 1520poe    c23 9592   0.576   0.941   0.877  0.0301  0.5756 -0.3502
 1520poe     o2 9593   0.505   1.052   0.927 -0.9884 -0.2162 -0.0138
 1520poe    c23 9594   0.480   1.050   1.066 -0.2553 -0.0762  0.1259
 1520poe    c23 9595   0.411   1.180   1.114  0.0884  0.4273 -0.7180
 1520poe     o2 9596   0.473   1.291   1.052 -0.1335  0.7313 -0.3954
 1520poe    c23 9597   0.413   1.408   1.103 -0.2758  0.4410  0.1180
 1520poe    c23 9598   0.466   1.536   1.035 -0.4306  0.4261 -0.0304
 1520poe     o2 9599   0.606   1.534   1.018 -0.3903  0.1489  0.3205
 1520poe    c31 9600   0.646   1.641   0.935 -0.3393  0.1920  0.4000
 1521poe    c31 9601   1.200   3.645   6.327 -0.4952 -0.3056 -0.2207
 1521poe     o2 9602   1.103   3.583   6.245 -0.4890  0.4107 -0.7821
 1521poe    c23 9603   1.160   3.477   6.171  0.4910  0.2901  0.1243
 1521poe    c23 9604   1.033   3.422   6.104 -0.2266  0.7237  1.0932
 1521poe     o2 9605   0.973   3.512   6.013  0.4767 -0.0538 -0.1746
 1521poe    c23 9606   0.874   3.442   5.943  0.2402 -0.5072  0.6028
 1521poe    c23 9607   0.838   3.536   5.826  0.3646 -0.5194  0.5544
 1521poe     o2 9608   0.774   3.647   5.885  0.3215 -0.1936 -0.0918
 1521poe    c23 9609   0.708   3.727   5.790  0.0755 -0.5613 -0.2341
 1521poe    c23 9610   0.639   3.844   5.864  0.0421 -0.4716 -0.4073
 1521poe     o2 9611   0.750   3.892   5.936 -0.2214 -0.0010 -0.3091
 1521poe    c31 9612   0.716   4.009   6.006  0.0811 -0.3257  0.3992
 1522poe    c31 9613   3.593   3.855   3.632  0.0559 -0.1521  0.3626
 1522poe     o2 9614   3.515   3.740   3.659 -0.0591 -0.1119  0.2063
 1522poe    c23 9615   3.466   3.684   3.539 -0.4301  0.3108  0.1545
 1522poe    c23 9616   3.373   3.566   3.574 -0.3312  0.1938  0.0235
 1522poe     o2 9617   3.302   3.604   3.689  0.2674 -0.2767  0.5545
 1522poe    c23 9618   3.214   3.498   3.718 -0.0180 -0.1684  0.0941
 1522poe    c23 9619   3.089   3.541   3.797  0.0408  0.2883 -0.0583
 1522poe     o2 9620   3.118   3.636   3.897  0.0812  0.1472  0.0660
 1522poe    c23 9621   3.008   3.714   3.937 -0.3490 -0.3202 -0.2013
 1522poe    c23 9622   3.039   3.828   4.036  0.2011 -0.1293 -0.5845
 1522poe     o2 9623   3.115   3.938   3.992  0.0133  0.2310 -0.0190
 1522poe    c31 9624   3.099   4.049   4.078  0.2087  0.5678 -0.4162
 1523poe    c31 9625   2.271   4.147   4.252  0.2797 -0.3041 -0.0786
 1523poe     o2 9626   2.199   4.079   4.352 -0.2029 -0.4347 -0.5123
 1523poe    c23 9627   2.063   4.106   4.326 -0.1409  0.9140  0.4238
 1523poe    c23 9628   1.985   4.007   4.414  0.2774  0.2466  0.0468
 1523poe     o2 9629   2.059   3.982   4.532 -0.1228  0.0830  0.2639
 1523poe    c23 9630   2.009   3.882   4.619 -0.0299 -0.5207 -0.3707
 1523poe    c23 9631   2.064   3.907   4.760 -0.2117  0.3887 -0.4524
 1523poe     o2 9632   2.204   3.896   4.767 -0.2531  0.1442  0.1512
 1523poe    c23 9633   2.262   3.909   4.895  0.2862 -0.2928 -0.0409
 1523poe    c23 9634   2.407   3.859   4.890  0.6781  0.7616  0.3810
 1523poe     o2 9635   2.472   3.945   4.799  0.5399  0.3062 -0.1598
 1523poe    c31 9636   2.582   4.003   4.865  0.3942  0.6593 -0.2262
 1524poe    c31 9637   6.374   4.632   4.194  0.0240 -0.5459  0.2123
 1524poe     o2 9638   6.444   4.684   4.305  0.2914 -0.0252 -0.1955
 1524poe    c23 9639   6.515   4.576   4.359 -0.2775 -0.3793 -0.1486
 1524poe    c23 9640   6.625   4.639   4.447  0.0773 -0.2011 -0.7137
 1524poe     o2 9641   6.684   4.750   4.382 -0.2751  0.5422  0.2033
 1524poe    c23 9642   6.785   4.804   4.464  0.0589 -0.0792  0.2112
 1524poe    c23 9643   6.806   4.954   4.433  0.2614 -0.0702  0.3896
 1524poe     o2 9644   6.681   5.015   4.456  0.1045 -0.0972 -0.3591
 1524poe    c23 9645   6.690   5.147   4.504  0.2170  0.1369 -1.0197
 1524poe    c23 9646   6.558   5.220   4.473 -0.2707 -0.4696 -0.4079
 1524poe     o2 9647   6.453   5.159   4.544 -0.5304 -0.1922 -0.5476
 1524poe    c31 9648   6.348   5.248   4.573 -0.1347  0.2689 -0.5323
 1525poe    c31 9649   6.037   6.448   4.270  0.2725  0.1310 -0.2968
 1525poe     o2 9650   6.156   6.482   4.203  0.6395 -0.0149  0.2772
 1525poe    c23 9651   6.174   6.621   4.186 -0.5925  0.1540  0.2897
 1525poe    c23 9652   6.293   6.646   4.091 -0.4347  0.3204  0.5315
 1525poe     o2 9653   6.421   6.612   4.140 -0.4198  0.0140  0.2860
 1525poe    c23 9654   6.510   6.657   4.041 -0.4508 -0.5082  0.0184
 1525poe    c23 9655   6.644   6.634   4.113 -0.2537  0.1380 -0.1323
 1525poe     o2 9656   6.653   6.500   4.155 -0.0021  0.2980  0.3361
 1525poe    c23 9657   6.770   6.461   4.224  0.2949  0.5974  0.0026
 1525poe    c23 9658   6.753   6.311   4.255 -0.2590  0.6740  0.0864
 1525poe     o2 9659   6.621   6.294   4.301 -0.1107 -0.2325  0.1801
 1525poe    c31 9660   6.601   6.167   4.360  0.4730 -0.0432  0.7907
 1526poe    c31 9661   5.498   1.413   1.653  0.1708 -0.1399 -0.3754
 1526poe     o2 9662   5.500   1.537   1.586  0.4944  0.0922  0.0506
 1526poe    c23 9663   5.629   1.592   1.597  0.3881  0.3464  0.0464
 1526poe    c23 9664   5.621   1.744   1.573  0.2493  0.3800  0.3056
 1526poe     o2 9665   5.561   1.788   1.454 -0.2907 -0.0069  0.4271
 1526poe    c23 9666   5.644   1.771   1.341 -0.4377 -0.4250  0.3793
 1526poe    c23 9667   5.550   1.795   1.222 -0.4019  0.0343  0.4398
 1526poe     o2 9668   5.428   1.724   1.223 -0.3011 -0.1446 -0.0817
 1526poe    c23 9669   5.382   1.708   1.090  0.2544  0.1249 -0.3108
 1526poe    c23 9670   5.246   1.637   1.104  0.3738  0.0134  0.3084
 1526poe     o2 9671   5.183   1.721   1.199 -0.3867  0.1844 -0.3378
 1526poe    c31 9672   5.043   1.729   1.183 -0.4946 -0.5801  0.1504
 1527poe    c31 9673   2.603   3.008   1.678  0.0696 -0.0512  0.6340
 1527poe     o2 9674   2.672   3.072   1.574 -0.1076 -0.0575  0.5118
 1527poe    c23 9675   2.735   3.188   1.626 -0.8659  0.6499 -0.1178
 1527poe    c23 9676   2.782   3.273   1.506  0.0502  0.3433  0.0146
 1527poe     o2 9677   2.820   3.189   1.399 -0.2334  0.3717 -0.1086
 1527poe    c23 9678   2.857   3.261   1.283 -0.4782  0.0709 -0.3730
 1527poe    c23 9679   2.911   3.145   1.197 -0.1532 -0.1800  0.1564
 1527poe     o2 9680   2.824   3.037   1.221 -0.0240 -0.2194  0.4467
 1527poe    c23 9681   2.714   3.008   1.138  0.0560 -0.1112  0.3022
 1527poe    c23 9682   2.643   2.880   1.188 -0.5545  0.3010  0.5060
 1527poe     o2 9683   2.616   2.901   1.325 -0.0838 -0.1157  0.6658
 1527poe    c31 9684   2.516   2.808   1.360 -0.2124 -0.3551 -0.2993
 1528poe    c31 9685   4.301   1.007   0.293 -0.2026  0.2590  1.2163
 1528poe     o2 9686   4.284   1.146   0.275  0.0498  0.1983  0.4692
 1528poe    c23 9687   4.404   1.209   0.315  0.2711  0.3998 -0.4828
 1528poe    c23 9688   4.404   1.351   0.257 -0.2234  0.5574 -0.1046
 1528poe     o2 9689   4.268   1.388   0.248 -0.3469  0.1180 -0.0657
 1528poe    c23 9690   4.252   1.507   0.174 -0.1935 -0.1117 -0.4731
 1528poe    c23 9691   4.106   1.508   0.126 -0.2241 -0.0370 -0.3779
 1528poe     o2 9692   4.083   1.371   0.102  0.4751 -0.1799 -0.2491
 1528poe    c23 9693   3.968   1.354   0.021  0.0309  0.0921  0.3213
 1528poe    c23 9694   3.994   1.216  -0.042 -0.3973 -0.1084  0.5813
 1528poe     o2 9695   4.063   1.148   0.060  0.0787 -0.2333  0.1744
 1528poe    c31 9696   4.125   1.027   0.021  0.3103  0.0739 -0.4375
 1529poe    c31 9697   3.717   6.792   4.191 -0.3628 -0.0139  0.0005
 1529poe     o2 9698   3.820   6.710   4.242 -0.1648 -0.1436 -0.5990
 1529poe    c23 9699   3.772   6.614   4.333 -0.1610  0.2339 -0.1941
 1529poe    c23 9700   3.899   6.539   4.378 -0.2284  0.3294  0.1557
 1529poe     o2 9701   3.962   6.483   4.265 -0.7709  0.2793 -0.1240
 1529poe    c23 9702   4.092   6.436   4.292 -0.8302 -0.0209 -0.3529
 1529poe    c23 9703   4.150   6.414   4.151  0.4445  0.2137  0.1199
 1529poe     o2 9704   4.133   6.524   4.065  0.4370  0.0837 -0.0460
 1529poe    c23 9705   4.221   6.533   3.955  0.1626 -0.0543 -0.2765
 1529poe    c23 9706   4.169   6.643   3.861 -0.4655 -0.0973  0.0171
 1529poe     o2 9707   4.196   6.771   3.913 -0.4133 -0.1210  0.0490
 1529poe    c31 9708   4.218   6.859   3.805  0.3369 -0.2209  0.1165
 1530poe    c31 9709   0.974   6.746   1.461 -0.3341 -0.0611 -0.2151
 1530poe     o2 9710   0.872   6.837   1.427  0.0373  0.4215 -0.0355
 1530poe    c23 9711   0.925   6.968   1.417 -0.1593  0.5442  0.4788
 1530poe    c23 9712   0.816   7.055   1.353 -0.0289  0.6005  0.3335
 1530poe     o2 9713   0.693   7.011   1.406  0.1400 -0.8377 -0.4270
 1530poe    c23 9714   0.596   7.101   1.359  0.2407 -0.7469 -0.4603
 1530poe    c23 9715   0.452   7.058   1.390  0.0888  0.1083  0.0533
 1530poe     o2 9716   0.439   6.929   1.334  0.5379 -0.0805  0.3780
 1530poe    c23 9717   0.307   6.885   1.362  0.5381 -0.5104 -0.2681
 1530poe    c23 9718   0.304   6.750   1.436 -0.1918 -0.3278  0.0396
 1530poe     o2 9719   0.384   6.659   1.364  0.3866  0.0394  0.2081
 1530poe    c31 9720   0.329   6.531   1.384 -0.2702  0.3798  0.6225
 1531poe    c31 9721   0.043   6.583   0.372 -0.5231 -0.2309  0.2895
 1531poe     o2 9722  -0.045   6.473   0.377 -0.5417 -0.2188  0.2261
 1531poe    c23 9723  -0.163   6.487   0.301 -0.1638 -0.0626 -0.3389
 1531poe    c23 9724  -0.214   6.344   0.270  0.0917 -0.2349  0.0313
 1531poe     o2 9725  -0.182   6.276   0.389  0.2805  0.0281  0.1337
 1531poe    c23 9726  -0.276   6.179   0.431  0.2191 -0.0171 -0.1070
 1531poe    c23 9727  -0.188   6.084   0.514 -0.0218 -0.0514  0.1103
 1531poe     o2 9728  -0.108   6.162   0.599  0.3004 -0.5416  0.2622
 1531poe    c23 9729  -0.066   6.094   0.715 -0.3430 -0.4183  0.5683
 1531poe    c23 9730   0.071   6.141   0.768 -0.2302 -0.0200 -0.0696
 1531poe     o2 9731   0.077   6.276   0.809  0.1743 -0.0355 -0.0760
 1531poe    c31 9732   0.202   6.305   0.867  0.1924  0.3402 -0.3029
 1532poe    c31 9733   1.713   4.625   3.919 -0.0055  0.2235 -0.6479
 1532poe     o2 9734   1.771   4.728   3.996 -0.1707  0.0575 -0.3006
 1532poe    c23 9735   1.892   4.689   4.057 -0.2015  0.4822  0.0393
 1532poe    c23 9736   1.982   4.809   4.089 -0.1963  0.4478  0.1502
 1532poe     o2 9737   1.893   4.919   4.091 -0.6276  0.1037 -0.0741
 1532poe    c23 9738   1.948   5.043   4.130 -0.3565  0.0030 -0.1320
 1532poe    c23 9739   1.844   5.155   4.150 -0.2642  0.0485  0.0986
 1532poe     o2 9740   1.757   5.159   4.039 -0.4123 -0.5199  0.1877
 1532poe    c23 9741   1.652   5.252   4.055 -0.2315 -0.3815  0.5841
 1532poe    c23 9742   1.553   5.239   3.938  0.1514  0.4323  0.1622
 1532poe     o2 9743   1.485   5.116   3.927 -0.0541  0.5179  0.4779
 1532poe    c31 9744   1.408   5.117   3.808  0.1885  0.3167  0.3201
 1533poe    c31 9745   0.736   2.897   2.555  0.7092  0.1695  0.0409
 1533poe     o2 9746   0.846   2.891   2.643  0.1209 -0.7885  0.7334
 1533poe    c23 9747   0.936   2.787   2.612  0.4176 -0.3943  0.2468
 1533poe    c23 9748   1.080   2.806   2.662  0.2629 -0.2201  0.6274
 1533poe     o2 9749   1.151   2.898   2.583 -0.3945 -0.5884 -0.4116
 1533poe    c23 9750   1.281   2.933   2.625 -0.6725  0.2609 -0.2288
 1533poe    c23 9751   1.340   3.034   2.525 -0.4045 -0.0832 -0.4204
 1533poe     o2 9752   1.347   3.006   2.386 -0.1385 -0.4850 -0.3291
 1533poe    c23 9753   1.447   2.915   2.349  0.0834 -0.5225  0.3393
 1533poe    c23 9754   1.441   2.908   2.195 -0.2923 -0.1939  0.3400
 1533poe     o2 9755   1.311   2.866   2.161 -0.2542 -0.5280  0.6034
 1533poe    c31 9756   1.321   2.828   2.026 -0.2409  0.0729  0.4323
 1534poe    c31 9757   0.217   3.268   3.966  0.1057  0.3009 -0.4651
 1534poe     o2 9758   0.330   3.350   3.985  0.2834 -0.0020 -0.2027
 1534poe    c23 9759   0.342   3.432   3.871  0.0496 -0.2168 -0.3818
 1534poe    c23 9760   0.448   3.539   3.902 -0.3282 -0.0212  0.2520
 1534poe     o2 9761   0.542   3.467   3.979 -0.0059  0.0851 -0.0384
 1534poe    c23 9762   0.653   3.542   4.023  0.2532 -0.1040 -0.3670
 1534poe    c23 9763   0.752   3.442   4.087  0.2078 -0.0786 -0.2558
 1534poe     o2 9764   0.664   3.368   4.169  0.3080  0.3557  0.2450
 1534poe    c23 9765   0.742   3.307   4.269 -0.1015  0.1775  0.4573
 1534poe    c23 9766   0.670   3.253   4.394 -0.2487 -0.6197  0.0348
 1534poe     o2 9767   0.594   3.351   4.462  0.0775 -0.0157 -0.4657
 1534poe    c31 9768   0.531   3.308   4.580 -0.2141  0.4827 -0.4371
 1535poe    c31 9769   2.554   6.215   4.187 -0.6949  0.1654  0.5696
 1535poe     o2 9770   2.676   6.180   4.249 -0.1998  0.2024 -0.3611
 1535poe    c23 9771   2.677   6.043   4.283  0.3015  0.1615 -0.5318
 1535poe    c23 9772   2.791   5.988   4.370  0.2349  0.4660 -0.2515
 1535poe     o2 9773   2.790   6.017   4.508  0.3873 -0.3515 -0.0763
 1535poe    c23 9774   2.913   5.988   4.570  0.1403  0.2299  0.6992
 1535poe    c23 9775   2.913   6.052   4.711 -0.6094  0.7029  0.4890
 1535poe     o2 9776   2.883   6.188   4.693  0.0617  0.7486 -0.3184
 1535poe    c23 9777   2.952   6.279   4.775 -0.3693  0.5777  0.2354
 1535poe    c23 9778   2.917   6.421   4.726  0.6419  0.5249 -0.6859
 1535poe     o2 9779   2.781   6.411   4.688  0.5333 -0.4670 -0.0633
 1535poe    c31 9780   2.738   6.539   4.649 -0.3177 -0.6432  0.2696
 1536poe    c31 9781   3.640   3.377   5.456 -0.2780 -0.3498 -0.3890
 1536poe     o2 9782   3.759   3.310   5.491 -0.2377  0.0973  0.3377
 1536poe    c23 9783   3.813   3.372   5.606  0.4122  0.0221  0.0815
 1536poe    c23 9784   3.925   3.294   5.676 -0.1862 -0.6369  0.3240
 1536poe     o2 9785   4.001   3.251   5.565 -0.4796 -0.4718  0.0587
 1536poe    c23 9786   4.094   3.155   5.609 -0.0684 -0.2184 -0.2510
 1536poe    c23 9787   4.184   3.135   5.485  0.1214  0.7384 -0.2790
 1536poe     o2 9788   4.114   3.095   5.369 -0.3893 -0.2981  0.3647
 1536poe    c23 9789   4.180   3.004   5.285 -0.0379 -0.2419  0.5794
 1536poe    c23 9790   4.083   2.919   5.201  0.0849  0.0950  0.0898
 1536poe     o2 9791   3.985   2.851   5.276 -0.2137  0.0282 -0.3569
 1536poe    c31 9792   3.880   2.805   5.194 -0.4394  0.1518 -0.1374
 1537poe    c31 9793   0.120   6.031   4.921  0.3450  0.3001 -0.5478
 1537poe     o2 9794   0.123   5.895   4.955 -0.3488  0.3878 -0.1232
 1537poe    c23 9795   0.123   5.879   5.095  0.0068  0.2486 -0.1376
 1537poe    c23 9796   0.134   5.735   5.149  0.1367  0.3409  0.0834
 1537poe     o2 9797   0.035   5.666   5.075  0.3660  0.5596 -0.4320
 1537poe    c23 9798  -0.027   5.559   5.142  0.4715  0.4874 -0.4486
 1537poe    c23 9799  -0.174   5.548   5.097  0.4060 -0.0649 -0.1062
 1537poe     o2 9800  -0.182   5.567   4.958  0.0595  0.0518 -0.0720
 1537poe    c23 9801  -0.317   5.565   4.916  0.1345 -0.2462 -0.2975
 1537poe    c23 9802  -0.348   5.582   4.766 -0.0538 -0.5343 -0.2938
 1537poe     o2 9803  -0.318   5.708   4.710  0.1518 -0.2377  0.4609
 1537poe    c31 9804  -0.430   5.750   4.635  0.3089 -0.5960  0.0142
 1538poe    c31 9805   1.351   5.822   0.770 -0.7334 -0.1602  0.0683
 1538poe     o2 9806   1.334   5.694   0.828 -0.1241 -0.0419  0.5219
 1538poe    c23 9807   1.459   5.641   0.864  0.1663  0.0721 -0.3061
 1538poe    c23 9808   1.448   5.488   0.858  0.3971  0.0060  0.8065
 1538poe     o2 9809   1.318   5.459   0.903  0.3949 -0.6966  0.3700
 1538poe    c23 9810   1.280   5.324   0.886  0.3225 -0.5818 -0.3796
 1538poe    c23 9811   1.159   5.303   0.979  0.1053 -0.0645 -0.5405
 1538poe     o2 9812   1.045   5.367   0.926 -0.0769 -0.1328 -0.2314
 1538poe    c23 9813   0.948   5.359   1.029  0.2120 -0.0767  0.0463
 1538poe    c23 9814   0.819   5.432   0.987  0.4489  0.3012 -0.0275
 1538poe     o2 9815   0.834   5.572   0.973  0.0719  0.3589  0.1350
 1538poe    c31 9816   0.705   5.628   0.970 -0.1622 -0.1288  0.7578
 1539poe    c31 9817   2.935   3.130   3.187 -0.2766 -0.1969  0.1541
 1539poe     o2 9818   2.901   3.171   3.317 -0.0626 -0.7826  0.4002
 1539poe    c23 9819   2.940   3.305   3.339  0.0471 -0.7574  0.0450
 1539poe    c23 9820   2.828   3.373   3.420  0.0669 -0.4436 -0.1872
 1539poe     o2 9821   2.828   3.322   3.552  0.1322 -0.0059 -0.0182
 1539poe    c23 9822   2.743   3.393   3.640  0.1571  0.0562 -0.0436
 1539poe    c23 9823   2.756   3.310   3.770 -0.7999  0.1382  0.1094
 1539poe     o2 9824   2.700   3.183   3.746 -0.2918 -0.0308 -0.1969
 1539poe    c23 9825   2.707   3.103   3.862 -0.7800  0.4549  0.1706
 1539poe    c23 9826   2.615   2.982   3.840  0.0639 -0.1066 -0.3012
 1539poe     o2 9827   2.626   2.939   3.706 -0.5952  0.0351 -0.4037
 1539poe    c31 9828   2.543   2.825   3.692 -0.7530  0.1258 -0.2037
 1540poe    c31 9829   1.872   3.922   2.906  0.0910 -0.3073 -0.1899
 1540poe     o2 9830   1.793   4.024   2.962  0.2613 -0.4720  0.3631
 1540poe    c23 9831   1.665   3.973   2.992 -0.0409  0.1014  0.0642
 1540poe    c23 9832   1.567   4.062   3.070 -0.0193 -0.1695  0.4015
 1540poe     o2 9833   1.546   4.189   3.012  0.0182 -0.3316  0.0347
 1540poe    c23 9834   1.433   4.238   3.080  0.2314 -0.0249  0.1687
 1540poe    c23 9835   1.385   4.371   3.019  0.0899  0.0333  0.4048
 1540poe     o2 9836   1.305   4.370   2.903  0.4110 -0.5096  0.1809
 1540poe    c23 9837   1.317   4.499   2.846  0.0615 -0.3731  0.4121
 1540poe    c23 9838   1.326   4.485   2.693 -0.1312  0.0951  0.3572
 1540poe     o2 9839   1.443   4.419   2.652 -0.4669 -0.2981  0.0274
 1540poe    c31 9840   1.464   4.430   2.513  0.2756 -0.1275  0.1462
 1541poe    c31 9841   4.428   0.144   6.523  0.3930  0.8404 -0.0061
 1541poe     o2 9842   4.384   0.069   6.634 -0.0017 -0.0042 -0.7201
 1541poe    c23 9843   4.447  -0.055   6.657  0.5244  0.3875 -0.0251
 1541poe    c23 9844   4.356  -0.159   6.723  0.8175  0.1066 -0.0602
 1541poe     o2 9845   4.303  -0.088   6.832  0.2725 -0.2037 -0.1169
 1541poe    c23 9846   4.191  -0.150   6.893 -0.1877  0.2957 -0.4416
 1541poe    c23 9847   4.178  -0.079   7.029 -0.0142 -0.5284  0.0136
 1541poe     o2 9848   4.188   0.061   7.010 -0.3554 -0.4948  0.0829
 1541poe    c23 9849   4.179   0.132   7.131 -0.2911 -0.0810 -0.1519
 1541poe    c23 9850   4.206   0.282   7.116  0.4375 -0.2113 -0.1748
 1541poe     o2 9851   4.341   0.316   7.093  0.3252  0.0533 -0.4617
 1541poe    c31 9852   4.357   0.456   7.104  0.3223 -0.0183  0.5241
 1542poe    c31 9853   5.067   5.326   1.305  0.1318 -0.1249  0.4272
 1542poe     o2 9854   4.943   5.271   1.345  0.0209 -0.0591  0.1736
 1542poe    c23 9855   4.955   5.149   1.415  0.5475 -0.3053 -0.3324
 1542poe    c23 9856   4.848   5.040   1.395 -0.0517  0.1103  0.5332
 1542poe     o2 9857   4.719   5.073   1.441 -0.0197  0.0898  0.6373
 1542poe    c23 9858   4.624   4.969   1.442  0.0391  0.0334  0.3988
 1542poe    c23 9859   4.491   4.996   1.515 -0.2911 -0.2686 -0.0788
 1542poe     o2 9860   4.427   5.105   1.452 -0.1064  0.0153  0.2200
 1542poe    c23 9861   4.332   5.160   1.541  0.3119  0.5039  0.3680
 1542poe    c23 9862   4.274   5.277   1.458 -0.0155  0.0970  0.0175
 1542poe     o2 9863   4.375   5.323   1.371  0.3524 -0.3767  0.1887
 1542poe    c31 9864   4.361   5.463   1.361 -0.2038 -0.4787 -0.6026
 1543poe    c31 9865   0.972   3.127   2.930 -0.6753  0.4765  0.1932
 1543poe     o2 9866   1.059   3.194   3.018 -0.4399  0.6601 -0.1734
 1543poe    c23 9867   0.994   3.310   3.066 -0.1537  0.4800  0.6612
 1543poe    c23 9868   1.072   3.438   3.032  0.1896  0.2669  0.6453
 1543poe     o2 9869   1.185   3.460   3.115  0.4501  0.2583  0.2964
 1543poe    c23 9870   1.282   3.533   3.045 -0.0032  0.6841  0.1069
 1543poe    c23 9871   1.398   3.563   3.142 -0.4629  0.7003  0.6571
 1543poe     o2 9872   1.433   3.450   3.219 -0.3894  0.3423  0.1055
 1543poe    c23 9873   1.535   3.478   3.312 -0.3291  0.8767 -0.1189
 1543poe    c23 9874   1.669   3.518   3.249  0.2349  0.0632  0.5435
 1543poe     o2 9875   1.727   3.404   3.190  0.2794  0.1804  0.3546
 1543poe    c31 9876   1.845   3.441   3.123  0.1187 -0.2028 -0.1507
 1544poe    c31 9877   2.953   2.765   5.143  0.5684  0.0747 -0.4460
 1544poe     o2 9878   2.906   2.816   5.021  0.4059  0.2673 -0.3044
 1544poe    c23 9879   2.865   2.712   4.934  0.3116 -0.0090  0.0713
 1544poe    c23 9880   2.773   2.781   4.832  0.3565  0.0265  0.0545
 1544poe     o2 9881   2.803   2.919   4.832 -0.2405  0.1603  0.3296
 1544poe    c23 9882   2.725   2.974   4.728  0.5201  0.0006 -0.3322
 1544poe    c23 9883   2.741   3.127   4.726 -0.0936  0.0721  0.0501
 1544poe     o2 9884   2.870   3.156   4.676 -0.4659  0.5158 -0.6480
 1544poe    c23 9885   2.901   3.293   4.683 -0.1277  0.4307 -0.5007
 1544poe    c23 9886   3.052   3.321   4.665 -0.0893  0.3006 -0.3820
 1544poe     o2 9887   3.137   3.269   4.764 -0.4764  0.1545 -0.1218
 1544poe    c31 9888   3.274   3.292   4.740 -0.3214 -0.0421  0.5462
 1545poe    c31 9889   4.168   3.767   3.267 -0.6416 -0.2708  0.3119
 1545poe     o2 9890   4.195   3.641   3.325  0.1716 -0.1770  0.1447
 1545poe    c23 9891   4.289   3.658   3.429 -0.2589  0.1899  0.4767
 1545poe    c23 9892   4.292   3.527   3.509 -0.1306 -0.1297 -0.0466
 1545poe     o2 9893   4.357   3.420   3.445  0.2081 -0.1060  0.2575
 1545poe    c23 9894   4.496   3.411   3.468  0.1496  0.5679  0.9341
 1545poe    c23 9895   4.544   3.272   3.421 -0.0080  0.8039  0.0516
 1545poe     o2 9896   4.490   3.246   3.294  0.2952 -0.6834  0.2082
 1545poe    c23 9897   4.520   3.110   3.270  0.2819 -0.6845  0.1990
 1545poe    c23 9898   4.427   3.073   3.153 -0.3227  0.2116  0.3841
 1545poe     o2 9899   4.308   3.148   3.159 -0.3408  0.2259 -0.1029
 1545poe    c31 9900   4.218   3.104   3.059  0.0951 -0.3635 -0.2429
 1546poe    c31 9901   1.789   1.579   6.584 -0.0823 -0.2652 -0.0958
 1546poe     o2 9902   1.886   1.520   6.668  0.0303  0.3594  0.2267
 1546poe    c23 9903   1.986   1.616   6.690  0.5783 -0.0285 -0.5019
 1546poe    c23 9904   2.094   1.572   6.791 -0.1735 -0.1000  0.2798
 1546poe     o2 9905   2.168   1.460   6.750 -0.0805  0.1485 -0.2375
 1546poe    c23 9906   2.307   1.478   6.769 -0.0649 -0.0349 -0.1694
 1546poe    c23 9907   2.376   1.364   6.693  0.3847 -0.0653  0.2806
 1546poe     o2 9908   2.309   1.240   6.699  0.2018  0.0516  0.6310
 1546poe    c23 9909   2.365   1.132   6.628 -0.1616  0.2749 -0.0041
 1546poe    c23 9910   2.267   1.016   6.597  0.0054  0.2009 -0.2593
 1546poe     o2 9911   2.138   1.061   6.563 -0.2918 -0.1203  0.4115
 1546poe    c31 9912   2.052   0.957   6.524  0.1178  0.0081 -0.8785
 1547poe    c31 9913   5.570   5.613   1.781 -0.1251 -0.2884  0.3205
 1547poe     o2 9914   5.584   5.638   1.918  1.0204  0.3625  0.0973
 1547poe    c23 9915   5.547   5.774   1.934  0.0280  0.0690  0.3993
 1547poe    c23 9916   5.535   5.825   2.078 -0.7621  0.3905  0.2237
 1547poe     o2 9917   5.464   5.719   2.137 -0.2020 -0.0274  0.1583
 1547poe    c23 9918   5.420   5.752   2.267 -0.0196  0.4844  0.0888
 1547poe    c23 9919   5.332   5.637   2.317  0.3952 -0.0409 -0.3771
 1547poe     o2 9920   5.397   5.513   2.302  0.0775 -0.2466 -0.0784
 1547poe    c23 9921   5.322   5.407   2.357 -0.2754  0.2262  0.3489
 1547poe    c23 9922   5.411   5.282   2.359  0.3816  0.6689 -0.4762
 1547poe     o2 9923   5.422   5.242   2.224 -0.2043  0.1938 -0.3929
 1547poe    c31 9924   5.480   5.114   2.216  0.3536  0.4015  0.2124
 1548poe    c31 9925   1.892   1.477   1.875 -0.2626 -0.0380  0.4109
 1548poe     o2 9926   1.964   1.507   1.992  0.1964  0.3525  0.0311
 1548poe    c23 9927   2.092   1.548   1.949  0.3480 -0.0825  0.0701
 1548poe    c23 9928   2.173   1.620   2.059 -0.0688  0.0554  0.2888
 1548poe     o2 9929   2.231   1.530   2.151  0.3080  0.2527  0.2483
 1548poe    c23 9930   2.282   1.599   2.263  0.3945  0.3597  0.1432
 1548poe    c23 9931   2.300   1.500   2.380 -0.1368  0.2079  0.0957
 1548poe     o2 9932   2.185   1.419   2.398  0.0868 -0.0771  0.2469
 1548poe    c23 9933   2.181   1.359   2.525 -0.3334 -0.2203  0.1670
 1548poe    c23 9934   2.055   1.271   2.525 -0.3130 -0.2494  0.0661
 1548poe     o2 9935   2.053   1.187   2.411  0.0395  0.1197 -0.2131
 1548poe    c31 9936   1.957   1.085   2.426  0.2792 -0.1030 -0.1820
 1549poe    c31 9937   3.729   0.672   2.162 -0.6675  0.0720  0.3489
 1549poe     o2 9938   3.809   0.731   2.261 -0.0666  0.1949 -0.2065
 1549poe    c23 9939   3.720   0.793   2.351  0.1133 -0.3413  0.3485
 1549poe    c23 9940   3.777   0.849   2.482  0.7694 -0.1211 -0.0252
 1549poe     o2 9941   3.839   0.743   2.551  0.2715 -0.2198  0.2762
 1549poe    c23 9942   3.831   0.764   2.690  0.0387  0.4916  0.1603
 1549poe    c23 9943   3.922   0.661   2.760 -0.4068 -0.3309 -0.4586
 1549poe     o2 9944   3.940   0.542   2.687 -0.1649 -0.1667 -0.6662
 1549poe    c23 9945   3.994   0.434   2.760  0.1576  0.5076  0.1028
 1549poe    c23 9946   4.005   0.318   2.660 -0.2565  0.2740  0.3249
 1549poe     o2 9947   3.876   0.290   2.611 -0.2532  0.2036  0.3547
 1549poe    c31 9948   3.888   0.170   2.538  0.5569 -0.1973  1.1245
 1550poe    c31 9949   5.340   4.974   2.534 -0.2302  0.1592 -0.5061
 1550poe     o2 9950   5.320   4.835   2.522 -0.2102  0.1000  0.1198
 1550poe    c23 9951   5.351   4.787   2.393 -0.4944  0.0220  0.0792
 1550poe    c23 9952   5.414   4.647   2.388 -0.2170  0.1542 -0.1544
 1550poe     o2 9953   5.548   4.655   2.432 -0.4052  0.2477  0.4082
 1550poe    c23 9954   5.623   4.538   2.406  0.0262  0.6278 -0.0661
 1550poe    c23 9955   5.762   4.546   2.473  0.4072 -0.1670 -0.7517
 1550poe     o2 9956   5.741   4.610   2.597 -0.0078 -0.3623 -0.7204
 1550poe    c23 9957   5.848   4.578   2.682 -0.4550 -0.3592 -0.1535
 1550poe    c23 9958   5.848   4.666   2.809  0.8882 -0.1137 -0.3048
 1550poe     o2 9959   5.831   4.803   2.778 -0.3790 -0.2067 -0.0881
 1550poe    c31 9960   5.850   4.880   2.894  0.2365  0.1092 -0.3948
 1551poe    c31 9961   1.223   4.005   4.822  0.0713 -0.1526 -0.5471
 1551poe     o2 9962   1.200   3.882   4.887  0.1711 -0.0755 -0.3656
 1551poe    c23 9963   1.295   3.783   4.855 -0.0701 -0.4101 -0.0420
 1551poe    c23 9964   1.282   3.652   4.935 -0.4663 -0.1735  0.2842
 1551poe     o2 9965   1.152   3.611   4.899 -0.5805  0.1004  0.3846
 1551poe    c23 9966   1.124   3.483   4.953 -0.2299  0.0556  0.4613
 1551poe    c23 9967   0.988   3.430   4.905 -0.0056  0.1123 -0.2448
 1551poe     o2 9968   0.903   3.540   4.927  0.2657  0.1939  0.4130
 1551poe    c23 9969   0.766   3.509   4.922  0.3403 -0.0462 -0.2241
 1551poe    c23 9970   0.674   3.632   4.936  0.1295 -0.2545  0.2483
 1551poe     o2 9971   0.656   3.703   4.815  0.4218 -0.1354  0.2734
 1551poe    c31 9972   0.570   3.812   4.843 -0.4470 -0.5135 -0.8631
 1552poe    c31 9973   1.624   3.018   6.412  0.4427 -0.0541  0.4839
 1552poe     o2 9974   1.669   2.888   6.381  0.6672  0.1075  0.1150
 1552poe    c23 9975   1.711   2.831   6.503 -0.1498 -0.0570  0.3267
 1552poe    c23 9976   1.721   2.678   6.499 -0.6286 -0.0888  0.2393
 1552poe     o2 9977   1.810   2.620   6.406 -0.6725  0.0697  0.0991
 1552poe    c23 9978   1.794   2.480   6.407  0.1501 -0.0342 -0.0632
 1552poe    c23 9979   1.886   2.409   6.306  0.2661 -0.1311  0.1100
 1552poe     o2 9980   1.873   2.494   6.194 -0.4271 -0.0671  0.2382
 1552poe    c23 9981   1.946   2.454   6.081  0.0356  0.4386  0.3530
 1552poe    c23 9982   1.930   2.565   5.974  0.9946 -0.2537 -0.5244
 1552poe     o2 9983   1.978   2.691   6.017 -0.9553  0.4699 -0.3928
 1552poe    c31 9984   1.993   2.786   5.914 -0.4082 -0.2069 -0.9535
 1553poe    c31 9985   3.614   5.563   2.635  0.4754 -0.4547  0.3393
 1553poe     o2 9986   3.574   5.440   2.579 -0.1618 -0.1689  0.1558
 1553poe    c23 9987   3.666   5.389   2.485  0.0273  0.4693 -0.0141
 1553poe    c23 9988   3.600   5.262   2.429 -0.3953  0.2361  0.9788
 1553poe     o2 9989   3.567   5.166   2.526 -0.0557 -0.3247  0.5474
 1553poe    c23 9990   3.488   5.068   2.462 -0.3761 -0.0301  0.4927
 1553poe    c23 9991   3.408   4.986   2.566 -0.6759  0.1172  0.3792
 1553poe     o2 9992   3.493   4.961   2.676 -0.0163  0.4796 -0.0342
 1553poe    c23 9993   3.426   4.906   2.787  0.3146 -0.2046 -0.1685
 1553poe    c23 9994   3.521   4.921   2.908  0.2099 -0.0686 -0.1024
 1553poe     o2 9995   3.579   5.049   2.900  0.5721 -0.2183  0.1019
 1553poe    c31 9996   3.668   5.072   3.007  0.2953  0.0189  0.2830
 1554poe    c31 9997   0.368   6.768   5.569 -0.3871  0.0784  0.0544
 1554poe     o2 9998   0.407   6.664   5.483  0.0350 -0.0730  0.4195
 1554poe    c23 9999   0.491   6.708   5.379 -0.2511 -0.1036  0.1732
 1554poe    c2310000   0.449   6.631   5.252  0.3254  0.1116 -0.1515
 1554poe     o210001   0.431   6.497   5.292  0.4270  0.2133  0.2423
 1554poe    c2310002   0.402   6.401   5.193  0.0147  0.5780  0.0030
 1554poe    c2310003   0.419   6.266   5.264 -0.3151  0.5776  0.0823
 1554poe     o210004   0.338   6.272   5.379 -0.6638  0.3354 -0.1499
 1554poe    c2310005   0.339   6.142   5.434  0.3366  0.6128  0.5057
 1554poe    c2310006   0.302   6.130   5.583 -0.6144 -0.4323  0.2002
 1554poe     o210007   0.403   6.173   5.672 -0.4303 -0.1451 -0.1498
 1554poe    c3110008   0.372   6.134   5.803  0.2703 -0.2369 -0.0038
 1555poe    c3110009   3.282   4.528   6.855  0.7671  0.0881  0.4285
 1555poe     o210010   3.240   4.660   6.828 -0.0214 -0.2232  0.0768
 1555poe    c2310011   3.115   4.693   6.884 -0.3096 -0.7343 -0.2549
 1555poe    c2310012   3.043   4.795   6.794 -0.2890 -0.0270  0.5171
 1555poe     o210013   3.134   4.894   6.754 -0.1907 -0.2853  0.0952
 1555poe    c2310014   3.074   4.990   6.670 -0.4980 -0.2687  0.3352
 1555poe    c2310015   3.172   5.087   6.603 -0.3126 -0.2369  0.6513
 1555poe     o210016   3.250   5.163   6.693  0.4978  0.0755 -0.2927
 1555poe    c2310017   3.383   5.178   6.650  0.5610  0.0603 -0.1046
 1555poe    c2310018   3.486   5.235   6.749  0.1741 -0.1799  0.4431
 1555poe     o210019   3.548   5.137   6.829  0.6743 -0.7658 -0.6367
 1555poe    c3110020   3.629   5.202   6.924 -0.2519 -0.8097  0.1936
 1556poe    c3110021   0.593   3.556   6.240  0.0083 -0.8622  0.0799
 1556poe     o210022   0.628   3.579   6.375 -0.1531 -0.4270  0.0492
 1556poe    c2310023   0.765   3.598   6.402 -0.2016 -0.7357  0.5253
 1556poe    c2310024   0.845   3.469   6.425  0.5210 -0.4149 -0.1422
 1556poe     o210025   0.829   3.412   6.553  0.0239 -0.0425 -0.0373
 1556poe    c2310026   0.907   3.298   6.579  0.2127  0.1855  0.4205
 1556poe    c2310027   0.919   3.264   6.728 -0.2948 -0.5898  0.2951
 1556poe     o210028   0.794   3.230   6.785 -0.2550 -0.5897  0.3830
 1556poe    c2310029   0.778   3.262   6.921 -0.4327  0.1661  0.1880
 1556poe    c2310030   0.636   3.235   6.975 -0.3601  0.0799  0.3357
 1556poe     o210031   0.532   3.308   6.913 -0.3679  0.1759  0.4604
 1556poe    c3110032   0.419   3.298   6.996 -0.2623  0.2295  0.6115
 1557poe    c3110033   3.753   6.213   4.286  0.2305  0.2894  0.2842
 1557poe     o210034   3.689   6.094   4.243  0.1766  0.4279 -0.0252
 1557poe    c2310035   3.630   6.122   4.119 -0.0832  0.0686  0.0157
 1557poe    c2310036   3.500   6.043   4.097 -0.1854  0.3486 -0.4226
 1557poe     o210037   3.512   5.903   4.103  0.0388  0.3884  0.1717
 1557poe    c2310038   3.407   5.830   4.042  0.1927  0.1137  0.2328
 1557poe    c2310039   3.424   5.682   4.081  0.0056  0.0549  0.0917
 1557poe     o210040   3.406   5.670   4.220 -0.2776 -0.0842  0.0433
 1557poe    c2310041   3.422   5.537   4.264 -0.4928 -0.2186 -0.2836
 1557poe    c2310042   3.396   5.539   4.415  0.1108  0.0303 -0.1807
 1557poe     o210043   3.478   5.627   4.490 -0.1485  0.0755  0.0553
 1557poe    c3110044   3.463   5.589   4.625  0.2740  0.4228  0.2027
 1558poe    c3110045   5.033   6.529   4.028  0.6752 -0.9655 -0.1052
 1558poe     o210046   5.001   6.542   4.164  0.2138 -0.2132 -0.2813
 1558poe    c2310047   5.116   6.525   4.244 -0.0403  0.0585  0.1443
 1558poe    c2310048   5.072   6.480   4.385  0.1600 -0.4074  0.0583
 1558poe     o210049   4.967   6.569   4.415  0.3069 -0.2125 -0.0012
 1558poe    c2310050   4.924   6.538   4.547 -0.2400  0.3867 -0.0340
 1558poe    c2310051   4.834   6.653   4.596 -0.1957  0.4976 -0.2084
 1558poe     o210052   4.718   6.660   4.515 -0.1484  0.2179 -0.3028
 1558poe    c2310053   4.667   6.791   4.515 -0.0446  0.2593 -0.2659
 1558poe    c2310054   4.526   6.783   4.454 -0.0062 -0.2083 -0.2976
 1558poe     o210055   4.514   6.762   4.315 -0.0773  0.0785 -0.3360
 1558poe    c3110056   4.382   6.786   4.270 -0.3806 -0.0001  0.5021
 1559poe    c3110057   5.604   2.523   2.454  0.2778  0.1114 -0.9155
 1559poe     o210058   5.612   2.664   2.446 -0.1077  0.1872 -0.1111
 1559poe    c2310059   5.484   2.714   2.417 -0.1658 -0.1137 -0.3860
 1559poe    c2310060   5.509   2.866   2.408 -0.5845 -0.0670 -0.7797
 1559poe     o210061   5.622   2.878   2.324 -0.3281  0.0427 -0.4165
 1559poe    c2310062   5.644   3.014   2.296 -0.0552  0.0061 -0.3788
 1559poe    c2310063   5.770   3.014   2.208  0.0229 -0.1666 -0.2680
 1559poe     o210064   5.863   2.918   2.253  0.0100 -0.0129  0.0878
 1559poe    c2310065   5.975   2.935   2.169  0.0364  0.1721  0.1588
 1559poe    c2310066   6.087   2.843   2.221 -0.1243 -0.3754 -0.4535
 1559poe     o210067   6.215   2.853   2.163 -0.1476  0.1442 -0.4191
 1559poe    c3110068   6.302   2.755   2.215  0.1045  0.7844  0.3954
 1560poe    c3110069   2.215   6.658   5.464 -0.2794  0.8020 -0.1093
 1560poe     o210070   2.243   6.571   5.571 -0.3550  0.6186 -0.2373
 1560poe    c2310071   2.347   6.634   5.641 -0.6524  0.2049  0.5941
 1560poe    c2310072   2.415   6.533   5.735 -0.1975  0.0346  0.0861
 1560poe     o210073   2.304   6.495   5.813  0.0026  0.0709  0.3948
 1560poe    c2310074   2.331   6.401   5.913  0.1035 -0.4916 -0.1534
 1560poe    c2310075   2.194   6.357   5.969  0.2724 -0.5520  0.2208
 1560poe     o210076   2.119   6.341   5.851  0.3460 -0.4681  0.1622
 1560poe    c2310077   1.983   6.372   5.869  0.2176 -0.5684 -0.5781
 1560poe    c2310078   1.906   6.367   5.736 -0.5657 -0.0156 -0.1565
 1560poe     o210079   1.979   6.437   5.638  0.1117 -0.4778  0.0076
 1560poe    c3110080   1.905   6.436   5.518  0.3593 -0.4957 -0.1441
 1561poe    c3110081   6.325   3.384   6.056 -0.3544 -0.9670  0.5256
 1561poe     o210082   6.191   3.425   6.046  0.0640  0.2092 -0.5797
 1561poe    c2310083   6.183   3.499   5.927  0.0738  0.8226 -0.2033
 1561poe    c2310084   6.039   3.501   5.873 -0.0803 -0.4104  0.1258
 1561poe     o210085   5.938   3.558   5.954 -0.3995 -0.7452 -0.0350
 1561poe    c2310086   5.817   3.583   5.887 -0.2919 -0.0459  0.0198
 1561poe    c2310087   5.713   3.630   5.990  0.2392  0.1607  0.4593
 1561poe     o210088   5.773   3.732   6.067  0.1046  0.1949  0.5205
 1561poe    c2310089   5.690   3.780   6.170 -0.2609  0.3305  0.1656
 1561poe    c2310090   5.783   3.868   6.256  0.0624  0.0673  0.0869
 1561poe     o210091   5.895   3.784   6.277  0.0317 -0.1123 -0.4544
 1561poe    c3110092   5.957   3.794   6.403  0.1530 -0.3500 -0.4952
 1562poe    c3110093   4.796   1.003   6.448 -0.0469 -0.0320  0.3140
 1562poe     o210094   4.804   0.926   6.566  0.4650  0.1217  0.3850
 1562poe    c2310095   4.800   0.786   6.544 -0.2274  0.1416  0.3691
 1562poe    c2310096   4.747   0.715   6.670 -0.3989 -0.5084 -0.0686
 1562poe     o210097   4.611   0.747   6.692 -0.2657  0.3462 -0.4463
 1562poe    c2310098   4.579   0.688   6.816  0.0776 -0.1250 -0.5777
 1562poe    c2310099   4.436   0.634   6.795  0.0155 -0.0799 -0.2754
 1562poe     o210100   4.374   0.718   6.700 -0.0237 -0.0085 -0.1872
 1562poe    c2310101   4.248   0.677   6.651  0.0079  0.0943 -0.3572
 1562poe    c2310102   4.168   0.804   6.619 -0.0967  0.1819  0.2427
 1562poe     o210103   4.252   0.885   6.539  0.3320 -0.2344  0.2642
 1562poe    c3110104   4.211   1.018   6.516  0.0940 -0.3438  0.0514
 1563poe    c3110105   6.664   0.858   4.481 -0.1709  0.2734  0.2277
 1563poe     o210106   6.703   0.769   4.379  0.5282  0.0847  0.6493
 1563poe    c2310107   6.631   0.650   4.358  0.0315  0.5120 -0.1527
 1563poe    c2310108   6.666   0.575   4.228 -0.1469  0.2970 -0.0764
 1563poe     o210109   6.802   0.539   4.240 -0.2439 -0.1519 -0.2939
 1563poe    c2310110   6.861   0.515   4.115 -0.0427 -0.2498 -0.1793
 1563poe    c2310111   6.995   0.442   4.140  0.1137  0.0107 -0.2504
 1563poe     o210112   7.061   0.519   4.238  0.4261 -0.1545 -0.3298
 1563poe    c2310113   7.172   0.449   4.289  0.0826 -0.2537  0.2911
 1563poe    c2310114   7.234   0.530   4.405  0.0989  0.1543  0.0002
 1563poe     o210115   7.125   0.577   4.481  0.2012  0.3220  0.0437
 1563poe    c3110116   7.167   0.639   4.600 -0.1606  0.1747  0.2473
 1564poe    c3110117   2.475   0.044   4.882 -0.2779 -0.0086  0.1646
 1564poe     o210118   2.547   0.079   4.766 -0.3830  0.0445  0.1147
 1564poe    c2310119   2.687   0.067   4.780 -0.4052 -0.4033 -0.0068
 1564poe    c2310120   2.741   0.084   4.637 -0.1679 -0.2908  0.0946
 1564poe     o210121   2.692   0.205   4.584  0.3020  0.0844  0.5061
 1564poe    c2310122   2.753   0.228   4.458 -0.2153  0.1271  0.2610
 1564poe    c2310123   2.711   0.151   4.332 -0.2896 -0.5048  0.6650
 1564poe     o210124   2.570   0.161   4.326 -0.2130  0.6210  0.5138
 1564poe    c2310125   2.549   0.170   4.187  0.1604 -0.4234  0.3827
 1564poe    c2310126   2.400   0.206   4.174  0.3185 -0.0130 -0.3338
 1564poe     o210127   2.327   0.116   4.254 -0.0666  0.2290 -0.4075
 1564poe    c3110128   2.188   0.119   4.230 -0.0683 -0.1919 -0.4516
 1565poe    c3110129   1.093   6.823   0.390 -0.4983  0.7988 -0.5261
 1565poe     o210130   1.150   6.934   0.456  0.0679  0.0716  0.2352
 1565poe    c2310131   1.288   6.915   0.477 -0.0294  0.0959  0.9019
 1565poe    c2310132   1.343   7.006   0.589  0.2551  0.1699  0.7031
 1565poe     o210133   1.361   7.129   0.522  0.1807 -0.0170  0.3387
 1565poe    c2310134   1.424   7.232   0.594 -0.3300  0.2870  0.3593
 1565poe    c2310135   1.424   7.366   0.519  0.4028  0.0517 -0.0730
 1565poe     o210136   1.533   7.364   0.430 -0.0252 -0.0036 -0.6034
 1565poe    c2310137   1.553   7.487   0.364 -0.1191  0.3017 -0.0628
 1565poe    c2310138   1.639   7.585   0.446 -0.0136  0.6314 -0.5652
 1565poe     o210139   1.767   7.537   0.480 -0.2222  0.1852 -0.4048
 1565poe    c3110140   1.859   7.642   0.459  0.0181 -0.0412 -0.4892
 1566poe    c3110141   5.641   1.636   6.729  0.0979 -0.3633 -0.1200
 1566poe     o210142   5.615   1.774   6.712 -0.5545 -0.4268  0.3355
 1566poe    c2310143   5.478   1.807   6.721 -0.3303  0.5997  0.0547
 1566poe    c2310144   5.453   1.931   6.633 -0.0925  0.4662 -0.2065
 1566poe     o210145   5.554   2.022   6.667  0.2633  0.0323 -0.0997
 1566poe    c2310146   5.576   2.111   6.560  0.4028  0.0295 -0.0739
 1566poe    c2310147   5.682   2.214   6.602  0.3727 -0.1431  0.4341
 1566poe     o210148   5.786   2.152   6.673  0.1709 -1.0399 -0.0424
 1566poe    c2310149   5.899   2.236   6.675 -0.4587 -0.1823  0.2306
 1566poe    c2310150   6.018   2.170   6.748 -0.6423 -0.1812  0.5288
 1566poe     o210151   5.980   2.148   6.882 -0.1780  0.1326  0.7137
 1566poe    c3110152   6.097   2.127   6.958  0.2898  0.1060 -0.0117
 1567poe    c3110153   1.527   3.222   3.975 -0.0606  0.0516 -0.4429
 1567poe     o210154   1.631   3.133   4.012 -0.0377  0.3218  0.1523
 1567poe    c2310155   1.716   3.189   4.110 -0.0049  0.2383  0.1709
 1567poe    c2310156   1.823   3.081   4.134  0.1176  0.3877  0.2907
 1567poe     o210157   1.761   2.959   4.168 -0.5030  0.5877 -0.1004
 1567poe    c2310158   1.840   2.845   4.142 -0.4647  0.6638 -0.3188
 1567poe    c2310159   1.746   2.730   4.182  0.0807  0.4814  0.4521
 1567poe     o210160   1.632   2.735   4.100  0.0305 -0.1104  0.4804
 1567poe    c2310161   1.557   2.615   4.105 -0.5945  0.2893  0.8642
 1567poe    c2310162   1.438   2.627   4.007 -0.2637 -0.4020  0.3721
 1567poe     o210163   1.335   2.704   4.064 -0.2288 -0.0522 -0.0375
 1567poe    c3110164   1.225   2.705   3.975 -0.7403  0.4814  0.5970
 1568poe    c3110165   1.278   3.224   6.541  0.2565 -1.1218 -0.1697
 1568poe     o210166   1.197   3.184   6.433 -0.3651 -0.2215 -0.0541
 1568poe    c2310167   1.220   3.046   6.413 -0.0454 -0.2211  0.3015
 1568poe    c2310168   1.161   2.986   6.284  0.2309  0.0056  0.0685
 1568poe     o210169   1.168   2.847   6.260 -0.3006 -0.0075 -0.0211
 1568poe    c2310170   1.117   2.818   6.132 -0.4184  0.3241 -0.0492
 1568poe    c2310171   1.159   2.678   6.083 -0.5784  0.1950  0.1865
 1568poe     o210172   1.132   2.582   6.183  0.2253 -0.3255 -0.0865
 1568poe    c2310173   1.189   2.455   6.163  0.4833 -0.2064 -0.1148
 1568poe    c2310174   1.205   2.377   6.295  0.2646  0.4288  0.2872
 1568poe     o210175   1.258   2.475   6.383 -0.1081  0.7571  0.1492
 1568poe    c3110176   1.307   2.418   6.502  0.6794  0.1730 -0.4418
 1569poe    c3110177   0.692   0.603   3.616 -0.5158 -0.3411 -0.0708
 1569poe     o210178   0.602   0.646   3.516 -0.5146 -0.1461  0.0104
 1569poe    c2310179   0.521   0.756   3.550 -0.2747 -0.0157  0.1628
 1569poe    c2310180   0.387   0.731   3.478 -0.0410  0.1567 -0.3359
 1569poe     o210181   0.430   0.701   3.347  0.3581  0.1063 -0.1938
 1569poe    c2310182   0.318   0.656   3.275  0.2534  0.1733 -0.0729
 1569poe    c2310183   0.353   0.670   3.126 -0.1820  0.3500 -0.1614
 1569poe     o210184   0.462   0.590   3.083 -0.1164  0.0131  0.6241
 1569poe    c2310185   0.480   0.611   2.945 -0.4398 -0.7700  0.4544
 1569poe    c2310186   0.609   0.550   2.887  0.0079  0.4332  0.1459
 1569poe     o210187   0.723   0.599   2.954  0.1628 -0.2204  0.3725
 1569poe    c3110188   0.839   0.540   2.898  0.3932  0.8283 -0.2890
 1570poe    c3110189   2.257   5.875   1.893  0.0911 -0.1762  0.5517
 1570poe     o210190   2.335   5.794   1.809  0.1488  0.0394  0.3957
 1570poe    c2310191   2.438   5.735   1.886  0.5311  0.0175 -0.1250
 1570poe    c2310192   2.550   5.692   1.790  0.3164 -0.3143 -0.2282
 1570poe     o210193   2.483   5.645   1.675 -0.1117  0.0993 -0.1517
 1570poe    c2310194   2.577   5.609   1.576  0.4237  0.3727  0.2501
 1570poe    c2310195   2.506   5.589   1.440 -0.0408 -0.1637  0.5661
 1570poe     o210196   2.421   5.698   1.414  0.2738 -0.1353 -0.3580
 1570poe    c2310197   2.392   5.711   1.276 -0.2958 -0.0341 -0.2297
 1570poe    c2310198   2.274   5.803   1.241  0.2188  0.4495 -0.7098
 1570poe     o210199   2.280   5.924   1.314 -0.4948 -0.1709  0.4087
 1570poe    c3110200   2.238   6.040   1.246  0.3659 -0.1244 -0.0580
 1571poe    c3110201   4.939   2.013   5.626 -0.6465 -0.2979 -0.0573
 1571poe     o210202   4.960   1.923   5.733 -0.5719 -0.0250  0.1615
 1571poe    c2310203   4.984   1.794   5.681  0.9562  0.5589 -0.6412
 1571poe    c2310204   5.030   1.685   5.780 -0.8626  0.0019 -0.3642
 1571poe     o210205   4.956   1.669   5.899  0.1507 -0.1572  0.2556
 1571poe    c2310206   5.025   1.565   5.965  0.0838 -0.3172  0.0765
 1571poe    c2310207   4.951   1.528   6.095 -0.1725 -0.3398 -0.0743
 1571poe     o210208   4.920   1.648   6.162 -0.7610 -0.5768  0.0873
 1571poe    c2310209   4.795   1.625   6.222 -0.5954 -0.4518  0.4813
 1571poe    c2310210   4.765   1.752   6.305 -0.3216  0.0432 -0.1718
 1571poe     o210211   4.813   1.857   6.224 -0.6417  0.3791  0.0756
 1571poe    c3110212   4.812   1.979   6.295 -0.3033  0.2234  0.3495
 1572poe    c3110213   0.089   0.914   1.581 -0.1347  0.0062  0.0886
 1572poe     o210214   0.001   0.808   1.548 -0.1886  0.0222  0.1773
 1572poe    c2310215  -0.119   0.875   1.517 -0.5076 -0.2267  0.8735
 1572poe    c2310216  -0.222   0.792   1.437  0.0257  0.2343 -0.3084
 1572poe     o210217  -0.221   0.665   1.497  0.1726  0.2720 -0.2298
 1572poe    c2310218  -0.278   0.557   1.426  0.2431  0.1326 -0.0762
 1572poe    c2310219  -0.244   0.431   1.508  0.3529 -0.1979 -0.6242
 1572poe     o210220  -0.108   0.455   1.536  0.1724  0.2062 -0.0596
 1572poe    c2310221  -0.050   0.361   1.624 -0.1076  0.1908  0.1098
 1572poe    c2310222   0.093   0.415   1.644 -0.0436  0.0617  0.0000
 1572poe     o210223   0.085   0.554   1.663 -0.3347  0.0780 -0.2295
 1572poe    c3110224   0.171   0.595   1.767  0.0183 -0.1348 -0.4344
 1573poe    c3110225   5.675   4.652   5.041 -0.3516  0.1491  0.1951
 1573poe     o210226   5.659   4.709   4.913 -0.3227 -0.0661  0.0959
 1573poe    c2310227   5.768   4.678   4.830 -0.2175  0.1036  0.1708
 1573poe    c2310228   5.732   4.724   4.687 -0.3155  0.6012  0.3526
 1573poe     o210229   5.699   4.860   4.703 -0.7651  0.4987  0.3081
 1573poe    c2310230   5.658   4.901   4.575 -0.3291 -0.3454 -0.1144
 1573poe    c2310231   5.632   5.052   4.593  0.0075 -0.3394  0.3365
 1573poe     o210232   5.576   5.076   4.720  0.0666  0.2719  0.2511
 1573poe    c2310233   5.574   5.213   4.752  0.4244  0.3364 -0.0075
 1573poe    c2310234   5.468   5.245   4.858  0.6645  0.4569  0.1970
 1573poe     o210235   5.483   5.171   4.977  0.0550  0.1507  0.0837
 1573poe    c3110236   5.353   5.150   5.028 -0.0024  0.1564 -0.0592
 1574poe    c3110237   2.585   4.399   6.369 -0.2330  0.4026 -0.5379
 1574poe     o210238   2.513   4.515   6.401 -0.0974  0.2880  0.1892
 1574poe    c2310239   2.606   4.619   6.423  0.5022 -0.1961 -0.0180
 1574poe    c2310240   2.552   4.731   6.515 -0.1547 -0.3544 -0.2032
 1574poe     o210241   2.439   4.796   6.461  0.5358  0.2709 -0.9150
 1574poe    c2310242   2.412   4.919   6.524 -0.6578 -0.4113 -0.0669
 1574poe    c2310243   2.286   4.988   6.468 -0.6255 -0.5790 -0.3499
 1574poe     o210244   2.230   5.105   6.523  0.1802 -0.3792  0.0551
 1574poe    c2310245   2.303   5.220   6.487 -0.4600  0.0311  0.0451
 1574poe    c2310246   2.228   5.339   6.550 -0.3800 -0.0810  0.3580
 1574poe     o210247   2.107   5.390   6.497 -0.1329  0.2430  0.0960
 1574poe    c3110248   2.049   5.504   6.555 -0.3778  0.1625  0.0099
 1575poe    c3110249   5.029   6.175   6.848 -0.2178  0.1899 -0.0620
 1575poe     o210250   5.073   6.113   6.967 -0.2226 -0.1776 -0.2518
 1575poe    c2310251   5.173   6.015   6.956 -0.2958 -0.3267  0.3785
 1575poe    c2310252   5.205   5.934   7.084 -0.0628 -0.3293  0.3195
 1575poe     o210253   5.091   5.861   7.122 -0.4448  0.1701  0.1549
 1575poe    c2310254   5.119   5.804   7.248  0.1877 -0.7770 -0.3970
 1575poe    c2310255   5.011   5.708   7.299  0.0810 -0.3762  0.1382
 1575poe     o210256   4.896   5.789   7.312  0.0911 -0.3941  0.3557
 1575poe    c2310257   4.816   5.740   7.417  0.1488 -0.1482  0.5143
 1575poe    c2310258   4.688   5.824   7.425 -0.0234 -0.3113 -0.4612
 1575poe     o210259   4.729   5.957   7.402  0.2485 -0.4340 -0.6913
 1575poe    c3110260   4.626   6.049   7.432  0.9156  0.0611  0.1081
 1576poe    c3110261   4.944   6.649   1.707 -0.0444  0.6940 -0.7246
 1576poe     o210262   5.014   6.590   1.600 -0.0822 -0.6509 -0.0291
 1576poe    c2310263   4.961   6.623   1.474  0.2192 -0.0783 -0.0102
 1576poe    c2310264   5.050   6.565   1.362 -0.1377  0.5057 -0.6099
 1576poe     o210265   5.189   6.583   1.381 -0.1444 -0.0237  0.0043
 1576poe    c2310266   5.256   6.542   1.264  0.2816 -1.1038  0.6201
 1576poe    c2310267   5.407   6.538   1.296  0.3685  0.6087  0.5006
 1576poe     o210268   5.449   6.433   1.380 -0.4757  0.0106  0.1920
 1576poe    c2310269   5.590   6.426   1.383 -0.4697 -0.2987 -0.4784
 1576poe    c2310270   5.616   6.344   1.511 -0.6264  0.0675 -0.2087
 1576poe     o210271   5.521   6.352   1.615 -0.3891 -0.5525  0.0622
 1576poe    c3110272   5.557   6.277   1.728  0.4289  0.0388  0.2033
 1577poe    c3110273   1.690   4.091   1.659  0.4434 -0.1560 -0.0157
 1577poe     o210274   1.743   3.963   1.683  0.0538 -0.3235 -0.0440
 1577poe    c2310275   1.657   3.863   1.632 -0.2902 -0.4750  0.8106
 1577poe    c2310276   1.736   3.732   1.611 -0.1535 -0.3067  0.2527
 1577poe     o210277   1.800   3.700   1.732  0.3083  0.2774  0.1669
 1577poe    c2310278   1.914   3.621   1.707 -0.2568 -0.4906 -0.0035
 1577poe    c2310279   1.974   3.589   1.845 -0.1246 -0.5614 -0.0767
 1577poe     o210280   1.996   3.709   1.915  0.4872 -0.6885 -0.0462
 1577poe    c2310281   2.112   3.703   1.995  0.4072 -0.1436  0.1193
 1577poe    c2310282   2.150   3.835   2.063  0.8317 -0.0609 -0.2742
 1577poe     o210283   2.184   3.938   1.973 -0.6101  0.3431 -0.3831
 1577poe    c3110284   2.205   4.047   2.060  0.2385 -0.3468  0.2921
 1578poe    c3110285   0.205   6.114   1.354  0.7197  0.2761 -0.0297
 1578poe     o210286   0.074   6.124   1.303  0.6687  0.4647  0.1403
 1578poe    c2310287   0.049   6.202   1.189 -0.0039 -0.0304 -0.0586
 1578poe    c2310288  -0.101   6.212   1.155  0.0427  0.2027 -0.2049
 1578poe     o210289  -0.144   6.080   1.128 -0.1531  0.1553  0.3168
 1578poe    c2310290  -0.270   6.087   1.064  0.0249 -0.0979 -0.0676
 1578poe    c2310291  -0.288   5.957   0.984  0.1681 -0.1783  0.0286
 1578poe     o210292  -0.236   5.858   1.070 -0.2300 -0.2132  0.2321
 1578poe    c2310293  -0.239   5.735   1.000  0.0041  0.0480 -0.2416
 1578poe    c2310294  -0.207   5.615   1.091  0.3754  0.4003  0.0973
 1578poe     o210295  -0.071   5.638   1.118  0.4992  0.2441 -0.3856
 1578poe    c3110296  -0.023   5.510   1.156 -0.0762  0.0897 -0.1750
 1579poe    c3110297   5.986   6.126   0.187 -0.8506  0.0826 -0.6215
 1579poe     o210298   5.986   5.986   0.198 -0.3430  0.0953 -0.4088
 1579poe    c2310299   5.852   5.943   0.214 -0.3268 -0.0217 -0.5781
 1579poe    c2310300   5.838   5.792   0.240  0.1222  0.0250 -0.0203
 1579poe     o210301   5.892   5.715   0.135 -0.1859  0.1549 -0.2770
 1579poe    c2310302   5.881   5.579   0.172  0.4731  0.0983 -0.2864
 1579poe    c2310303   5.945   5.499   0.056 -0.0126 -0.0152 -0.4784
 1579poe     o210304   6.084   5.524   0.046  0.1326 -0.4550  0.3498
 1579poe    c2310305   6.144   5.424  -0.033 -0.1100 -0.5930  0.3350
 1579poe    c2310306   6.291   5.470  -0.023 -0.1522 -0.1556 -0.8252
 1579poe     o210307   6.289   5.610  -0.038  0.0688 -0.1061 -0.4290
 1579poe    c3110308   6.421   5.659  -0.041 -0.1245  0.4516  0.0416
 1580poe    c3110309   2.552   6.243   5.247 -0.0703 -0.1779  0.9182
 1580poe     o210310   2.654   6.194   5.331  0.3076 -0.8323  0.1054
 1580poe    c2310311   2.590   6.186   5.457 -0.0472 -0.8159 -0.0736
 1580poe    c2310312   2.677   6.095   5.546 -0.1099 -0.5331  0.2777
 1580poe     o210313   2.811   6.136   5.565 -0.0922 -0.3391 -0.2338
 1580poe    c2310314   2.853   6.088   5.691 -0.2037  0.3462  0.0738
 1580poe    c2310315   3.006   6.099   5.706 -0.1792  0.0309  0.0650
 1580poe     o210316   3.021   6.234   5.671 -0.5554  0.1560  0.3787
 1580poe    c2310317   3.154   6.263   5.634 -0.5370 -0.1532  0.1999
 1580poe    c2310318   3.169   6.416   5.621 -0.4892 -0.1540  0.2382
 1580poe     o210319   3.063   6.454   5.536 -0.3217  0.0989  0.1422
 1580poe    c3110320   3.083   6.585   5.487  0.7357 -0.3541 -0.6687
 1581poe    c3110321   5.628   6.136   1.187 -0.0521 -0.3201  0.0170
 1581poe     o210322   5.549   6.193   1.085  0.4806  0.1005 -0.1687
 1581poe    c2310323   5.509   6.102   0.985  0.4181  0.0541 -0.1026
 1581poe    c2310324   5.360   6.126   0.956  0.4996 -0.0113 -0.5802
 1581poe     o210325   5.344   6.253   0.895 -0.4732  0.3151  0.3141
 1581poe    c2310326   5.209   6.292   0.894 -0.4726  0.3163 -0.3706
 1581poe    c2310327   5.192   6.416   0.805 -0.1791  0.4647 -0.2227
 1581poe     o210328   5.275   6.520   0.850  0.1713 -0.1395  0.5396
 1581poe    c2310329   5.266   6.637   0.771  0.4460 -0.1101  0.5493
 1581poe    c2310330   5.357   6.731   0.852 -0.0380  0.3446  0.5731
 1581poe     o210331   5.481   6.670   0.881  0.0843  0.2406 -0.1520
 1581poe    c3110332   5.569   6.772   0.924  0.3261  0.0310 -0.1482
 1582poe    c3110333   5.737   3.644   6.679 -0.0495  0.0135 -0.3373
 1582poe     o210334   5.801   3.524   6.715 -0.2330 -0.1114 -0.4255
 1582poe    c2310335   5.930   3.546   6.768 -0.2646  0.0351 -0.4108
 1582poe    c2310336   6.015   3.420   6.787 -0.2163  0.2267  0.7352
 1582poe     o210337   6.005   3.358   6.660  0.3572  0.3974  0.6012
 1582poe    c2310338   6.098   3.254   6.638 -0.1171  0.0916  0.0168
 1582poe    c2310339   6.075   3.231   6.488  0.1857  0.1291 -0.0350
 1582poe     o210340   5.938   3.227   6.456  0.1143  0.3428  0.2384
 1582poe    c2310341   5.934   3.175   6.325 -0.2554  0.4748  0.1959
 1582poe    c2310342   5.794   3.133   6.276  0.0938 -0.3463 -0.1134
 1582poe     o210343   5.711   3.244   6.249  0.1673 -0.2987 -0.1452
 1582poe    c3110344   5.613   3.231   6.148 -0.5316 -0.2016  0.5078
 1583poe    c3110345   0.359   4.532   3.805  0.2737  0.0898  0.2903
 1583poe     o210346   0.319   4.419   3.731 -0.0193  0.0766  0.4690
 1583poe    c2310347   0.179   4.406   3.736 -0.0711  0.5020  0.2347
 1583poe    c2310348   0.136   4.268   3.680  0.6353  0.3760 -0.0069
 1583poe     o210349   0.150   4.243   3.542  0.2464  0.0727  0.0080
 1583poe    c2310350   0.110   4.112   3.507  1.0431 -0.0921 -0.3062
 1583poe    c2310351   0.141   4.089   3.358 -0.0812  0.5332 -0.6525
 1583poe     o210352   0.271   4.137   3.335  0.0739  0.5476  0.1968
 1583poe    c2310353   0.305   4.110   3.200  0.1869  0.6791  0.1981
 1583poe    c2310354   0.413   4.213   3.163  0.4396  0.2107 -0.3850
 1583poe     o210355   0.364   4.338   3.208 -0.1815 -0.0134 -0.4343
 1583poe    c3110356   0.427   4.446   3.144  0.3025 -0.4577 -0.7106
 1584poe    c3110357   3.272   3.666   2.130 -0.0032 -0.1023 -0.0624
 1584poe     o210358   3.325   3.721   2.012 -0.0325 -0.2040 -0.1229
 1584poe    c2310359   3.343   3.628   1.907  0.3270 -0.1182 -0.1395
 1584poe    c2310360   3.383   3.711   1.784 -0.3154 -0.0404 -0.3007
 1584poe     o210361   3.289   3.812   1.754 -0.1981  0.2348  0.2501
 1584poe    c2310362   3.286   3.837   1.616  0.0014 -0.0052  0.2029
 1584poe    c2310363   3.186   3.952   1.599 -0.3774 -0.3848 -0.1724
 1584poe     o210364   3.251   4.058   1.665 -0.4349  0.0155 -0.7488
 1584poe    c2310365   3.172   4.174   1.676 -0.0807  0.1992 -0.0655
 1584poe    c2310366   3.273   4.276   1.732  0.2052 -0.0433 -0.1398
 1584poe     o210367   3.351   4.215   1.833 -0.1464  0.0130  0.1697
 1584poe    c3110368   3.410   4.317   1.910  0.0063 -0.2328  0.3763
 1585poe    c3110369   1.451   0.963   3.639  0.1309 -0.5964  0.4364
 1585poe     o210370   1.325   1.019   3.607  0.4849 -0.1215 -0.1460
 1585poe    c2310371   1.324   1.069   3.475  0.0110  0.5302  0.1039
 1585poe    c2310372   1.173   1.068   3.441  0.1018  0.1623 -0.2939
 1585poe     o210373   1.095   1.116   3.547  0.4682  0.0012  0.0532
 1585poe    c2310374   0.959   1.100   3.514  0.4546 -0.1663  0.1886
 1585poe    c2310375   0.878   1.160   3.630  0.3804  0.2187 -0.0619
 1585poe     o210376   0.903   1.075   3.739 -0.8081 -0.1171 -0.0299
 1585poe    c2310377   0.803   1.095   3.836 -0.4901  0.2659  0.2239
 1585poe    c2310378   0.853   1.035   3.969 -0.4105 -0.1586  0.0004
 1585poe     o210379   0.904   0.907   3.936 -0.9346 -0.3193 -0.1968
 1585poe    c3110380   0.822   0.798   3.972 -0.3680 -0.5589  0.3866
 1586poe    c3110381   5.550   0.099   1.447  0.5551 -0.0659  0.2862
 1586poe     o210382   5.602   0.230   1.460  0.0634  0.1581  0.0112
 1586poe    c2310383   5.629   0.244   1.598 -0.2270  0.0195  0.0841
 1586poe    c2310384   5.700   0.379   1.622  0.1397 -0.1580  0.0145
 1586poe     o210385   5.609   0.487   1.621  0.0009 -0.2688  0.5418
 1586poe    c2310386   5.678   0.608   1.599 -0.2390 -0.1634  0.3664
 1586poe    c2310387   5.591   0.720   1.538  0.4169 -0.0682 -0.4118
 1586poe     o210388   5.533   0.690   1.414  0.3585  0.5820 -0.5427
 1586poe    c2310389   5.441   0.792   1.382  0.0113  0.5293  0.2881
 1586poe    c2310390   5.358   0.753   1.259  0.2904 -0.3717  0.3759
 1586poe     o210391   5.320   0.622   1.294 -0.3004 -0.1935  0.4224
 1586poe    c3110392   5.197   0.594   1.231  0.1926 -0.2062 -0.5527
 1587poe    c3110393   0.797   0.241   6.522 -0.3445  0.4905 -0.2814
 1587poe     o210394   0.771   0.358   6.596  0.0138  0.1101  0.4523
 1587poe    c2310395   0.640   0.350   6.648 -0.3097 -0.0334 -0.3646
 1587poe    c2310396   0.615   0.493   6.699 -0.1897 -0.3060  0.4853
 1587poe     o210397   0.712   0.506   6.801 -0.1717  0.3052  0.3968
 1587poe    c2310398   0.702   0.630   6.867  0.0642  0.4511  0.1555
 1587poe    c2310399   0.830   0.653   6.950  0.2321 -0.3763  0.1313
 1587poe     o210400   0.937   0.588   6.886  0.0564  0.0072 -0.5607
 1587poe    c2310401   1.056   0.644   6.937 -0.1402 -0.4156  0.3876
 1587poe    c2310402   1.196   0.581   6.929  0.0982  0.0724  0.6799
 1587poe     o210403   1.216   0.477   7.022 -0.2730 -0.1260  0.5380
 1587poe    c3110404   1.346   0.423   7.018 -0.2783 -0.0944 -0.1848
 1588poe    c3110405   0.505   3.325   2.460 -0.8734  0.4467  0.3648
 1588poe     o210406   0.527   3.407   2.572 -0.1185 -0.0884  0.6215
 1588poe    c2310407   0.577   3.537   2.546 -0.5628 -0.0020  0.1844
 1588poe    c2310408   0.568   3.604   2.684  0.3122  0.0334  0.2268
 1588poe     o210409   0.618   3.516   2.783  0.0563  0.1157  0.4292
 1588poe    c2310410   0.607   3.584   2.906 -0.8081  0.0439  0.3992
 1588poe    c2310411   0.645   3.490   3.021  0.3104  0.1529  0.1289
 1588poe     o210412   0.606   3.357   2.998  0.3397  0.2004 -0.2002
 1588poe    c2310413   0.609   3.291   3.123 -0.1212  0.0236 -0.2801
 1588poe    c2310414   0.561   3.146   3.104 -0.2013 -0.0795  0.6691
 1588poe     o210415   0.433   3.137   3.046  0.0917 -0.0397  0.0036
 1588poe    c3110416   0.376   3.011   3.076 -0.2839  0.2215  0.4150
 1589poe    c3110417   1.129   0.709   4.586 -0.4613 -0.3033  0.1116
 1589poe     o210418   1.176   0.841   4.600 -0.1550 -0.4411  0.4037
 1589poe    c2310419   1.301   0.872   4.543 -0.5581  0.5672  0.0410
 1589poe    c2310420   1.372   1.000   4.591  0.3654  0.0199  0.1589
 1589poe     o210421   1.266   1.093   4.589  0.0038 -0.3813  0.4273
 1589poe    c2310422   1.321   1.221   4.610  0.4306 -0.4303 -0.3571
 1589poe    c2310423   1.205   1.311   4.564  0.2983 -0.6871 -0.5317
 1589poe     o210424   1.088   1.297   4.642  0.2345  0.4410 -0.4084
 1589poe    c2310425   0.994   1.393   4.599  0.1702  0.4349 -0.2821
 1589poe    c2310426   0.850   1.348   4.632  0.3157  0.1290 -0.0629
 1589poe     o210427   0.822   1.242   4.545  0.2939  0.4277 -0.4226
 1589poe    c3110428   0.685   1.239   4.509  0.2619  0.0899 -0.2824
 1590poe    c3110429   0.314   0.421   2.210  0.3825 -0.1869  0.7478
 1590poe     o210430   0.405   0.324   2.257  0.5791 -0.0291  0.6878
 1590poe    c2310431   0.532   0.387   2.258  0.5353  0.0908 -0.3534
 1590poe    c2310432   0.630   0.270   2.279  0.3962  0.0490  0.0631
 1590poe     o210433   0.558   0.197   2.376  0.3698  0.5253  0.4063
 1590poe    c2310434   0.650   0.130   2.460  0.0330 -0.6331 -0.1304
 1590poe    c2310435   0.564   0.065   2.569 -0.0715  0.0532  0.2059
 1590poe     o210436   0.517  -0.048   2.499 -0.1348  0.3913 -0.3034
 1590poe    c2310437   0.439  -0.139   2.574  0.5744 -0.0221 -0.0534
 1590poe    c2310438   0.332  -0.208   2.487 -0.0027  0.2506  0.4380
 1590poe     o210439   0.221  -0.128   2.456 -0.0728  0.0293  0.1141
 1590poe    c3110440   0.143  -0.187   2.354  0.2227 -0.6255  0.2661
 1591poe    c3110441   5.598   3.090   3.528  0.0205  0.6603 -0.6587
 1591poe     o210442   5.593   3.043   3.395  0.4369 -0.1905 -0.3791
 1591poe    c2310443   5.507   2.931   3.384 -0.3362  0.3519  0.0492
 1591poe    c2310444   5.502   2.882   3.238 -0.1303 -0.0176  0.1672
 1591poe     o210445   5.624   2.834   3.187 -0.0442 -0.2912  0.6260
 1591poe    c2310446   5.599   2.811   3.050 -0.3447 -0.1301  0.6539
 1591poe    c2310447   5.723   2.732   3.003 -0.3252  0.1268  0.2767
 1591poe     o210448   5.842   2.799   3.036 -0.1517  0.4489 -0.9405
 1591poe    c2310449   5.961   2.726   3.015  0.0012  0.1632  0.7960
 1591poe    c2310450   6.069   2.827   3.058  0.0774  0.2174  0.4745
 1591poe     o210451   6.030   2.891   3.177 -0.1707  0.0885  0.4639
 1591poe    c3110452   6.116   2.992   3.226  0.2424  0.2271 -0.5259
 1592poe    c3110453   4.868   1.236   2.904  0.0660 -0.0200 -0.1221
 1592poe     o210454   4.817   1.352   2.842  0.2376 -0.2078 -0.6200
 1592poe    c2310455   4.727   1.419   2.928  0.6079  0.0631 -0.4398
 1592poe    c2310456   4.697   1.562   2.881  0.2778  0.0848 -0.1673
 1592poe     o210457   4.719   1.544   2.743  0.3652 -0.0182 -0.1393
 1592poe    c2310458   4.676   1.650   2.661  0.1564 -0.1387 -0.1857
 1592poe    c2310459   4.659   1.591   2.519  0.0457  0.4637 -0.4239
 1592poe     o210460   4.759   1.493   2.502 -0.3823 -0.1668  0.6099
 1592poe    c2310461   4.756   1.466   2.364  0.3114  0.7465  0.4052
 1592poe    c2310462   4.891   1.425   2.301 -0.4842 -0.3483 -0.6312
 1592poe     o210463   4.941   1.319   2.379 -0.1302  0.2496 -0.0357
 1592poe    c3110464   5.030   1.240   2.303  0.2689  0.1216  0.5614
 1593poe    c3110465   0.309   5.161   4.393 -0.1123 -0.3883 -0.0719
 1593poe     o210466   0.433   5.227   4.391 -0.3048 -0.0242 -0.1737
 1593poe    c2310467   0.535   5.134   4.422  0.3572  0.5829 -0.5058
 1593poe    c2310468   0.672   5.192   4.383  0.5852  0.1864 -0.3035
 1593poe     o210469   0.673   5.324   4.435  0.0410  0.1013 -0.0759
 1593poe    c2310470   0.804   5.372   4.455 -0.0800  0.3151  0.2088
 1593poe    c2310471   0.844   5.483   4.356 -0.0279  0.0835 -0.0317
 1593poe     o210472   0.748   5.586   4.355 -0.2142 -0.0881  0.1173
 1593poe    c2310473   0.772   5.667   4.242 -0.4806 -0.1492  0.0149
 1593poe    c2310474   0.662   5.771   4.216 -0.0578  0.3506  0.2001
 1593poe     o210475   0.536   5.711   4.194  0.1459 -0.3533  0.9378
 1593poe    c3110476   0.435   5.801   4.156  0.5122 -0.3538 -0.0648
 1594poe    c3110477   4.582   1.813   4.254 -0.1438 -0.3141 -0.2603
 1594poe     o210478   4.607   1.716   4.155 -0.0567 -0.5350 -0.0229
 1594poe    c2310479   4.748   1.707   4.153  0.0000  0.2813 -0.1351
 1594poe    c2310480   4.771   1.609   4.036 -0.1026  0.4880 -0.3299
 1594poe     o210481   4.744   1.667   3.911  0.2737  0.1925 -0.5481
 1594poe    c2310482   4.783   1.586   3.803  0.6707 -0.3183 -0.0258
 1594poe    c2310483   4.749   1.647   3.665 -0.4078 -0.5842  0.1151
 1594poe     o210484   4.612   1.676   3.653 -0.4115 -0.4971  0.3558
 1594poe    c2310485   4.579   1.717   3.522 -0.1064  0.0789  0.4556
 1594poe    c2310486   4.434   1.769   3.525 -0.3174 -0.4476 -0.3030
 1594poe     o210487   4.408   1.822   3.653  0.1964  0.0430 -0.3981
 1594poe    c3110488   4.283   1.884   3.670  0.0809 -0.1977 -0.3734
 1595poe    c3110489   3.780   1.804   6.774  1.0386 -0.3549  0.3122
 1595poe     o210490   3.836   1.795   6.645 -0.1276 -0.0821 -0.2225
 1595poe    c2310491   3.731   1.763   6.556 -0.0962 -0.2372 -0.2033
 1595poe    c2310492   3.793   1.694   6.433  0.0618 -0.3411 -0.0654
 1595poe     o210493   3.918   1.759   6.425 -0.3164  0.3829 -0.2021
 1595poe    c2310494   3.993   1.713   6.314  0.0574  0.1591  0.1400
 1595poe    c2310495   4.113   1.807   6.327  0.1539  0.0399  0.1093
 1595poe     o210496   4.162   1.817   6.459 -0.1586  0.4232  0.1974
 1595poe    c2310497   4.286   1.881   6.476  0.2742 -0.3230 -0.1195
 1595poe    c2310498   4.371   1.835   6.596 -0.0893 -0.1368  0.2116
 1595poe     o210499   4.305   1.825   6.720 -0.1620  0.4526  0.2242
 1595poe    c3110500   4.391   1.778   6.822 -0.4124 -0.3813  0.0647
 1596poe    c3110501   2.479   4.834   3.005  0.3556  0.1497 -0.4398
 1596poe     o210502   2.505   4.888   3.133  0.1852  0.1314 -0.3974
 1596poe    c2310503   2.581   4.793   3.204 -0.2714  0.0103 -0.0629
 1596poe    c2310504   2.521   4.799   3.346  0.4380 -0.0926  0.2503
 1596poe     o210505   2.529   4.935   3.384 -0.1680 -0.1080  0.4452
 1596poe    c2310506   2.493   4.954   3.518  0.0174  0.0087  0.4784
 1596poe    c2310507   2.548   5.095   3.550  0.1622  0.1671 -0.4419
 1596poe     o210508   2.496   5.188   3.459 -0.0607  0.5957  0.1161
 1596poe    c2310509   2.526   5.323   3.485 -0.4241  0.6393  0.3241
 1596poe    c2310510   2.418   5.417   3.429 -0.0104  0.6180 -0.5344
 1596poe     o210511   2.416   5.406   3.289  0.4603  0.0784 -0.5009
 1596poe    c3110512   2.375   5.526   3.227 -0.4630 -0.1398 -0.3262
 1597poe    c3110513   3.202   5.627   0.994  0.5172  0.3373 -0.2728
 1597poe     o210514   3.191   5.487   1.010 -0.1939  0.4075 -0.1098
 1597poe    c2310515   3.064   5.451   1.061 -0.0598  0.1722  0.0582
 1597poe    c2310516   3.065   5.298   1.074 -0.2277  0.1066 -0.6346
 1597poe     o210517   3.188   5.257   1.129 -0.4727  0.5452  0.2678
 1597poe    c2310518   3.208   5.118   1.120 -0.1451  0.5759  0.4906
 1597poe    c2310519   3.343   5.083   1.185 -0.1644 -0.1985  0.1284
 1597poe     o210520   3.435   5.186   1.159 -0.0278 -0.3491  0.0111
 1597poe    c2310521   3.565   5.142   1.191  0.1879  0.0060 -0.3620
 1597poe    c2310522   3.670   5.249   1.155  0.3873 -0.0368  0.0927
 1597poe     o210523   3.672   5.284   1.019  0.0835  0.2389  0.1589
 1597poe    c3110524   3.796   5.349   1.001  0.1450  0.1289  0.1895
 1598poe    c3110525   6.524   3.058   2.314 -0.3256  0.0776  0.2769
 1598poe     o210526   6.524   3.179   2.243  0.4098 -0.1055 -0.0454
 1598poe    c2310527   6.402   3.239   2.281  0.4550 -0.0861  0.0714
 1598poe    c2310528   6.389   3.381   2.223 -0.4397 -0.1707  0.0505
 1598poe     o210529   6.494   3.471   2.254 -0.5576 -0.0758  0.1768
 1598poe    c2310530   6.493   3.590   2.178  0.4320 -0.3334 -0.2546
 1598poe    c2310531   6.592   3.692   2.236  0.0239 -0.2813  0.3628
 1598poe     o210532   6.710   3.614   2.243  0.1946 -0.0801 -0.2235
 1598poe    c2310533   6.806   3.692   2.310  0.1314  0.2827 -0.5504
 1598poe    c2310534   6.935   3.609   2.324 -0.2433 -0.2347 -0.1314
 1598poe     o210535   6.894   3.476   2.351 -0.2378 -0.1579  0.2551
 1598poe    c3110536   6.996   3.388   2.389 -0.3663 -0.1966  0.5147
 1599poe    c3110537   2.973   2.014   2.319 -0.6078 -0.0533  0.2379
 1599poe     o210538   3.017   1.883   2.287  0.0172  0.2507 -0.1670
 1599poe    c2310539   3.147   1.853   2.331 -0.1736 -0.1519  0.1271
 1599poe    c2310540   3.186   1.704   2.323 -0.0791 -0.1133 -0.1522
 1599poe     o210541   3.144   1.671   2.193 -0.3027 -0.5901  0.0395
 1599poe    c2310542   3.175   1.537   2.159 -0.2564 -0.6019  0.1268
 1599poe    c2310543   3.129   1.493   2.019 -0.0149 -0.0147 -0.1433
 1599poe     o210544   2.989   1.489   2.031  0.0069  0.4856  0.2790
 1599poe    c2310545   2.927   1.484   1.905 -0.1840 -0.7060  0.4053
 1599poe    c2310546   2.775   1.465   1.923 -0.2169 -0.5725  0.2687
 1599poe     o210547   2.712   1.563   2.003  0.1307 -0.2113  0.1033
 1599poe    c3110548   2.572   1.548   1.999  0.0993  0.1368 -0.1500
 1600poe    c3110549   1.913   4.522   2.658  0.0659  0.1075 -0.4953
 1600poe     o210550   1.842   4.529   2.780  0.6474 -0.4823 -0.1164
 1600poe    c2310551   1.765   4.644   2.806  0.9591 -0.2302 -0.2952
 1600poe    c2310552   1.814   4.790   2.796 -0.3992  0.2882  0.3581
 1600poe     o210553   1.910   4.814   2.896 -0.0586  0.2622  0.0378
 1600poe    c2310554   1.936   4.953   2.900 -0.4513  0.3176  0.7606
 1600poe    c2310555   2.032   4.994   3.013 -0.1564 -0.6661  0.8763
 1600poe     o210556   1.985   4.987   3.146 -0.8332 -0.0583  0.6736
 1600poe    c2310557   2.093   5.006   3.235 -0.1728 -0.3512 -0.0509
 1600poe    c2310558   2.035   4.971   3.373 -0.2552  0.2189  0.0636
 1600poe     o210559   1.995   4.836   3.385 -0.0460  0.1976  0.5534
 1600poe    c3110560   1.950   4.810   3.516 -0.1427  0.2943  0.5389
 1601poe    c3110561   3.397   1.325   2.918  0.2336 -0.2866  0.1670
 1601poe     o210562   3.410   1.268   2.790 -0.2947 -0.4368  0.1776
 1601poe    c2310563   3.521   1.182   2.794 -0.0958 -0.1891  0.0163
 1601poe    c2310564   3.563   1.134   2.654 -0.0642  0.0862 -0.0700
 1601poe     o210565   3.468   1.063   2.578 -0.3035 -0.1023  0.4016
 1601poe    c2310566   3.422   0.943   2.635  0.2708 -0.2843  0.4852
 1601poe    c2310567   3.296   0.896   2.559  0.5195  0.2061 -0.2393
 1601poe     o210568   3.195   0.992   2.537  0.8279  0.4754 -0.4881
 1601poe    c2310569   3.098   0.937   2.452  0.2694  0.1579  0.3433
 1601poe    c2310570   2.978   1.033   2.450  0.0892 -0.0639  0.4558
 1601poe     o210571   3.026   1.166   2.449  0.2784 -0.1359 -0.1513
 1601poe    c3110572   2.924   1.254   2.409  0.3569 -0.0524 -0.1670
 1602poe    c3110573   1.331   6.257   5.520  0.2004  0.0209 -0.6537
 1602poe     o210574   1.327   6.141   5.600  0.1102  0.0633 -0.5950
 1602poe    c2310575   1.418   6.037   5.569 -0.1657 -0.3150 -0.1418
 1602poe    c2310576   1.394   5.921   5.667  0.5021 -0.2364  0.1208
 1602poe     o210577   1.292   5.836   5.620  0.3031  0.1403 -0.1360
 1602poe    c2310578   1.239   5.748   5.717  0.4134 -0.0666 -0.2605
 1602poe    c2310579   1.104   5.689   5.672  0.0137  0.4374  0.2496
 1602poe     o210580   1.015   5.794   5.641 -0.3634 -0.0109 -0.2077
 1602poe    c2310581   0.880   5.757   5.621 -0.2661 -0.4830  0.0018
 1602poe    c2310582   0.793   5.876   5.664  0.1132 -0.2082  0.0084
 1602poe     o210583   0.846   5.991   5.602 -0.0226 -0.1482  0.0039
 1602poe    c3110584   0.751   6.095   5.600  0.7260  0.5421 -0.5023
 1603poe    c3110585   0.015   4.065   2.159  0.3685  0.0183 -0.0897
 1603poe     o210586  -0.113   4.025   2.203  0.4151  0.2563  0.2589
 1603poe    c2310587  -0.216   4.054   2.111  0.3261  0.3227  0.3794
 1603poe    c2310588  -0.358   4.032   2.167  0.1744  0.4212  0.0364
 1603poe     o210589  -0.377   4.113   2.281 -0.1293  0.1929  0.1518
 1603poe    c2310590  -0.508   4.107   2.333 -0.3115  0.3418 -0.2855
 1603poe    c2310591  -0.528   4.207   2.448  0.2552  0.3688 -0.2062
 1603poe     o210592  -0.407   4.204   2.520  0.1107  0.6693  0.0482
 1603poe    c2310593  -0.407   4.318   2.603  0.4243  0.8704 -0.2249
 1603poe    c2310594  -0.302   4.295   2.714 -0.1542  0.3462  0.2177
 1603poe     o210595  -0.179   4.277   2.649 -0.2118  0.3802  0.0990
 1603poe    c3110596  -0.069   4.285   2.737 -0.2725  0.1091  0.2020
 1604poe    c3110597   2.606   2.756   2.569  0.2651 -0.2913  0.8108
 1604poe     o210598   2.623   2.895   2.557  0.0933 -0.3419 -0.1148
 1604poe    c2310599   2.621   2.948   2.427  0.4355  0.3350  0.1484
 1604poe    c2310600   2.635   3.100   2.449 -0.1894  0.4773 -0.3884
 1604poe     o210601   2.531   3.128   2.539 -0.0516 -0.6713  0.1489
 1604poe    c2310602   2.512   3.266   2.566 -0.4700 -0.6357 -0.3077
 1604poe    c2310603   2.393   3.271   2.664 -0.1259  0.3880  0.0658
 1604poe     o210604   2.433   3.204   2.781  0.4723 -0.0624 -0.3903
 1604poe    c2310605   2.373   3.265   2.893  0.0884 -0.0021 -0.6278
 1604poe    c2310606   2.386   3.171   3.014  0.2476  0.6452 -0.1376
 1604poe     o210607   2.523   3.157   3.044  0.2011  0.7630  0.1356
 1604poe    c3110608   2.526   3.103   3.174 -0.5250 -0.5892 -0.3861
 1605poe    c3110609   3.372   2.692   5.534  0.0067 -0.3169 -0.2940
 1605poe     o210610   3.338   2.629   5.655 -0.2038  0.0273 -0.1719
 1605poe    c2310611   3.448   2.558   5.709 -0.0632  0.1995 -0.2335
 1605poe    c2310612   3.391   2.463   5.816 -0.1714  0.3871 -0.1251
 1605poe     o210613   3.306   2.539   5.899  0.0532  0.0329  0.4311
 1605poe    c2310614   3.277   2.466   6.016 -0.5696 -0.5195 -0.0620
 1605poe    c2310615   3.174   2.555   6.088  0.3713  0.5175  0.0350
 1605poe     o210616   3.059   2.579   6.011  0.2690 -0.1418 -0.0259
 1605poe    c2310617   2.959   2.656   6.074  0.1361 -0.4141  0.0962
 1605poe    c2310618   2.863   2.733   5.981  0.3865 -0.1094  0.0874
 1605poe     o210619   2.934   2.828   5.906 -0.1546  0.3390  0.1315
 1605poe    c3110620   2.842   2.883   5.814 -0.4908 -0.0617  0.2256
 1606poe    c3110621   4.230   3.695   0.810 -0.4174  0.3866  0.3527
 1606poe     o210622   4.181   3.632   0.694  0.4559  0.1594  0.0984
 1606poe    c2310623   4.281   3.569   0.616  0.1922  0.1610 -0.2439
 1606poe    c2310624   4.291   3.649   0.485  0.0647  0.3843 -0.1164
 1606poe     o210625   4.167   3.658   0.418 -0.1877 -0.4288  0.2228
 1606poe    c2310626   4.129   3.552   0.333 -0.1044  0.2789 -0.7283
 1606poe    c2310627   3.975   3.554   0.340 -0.0746  0.3144  0.1266
 1606poe     o210628   3.934   3.543   0.474 -0.1501  0.7012  0.1341
 1606poe    c2310629   3.800   3.505   0.495  0.1013 -0.3870 -0.1723
 1606poe    c2310630   3.790   3.509   0.649  0.3654  0.0293 -0.1631
 1606poe     o210631   3.887   3.599   0.698 -0.3458  0.7959 -0.1399
 1606poe    c3110632   3.846   3.646   0.824 -0.6243 -0.6704  0.3421
 1607poe    c3110633   6.486   0.462   5.304 -0.0685 -0.3267  0.0040
 1607poe     o210634   6.441   0.329   5.310 -0.0848 -0.3606 -0.7484
 1607poe    c2310635   6.300   0.324   5.300 -0.2171  0.0743  0.7233
 1607poe    c2310636   6.260   0.182   5.343 -0.2232 -0.0857  0.1881
 1607poe     o210637   6.363   0.103   5.288  0.3210  0.0647  0.9825
 1607poe    c2310638   6.348  -0.029   5.336  0.5710 -0.3052  0.0652
 1607poe    c2310639   6.455  -0.125   5.281  0.3400 -0.7067  0.3109
 1607poe     o210640   6.582  -0.071   5.312 -0.0462  0.4778 -0.1031
 1607poe    c2310641   6.680  -0.147   5.244 -0.0757  0.2638  0.0927
 1607poe    c2310642   6.818  -0.095   5.286  0.1390 -0.1374 -0.1098
 1607poe     o210643   6.836   0.045   5.280 -0.0652 -0.1012  0.1052
 1607poe    c3110644   6.975   0.068   5.285 -0.0146 -0.0651 -1.0179
 1608poe    c3110645   3.729   0.236   0.158  0.1722 -0.5963  0.0108
 1608poe     o210646   3.778   0.198   0.285  0.0275  0.0751  0.2707
 1608poe    c2310647   3.712   0.095   0.354 -0.1209 -0.1669 -0.2292
 1608poe    c2310648   3.825   0.004   0.407  0.1000  0.2024 -0.0668
 1608poe     o210649   3.914   0.069   0.495  0.5400  0.2970 -0.5772
 1608poe    c2310650   4.004  -0.033   0.534  0.0717  0.0317 -0.1775
 1608poe    c2310651   4.097   0.020   0.645 -0.3537  0.2076  0.0973
 1608poe     o210652   4.160   0.131   0.585 -0.2091  0.2385  0.3049
 1608poe    c2310653   4.277   0.177   0.649 -0.0860  0.3853 -0.0254
 1608poe    c2310654   4.289   0.327   0.617 -0.4880  0.3888 -0.1630
 1608poe     o210655   4.165   0.384   0.651 -0.5549  0.2133 -0.1159
 1608poe    c3110656   4.160   0.524   0.664  0.0371  0.1835  0.4770
 1609poe    c3110657   3.999   6.406   6.137  0.5547  0.1272  0.8630
 1609poe     o210658   4.076   6.433   6.023 -0.3472  0.2055  0.2643
 1609poe    c2310659   4.066   6.571   5.993  0.4838  0.2029 -0.0608
 1609poe    c2310660   4.188   6.621   5.913  0.5365 -0.1818 -0.2216
 1609poe     o210661   4.223   6.514   5.827 -0.0378 -0.1461 -0.5038
 1609poe    c2310662   4.324   6.552   5.737 -0.0952  0.0646 -0.4802
 1609poe    c2310663   4.301   6.467   5.611 -0.2757 -0.0154 -0.3927
 1609poe     o210664   4.301   6.333   5.653 -0.1281  0.1603  0.1662
 1609poe    c2310665   4.275   6.253   5.540  0.3844  0.0610  0.1193
 1609poe    c2310666   4.272   6.102   5.573 -0.0781  0.1092  0.3098
 1609poe     o210667   4.150   6.053   5.623 -0.2735 -0.1146 -0.3658
 1609poe    c3110668   4.152   5.912   5.630  0.2909 -0.1367 -0.8970
 1610poe    c3110669   3.484   3.143   2.827 -0.4810 -0.3471  0.4581
 1610poe     o210670   3.427   3.073   2.935 -0.7214 -0.2325  0.4064
 1610poe    c2310671   3.528   2.998   3.000  0.1332  0.2270 -0.3651
 1610poe    c2310672   3.464   2.923   3.118 -0.3772  0.7932 -0.2778
 1610poe     o210673   3.381   2.817   3.076  0.1084  0.4001 -0.2515
 1610poe    c2310674   3.374   2.726   3.183 -0.1044  0.3504 -0.3073
 1610poe    c2310675   3.318   2.595   3.124  0.4064  0.3141 -0.7297
 1610poe     o210676   3.203   2.635   3.051  0.0821  0.1819 -0.2967
 1610poe    c2310677   3.155   2.526   2.977  0.2007  0.1458 -0.3213
 1610poe    c2310678   3.029   2.574   2.902  0.0781  0.1188 -0.1339
 1610poe     o210679   3.054   2.694   2.831 -0.0684 -0.0373 -0.4501
 1610poe    c3110680   2.940   2.743   2.763 -0.3358 -0.0281 -0.0007
 1611poe    c3110681   2.680   0.489   3.417 -0.2368  0.1374  0.3035
 1611poe     o210682   2.690   0.582   3.522  0.3552  0.5466 -0.1082
 1611poe    c2310683   2.766   0.698   3.495 -0.0623  0.8166 -0.1278
 1611poe    c2310684   2.894   0.681   3.579  0.2628  0.5134 -0.6766
 1611poe     o210685   2.878   0.676   3.719  0.3145  0.1590 -0.6826
 1611poe    c2310686   3.001   0.672   3.787 -0.4669  0.3039  0.7807
 1611poe    c2310687   3.000   0.692   3.940 -0.3549  0.1914  0.7961
 1611poe     o210688   2.883   0.622   3.978 -0.4439 -0.1845 -0.1433
 1611poe    c2310689   2.855   0.641   4.115 -0.3107  0.7002 -0.2361
 1611poe    c2310690   2.724   0.561   4.128 -0.1476  0.5208  0.3209
 1611poe     o210691   2.638   0.608   4.026  0.0115  0.1416  0.0096
 1611poe    c3110692   2.520   0.661   4.083 -0.1147  0.3908 -0.4787
 1612poe    c3110693   4.347   1.557   3.234  0.1199 -0.4688 -0.1278
 1612poe     o210694   4.272   1.573   3.116 -0.1103  0.4124  0.1329
 1612poe    c2310695   4.326   1.664   3.023  0.2541  0.1534  0.0904
 1612poe    c2310696   4.219   1.718   2.926  0.1222 -0.1380  0.0723
 1612poe     o210697   4.153   1.597   2.898  0.1178 -0.1912  0.3083
 1612poe    c2310698   4.019   1.625   2.862  0.1976 -0.0340  0.1307
 1612poe    c2310699   3.938   1.495   2.873  0.3628 -0.2226 -0.8197
 1612poe     o210700   3.996   1.440   2.990  0.1026  0.1152 -0.5314
 1612poe    c2310701   3.930   1.329   3.044  0.1059  0.5105  0.2979
 1612poe    c2310702   4.013   1.283   3.166 -0.1076 -0.2417  0.1641
 1612poe     o210703   4.149   1.293   3.132 -0.1522  0.2191  0.1242
 1612poe    c3110704   4.217   1.215   3.228  0.3983  0.0447 -0.4005
 1613poe    c3110705   4.070   0.253   2.195 -0.1175  0.4236  0.1259
 1613poe     o210706   4.065   0.343   2.087 -0.1238 -0.1906 -0.3942
 1613poe    c2310707   4.186   0.415   2.083 -0.1616 -0.0569  0.5253
 1613poe    c2310708   4.181   0.521   1.972  0.0615 -0.0438  0.5275
 1613poe     o210709   4.065   0.599   1.984 -0.3617 -0.5969  0.1024
 1613poe    c2310710   4.076   0.680   1.869  0.0482  0.0307  0.5720
 1613poe    c2310711   3.946   0.758   1.841  0.0181 -0.0792  0.4009
 1613poe     o210712   3.934   0.856   1.942  0.3721  0.1033  0.2678
 1613poe    c2310713   3.849   0.962   1.904  0.4864  0.1403  0.1113
 1613poe    c2310714   3.779   1.037   2.019 -0.5229 -0.2052 -0.2669
 1613poe     o210715   3.860   1.133   2.083 -0.2521 -0.5422 -0.1046
 1613poe    c3110716   3.793   1.170   2.201  0.6798  0.3020  0.1809
 1614poe    c3110717   0.034   5.581   2.973 -0.1281  0.2133  0.4444
 1614poe     o210718  -0.003   5.690   2.892 -0.1169 -0.2787 -0.2358
 1614poe    c2310719  -0.048   5.653   2.764 -0.2058  0.0114 -0.2892
 1614poe    c2310720  -0.087   5.786   2.696 -0.0441 -0.0246 -0.4512
 1614poe     o210721  -0.221   5.814   2.729  0.0517  0.1653 -0.2159
 1614poe    c2310722  -0.254   5.927   2.651  0.0550 -0.0932 -0.5958
 1614poe    c2310723  -0.400   5.976   2.653 -0.0933 -0.5414 -0.1267
 1614poe     o210724  -0.422   6.040   2.777 -0.1270 -0.2099 -0.3013
 1614poe    c2310725  -0.551   6.096   2.782  0.0717  0.2294 -0.0125
 1614poe    c2310726  -0.565   6.130   2.932  0.4320  0.0454  0.0630
 1614poe     o210727  -0.489   6.246   2.955  0.0523  0.3828 -0.3626
 1614poe    c3110728  -0.514   6.281   3.089  0.1841  0.1878 -0.2866
 1615poe    c3110729   2.723   6.309   2.869  0.5966  0.0536  0.0405
 1615poe     o210730   2.653   6.337   2.988 -0.1949  0.0937 -0.4250
 1615poe    c2310731   2.739   6.375   3.094  0.0474 -0.1779 -0.5206
 1615poe    c2310732   2.655   6.350   3.221  0.1941 -0.1718 -0.4229
 1615poe     o210733   2.528   6.405   3.196  0.1295 -0.0065  0.2518
 1615poe    c2310734   2.445   6.348   3.295  0.0660 -0.5204 -0.0891
 1615poe    c2310735   2.302   6.405   3.289  0.4871  0.5955  0.1031
 1615poe     o210736   2.242   6.394   3.162  0.2053 -0.1396  0.2946
 1615poe    c2310737   2.123   6.470   3.160  0.1651 -0.2124 -0.0448
 1615poe    c2310738   2.044   6.448   3.029 -0.1334 -0.2408  0.1368
 1615poe     o210739   2.121   6.481   2.915 -0.1117 -0.1986  0.1633
 1615poe    c3110740   2.070   6.423   2.797 -0.2107  0.3673 -0.0746
 1616poe    c3110741   1.454   1.487   3.555  0.2537 -0.4512  0.0081
 1616poe     o210742   1.520   1.448   3.437  0.1567  0.1304 -0.2414
 1616poe    c2310743   1.546   1.551   3.344  0.3133 -0.0256 -0.3722
 1616poe    c2310744   1.629   1.487   3.232  0.3002  0.1618 -0.4903
 1616poe     o210745   1.763   1.455   3.262  0.1925 -0.1066 -0.2935
 1616poe    c2310746   1.819   1.367   3.166  0.1812 -0.7068  0.2416
 1616poe    c2310747   1.945   1.303   3.227  0.7448 -0.2117 -0.3945
 1616poe     o210748   1.912   1.209   3.326 -0.1699  0.2765 -0.2316
 1616poe    c2310749   2.018   1.158   3.402 -0.4640  0.1666  0.1101
 1616poe    c2310750   1.946   1.047   3.481 -0.1078 -0.2941 -0.2064
 1616poe     o210751   1.857   1.118   3.564  0.1253  0.2278 -0.3981
 1616poe    c3110752   1.822   1.043   3.678  0.6854  0.1152 -0.2965
 1617poe    c3110753   1.634   0.197   0.297  0.1129  0.0607 -0.3253
 1617poe     o210754   1.721   0.153   0.196 -0.3884 -0.5616 -0.4918
 1617poe    c2310755   1.841   0.094   0.242 -0.0696  0.4263 -0.0356
 1617poe    c2310756   1.924   0.063   0.117  0.0666 -0.4194  0.2605
 1617poe     o210757   1.827   0.002   0.035  0.3420 -0.4435 -0.0523
 1617poe    c2310758   1.883  -0.010  -0.094  0.3197  0.7748 -0.1869
 1617poe    c2310759   1.776  -0.065  -0.191  0.3441  0.2584  0.0759
 1617poe     o210760   1.664   0.020  -0.188  0.5430  0.5279 -0.1714
 1617poe    c2310761   1.594   0.011  -0.310 -0.0989 -0.1911  0.2465
 1617poe    c2310762   1.455   0.073  -0.287 -0.1126  0.1270 -0.6499
 1617poe     o210763   1.449   0.210  -0.252  0.1385 -0.1213  0.4035
 1617poe    c3110764   1.327   0.258  -0.304  0.4856  0.5243  0.1748
 1618poe    c3110765   1.451   6.021   0.293 -0.5388 -0.1059  0.0945
 1618poe     o210766   1.399   6.093   0.402  0.1701  0.2650  0.1923
 1618poe    c2310767   1.259   6.084   0.394  0.1960  0.1396 -0.1457
 1618poe    c2310768   1.196   6.095   0.535  0.0134  0.0987 -0.2234
 1618poe     o210769   1.242   6.218   0.586 -0.2153  0.1324 -0.0990
 1618poe    c2310770   1.194   6.253   0.714 -0.0234  0.1032 -0.0185
 1618poe    c2310771   1.254   6.379   0.780 -0.2125  0.0817  0.1965
 1618poe     o210772   1.395   6.379   0.786 -0.1728  0.0070 -0.5729
 1618poe    c2310773   1.446   6.500   0.838 -0.0377 -0.2516 -0.0916
 1618poe    c2310774   1.596   6.477   0.865 -0.1147 -0.1899  0.3980
 1618poe     o210775   1.649   6.405   0.756  0.4411  0.5495  0.1723
 1618poe    c3110776   1.781   6.367   0.784  0.4825  0.9203  0.4935
 1619poe    c3110777   3.198   5.766   3.750  0.1071 -0.2668  0.5801
 1619poe     o210778   3.310   5.682   3.739  0.3266  0.0698  0.2299
 1619poe    c2310779   3.414   5.732   3.658  0.0286  0.0757 -0.1526
 1619poe    c2310780   3.536   5.638   3.665 -0.3026 -0.3606 -0.2482
 1619poe     o210781   3.506   5.510   3.613 -0.3744 -0.4568  0.0232
 1619poe    c2310782   3.623   5.433   3.628  0.0181  0.1611  0.1890
 1619poe    c2310783   3.604   5.318   3.528 -0.2353  0.6641 -0.3475
 1619poe     o210784   3.472   5.274   3.550  0.2472 -0.5925  0.1586
 1619poe    c2310785   3.431   5.169   3.466  0.1132 -0.2124 -0.2555
 1619poe    c2310786   3.286   5.131   3.504  0.3491 -0.2349  0.6378
 1619poe     o210787   3.199   5.241   3.511 -0.2669 -0.5755 -1.1320
 1619poe    c3110788   3.074   5.193   3.557  0.0501 -0.7951 -0.4889
 1620poe    c3110789   0.218   6.269   2.441  0.5406  0.1860  0.0153
 1620poe     o210790   0.315   6.215   2.354  0.2671 -0.5403  0.1517
 1620poe    c2310791   0.286   6.087   2.301 -0.5472 -0.2613 -0.0959
 1620poe    c2310792   0.407   6.056   2.211 -0.2405 -0.0324  0.2302
 1620poe     o210793   0.424   6.164   2.122  0.4147 -0.3660 -0.0592
 1620poe    c2310794   0.527   6.140   2.029  0.2136 -0.2603 -0.3105
 1620poe    c2310795   0.488   6.258   1.938 -0.4103 -0.0944  0.1695
 1620poe     o210796   0.470   6.380   2.006 -0.2989  0.0081  0.0152
 1620poe    c2310797   0.508   6.482   1.916  0.1844 -0.1321  0.0559
 1620poe    c2310798   0.506   6.624   1.976  0.3865 -0.1605  0.1300
 1620poe     o210799   0.595   6.612   2.084 -0.2015  0.0234  0.6465
 1620poe    c3110800   0.620   6.735   2.148 -0.6494  0.2647  0.3597
 1621lim     li10801   1.254   4.691   1.791  1.0339 -0.6368 -0.0203
 1622lim     li10802   5.714   1.858   4.010  0.1613 -0.9465 -0.3141
 1623lim     li10803   5.593   4.916   4.834  0.2745 -1.2265 -1.5419
 1624lim     li10804   1.419   1.028   6.494 -0.1327 -0.3994  0.1765
 1625lim     li10805   4.564   0.330   4.596  1.1293 -0.0731 -0.5533
 1626lim     li10806   3.663   1.289   3.519  0.8510 -1.0166 -0.2677
 1627lim     li10807   1.639   5.769   2.886  0.1094 -0.8225  0.5309
 1628lim     li10808   5.731   3.744   1.724 -0.4844 -0.1025  0.0559
 1629lim     li10809   3.387   1.366   1.436 -0.0957 -0.8317  0.1485
 1630lim     li10810   4.582   3.512   1.135 -0.0260 -0.7468  0.3299
 1631lim     li10811   6.766   2.938   4.593  1.1990 -0.1712 -0.0470
 1632lim     li10812   4.238   5.692   3.499 -0.6324 -0.8882 -0.0080
 1633lim     li10813   4.613   4.469   2.439  0.6829  1.1433  0.4389
 1634lim     li10814   0.364   6.456   5.457 -0.6171 -0.5431  0.4435
 1635lim     li10815   5.874   4.348   3.870 -0.5418  0.6215  0.1568
 1636lim     li10816   4.442   0.831   6.587 -0.6273  1.3099  0.3240
 1637lim     li10817   0.511   1.534   6.873  0.1944 -1.0270 -0.4215
 1638lim     li10818   0.200   4.392   4.758 -0.1770 -0.0169  0.5167
 1639lim     li10819   0.069   0.596   4.364  0.2369  0.3443  0.0051
 1640lim     li10820   6.499   1.969   0.385  0.3771  0.3239  0.3171
 1641lim     li10821   2.211   0.223   2.933 -0.1823  0.4465  0.5179
 1642lim     li10822   6.679   0.681   6.253 -1.8862  0.2247  0.1169
 1643lim     li10823   1.137   1.927   5.907  0.5220  0.2569  0.2885
 1644lim     li10824   2.988   2.315   1.147  0.6126 -0.5929 -0.5374
 1645lim     li10825   5.298   1.763   1.346 -0.1345 -0.5549 -0.1825
 1646lim     li10826   1.612   4.504   5.890 -0.0438  0.3700  0.1741
 1647lim     li10827   1.609   2.939   4.061 -0.4429  0.0799  0.4047
 1648lim     li10828   2.593   4.872   1.471  0.7984 -0.1535  1.0042
 1649lim     li10829   3.867   2.868   2.347 -0.2229 -0.8545 -0.4488
 1650lim     li10830   1.017   5.012   0.574 -0.0949  0.3605 -0.3539
 1651lim     li10831   2.318   5.460   6.138  0.6466 -0.0317 -0.4662
 1652lim     li10832   6.806   5.899   1.170  0.4572  0.5844  0.9402
 1653lim     li10833   0.507   5.386   4.409 -0.5461 -0.8358 -0.0450
 1654lim     li10834   5.698   0.032   6.267  0.0850 -0.6498  1.0818
 1655lim     li10835   2.792   3.825   2.951 -0.6898  0.4574  0.1670
 1656lim     li10836   5.763   3.926   5.335  0.2402 -0.5317 -1.0955
 1657lim     li10837   4.108   2.001   2.230  0.4266  0.0701 -0.7960
 1658lim     li10838   6.012   2.090   3.247  0.6929  0.5914 -0.1156
 1659lim     li10839   2.500   5.678   5.192  0.3590 -0.3689 -0.5005
 1660lim     li10840   3.118   1.866   3.393 -1.4692 -0.5015 -0.9222
 1661lim     li10841   3.635   4.988   5.045 -0.2434 -0.3454  0.7769
 1662lim     li10842   1.863   3.909   1.807 -0.6237  1.1881 -0.0126
 1663lim     li10843   5.576   6.311   5.371 -0.7301 -0.1149  0.1034
 1664lim     li10844   0.704   6.242   0.711  0.9179 -0.4297  0.5241
 1665lim     li10845   6.026   0.907   4.382 -0.4050 -0.1764  0.9356
 1666lim     li10846   5.203   6.586   1.561  0.4006  0.8173 -0.4143
 1667lim     li10847   3.031   0.869   3.100  0.5075  0.4645 -0.2050
 1668lim     li10848   1.656   0.084   0.029  0.1649 -0.3818  0.3245
 1669lim     li10849   2.042   6.835   2.022 -0.8939 -0.2656 -0.5339
 1670lim     li10850   4.619   5.371   5.565  0.4786  1.7634 -0.1219
 1671lim     li10851   0.272   5.156   5.516 -0.5806 -0.3151 -0.2532
 1672lim     li10852   6.870   2.119   5.689 -0.1646  0.0192 -0.3553
 1673lim     li10853   6.509   4.994   2.939  0.2109 -0.2526  0.1516
 1674lim     li10854   1.084   4.668   5.282 -0.4365 -0.7423  0.3256
 1675lim     li10855   6.796   2.385   2.625  0.5311  1.2515 -0.5118
 1676lim     li10856   1.494   3.616   2.218 -0.5114  0.2090  0.8287
 1677lim     li10857   6.504   6.431   4.227 -0.3770 -0.3245  0.1987
 1678lim     li10858   3.878   0.565   2.506 -0.1056  0.2567  0.1825
 1679lim     li10859   2.831   6.336   2.335 -0.2730  1.0519 -0.3369
 1680lim     li10860   6.686   5.793   3.855  1.0050  1.0613 -0.1963
 1681lim     li10861   0.416   3.153   2.045  0.1532 -0.2460  0.2425
 1682lim     li10862   2.801   0.868   5.026  0.7696  0.4792 -0.7824
 1683lim     li10863   1.822   4.365   2.849  0.2057 -0.5713 -0.6981
 1684lim     li10864   5.025   1.514   0.645 -0.7159 -0.4703  0.0281
 1685lim     li10865   5.678   5.444   5.497  0.8630  0.4533  0.0072
 1686lim     li10866   4.633   4.987   6.662  0.0259  0.4176 -0.5567
 1687lim     li10867   1.788   0.350   4.796  0.0496  1.2030  0.2538
 1688lim     li10868   4.350   4.235   1.143  0.4651 -0.4538 -0.4184
 1689lim     li10869   6.252   0.529   1.833  0.3798  1.7770 -1.1550
 1690lim     li10870   2.486   1.501   0.807  0.4881 -1.1022 -0.0449
 1691lim     li10871   3.410   1.174   5.088 -0.6307 -0.0070  0.5528
 1692lim     li10872   5.842   5.958   6.418 -0.0063 -0.2245 -1.0808
 1693lim     li10873   6.549   1.618   4.860  0.0759 -0.4688  0.6750
 1694lim     li10874   5.835   2.885   3.198 -0.0967 -0.2691 -0.6415
 1695lim     li10875   6.866   5.693   4.917 -0.4809  0.7657  0.6378
 1696lim     li10876   0.393   6.320   3.768  0.0092  0.1091  0.9803
 1697lim     li10877   5.163   3.585   1.876 -0.7886  0.5167  0.1332
 1698lim     li10878   6.433   1.986   1.870 -0.8874 -1.2391  0.5262
 1699lim     li10879   4.099   1.923   5.418  0.0055 -0.3388  0.5941
 1700lim     li10880   3.516   2.072   2.726 -0.2995  0.1170 -0.2855
 1701lim     li10881   0.628   4.554   6.329  0.6005  0.4217 -0.3468
 1702lim     li10882   4.828   4.773   4.270  0.0906  0.9363 -0.0545
 1703lim     li10883   5.451   1.663   5.641  0.0728 -0.1436 -0.4591
 1704lim     li10884   2.102   2.602   1.736  0.5978  1.0815 -0.6887
 1705lim     li10885   0.708   5.365   6.703  0.6230 -0.9764  0.0695
 1706lim     li10886   0.250   0.719   5.360  0.4670 -0.6540  0.3321
 1707lim     li10887   0.230   0.054   0.674 -0.1907 -0.8995 -0.4678
 1708lim     li10888   2.691   4.153   3.777 -0.3881 -0.3070  0.2500
 1709lim     li10889   0.070   5.202   3.667  0.2205 -1.1163 -0.5905
 1710lim     li10890   6.172   6.359   0.589  0.2902 -0.5476 -0.5838
 1711lim     li10891   5.087   1.071   6.801 -0.2585  0.3810  1.1589
 1712lim     li10892   5.758   2.765   2.356  0.9644 -0.3326 -0.7446
 1713lim     li10893   2.558   3.397   6.482  0.7265 -0.0568  0.3122
 1714lim     li10894   2.374   3.374   1.601 -0.2825 -1.0214 -0.1419
 1715lim     li10895   4.306   3.277   3.289  1.8122 -0.2469 -0.4925
 1716lim     li10896   2.834   0.039   1.141 -0.1720 -0.0690 -0.7047
 1717lim     li10897   6.871   0.623   1.550  1.0258 -0.0908 -0.1475
 1718lim     li10898   0.153   3.351   0.783  0.4452  0.2329 -0.1539
 1719lim     li10899   0.519   6.698   6.644  0.1044  0.2662 -0.7526
 1720lim     li10900   4.655   6.093   2.472 -0.1858 -0.0497 -0.0136
 1721lim     li10901   2.952   6.015   3.271  0.3124  0.3448  0.1240
 1722lim     li10902   0.003   2.194   3.228  0.5542  0.1653 -1.1115
 1723lim     li10903   5.931   1.048   1.932 -0.4639  0.1640 -0.0768
 1724lim     li10904   6.688   6.256   1.667 -0.9809 -0.3154  0.4461
 1725lim     li10905   6.192   3.371   4.895  0.2495  0.5682  0.8777
 1726lim     li10906   0.257   4.327   3.370  0.1111 -0.4060 -0.1565
 1727lim     li10907   5.072   5.454   3.354 -0.0034 -1.0563  0.7562
 1728lim     li10908   4.894   3.843   3.840  0.6800  0.9822  0.6078
 1729lim     li10909   3.350   0.499   0.893  0.7117  0.4507  0.7232
 1730lim     li10910   5.102   4.847   3.480 -0.2834  0.3461  0.7115
 1731lim     li10911   1.864   0.365   0.774  0.1772  0.8541  0.5474
 1732lim     li10912   5.443   4.612   1.389  0.5246  0.0171 -0.6392
 1733lim     li10913   0.061   4.765   0.128 -0.8073  0.1117 -1.2680
 1734lim     li10914   0.521   4.449   1.447  0.0688  0.3233  0.6544
 1735lim     li10915   4.421   1.132   4.145  0.3685  0.8583 -0.3019
 1736lim     li10916   1.047   3.334   1.130  0.7584  1.1017  0.5759
 1737lim     li10917   1.172   5.450   6.080  0.3781  0.3112  0.5012
 1738lim     li10918   6.533   0.504   0.165  0.6246 -0.3641  0.2249
 1739lim     li10919   2.047   5.359   0.964  0.7192 -0.0090 -0.2058
 1740lim     li10920   1.204   2.675   6.331  0.4924 -0.6129 -0.9785
 1741lim     li10921   1.337   6.280   3.821 -0.6483 -0.5634 -0.4251
 1742lim     li10922   6.583   2.297   0.842  1.4032 -0.0963 -0.6547
 1743lim     li10923   0.812   1.152   2.025  0.5829 -0.3654  0.4868
 1744lim     li10924   2.511   2.412   0.105 -0.2208  0.2715 -0.7421
 1745lim     li10925   2.090   5.600   4.061 -0.7492  0.0472 -0.1633
 1746lim     li10926   6.794   6.006   6.352 -0.2013  0.8845  0.7323
 1747lim     li10927   3.075   1.222   5.913  0.1319  0.9088 -0.4186
 1748lim     li10928   6.888   1.101   2.644 -0.8820  0.4060 -0.4481
 1749lim     li10929   0.925   4.216   3.560 -0.1780  0.4615 -0.3162
 1750lim     li10930   4.290   0.101   6.800 -0.0128 -0.2908 -0.4817
 1751lim     li10931   1.938   1.714   4.481 -0.2983  1.1325  0.3804
 1752lim     li10932   0.216   1.208   4.741 -0.1270  1.2328 -1.1568
 1753lim     li10933   5.868   1.461   0.414 -0.3460 -0.6662 -0.3520
 1754lim     li10934   5.042   2.763   1.924  0.5024  0.2889  0.0686
 1755lim     li10935   1.053   2.410   3.625 -0.2368  0.4964  0.0240
 1756lim     li10936   0.689   2.032   5.403  0.4364  0.5630  0.3701
 1757lim     li10937   5.611   4.723   2.583 -0.1299 -0.8440 -0.3893
 1758lim     li10938   6.439   2.837   6.772 -0.5988  0.1704 -0.0171
 1759lim     li10939   5.981   6.341   3.648  0.2873 -0.0767 -0.6833
 1760lim     li10940   2.755   0.651   3.867  0.5143 -0.2909 -0.2293
 1761lim     li10941   5.289   3.944   5.872  0.1707 -1.1703 -0.6184
 1762lim     li10942   1.775   3.144   2.715  0.4856 -0.5339  1.7171
 1763lim     li10943   3.840   1.736   4.204  0.9652  0.0847  0.3560
 1764lim     li10944   3.694   2.145   5.075  0.0389 -0.1158  0.1256
 1765lim     li10945   5.127   6.113   3.044  0.4028 -0.8507  0.2028
 1766lim     li10946   2.003   3.401   6.112 -0.6264  0.0425  1.3187
 1767lim     li10947   5.435   0.539   1.380 -1.5135 -0.4727  0.2060
 1768lim     li10948   1.169   4.048   5.538 -0.0372 -0.9494 -1.1195
 1769lim     li10949   6.786   3.468   3.141 -0.8941 -0.0051  0.3695
 1770lim     li10950   4.982   0.867   0.770  0.1861 -0.4434 -0.0756
 1771lim     li10951   3.635   6.105   1.643  0.1283  1.5858  0.0476
 1772lim     li10952   1.801   5.624   5.143  0.7808 -0.1999  0.0697
 1773lim     li10953   2.636   4.901   5.271 -0.9334 -1.3037 -0.5083
 1774lim     li10954   5.525   3.487   0.109  0.6109 -0.7132 -0.6896
 1775lim     li10955   1.839   5.229   0.057 -0.1416  0.3853  0.5793
 1776lim     li10956   2.419   2.025   6.154 -0.0834 -0.4067 -0.5052
 1777lim     li10957   4.869   5.978   0.397  0.5338  0.6147 -0.9876
 1778lim     li10958   5.788   2.539   5.156  0.4282 -0.0694  0.2047
 1779lim     li10959   1.601   1.969   1.424  0.2137  0.6274  0.1516
 1780lim     li10960   4.159   3.253   6.225 -0.7471  1.0722  0.6790
 1781lim     li10961   5.062   5.802   6.358 -0.3084 -0.2119 -0.2601
 1782lim     li10962   2.751   0.534   2.255 -0.1384 -0.6952  0.0007
 1783lim     li10963   1.030   5.950   5.558  0.8098 -1.6210 -0.2659
 1784lim     li10964   4.977   1.887   6.860 -0.3506  0.5513  0.4161
 1785lim     li10965   6.000   1.382   6.019  0.7669 -0.0202  0.8664
 1786lim     li10966   2.997   1.784   2.147 -0.4100  0.6626 -0.0369
 1787lim     li10967   0.101   0.041   3.406  0.2707 -0.0574  0.1226
 1788lim     li10968   4.521   4.558   5.946 -1.0705 -0.1914 -0.2641
 1789lim     li10969   1.571   3.805   0.319  0.9851 -0.3665  0.7655
 1790lim     li10970   2.342   6.622   0.504  0.6399  0.3182  0.2651
 1791lim     li10971   6.473   0.498   2.557  0.3072  0.1022  0.4136
 1792lim     li10972   3.202   1.948   6.049  0.3215  0.2357 -0.9088
 1793lim     li10973   4.422   1.370   1.503 -0.6221 -0.0583  0.6916
 1794lim     li10974   1.930   1.302   5.105  0.4604 -0.7131 -0.0896
 1795lim     li10975   4.907   3.402   0.099  0.4155  0.6784  0.6883
 1796lim     li10976   3.181   1.173   2.517 -0.1581 -1.0281 -0.8972
 1797lim     li10977   3.711   0.262   1.864  0.9637 -0.5286 -0.4978
 1798lim     li10978   4.737   2.470   1.167  0.5312  0.6932  0.4652
 1799lim     li10979   2.230   6.313   6.746 -0.5404  0.1901 -0.2756
 1800lim     li10980   4.065   4.816   6.002  0.0929 -0.4102  0.7739
 1801lim     li10981   1.473   0.749   2.522  0.4285  0.7289  0.8073
 1802lim     li10982   5.219   2.513   5.617 -0.4553 -0.1296  0.3100
 1803lim     li10983   1.587   2.420   4.939  1.1712  0.4338 -0.8829
 1804lim     li10984   0.765   6.184   3.170  0.8588  0.5866  0.7128
 1805lim     li10985   4.005   0.261   0.601  1.0697 -0.1721  0.5735
 1806lim     li10986   5.929   3.883   2.504 -0.9286  0.0148  0.5426
 1807lim     li10987   5.005   0.139   2.573  0.7669  0.3433  0.3096
 1808lim     li10988   3.741   3.238   3.776  0.0592  0.3544  0.0114
 1809lim     li10989   5.303   2.003   3.605 -1.1321  0.4102 -0.5227
 1810lim     li10990   2.829   6.274   6.486  0.2971  0.0185 -0.3077
 1811lim     li10991   5.279   3.239   3.113 -0.4963 -0.0285  0.0469
 1812lim     li10992   1.798   4.867   6.377 -0.8271 -0.6440  0.0175
 1813lim     li10993   1.137   4.365   6.854  0.6255 -1.1973 -0.7599
 1814lim     li10994   3.509   0.496   4.803  0.6809  0.1347 -0.8766
 1815lim     li10995   5.351   3.642   4.264 -0.8764 -1.3711  0.0808
 1816lim     li10996   3.039   1.709   4.298  0.8025  0.2550  0.1921
 1817lim     li10997   0.960   1.901   2.598  0.0111 -0.2024 -0.3582
 1818lim     li10998   5.947   1.078   3.502  0.5848  0.3514  0.3787
 1819lim     li10999   2.759   2.463   3.756  0.0200 -0.4262  0.3527
 1820lim     li11000   2.510   0.211   4.638 -1.1405  1.2390 -0.1100
 1821lim     li11001   4.019   4.512   0.135 -0.5319  0.3274 -0.4854
 1822lim     li11002   1.462   0.337   1.830 -0.4670  0.8002  0.7281
 1823lim     li11003   3.490   2.514   1.803 -0.0303  0.3664 -0.1305
 1824lim     li11004   3.040   3.766   5.120 -0.6924 -0.1396  0.1628
 1825lim     li11005   1.215   2.987   2.245 -0.0587  1.0200 -0.1247
 1826lim     li11006   4.196   3.459   2.545  1.7317 -0.3807 -0.4038
 1827lim     li11007   4.971   0.859   1.628  0.2440 -0.2285  0.6940
 1828lim     li11008   1.728   5.799   2.135  0.6803  0.7304  0.6583
 1829lim     li11009   2.024   3.515   5.260  1.3500 -1.1613 -0.1192
 1830lim     li11010   6.697   3.433   2.276  0.2492 -0.4299  1.4804
 1831lim     li11011   3.126   3.195   1.922 -0.4786 -0.1512  0.4020
 1832lim     li11012   4.368   2.415   5.897 -0.3869 -0.4188  0.1093
 1833lim     li11013   0.483   5.371   1.836 -0.4013  0.5191  0.6192
 1834lim     li11014   1.315   3.206   4.513 -0.0128  0.3611 -0.0019
 1835lim     li11015   3.333   2.934   0.864 -0.0383  0.4941 -0.7366
 1836lim     li11016   5.844   3.348   6.570 -0.8048 -0.2082 -0.2243
 1837lim     li11017   6.479   3.852   1.184  0.8878  0.1301  0.0224
 1838lim     li11018   2.319   4.723   4.447 -0.7473 -0.2081 -0.7142
 1839lim     li11019   0.242   3.770   1.612 -0.3598 -0.7474 -0.6376
 1840lim     li11020   0.977   4.279   2.514  0.8571 -0.3365 -0.5709
 1841lim     li11021   2.172   1.915   3.563  0.7080 -1.0799 -0.6671
 1842lim     li11022   1.770   0.797   4.196 -0.2639  0.1953  0.5845
 1843lim     li11023   0.932   6.885   4.973 -0.0358  0.9759 -0.5712
 1844lim     li11024   6.231   1.952   5.867  0.1572 -0.5322  0.0450
 1845lim     li11025   3.492   4.007   6.505  0.5664 -0.5226  1.1370
 1846lim     li11026   0.911   0.582   5.656  0.6346 -0.0807  0.3420
 1847lim     li11027   1.804   1.872   2.522 -0.7071 -0.8309  0.1543
 1848lim     li11028   5.899   3.816   4.293 -0.5147  0.3032 -0.3337
 1849lim     li11029   2.936   0.075   0.216 -0.9439 -1.0486  0.0667
 1850lim     li11030   5.126   0.869   3.988 -0.7091 -0.3006 -0.4892
 1851lim     li11031   6.060   0.138   4.492 -0.2596 -0.3449  0.2341
 1852lim     li11032   6.766   4.684   1.286 -0.1078 -0.1926 -0.7636
 1853lim     li11033   4.298   5.389   2.696  0.6114 -0.6701  0.4704
 1854lim     li11034   0.520   1.828   3.237  0.6229 -0.5167  0.1763
 1855lim     li11035   5.066   4.624   5.005 -0.3465 -0.6200 -0.1052
 1856lim     li11036   2.225   3.985   4.504 -0.7436  0.3084  0.7286
 1857lim     li11037   1.714   4.654   5.027  0.6838 -0.2854  0.2928
 1858lim     li11038   4.094   1.264   4.985  0.7497  0.0589  0.4242
 1859lim     li11039   5.401   1.312   2.687 -0.2343  0.3734  0.0805
 1860lim     li11040   1.278   6.867   3.796  0.4040 -0.1868 -0.3732
 1861lim     li11041   3.698   4.562   0.956  0.0191 -0.4004 -0.1894
 1862lim     li11042   5.537   0.899   5.468  0.1192  0.6078 -0.5617
 1863lim     li11043   5.417   6.531   4.707 -0.2900  0.6872 -0.2219
 1864lim     li11044   0.558   3.365   2.749 -0.5103  0.2724 -0.5493
 1865lim     li11045   4.168   1.693   0.834 -0.0924 -0.2454 -0.0456
 1866lim     li11046   5.098   2.020   1.743  0.0853  0.9919  0.4162
 1867lim     li11047   6.250   1.022   6.599  0.5754 -0.8537 -0.0822
 1868lim     li11048   6.552   0.835   3.677  0.7860  0.3296 -0.6624
 1869lim     li11049   6.458   0.735   0.858 -0.0065 -0.1939  1.0029
 1870lim     li11050   4.121   0.439   3.403  0.0620  0.4551  0.0472
 1871lim     li11051   6.636   4.173   2.426 -0.0134 -0.4847 -0.6535
 1872lim     li11052   0.117   2.679   1.423 -0.1657 -0.0684 -0.4504
 1873lim     li11053   2.995   1.742   0.164 -0.3493  0.2188 -1.0396
 1874lim     li11054   3.599   5.113   2.706  0.6205 -0.6882  0.4873
 1875lim     li11055   2.523   3.003   2.671 -0.1907  0.5079 -0.3487
 1876lim     li11056   0.492   3.329   4.081  0.8180  0.4595  0.1655
 1877lim     li11057   1.436   5.429   3.333 -1.0521 -0.4461 -0.6178
 1878lim     li11058   5.914   1.762   2.587 -0.3458  0.5160  0.3648
 1879lim     li11059   4.589   5.229   2.274 -0.8601 -0.9901  0.1633
 1880lim     li11060   6.656   1.337   0.396  0.2368 -0.0382  0.5291
 1881lim     li11061   4.114   2.503   4.480 -0.3758 -0.0951 -1.8522
 1882lim     li11062   1.575   2.967   5.570  0.3349  0.4314  0.0593
 1883lim     li11063   6.560   6.505   2.720 -0.4687  0.4297  0.4243
 1884lim     li11064   2.677   3.094   3.597 -0.4210 -0.4619 -0.0201
 1885lim     li11065   4.174   1.457   3.024 -0.2529  0.8573 -0.2327
 1886lim     li11066   3.264   1.126   0.124 -0.7967 -0.2146 -0.2789
 1887lim     li11067   3.510   6.560   4.904  0.9821  0.8290  0.0588
 1888lim     li11068   2.425   4.318   5.632 -1.2020 -0.5108  2.3631
 1889lim     li11069   4.086   1.217   5.982 -0.9098 -0.7566 -0.0220
 1890lim     li11070   3.897   4.043   5.731 -0.2707 -0.2674 -0.0464
 1891lim     li11071   3.445   6.886   3.190 -0.0538  1.4411 -0.9339
 1892lim     li11072   3.136   5.465   2.864 -0.0851 -0.4940 -0.2243
 1893lim     li11073   4.782   6.485   0.029 -0.3135 -1.3625  0.1715
 1894lim     li11074   4.458   0.822   5.296 -1.1220  0.0477  0.1914
 1895lim     li11075   6.878   6.669   4.695 -0.2864 -0.0235 -0.0393
 1896lim     li11076   1.817   4.946   1.340 -0.1589 -0.2314 -0.4425
 1897lim     li11077   5.722   4.687   6.477 -0.0537  0.2976 -0.4696
 1898lim     li11078   0.901   0.463   1.117 -1.2232 -0.2508 -1.3396
 1899lim     li11079   6.058   5.482   3.052  2.3439  0.0349 -0.1101
 1900lim     li11080   1.629   3.089   0.008 -0.0765  0.4846 -0.1999
 1901lim     li11081   6.025   4.322   0.773  0.0904  0.3046  0.4615
 1902lim     li11082   3.137   4.525   2.807  0.3342 -0.2607 -0.3371
 1903lim     li11083   6.669   2.771   3.627  0.8376  0.1029  0.0739
 1904lim     li11084   6.889   5.859   2.970  0.3315  0.2890 -0.6322
 1905lim     li11085   2.006   0.545   3.287  1.0645  0.3113  0.7553
 1906lim     li11086   2.772   4.971   4.522 -0.1701  0.7574 -0.4800
 1907lim     li11087   3.325   5.410   3.602 -0.2423  0.7010  0.3874
 1908lim     li11088   0.049   1.436   3.485  0.0989  0.4918 -0.2227
 1909lim     li11089   0.263   1.482   6.358 -0.5030  0.4289  0.1460
 1910lim     li11090   6.850   6.315   0.498  0.2583 -1.1172 -0.7748
 1911lim     li11091   2.526   5.073   3.282 -0.1433  0.0024 -1.1789
 1912lim     li11092   4.781   0.560   5.743  0.2507 -0.1539 -0.3587
 1913lim     li11093   1.614   1.172   1.280 -0.2074 -0.5778  0.3670
 1914lim     li11094   4.423   4.417   5.044  1.0121 -0.1534 -0.3470
 1915lim     li11095   0.813   0.226   4.235  0.7032  0.0701 -0.7630
 1916lim     li11096   1.986   3.610   3.712 -0.1453  0.8801  0.5893
 1917lim     li11097   2.434   0.894   0.868  0.5198 -0.1051  0.7636
 1918lim     li11098   4.573   6.483   3.307 -0.0141  0.4281  0.4630
 1919lim     li11099   4.989   3.824   2.713  0.2168  0.4120  0.3654
 1920lim     li11100   3.568   5.871   5.316 -0.9996  1.0853 -0.6352
 1921lim     li11101   2.726   0.662   1.677  0.2726 -0.8972  0.2272
 1922lim     li11102   2.592   4.776   0.515 -0.6699 -0.3985  0.4434
 1923lim     li11103   1.778   1.766   5.682  0.0959 -0.4086  0.8288
 1924lim     li11104   4.817   3.380   5.794 -0.0432  0.9155  0.6216
 1925lim     li11105   5.083   0.210   3.650 -0.5214  0.5397  0.0355
 1926lim     li11106   2.912   6.326   5.534 -0.7080 -0.3798  0.6650
 1927lim     li11107   4.619   2.390   2.874 -0.4943 -0.4302 -0.3770
 1928lim     li11108   6.516   0.177   5.271 -0.3291  0.1944 -0.0924
 1929lim     li11109   1.850   1.812   0.211 -0.9007 -0.3228 -0.4803
 1930lim     li11110   1.740   4.900   4.003 -0.3593  0.1216 -0.5501
 1931lim     li11111   0.594   1.978   4.452 -0.0117 -0.1184 -0.1265
 1932lim     li11112   5.814   2.867   1.163 -0.5380  0.5389  0.2380
 1933lim     li11113   5.059   5.922   4.383 -0.4859 -0.4434 -0.0143
 1934lim     li11114   6.383   5.147   0.911 -0.3721  0.5213 -1.0953
 1935lim     li11115   6.382   4.458   5.182  0.7334  0.3623 -1.8163
 1936lim     li11116   0.600   0.630   3.340  0.2270 -0.4949  0.2011
 1937lim     li11117   2.804   5.426   0.414  0.0647 -0.0122 -0.5171
 1938lim     li11118   3.101   3.167   5.594  0.3918 -0.7207 -0.0687
 1939lim     li11119   1.201   5.823   1.607 -0.2276  1.0191 -1.3916
 1940lim     li11120   0.534   1.931   1.571 -0.6703 -0.4571  0.7699
 1941lim     li11121   1.222   2.102   2.100  0.3610 -0.8437 -0.2175
 1942lim     li11122   0.578   1.195   0.860 -0.9173 -1.0747 -0.0390
 1943lim     li11123   2.736   1.681   5.289 -0.0229 -1.3611 -0.3475
 1944lim     li11124   0.962   4.893   3.250 -0.9614 -0.2323  0.4996
 1945lim     li11125   4.187   0.871   2.244  0.1733 -1.1043 -0.2862
 1946lim     li11126   5.032   1.524   4.826 -0.4980 -0.5738 -0.1892
 1947lim     li11127   0.007   1.491   2.079  0.7615 -0.6056 -0.1619
 1948lim     li11128   3.290   6.194   0.472 -0.4771 -0.6264 -0.4317
 1949lim     li11129   6.445   6.423   5.775  0.3489  1.6343 -0.5747
 1950lim     li11130   4.005   1.819   6.567 -0.2952 -0.7234 -0.6673
 1951lim     li11131   4.933   1.811   6.096  0.3228  1.2597  0.0570
 1952lim     li11132   1.531   6.291   0.717 -0.1278  0.0756  0.7579
 1953lim     li11133   6.473   1.830   4.066 -0.1997 -0.7175  0.5522
 1954lim     li11134   2.475   4.048   2.383  0.2957 -0.3035 -0.1393
 1955lim     li11135   4.863   6.598   4.266 -0.5250 -0.4936  0.2192
 1956lim     li11136   0.856   5.832   4.673  0.0013  0.2033  0.3451
 1957lim     li11137   4.906   0.285   0.653 -0.5006 -1.6132  0.0404
 1958lim     li11138   3.997   4.035   2.051 -0.7854 -0.5209  0.2028
 1959lim     li11139   1.190   5.610   0.896 -0.8581 -1.1455  0.1692
 1960lim     li11140   5.589   2.364   0.790 -0.0344  0.0967  0.9398
 1961lim     li11141   4.760   2.923   0.680 -0.6912 -0.3368 -0.7603
 1962lim     li11142   4.513   6.856   1.033 -1.0327  1.0117 -0.0073
 1963lim     li11143   2.760   4.360   1.720  0.2406  0.4983 -0.1559
 1964lim     li11144   2.135   0.714   1.481 -0.2236 -0.1547 -0.2332
 1965lim     li11145   6.123   5.687   6.889  0.9119 -0.0151 -0.3560
 1966lim     li11146   2.083   6.416   3.804  0.4517  0.2655  0.2612
 1967lim     li11147   3.722   2.291   0.501  0.3439 -0.2473 -0.6119
 1968lim     li11148   1.002   1.184   2.711 -0.6089  1.0394 -0.1024
 1969lim     li11149   2.320   4.492   6.367 -0.3521 -0.0306  0.8686
 1970lim     li11150   3.224   4.348   4.686  1.0140  0.4683 -1.0197
 1971lim     li11151   1.779   1.251   3.466 -0.6534  0.1134  0.3757
 1972lim     li11152   3.948   0.131   5.564  0.6590  0.2420 -0.2275
 1973lim     li11153   3.632   4.338   4.012 -0.1797 -0.1453  0.1156
 1974lim     li11154   6.592   5.550   0.329 -0.0381  0.0819  0.1257
 1975lim     li11155   0.112   3.785   4.285  0.2835 -0.0769  0.0377
 1976lim     li11156   1.176   1.076   3.704  0.6898 -1.2507 -0.2939
 1977lim     li11157   0.846   5.639   3.738  0.8260 -0.2058 -0.7249
 1978lim     li11158   4.350   2.582   0.111  0.6705 -0.4262 -0.4562
 1979lim     li11159   3.359   2.786   4.480 -0.0583 -0.9389  0.4291
 1980lim     li11160   1.279   1.319   0.643 -1.1153  0.1156 -0.1253
 1981lim     li11161   0.395   0.160   2.318 -0.5692  0.2606 -0.5588
 1982lim     li11162   6.291   1.648   1.510 -0.0930  0.1414  0.6607
 1983lim     li11163   5.904   5.615   1.545 -0.3673  0.5313 -0.6384
 1984lim     li11164   2.204   3.235   4.627  0.7366 -0.3077 -0.8115
 1985lim     li11165   4.864   3.574   5.108 -0.4528  0.9186  0.2603
 1986lim     li11166   3.380   3.722   3.793  0.5466  0.4838 -0.2788
 1987lim     li11167   3.357   3.308   6.813 -0.6791 -0.8739  0.0964
 1988lim     li11168   2.147   3.391   0.679 -0.8114  1.1702  0.0977
 1989lim     li11169   2.797   5.394   2.194  0.7027  0.4900  0.4254
 1990lim     li11170   0.698   6.842   1.439 -0.5129  0.1597 -0.0118
 1991lim     li11171   2.021   2.514   3.280  0.2233 -0.4010  0.5757
 1992lim     li11172   5.847   6.823   0.033  1.0727  0.2112 -0.0978
 1993lim     li11173   3.608   0.587   4.144  1.1014  0.1518  0.6839
 1994lim     li11174   1.873   6.475   4.810 -0.1506 -0.1910 -0.1343
 1995lim     li11175   2.023   0.812   5.546  1.0389  1.3345 -0.7173
 1996lim     li11176   6.226   0.226   2.985  0.0201  0.4102 -0.1663
 1997lim     li11177   2.404   2.284   2.465 -0.5337  0.2156 -0.7065
 1998lim     li11178   4.403   3.921   6.617  0.8433 -0.4442  0.0363
 1999lim     li11179   5.379   2.626   0.015 -0.4697  0.6723  0.1389
 2000lim     li11180   2.487   1.418   2.945  0.4700  0.4835  0.1884
 2001lim     li11181   6.297   4.490   2.025  1.0798  0.1599  0.3345
 2002lim     li11182   0.793   5.340   2.381  0.2357 -0.7258  0.4597
 2003lim     li11183   3.927   6.275   2.901 -0.6909  0.4457 -0.1880
 2004lim     li11184   5.888   6.587   1.925 -0.3400  0.3488 -1.1389
 2005lim     li11185   3.297   4.827   6.784 -0.0706 -1.0426  0.7136
 2006lim     li11186   2.133   1.292   2.284  0.3061  0.5642 -0.1903
 2007lim     li11187   1.074   0.193   0.482 -0.3248  0.2380 -0.4787
 2008lim     li11188   6.528   4.836   4.342 -0.5838  0.0569  0.2226
 2009lim     li11189   4.184   5.799   4.037 -0.0220  0.3847 -0.2887
 2010lim     li11190   4.788   1.395   2.674  1.0259  1.6564 -0.7752
 2011lim     li11191   2.026   4.910   2.388 -0.0210 -0.1169 -0.3037
 2012lim     li11192   5.720   1.960   6.723  0.0511  0.1708 -0.2248
 2013lim     li11193   2.076   2.573   0.596  0.7698 -1.0788 -0.1358
 2014lim     li11194   3.981   5.297   4.623  0.3558 -0.2559 -0.9734
 2015lim     li11195   5.709   5.855   4.087 -0.0087  0.3335 -0.7328
 2016lim     li11196   0.945   1.302   5.262  0.1082  0.1832 -0.6261
 2017lim     li11197   4.570   6.257   4.818 -0.0640 -0.6544 -0.3999
 2018lim     li11198   2.441   2.408   4.358 -0.1336 -0.6201  0.2394
 2019lim     li11199   3.373   0.283   6.422  0.5149  0.6870 -0.1419
 2020lim     li11200   2.020   4.677   3.283  0.5430  0.5598 -0.5059
 2021lim     li11201   6.383   3.788   3.621 -0.0710 -0.5344 -0.3504
 2022lim     li11202   6.363   2.843   1.791 -0.2621 -0.6032  0.6401
 2023lim     li11203   3.157   3.989   0.785 -0.5498 -0.0148 -0.4260
 2024lim     li11204   5.136   4.217   0.123 -0.2335  0.2705  1.3348
 2025lim     li11205   3.366   4.044   1.806  0.4163  1.1036  1.5372
 2026lim     li11206   4.611   0.348   2.021 -0.2179  0.0110  0.3327
 2027lim     li11207   0.583   2.697   3.264 -0.6686 -0.4536  0.0029
 2028lim     li11208   1.384   6.661   1.750 -0.4133 -0.1973  0.7736
 2029lim     li11209   3.883   4.674   1.735  0.2217 -0.1078  0.8119
 2030lim     li11210   6.703   3.474   5.622 -0.6126  0.1119  0.2313
 2031lim     li11211   2.458   4.052   6.613 -0.8099  0.6712 -0.4096
 2032lim     li11212   5.448   6.490   0.913 -1.5330 -0.7269 -0.3230
 2033lim     li11213   3.197   2.648   5.775  0.1142  0.1151 -0.4722
 2034lim     li11214   4.025   2.218   1.304 -0.9943  0.1713 -0.8848
 2035lim     li11215   2.504   4.124   0.934  0.0860  0.9985  0.7231
 2036lim     li11216   2.534   1.144   6.098 -0.5230  0.5399  0.2943
 2037lim     li11217   4.029   2.318   3.414  0.5551 -0.3568 -0.4660
 2038lim     li11218   1.608   4.365   0.906  0.3498  0.4506 -0.2678
 2039lim     li11219   2.453   0.119   6.189 -2.1426  0.6177  0.2154
 2040lim     li11220   6.358   4.623   5.711 -0.4141 -0.4696 -0.6960
 2041lim     li11221   3.782   6.530   2.338  0.4857 -0.2184  0.8397
 2042lim     li11222   0.805   4.554   4.218 -0.2268  0.3695 -0.6799
 2043lim     li11223   2.558   1.830   1.493 -0.0823  0.4346  0.2126
 2044lim     li11224   1.477   5.446   4.586  0.6950 -0.4426 -0.1774
 2045lim     li11225   6.149   0.049   0.997 -0.6340  0.4945  0.5579
 2046lim     li11226   5.825   5.371   3.964 -0.5899  0.1630  0.8041
 2047lim     li11227   6.137   2.605   4.386  0.4995  0.6978 -0.0711
 2048lim     li11228   4.555   1.787   3.780  1.5203 -0.3377 -1.3535
 2049lim     li11229   4.245   4.383   4.020 -0.5665  0.5532 -0.1196
 2050lim     li11230   5.161   5.894   5.575 -0.1023  0.9777  0.1698
 2051lim     li11231   4.461   3.053   4.157 -0.6679  0.1297  0.5716
 2052lim     li11232   2.887   2.978   4.984 -0.0815 -0.6392  0.9740
 2053lim     li11233   0.449   2.577   4.272 -0.0286 -0.4053 -0.0957
 2054lim     li11234   6.812   5.298   6.098  0.2656  0.2928 -0.0549
 2055lim     li11235   0.371   2.526   6.764 -0.7119  0.4225  0.6417
 2056lim     li11236   1.431   6.331   6.334 -0.9071 -0.9061 -0.4788
 2057lim     li11237   6.575   4.095   6.401  0.2797 -0.1350 -0.5935
 2058lim     li11238   1.126   2.234   0.252  0.2582  0.2862  0.8586
 2059lim     li11239   5.765   0.175   3.511  0.4619  1.7763  1.1776
 2060lim     li11240   1.819   6.056   6.863  0.5326 -0.4059 -0.7529
 2061lim     li11241   2.882   5.293   5.936 -0.3090 -0.1443  1.0968
 2062lim     li11242   3.825   0.668   5.823 -0.5646 -0.4383  0.2158
 2063lim     li11243   5.567   2.810   3.972  0.6789 -0.2876  0.9226
 2064lim     li11244   0.282   2.911   6.452 -0.4136 -0.0720  0.6837
 2065lim     li11245   5.944   3.693   6.128  0.3860  1.0805  0.5888
 2066lim     li11246   1.889   2.676   6.237 -0.3238 -0.2721 -0.1246
 2067lim     li11247   5.312   5.143   6.852  0.0986 -0.3904  0.1889
 2068lim     li11248   0.374   4.582   2.368  1.2870  0.1108 -0.3150
 2069lim     li11249   6.718   0.022   6.181 -0.4171  0.7039  1.2910
 2070lim     li11250   2.389   2.343   5.228  0.2852 -0.9151 -1.0283
 2071lim     li11251   0.374   6.333   2.179  0.8664 -0.2476  0.1113
 2072lim     li11252   1.725   0.385   6.275 -0.5772 -0.2715  0.4529
 2073lim     li11253   1.335   6.701   5.463 -0.3670  0.4365  0.0465
 2074lim     li11254   4.501   5.206   1.323 -1.8752 -0.3775  0.2623
 2075lim     li11255   3.280   4.992   4.153 -0.4633  0.4050  0.4502
 2076lim     li11256   0.874   0.445   6.753 -0.0829  0.8080  0.7084
 2077lim     li11257   3.987   0.961   0.933 -0.4066  0.0618 -0.7839
 2078lim     li11258   1.109   1.025   4.620  0.2431 -1.2291  0.2367
 2079lim     li11259   3.073   6.714   3.514  0.6287 -0.4009  0.3834
 2080lim     li11260   0.464   2.541   0.782  0.6281 -0.7625 -0.0749
 2081lim     li11261   3.038   5.785   6.810  0.5878  0.3356  0.7303
 2082lim     li11262   6.148   5.249   5.971  0.1752  0.5807 -0.2657
 2083lim     li11263   0.077   3.038   5.265  0.2629 -0.9787 -0.6397
 2084lim     li11264   1.285   3.710   3.834 -0.0562 -0.4264 -0.4360
 2085lim     li11265   4.003   6.110   0.725  0.6799  0.7088  0.2120
 2086lim     li11266   4.605   5.438   4.900 -0.7079 -0.3850  0.8137
 2087lim     li11267   3.088   2.774   0.147 -0.2607 -0.1270  1.5575
 2088lim     li11268   3.206   2.789   2.937  0.7968 -0.7204 -0.4742
 2089lim     li11269   3.552   5.344   2.010  1.2307 -0.8900  0.3434
 2090lim     li11270   3.953   6.238   6.505 -0.2104 -0.4783  0.7923
 2091lim     li11271   4.878   6.654   5.719  0.0695 -0.7802 -0.5560
 2092lim     li11272   6.664   4.149   0.138  0.0067 -0.1512  0.7396
 2093lim     li11273   4.923   4.539   0.778 -1.3212  0.5377  0.4761
 2094lim     li11274   2.130   1.215   6.686  0.4875  0.2469  0.9601
 2095lim     li11275   6.328   4.619   3.670 -0.6449  0.6771 -0.0116
 2096lim     li11276   0.723   3.756   0.315 -1.0195 -0.7178 -0.8977
 2097lim     li11277   1.214   6.725   2.667  0.7135  0.4862 -0.1882
 2098lim     li11278   5.610   6.072   2.565  0.4171 -0.2172  0.1403
 2099lim     li11279   5.206   2.978   4.800 -1.0918 -0.6546 -0.5561
 2100lim     li11280   0.886   3.747   5.998  0.0728 -0.1950  0.6310
 2101lim     li11281   3.885   3.218   5.424 -0.1638 -0.3087  0.2938
 2102lim     li11282   5.909   3.679   2.998 -0.2620 -0.0861 -1.0503
 2103lim     li11283   2.805   5.988   1.440 -0.5672 -0.1125 -0.1685
 2104lim     li11284   5.427   0.423   2.501  0.5949 -0.7142 -1.1701
 2105lim     li11285   4.463   6.210   1.724  0.0221 -0.6230  0.0742
 2106lim     li11286   3.963   2.858   6.458 -0.1099  0.0459  0.1564
 2107lim     li11287   3.664   3.513   4.713 -0.2934 -0.4026  0.9687
 2108lim     li11288   2.339   5.762   1.632  0.0776 -0.0095 -0.5977
 2109lim     li11289   3.172   4.357   5.917 -0.0705 -0.7946  0.4273
 2110lim     li11290   0.869   2.857   5.370  0.3286  0.4188  0.0093
 2111lim     li11291   4.092   5.629   0.501  0.1946 -0.4399  0.8671
 2112lim     li11292   5.753   3.597   1.036 -0.6297 -0.6022  0.4093
 2113lim     li11293   6.635   2.345   5.044  0.2071  1.2500 -0.4145
 2114lim     li11294   5.018   4.777   1.890 -0.5271  0.7504 -0.8079
 2115lim     li11295   1.295   1.830   4.111  0.4192 -0.6191 -0.6323
 2116lim     li11296   5.371   2.203   2.349 -0.3202  0.7246  0.1653
 2117lim     li11297   2.766   6.258   4.591 -0.9057  0.5050  0.5071
 2118lim     li11298   1.290   3.351   3.231  0.1925  0.9673  0.3499
 2119lim     li11299   5.535   5.567   2.086  0.2470 -0.4006 -0.0327
 2120lim     li11300   4.013   3.667   0.589 -0.2949 -0.0367 -0.0935
 2121lim     li11301   3.331   5.376   1.098 -0.4480  0.8201  1.2812
 2122lim     li11302   3.950   6.619   4.134  0.4841  0.9866  0.7814
 2123lim     li11303   5.296   2.802   6.154  0.1897  0.0977 -0.8202
 2124lim     li11304   0.583   4.430   0.783 -0.2075 -0.2935 -1.1655
 2125lim     li11305   3.396   6.695   1.181  0.0116  1.6170 -0.2826
 2126lim     li11306   6.361   6.002   5.078 -0.6963 -1.3516 -0.5710
 2127lim     li11307   0.983   3.698   4.872  0.0683  0.7080  0.0981
 2128lim     li11308   2.464   6.379   3.026 -0.4148  0.3445  0.1633
 2129lim     li11309   5.801   0.316   5.582 -0.2241  0.5792 -0.8575
 2130lim     li11310   0.298   4.039   5.462 -0.7922  0.3467  0.5932
 2131lim     li11311   3.664   4.142   3.074 -0.2426  0.0048  0.1378
 2132lim     li11312   4.133   1.229   0.198  0.1774 -0.3144  0.2587
 2133lim     li11313   6.469   1.149   5.370  0.3631  0.8365  0.5997
 2134lim     li11314   4.870   0.903   3.214 -0.7719 -0.4246  0.0361
 2135lim     li11315   4.194   6.339   5.909  0.8006  0.9654 -0.2764
 2136lim     li11316   5.352   5.326   0.730 -0.2041  0.4477 -0.0927
 2137lim     li11317   3.079   0.196   5.397 -0.4586 -0.2947  0.7081
 2138lim     li11318   1.408   2.844   1.543 -0.1553 -0.0585  0.1864
 2139lim     li11319   2.713   0.364   6.713  0.5232 -0.2403 -0.8958
 2140lim     li11320   0.301   3.748   6.595 -0.7822  0.4967  0.7382
 2141lim     li11321   6.436   2.454   6.138  0.7557 -0.7177 -0.5542
 2142lim     li11322   5.038   5.808   1.409 -0.2806  0.8621  0.0626
 2143lim     li11323   5.630   0.706   0.413 -0.6937  0.0141  0.1138
 2144lim     li11324   4.328   3.549   4.681  0.5989 -0.2560  0.8054
 2145lim     li11325   2.618   6.687   3.953 -1.1494  1.1727  0.0282
 2146lim     li11326   2.159   6.433   5.665 -0.6998 -0.0680 -0.1867
 2147lim     li11327   4.903   2.065   4.713 -0.4226 -0.0056 -0.6924
 2148lim     li11328   3.451   5.796   4.429 -0.0744  0.1366 -0.0373
 2149lim     li11329   4.096   3.430   1.676 -0.9915  1.1327  1.4490
 2150lim     li11330   4.897   0.120   6.274 -0.4566 -0.5662  0.2467
 2151lim     li11331   2.754   3.029   1.392  0.5901 -0.6254 -0.1172
 2152lim     li11332   3.717   5.726   6.023  0.3246  0.0723 -0.7659
 2153lim     li11333   2.620   1.291   4.126  0.1149  1.0562 -1.1799
 2154lim     li11334   4.471   4.468   3.151  0.1899  0.4644  0.4095
 2155lim     li11335   6.466   5.363   2.141  0.4159  1.4001 -0.2268
 2156lim     li11336   4.943   2.538   3.435 -0.1394  0.1051  0.2998
 2157lim     li11337   6.423   3.030   0.728 -0.2509  0.9118  0.2822
 2158lim     li11338   5.344   0.792   4.726  0.0266 -0.2503 -0.1595
 2159lim     li11339   0.665   6.045   6.733 -0.4985 -0.4322  0.5535
 2160lim     li11340   4.257   5.139   0.174 -1.2137 -0.2726 -0.8032
 2161ntf    cn111341   3.002   2.354   4.366 -0.2302 -0.0949  0.1530
 2161ntf    sn211342   3.093   2.339   4.209  0.0287 -0.0169  0.2941
 2161ntf    nn311343   3.197   2.227   4.242 -0.1420 -0.3177 -0.1842
 2161ntf    sn211344   3.346   2.222   4.290 -0.1540 -0.1268 -0.1293
 2161ntf    cn111345   3.327   2.138   4.450  0.0847  0.2969  0.1229
 2161ntf    fn411346   2.925   2.461   4.375 -0.5722 -0.3522  0.3270
 2161ntf    fn411347   2.919   2.254   4.390 -0.2194 -0.1661 -0.1024
 2161ntf    fn411348   3.090   2.351   4.465 -0.1309 -0.1055  0.0643
 2161ntf    on511349   2.994   2.294   4.114  0.3402  0.2916 -0.1786
 2161ntf    on511350   3.160   2.466   4.194 -0.3468  0.0580 -0.8680
 2161ntf    on511351   3.410   2.348   4.321  0.2560 -0.3491 -0.0612
 2161ntf    on511352   3.422   2.125   4.215 -0.1375  0.2842 -0.6544
 2161ntf    fn411353   3.440   2.118   4.517  0.3605 -0.1878 -0.4804
 2161ntf    fn411354   3.240   2.193   4.533  0.0782 -0.2686  0.4956
 2161ntf    fn411355   3.279   2.017   4.432 -0.3867  0.3836  0.7672
 2162ntf    cn111356   4.638   5.299   1.840  0.0964 -0.1594 -0.0116
 2162ntf    sn211357   4.660   5.124   1.885  0.0995 -0.1531  0.0096
 2162ntf    nn311358   4.506   5.090   1.883  0.2354 -0.7623 -0.1396
 2162ntf    sn211359   4.420   5.058   2.010  0.1395 -0.1496 -0.0506
 2162ntf    cn111360   4.456   4.881   2.021 -0.4194 -0.2776 -0.2297
 2162ntf    fn411361   4.595   5.319   1.717  0.2262  0.0238 -0.0271
 2162ntf    fn411362   4.545   5.356   1.916  0.1468  0.1282 -0.1635
 2162ntf    fn411363   4.753   5.363   1.848  0.0026  0.0092 -0.0085
 2162ntf    on511364   4.734   5.059   1.780  0.2946 -0.0563  0.0877
 2162ntf    on511365   4.722   5.128   2.015  0.2339 -0.9924 -0.0215
 2162ntf    on511366   4.279   5.067   1.981  0.0206 -1.1591  0.1842
 2162ntf    on511367   4.466   5.104   2.138  0.4301 -0.7851  0.0732
 2162ntf    fn411368   4.402   4.824   2.128 -0.0143  0.3894  0.3426
 2162ntf    fn411369   4.399   4.815   1.921  0.4069 -0.1550 -0.7861
 2162ntf    fn411370   4.585   4.851   2.022 -0.3729 -0.0688  0.3079
 2163ntf    cn111371   3.270   4.760   5.047  0.2318  0.2077 -0.1053
 2163ntf    sn211372   3.360   4.843   4.913  0.1256  0.0513 -0.2756
 2163ntf    nn311373   3.258   4.929   4.830 -0.1001 -0.1088 -0.1653
 2163ntf    sn211374   3.192   5.061   4.883 -0.0326 -0.1250 -0.0391
 2163ntf    cn111375   3.296   5.193   4.813 -0.1365  0.0620  0.1564
 2163ntf    fn411376   3.221   4.849   5.131  0.3461  0.0380  0.1429
 2163ntf    fn411377   3.170   4.685   5.002  0.8615 -0.4109 -0.5117
 2163ntf    fn411378   3.354   4.684   5.115  0.1608 -0.1450 -0.4002
 2163ntf    on511379   3.458   4.924   4.981  0.1111 -0.0932 -0.0842
 2163ntf    on511380   3.407   4.737   4.827  0.1815 -0.2577  0.1368
 2163ntf    on511381   3.186   5.082   5.026 -0.6710 -0.6017  0.0118
 2163ntf    on511382   3.069   5.084   4.811  0.0486  0.1594 -0.0869
 2163ntf    fn411383   3.290   5.308   4.878 -0.8717  0.1575 -0.0681
 2163ntf    fn411384   3.423   5.158   4.798 -0.1436  0.3496 -0.6056
 2163ntf    fn411385   3.255   5.211   4.688 -0.0620 -0.0953  0.1087
 2164ntf    cn111386   5.812   4.996   1.006  0.0262 -0.2084 -0.1013
 2164ntf    sn211387   5.769   4.954   0.835  0.1187 -0.1734 -0.1327
 2164ntf    nn311388   5.912   4.921   0.778  0.5045  0.2301  0.5811
 2164ntf    sn211389   6.007   5.019   0.701 -0.1112  0.2543 -0.1632
 2164ntf    cn111390   5.950   4.982   0.532 -0.0059 -0.5659 -0.0229
 2164ntf    fn411391   5.875   4.895   1.065  0.1774 -0.0029  0.0888
 2164ntf    fn411392   5.896   5.098   1.010  0.1523 -0.3220  0.2437
 2164ntf    fn411393   5.706   5.036   1.074  0.0632 -0.2167 -0.0376
 2164ntf    on511394   5.701   4.828   0.846  0.0527 -0.1812 -0.5797
 2164ntf    on511395   5.696   5.069   0.788  0.2375 -0.2051 -0.4015
 2164ntf    on511396   6.142   4.967   0.704 -0.4620 -0.6944 -0.2529
 2164ntf    on511397   5.986   5.161   0.712  0.1773  0.3636 -0.8928
 2164ntf    fn411398   5.827   5.026   0.515  0.0848 -0.2130  0.2329
 2164ntf    fn411399   6.026   5.047   0.445 -0.3255  0.1841  0.2546
 2164ntf    fn411400   5.947   4.853   0.502  0.2033 -0.4733 -0.4508
 2165ntf    cn111401   5.165   2.449   4.268  0.1897  0.3509  0.0147
 2165ntf    sn211402   5.143   2.548   4.419 -0.0191 -0.0368  0.2387
 2165ntf    nn311403   5.027   2.471   4.492 -0.2696 -0.1876 -0.3177
 2165ntf    sn211404   4.903   2.543   4.557 -0.1865 -0.2250 -0.1182
 2165ntf    cn111405   4.810   2.581   4.405 -0.0062  0.1107 -0.1458
 2165ntf    fn411406   5.276   2.483   4.204  0.4000  0.2913  0.3449
 2165ntf    fn411407   5.161   2.318   4.284 -0.1201  0.3661  0.0635
 2165ntf    fn411408   5.069   2.480   4.183  0.1032  0.1088  0.0257
 2165ntf    on511409   5.274   2.527   4.476 -0.1233 -0.4974  0.3172
 2165ntf    on511410   5.120   2.676   4.358  0.4456  0.0629  0.2752
 2165ntf    on511411   4.921   2.670   4.623 -0.2703 -0.1602 -0.2193
 2165ntf    on511412   4.819   2.447   4.624  0.0097 -0.1491  0.2399
 2165ntf    fn411413   4.691   2.636   4.422  0.0411  0.2366 -0.2230
 2165ntf    fn411414   4.869   2.668   4.324  0.1031  0.0412 -0.1408
 2165ntf    fn411415   4.779   2.467   4.347 -0.6485  0.2468 -0.0759
 2166ntf    cn111416   6.253   5.156   5.227 -0.3831 -0.2852  0.0052
 2166ntf    sn211417   6.128   5.285   5.195  0.2517  0.3047 -0.1114
 2166ntf    nn311418   6.101   5.255   5.043 -0.3547  0.4142 -0.0270
 2166ntf    sn211419   5.968   5.234   4.963 -0.2556  0.1759 -0.1312
 2166ntf    cn111420   6.012   5.249   4.787 -0.2112 -0.2583 -0.1583
 2166ntf    fn411421   6.348   5.169   5.136 -0.0491  0.5427  0.4575
 2166ntf    fn411422   6.310   5.156   5.346  0.1106  0.0006 -0.2313
 2166ntf    fn411423   6.200   5.036   5.211 -0.1896 -0.3826  0.0965
 2166ntf    on511424   6.026   5.249   5.289  0.5535  0.0495  0.1224
 2166ntf    on511425   6.196   5.409   5.224 -0.1610  0.4754  0.1336
 2166ntf    on511426   5.880   5.347   4.978 -0.1955  0.1346  0.5612
 2166ntf    on511427   5.910   5.103   4.981  0.3958 -0.1511 -0.3583
 2166ntf    fn411428   6.069   5.364   4.755  0.1420 -0.2246  0.5729
 2166ntf    fn411429   6.097   5.153   4.752  0.0104 -0.1663  0.1170
 2166ntf    fn411430   5.908   5.232   4.708 -0.1768 -0.0922 -0.2395
 2167ntf    cn111431   2.014   0.641   1.048  0.0216  0.2699 -0.3667
 2167ntf    sn211432   2.091   0.485   0.995 -0.1493 -0.0164  0.2161
 2167ntf    nn311433   2.228   0.547   0.947 -0.1572 -0.1117  0.0703
 2167ntf    sn211434   2.344   0.593   1.041 -0.3982  0.2559  0.1877
 2167ntf    cn111435   2.486   0.495   0.984 -0.3038  0.2776  0.3840
 2167ntf    fn411436   2.005   0.733   0.954 -0.4610  0.5298 -0.0707
 2167ntf    fn411437   1.893   0.617   1.096  0.3085  0.6228  0.5456
 2167ntf    fn411438   2.088   0.700   1.140 -0.0692  0.3794 -0.3636
 2167ntf    on511439   2.094   0.395   1.107  0.4692 -0.7124 -0.3511
 2167ntf    on511440   2.005   0.446   0.886 -0.8920  0.1328  0.7420
 2167ntf    on511441   2.339   0.565   1.183 -0.7209 -0.8011 -0.0230
 2167ntf    on511442   2.394   0.725   1.012 -0.0891  0.0890 -0.0417
 2167ntf    fn411443   2.501   0.386   1.058 -0.6496 -0.1589 -0.1824
 2167ntf    fn411444   2.460   0.452   0.862 -0.3591  0.5209  0.3097
 2167ntf    fn411445   2.597   0.568   0.983  0.2284 -0.5178  0.6082
 2168ntf    cn111446   4.841   6.057   3.604 -0.3646  0.7274  0.1539
 2168ntf    sn211447   4.955   5.982   3.484 -0.4985  0.1092  0.4125
 2168ntf    nn311448   5.090   6.055   3.517 -0.0439 -0.5181 -0.0347
 2168ntf    sn211449   5.191   6.036   3.636  0.0015 -0.0664 -0.0014
 2168ntf    cn111450   5.143   6.177   3.741  0.0721  0.1057 -0.1999
 2168ntf    fn411451   4.714   6.034   3.573 -0.1562 -0.2634 -0.0068
 2168ntf    fn411452   4.849   6.018   3.730  0.1846 -0.2082 -0.1598
 2168ntf    fn411453   4.858   6.188   3.600  0.1203  0.6593 -0.0254
 2168ntf    on511454   4.950   5.840   3.510 -0.1347  0.0566  0.2033
 2168ntf    on511455   4.909   6.020   3.353  0.0119 -0.3863  0.0891
 2168ntf    on511456   5.327   6.071   3.605  0.0553 -0.1388  0.1569
 2168ntf    on511457   5.167   5.918   3.715 -0.1967  0.1499  0.2644
 2168ntf    fn411458   5.023   6.177   3.797  0.3256 -0.0406  0.3469
 2168ntf    fn411459   5.229   6.186   3.840  0.0128  0.6882 -0.1975
 2168ntf    fn411460   5.150   6.290   3.673  0.2215  0.0535 -0.2722
 2169ntf    cn111461   6.388   6.472   6.719  0.2956  0.0016  0.1376
 2169ntf    sn211462   6.303   6.335   6.803  0.2376 -0.2047 -0.2512
 2169ntf    nn311463   6.397   6.221   6.752  0.8347  0.3351 -0.3584
 2169ntf    sn211464   6.418   6.076   6.809 -0.0262  0.3419 -0.0223
 2169ntf    cn111465   6.594   6.074   6.855 -0.1060 -0.2806  0.2672
 2169ntf    fn411466   6.394   6.457   6.587  0.0602 -0.5612  0.1850
 2169ntf    fn411467   6.336   6.592   6.739  0.2354  0.0166 -0.1069
 2169ntf    fn411468   6.515   6.486   6.753  0.3609 -0.1253 -0.0495
 2169ntf    on511469   6.320   6.360   6.944  0.3795 -0.0212 -0.3014
 2169ntf    on511470   6.171   6.333   6.743  0.1898  0.0960 -0.1567
 2169ntf    on511471   6.414   5.976   6.705  0.5340 -0.5537  0.8029
 2169ntf    on511472   6.351   6.052   6.934  0.1602  0.1809  0.0464
 2169ntf    fn411473   6.631   5.958   6.906 -0.1769 -0.4564 -0.0767
 2169ntf    fn411474   6.664   6.098   6.746 -0.0659  0.0948  0.3709
 2169ntf    fn411475   6.633   6.157   6.950  0.3951  0.0715 -0.2364
 2170ntf    cn111476   1.522   3.983   6.033 -0.0185  0.1542  0.0442
 2170ntf    sn211477   1.383   3.966   5.917  0.0459 -0.2774  0.0279
 2170ntf    nn311478   1.434   3.865   5.808 -0.2746  0.0621 -0.4413
 2170ntf    sn211479   1.413   3.710   5.796  0.0315 -0.0212  0.0426
 2170ntf    cn111480   1.457   3.686   5.621 -0.4951 -0.0474 -0.0875
 2170ntf    fn411481   1.632   4.014   5.966 -0.1822  0.0853 -0.2596
 2170ntf    fn411482   1.506   4.085   6.114 -0.5947 -0.2348  0.4228
 2170ntf    fn411483   1.553   3.876   6.105  0.3297  0.1999 -0.0332
 2170ntf    on511484   1.272   3.909   5.990  0.3023 -0.7254  0.0723
 2170ntf    on511485   1.367   4.096   5.858 -0.1825 -0.2728  0.0975
 2170ntf    on511486   1.273   3.674   5.795  0.1467 -0.4968  0.6170
 2170ntf    on511487   1.507   3.626   5.865  0.3748  0.3072 -0.0248
 2170ntf    fn411488   1.374   3.726   5.526 -0.0881  0.0513 -0.3989
 2170ntf    fn411489   1.579   3.731   5.601 -0.2352 -0.6747  0.0459
 2170ntf    fn411490   1.458   3.556   5.596 -0.0099 -0.0391 -0.1036
 2171ntf    cn111491   3.628   3.910   1.322 -0.4678  0.2533  0.3703
 2171ntf    sn211492   3.696   3.795   1.445  0.0951  0.2974  0.1025
 2171ntf    nn311493   3.631   3.657   1.409 -0.0842  0.3865  0.0844
 2171ntf    sn211494   3.703   3.524   1.364  0.1291  0.5635 -0.0976
 2171ntf    cn111495   3.647   3.534   1.192 -0.2205  0.0644 -0.0139
 2171ntf    fn411496   3.497   3.904   1.332 -0.4628  0.1021  0.3414
 2171ntf    fn411497   3.662   4.036   1.343  0.3232  0.0960  0.0791
 2171ntf    fn411498   3.659   3.868   1.200  0.1373  0.2001  0.5385
 2171ntf    on511499   3.840   3.807   1.435  0.0671  0.6304  0.0928
 2171ntf    on511500   3.641   3.844   1.568 -0.1745  0.2709 -0.0069
 2171ntf    on511501   3.641   3.405   1.416  0.4128  0.2410 -0.4956
 2171ntf    on511502   3.847   3.533   1.358  0.1875  0.1112  0.5234
 2171ntf    fn411503   3.515   3.545   1.195 -0.2500 -0.1967 -0.2922
 2171ntf    fn411504   3.687   3.644   1.130  0.3718  0.1022  0.4346
 2171ntf    fn411505   3.678   3.432   1.114  0.3778  0.1787  0.0674
 2172ntf    cn111506   4.567   4.461   6.731 -0.0979 -0.4468 -0.1297
 2172ntf    sn211507   4.398   4.525   6.708  0.1703  0.3097 -0.0052
 2172ntf    nn311508   4.321   4.388   6.698 -0.3875  0.6150  0.0727
 2172ntf    sn211509   4.172   4.360   6.661 -0.2293 -0.0681 -0.0576
 2172ntf    cn111510   4.195   4.340   6.482  0.3990  0.2909 -0.0206
 2172ntf    fn411511   4.663   4.551   6.721 -0.0451 -0.5684 -0.7648
 2172ntf    fn411512   4.589   4.401   6.847  0.1408 -0.0855  0.0131
 2172ntf    fn411513   4.590   4.371   6.636 -0.4205 -0.3573 -0.2946
 2172ntf    on511514   4.370   4.594   6.831  0.0024  0.2789 -0.0260
 2172ntf    on511515   4.401   4.600   6.584 -0.2890  0.0289 -0.1870
 2172ntf    on511516   4.086   4.475   6.672  0.2278  0.2754 -0.0740
 2172ntf    on511517   4.123   4.231   6.703  0.1091 -0.1070  0.2179
 2172ntf    fn411518   4.202   4.451   6.410 -0.6245 -0.1073 -0.7658
 2172ntf    fn411519   4.308   4.276   6.456 -0.1260 -0.5117 -0.3759
 2172ntf    fn411520   4.101   4.259   6.434  0.7504 -0.1789  0.0837
 2173ntf    cn111521   4.009   4.781   1.119 -0.5727  0.0957 -0.0557
 2173ntf    sn211522   4.022   4.962   1.133 -0.0158  0.0612 -0.0760
 2173ntf    nn311523   3.998   4.991   0.981  0.5977 -0.3469 -0.2531
 2173ntf    sn211524   4.051   5.109   0.894 -0.3616  0.2511 -0.0442
 2173ntf    cn111525   4.181   5.009   0.815 -0.5398  0.2210 -0.3021
 2173ntf    fn411526   4.085   4.741   1.019 -0.7091 -0.0462 -0.1015
 2173ntf    fn411527   4.053   4.719   1.228 -0.0039  0.1914 -0.2236
 2173ntf    fn411528   3.889   4.734   1.094 -0.3262 -0.3537 -0.3993
 2173ntf    on511529   3.913   4.996   1.222  0.0510 -0.0016  0.0300
 2173ntf    on511530   4.159   4.985   1.172 -0.0915 -0.1317  0.3100
 2173ntf    on511531   4.127   5.211   0.963 -0.7852 -0.1504  1.0187
 2173ntf    on511532   3.971   5.149   0.780 -0.3742  0.8956  0.1858
 2173ntf    fn411533   4.256   5.080   0.733 -0.0661 -0.1150 -0.1641
 2173ntf    fn411534   4.265   4.950   0.899  0.1723  0.2518 -0.9779
 2173ntf    fn411535   4.133   4.909   0.743  0.2813 -0.5069  0.1336
 2174ntf    cn111536   5.193   2.053   1.149 -0.2855  0.2003 -0.1333
 2174ntf    sn211537   5.241   2.229   1.141  0.2100  0.0930  0.3910
 2174ntf    nn311538   5.104   2.303   1.162 -0.0474 -0.3893  0.4476
 2174ntf    sn211539   5.044   2.370   1.291 -0.2393  0.0093  0.1513
 2174ntf    cn111540   5.165   2.503   1.321 -0.3026  0.1821 -0.3437
 2174ntf    fn411541   5.300   1.977   1.142 -0.8087 -0.5664  0.0749
 2174ntf    fn411542   5.124   2.024   1.259 -0.0733  0.0384 -0.0439
 2174ntf    fn411543   5.120   2.017   1.045 -0.3126 -0.2065  0.0256
 2174ntf    on511544   5.337   2.233   1.248  0.4715 -0.1583  0.1698
 2174ntf    on511545   5.296   2.244   1.008  0.2500  0.2543  0.4264
 2174ntf    on511546   5.052   2.282   1.405  0.1651 -0.1519  0.0014
 2174ntf    on511547   4.916   2.429   1.260 -0.4356 -0.3740  0.2312
 2174ntf    fn411548   5.281   2.456   1.364 -0.5238  0.0878  0.1551
 2174ntf    fn411549   5.190   2.560   1.205  0.3081  0.7473  0.0626
 2174ntf    fn411550   5.119   2.601   1.397  0.2243  0.1648 -0.0043
 2175ntf    cn111551   0.387   2.914   2.663 -0.1062  0.2467  0.1890
 2175ntf    sn211552   0.262   2.999   2.563 -0.0076 -0.0633 -0.2029
 2175ntf    nn311553   0.134   2.910   2.588  0.1016 -0.1411  0.0855
 2175ntf    sn211554   0.033   2.929   2.706  0.1547  0.1067  0.0913
 2175ntf    cn111555  -0.070   3.064   2.640 -0.0672 -0.0926  0.0254
 2175ntf    fn411556   0.424   2.798   2.611 -0.1310  0.0031  0.7059
 2175ntf    fn411557   0.500   2.982   2.675  0.1579 -0.1665  0.0760
 2175ntf    fn411558   0.346   2.891   2.787 -0.2181  0.0557  0.1166
 2175ntf    on511559   0.260   3.129   2.624 -0.1632 -0.1069 -0.1117
 2175ntf    on511560   0.306   3.004   2.427  0.5973  0.4106  0.0085
 2175ntf    on511561   0.087   2.986   2.827  0.1185 -0.3845  0.3424
 2175ntf    on511562  -0.055   2.816   2.724 -0.1785  0.4396  0.5661
 2175ntf    fn411563  -0.170   3.095   2.720 -0.0645  0.0276 -0.0170
 2175ntf    fn411564  -0.004   3.178   2.625  0.0626 -0.2511 -0.6402
 2175ntf    fn411565  -0.111   3.040   2.517 -0.1371 -0.1870  0.0672
 2176ntf    cn111566   6.377   4.376   3.095 -0.1190 -0.2119  0.0844
 2176ntf    sn211567   6.197   4.369   3.116 -0.1287 -0.4461 -0.0762
 2176ntf    nn311568   6.194   4.363   3.273  0.0055 -0.0461 -0.0588
 2176ntf    sn211569   6.077   4.306   3.361 -0.1905  0.1156 -0.2126
 2176ntf    cn111570   6.165   4.156   3.415 -0.2100  0.2329  0.1432
 2176ntf    fn411571   6.425   4.500   3.101  0.1478 -0.3263  0.3350
 2176ntf    fn411572   6.436   4.296   3.181  0.3221  0.2339  0.2028
 2176ntf    fn411573   6.414   4.336   2.974 -0.2631  0.0129 -0.0341
 2176ntf    on511574   6.146   4.493   3.064  0.1624 -0.4041 -0.2633
 2176ntf    on511575   6.159   4.248   3.047 -0.3099 -0.5361  0.1801
 2176ntf    on511576   5.960   4.250   3.298 -0.3054 -0.4942  0.5299
 2176ntf    on511577   6.061   4.375   3.487  0.0960 -0.3024  0.0540
 2176ntf    fn411578   6.087   4.097   3.504  0.4405  0.3845  0.8303
 2176ntf    fn411579   6.185   4.073   3.315  0.1733  0.2646  0.1913
 2176ntf    fn411580   6.281   4.172   3.477 -0.1341 -0.3118  0.1464
 2177ntf    cn111581   3.833   5.487   3.000 -0.2403  0.1353  0.0159
 2177ntf    sn211582   3.694   5.435   3.106 -0.0099  0.1065  0.3055
 2177ntf    nn311583   3.664   5.574   3.172  0.4641  0.4293 -0.1502
 2177ntf    sn211584   3.529   5.654   3.180 -0.1087 -0.5055 -0.3173
 2177ntf    cn111585   3.592   5.824   3.195 -0.7814 -0.3092  0.3333
 2177ntf    fn411586   3.948   5.458   3.058 -0.2591 -0.1502 -0.0835
 2177ntf    fn411587   3.835   5.425   2.883 -0.2623  0.4341 -0.1426
 2177ntf    fn411588   3.836   5.618   2.982 -0.0467  0.1835  0.4068
 2177ntf    on511589   3.600   5.390   3.006  0.4184 -0.1052 -0.0074
 2177ntf    on511590   3.757   5.334   3.187 -0.1296  0.1219  0.4171
 2177ntf    on511591   3.446   5.634   3.296  0.1874  0.0197 -0.0082
 2177ntf    on511592   3.458   5.666   3.055 -0.1366 -0.0173 -0.2565
 2177ntf    fn411593   3.500   5.919   3.201  0.2458  0.7429 -0.1043
 2177ntf    fn411594   3.681   5.842   3.292 -0.4456  0.7356 -0.1547
 2177ntf    fn411595   3.652   5.849   3.080 -0.2780 -0.6827  0.5101
 2178ntf    cn111596   1.683   0.125   1.314  0.0757  0.1642 -0.3536
 2178ntf    sn211597   1.538   0.211   1.383  0.2647  0.2036 -0.0092
 2178ntf    nn311598   1.480   0.086   1.460  0.5427  0.0701 -0.0121
 2178ntf    sn211599   1.417   0.076   1.603  0.1334 -0.4127 -0.2240
 2178ntf    cn111600   1.242   0.094   1.556  0.1272 -0.0323 -0.0606
 2178ntf    fn411601   1.661   0.027   1.227 -0.5076  0.3399 -0.4098
 2178ntf    fn411602   1.758   0.207   1.242  0.8878  0.0418  0.3400
 2178ntf    fn411603   1.759   0.078   1.411 -0.5951 -0.0681  0.0689
 2178ntf    on511604   1.596   0.312   1.468 -0.2424  0.1401  0.4186
 2178ntf    on511605   1.457   0.251   1.271  0.0579 -0.0274  0.0575
 2178ntf    on511606   1.439   0.183   1.697 -0.2389 -0.4181 -0.1298
 2178ntf    on511607   1.417  -0.058   1.657  0.0225 -0.1542  0.4308
 2178ntf    fn411608   1.214   0.040   1.438  0.0863 -0.1310 -0.0056
 2178ntf    fn411609   1.170   0.031   1.647  0.0311  0.2027  0.0254
 2178ntf    fn411610   1.205   0.220   1.545  0.0469 -0.0080  0.4696
 2179ntf    cn111611   1.299   0.564   3.570  0.5098  0.1579 -0.2662
 2179ntf    sn211612   1.366   0.504   3.728  0.1426  0.1053 -0.1282
 2179ntf    nn311613   1.515   0.469   3.693  0.1090  0.0155 -0.1827
 2179ntf    sn211614   1.645   0.553   3.721 -0.0368  0.3133 -0.4017
 2179ntf    cn111615   1.761   0.420   3.766 -0.3587  0.2228  0.1698
 2179ntf    fn411616   1.323   0.478   3.473  0.4544 -0.3942  0.1999
 2179ntf    fn411617   1.169   0.587   3.564  0.4384 -0.1409  0.0804
 2179ntf    fn411618   1.353   0.680   3.536  0.7986  0.0650 -0.1282
 2179ntf    on511619   1.350   0.623   3.807 -0.0348  0.1638 -0.2535
 2179ntf    on511620   1.280   0.393   3.762  0.3458 -0.0803 -0.2097
 2179ntf    on511621   1.642   0.636   3.839  0.0742 -0.1743 -0.0538
 2179ntf    on511622   1.703   0.617   3.605  0.5034  0.2196 -0.1874
 2179ntf    fn411623   1.799   0.338   3.669 -0.0273  0.5743  0.0015
 2179ntf    fn411624   1.876   0.467   3.812 -0.2449 -0.1464  0.2694
 2179ntf    fn411625   1.707   0.348   3.863 -0.0160  0.0141  0.2067
 2180ntf    cn111626   1.814   6.844   4.302  0.1168 -0.2373  0.1480
 2180ntf    sn211627   1.881   6.676   4.281 -0.0219 -0.2933  0.1598
 2180ntf    nn311628   1.759   6.594   4.225 -0.0483 -0.0190 -0.1805
 2180ntf    sn211629   1.760   6.449   4.166  0.0762 -0.0438 -0.1163
 2180ntf    cn111630   1.706   6.357   4.313  0.3241  0.1581  0.1025
 2180ntf    fn411631   1.727   6.863   4.400 -0.0070 -0.2198  0.0340
 2180ntf    fn411632   1.909   6.932   4.327  0.0448 -0.1125 -0.0191
 2180ntf    fn411633   1.748   6.884   4.195 -0.1043 -0.5350  0.1702
 2180ntf    on511634   1.983   6.696   4.182  0.0923 -0.0222  0.3305
 2180ntf    on511635   1.921   6.636   4.414 -0.4143 -0.2868  0.2832
 2180ntf    on511636   1.886   6.391   4.125  0.2836  0.0067  0.4480
 2180ntf    on511637   1.645   6.434   4.081 -0.0655 -0.4788  0.1511
 2180ntf    fn411638   1.588   6.400   4.354  0.0903 -0.5456  0.1794
 2180ntf    fn411639   1.689   6.226   4.303  0.1433  0.1608  0.3947
 2180ntf    fn411640   1.785   6.385   4.415  0.2657  0.4094  0.0789
 2181ntf    cn111641   6.105   3.272   0.797 -0.4315  0.2015 -0.4460
 2181ntf    sn211642   6.272   3.305   0.859 -0.5252 -0.0326 -0.0664
 2181ntf    nn311643   6.224   3.280   1.007 -0.3761  0.1476  0.0139
 2181ntf    sn211644   6.199   3.146   1.085 -0.1783  0.0023 -0.1706
 2181ntf    cn111645   6.348   3.157   1.188 -0.0023 -0.3813 -0.3785
 2181ntf    fn411646   6.084   3.142   0.802 -0.1351  0.1711  0.1138
 2181ntf    fn411647   6.007   3.323   0.871 -0.5926 -0.0383 -0.4943
 2181ntf    fn411648   6.091   3.308   0.671  0.2341 -0.0555 -0.5932
 2181ntf    on511649   6.359   3.203   0.806 -0.2569  0.3980 -0.4603
 2181ntf    on511650   6.302   3.445   0.839  0.2931 -0.1400  0.3399
 2181ntf    on511651   6.215   3.018   1.019  0.4007 -0.2063  0.3667
 2181ntf    on511652   6.098   3.156   1.187 -0.0975 -0.1154 -0.0786
 2181ntf    fn411653   6.335   3.249   1.283  0.5884 -0.2198 -0.4494
 2181ntf    fn411654   6.384   3.044   1.247 -0.1821 -0.0635  0.3566
 2181ntf    fn411655   6.452   3.196   1.117  0.2211 -0.2069  0.0365
 2182ntf    cn111656   6.037   3.545   0.285 -0.0166  0.0473  0.2498
 2182ntf    sn211657   5.941   3.391   0.278  0.0403  0.0209  0.0287
 2182ntf    nn311658   5.924   3.357   0.430  0.3438 -0.4533 -0.0429
 2182ntf    sn211659   5.796   3.303   0.504 -0.0193 -0.0374 -0.3651
 2182ntf    cn111660   5.854   3.139   0.556  0.3349  0.1424 -0.1954
 2182ntf    fn411661   6.068   3.584   0.162  0.0254 -0.2173  0.1750
 2182ntf    fn411662   5.977   3.638   0.357 -0.3369 -0.1588  0.2474
 2182ntf    fn411663   6.149   3.528   0.354 -0.1634  0.0582  0.4901
 2182ntf    on511664   5.814   3.415   0.213  0.0944 -0.2471 -0.1765
 2182ntf    on511665   6.026   3.290   0.220  0.2723  0.1021  0.2272
 2182ntf    on511666   5.675   3.272   0.432 -0.7151 -0.1715  0.8416
 2182ntf    on511667   5.771   3.360   0.634 -0.1636  0.1782 -0.4856
 2182ntf    fn411668   5.754   3.093   0.629  0.2419  0.0289 -0.3939
 2182ntf    fn411669   5.860   3.053   0.456  0.4099 -0.1406  0.0537
 2182ntf    fn411670   5.969   3.136   0.622  0.2034 -0.3259  0.0148
 2183ntf    cn111671   3.537   0.260   5.141 -0.1105 -0.4222 -0.1431
 2183ntf    sn211672   3.476   0.432   5.145  0.1602 -0.3232 -0.2560
 2183ntf    nn311673   3.576   0.493   5.250 -0.0187  0.1150 -0.3397
 2183ntf    sn211674   3.567   0.502   5.406 -0.0361  0.2665 -0.3489
 2183ntf    cn111675   3.507   0.673   5.423 -0.2374  0.1376  0.2740
 2183ntf    fn411676   3.466   0.172   5.072 -0.5928 -0.1294 -0.0249
 2183ntf    fn411677   3.660   0.262   5.093 -0.1017 -0.0845 -0.1135
 2183ntf    fn411678   3.545   0.208   5.262 -0.0286  0.5015  0.2623
 2183ntf    on511679   3.509   0.479   5.013 -0.2358 -0.4215 -0.3891
 2183ntf    on511680   3.335   0.418   5.170  0.1039  0.1389 -0.3079
 2183ntf    on511681   3.691   0.499   5.479 -0.5338  0.1174  0.5109
 2183ntf    on511682   3.459   0.423   5.461  0.5369 -0.3759 -0.1212
 2183ntf    fn411683   3.508   0.713   5.549 -0.3735 -0.1750  0.3783
 2183ntf    fn411684   3.586   0.755   5.356  0.1428 -0.4855 -0.0537
 2183ntf    fn411685   3.383   0.683   5.377 -0.3312  0.2636  0.5547
 2184ntf    cn111686   0.359   6.827   6.051 -0.4804  0.2793 -0.5301
 2184ntf    sn211687   0.184   6.780   6.045 -0.4156 -0.0359 -0.0231
 2184ntf    nn311688   0.190   6.650   5.956  0.1162  0.1882 -0.3211
 2184ntf    sn211689   0.067   6.597   5.873  0.0378 -0.2893  0.0933
 2184ntf    cn111690   0.086   6.417   5.885  0.0714 -0.2891  0.0467
 2184ntf    fn411691   0.435   6.721   6.072  0.0016  0.6001 -0.6210
 2184ntf    fn411692   0.383   6.882   5.933  0.2504  0.3149 -0.3699
 2184ntf    fn411693   0.387   6.920   6.140  0.4937 -0.1218 -0.4084
 2184ntf    on511694   0.139   6.754   6.179 -0.3199  0.6779  0.1491
 2184ntf    on511695   0.127   6.898   5.984 -0.4847 -0.1245 -0.1304
 2184ntf    on511696   0.082   6.632   5.734 -0.2524  0.0679  0.1498
 2184ntf    on511697  -0.059   6.619   5.939  0.1812  0.1805  0.2153
 2184ntf    fn411698   0.203   6.374   5.842  0.0913 -0.3619  0.1739
 2184ntf    fn411699   0.060   6.377   6.008  0.6093 -0.0015  0.2550
 2184ntf    fn411700  -0.005   6.357   5.810 -0.3467  0.1934  0.1616
 2185ntf    cn111701   5.673   4.419   4.493  0.1173  0.1169  0.3571
 2185ntf    sn211702   5.597   4.428   4.329  0.1252 -0.1656  0.3386
 2185ntf    nn311703   5.623   4.582   4.311  0.2070 -0.2540 -0.3210
 2185ntf    sn211704   5.701   4.668   4.205  0.5910 -0.2085 -0.0028
 2185ntf    cn111705   5.559   4.715   4.102  0.1278 -0.4623  0.5129
 2185ntf    fn411706   5.794   4.472   4.500  0.0645  0.2775  0.0407
 2185ntf    fn411707   5.601   4.469   4.593 -0.0379  0.2436  0.1816
 2185ntf    fn411708   5.696   4.291   4.514 -0.9039 -0.1234  0.0141
 2185ntf    on511709   5.680   4.339   4.251  0.1268 -0.2676  0.4567
 2185ntf    on511710   5.458   4.398   4.356  0.0672  0.1169  0.3547
 2185ntf    on511711   5.779   4.589   4.114  0.3080  0.0845 -0.5050
 2185ntf    on511712   5.750   4.800   4.237 -0.7841  0.3110  0.0245
 2185ntf    fn411713   5.473   4.803   4.151 -0.1803 -0.0744 -0.6866
 2185ntf    fn411714   5.602   4.764   3.987 -1.0455  0.1668  0.3308
 2185ntf    fn411715   5.497   4.608   4.053 -0.1863  0.0783 -0.2968
 2186ntf    cn111716   0.830   6.131   4.176  0.4762  0.2075 -0.1504
 2186ntf    sn211717   0.700   6.244   4.234  0.3356 -0.0247 -0.0109
 2186ntf    nn311718   0.686   6.349   4.118  0.0528  0.3275  0.3374
 2186ntf    sn211719   0.687   6.505   4.122  0.2751  0.3326  0.1095
 2186ntf    cn111720   0.561   6.547   4.246  0.0957 -0.0948  0.0726
 2186ntf    fn411721   0.796   6.059   4.070  0.3148 -0.1059  0.1128
 2186ntf    fn411722   0.939   6.197   4.139  0.5402  0.5148  0.5753
 2186ntf    fn411723   0.873   6.039   4.261 -0.6719 -0.1468  0.0671
 2186ntf    on511724   0.588   6.156   4.254 -0.0694  0.5330  0.1959
 2186ntf    on511725   0.756   6.304   4.353 -0.1253  0.5053 -0.0609
 2186ntf    on511726   0.634   6.562   4.001 -0.3561 -0.1657  0.1488
 2186ntf    on511727   0.808   6.567   4.172  0.3777  0.0317  0.2319
 2186ntf    fn411728   0.544   6.678   4.261 -0.3375 -0.1715  0.2876
 2186ntf    fn411729   0.443   6.499   4.211  0.1644  0.0311 -0.3348
 2186ntf    fn411730   0.587   6.500   4.367  0.3909 -0.1970 -0.0312
 2187ntf    cn111731   2.348   1.270   1.823  0.0012  0.2534  0.0386
 2187ntf    sn211732   2.323   1.198   1.658 -0.0953  0.3297  0.0199
 2187ntf    nn311733   2.220   1.306   1.610 -0.2816  0.0565 -0.1920
 2187ntf    sn211734   2.232   1.424   1.507  0.1456  0.2355  0.0597
 2187ntf    cn111735   2.171   1.329   1.364 -0.0110  0.1397  0.1894
 2187ntf    fn411736   2.401   1.390   1.813 -0.0172  0.2483 -0.1168
 2187ntf    fn411737   2.230   1.279   1.884 -0.0708  0.0086 -0.0611
 2187ntf    fn411738   2.422   1.206   1.913  0.2128  0.5424  0.0682
 2187ntf    on511739   2.450   1.210   1.590  0.0651 -0.1924  0.2224
 2187ntf    on511740   2.267   1.069   1.687  0.5286  0.1002  0.2218
 2187ntf    on511741   2.366   1.467   1.475  0.2509 -0.0210  0.1529
 2187ntf    on511742   2.127   1.522   1.515 -0.0336  0.1184 -0.7180
 2187ntf    fn411743   2.191   1.390   1.248  0.8401  0.1209  0.3210
 2187ntf    fn411744   2.242   1.217   1.357  0.5408  0.5243 -0.6315
 2187ntf    fn411745   2.044   1.295   1.377 -0.0330  0.2577  0.2829
 2188ntf    cn111746   4.260   3.559   5.518  0.2794  0.1360 -0.0519
 2188ntf    sn211747   4.131   3.674   5.576  0.1937  0.0433 -0.0591
 2188ntf    nn311748   4.001   3.619   5.506  0.3182 -0.3351  0.0029
 2188ntf    sn211749   3.945   3.661   5.366 -0.0016  0.0917  0.2572
 2188ntf    cn111750   3.788   3.742   5.411 -0.2721 -0.1140 -0.3040
 2188ntf    fn411751   4.383   3.602   5.541  0.1462  0.2296  0.4987
 2188ntf    fn411752   4.244   3.438   5.569  0.5658 -0.0046 -0.2952
 2188ntf    fn411753   4.265   3.534   5.389  0.2267  0.0840 -0.0439
 2188ntf    on511754   4.123   3.658   5.719  0.1072 -0.6066 -0.1313
 2188ntf    on511755   4.181   3.797   5.520 -0.4001  0.1411 -0.3865
 2188ntf    on511756   3.897   3.541   5.303 -0.1230  0.2154  0.1150
 2188ntf    on511757   4.014   3.764   5.292  0.3117 -0.2190  0.1125
 2188ntf    fn411758   3.729   3.799   5.308 -0.0230  0.3710 -0.1844
 2188ntf    fn411759   3.702   3.661   5.470  0.1305 -0.1162  0.2857
 2188ntf    fn411760   3.809   3.843   5.494  0.3470 -0.3559 -0.1601
 2189ntf    cn111761   0.950   5.772   0.348 -0.2116 -0.0706 -0.2374
 2189ntf    sn211762   0.864   5.796   0.506  0.1498  0.4701 -0.1202
 2189ntf    nn311763   0.717   5.826   0.459  0.0062  0.1269  0.1010
 2189ntf    sn211764   0.599   5.726   0.432  0.0390  0.1103  0.0186
 2189ntf    cn111765   0.530   5.738   0.599 -0.5275  0.0190 -0.2089
 2189ntf    fn411766   0.960   5.883   0.277 -0.0128  0.2091  0.2212
 2189ntf    fn411767   1.070   5.720   0.368 -0.4467 -0.5654 -0.1170
 2189ntf    fn411768   0.882   5.690   0.270 -0.1980 -0.1511 -0.1644
 2189ntf    on511769   0.887   5.673   0.578 -0.1861  0.4222 -0.0899
 2189ntf    on511770   0.928   5.914   0.559 -0.3969  0.6832  0.0786
 2189ntf    on511771   0.625   5.585   0.419  0.3586  0.1831 -0.1596
 2189ntf    on511772   0.505   5.781   0.338 -0.1133 -0.1900 -0.0044
 2189ntf    fn411773   0.417   5.670   0.604 -0.5112  0.0096  0.0523
 2189ntf    fn411774   0.618   5.679   0.677  0.1668  0.4532 -0.6507
 2189ntf    fn411775   0.510   5.862   0.642  0.1350  0.0561  0.0008
 2190ntf    cn111776   4.099   5.768   2.123  0.5094 -0.3625 -0.0460
 2190ntf    sn211777   4.247   5.698   2.202  0.5978 -0.1011  0.0216
 2190ntf    nn311778   4.340   5.681   2.077  0.1981  0.0096 -0.2914
 2190ntf    sn211779   4.453   5.780   2.031  0.3309  0.0035  0.0221
 2190ntf    cn111780   4.566   5.686   1.925  0.3951  0.1387 -0.0296
 2190ntf    fn411781   4.004   5.804   2.207  0.0354 -0.4053 -0.5594
 2190ntf    fn411782   4.136   5.881   2.065 -0.7527 -0.1123 -0.3929
 2190ntf    fn411783   4.046   5.688   2.032 -0.2662 -0.1070  0.1771
 2190ntf    on511784   4.294   5.796   2.297  0.6592  0.1834 -0.3050
 2190ntf    on511785   4.217   5.571   2.264 -0.3090  0.4338  0.7155
 2190ntf    on511786   4.547   5.822   2.132  0.3656 -0.1452  0.0516
 2190ntf    on511787   4.404   5.888   1.950  0.0695 -0.0272  0.1358
 2190ntf    fn411788   4.636   5.761   1.841 -0.0444  0.2345 -0.3159
 2190ntf    fn411789   4.649   5.609   1.994  0.2800 -0.2025 -0.2695
 2190ntf    fn411790   4.495   5.607   1.845  0.4179 -0.2604  0.3431
 2191ntf    cn111791   3.624   0.813   1.587  0.0059  0.1552  0.1599
 2191ntf    sn211792   3.758   0.871   1.477  0.1469 -0.1696  0.1592
 2191ntf    nn311793   3.804   1.000   1.553 -0.0380 -0.0972  0.1483
 2191ntf    sn211794   3.903   1.111   1.501  0.0980 -0.3896 -0.2209
 2191ntf    cn111795   3.809   1.264   1.528  0.3247 -0.3721  0.5057
 2191ntf    fn411796   3.576   0.699   1.540 -0.0318  0.2979 -0.1516
 2191ntf    fn411797   3.654   0.794   1.714  0.2086  0.5794  0.1756
 2191ntf    fn411798   3.518   0.892   1.586 -0.3184 -0.2787 -0.2688
 2191ntf    on511799   3.862   0.772   1.486 -0.0370 -0.3310  0.5678
 2191ntf    on511800   3.701   0.891   1.346  0.1098 -0.6916  0.0903
 2191ntf    on511801   3.933   1.108   1.360 -0.5367 -0.4888 -0.3590
 2191ntf    on511802   4.015   1.126   1.590 -0.2742  0.1097  0.1678
 2191ntf    fn411803   3.741   1.260   1.641 -0.0718 -0.2859  0.2772
 2191ntf    fn411804   3.880   1.375   1.523  0.0534 -0.2037  0.3180
 2191ntf    fn411805   3.718   1.286   1.434  0.3740  0.3290  0.6211
 2192ntf    cn111806   3.193   5.952   4.998  0.5947  0.2336  0.2354
 2192ntf    sn211807   3.298   6.046   4.882  0.1098  0.0446 -0.3621
 2192ntf    nn311808   3.254   6.192   4.919 -0.0135 -0.2150  0.5355
 2192ntf    sn211809   3.331   6.303   5.000 -0.1314  0.0702  0.2565
 2192ntf    cn111810   3.197   6.386   5.090 -0.0608  0.2835  0.1662
 2192ntf    fn411811   3.174   5.828   4.958  0.3842  0.3555 -0.0437
 2192ntf    fn411812   3.245   5.942   5.119  0.4156 -0.0652  0.2880
 2192ntf    fn411813   3.074   6.008   5.007  0.3011 -0.2613 -0.4423
 2192ntf    on511814   3.432   6.011   4.922  0.0721  0.4972  0.1798
 2192ntf    on511815   3.248   6.007   4.753  0.3998 -0.4232 -0.3350
 2192ntf    on511816   3.375   6.415   4.920  0.3170  0.0112  0.4223
 2192ntf    on511817   3.424   6.257   5.099 -0.1955  0.1865  0.3719
 2192ntf    fn411818   3.155   6.312   5.191  0.2119  0.2883  0.2830
 2192ntf    fn411819   3.234   6.502   5.142 -0.1902  0.2650  0.3006
 2192ntf    fn411820   3.093   6.410   5.011 -0.2175 -0.0772  0.2623
 2193ntf    cn111821   2.490   6.734   1.715 -0.1430 -0.1151 -0.1851
 2193ntf    sn211822   2.505   6.888   1.810 -0.1014 -0.2433  0.0172
 2193ntf    nn311823   2.646   6.873   1.877 -0.0731  0.0317  0.0200
 2193ntf    sn211824   2.782   6.831   1.812  0.0603  0.2534  0.1530
 2193ntf    cn111825   2.896   6.919   1.924  0.2148 -0.4958  0.5927
 2193ntf    fn411826   2.502   6.625   1.788  0.7259  0.0271 -0.1069
 2193ntf    fn411827   2.372   6.719   1.656 -0.2691 -0.7236  0.2068
 2193ntf    fn411828   2.583   6.717   1.622 -0.1910 -0.4115 -0.1811
 2193ntf    on511829   2.500   6.998   1.717 -0.3362 -0.3173 -0.0590
 2193ntf    on511830   2.402   6.885   1.911  0.1486  0.2240  0.2907
 2193ntf    on511831   2.808   6.881   1.680 -0.0133  0.2687  0.1445
 2193ntf    on511832   2.809   6.690   1.828  0.0150  0.1935 -0.2830
 2193ntf    fn411833   3.015   6.861   1.926  0.4757  0.0359  0.3999
 2193ntf    fn411834   2.930   7.040   1.885 -1.1153 -0.2789  0.0549
 2193ntf    fn411835   2.846   6.936   2.046  0.7537  0.1965  0.7205
 2194ntf    cn111836   6.144   5.108   3.905 -0.3045 -0.2791  0.3957
 2194ntf    sn211837   6.173   4.978   4.028 -0.0374 -0.3374  0.2719
 2194ntf    nn311838   6.330   4.973   4.030 -0.0115  0.3600  0.0654
 2194ntf    sn211839   6.436   5.056   4.112  0.0245 -0.0213  0.4042
 2194ntf    cn111840   6.544   5.115   3.978 -0.5923 -0.4422 -0.2902
 2194ntf    fn411841   6.248   5.189   3.895 -0.1288 -0.5087  0.3414
 2194ntf    fn411842   6.119   5.063   3.783 -0.0912  0.0069  0.2437
 2194ntf    fn411843   6.039   5.178   3.943 -0.3069  0.0033 -0.1176
 2194ntf    on511844   6.106   5.037   4.142  0.6518  0.5168  0.2419
 2194ntf    on511845   6.113   4.860   3.971  0.3967 -0.2030 -0.4731
 2194ntf    on511846   6.522   4.974   4.193  0.7126  0.4896  0.1962
 2194ntf    on511847   6.396   5.182   4.169 -0.3771 -0.2227  0.5726
 2194ntf    fn411848   6.602   5.009   3.924 -0.0214 -0.5015  0.4184
 2194ntf    fn411849   6.478   5.179   3.883 -0.3908  0.3230  0.0741
 2194ntf    fn411850   6.636   5.204   4.013 -0.7719 -0.1083 -0.6550
 2195ntf    cn111851   0.324   6.312   3.175 -0.3312 -0.1403  0.0941
 2195ntf    sn211852   0.173   6.238   3.245 -0.3930 -0.2413 -0.1460
 2195ntf    nn311853   0.060   6.300   3.156 -0.5524  0.0071  0.2272
 2195ntf    sn211854  -0.022   6.434   3.155 -0.2204  0.2087 -0.1493
 2195ntf    cn111855  -0.160   6.389   3.263  0.2999  0.1537  0.5006
 2195ntf    fn411856   0.425   6.274   3.252  0.0565  0.1852 -0.2542
 2195ntf    fn411857   0.350   6.280   3.050 -0.1402  0.3590  0.0078
 2195ntf    fn411858   0.316   6.444   3.177 -0.5155 -0.1511  0.2420
 2195ntf    on511859   0.189   6.097   3.218 -0.1051 -0.2414  0.0141
 2195ntf    on511860   0.164   6.284   3.382 -0.3330  0.0172 -0.2291
 2195ntf    on511861  -0.076   6.462   3.024  0.1445 -0.0537 -0.3584
 2195ntf    on511862   0.039   6.547   3.221  0.1032 -0.1399  0.1525
 2195ntf    fn411863  -0.130   6.371   3.391 -0.1519 -0.3025  0.5480
 2195ntf    fn411864  -0.260   6.475   3.256  0.0050 -0.1760  0.5954
 2195ntf    fn411865  -0.217   6.275   3.225  0.2036  0.3826 -0.0433
 2196ntf    cn111866   3.978   1.256   2.574 -0.1095  0.2022 -0.3440
 2196ntf    sn211867   4.145   1.185   2.577  0.0351  0.5531  0.3944
 2196ntf    nn311868   4.191   1.232   2.719 -0.2641  0.1790  0.6163
 2196ntf    sn211869   4.334   1.282   2.761 -0.0040 -0.0100 -0.0415
 2196ntf    cn111870   4.418   1.124   2.790 -0.1283 -0.0796 -0.0576
 2196ntf    fn411871   3.910   1.208   2.677 -0.2100 -0.4341 -0.7078
 2196ntf    fn411872   3.976   1.388   2.582 -0.1377  0.1816  0.0430
 2196ntf    fn411873   3.914   1.219   2.465  0.2645  0.1097 -0.5317
 2196ntf    on511874   4.110   1.045   2.568  0.3777  0.4987 -0.1868
 2196ntf    on511875   4.219   1.236   2.464  0.0472 -0.6171 -0.1525
 2196ntf    on511876   4.328   1.338   2.893 -0.2750  0.1437 -0.1184
 2196ntf    on511877   4.416   1.347   2.662  0.5624 -0.1911  0.3075
 2196ntf    fn411878   4.346   1.046   2.869  0.2212 -0.5997 -0.2391
 2196ntf    fn411879   4.421   1.050   2.680 -0.5705 -0.2764  0.0576
 2196ntf    fn411880   4.542   1.135   2.835 -0.0746  0.0494 -0.2340
 2197ntf    cn111881   3.324   3.465   2.451 -0.1263  0.0267 -0.0519
 2197ntf    sn211882   3.281   3.302   2.384  0.1842  0.0498 -0.3075
 2197ntf    nn311883   3.245   3.230   2.518  0.1401 -0.0243 -0.3590
 2197ntf    sn211884   3.114   3.161   2.568  0.1854  0.0754 -0.0991
 2197ntf    cn111885   3.127   2.991   2.503  0.0541  0.0559 -0.0751
 2197ntf    fn411886   3.429   3.451   2.531  0.2120 -0.0965 -0.5150
 2197ntf    fn411887   3.368   3.551   2.360 -0.2288  0.4550  0.3024
 2197ntf    fn411888   3.226   3.521   2.520  0.3333  0.6157  0.1358
 2197ntf    on511889   3.172   3.329   2.293  0.0756  0.1173 -0.1573
 2197ntf    on511890   3.403   3.253   2.324  0.4558 -0.0725  0.3360
 2197ntf    on511891   2.990   3.209   2.511 -0.0482  0.3149  0.6006
 2197ntf    on511892   3.110   3.143   2.711  0.0135  0.1210 -0.0977
 2197ntf    fn411893   3.062   2.902   2.576 -0.1882  0.0989 -0.2340
 2197ntf    fn411894   3.074   2.989   2.382  0.4498  0.3237 -0.2561
 2197ntf    fn411895   3.249   2.942   2.494  0.1008  0.1155  0.2303
 2198ntf    cn111896   5.150   6.309   2.633  0.2183  0.5997 -0.0929
 2198ntf    sn211897   5.153   6.137   2.692 -0.0393  0.5621 -0.1862
 2198ntf    nn311898   5.020   6.080   2.632  0.5021 -0.9502  0.0092
 2198ntf    sn211899   4.899   6.007   2.702  0.1477 -0.5272 -0.1582
 2198ntf    cn111900   4.950   5.835   2.672 -0.2922 -0.6430 -0.2379
 2198ntf    fn411901   5.229   6.392   2.698 -0.1404  0.4119  0.5976
 2198ntf    fn411902   5.192   6.323   2.509  0.2234  0.0343 -0.1587
 2198ntf    fn411903   5.026   6.354   2.627 -0.1444 -0.2809  0.5237
 2198ntf    on511904   5.271   6.086   2.626  0.0206  0.0927  0.2826
 2198ntf    on511905   5.161   6.150   2.835 -0.2982 -0.0942 -0.1097
 2198ntf    on511906   4.776   6.029   2.630  0.1262  0.1122  0.0661
 2198ntf    on511907   4.893   6.025   2.845 -0.1460 -0.0361 -0.2282
 2198ntf    fn411908   5.043   5.783   2.750 -0.1654 -0.0773 -0.0036
 2198ntf    fn411909   4.847   5.754   2.691 -0.4253 -0.2100  0.9965
 2198ntf    fn411910   5.004   5.813   2.554  0.6318  0.2670 -0.0003
 2199ntf    cn111911   5.499   6.285   4.059  0.0212  0.0128 -0.2399
 2199ntf    sn211912   5.551   6.341   4.225 -0.2292 -0.1452 -0.1088
 2199ntf    nn311913   5.647   6.453   4.174  0.0141 -0.3602 -0.1260
 2199ntf    sn211914   5.651   6.602   4.224 -0.3049 -0.4439  0.1498
 2199ntf    cn111915   5.517   6.677   4.128  0.1078  0.1124 -0.0014
 2199ntf    fn411916   5.468   6.387   3.981 -0.2504 -0.1716 -0.3714
 2199ntf    fn411917   5.603   6.224   4.004 -0.0756 -0.2595 -0.1227
 2199ntf    fn411918   5.400   6.198   4.068 -0.0666  0.1722  0.4157
 2199ntf    on511919   5.432   6.392   4.287  0.0788  0.1312  0.2517
 2199ntf    on511920   5.624   6.229   4.279 -0.0869  0.1047  0.2165
 2199ntf    on511921   5.770   6.674   4.186 -0.3039 -0.4250  0.1878
 2199ntf    on511922   5.609   6.621   4.360 -0.4632  0.6656 -0.0467
 2199ntf    fn411923   5.539   6.681   3.997  0.0772  0.1350 -0.0058
 2199ntf    fn411924   5.402   6.611   4.132  0.1147  0.1118  0.1919
 2199ntf    fn411925   5.495   6.803   4.160 -0.5918  0.0464 -0.1861
 2200ntf    cn111926   2.015   5.080   1.795  0.5092 -0.1616 -0.0239
 2200ntf    sn211927   2.171   5.051   1.706  0.4921 -0.0517 -0.0887
 2200ntf    nn311928   2.210   5.197   1.662  0.3288  0.0205  0.0072
 2200ntf    sn211929   2.194   5.263   1.520 -0.4926 -0.4658 -0.1372
 2200ntf    cn111930   2.366   5.238   1.464 -0.2877  0.5544  0.0247
 2200ntf    fn411931   1.936   5.162   1.728  0.5404  0.0211  0.1644
 2200ntf    fn411932   1.948   4.969   1.821  0.1268  0.0845  0.0523
 2200ntf    fn411933   2.038   5.147   1.906 -0.0457 -0.4787  0.2835
 2200ntf    on511934   2.258   5.005   1.811 -0.2711 -0.3490  0.4206
 2200ntf    on511935   2.150   4.957   1.599  0.8149 -0.0150 -0.1863
 2200ntf    on511936   2.179   5.406   1.528  0.3952 -0.3789  0.1339
 2200ntf    on511937   2.101   5.203   1.427 -0.3844 -0.5360 -0.2009
 2200ntf    fn411938   2.385   5.119   1.410 -0.0409  0.5245  0.1771
 2200ntf    fn411939   2.392   5.327   1.370 -0.3307 -0.0497 -0.5651
 2200ntf    fn411940   2.461   5.246   1.555  0.0728  0.7679 -0.3703
 2201ntf    cn111941   0.965   2.055   3.934  0.0087  0.2715 -0.0392
 2201ntf    sn211942   1.092   2.101   4.055  0.2668  0.1052 -0.2458
 2201ntf    nn311943   1.002   2.132   4.180  0.4819 -0.2305 -0.0084
 2201ntf    sn211944   0.954   2.272   4.230  0.3859 -0.2784  0.0325
 2201ntf    cn111945   1.091   2.335   4.332  0.0185 -0.0858  0.4110
 2201ntf    fn411946   0.910   2.164   3.882 -0.3061  0.3424  0.4361
 2201ntf    fn411947   1.015   1.992   3.829 -0.2605  0.1203 -0.0768
 2201ntf    fn411948   0.865   1.981   3.979  0.0003  0.1987 -0.1760
 2201ntf    on511949   1.172   1.983   4.074 -0.1645 -0.1056  0.2869
 2201ntf    on511950   1.157   2.212   3.989  0.0980  0.1419 -0.3529
 2201ntf    on511951   0.848   2.257   4.327  0.1429  0.1895 -0.1591
 2201ntf    on511952   0.926   2.365   4.124 -0.2066  0.0131  0.4401
 2201ntf    fn411953   1.090   2.467   4.343  0.2254 -0.0430 -0.0826
 2201ntf    fn411954   1.088   2.289   4.456 -0.5183 -0.4923  0.2531
 2201ntf    fn411955   1.209   2.308   4.280 -0.1508 -0.2537  0.1106
 2202ntf    cn111956   2.671   2.998   4.270  0.0510  0.4188  0.0115
 2202ntf    sn211957   2.507   2.939   4.321  0.2042 -0.2228 -0.2224
 2202ntf    nn311958   2.420   2.993   4.203  0.0215 -0.0909 -0.0284
 2202ntf    sn211959   2.336   3.126   4.191 -0.1348 -0.2048 -0.2071
 2202ntf    cn111960   2.227   3.090   4.050  0.0460 -0.0528 -0.3862
 2202ntf    fn411961   2.719   2.914   4.179 -0.1677 -0.1632  0.4240
 2202ntf    fn411962   2.669   3.120   4.219  0.0151  0.3660 -0.1118
 2202ntf    fn411963   2.758   3.004   4.370  0.1282 -0.9816  0.0458
 2202ntf    on511964   2.504   2.795   4.314 -0.0782 -0.2129 -0.3261
 2202ntf    on511965   2.482   3.004   4.448 -0.5286 -0.4546 -0.2471
 2202ntf    on511966   2.421   3.232   4.145 -0.3802  0.2117  0.2864
 2202ntf    on511967   2.245   3.155   4.299  0.4558 -0.1463  0.2820
 2202ntf    fn411968   2.296   3.034   3.953  0.6174  0.2111 -0.1383
 2202ntf    fn411969   2.129   3.010   4.090  0.6222 -0.4492  0.2668
 2202ntf    fn411970   2.162   3.192   3.997 -0.2077 -0.2948 -0.5403
 2203ntf    cn111971   1.400   0.884   3.102  0.2109 -0.1005 -0.0552
 2203ntf    sn211972   1.527   0.999   3.043  0.1322  0.1354  0.2328
 2203ntf    nn311973   1.649   0.903   3.017 -0.0013  0.0928 -0.2530
 2203ntf    sn211974   1.743   0.878   2.895  0.1293 -0.0727 -0.1184
 2203ntf    cn111975   1.881   0.981   2.953 -0.0051 -0.2829  0.5792
 2203ntf    fn411976   1.278   0.933   3.117  0.0569 -0.4959  0.0078
 2203ntf    fn411977   1.381   0.779   3.024  0.2922 -0.2130  0.0761
 2203ntf    fn411978   1.420   0.835   3.223  0.2724  0.0325 -0.0115
 2203ntf    on511979   1.458   1.055   2.929 -0.1484  0.3181  0.4885
 2203ntf    on511980   1.549   1.083   3.158  0.3803  0.0448  0.2506
 2203ntf    on511981   1.700   0.934   2.769 -0.0705  0.1810  0.0605
 2203ntf    on511982   1.800   0.746   2.900  0.1220 -0.0601  0.2984
 2203ntf    fn411983   1.993   0.968   2.884 -0.1263 -0.2297  0.3702
 2203ntf    fn411984   1.848   1.109   2.945 -0.3080 -0.3948  0.0147
 2203ntf    fn411985   1.921   0.973   3.079 -0.0283  1.0398  0.6910
 2204ntf    cn111986   0.860   6.494   5.987 -0.2287  0.0092 -0.0885
 2204ntf    sn211987   0.858   6.369   5.855 -0.2048 -0.1590  0.0684
 2204ntf    nn311988   0.791   6.457   5.744 -0.2462 -0.6803 -0.3228
 2204ntf    sn211989   0.858   6.554   5.639 -0.1847 -0.1871  0.1669
 2204ntf    cn111990   0.835   6.457   5.487  0.0185 -0.6007  0.3970
 2204ntf    fn411991   0.895   6.455   6.109  0.0116  0.4215 -0.0231
 2204ntf    fn411992   0.935   6.595   5.949  0.1717 -0.2291  0.0662
 2204ntf    fn411993   0.735   6.535   6.000 -0.0778  0.3415  0.3388
 2204ntf    on511994   0.996   6.339   5.826 -0.0313 -0.0102  0.7305
 2204ntf    on511995   0.775   6.267   5.912 -0.0520 -0.0066  0.5734
 2204ntf    on511996   1.000   6.578   5.647 -0.2422  0.3475 -0.3586
 2204ntf    on511997   0.776   6.672   5.627  0.1271 -0.0324 -0.4657
 2204ntf    fn411998   0.832   6.529   5.376 -0.0229 -0.4129  0.5178
 2204ntf    fn411999   0.930   6.367   5.466  0.5454  0.0572 -0.0950
 2204ntf    fn412000   0.721   6.390   5.491 -0.3697  0.0011 -0.4140
 2205ntf    cn112001   4.977   5.915   1.014  0.1674  0.5461  0.1307
 2205ntf    sn212002   4.893   6.014   0.887  0.1137 -0.0887 -0.3289
 2205ntf    nn312003   4.927   6.157   0.943  0.0349 -0.0373 -0.4125
 2205ntf    sn212004   4.843   6.245   1.042  0.0183 -0.3030 -0.1914
 2205ntf    cn112005   4.772   6.362   0.924  0.2010  0.1408  0.1363
 2205ntf    fn412006   5.002   5.790   0.979 -0.2556  0.5252 -0.0925
 2205ntf    fn412007   5.095   5.965   1.048  0.3107  0.2909  0.0057
 2205ntf    fn412008   4.913   5.910   1.130  0.0549  0.3282  0.0597
 2205ntf    on512009   4.966   5.990   0.764  0.1571 -0.6918 -0.1908
 2205ntf    on512010   4.756   5.969   0.892  0.1352 -0.1124  0.0276
 2205ntf    on512011   4.924   6.331   1.125 -0.4549 -0.0284 -0.0128
 2205ntf    on512012   4.727   6.184   1.102 -0.1706 -0.0315 -0.2791
 2205ntf    fn412013   4.864   6.428   0.856  0.6092 -0.0845  0.4710
 2205ntf    fn412014   4.703   6.310   0.823  0.2132  0.0244  0.1887
 2205ntf    fn412015   4.695   6.457   0.975  0.1630  0.2380 -0.0990
 2206ntf    cn112016   0.423   1.945   3.748 -0.1484 -0.0532 -0.0326
 2206ntf    sn212017   0.419   2.078   3.624 -0.1050 -0.1494 -0.1371
 2206ntf    nn312018   0.334   2.182   3.706 -0.0131  0.0923 -0.3455
 2206ntf    sn212019   0.184   2.227   3.692 -0.1355 -0.1891  0.0138
 2206ntf    cn112020   0.122   2.146   3.842  0.2364  0.0510  0.3025
 2206ntf    fn412021   0.459   1.986   3.869 -0.0263  0.2606 -0.1731
 2206ntf    fn412022   0.306   1.885   3.765  0.1423 -0.6271 -0.0552
 2206ntf    fn412023   0.501   1.847   3.708 -0.3882 -0.3811  0.2985
 2206ntf    on512024   0.556   2.120   3.614 -0.1404  0.0055  0.0145
 2206ntf    on512025   0.357   2.021   3.507 -0.7041  0.5359 -0.1621
 2206ntf    on512026   0.111   2.174   3.580  0.3456  0.2729 -0.5252
 2206ntf    on512027   0.158   2.366   3.724 -0.0133 -0.2014  0.1667
 2206ntf    fn412028   0.180   2.199   3.948 -0.3082  0.6706  0.2969
 2206ntf    fn412029  -0.009   2.169   3.846  0.2044 -0.0265 -0.1660
 2206ntf    fn412030   0.135   2.014   3.841 -0.1084  0.0161 -0.1451
 2207ntf    cn112031   2.415   1.840   5.552 -0.0777  0.3053 -0.3138
 2207ntf    sn212032   2.590   1.862   5.512  0.0476  0.1445  0.1359
 2207ntf    nn312033   2.644   1.895   5.656  1.0666 -0.0060 -0.1992
 2207ntf    sn212034   2.688   1.794   5.767  0.0355 -0.1203  0.1120
 2207ntf    cn112035   2.867   1.784   5.741  0.0570 -0.2041  0.2909
 2207ntf    fn412036   2.343   1.808   5.446 -0.0674 -0.6965 -0.0308
 2207ntf    fn412037   2.397   1.750   5.648 -0.5397 -0.0996 -0.7735
 2207ntf    fn412038   2.361   1.952   5.598  0.0144  0.1688  0.1305
 2207ntf    on512039   2.641   1.737   5.461 -0.7525 -0.4784  0.8403
 2207ntf    on512040   2.577   1.972   5.419  0.7808 -0.1070 -0.2704
 2207ntf    on512041   2.641   1.657   5.763  0.1756 -0.1640 -0.0271
 2207ntf    on512042   2.668   1.864   5.892 -0.2390  0.2187 -0.1210
 2207ntf    fn412043   2.919   1.683   5.674 -0.2257  0.0511 -0.3185
 2207ntf    fn412044   2.919   1.892   5.685 -0.6223  0.0689  0.1868
 2207ntf    fn412045   2.924   1.763   5.859 -0.3998 -0.7251  0.4233
 2208ntf    cn112046   5.901   2.964   0.063 -0.0365  0.3832 -0.0517
 2208ntf    sn212047   5.835   2.885  -0.087 -0.1066  0.0554  0.1504
 2208ntf    nn312048   5.964   2.844  -0.168 -0.4605  0.0957 -0.4409
 2208ntf    sn212049   5.972   2.804  -0.319 -0.1505 -0.1963 -0.3484
 2208ntf    cn112050   5.945   2.624  -0.311 -0.1150 -0.1717  0.3362
 2208ntf    fn412051   5.811   3.006   0.150  0.2093 -0.3137  0.5476
 2208ntf    fn412052   5.991   2.889   0.125  0.1294  0.2683 -0.4244
 2208ntf    fn412053   5.971   3.071   0.029 -0.4578  0.6877  0.0398
 2208ntf    on512054   5.765   2.769  -0.038  0.0955 -0.1926 -0.1367
 2208ntf    on512055   5.761   2.989  -0.154  0.2101  0.0175 -0.2610
 2208ntf    on512056   6.106   2.805  -0.370  0.0401 -0.1139  0.1494
 2208ntf    on512057   5.868   2.854  -0.406 -0.3288  0.4131  0.2096
 2208ntf    fn412058   5.966   2.558  -0.424 -0.4707 -0.0682  0.2073
 2208ntf    fn412059   6.029   2.567  -0.226  0.2275  0.0508  0.1526
 2208ntf    fn412060   5.821   2.591  -0.280 -0.2698 -0.1199 -0.2241
 2209ntf    cn112061   0.999   0.865   0.430 -0.2563 -0.2637 -0.4520
 2209ntf    sn212062   1.095   0.784   0.561  0.0785  0.1302 -0.4531
 2209ntf    nn312063   0.977   0.717   0.641  0.5037 -0.5193 -0.3644
 2209ntf    sn212064   0.914   0.575   0.617  0.1777 -0.4683  0.1857
 2209ntf    cn112065   0.736   0.606   0.595  0.2001 -0.5723 -0.1386
 2209ntf    fn412066   1.080   0.921   0.341 -0.2993 -0.0298 -0.3436
 2209ntf    fn412067   0.917   0.788   0.359 -0.1294  0.3236 -1.2480
 2209ntf    fn412068   0.929   0.967   0.476 -0.2794 -0.1907 -0.6445
 2209ntf    on512069   1.189   0.701   0.490  0.6000  0.3982 -0.0858
 2209ntf    on512070   1.156   0.896   0.628  0.0162 -0.2252  0.2078
 2209ntf    on512071   0.907   0.503   0.742  0.3956  0.7058  0.8991
 2209ntf    on512072   0.956   0.505   0.498  0.5158 -0.0631  0.0658
 2209ntf    fn412073   0.675   0.638   0.707  0.5135  0.0694 -0.1445
 2209ntf    fn412074   0.712   0.706   0.511  0.8644 -0.1031  0.2224
 2209ntf    fn412075   0.678   0.498   0.545 -0.0025 -0.4067 -0.2644
 2210ntf    cn112076   0.231   1.119   5.785  0.2605 -0.0250 -0.0464
 2210ntf    sn212077   0.261   1.082   5.609 -0.2342  0.0333 -0.1471
 2210ntf    nn312078   0.196   1.208   5.542  0.0628  0.2905  0.0373
 2210ntf    sn212079   0.263   1.333   5.475  0.0369  0.2477 -0.0697
 2210ntf    cn112080   0.121   1.420   5.404  0.1226  0.0283 -0.5162
 2210ntf    fn412081   0.286   1.033   5.869  0.2007 -0.1316 -0.1154
 2210ntf    fn412082   0.281   1.236   5.820 -0.5543  0.2655  0.1807
 2210ntf    fn412083   0.103   1.130   5.817  0.1250 -0.2271 -0.5003
 2210ntf    on512084   0.404   1.063   5.604 -0.3113 -0.5317 -0.1883
 2210ntf    on512085   0.181   0.964   5.589 -0.3338  0.0916 -0.0925
 2210ntf    on512086   0.348   1.310   5.360 -0.0913  0.7841 -0.2730
 2210ntf    on512087   0.319   1.424   5.571  0.2763 -0.0646  0.0922
 2210ntf    fn412088   0.045   1.482   5.493 -0.7941 -0.4617 -0.9334
 2210ntf    fn412089   0.159   1.510   5.315 -0.4986  0.5096 -0.3067
 2210ntf    fn412090   0.041   1.335   5.341  0.2811 -0.3781 -0.1732
 2211ntf    cn112091   5.953   0.686   3.899 -0.1345 -0.1188 -0.2113
 2211ntf    sn212092   6.115   0.722   3.825 -0.0631 -0.0695 -0.0328
 2211ntf    nn312093   6.196   0.596   3.870  0.4795  0.2869 -0.0066
 2211ntf    sn212094   6.284   0.590   4.000  0.1459  0.0441  0.2108
 2211ntf    cn112095   6.331   0.415   3.999 -0.3581 -0.0923  0.0148
 2211ntf    fn412096   5.903   0.569   3.861  0.1072 -0.2328 -0.1786
 2211ntf    fn412097   5.953   0.678   4.031  0.1215  0.5722 -0.1661
 2211ntf    fn412098   5.867   0.782   3.869 -0.2956 -0.2924 -0.3081
 2211ntf    on512099   6.082   0.729   3.684 -0.5684  0.8033  0.1195
 2211ntf    on512100   6.160   0.844   3.888  0.2311 -0.2782  0.1580
 2211ntf    on512101   6.207   0.605   4.120 -0.0871 -0.0962  0.0782
 2211ntf    on512102   6.411   0.659   3.993  0.1893 -0.0431  0.1323
 2211ntf    fn412103   6.232   0.330   4.017  0.2516 -0.6479  0.8096
 2211ntf    fn412104   6.386   0.377   3.885 -0.0848 -0.0259  0.1233
 2211ntf    fn412105   6.422   0.386   4.091 -0.1366 -0.2496 -0.2518
 2212ntf    cn112106   4.495   3.779   6.040 -0.1831  0.1513 -0.1900
 2212ntf    sn212107   4.668   3.794   6.095 -0.2574  0.1956  0.0324
 2212ntf    nn312108   4.650   3.782   6.250  0.6859  0.0065  0.1341
 2212ntf    sn212109   4.721   3.682   6.348 -0.2392 -0.3494  0.4481
 2212ntf    cn112110   4.887   3.755   6.363 -0.3282  0.0255 -0.3497
 2212ntf    fn412111   4.482   3.823   5.916 -0.2196  0.0084 -0.2377
 2212ntf    fn412112   4.438   3.659   6.045 -0.7471  0.3895 -0.8135
 2212ntf    fn412113   4.418   3.853   6.117  0.6543  0.6559  0.1751
 2212ntf    on512114   4.738   3.688   6.026 -0.8622 -0.3811  0.2879
 2212ntf    on512115   4.706   3.928   6.056  0.0988 -0.0450 -0.4648
 2212ntf    on512116   4.743   3.549   6.296  0.3847 -0.1367  0.1700
 2212ntf    on512117   4.660   3.695   6.478  0.3179  0.5455  0.6275
 2212ntf    fn412118   4.935   3.800   6.248  0.2488 -0.1099 -0.1626
 2212ntf    fn412119   4.879   3.844   6.461  0.1664 -0.6070  0.2722
 2212ntf    fn412120   4.981   3.667   6.393 -0.3454 -0.1491 -0.7961
 2213ntf    cn112121   2.648   1.109   2.135 -0.0346  0.0639 -0.0949
 2213ntf    sn212122   2.592   0.967   2.232 -0.0129 -0.1085 -0.3334
 2213ntf    nn312123   2.577   1.039   2.371  0.3496 -0.7735  0.0599
 2213ntf    sn212124   2.450   1.052   2.462  0.0655 -0.2101 -0.4073
 2213ntf    cn112125   2.490   0.916   2.577  0.3810  0.3670  0.1700
 2213ntf    fn412126   2.768   1.148   2.177 -0.0508  0.2131 -0.1837
 2213ntf    fn412127   2.661   1.085   2.005  0.2865 -0.2471 -0.0060
 2213ntf    fn412128   2.565   1.211   2.151  0.3763  0.3970 -0.0509
 2213ntf    on512129   2.473   0.930   2.159 -0.3080 -0.1497  0.1608
 2213ntf    on512130   2.707   0.879   2.241 -0.4589 -0.6603  0.0850
 2213ntf    on512131   2.321   1.022   2.404 -0.0248 -0.1458 -0.2402
 2213ntf    on512132   2.458   1.167   2.548 -0.1361 -0.0406 -0.6154
 2213ntf    fn412133   2.408   0.909   2.681  0.2211 -0.1896  0.0100
 2213ntf    fn412134   2.496   0.798   2.519  0.3698  0.3485  0.2066
 2213ntf    fn412135   2.608   0.934   2.634  0.5543 -0.6217  0.1338
 2214ntf    cn112136   1.695   5.128   5.542  0.3385  0.0191 -0.1114
 2214ntf    sn212137   1.586   5.201   5.416 -0.0365  0.0770  0.2445
 2214ntf    nn312138   1.487   5.290   5.500 -0.1643  0.2328 -0.0714
 2214ntf    sn212139   1.352   5.246   5.565  0.0769  0.0206  0.2915
 2214ntf    cn112140   1.237   5.281   5.428  0.4547  0.1269  0.0005
 2214ntf    fn412141   1.754   5.228   5.605 -0.1379  0.0513  0.2907
 2214ntf    fn412142   1.632   5.052   5.631 -0.1410  0.0481 -0.4191
 2214ntf    fn412143   1.795   5.057   5.493  0.2426 -0.1680 -0.0407
 2214ntf    on512144   1.672   5.282   5.333  0.1876 -0.6386 -0.2272
 2214ntf    on512145   1.512   5.098   5.347 -0.2055  0.5836 -0.3388
 2214ntf    on512146   1.322   5.341   5.669 -0.1900 -0.0032  0.2380
 2214ntf    on512147   1.326   5.109   5.601  0.3741 -0.1141  0.0008
 2214ntf    fn412148   1.233   5.410   5.400 -0.8100 -0.0557 -0.7537
 2214ntf    fn412149   1.260   5.211   5.318  0.2405 -0.3314  0.2436
 2214ntf    fn412150   1.113   5.252   5.462  0.5484  0.0972  0.3171
 2215ntf    cn112151   5.777   2.117   4.517 -0.3553  0.1873 -0.2051
 2215ntf    sn212152   5.706   1.954   4.555  0.6125 -0.1793  0.0629
 2215ntf    nn312153   5.764   1.875   4.432  0.2314  0.0238 -0.2498
 2215ntf    sn212154   5.896   1.791   4.420  0.1453 -0.1427 -0.0282
 2215ntf    cn112155   5.849   1.620   4.459  0.0224 -0.1220 -0.0866
 2215ntf    fn412156   5.727   2.217   4.588  0.1018  0.0831  0.2736
 2215ntf    fn412157   5.908   2.112   4.539 -0.3861  0.1564 -0.0195
 2215ntf    fn412158   5.752   2.151   4.391  0.0006  0.3481 -0.2346
 2215ntf    on512159   5.744   1.916   4.688 -0.5906 -0.4853  0.3262
 2215ntf    on512160   5.566   1.982   4.536  0.6064  0.0900  0.5041
 2215ntf    on512161   6.000   1.830   4.513 -0.0887  0.1251  0.1223
 2215ntf    on512162   5.936   1.769   4.283  0.2094 -0.0208 -0.0297
 2215ntf    fn412163   5.956   1.543   4.474  0.3961  0.4335  0.1304
 2215ntf    fn412164   5.777   1.612   4.569  0.2667 -0.1727  0.0711
 2215ntf    fn412165   5.779   1.562   4.362  0.3156  0.1607 -0.4704
 2216ntf    cn112166   0.624   3.799   5.418  0.3625 -0.0928 -0.2106
 2216ntf    sn212167   0.640   3.618   5.425  0.1855 -0.0963  0.1353
 2216ntf    nn312168   0.788   3.610   5.476  0.3270 -0.0907 -0.2681
 2216ntf    sn212169   0.921   3.630   5.395  0.3778  0.0678 -0.1456
 2216ntf    cn112170   0.975   3.460   5.362  0.3833  0.0110  0.1453
 2216ntf    fn412171   0.499   3.835   5.439  0.2575 -0.3443 -0.4014
 2216ntf    fn412172   0.691   3.867   5.510 -0.3875  0.2467  0.0944
 2216ntf    fn412173   0.658   3.848   5.300  0.2665  0.2275 -0.1042
 2216ntf    on512174   0.550   3.575   5.529 -0.0664  0.0355 -0.0279
 2216ntf    on512175   0.620   3.563   5.293  0.7362  0.0471 -0.0112
 2216ntf    on512176   1.023   3.680   5.485  0.2271 -0.1827  0.1679
 2216ntf    on512177   0.907   3.691   5.266 -0.4022  0.1029 -0.0464
 2216ntf    fn412178   1.015   3.398   5.472  0.1773 -0.3700  0.0088
 2216ntf    fn412179   0.879   3.392   5.301 -0.0414  0.3489  0.4389
 2216ntf    fn412180   1.078   3.453   5.278 -0.2826  0.0358 -0.6844
 2217ntf    cn112181   5.341   5.184   1.570 -0.5353  0.2656  0.2915
 2217ntf    sn212182   5.386   5.149   1.743 -0.1832 -0.4573  0.0559
 2217ntf    nn312183   5.509   5.052   1.732  0.3745  0.2208  0.2381
 2217ntf    sn212184   5.524   4.900   1.769  0.1643  0.0995 -0.1694
 2217ntf    cn112185   5.657   4.898   1.893  0.2672 -0.2736 -0.2864
 2217ntf    fn412186   5.333   5.075   1.496  0.1090  0.6838 -0.4099
 2217ntf    fn412187   5.229   5.254   1.563 -0.7778 -0.1885 -0.4609
 2217ntf    fn412188   5.441   5.252   1.515 -0.3786 -0.0286  0.2127
 2217ntf    on512189   5.432   5.277   1.791 -0.0359 -0.4356 -0.1365
 2217ntf    on512190   5.262   5.099   1.796  0.1030 -0.8299  0.3748
 2217ntf    on512191   5.574   4.830   1.653  0.0984 -0.6182  0.2313
 2217ntf    on512192   5.421   4.826   1.837  0.3396 -0.2317 -0.2596
 2217ntf    fn412193   5.762   4.958   1.840  0.1446 -0.5865 -0.8956
 2217ntf    fn412194   5.636   4.968   2.003  0.0881 -0.1222 -0.4180
 2217ntf    fn412195   5.694   4.774   1.924 -0.2107 -0.2372  0.4411
 2218ntf    cn112196   6.680   4.728   2.615 -0.0856  0.2527  0.0672
 2218ntf    sn212197   6.609   4.680   2.455  0.0142  0.4634 -0.0413
 2218ntf    nn312198   6.469   4.631   2.507  0.2900  0.2676  0.5172
 2218ntf    sn212199   6.333   4.709   2.500  0.0443 -0.2056 -0.0271
 2218ntf    cn112200   6.263   4.652   2.658  0.7925 -0.0014  0.3808
 2218ntf    fn412201   6.796   4.789   2.595  0.1269 -0.2846 -0.3641
 2218ntf    fn412202   6.603   4.811   2.684 -0.2144 -0.0154  0.2448
 2218ntf    fn412203   6.702   4.618   2.685 -0.7072  0.1390  0.0906
 2218ntf    on512204   6.625   4.800   2.377 -0.6442  0.7325  0.2225
 2218ntf    on512205   6.687   4.570   2.404 -0.3702 -0.0273  0.4070
 2218ntf    on512206   6.241   4.650   2.406  0.2177 -0.0344 -0.3053
 2218ntf    on512207   6.343   4.851   2.517  1.0235 -0.2308 -0.3307
 2218ntf    fn412208   6.149   4.707   2.695  0.3914 -0.6218  0.0747
 2218ntf    fn412209   6.236   4.524   2.642  0.1393  0.2081 -0.2627
 2218ntf    fn412210   6.349   4.657   2.759  0.4990  0.1636  0.6247
 2219ntf    cn112211   5.930   0.674   2.316  0.1134 -0.0019 -0.2137
 2219ntf    sn212212   5.762   0.744   2.308  0.1092 -0.0286 -0.3859
 2219ntf    nn312213   5.706   0.684   2.174 -0.2336 -0.6837  0.0459
 2219ntf    sn212214   5.588   0.720   2.078 -0.0573 -0.1555  0.0220
 2219ntf    cn112215   5.547   0.550   2.027  0.4863 -0.2292 -0.1801
 2219ntf    fn412216   5.991   0.709   2.427 -0.4120  0.0011  0.0774
 2219ntf    fn412217   5.929   0.543   2.300  0.4186 -0.0179 -0.0982
 2219ntf    fn412218   6.008   0.713   2.217  0.7963  0.2468  0.4180
 2219ntf    on512219   5.693   0.691   2.423  0.0664  0.8015 -0.0147
 2219ntf    on512220   5.784   0.887   2.309  0.2022 -0.0450  0.0910
 2219ntf    on512221   5.633   0.783   1.956  0.6271  0.4653  0.5892
 2219ntf    on512222   5.474   0.772   2.149 -0.2496 -0.0120 -0.3887
 2219ntf    fn412223   5.644   0.485   1.966  0.4488 -0.5520  0.0965
 2219ntf    fn412224   5.518   0.471   2.130 -0.3380  0.0731 -0.1757
 2219ntf    fn412225   5.439   0.551   1.951  0.2059  0.3154  0.2134
 2220ntf    cn112226   2.827   0.611   4.586  0.2772 -0.4387 -0.0877
 2220ntf    sn212227   2.645   0.610   4.601  0.2709 -0.1016 -0.1194
 2220ntf    nn312228   2.615   0.763   4.617 -0.3036 -0.1905 -0.3252
 2220ntf    sn212229   2.549   0.862   4.515 -0.1029  0.1722 -0.1071
 2220ntf    cn112230   2.375   0.865   4.569 -0.2107 -0.0612 -0.4367
 2220ntf    fn412231   2.893   0.662   4.689 -0.0755 -0.0538 -0.0456
 2220ntf    fn412232   2.869   0.487   4.573  0.0664 -0.5145 -0.0511
 2220ntf    fn412233   2.866   0.683   4.482 -0.3552 -0.3808 -0.2886
 2220ntf    on512234   2.604   0.546   4.479  0.4850 -0.0082 -0.2406
 2220ntf    on512235   2.622   0.550   4.731 -0.0346  0.0773 -0.0925
 2220ntf    on512236   2.548   0.815   4.378  0.4635 -0.1434 -0.0090
 2220ntf    on512237   2.599   0.996   4.535 -0.9161  0.4901 -0.1677
 2220ntf    fn412238   2.333   0.741   4.581  0.1538 -0.1749 -0.3277
 2220ntf    fn412239   2.352   0.917   4.688  0.1381 -0.4383 -0.2058
 2220ntf    fn412240   2.300   0.919   4.474 -0.3235  0.2310 -0.1830
 2221ntf    cn112241   5.239   2.224   5.155  0.2759  0.1351  0.0080
 2221ntf    sn212242   5.091   2.179   5.250  0.1795 -0.0540 -0.2301
 2221ntf    nn312243   4.990   2.274   5.178  0.0237  0.3794  0.5427
 2221ntf    sn212244   4.833   2.268   5.171  0.0852 -0.2575 -0.5603
 2221ntf    cn112245   4.779   2.435   5.217 -0.0732 -0.3462 -0.4223
 2221ntf    fn412246   5.285   2.346   5.179  0.3597  0.0456  0.3012
 2221ntf    fn412247   5.337   2.140   5.183 -0.0309 -0.2734 -0.1387
 2221ntf    fn412248   5.206   2.224   5.026 -0.2144 -0.0589  0.1315
 2221ntf    on512249   5.071   2.037   5.230 -0.3046  0.0469 -0.4637
 2221ntf    on512250   5.129   2.217   5.384  0.2187 -0.3464 -0.1574
 2221ntf    on512251   4.770   2.198   5.280  0.3298  0.2770 -0.0708
 2221ntf    on512252   4.773   2.252   5.040 -0.4534  0.5290 -0.4190
 2221ntf    fn412253   4.648   2.454   5.219 -0.0217 -0.0440  0.1203
 2221ntf    fn412254   4.827   2.480   5.332 -0.2227  0.3156 -0.6159
 2221ntf    fn412255   4.818   2.521   5.124 -0.5097 -0.1568 -0.4325
 2222ntf    cn112256   4.937   0.376   6.733 -0.0534  0.0458 -0.1311
 2222ntf    sn212257   4.786   0.277   6.713 -0.1455  0.1738 -0.0700
 2222ntf    nn312258   4.823   0.150   6.797  0.2834  0.5025  0.2388
 2222ntf    sn212259   4.908   0.023   6.760 -0.3275  0.2421 -0.2904
 2222ntf    cn112260   5.002   0.006   6.915 -0.4065  0.4658 -0.2186
 2222ntf    fn412261   5.054   0.327   6.693 -0.0738  0.0918 -0.2447
 2222ntf    fn412262   4.913   0.488   6.668  0.1640  0.0832 -0.1483
 2222ntf    fn412263   4.951   0.412   6.860 -0.3214 -0.1006 -0.0590
 2222ntf    on512264   4.687   0.363   6.772 -0.1239 -0.4590  0.9183
 2222ntf    on512265   4.784   0.260   6.570 -0.2826 -0.3030 -0.0142
 2222ntf    on512266   5.018   0.058   6.673  0.1511 -0.1715  0.1419
 2222ntf    on512267   4.840  -0.101   6.736  0.6863 -0.3743 -0.0552
 2222ntf    fn412268   4.931  -0.042   7.015 -0.4296 -0.2161 -0.5603
 2222ntf    fn412269   5.109  -0.070   6.902 -0.1120  0.8554 -0.0954
 2222ntf    fn412270   5.040   0.122   6.968 -0.4775  0.2807  0.2416
 2223ntf    cn112271   3.594   0.845   2.984 -0.0815  0.0426  0.3473
 2223ntf    sn212272   3.695   0.921   3.114  0.0215  0.0919  0.2385
 2223ntf    nn312273   3.661   0.842   3.246 -0.1976 -0.3022 -0.0555
 2223ntf    sn212274   3.544   0.869   3.347  0.0855  0.0520  0.1805
 2223ntf    cn112275   3.501   0.700   3.398  0.0232 -0.0656 -0.2519
 2223ntf    fn412276   3.613   0.714   2.991  0.0578  0.0289 -0.2391
 2223ntf    fn412277   3.465   0.872   2.980 -0.0199  0.2214 -0.4662
 2223ntf    fn412278   3.640   0.880   2.865 -0.1161 -0.5374  0.1604
 2223ntf    on512279   3.828   0.889   3.069 -0.1344  0.2021 -0.3056
 2223ntf    on512280   3.664   1.062   3.110 -0.4016 -0.0127 -0.1818
 2223ntf    on512281   3.426   0.923   3.285 -0.2761 -0.5432  0.3455
 2223ntf    on512282   3.589   0.909   3.477  0.2060  0.1746  0.1016
 2223ntf    fn412283   3.403   0.702   3.488  0.0372  0.1908 -0.2423
 2223ntf    fn412284   3.468   0.630   3.291 -0.0656 -0.4149  0.0051
 2223ntf    fn412285   3.605   0.646   3.458  0.1915  0.2866 -0.2213
 2224ntf    cn112286   1.176   4.316   0.476  0.2169 -0.4995  0.3562
 2224ntf    sn212287   1.008   4.247   0.495  0.0354 -0.2239 -0.2475
 2224ntf    nn312288   1.037   4.105   0.556 -0.0484 -0.1203  0.0317
 2224ntf    sn212289   0.956   4.018   0.658  0.1482 -0.2141  0.1073
 2224ntf    cn112290   1.049   4.041   0.813  0.1321 -0.1104  0.1015
 2224ntf    fn412291   1.247   4.328   0.587  0.2454  0.4202  0.2383
 2224ntf    fn412292   1.253   4.230   0.412  0.1968 -0.2021 -0.0646
 2224ntf    fn412293   1.187   4.428   0.408  0.3299 -0.3392  0.6392
 2224ntf    on512294   0.946   4.340   0.586  0.3507 -0.1845 -0.0716
 2224ntf    on512295   0.959   4.243   0.359  0.5176  0.1561 -0.4371
 2224ntf    on512296   0.964   3.876   0.631  0.4796 -0.2312  0.2841
 2224ntf    on512297   0.826   4.076   0.680  0.3351  0.4714 -0.5534
 2224ntf    fn412298   1.178   4.019   0.795  0.2241  0.4345  0.0954
 2224ntf    fn412299   1.034   4.161   0.866  0.5779 -0.2253  0.4950
 2224ntf    fn412300   1.012   3.955   0.907 -0.2818  0.0974  0.1308
 2225ntf    cn112301   2.398   5.264   2.662 -0.1260  0.0593 -0.0170
 2225ntf    sn212302   2.269   5.277   2.790 -0.1667  0.0953 -0.0619
 2225ntf    nn312303   2.161   5.188   2.718  0.1584 -0.2244 -0.1575
 2225ntf    sn212304   2.106   5.197   2.571  0.1207  0.1834 -0.1215
 2225ntf    cn112305   1.936   5.243   2.613  0.1014  0.3690 -0.4086
 2225ntf    fn412306   2.401   5.149   2.597 -0.4676 -0.3045  0.5994
 2225ntf    fn412307   2.390   5.362   2.573  0.1058 -0.2084 -0.3320
 2225ntf    fn412308   2.519   5.277   2.714 -0.1623  0.6152 -0.0627
 2225ntf    on512309   2.318   5.211   2.908  0.4356  0.4378 -0.1152
 2225ntf    on512310   2.237   5.417   2.805  0.2243  0.1545  0.2183
 2225ntf    on512311   2.085   5.070   2.506  0.3336 -0.0421  0.2382
 2225ntf    on512312   2.151   5.307   2.490 -0.3266  0.6445  0.2551
 2225ntf    fn412313   1.849   5.206   2.520  0.4759 -0.4825 -0.4280
 2225ntf    fn412314   1.889   5.180   2.719  0.1727 -0.3947 -0.8238
 2225ntf    fn412315   1.917   5.373   2.628  0.0175  0.2488  0.5708
 2226ntf    cn112316   4.681   6.604   0.603  0.0459 -0.3604  0.3189
 2226ntf    sn212317   4.755   6.763   0.554  0.0552 -0.4580  0.0084
 2226ntf    nn312318   4.702   6.775   0.407  0.0034  0.5351  0.1005
 2226ntf    sn212319   4.582   6.844   0.333 -0.2301  0.1672  0.1356
 2226ntf    cn112320   4.654   6.989   0.249  0.2917 -0.2996 -0.2313
 2226ntf    fn412321   4.550   6.618   0.606  0.1081  0.3879 -0.1649
 2226ntf    fn412322   4.711   6.507   0.518 -0.6060 -0.0416 -0.2808
 2226ntf    fn412323   4.723   6.573   0.724  0.5354 -0.3738  0.1475
 2226ntf    on512324   4.701   6.858   0.649  0.6249 -0.2727  0.1482
 2226ntf    on512325   4.897   6.739   0.559  0.2252  0.4796  0.0334
 2226ntf    on512326   4.484   6.900   0.423 -0.1662  0.2052  0.1814
 2226ntf    on512327   4.546   6.772   0.213  0.3098 -0.0156  0.0796
 2226ntf    fn412328   4.559   7.062   0.193 -0.0128 -0.4911  0.0320
 2226ntf    fn412329   4.724   7.066   0.330 -0.0122 -0.0714 -0.1843
 2226ntf    fn412330   4.726   6.953   0.144 -0.2118  0.0528 -0.6994
 2227ntf    cn112331   6.484   5.426   3.485  0.0293  0.2418 -0.0503
 2227ntf    sn212332   6.509   5.255   3.427 -0.0509  0.1942  0.0549
 2227ntf    nn312333   6.587   5.280   3.293 -0.1110  0.0557 -0.0067
 2227ntf    sn212334   6.527   5.266   3.148 -0.0634 -0.0718 -0.0138
 2227ntf    cn112335   6.647   5.363   3.052 -0.4259  0.3686 -0.0239
 2227ntf    fn412336   6.581   5.508   3.450  0.2049 -0.1403 -0.4727
 2227ntf    fn412337   6.379   5.486   3.431  0.3634  0.7683 -0.1204
 2227ntf    fn412338   6.460   5.430   3.615 -0.6486 -0.1389 -0.1580
 2227ntf    on512339   6.590   5.212   3.538  0.0303  0.0867 -0.0462
 2227ntf    on512340   6.376   5.199   3.413  0.2819 -0.5042 -0.3628
 2227ntf    on512341   6.406   5.340   3.124 -0.1425 -0.3509 -0.4865
 2227ntf    on512342   6.541   5.137   3.086 -0.1211 -0.0667 -0.0363
 2227ntf    fn412343   6.641   5.347   2.920 -0.0030 -0.1882  0.0188
 2227ntf    fn412344   6.637   5.491   3.080 -0.3344  0.4489 -0.3590
 2227ntf    fn412345   6.772   5.331   3.079 -0.4551  0.0796 -0.2092
 2228ntf    cn112346   5.285   1.692   2.093  0.0894  0.7012 -0.2047
 2228ntf    sn212347   5.456   1.726   2.044  0.1975 -0.3618 -0.5918
 2228ntf    nn312348   5.515   1.581   2.051 -0.1597 -0.4682  0.2639
 2228ntf    sn212349   5.658   1.541   2.100  0.0151 -0.1004  0.0567
 2228ntf    cn112350   5.773   1.613   1.979  0.2617 -0.4546  0.0787
 2228ntf    fn412351   5.216   1.636   1.995  0.0876 -0.2284  0.3130
 2228ntf    fn412352   5.266   1.600   2.187 -0.1728  0.5343 -0.4199
 2228ntf    fn412353   5.220   1.798   2.139 -0.5138  0.4552 -0.4771
 2228ntf    on512354   5.457   1.784   1.912  0.1768  0.5391 -0.2073
 2228ntf    on512355   5.493   1.809   2.156  0.0226 -0.6632 -0.3100
 2228ntf    on512356   5.688   1.400   2.082  0.0161 -0.0413 -0.4203
 2228ntf    on512357   5.708   1.608   2.217  0.1814  0.2135 -0.1951
 2228ntf    fn412358   5.766   1.744   1.968 -0.1404 -0.4975 -0.1879
 2228ntf    fn412359   5.893   1.561   2.002  0.1664 -0.5220  0.4349
 2228ntf    fn412360   5.742   1.575   1.856  0.5455  0.2331 -0.2105
 2229ntf    cn112361   4.602   3.205   1.612  0.1634  0.5156 -0.1165
 2229ntf    sn212362   4.728   3.074   1.599 -0.1594  0.1755  0.1569
 2229ntf    nn312363   4.630   2.951   1.609  0.1927 -0.1328 -0.1593
 2229ntf    sn212364   4.571   2.857   1.498 -0.0141 -0.0371 -0.1307
 2229ntf    cn112365   4.488   2.737   1.606 -0.0511  0.2666  0.1799
 2229ntf    fn412366   4.666   3.320   1.621  0.1838  0.5231 -0.3387
 2229ntf    fn412367   4.528   3.209   1.502 -0.2859 -0.0355  0.1625
 2229ntf    fn412368   4.525   3.200   1.719  0.0347 -0.7327 -0.2487
 2229ntf    on512369   4.787   3.100   1.470 -0.2959  0.1699  0.0934
 2229ntf    on512370   4.810   3.099   1.714  0.3609  0.1973 -0.2173
 2229ntf    on512371   4.672   2.782   1.428  0.7894  0.3959  0.5433
 2229ntf    on512372   4.472   2.916   1.411  0.2911  0.5284 -0.1014
 2229ntf    fn412373   4.383   2.791   1.666  0.2838  0.6736  0.4055
 2229ntf    fn412374   4.450   2.629   1.539 -0.6267  0.3000  0.4417
 2229ntf    fn412375   4.565   2.693   1.704 -0.0276  0.1609  0.1141
 2230ntf    cn112376   2.913   0.509   6.006  0.1606  0.0898 -0.4553
 2230ntf    sn212377   3.062   0.406   6.000  0.1260  0.0202 -0.1332
 2230ntf    nn312378   3.084   0.397   5.845 -0.4026  0.2371 -0.2211
 2230ntf    sn212379   3.185   0.481   5.759  0.0542 -0.2278 -0.1437
 2230ntf    cn112380   3.345   0.420   5.820 -0.0392 -0.0225  0.3075
 2230ntf    fn412381   2.859   0.515   6.127 -0.0093 -0.6132 -0.4929
 2230ntf    fn412382   2.935   0.637   5.982 -0.1463  0.3586  0.6487
 2230ntf    fn412383   2.817   0.468   5.925 -0.1324 -0.3840  0.1213
 2230ntf    on512384   3.163   0.473   6.078  0.0446  0.1526 -0.1425
 2230ntf    on512385   3.020   0.279   6.053  0.0675  0.3357  0.5906
 2230ntf    on512386   3.186   0.621   5.793 -0.0459 -0.2864  0.1005
 2230ntf    on512387   3.176   0.443   5.620  0.2881 -0.6123 -0.0543
 2230ntf    fn412388   3.362   0.412   5.951  0.5804 -0.2704  0.2171
 2230ntf    fn412389   3.362   0.294   5.781 -0.3152 -0.0148  0.1575
 2230ntf    fn412390   3.445   0.495   5.778  0.1701 -0.5508 -0.1477
 2231ntf    cn112391   5.243   0.115   4.778 -0.1598 -0.1794  0.4198
 2231ntf    sn212392   5.167  -0.001   4.660  0.1281  0.2546 -0.1965
 2231ntf    nn312393   5.061   0.079   4.577 -0.1441 -0.0818 -0.1770
 2231ntf    sn212394   5.024   0.076   4.424 -0.2090  0.0238 -0.1641
 2231ntf    cn112395   5.147   0.192   4.358 -0.4477  0.2762 -0.1646
 2231ntf    fn412396   5.318   0.203   4.713 -0.6671 -0.1269 -0.1068
 2231ntf    fn412397   5.161   0.181   4.859  0.6548  0.3906  0.7892
 2231ntf    fn412398   5.327   0.057   4.862  0.2049  0.0543  0.2165
 2231ntf    on512399   5.277  -0.049   4.580  0.5156  0.1006  0.4224
 2231ntf    on512400   5.113  -0.098   4.753 -0.4363  0.0080 -0.7791
 2231ntf    on512401   4.897   0.138   4.395 -0.2851  0.0416  0.2056
 2231ntf    on512402   5.045  -0.049   4.354  0.4802 -0.2618  0.5310
 2231ntf    fn412403   5.273   0.151   4.369 -0.3177  0.7580  0.1819
 2231ntf    fn412404   5.121   0.225   4.233  0.2651 -0.1245 -0.4273
 2231ntf    fn412405   5.153   0.305   4.428  0.2379  0.0586  0.1465
 2232ntf    cn112406   3.176   4.896   2.119  0.0052 -0.3134 -0.1565
 2232ntf    sn212407   3.220   5.061   2.181 -0.5668 -0.1810 -0.1003
 2232ntf    nn312408   3.174   5.057   2.331  0.2959 -0.2331  0.1686
 2232ntf    sn212409   3.078   5.151   2.412  0.4245 -0.0326  0.0897
 2232ntf    cn112410   2.946   5.032   2.452  0.2832 -0.0076 -0.3002
 2232ntf    fn412411   3.201   4.800   2.208 -0.2627 -0.1289  0.1185
 2232ntf    fn412412   3.049   4.892   2.082 -0.1304  0.4693  0.2005
 2232ntf    fn412413   3.245   4.863   2.011 -0.1021  0.1632 -0.3714
 2232ntf    on512414   3.364   5.061   2.171 -0.5446 -0.1591  0.1981
 2232ntf    on512415   3.156   5.154   2.092  0.2866  0.6413  0.1250
 2232ntf    on512416   3.013   5.254   2.335  0.2180 -0.0022  0.3030
 2232ntf    on512417   3.121   5.184   2.546 -0.4356 -0.0054  0.3663
 2232ntf    fn412418   2.990   4.924   2.514  0.1926  0.3003  0.3120
 2232ntf    fn412419   2.859   5.088   2.535  0.1068 -0.0559 -0.4527
 2232ntf    fn412420   2.870   4.992   2.352  0.4125 -0.2835 -0.2888
 2233ntf    cn112421   5.235   0.971   6.129  0.0079 -0.0735  0.0247
 2233ntf    sn212422   5.161   1.120   6.055  0.0119 -0.0661  0.0359
 2233ntf    nn312423   5.103   1.052   5.925 -0.3854  0.6572 -0.1688
 2233ntf    sn212424   4.956   1.023   5.880 -0.2941  0.1878 -0.1623
 2233ntf    cn112425   4.897   1.193   5.855  0.0258  0.3013 -0.1459
 2233ntf    fn412426   5.267   0.990   6.256 -0.0135 -0.2386  0.0558
 2233ntf    fn412427   5.144   0.876   6.117 -0.6348  0.4111  0.9362
 2233ntf    fn412428   5.342   0.930   6.064  0.0415  0.0954 -0.0265
 2233ntf    on512429   5.070   1.157   6.160  0.2467  0.7934 -0.0625
 2233ntf    on512430   5.269   1.208   6.021 -0.3593  0.3812  0.0068
 2233ntf    on512431   4.875   0.967   5.985  0.9518 -0.7291  0.3321
 2233ntf    on512432   4.934   0.954   5.755  0.2716  0.3078 -0.3281
 2233ntf    fn412433   4.811   1.188   5.755  0.1764 -0.1371 -0.2561
 2233ntf    fn412434   4.822   1.244   5.950 -0.3524 -0.0122 -0.2740
 2233ntf    fn412435   4.991   1.282   5.827  0.3616  0.0305  0.1105
 2234ntf    cn112436   0.358   1.950   1.069 -0.1316  0.0790 -0.2702
 2234ntf    sn212437   0.298   2.116   1.113 -0.2997 -0.0320 -0.0757
 2234ntf    nn312438   0.155   2.069   1.158 -0.2697  0.2535  0.3235
 2234ntf    sn212439   0.093   2.046   1.301 -0.1125 -0.2486  0.3151
 2234ntf    cn112440   0.079   1.865   1.306 -0.1228 -0.2580  0.0110
 2234ntf    fn412441   0.475   1.957   1.009  0.1000  0.1764  0.1915
 2234ntf    fn412442   0.369   1.864   1.170  0.4295  0.3077 -0.1373
 2234ntf    fn412443   0.282   1.884   0.983 -0.6934 -0.7274  0.8109
 2234ntf    on512444   0.384   2.171   1.215 -0.0411  0.2859 -0.4630
 2234ntf    on512445   0.287   2.185   0.987  0.1332 -0.2597 -0.2408
 2234ntf    on512446  -0.043   2.094   1.302 -0.0223  0.0043  0.6140
 2234ntf    on512447   0.173   2.073   1.418  0.2125 -0.0925  0.0623
 2234ntf    fn412448   0.002   1.818   1.403  0.1134 -0.0893  0.2836
 2234ntf    fn412449   0.021   1.823   1.195 -0.4737  0.8879 -0.2567
 2234ntf    fn412450   0.199   1.811   1.315 -0.0799 -0.1785 -0.0827
 2235ntf    cn112451   1.258   3.902   3.339 -0.1520 -0.0676  0.2657
 2235ntf    sn212452   1.121   3.864   3.225  0.2332  0.1299 -0.2661
 2235ntf    nn312453   1.087   3.722   3.282 -0.0630  0.1416 -0.4144
 2235ntf    sn212454   0.960   3.687   3.367  0.3792 -0.0779  0.1624
 2235ntf    cn112455   0.832   3.673   3.239  0.0379  0.4587  0.4401
 2235ntf    fn412456   1.341   3.805   3.371 -0.0098  0.0494  0.2530
 2235ntf    fn412457   1.327   4.006   3.294 -0.2698  0.1267  0.5296
 2235ntf    fn412458   1.213   3.943   3.457 -0.3981 -0.3339  0.2663
 2235ntf    on512459   1.029   3.971   3.253  0.1263  0.0361 -0.2602
 2235ntf    on512460   1.189   3.858   3.099  0.5828 -0.2812 -0.0600
 2235ntf    on512461   0.894   3.781   3.455 -0.5158 -0.1402 -0.4281
 2235ntf    on512462   0.972   3.554   3.421  0.7700  0.0333  0.3500
 2235ntf    fn412463   0.872   3.593   3.141 -0.0295  0.3332  0.5154
 2235ntf    fn412464   0.718   3.629   3.290  0.1733 -0.1177  0.2489
 2235ntf    fn412465   0.800   3.788   3.180 -0.2097  0.4130  0.4821
 2236ntf    cn112466   6.289   5.789   0.841 -0.2304 -0.2713 -0.2675
 2236ntf    sn212467   6.362   5.822   0.678 -0.1805 -0.0615 -0.2026
 2236ntf    nn312468   6.277   5.731   0.583 -0.1685 -0.2298 -0.0509
 2236ntf    sn212469   6.153   5.766   0.493  0.0087  0.0894 -0.1725
 2236ntf    cn112470   6.026   5.666   0.576 -0.1082  0.2889 -0.1110
 2236ntf    fn412471   6.157   5.805   0.843 -0.1823  0.1245 -0.2475
 2236ntf    fn412472   6.308   5.666   0.885  0.3662 -0.0464  0.1028
 2236ntf    fn412473   6.342   5.868   0.932  0.3311 -0.4275 -0.4555
 2236ntf    on512474   6.353   5.965   0.658  0.0085  0.0169  0.2517
 2236ntf    on512475   6.496   5.767   0.682 -0.3181 -0.3230  1.0850
 2236ntf    on512476   6.162   5.707   0.362 -0.7315 -0.0765 -0.1503
 2236ntf    on512477   6.096   5.898   0.496  0.0764  0.1155  0.0059
 2236ntf    fn412478   5.905   5.680   0.523 -0.2791 -0.3092  0.1112
 2236ntf    fn412479   6.062   5.538   0.575  0.1523  0.3607  0.1188
 2236ntf    fn412480   6.009   5.700   0.703 -0.3803 -0.7581  0.1449
 2237ntf    cn112481   3.641   2.285   1.043  0.3952 -0.0605  0.3599
 2237ntf    sn212482   3.755   2.422   1.005  0.2185  0.0372  0.1802
 2237ntf    nn312483   3.762   2.497   1.142 -0.0841 -0.2642  0.3629
 2237ntf    sn212484   3.678   2.622   1.188 -0.0476  0.0093 -0.3080
 2237ntf    cn112485   3.765   2.767   1.119 -0.0313  0.2061  0.1252
 2237ntf    fn412486   3.689   2.199   1.130  0.4819 -0.1532  0.2205
 2237ntf    fn412487   3.522   2.311   1.095  0.2256  0.0750 -0.0931
 2237ntf    fn412488   3.614   2.215   0.934  0.2750 -0.0388  0.3751
 2237ntf    on512489   3.879   2.354   0.976  0.1215 -0.1534  0.2046
 2237ntf    on512490   3.701   2.495   0.893  0.1018  0.1904  0.3367
 2237ntf    on512491   3.674   2.642   1.331  0.2209  0.3606 -0.3468
 2237ntf    on512492   3.552   2.644   1.122  0.0019  0.4342 -0.2654
 2237ntf    fn412493   3.704   2.881   1.149  0.0195  0.2309  0.1334
 2237ntf    fn412494   3.887   2.781   1.169  0.1248  0.5049 -0.3416
 2237ntf    fn412495   3.788   2.757   0.989 -0.2069  0.7007  0.0539
 2238ntf    cn112496   6.756   5.960   5.502  0.0878 -0.0073 -0.1146
 2238ntf    sn212497   6.737   5.821   5.619  0.1499  0.0576 -0.0279
 2238ntf    nn312498   6.675   5.716   5.521  0.2822 -0.1620  0.1242
 2238ntf    sn212499   6.618   5.572   5.547  0.0726 -0.1450 -0.2296
 2238ntf    cn112500   6.765   5.469   5.517  0.2284  0.0353 -0.0856
 2238ntf    fn412501   6.811   6.064   5.563 -0.5981  0.3952 -0.1741
 2238ntf    fn412502   6.843   5.929   5.408  0.1949  0.4610 -0.1729
 2238ntf    fn412503   6.640   6.001   5.453  0.2042  0.2547 -0.1710
 2238ntf    on512504   6.874   5.788   5.650  0.0045 -0.3996  0.1352
 2238ntf    on512505   6.644   5.866   5.720 -0.4532 -0.2562 -0.4388
 2238ntf    on512506   6.528   5.530   5.442 -0.1841 -0.0505 -0.0463
 2238ntf    on512507   6.580   5.541   5.682 -0.1741  0.1997 -0.2195
 2238ntf    fn412508   6.876   5.530   5.555 -0.0147  0.6624 -0.3730
 2238ntf    fn412509   6.754   5.354   5.582 -0.2154  0.0616 -0.1123
 2238ntf    fn412510   6.790   5.436   5.391  0.3958 -0.1559 -0.0036
 2239ntf    cn112511   6.613   6.511   1.008 -0.0877  0.0068 -0.4400
 2239ntf    sn212512   6.729   6.639   1.064 -0.2312 -0.0254 -0.0665
 2239ntf    nn312513   6.664   6.679   1.201  0.0011 -0.3295  0.1320
 2239ntf    sn212514   6.714   6.674   1.350 -0.3046 -0.0264  0.2449
 2239ntf    cn112515   6.847   6.797   1.339 -0.0235 -0.3151  0.4095
 2239ntf    fn412516   6.672   6.449   0.907  0.3723  0.1385 -0.2536
 2239ntf    fn412517   6.585   6.411   1.090  0.0875  0.1904 -0.1557
 2239ntf    fn412518   6.501   6.561   0.959 -0.1590  0.1386 -0.1445
 2239ntf    on512519   6.850   6.561   1.068 -0.5140 -0.4634  0.0648
 2239ntf    on512520   6.724   6.745   0.966 -0.1495  0.1933  0.1656
 2239ntf    on512521   6.769   6.548   1.392 -0.1435 -0.4285 -1.1440
 2239ntf    on512522   6.624   6.734   1.446  0.1331  0.3661  0.4153
 2239ntf    fn412523   6.806   6.910   1.284  0.3014 -0.1598  0.4843
 2239ntf    fn412524   6.890   6.834   1.459 -0.2240  0.4455  0.2538
 2239ntf    fn412525   6.956   6.772   1.267 -0.0655 -0.5169  0.4149
 2240ntf    cn112526   1.516   5.685   1.310  0.1189 -0.1288  0.2275
 2240ntf    sn212527   1.439   5.521   1.294 -0.2991  0.1279 -0.4653
 2240ntf    nn312528   1.471   5.454   1.433  0.0617  0.0686 -0.5766
 2240ntf    sn212529   1.539   5.315   1.460 -0.1570  0.0776  0.0162
 2240ntf    cn112530   1.394   5.223   1.520 -0.1048  0.0200  0.0545
 2240ntf    fn412531   1.647   5.666   1.306  0.1698  0.2879 -0.2261
 2240ntf    fn412532   1.487   5.773   1.215 -0.0098 -0.2441  0.1593
 2240ntf    fn412533   1.500   5.747   1.426 -0.1399  0.3007 -0.0343
 2240ntf    on512534   1.302   5.567   1.297 -0.1728  0.4815  0.1427
 2240ntf    on512535   1.495   5.468   1.172  0.4201 -0.5204  0.1388
 2240ntf    on512536   1.635   5.308   1.568 -0.2967 -0.7859  0.0920
 2240ntf    on512537   1.565   5.233   1.345 -0.2338 -0.5488  0.4373
 2240ntf    fn412538   1.347   5.272   1.634 -0.3158 -0.3929  0.1474
 2240ntf    fn412539   1.293   5.217   1.434  0.1586  0.6595 -0.3078
 2240ntf    fn412540   1.421   5.099   1.555 -0.1053  0.1286  0.4406
 2241ntf    cn112541   1.616   3.120   3.378 -0.5419 -0.2253 -0.2791
 2241ntf    sn212542   1.544   3.089   3.543  0.1307 -0.0012  0.0601
 2241ntf    nn312543   1.442   2.973   3.513 -0.0563  0.0910  0.3393
 2241ntf    sn212544   1.288   2.962   3.484 -0.0008 -0.0575  0.0987
 2241ntf    cn112545   1.250   2.880   3.641 -0.2895 -0.2292 -0.0595
 2241ntf    fn412546   1.655   3.010   3.316 -0.1713 -0.3498  0.1647
 2241ntf    fn412547   1.549   3.182   3.283  0.4202  0.2267 -0.6751
 2241ntf    fn412548   1.724   3.195   3.390 -0.5282 -0.2684 -0.1310
 2241ntf    on512549   1.656   3.040   3.620  0.8720  0.3466 -0.7735
 2241ntf    on512550   1.493   3.214   3.591  0.7371  0.3214 -0.1268
 2241ntf    on512551   1.255   2.859   3.388 -0.1786  0.3232 -0.2518
 2241ntf    on512552   1.211   3.084   3.478 -0.0058 -0.0782 -0.3527
 2241ntf    fn412553   1.125   2.841   3.658 -0.1590 -0.4435  0.4284
 2241ntf    fn412554   1.331   2.776   3.658 -0.0725  0.0522  0.6738
 2241ntf    fn412555   1.272   2.964   3.741  0.0118 -0.1799 -0.1666
 2242ntf    cn112556   4.131   4.952   3.095  0.2144  0.1203 -0.3103
 2242ntf    sn212557   4.035   4.879   2.960  0.0314  0.1507 -0.1975
 2242ntf    nn312558   4.152   4.806   2.886 -0.1834  0.0430 -0.4356
 2242ntf    sn212559   4.234   4.861   2.763  0.1325 -0.0375 -0.2623
 2242ntf    cn112560   4.132   4.823   2.618 -0.2019  0.0713 -0.0564
 2242ntf    fn412561   4.221   5.035   3.045 -0.3643  0.5381 -0.6721
 2242ntf    fn412562   4.056   5.021   3.179 -0.4398 -0.5960 -0.2929
 2242ntf    fn412563   4.196   4.858   3.162  0.0775  0.0438 -0.2826
 2242ntf    on512564   3.945   4.782   3.018 -0.3993  0.5567 -0.1849
 2242ntf    on512565   3.974   4.983   2.880  0.2548  0.0966 -0.4408
 2242ntf    on512566   4.351   4.783   2.733 -0.0999 -0.3561 -0.3441
 2242ntf    on512567   4.249   5.003   2.747  0.1970 -0.0048  0.0779
 2242ntf    fn412568   4.114   4.694   2.596 -0.1154  0.0126  0.2122
 2242ntf    fn412569   4.009   4.868   2.639 -0.1551  0.0366  0.3027
 2242ntf    fn412570   4.171   4.875   2.503  0.4170 -0.1806  0.0395
 2243ntf    cn112571   4.794   4.008   1.372 -0.3457  0.1784 -0.2647
 2243ntf    sn212572   4.807   3.965   1.196 -0.2205 -0.2540 -0.1517
 2243ntf    nn312573   4.963   3.948   1.187 -0.2350 -0.1324 -0.6569
 2243ntf    sn212574   5.049   3.824   1.146  0.2053  0.0318 -0.2371
 2243ntf    cn112575   5.097   3.867   0.977  0.0784  0.3140 -0.2007
 2243ntf    fn412576   4.819   4.136   1.395 -0.0046  0.0928 -0.1474
 2243ntf    fn412577   4.676   3.987   1.427 -0.2626  0.1360 -0.0992
 2243ntf    fn412578   4.882   3.951   1.454 -0.7634 -0.1731 -0.0581
 2243ntf    on512579   4.725   3.847   1.184 -0.6106  0.0437 -0.4292
 2243ntf    on512580   4.752   4.083   1.133  0.2140  0.1313  0.1847
 2243ntf    on512581   4.977   3.699   1.140  0.5697 -0.2090  0.3017
 2243ntf    on512582   5.178   3.818   1.211 -0.2091  0.4610  0.6483
 2243ntf    fn412583   4.987   3.881   0.904 -0.0975 -0.1254 -0.0190
 2243ntf    fn412584   5.158   3.985   0.978  0.8454 -0.0806 -0.1762
 2243ntf    fn412585   5.184   3.787   0.917 -0.3575 -0.6415  0.4203
 2244ntf    cn112586   2.787   4.697   2.213 -0.3378 -0.3218 -0.1181
 2244ntf    sn212587   2.708   4.536   2.241  0.0946 -0.4746  0.2450
 2244ntf    nn312588   2.655   4.505   2.096 -0.1673 -0.1059  0.2614
 2244ntf    sn212589   2.600   4.372   2.034 -0.2661 -0.0093  0.1424
 2244ntf    cn112590   2.424   4.408   2.008 -0.2381 -0.1172 -0.2140
 2244ntf    fn412591   2.849   4.753   2.316 -0.4387 -0.7079  0.1540
 2244ntf    fn412592   2.872   4.701   2.112 -0.1599 -0.1120  0.0370
 2244ntf    fn412593   2.690   4.785   2.196  0.4629  0.5565 -0.2414
 2244ntf    on512594   2.819   4.461   2.294  0.3439 -0.2529  0.0405
 2244ntf    on512595   2.607   4.567   2.339  0.3480  0.2356  0.2828
 2244ntf    on512596   2.603   4.257   2.121  0.0255  0.0578  0.2232
 2244ntf    on512597   2.649   4.362   1.898  0.0381  0.4410  0.2160
 2244ntf    fn412598   2.406   4.539   1.999 -0.5078 -0.1269  0.1439
 2244ntf    fn412599   2.377   4.345   1.902 -0.2836 -0.4601  0.0063
 2244ntf    fn412600   2.359   4.367   2.116  0.3978  0.5869  0.4425
 2245ntf    cn112601   0.759   2.332   6.343  0.1358  0.4349  0.3379
 2245ntf    sn212602   0.789   2.434   6.490  0.2453  0.1130  0.5398
 2245ntf    nn312603   0.889   2.344   6.572  0.5618 -0.1231 -0.1025
 2245ntf    sn212604   0.843   2.240   6.680 -0.0368  0.0714 -0.1644
 2245ntf    cn112605   0.944   2.095   6.634  0.1410  0.1725 -0.0936
 2245ntf    fn412606   0.702   2.214   6.364 -0.4640  0.6581 -0.0337
 2245ntf    fn412607   0.684   2.394   6.254 -0.3684 -0.2289  0.2994
 2245ntf    fn412608   0.873   2.306   6.281 -0.3940 -0.1210 -0.4227
 2245ntf    on512609   0.858   2.552   6.443 -0.0861  0.3064  0.5365
 2245ntf    on512610   0.663   2.461   6.555 -0.0202  0.8874 -0.2759
 2245ntf    on512611   0.711   2.183   6.671 -0.1763  0.4104 -0.2740
 2245ntf    on512612   0.885   2.270   6.815 -0.4033  0.2554 -0.0920
 2245ntf    fn412613   0.921   2.057   6.510  0.3020 -0.2909  0.0187
 2245ntf    fn412614   1.073   2.124   6.641  0.1206  0.3357 -0.3680
 2245ntf    fn412615   0.918   1.996   6.718 -0.0581  0.3725  0.0827
 2246ntf    cn112616   0.937   1.365   4.187 -0.1032  0.5466  0.4555
 2246ntf    sn212617   0.923   1.472   4.041 -0.2100 -0.3111 -0.1717
 2246ntf    nn312618   0.786   1.416   3.987 -0.4237 -0.1064  0.1585
 2246ntf    sn212619   0.639   1.471   3.994 -0.4099 -0.0179 -0.2440
 2246ntf    cn112620   0.636   1.579   3.848 -0.0670 -0.1262 -0.3323
 2246ntf    fn412621   0.820   1.352   4.246 -0.3899 -0.4578 -0.3064
 2246ntf    fn412622   0.981   1.247   4.145  0.5035  0.8806  0.1261
 2246ntf    fn412623   1.020   1.413   4.278  0.5363  0.3963 -0.0414
 2246ntf    on512624   0.923   1.608   4.088  0.2069 -0.2511 -0.3423
 2246ntf    on512625   1.025   1.425   3.951  0.1449 -0.0195  0.0792
 2246ntf    on512626   0.612   1.553   4.109 -0.8401 -0.7664  0.1962
 2246ntf    on512627   0.551   1.362   3.961 -0.4207 -0.1064  0.0766
 2246ntf    fn412628   0.522   1.643   3.826 -0.1372 -0.1059  0.0838
 2246ntf    fn412629   0.731   1.672   3.849  0.1559 -0.3588  0.0381
 2246ntf    fn412630   0.658   1.504   3.742  0.1101 -0.1052 -0.3118
 2247ntf    cn112631   2.028   3.435   4.198  0.3294  0.1184  0.4053
 2247ntf    sn212632   1.926   3.523   4.320 -0.3765 -0.1256 -0.0035
 2247ntf    nn312633   1.782   3.509   4.258 -0.1992 -0.4078 -0.3623
 2247ntf    sn212634   1.699   3.615   4.178 -0.0353  0.0085  0.0143
 2247ntf    cn112635   1.625   3.723   4.306  0.1578  0.0262  0.1107
 2247ntf    fn412636   2.156   3.446   4.230  0.5568  0.5208 -0.6044
 2247ntf    fn412637   1.990   3.308   4.197 -0.7798  0.4391  0.6400
 2247ntf    fn412638   2.016   3.483   4.075  0.4438 -0.6048  0.1017
 2247ntf    on512639   1.940   3.445   4.441 -0.6592 -0.6004 -0.2707
 2247ntf    on512640   1.970   3.658   4.339 -0.5409 -0.1563  0.6071
 2247ntf    on512641   1.578   3.557   4.125  0.0917 -0.3344  0.1001
 2247ntf    on512642   1.780   3.695   4.090 -0.0682  0.2049  0.1590
 2247ntf    fn412643   1.554   3.824   4.259  0.1791  0.2931  0.6478
 2247ntf    fn412644   1.540   3.652   4.378  0.0866 -0.3323 -0.3179
 2247ntf    fn412645   1.715   3.777   4.386  0.3030  0.0937 -0.0978
 2248ntf    cn112646   3.612   6.665   0.632 -0.2054 -0.3285  0.0362
 2248ntf    sn212647   3.550   6.521   0.723 -0.2500 -0.1586  0.2746
 2248ntf    nn312648   3.618   6.556   0.860  0.4599  0.9736 -0.3565
 2248ntf    sn212649   3.762   6.518   0.909  0.0394  0.3618  0.4223
 2248ntf    cn112650   3.719   6.357   0.983  0.1372 -0.0615 -0.4294
 2248ntf    fn412651   3.587   6.655   0.502  0.0566  0.1728 -0.0572
 2248ntf    fn412652   3.562   6.780   0.675  0.3080 -0.1903  0.2832
 2248ntf    fn412653   3.742   6.677   0.653 -0.3047  0.1346  0.4019
 2248ntf    on512654   3.407   6.541   0.724 -0.2899 -0.3972 -0.2182
 2248ntf    on512655   3.607   6.405   0.660 -0.3129  0.6741 -1.3666
 2248ntf    on512656   3.808   6.593   1.023  0.4236  0.2927  0.3146
 2248ntf    on512657   3.862   6.485   0.811 -0.3354  0.1506  0.1100
 2248ntf    fn412658   3.825   6.300   1.038  0.0086 -0.0024 -0.1199
 2248ntf    fn412659   3.630   6.368   1.080 -0.0023 -0.1660 -0.5452
 2248ntf    fn412660   3.679   6.274   0.888  0.1309 -0.4977 -0.0499
 2249ntf    cn112661   5.880   5.367   6.537 -0.3469  0.0585 -0.2176
 2249ntf    sn212662   5.872   5.383   6.357 -0.1220  0.0276 -0.2309
 2249ntf    nn312663   5.745   5.291   6.338 -0.3263  0.3374 -0.3847
 2249ntf    sn212664   5.729   5.174   6.235  0.2041  0.0609 -0.1597
 2249ntf    cn112665   5.561   5.217   6.180  0.0761 -0.1374  0.0738
 2249ntf    fn412666   5.975   5.443   6.589 -0.5425 -0.1905  0.5226
 2249ntf    fn412667   5.766   5.405   6.592 -0.2583  0.1365 -0.0870
 2249ntf    fn412668   5.903   5.243   6.577  0.8575  0.3086 -0.0919
 2249ntf    on512669   5.840   5.521   6.329  0.0708  0.1273  0.0423
 2249ntf    on512670   5.999   5.334   6.310  0.0553 -0.2831  0.5716
 2249ntf    on512671   5.702   5.041   6.285  0.4887 -0.2108 -0.7249
 2249ntf    on512672   5.803   5.180   6.112 -0.0192  0.7341 -0.2687
 2249ntf    fn412673   5.512   5.124   6.099 -0.3692  0.0309  0.1496
 2249ntf    fn412674   5.473   5.225   6.278 -0.2077  0.4170 -0.2196
 2249ntf    fn412675   5.561   5.329   6.110 -0.0336  0.1954  0.6066
 2250ntf    cn112676   1.600   4.890   3.218  0.2009 -0.4040 -0.0103
 2250ntf    sn212677   1.532   4.739   3.292 -0.0013 -0.1847  0.2532
 2250ntf    nn312678   1.566   4.754   3.445  0.3223  0.4985  0.1154
 2250ntf    sn212679   1.487   4.839   3.551 -0.0304  0.2802  0.0297
 2250ntf    cn112680   1.377   4.710   3.616  0.1562  0.0186 -0.1736
 2250ntf    fn412681   1.732   4.889   3.219  0.2165  0.4552 -0.0702
 2250ntf    fn412682   1.558   4.922   3.097  0.6125  0.1322 -0.0146
 2250ntf    fn412683   1.568   4.996   3.291  0.4243 -0.1047 -0.3401
 2250ntf    on512684   1.393   4.737   3.252  0.0788 -0.0223 -0.0346
 2250ntf    on512685   1.622   4.647   3.229 -0.1184  0.1120 -0.3481
 2250ntf    on512686   1.399   4.938   3.494 -0.0464  0.1926 -0.0990
 2250ntf    on512687   1.570   4.878   3.662  0.1458  0.0433 -0.0179
 2250ntf    fn412688   1.307   4.662   3.515  0.2479  0.1109 -0.2815
 2250ntf    fn412689   1.442   4.607   3.668  0.0927 -0.0840 -0.2968
 2250ntf    fn412690   1.287   4.749   3.705  0.2614 -0.1526  0.0084
 2251ntf    cn112691   2.850   5.125   6.362  0.2605 -0.4733 -0.2655
 2251ntf    sn212692   2.788   5.269   6.271  0.1647 -0.3898 -0.0668
 2251ntf    nn312693   2.859   5.382   6.355 -0.1901  0.1574 -0.4987
 2251ntf    sn212694   2.794   5.498   6.438  0.1336  0.1795 -0.2746
 2251ntf    cn112695   2.753   5.419   6.596  0.2526 -0.0151 -0.3423
 2251ntf    fn412696   2.859   5.018   6.284  0.0793 -0.7678  0.1133
 2251ntf    fn412697   2.977   5.138   6.400  0.2698 -0.6372 -0.2380
 2251ntf    fn412698   2.773   5.089   6.464  0.2456  0.0452 -0.0900
 2251ntf    on512699   2.849   5.248   6.142  0.7066  0.0432  0.1108
 2251ntf    on512700   2.644   5.266   6.280  0.1462  0.4237  0.0217
 2251ntf    on512701   2.663   5.544   6.398  0.1710  0.3656 -0.1846
 2251ntf    on512702   2.893   5.594   6.481  0.6117 -0.6372  0.4686
 2251ntf    fn412703   2.733   5.507   6.692 -0.1587  0.0627 -0.4970
 2251ntf    fn412704   2.638   5.356   6.577  0.3324 -0.2401 -0.0874
 2251ntf    fn412705   2.835   5.327   6.646 -0.2680 -0.1845  0.2162
 2252ntf    cn112706   6.301   6.807   5.735 -0.0448  0.3188  0.2896
 2252ntf    sn212707   6.287   6.988   5.742 -0.0063  0.3270  0.1519
 2252ntf    nn312708   6.414   7.041   5.667 -0.1455  0.3731 -0.0535
 2252ntf    sn212709   6.558   7.050   5.730 -0.2123 -0.0490  0.1637
 2252ntf    cn112710   6.574   7.222   5.789  0.2491 -0.1364  0.2940
 2252ntf    fn412711   6.358   6.760   5.625 -0.3885 -0.1710  0.3175
 2252ntf    fn412712   6.377   6.755   5.830 -0.3128 -0.4972  0.0703
 2252ntf    fn412713   6.185   6.744   5.748 -0.1097  0.2606 -0.5405
 2252ntf    on512714   6.170   7.014   5.662  0.2535  0.2176 -0.2678
 2252ntf    on512715   6.277   7.015   5.883 -0.0329 -0.4356  0.3027
 2252ntf    on512716   6.661   7.039   5.630 -0.1703 -0.1268  0.2154
 2252ntf    on512717   6.578   6.970   5.848 -0.0168  0.1341  0.2566
 2252ntf    fn412718   6.546   7.306   5.691 -0.2571 -0.8766 -0.2109
 2252ntf    fn412719   6.488   7.254   5.884 -0.5581 -0.1004 -0.4329
 2252ntf    fn412720   6.697   7.249   5.831  0.2681  0.2487 -0.0112
 2253ntf    cn112721   1.182   2.353   2.966  0.1083 -0.5649 -0.1027
 2253ntf    sn212722   1.024   2.439   2.990  0.4779  0.0969 -0.0039
 2253ntf    nn312723   0.931   2.323   2.941 -0.2192  0.4362  0.4947
 2253ntf    sn212724   0.790   2.271   2.987 -0.0483 -0.2991  0.2083
 2253ntf    cn112725   0.693   2.343   2.851  0.3355  0.1448  0.1691
 2253ntf    fn412726   1.194   2.313   2.841  0.2036  0.2532 -0.3626
 2253ntf    fn412727   1.282   2.440   2.973 -0.4525  0.0975 -0.1898
 2253ntf    fn412728   1.213   2.262   3.057  0.5069 -0.2889  0.0458
 2253ntf    on512729   1.020   2.461   3.133  0.0732 -0.0665  0.0135
 2253ntf    on512730   1.020   2.546   2.894  0.1643 -0.2709 -0.4055
 2253ntf    on512731   0.729   2.326   3.105  0.0155 -0.0434  0.1225
 2253ntf    on512732   0.777   2.129   2.966 -0.1568 -0.3246  0.4446
 2253ntf    fn412733   0.707   2.285   2.734  0.5424 -0.3679  0.4471
 2253ntf    fn412734   0.564   2.345   2.878  0.2376  0.4019 -0.3007
 2253ntf    fn412735   0.723   2.471   2.834  0.2307  0.2127  0.4851
 2254ntf    cn112736   0.698   1.472   5.999 -0.1940 -0.2412 -0.1810
 2254ntf    sn212737   0.771   1.631   6.049  0.1692 -0.3293 -0.4240
 2254ntf    nn312738   0.672   1.733   5.983 -0.1856 -0.2194  0.2709
 2254ntf    sn212739   0.541   1.789   6.049 -0.2173  0.0907 -0.0557
 2254ntf    cn112740   0.600   1.945   6.123 -0.0521 -0.0909  0.1986
 2254ntf    fn412741   0.580   1.438   6.048 -0.2872  0.5474  0.1595
 2254ntf    fn412742   0.684   1.460   5.867  0.0590  0.0735 -0.2384
 2254ntf    fn412743   0.789   1.384   6.038 -0.2513 -0.2795 -0.1355
 2254ntf    on512744   0.777   1.623   6.193  0.2833  1.1877 -0.3324
 2254ntf    on512745   0.900   1.647   5.987 -0.0084  0.1051 -0.6799
 2254ntf    on512746   0.486   1.714   6.159  0.6771 -0.2623  0.1628
 2254ntf    on512747   0.448   1.832   5.948  0.1683  0.0262 -0.4414
 2254ntf    fn412748   0.702   1.937   6.207  0.3221 -0.0278 -0.2438
 2254ntf    fn412749   0.641   2.029   6.030 -0.0260 -0.6297 -0.2815
 2254ntf    fn412750   0.501   2.002   6.190  0.2616  0.4086  0.2413
 2255ntf    cn112751   3.387   6.510   4.279  0.0624  0.2479 -0.1275
 2255ntf    sn212752   3.352   6.427   4.121  0.1094 -0.2372  0.1154
 2255ntf    nn312753   3.308   6.283   4.166 -0.1698 -0.3904 -0.6337
 2255ntf    sn212754   3.174   6.229   4.227 -0.0080 -0.0958 -0.0140
 2255ntf    cn112755   3.094   6.147   4.086 -0.1147  0.4158 -0.2520
 2255ntf    fn412756   3.382   6.642   4.277 -0.1187  0.2427 -0.0981
 2255ntf    fn412757   3.295   6.476   4.368  0.1238 -0.0883 -0.1904
 2255ntf    fn412758   3.503   6.479   4.334 -0.0677  0.3770  0.2225
 2255ntf    on512759   3.252   6.508   4.056  0.4828  0.4193  0.3489
 2255ntf    on512760   3.482   6.429   4.058 -0.1961  0.2377 -0.5036
 2255ntf    on512761   3.075   6.328   4.257  0.0789 -0.1652  0.5185
 2255ntf    on512762   3.195   6.122   4.323 -0.7176 -0.1184  0.1197
 2255ntf    fn412763   2.989   6.080   4.129  0.2955 -0.0759 -0.0021
 2255ntf    fn412764   3.052   6.222   3.986  0.1645  0.7099 -0.1505
 2255ntf    fn412765   3.178   6.059   4.033 -0.4428 -0.0944  0.0661
 2256ntf    cn112766   0.100   0.404   2.818  0.1995  0.1471 -0.2473
 2256ntf    sn212767   0.007   0.267   2.744 -0.0045  0.1746 -0.0453
 2256ntf    nn312768   0.032   0.164   2.860 -0.0220  0.3374  0.1033
 2256ntf    sn212769  -0.025   0.020   2.887  0.0733  0.2682 -0.0612
 2256ntf    cn112770   0.119  -0.080   2.839 -0.1950 -0.3099  0.3151
 2256ntf    fn412771   0.059   0.523   2.776  0.0484  0.2810  0.2713
 2256ntf    fn412772   0.100   0.410   2.950 -0.3380  0.9391 -0.2707
 2256ntf    fn412773   0.228   0.404   2.787  0.2141  0.1894 -0.1879
 2256ntf    on512774  -0.129   0.311   2.733  0.0101  0.2843  0.2173
 2256ntf    on512775   0.077   0.243   2.620  0.2302  0.3713  0.0492
 2256ntf    on512776  -0.121  -0.030   2.791  0.0800 -0.0457  0.0961
 2256ntf    on512777  -0.052  -0.008   3.026  0.0773 -0.4573 -0.2038
 2256ntf    fn412778   0.140  -0.060   2.709 -0.6937  0.2713  0.3164
 2256ntf    fn412779   0.228  -0.038   2.900  0.0628 -0.0280 -0.3294
 2256ntf    fn412780   0.109  -0.211   2.848  0.3084 -0.3677  0.0679
 2257ntf    cn112781   2.642   4.096   5.946 -0.3725 -0.0609 -0.4228
 2257ntf    sn212782   2.600   4.272   5.932  0.1995  0.1023 -0.1237
 2257ntf    nn312783   2.736   4.340   5.969  0.2304 -0.3224  0.5510
 2257ntf    sn212784   2.856   4.376   5.874 -0.1872 -0.1490  0.0901
 2257ntf    cn112785   2.833   4.556   5.880 -0.0005 -0.1048 -0.4365
 2257ntf    fn412786   2.760   4.068   5.893  0.0805  0.6813  0.1809
 2257ntf    fn412787   2.643   4.058   6.073  0.6002  0.2956 -0.3170
 2257ntf    fn412788   2.568   4.006   5.883 -0.2264 -0.2029 -0.3932
 2257ntf    on512789   2.560   4.288   5.794  0.2050 -0.1302 -0.1518
 2257ntf    on512790   2.496   4.292   6.030 -0.2844 -0.1817 -0.5729
 2257ntf    on512791   2.856   4.334   5.736  0.0629 -0.5501  0.2097
 2257ntf    on512792   2.976   4.351   5.949  0.0657 -0.9299 -0.5581
 2257ntf    fn412793   2.930   4.622   5.819  0.4833 -0.0822  0.3341
 2257ntf    fn412794   2.718   4.593   5.826 -0.0005  0.5493 -0.0071
 2257ntf    fn412795   2.826   4.591   6.008  0.3063 -0.0235 -0.4420
 2258ntf    cn112796   3.451   4.253   2.391 -0.1565  0.0907  0.1085
 2258ntf    sn212797   3.435   4.072   2.381  0.2274  0.0520  0.1785
 2258ntf    nn312798   3.285   4.060   2.427  0.2004  0.5423  0.2271
 2258ntf    sn212799   3.204   4.069   2.561 -0.0014 -0.1043  0.1527
 2258ntf    cn112800   3.177   3.892   2.593  0.2768 -0.1620  0.0782
 2258ntf    fn412801   3.577   4.293   2.388 -0.2921  0.5112  0.0578
 2258ntf    fn412802   3.385   4.318   2.296 -0.2128 -0.4387 -0.2174
 2258ntf    fn412803   3.405   4.287   2.510 -0.3632  0.2166 -0.0059
 2258ntf    on512804   3.461   4.050   2.240  0.2187 -0.6792  0.2860
 2258ntf    on512805   3.531   4.012   2.469 -0.4015 -0.3280  0.6151
 2258ntf    on512806   3.066   4.105   2.542  0.2168  0.2885 -0.7170
 2258ntf    on512807   3.262   4.132   2.677 -0.1538 -0.2779  0.3240
 2258ntf    fn412808   3.105   3.867   2.701  0.5501 -0.2044  0.2523
 2258ntf    fn412809   3.110   3.823   2.503 -0.4545  0.0199  0.4686
 2258ntf    fn412810   3.292   3.829   2.607 -0.1213 -0.8032  0.5328
 2259ntf    cn112811   4.278   2.816   3.713 -0.3245  0.0279  0.0662
 2259ntf    sn212812   4.290   2.842   3.533  0.2257  0.0464  0.1024
 2259ntf    nn312813   4.147   2.905   3.514  0.2238  0.1183  0.3521
 2259ntf    sn212814   4.105   3.040   3.446  0.1987  0.0873  0.3060
 2259ntf    cn112815   4.012   2.969   3.307 -0.0257  0.2046  0.3952
 2259ntf    fn412816   4.171   2.745   3.743 -0.2680 -0.1472 -0.1422
 2259ntf    fn412817   4.384   2.752   3.760  0.0545  0.4058 -0.2703
 2259ntf    fn412818   4.263   2.927   3.783 -0.1594  0.1720 -0.1284
 2259ntf    on512819   4.402   2.931   3.520  0.2458 -0.0605 -0.4466
 2259ntf    on512820   4.297   2.709   3.479 -0.2516 -0.0168  0.1879
 2259ntf    on512821   4.216   3.126   3.413 -0.1077  0.2607 -0.2913
 2259ntf    on512822   4.000   3.101   3.523 -0.1338 -0.1872  0.0746
 2259ntf    fn412823   4.080   2.880   3.237 -0.0637  0.3875  0.1252
 2259ntf    fn412824   3.898   2.905   3.330 -0.4466  0.6029 -0.5255
 2259ntf    fn412825   3.993   3.071   3.225 -0.8002 -0.3881 -0.1781
 2260ntf    cn112826   6.456   1.530   6.852 -0.0332 -0.1547  0.2154
 2260ntf    sn212827   6.285   1.501   6.906 -0.0608 -0.0145  0.2029
 2260ntf    nn312828   6.234   1.643   6.862 -0.2061 -0.0820  0.1534
 2260ntf    sn212829   6.182   1.686   6.720  0.0474 -0.1730  0.0315
 2260ntf    cn112830   6.259   1.850   6.719 -0.3132 -0.0025  0.0063
 2260ntf    fn412831   6.518   1.625   6.922 -0.2433  0.1007  0.0563
 2260ntf    fn412832   6.528   1.420   6.869 -0.3164 -0.3736 -0.0006
 2260ntf    fn412833   6.467   1.550   6.722  0.0912  0.1962  0.2769
 2260ntf    on512834   6.223   1.391   6.836  0.4435 -0.0086 -0.2569
 2260ntf    on512835   6.294   1.492   7.050  0.1423  0.1035  0.1978
 2260ntf    on512836   6.039   1.703   6.725  0.0710 -0.0862  0.4244
 2260ntf    on512837   6.242   1.624   6.605  0.1847  0.5189 -0.2701
 2260ntf    fn412838   6.385   1.848   6.761 -0.4901  0.5487  0.5823
 2260ntf    fn412839   6.251   1.913   6.603 -0.1987  0.3479  0.1848
 2260ntf    fn412840   6.200   1.924   6.811 -0.1025  0.4516 -0.2204
 2261ntf    cn112841   2.934   6.287   3.714  0.4336 -0.2784  0.0645
 2261ntf    sn212842   2.821   6.357   3.589  0.5757 -0.0186  0.0798
 2261ntf    nn312843   2.702   6.254   3.595  0.2232  0.3883  0.0878
 2261ntf    sn212844   2.579   6.265   3.691  0.0777  0.2879 -0.0876
 2261ntf    cn112845   2.554   6.089   3.731  0.1369  0.2698 -0.1307
 2261ntf    fn412846   3.052   6.346   3.708  0.1353  0.3592  0.2956
 2261ntf    fn412847   2.890   6.309   3.838 -0.0539 -0.2991 -0.1001
 2261ntf    fn412848   2.952   6.157   3.700 -0.1173 -0.3596  0.0718
 2261ntf    on512849   2.776   6.487   3.630  0.1228 -0.2088  0.1996
 2261ntf    on512850   2.894   6.354   3.465  0.5553  0.5208  0.0558
 2261ntf    on512851   2.454   6.303   3.630  0.0735  0.3189 -0.0599
 2261ntf    on512852   2.612   6.320   3.820  0.5548 -0.1019 -0.0425
 2261ntf    fn412853   2.664   6.039   3.784  0.0350  0.1487 -0.0312
 2261ntf    fn412854   2.457   6.081   3.821  0.3133 -0.3413  0.0052
 2261ntf    fn412855   2.515   6.016   3.628 -0.2154  0.2644  0.0030
 2262ntf    cn112856   2.444   5.700   2.668 -0.0829  0.2944 -0.1228
 2262ntf    sn212857   2.588   5.802   2.625  0.1558 -0.0880 -0.2264
 2262ntf    nn312858   2.507   5.911   2.547 -0.1335 -0.3434 -0.2872
 2262ntf    sn212859   2.468   6.054   2.598  0.2422 -0.3978  0.1592
 2262ntf    cn112860   2.308   6.084   2.517  0.4561  0.1010 -0.0867
 2262ntf    fn412861   2.373   5.647   2.570  0.1811 -0.1385 -0.0805
 2262ntf    fn412862   2.476   5.608   2.757 -0.0202  0.2093 -0.2342
 2262ntf    fn412863   2.351   5.770   2.732 -0.1473  0.0626  0.0397
 2262ntf    on512864   2.647   5.852   2.747  0.0111 -0.0460 -0.1734
 2262ntf    on512865   2.662   5.715   2.536  0.3076 -0.0900 -0.0993
 2262ntf    on512866   2.549   6.153   2.531 -0.3943 -0.1613 -0.2744
 2262ntf    on512867   2.451   6.070   2.740 -0.4321  0.6737 -0.0287
 2262ntf    fn412868   2.210   6.011   2.567  0.6344  0.0506  0.1932
 2262ntf    fn412869   2.270   6.209   2.534  0.5043  0.0500  0.4092
 2262ntf    fn412870   2.310   6.062   2.386 -0.2549  0.0463 -0.0931
 2263ntf    cn112871   4.871   1.275   1.485  0.2627  0.1258  0.0984
 2263ntf    sn212872   5.048   1.314   1.468  0.2447  0.1586 -0.0226
 2263ntf    nn312873   5.066   1.271   1.318  0.3291  0.3433 -0.0656
 2263ntf    sn212874   5.133   1.142   1.259 -0.3987 -0.0296 -0.0923
 2263ntf    cn112875   5.304   1.194   1.225 -0.4139  0.0021 -0.1185
 2263ntf    fn412876   4.794   1.370   1.433 -0.3278 -0.1646  0.4344
 2263ntf    fn412877   4.834   1.162   1.428 -0.2182  0.2868  0.0881
 2263ntf    fn412878   4.832   1.273   1.611 -0.4503  0.1389 -0.1162
 2263ntf    on512879   5.060   1.456   1.489  0.3619  0.0885  0.4049
 2263ntf    on512880   5.118   1.230   1.562 -0.2693 -0.3455 -0.0805
 2263ntf    on512881   5.079   1.115   1.128  0.2759 -0.2572 -0.3268
 2263ntf    on512882   5.147   1.026   1.344  0.4860  0.4979  0.4998
 2263ntf    fn412883   5.386   1.092   1.208 -0.6020 -0.1151 -0.3322
 2263ntf    fn412884   5.299   1.264   1.112  0.4130  0.0576 -0.1249
 2263ntf    fn412885   5.350   1.268   1.324 -0.2316 -0.2423 -0.0219
 2264ntf    cn112886   6.528   1.009   4.805 -0.5856 -0.0719  0.1757
 2264ntf    sn212887   6.473   1.139   4.690 -0.0884  0.0013  0.0196
 2264ntf    nn312888   6.367   1.216   4.776  0.2463  0.1104  0.3378
 2264ntf    sn212889   6.213   1.186   4.780  0.2929 -0.1615  0.1760
 2264ntf    cn112890   6.155   1.294   4.646  0.2134 -0.1660  0.2064
 2264ntf    fn412891   6.645   0.959   4.769 -0.3367  0.5273  0.1383
 2264ntf    fn412892   6.551   1.062   4.924  0.1393  0.0821 -0.0275
 2264ntf    fn412893   6.441   0.911   4.820 -0.1674 -0.4694  0.0188
 2264ntf    on512894   6.595   1.214   4.673  0.4162 -0.7502  0.2637
 2264ntf    on512895   6.417   1.064   4.580  0.1548 -0.1323 -0.0149
 2264ntf    on512896   6.170   1.264   4.894  0.2086  0.2170 -0.1137
 2264ntf    on512897   6.167   1.052   4.755  0.3402 -0.0870 -0.3096
 2264ntf    fn412898   6.192   1.420   4.657  0.2818 -0.1797  0.1390
 2264ntf    fn412899   6.194   1.255   4.525  0.0465 -0.0556  0.1171
 2264ntf    fn412900   6.023   1.301   4.644  0.2145 -0.1194  0.3132
 2265ntf    cn112901   0.090   2.000   6.884 -0.0845 -0.1780 -0.3994
 2265ntf    sn212902   0.246   2.014   6.975 -0.1974  0.0416 -0.2391
 2265ntf    nn312903   0.198   2.010   7.124 -0.0814 -0.1730 -0.2072
 2265ntf    sn212904   0.145   1.885   7.203  0.0389 -0.0983 -0.0074
 2265ntf    cn112905   0.290   1.844   7.304  0.1506 -0.1515 -0.1893
 2265ntf    fn412906   0.087   2.075   6.775 -0.4736  0.0053 -0.2661
 2265ntf    fn412907   0.063   1.878   6.839  0.1914 -0.3578 -0.0790
 2265ntf    fn412908  -0.010   2.040   6.961 -0.1730 -0.2451 -0.4778
 2265ntf    on512909   0.327   1.900   6.940  0.4396  0.3200  0.3039
 2265ntf    on512910   0.299   2.143   6.938 -0.1910  0.2579  0.5052
 2265ntf    on512911   0.125   1.767   7.124  0.7353 -0.1374 -0.1300
 2265ntf    on512912   0.045   1.920   7.301  0.0857 -0.1828  0.0700
 2265ntf    fn412913   0.258   1.752   7.393  0.1600  0.0895  0.0652
 2265ntf    fn412914   0.395   1.796   7.239  0.2732  0.4608 -0.4467
 2265ntf    fn412915   0.336   1.952   7.366 -0.3772 -0.2460  0.3808
 2266ntf    cn112916   3.866   6.735   1.783 -0.0640 -0.0216  0.0487
 2266ntf    sn212917   3.736   6.851   1.732  0.0053 -0.0093 -0.1001
 2266ntf    nn312918   3.606   6.769   1.767 -0.0321  0.1690  0.1793
 2266ntf    sn212919   3.584   6.681   1.896 -0.2364 -0.2304 -0.1255
 2266ntf    cn112920   3.409   6.720   1.927 -0.1974 -0.1779  0.0325
 2266ntf    fn412921   3.891   6.717   1.912  0.6344  0.3201 -0.0291
 2266ntf    fn412922   3.840   6.614   1.737  0.0218  0.0452 -0.1762
 2266ntf    fn412923   3.984   6.772   1.734 -0.0622  0.4155  0.3753
 2266ntf    on512924   3.755   6.976   1.800 -0.0212 -0.0467 -0.0231
 2266ntf    on512925   3.750   6.864   1.589 -0.3214  0.4450 -0.0928
 2266ntf    on512926   3.650   6.742   2.009  0.2214 -0.3727 -0.3157
 2266ntf    on512927   3.590   6.539   1.875  0.1212 -0.1859 -0.3404
 2266ntf    fn412928   3.333   6.687   1.823 -0.0002 -0.2748 -0.0818
 2266ntf    fn412929   3.358   6.654   2.029 -0.0114 -0.1886  0.1193
 2266ntf    fn412930   3.385   6.848   1.948 -0.4214 -0.2532  0.2284
 2267ntf    cn112931   1.663   6.252   5.278  0.3569 -0.0729  0.1683
 2267ntf    sn212932   1.796   6.197   5.167  0.0046 -0.2881 -0.1454
 2267ntf    nn312933   1.914   6.220   5.267  0.0600 -0.5926 -0.1396
 2267ntf    sn212934   2.033   6.120   5.287  0.2078 -0.3784  0.0558
 2267ntf    cn112935   1.981   6.028   5.435 -0.1637 -0.1272  0.0812
 2267ntf    fn412936   1.667   6.200   5.400 -0.2116 -0.5011  0.0047
 2267ntf    fn412937   1.668   6.383   5.294  0.5939 -0.0661  0.0532
 2267ntf    fn412938   1.544   6.221   5.229  0.4801 -0.1595 -0.0774
 2267ntf    on512939   1.770   6.057   5.142 -0.3404 -0.2442 -0.0348
 2267ntf    on512940   1.803   6.289   5.056  0.4817 -0.1442  0.0048
 2267ntf    on512941   2.148   6.191   5.338 -0.3995  0.6352  0.0279
 2267ntf    on512942   2.045   6.015   5.189  0.7098 -0.1125 -0.1724
 2267ntf    fn412943   1.930   6.109   5.526 -0.1994 -0.0602  0.0012
 2267ntf    fn412944   1.889   5.939   5.401 -0.0814 -0.2144  0.0880
 2267ntf    fn412945   2.083   5.961   5.487 -0.0083  0.0215 -0.0331
 2268ntf    cn112946   6.720   5.296   6.757 -0.4193  0.1443  0.2819
 2268ntf    sn212947   6.817   5.439   6.703 -0.0577 -0.1586  0.1233
 2268ntf    nn312948   6.960   5.383   6.737  0.0079 -0.1705 -0.1647
 2268ntf    sn212949   7.072   5.337   6.637  0.3157 -0.0216  0.1077
 2268ntf    cn112950   7.155   5.201   6.724  0.2616 -0.0742  0.0775
 2268ntf    fn412951   6.758   5.181   6.703 -0.0941  0.4757 -0.1953
 2268ntf    fn412952   6.721   5.280   6.889  0.2073 -0.2578  0.2353
 2268ntf    fn412953   6.593   5.311   6.725 -0.4585 -0.3272  0.2106
 2268ntf    on512954   6.782   5.442   6.563  0.0160  0.0633  0.1085
 2268ntf    on512955   6.769   5.546   6.786  0.0339 -0.1620  0.1811
 2268ntf    on512956   7.177   5.435   6.625  0.3595 -0.0470  0.2883
 2268ntf    on512957   7.019   5.286   6.513 -0.3691  0.2160  0.2973
 2268ntf    fn412958   7.242   5.133   6.652  0.1522  0.2189 -0.3367
 2268ntf    fn412959   7.217   5.248   6.831  0.3567 -0.0316  0.0039
 2268ntf    fn412960   7.069   5.116   6.778  0.0006 -0.0619 -0.3147
 2269ntf    cn112961   3.469   5.797   0.731 -0.2901  0.1946 -0.2171
 2269ntf    sn212962   3.550   5.659   0.644  0.1194  0.2272  0.1108
 2269ntf    nn312963   3.506   5.680   0.495 -0.1410  0.1727  0.1806
 2269ntf    sn212964   3.577   5.697   0.356 -0.3953  0.0184  0.0329
 2269ntf    cn112965   3.501   5.566   0.254  0.2626 -0.3524  0.0132
 2269ntf    fn412966   3.344   5.766   0.762  0.0489 -0.6595  0.3562
 2269ntf    fn412967   3.526   5.815   0.849 -0.1941  0.1217 -0.2519
 2269ntf    fn412968   3.462   5.910   0.664 -0.4477  0.1626 -0.2544
 2269ntf    on512969   3.691   5.684   0.666  0.2626 -0.4872  0.0234
 2269ntf    on512970   3.501   5.540   0.708 -0.1490 -0.2043 -0.8872
 2269ntf    on512971   3.716   5.665   0.336 -0.2891  0.1350  0.5858
 2269ntf    on512972   3.532   5.817   0.290 -0.8331 -0.3609 -0.3778
 2269ntf    fn412973   3.542   5.562   0.128  0.5615 -1.0445  0.1293
 2269ntf    fn412974   3.544   5.451   0.302 -0.2574 -0.4420  0.2639
 2269ntf    fn412975   3.369   5.561   0.253  0.2751 -0.6320 -0.2435
 2270ntf    cn112976   3.993   4.257   6.048  0.1606 -0.1370 -0.0307
 2270ntf    sn212977   4.008   4.328   5.881  0.0043 -0.2393 -0.0885
 2270ntf    nn312978   3.905   4.447   5.886  0.3125  0.0307 -0.1250
 2270ntf    sn212979   3.750   4.424   5.885  0.2939  0.1516  0.1223
 2270ntf    cn112980   3.706   4.471   5.715  0.1214 -0.1161  0.0922
 2270ntf    fn412981   3.970   4.340   6.148  0.6226 -0.1504  0.0862
 2270ntf    fn412982   3.898   4.166   6.037 -0.0615  0.0844  0.0337
 2270ntf    fn412983   4.107   4.197   6.078  0.1582 -0.3483 -0.4339
 2270ntf    on512984   4.147   4.365   5.889 -0.1082  0.0713  0.4915
 2270ntf    on512985   3.979   4.224   5.785 -0.2903 -0.2652  0.0284
 2270ntf    on512986   3.680   4.518   5.969  0.2273 -0.1534  0.4142
 2270ntf    on512987   3.702   4.288   5.893 -0.1600  0.3171  0.2745
 2270ntf    fn412988   3.757   4.397   5.618  0.2388 -0.1371  0.1708
 2270ntf    fn412989   3.575   4.464   5.701  0.0719  0.5480  0.2049
 2270ntf    fn412990   3.741   4.594   5.681 -0.1652 -0.0530  0.0193
 2271ntf    cn112991   3.932   6.526   0.346 -0.2030  0.0999 -0.2517
 2271ntf    sn212992   4.086   6.431   0.328 -0.2010  0.0208  0.1668
 2271ntf    nn312993   4.070   6.381   0.180 -0.2287 -0.2646  0.2665
 2271ntf    sn212994   4.156   6.277   0.101 -0.2772  0.0020 -0.1398
 2271ntf    cn112995   4.268   6.387   0.010  0.0413 -0.1454  0.0707
 2271ntf    fn412996   3.829   6.442   0.343 -0.3025  0.1982  0.2841
 2271ntf    fn412997   3.926   6.593   0.460  0.0176 -0.3839  0.0485
 2271ntf    fn412998   3.910   6.615   0.251  0.1752  0.0375 -0.3975
 2271ntf    on512999   4.193   6.527   0.345  0.3622 -0.5951  0.1432
 2271ntf    on513000   4.078   6.329   0.430  0.0219 -0.4724 -0.3054
 2271ntf    on513001   4.093   6.214  -0.013 -0.0698 -0.5241  0.0305
 2271ntf    on513002   4.240   6.184   0.174 -0.0538  0.2892 -0.0311
 2271ntf    fn413003   4.367   6.318  -0.045  0.2602 -0.0727  0.3699
 2271ntf    fn413004   4.199   6.447  -0.086  0.4154  0.1473 -0.0189
 2271ntf    fn413005   4.326   6.474   0.091 -0.5307  0.2041  0.1050
 2272ntf    cn113006   0.701   6.896   3.611 -0.5536 -0.1297  0.7810
 2272ntf    sn213007   0.656   7.062   3.552 -0.0114 -0.3356 -0.2508
 2272ntf    nn313008   0.509   7.042   3.501 -0.0731  0.1618 -0.2750
 2272ntf    sn213009   0.373   7.049   3.578  0.0255 -0.1382 -0.0748
 2272ntf    cn113010   0.346   7.229   3.577  0.1343 -0.1213  0.0442
 2272ntf    fn413011   0.814   6.887   3.679 -0.3792 -0.3845  0.4618
 2272ntf    fn413012   0.610   6.841   3.689 -0.1503 -0.8988  0.7175
 2272ntf    fn413013   0.709   6.811   3.510 -0.5672  0.2613  0.4449
 2272ntf    on513014   0.665   7.144   3.671 -0.0409  0.6803 -0.9321
 2272ntf    on513015   0.741   7.098   3.442 -0.7404  0.0688 -0.6862
 2272ntf    on513016   0.380   7.013   3.718  0.1506  0.6838  0.1357
 2272ntf    on513017   0.266   6.996   3.498  0.1449 -0.1710 -0.2121
 2272ntf    fn413018   0.220   7.264   3.595  0.0233 -0.6766  0.3708
 2272ntf    fn413019   0.415   7.294   3.670  0.0793 -0.0212  0.0147
 2272ntf    fn413020   0.380   7.277   3.459  0.1062 -0.0639  0.0598
 2273ntf    cn113021   1.899   1.590   6.211 -0.3858  0.0677  0.0042
 2273ntf    sn213022   1.811   1.440   6.158 -0.0173 -0.1645  0.0486
 2273ntf    nn313023   1.936   1.354   6.118 -0.0285 -0.0079 -0.3239
 2273ntf    sn213024   2.019   1.257   6.210 -0.5269 -0.0542  0.0754
 2273ntf    cn113025   1.960   1.101   6.137  0.1478 -0.1152 -0.3403
 2273ntf    fn413026   1.999   1.566   6.294  0.3171  0.3580 -0.7503
 2273ntf    fn413027   1.958   1.657   6.114 -0.2178  0.0990  0.1277
 2273ntf    fn413028   1.811   1.676   6.260  0.0796  0.2199  0.5845
 2273ntf    on513029   1.736   1.397   6.273 -0.3673  0.2687 -0.0172
 2273ntf    on513030   1.746   1.491   6.040 -0.0611  0.5017  0.3549
 2273ntf    on513031   1.983   1.260   6.350  0.3792  0.6715  0.3038
 2273ntf    on513032   2.158   1.251   6.174 -0.5276 -0.1456  0.0881
 2273ntf    fn413033   1.883   1.123   6.032  0.2286 -0.0527 -0.3873
 2273ntf    fn413034   2.062   1.031   6.090  0.1504 -0.0692 -0.4036
 2273ntf    fn413035   1.903   1.024   6.228 -0.2416  0.2368 -0.2856
 2274ntf    cn113036   5.587   1.267   6.741  0.1121  0.3388  0.1271
 2274ntf    sn213037   5.723   1.148   6.762 -0.1280  0.0102 -0.1773
 2274ntf    nn313038   5.693   1.048   6.645 -0.0729  0.3745 -0.5076
 2274ntf    sn213039   5.589   0.930   6.645  0.4162 -0.0674  0.0758
 2274ntf    cn113040   5.577   0.909   6.465  0.2294  0.0384  0.0758
 2274ntf    fn413041   5.463   1.222   6.738  0.1470  0.2895 -0.9223
 2274ntf    fn413042   5.593   1.354   6.841 -0.6958  0.4151  0.1174
 2274ntf    fn413043   5.599   1.343   6.633  0.3012  0.0167 -0.0788
 2274ntf    on513044   5.840   1.228   6.738  0.0592 -0.2442 -0.1175
 2274ntf    on513045   5.704   1.093   6.894  0.7880 -0.3388 -0.1865
 2274ntf    on513046   5.455   0.958   6.691  0.1751 -0.6623 -0.2594
 2274ntf    on513047   5.649   0.805   6.684  0.5599 -0.2795 -0.7937
 2274ntf    fn413048   5.483   0.984   6.409  0.6811  0.0202 -0.7214
 2274ntf    fn413049   5.692   0.937   6.406  0.0365  0.3890 -0.1388
 2274ntf    fn413050   5.548   0.785   6.429  0.1609  0.0830 -0.0273
 2275ntf    cn113051   3.397   3.869   5.337  0.0218  0.0192 -0.2218
 2275ntf    sn213052   3.311   3.977   5.219 -0.1968  0.1180  0.0268
 2275ntf    nn313053   3.250   4.095   5.303 -0.1447 -0.0606  0.3146
 2275ntf    sn213054   3.178   4.220   5.243 -0.1735 -0.2560 -0.0624
 2275ntf    cn113055   3.302   4.346   5.285  0.0638 -0.5352  0.0754
 2275ntf    fn413056   3.461   3.773   5.272  0.1655  0.0227 -0.0861
 2275ntf    fn413057   3.479   3.944   5.408 -0.4914  0.1847  0.2026
 2275ntf    fn413058   3.317   3.807   5.423  0.4443 -0.6340 -0.2935
 2275ntf    on513059   3.416   4.014   5.127  0.0513  0.3277  0.3935
 2275ntf    on513060   3.213   3.885   5.167  0.2794 -0.3414 -0.0657
 2275ntf    on513061   3.064   4.259   5.323 -0.4414  0.0976 -0.6128
 2275ntf    on513062   3.172   4.224   5.099  0.1784 -0.0009 -0.0706
 2275ntf    fn413063   3.317   4.362   5.416 -0.5625 -0.4449  0.1372
 2275ntf    fn413064   3.420   4.308   5.239  0.2204 -0.0012  0.0378
 2275ntf    fn413065   3.274   4.465   5.234 -0.5525 -0.5395  0.4046
 2276ntf    cn113066   2.053   4.396   3.869  0.1992 -0.4420 -0.1584
 2276ntf    sn213067   2.209   4.451   3.943 -0.0298 -0.2803  0.2027
 2276ntf    nn313068   2.251   4.562   3.841  0.0997 -0.2247  0.3153
 2276ntf    sn213069   2.345   4.558   3.715  0.0650  0.0033  0.2819
 2276ntf    cn113070   2.474   4.679   3.757  0.2418 -0.0838 -0.0120
 2276ntf    fn413071   2.005   4.288   3.929  0.1595 -0.1582  0.3265
 2276ntf    fn413072   1.961   4.491   3.865  0.0750 -0.5216  0.7129
 2276ntf    fn413073   2.071   4.360   3.743  0.1865  0.4961 -0.4323
 2276ntf    on513074   2.182   4.510   4.072  0.0481 -0.1890  0.1776
 2276ntf    on513075   2.285   4.329   3.945 -0.2581 -0.4371 -0.5587
 2276ntf    on513076   2.288   4.613   3.594  0.0796  0.3522  0.4314
 2276ntf    on513077   2.413   4.432   3.707 -0.2475 -0.1638  0.2346
 2276ntf    fn413078   2.558   4.685   3.654 -0.1329  0.7808 -0.2726
 2276ntf    fn413079   2.424   4.800   3.771  0.0846 -0.1178 -0.2713
 2276ntf    fn413080   2.538   4.658   3.871  0.3558 -0.1176 -0.0810
 2277ntf    cn113081   5.958   0.917   2.783 -0.5111 -0.1582  0.0356
 2277ntf    sn213082   5.869   0.779   2.861 -0.3307 -0.3157 -0.0355
 2277ntf    nn313083   5.904   0.802   3.012  0.6328 -0.5216 -0.2173
 2277ntf    sn213084   5.953   0.707   3.127 -0.0973 -0.0800  0.4742
 2277ntf    cn113085   5.793   0.680   3.209 -0.2344  0.3702  0.3591
 2277ntf    fn413086   5.914   1.037   2.819  0.1938 -0.0475  0.5475
 2277ntf    fn413087   6.087   0.925   2.812 -0.4988 -0.5583  0.0963
 2277ntf    fn413088   5.956   0.913   2.650  0.2652  0.0019  0.0128
 2277ntf    on513089   5.732   0.811   2.830 -0.0792  0.3337 -0.5233
 2277ntf    on513090   5.924   0.659   2.803 -0.0957 -0.2046 -0.0419
 2277ntf    on513091   6.017   0.763   3.243 -0.1870  0.0281  0.4714
 2277ntf    on513092   5.984   0.575   3.078 -0.1666  0.1013 -0.0673
 2277ntf    fn413093   5.819   0.657   3.337 -0.3309  0.0294  0.3191
 2277ntf    fn413094   5.707   0.780   3.202  0.1144  0.6192 -0.3747
 2277ntf    fn413095   5.725   0.571   3.176  0.4723 -0.0749  0.3480
 2278ntf    cn113096   0.582   5.745   5.974  0.0786 -0.0121  0.0601
 2278ntf    sn213097   0.585   5.615   6.101 -0.0954 -0.1223 -0.0492
 2278ntf    nn313098   0.531   5.494   6.016 -0.1815  0.1720 -0.4140
 2278ntf    sn213099   0.622   5.411   5.919 -0.1803 -0.2253 -0.0727
 2278ntf    cn113100   0.682   5.284   6.034  0.2401  0.0451  0.0075
 2278ntf    fn413101   0.567   5.861   6.035 -0.4910  0.0444 -0.1794
 2278ntf    fn413102   0.696   5.753   5.907  0.3453 -0.6793  0.4176
 2278ntf    fn413103   0.490   5.731   5.880  0.0925 -0.3855  0.0996
 2278ntf    on513104   0.721   5.615   6.149 -0.2013  0.0400  0.2531
 2278ntf    on513105   0.482   5.652   6.195  0.1223  0.0552  0.1207
 2278ntf    on513106   0.739   5.476   5.867 -0.3218 -0.0772 -0.2085
 2278ntf    on513107   0.548   5.333   5.822  0.4750 -0.3500 -0.4747
 2278ntf    fn413108   0.582   5.220   6.094 -0.2452  0.2929 -0.5267
 2278ntf    fn413109   0.745   5.186   5.971 -0.1188 -0.3553  0.2578
 2278ntf    fn413110   0.769   5.333   6.120  0.5169  0.1215 -0.3180
 2279ntf    cn113111   5.767   4.184   2.255 -0.3996 -0.3262 -0.0667
 2279ntf    sn213112   5.941   4.133   2.267 -0.2708  0.0680 -0.2193
 2279ntf    nn313113   5.969   4.052   2.136  0.2429  0.4222 -0.3288
 2279ntf    sn213114   6.068   3.933   2.108 -0.1067 -0.0256  0.3046
 2279ntf    cn113115   6.176   4.008   1.982 -0.1898 -0.1387  0.1659
 2279ntf    fn413116   5.731   4.251   2.147 -0.2739  0.0273  0.1055
 2279ntf    fn413117   5.691   4.076   2.256 -0.3759 -0.3428 -0.0659
 2279ntf    fn413118   5.737   4.257   2.361  0.2897 -0.1849  0.0379
 2279ntf    on513119   6.023   4.250   2.284  0.1552 -0.3872  0.9849
 2279ntf    on513120   5.933   4.042   2.379  0.0070  0.5923  0.2330
 2279ntf    on513121   6.007   3.820   2.043  0.4928  0.0528 -0.4163
 2279ntf    on513122   6.161   3.904   2.214  0.8923  0.6367 -0.3608
 2279ntf    fn413123   6.238   4.117   2.025  0.3744 -0.4103  0.0538
 2279ntf    fn413124   6.276   3.928   1.948  0.0639  0.3091 -0.1655
 2279ntf    fn413125   6.114   4.041   1.870 -0.3039  0.0522  0.2842
 2280ntf    cn113126   1.942   2.141   6.615 -0.3107  0.2649 -0.5265
 2280ntf    sn213127   2.102   2.079   6.555 -0.0862  0.1993  0.1276
 2280ntf    nn313128   2.134   1.973   6.666 -0.3670 -0.0221  0.0009
 2280ntf    sn213129   2.224   1.989   6.794  0.0698  0.5151 -0.3668
 2280ntf    cn113130   2.383   1.923   6.736  0.0073 -0.0390  0.0832
 2280ntf    fn413131   1.955   2.236   6.706  0.1892  0.1441 -0.4671
 2280ntf    fn413132   1.877   2.207   6.520 -0.3550  0.3741 -0.4203
 2280ntf    fn413133   1.863   2.050   6.669  0.0763  0.3871  0.2599
 2280ntf    on513134   2.067   2.006   6.435 -0.0148  0.2262  0.0907
 2280ntf    on513135   2.184   2.196   6.538 -0.0576  0.1594 -0.0072
 2280ntf    on513136   2.173   1.900   6.896  0.6030  0.2960 -0.2903
 2280ntf    on513137   2.251   2.121   6.846  0.7653 -0.1016  0.8873
 2280ntf    fn413138   2.361   1.801   6.690 -0.5118  0.2104 -0.3532
 2280ntf    fn413139   2.430   1.992   6.633 -0.2783  0.0885  0.0362
 2280ntf    fn413140   2.477   1.916   6.828  0.5383  0.1034 -0.4409
 2281ntf    cn113141   6.837   4.348   4.193 -0.0414 -0.4420  0.7066
 2281ntf    sn213142   6.752   4.259   4.326 -0.1454 -0.2674  0.7560
 2281ntf    nn313143   6.603   4.290   4.285  0.1301 -0.0680 -0.1167
 2281ntf    sn213144   6.503   4.213   4.192 -0.0457  0.0057  0.0116
 2281ntf    cn113145   6.376   4.184   4.319 -0.3775 -0.2269 -0.3724
 2281ntf    fn413146   6.825   4.479   4.206 -0.0729 -0.3735  0.0233
 2281ntf    fn413147   6.963   4.311   4.175  0.1927  0.6610 -0.0243
 2281ntf    fn413148   6.774   4.316   4.081 -0.3072  0.2879  0.6383
 2281ntf    on513149   6.788   4.119   4.322 -0.1409 -0.2443 -0.1071
 2281ntf    on513150   6.790   4.333   4.444 -0.4638  0.6055  0.3141
 2281ntf    on513151   6.542   4.080   4.154  0.2942  0.0967  0.0368
 2281ntf    on513152   6.452   4.298   4.088 -0.5420 -0.5402 -0.1940
 2281ntf    fn413153   6.416   4.129   4.432  0.4734  0.1717 -0.4744
 2281ntf    fn413154   6.313   4.296   4.350  0.2823  0.0086  0.1392
 2281ntf    fn413155   6.287   4.097   4.272 -0.3895  0.1121 -0.9929
 2282ntf    cn113156   1.432   0.170   3.095  0.0824  0.2002  0.2184
 2282ntf    sn213157   1.565   0.131   2.977 -0.0918 -0.1499  0.1367
 2282ntf    nn313158   1.676   0.058   3.061  0.2250  0.2116  0.0358
 2282ntf    sn213159   1.655  -0.070   3.149 -0.3400  0.2124 -0.0885
 2282ntf    cn113160   1.796  -0.173   3.098 -0.4173  0.1971 -0.2727
 2282ntf    fn413161   1.488   0.235   3.196 -0.1599  0.1793  0.3671
 2282ntf    fn413162   1.331   0.235   3.041  0.1601  0.2944  0.1865
 2282ntf    fn413163   1.373   0.060   3.140  0.7336 -0.2027  0.1082
 2282ntf    on513164   1.508   0.044   2.877 -0.0784 -0.1154  0.0986
 2282ntf    on513165   1.603   0.263   2.931 -1.0564  0.1391  0.1481
 2282ntf    on513166   1.538  -0.151   3.125 -0.0484 -0.2383 -0.0044
 2282ntf    on513167   1.690  -0.045   3.287 -1.1412 -0.2835  0.2066
 2282ntf    fn413168   1.784  -0.207   2.971  0.3708 -0.2351 -0.2383
 2282ntf    fn413169   1.911  -0.107   3.110  0.0244 -0.5316 -0.4310
 2282ntf    fn413170   1.803  -0.284   3.170 -0.7184  0.0587 -0.4584
 2283ntf    cn113171   1.394   5.291   0.496  0.1324  0.0853  0.1730
 2283ntf    sn213172   1.457   5.425   0.391  0.1961 -0.1332 -0.0698
 2283ntf    nn313173   1.334   5.454   0.297 -0.1793  0.1422  0.4980
 2283ntf    sn213174   1.320   5.438   0.142  0.2994  0.3183  0.4352
 2283ntf    cn113175   1.210   5.579   0.108  0.1269  0.0685 -0.0564
 2283ntf    fn413176   1.474   5.273   0.600  0.1875 -0.0043  0.1163
 2283ntf    fn413177   1.272   5.321   0.537  0.0721 -0.2799  0.2629
 2283ntf    fn413178   1.382   5.179   0.427 -0.6887  0.3810 -0.1695
 2283ntf    on513179   1.483   5.534   0.482  0.0809  0.0048 -0.2023
 2283ntf    on513180   1.574   5.371   0.327  0.2961 -0.5169  0.4321
 2283ntf    on513181   1.238   5.325   0.107  0.5085  0.1939  0.3403
 2283ntf    on513182   1.439   5.466   0.065 -0.1075  0.2950 -0.2086
 2283ntf    fn413183   1.091   5.564   0.163  0.1418 -0.2726 -0.1153
 2283ntf    fn413184   1.258   5.698   0.142  0.4452 -0.0335 -0.1475
 2283ntf    fn413185   1.183   5.600  -0.020 -0.1219  0.3112  0.0350
 2284ntf    cn113186   1.813   3.009   2.037 -0.4280 -0.2051  0.0199
 2284ntf    sn213187   1.829   3.037   1.859 -0.1503  0.1105  0.0946
 2284ntf    nn313188   1.812   3.193   1.849  0.2134  0.1279 -0.2957
 2284ntf    sn213189   1.677   3.273   1.841  0.0466 -0.1012  0.1937
 2284ntf    cn113190   1.643   3.295   1.664  0.1784  0.3086  0.2186
 2284ntf    fn413191   1.913   3.054   2.111 -0.3958 -0.4470  0.1273
 2284ntf    fn413192   1.708   3.070   2.091 -0.2250  0.4475 -0.3184
 2284ntf    fn413193   1.817   2.879   2.064 -0.2829 -0.1186  0.4274
 2284ntf    on513194   1.963   3.000   1.821  0.0168  0.5344  0.2586
 2284ntf    on513195   1.724   2.961   1.796 -0.7902  0.6175  0.5320
 2284ntf    on513196   1.707   3.408   1.881 -0.2650  0.1774 -0.4885
 2284ntf    on513197   1.564   3.213   1.908 -0.0718  0.1557  0.2235
 2284ntf    fn413198   1.663   3.183   1.597 -0.1176  0.4854 -0.1755
 2284ntf    fn413199   1.519   3.335   1.639  0.2306  0.0295 -0.5236
 2284ntf    fn413200   1.723   3.386   1.611  0.0414  0.4111  0.1866
 2285ntf    cn113201   2.067   2.950   3.023  0.0195 -0.3091  0.0993
 2285ntf    sn213202   2.030   2.818   2.904  0.1010  0.0089 -0.2815
 2285ntf    nn313203   2.170   2.817   2.834  0.1411  0.1118 -0.2025
 2285ntf    sn213204   2.202   2.907   2.709  0.1456  0.0924 -0.2151
 2285ntf    cn113205   2.173   2.792   2.571  0.3065  0.0810 -0.2398
 2285ntf    fn413206   2.184   2.946   3.086 -0.0626  0.3331  0.3072
 2285ntf    fn413207   2.070   3.069   2.964  0.2711 -0.6503 -0.5823
 2285ntf    fn413208   1.975   2.969   3.116 -0.3477  0.2700 -0.3747
 2285ntf    on513209   2.020   2.703   2.991 -0.4335  0.3969  0.1822
 2285ntf    on513210   1.910   2.858   2.834 -0.3266 -0.0197  0.4250
 2285ntf    on513211   2.346   2.922   2.705  0.1473 -0.0616 -0.7967
 2285ntf    on513212   2.121   3.024   2.688 -0.3402 -0.1900  0.0550
 2285ntf    fn413213   2.170   2.852   2.453  0.4580  0.2430 -0.1627
 2285ntf    fn413214   2.259   2.691   2.564  0.5837  0.2573  0.5103
 2285ntf    fn413215   2.050   2.744   2.578  0.2710  0.2055  0.0163
 2286ntf    cn113216   4.939   2.605   6.693  0.2217 -0.0861  0.4931
 2286ntf    sn213217   4.940   2.737   6.819 -0.1361  0.3453  0.0499
 2286ntf    nn313218   4.856   2.843   6.741  0.1247  0.7151  0.2718
 2286ntf    sn213219   4.700   2.848   6.728  0.1022 -0.3316  0.0861
 2286ntf    cn113220   4.699   2.870   6.547  0.2290 -0.1428  0.1086
 2286ntf    fn413221   4.818   2.567   6.658  0.4123 -0.3214  0.0962
 2286ntf    fn413222   5.002   2.651   6.587  0.4044 -0.1235  0.5851
 2286ntf    fn413223   4.998   2.495   6.737 -0.0795 -0.4218  0.0577
 2286ntf    on513224   4.884   2.674   6.937  0.5195 -0.3745 -0.0090
 2286ntf    on513225   5.081   2.768   6.822 -0.1127  0.2226  0.2569
 2286ntf    on513226   4.645   2.974   6.772  0.3648 -0.1781 -0.0268
 2286ntf    on513227   4.625   2.726   6.748 -0.5175 -0.1658 -1.0983
 2286ntf    fn413228   4.733   2.989   6.499  0.6252 -0.0830  0.5215
 2286ntf    fn413229   4.778   2.787   6.482  0.1769 -0.3079  0.2556
 2286ntf    fn413230   4.581   2.845   6.494  0.2061 -0.0295  0.1067
 2287ntf    cn113231   0.791   0.869   6.523 -0.1808 -0.0170  0.3258
 2287ntf    sn213232   0.952   0.809   6.463 -0.3742 -0.1310 -0.0842
 2287ntf    nn313233   0.949   0.661   6.517  0.1790 -0.3775 -0.7160
 2287ntf    sn213234   1.073   0.569   6.546  0.1244 -0.1478  0.2877
 2287ntf    cn113235   1.074   0.475   6.391  0.4610  0.0752  0.1532
 2287ntf    fn413236   0.779   0.833   6.650  0.0729 -0.1118  0.3253
 2287ntf    fn413237   0.787   1.001   6.515  0.1406 -0.0396 -0.2778
 2287ntf    fn413238   0.691   0.824   6.450 -0.0559 -0.4734  0.4334
 2287ntf    on513239   0.943   0.817   6.320 -0.1947  0.3177 -0.0714
 2287ntf    on513240   1.048   0.900   6.521 -0.7164  0.0890  0.1367
 2287ntf    on513241   1.041   0.465   6.640 -0.4954 -0.3685 -0.1594
 2287ntf    on513242   1.200   0.637   6.553 -0.0458  0.2700 -0.4882
 2287ntf    fn413243   1.118   0.545   6.288 -0.0117  0.2818  0.0906
 2287ntf    fn413244   1.165   0.380   6.411  0.2289 -0.1512  0.1470
 2287ntf    fn413245   0.956   0.422   6.361  0.4242 -0.0279  0.4784
 2288ntf    cn113246   6.193   0.235   1.520 -0.1540 -0.2264 -0.2418
 2288ntf    sn213247   6.222   0.414   1.507 -0.5611 -0.1476 -0.0763
 2288ntf    nn313248   6.076   0.465   1.478 -0.6144  0.0288  0.4906
 2288ntf    sn213249   6.002   0.445   1.341  0.0440  0.1398  0.1118
 2288ntf    cn113250   5.985   0.608   1.263  0.1444  0.2551  0.3285
 2288ntf    fn413251   6.079   0.210   1.584  0.1310  0.0558  0.3816
 2288ntf    fn413252   6.184   0.169   1.406 -0.5804  0.4530 -0.6098
 2288ntf    fn413253   6.291   0.178   1.587  0.0132  0.1655 -0.1488
 2288ntf    on513254   6.269   0.448   1.639  0.0471  0.0168 -0.3351
 2288ntf    on513255   6.314   0.442   1.400 -0.2465 -0.1185  0.2041
 2288ntf    on513256   5.864   0.403   1.350  0.2888 -0.6365  0.2791
 2288ntf    on513257   6.078   0.381   1.237 -0.5157 -0.9218  0.3348
 2288ntf    fn413258   5.907   0.604   1.155 -0.0161 -0.2458  0.4577
 2288ntf    fn413259   5.939   0.698   1.349 -0.0763  0.2534  0.2153
 2288ntf    fn413260   6.102   0.653   1.222 -0.0904  0.4195 -0.1725
 2289ntf    cn113261   4.265   5.362   6.103  0.1385  0.1678  0.2283
 2289ntf    sn213262   4.376   5.219   6.123 -0.0072  0.0335  0.0851
 2289ntf    nn313263   4.359   5.169   6.270  0.1293  0.0967  0.1225
 2289ntf    sn213264   4.250   5.072   6.328 -0.0813  0.1394 -0.2006
 2289ntf    cn113265   4.186   5.190   6.451  0.0277 -0.0525  0.0411
 2289ntf    fn413266   4.268   5.406   5.978 -0.2742  0.0547  0.1775
 2289ntf    fn413267   4.139   5.330   6.128  0.2322 -0.8491 -0.5007
 2289ntf    fn413268   4.298   5.467   6.175 -0.2256  0.1366  0.4479
 2289ntf    on513269   4.327   5.136   6.015 -0.3155 -0.1188  0.3419
 2289ntf    on513270   4.504   5.282   6.103  0.2320 -0.2999  0.5432
 2289ntf    on513271   4.300   4.964   6.409 -0.1535  0.1883 -0.0909
 2289ntf    on513272   4.135   5.046   6.245 -0.2512 -0.3735  0.1899
 2289ntf    fn413273   4.078   5.145   6.513  0.0889  0.2362  0.3617
 2289ntf    fn413274   4.284   5.208   6.538 -0.0811 -0.2778  0.2139
 2289ntf    fn413275   4.148   5.307   6.402 -0.1617 -0.2677 -0.3259
 2290ntf    cn113276   6.527   0.178   0.730 -0.2894  0.2869 -0.3964
 2290ntf    sn213277   6.591   0.204   0.562  0.3696  0.1503 -0.1662
 2290ntf    nn313278   6.473   0.136   0.485  0.0447  0.2248  0.2615
 2290ntf    sn213279   6.466  -0.007   0.421  0.2297  0.3892 -0.1302
 2290ntf    cn113280   6.510   0.022   0.247  0.3911 -0.1487 -0.1816
 2290ntf    fn413281   6.399   0.205   0.749 -0.2837  0.4737 -0.6240
 2290ntf    fn413282   6.539   0.048   0.754  0.5740  0.3399 -0.5369
 2290ntf    fn413283   6.593   0.231   0.832  0.0283 -0.3477 -0.2649
 2290ntf    on513284   6.587   0.347   0.550 -0.1980  0.1437 -0.0657
 2290ntf    on513285   6.722   0.144   0.567  0.5134  0.4712 -0.0692
 2290ntf    on513286   6.328  -0.047   0.426  0.3321 -0.0775 -0.8713
 2290ntf    on513287   6.567  -0.096   0.473  0.1987  0.2595 -0.2901
 2290ntf    fn413288   6.413   0.082   0.181  0.5110  0.1237 -0.1096
 2290ntf    fn413289   6.614   0.102   0.238 -0.1113  0.4581 -0.6572
 2290ntf    fn413290   6.535  -0.090   0.181  0.4548 -0.3721  0.2199
 2291ntf    cn113291   2.904   1.694   6.275 -0.3039 -0.0873 -0.2279
 2291ntf    sn213292   3.083   1.684   6.246 -0.2895 -0.0514 -0.1527
 2291ntf    nn313293   3.139   1.695   6.393  0.1151  0.7611 -0.3604
 2291ntf    sn213294   3.287   1.700   6.443  0.1556  0.0722 -0.4071
 2291ntf    cn113295   3.294   1.537   6.525  0.0743  0.3919  0.2436
 2291ntf    fn413296   2.854   1.594   6.346  0.0368 -0.0875  0.0181
 2291ntf    fn413297   2.859   1.802   6.337 -0.2106  0.0689 -0.4319
 2291ntf    fn413298   2.838   1.695   6.161 -0.6711  0.2137 -0.0154
 2291ntf    on513299   3.101   1.553   6.187  0.0359 -0.1173  0.0857
 2291ntf    on513300   3.102   1.801   6.164  0.3111 -0.0975 -0.0855
 2291ntf    on513301   3.308   1.791   6.552  0.1003 -0.1240 -0.2305
 2291ntf    on513302   3.387   1.686   6.340  0.7915 -0.1092  0.2277
 2291ntf    fn413303   3.226   1.548   6.638  0.0332  0.0730  0.2503
 2291ntf    fn413304   3.248   1.436   6.452  0.1849  0.2834  0.3250
 2291ntf    fn413305   3.413   1.496   6.565  0.1527  0.2379 -0.1432
 2292ntf    cn113306   4.318   4.985   5.387 -0.5259 -0.0510 -0.2019
 2292ntf    sn213307   4.442   4.888   5.297 -0.1631 -0.0088  0.2514
 2292ntf    nn313308   4.424   4.742   5.353  0.0311 -0.0264  0.2685
 2292ntf    sn213309   4.506   4.690   5.477  0.1942 -0.0252  0.1621
 2292ntf    cn113310   4.639   4.597   5.396  0.3115  0.1797  0.1170
 2292ntf    fn413311   4.332   4.985   5.519  0.0122  0.8866 -0.2568
 2292ntf    fn413312   4.329   5.111   5.350  0.0430 -0.1904 -0.5131
 2292ntf    fn413313   4.196   4.939   5.364 -0.3967 -0.4633 -0.0836
 2292ntf    on513314   4.390   4.897   5.163 -0.0455 -0.2068  0.1913
 2292ntf    on513315   4.572   4.949   5.315 -0.1415  0.1369 -0.3945
 2292ntf    on513316   4.432   4.589   5.548 -0.3885  0.0861 -0.2807
 2292ntf    on513317   4.573   4.787   5.560  0.0534  0.0264  0.2162
 2292ntf    fn413318   4.714   4.528   5.480  0.0240 -0.0544  0.1847
 2292ntf    fn413319   4.593   4.508   5.310 -0.1537  0.1528  0.3906
 2292ntf    fn413320   4.711   4.678   5.321  0.3434 -0.3952 -0.4880
 2293ntf    cn113321   4.493   2.148   3.338  0.0539 -0.1287 -0.0839
 2293ntf    sn213322   4.659   2.144   3.266 -0.0833  0.0240 -0.4098
 2293ntf    nn313323   4.637   2.062   3.133 -0.6192 -0.0055 -0.3021
 2293ntf    sn213324   4.666   1.912   3.101 -0.0555 -0.0024  0.1858
 2293ntf    cn113325   4.846   1.927   3.081 -0.0729  0.1158  0.1172
 2293ntf    fn413326   4.411   2.208   3.254  0.1938 -0.0620 -0.1722
 2293ntf    fn413327   4.441   2.030   3.368 -0.0828 -0.1374 -0.3472
 2293ntf    fn413328   4.491   2.219   3.449 -0.1645 -0.0445 -0.1402
 2293ntf    on513329   4.673   2.284   3.236  0.2081  0.1052  0.0906
 2293ntf    on513330   4.745   2.078   3.362 -0.5459 -0.0639 -0.0540
 2293ntf    on513331   4.621   1.875   2.969  0.0655  0.2542  0.0725
 2293ntf    on513332   4.647   1.818   3.210  0.1273 -0.1264  0.1126
 2293ntf    fn413333   4.905   1.977   3.189 -0.3282 -0.3441  0.4738
 2293ntf    fn413334   4.900   1.811   3.047 -0.8520 -0.2181 -0.0050
 2293ntf    fn413335   4.873   2.019   2.991 -0.1454 -0.1625 -0.1904
 2294ntf    cn113336   5.545   2.457   3.419 -0.1357  0.4133  0.0142
 2294ntf    sn213337   5.695   2.427   3.518 -0.2358 -0.3208 -0.0477
 2294ntf    nn313338   5.798   2.515   3.440  0.8916 -0.6906  0.9997
 2294ntf    sn213339   5.851   2.660   3.473 -0.4160 -0.0107  0.1978
 2294ntf    cn113340   6.026   2.623   3.444 -0.4453 -0.0332  0.0491
 2294ntf    fn413341   5.497   2.576   3.450  0.2935  0.6173 -0.1003
 2294ntf    fn413342   5.575   2.447   3.291 -0.8780 -0.6410 -0.0956
 2294ntf    fn413343   5.444   2.375   3.444  0.3750 -0.3631 -0.4191
 2294ntf    on513344   5.657   2.465   3.652  0.7818 -0.4765  0.2896
 2294ntf    on513345   5.715   2.286   3.498  0.1768 -0.2280 -0.2978
 2294ntf    on513346   5.849   2.695   3.613 -0.0315 -0.0808  0.2221
 2294ntf    on513347   5.837   2.765   3.375  0.7124  0.1088  0.1560
 2294ntf    fn413348   6.081   2.528   3.517  0.4373  0.0769 -0.4506
 2294ntf    fn413349   6.054   2.590   3.318  0.6466  0.1463  0.2290
 2294ntf    fn413350   6.099   2.730   3.473 -0.2794 -0.0408 -0.3292
 2295ntf    cn113351   4.763   6.403   6.432  0.0605 -0.0276 -0.3099
 2295ntf    sn213352   4.639   6.534   6.459  0.1506  0.0168 -0.1099
 2295ntf    nn313353   4.536   6.489   6.349  0.1440  0.1045 -0.1383
 2295ntf    sn213354   4.522   6.542   6.202 -0.1535  0.0010 -0.1475
 2295ntf    cn113355   4.401   6.676   6.223 -0.2886 -0.0693 -0.4851
 2295ntf    fn413356   4.880   6.429   6.489 -0.3106  0.0389  0.4424
 2295ntf    fn413357   4.726   6.283   6.472 -0.1931  0.0587 -0.2852
 2295ntf    fn413358   4.790   6.396   6.303  0.6872 -0.3311 -0.1683
 2295ntf    on513359   4.598   6.512   6.596  0.4251 -0.1552 -0.0538
 2295ntf    on513360   4.691   6.664   6.425  0.0425  0.1230  0.1298
 2295ntf    on513361   4.460   6.442   6.120 -0.5125  0.6305 -0.6542
 2295ntf    on513362   4.635   6.611   6.144  0.1196  0.1025  0.4882
 2295ntf    fn413363   4.278   6.629   6.239 -0.3564  0.3720  0.3543
 2295ntf    fn413364   4.435   6.753   6.325 -0.0911  0.1857 -0.7399
 2295ntf    fn413365   4.388   6.753   6.116  0.2045 -0.1059 -0.5739
 2296ntf    cn113366   2.503   4.812   5.978 -0.1379  0.1708  0.2851
 2296ntf    sn213367   2.352   4.912   5.994 -0.1787  0.1125  0.2615
 2296ntf    nn313368   2.298   4.903   5.847  0.4462 -0.0782  0.0415
 2296ntf    sn213369   2.286   5.017   5.739  0.4295 -0.0945  0.0271
 2296ntf    cn113370   2.153   4.957   5.630  0.0737 -0.1513  0.4833
 2296ntf    fn413371   2.473   4.696   5.922  0.4350  0.0570  0.2093
 2296ntf    fn413372   2.580   4.878   5.894 -0.4641  0.2859  0.0726
 2296ntf    fn413373   2.565   4.799   6.094  0.2031 -0.5784  0.0236
 2296ntf    on513374   2.273   4.833   6.086 -0.2031  0.0175  0.1586
 2296ntf    on513375   2.394   5.040   6.044  0.0849 -0.0005  0.3328
 2296ntf    on513376   2.398   5.043   5.653  0.2239  0.6673 -0.0227
 2296ntf    on513377   2.216   5.134   5.786  0.1055 -0.2039 -0.1841
 2296ntf    fn413378   2.108   5.045   5.542 -0.0773 -0.5549  0.1534
 2296ntf    fn413379   2.192   4.852   5.559 -0.0005  0.0887  0.0781
 2296ntf    fn413380   2.050   4.913   5.699 -0.3367 -0.3748 -0.2582
 2297ntf    cn113381   3.941   5.101   4.235 -0.1215 -0.1527 -0.0020
 2297ntf    sn213382   3.770   5.153   4.269 -0.1551 -0.0678 -0.2936
 2297ntf    nn313383   3.755   5.243   4.142  0.2322  0.6934  0.1907
 2297ntf    sn213384   3.633   5.257   4.044  0.0109  0.2017  0.3968
 2297ntf    cn113385   3.692   5.145   3.914 -0.3476  0.0614  0.3526
 2297ntf    fn413386   4.019   5.207   4.224 -0.2437 -0.0519  0.0925
 2297ntf    fn413387   3.998   5.027   4.328  0.1724 -0.2959 -0.2924
 2297ntf    fn413388   3.947   5.032   4.122  0.0852 -0.8606  0.4375
 2297ntf    on513389   3.704   5.025   4.261  0.0143 -0.1470 -0.4243
 2297ntf    on513390   3.776   5.228   4.392 -0.1749  0.0615 -0.3713
 2297ntf    on513391   3.638   5.387   3.981  0.1562  0.2416  0.4914
 2297ntf    on513392   3.506   5.199   4.082  0.0436  0.2173  0.5276
 2297ntf    fn413393   3.634   5.169   3.797 -0.1428  0.0854  0.2555
 2297ntf    fn413394   3.821   5.167   3.892 -0.4185  0.4165  0.2862
 2297ntf    fn413395   3.688   5.016   3.942  0.6240 -0.0689 -0.0663
 2298ntf    cn113396   4.787   3.465   2.446 -0.4082 -0.2193 -0.1882
 2298ntf    sn213397   4.752   3.613   2.347 -0.0962 -0.0462 -0.0439
 2298ntf    nn313398   4.636   3.557   2.257 -0.0259  0.7156 -0.6218
 2298ntf    sn213399   4.642   3.480   2.120 -0.0125  0.0889 -0.2708
 2298ntf    cn113400   4.662   3.624   2.011  0.0844  0.4381  0.2077
 2298ntf    fn413401   4.905   3.467   2.505 -0.2615  0.0046 -0.4848
 2298ntf    fn413402   4.698   3.451   2.543 -0.1904 -0.0094  0.0429
 2298ntf    fn413403   4.782   3.353   2.376 -0.5359 -0.3778  0.0729
 2298ntf    on513404   4.700   3.713   2.437  0.3361 -0.1234  0.2903
 2298ntf    on513405   4.871   3.648   2.274 -0.0077 -0.8906 -0.3113
 2298ntf    on513406   4.519   3.413   2.085 -0.1683 -0.1701  0.7459
 2298ntf    on513407   4.765   3.407   2.096 -0.0724 -0.0686 -0.0994
 2298ntf    fn413408   4.619   3.603   1.888 -0.2202  0.3378  0.3298
 2298ntf    fn413409   4.592   3.727   2.058  0.0090  0.0147  1.0388
 2298ntf    fn413410   4.789   3.661   2.004 -0.0998  1.1597  0.5246
 2299ntf    cn113411   0.757   1.386   1.471 -0.0107  0.0226 -0.0281
 2299ntf    sn213412   0.777   1.238   1.367 -0.1253 -0.0740  0.0865
 2299ntf    nn313413   0.660   1.147   1.418 -0.2910  0.2478  0.2804
 2299ntf    sn213414   0.672   1.050   1.541  0.1154 -0.1100 -0.0391
 2299ntf    cn113415   0.504   0.980   1.534  0.0070  0.1488 -0.0542
 2299ntf    fn413416   0.855   1.472   1.448  0.0469 -0.0030  0.1228
 2299ntf    fn413417   0.639   1.443   1.451  0.2258  0.4128 -0.3134
 2299ntf    fn413418   0.762   1.359   1.600  0.3383 -0.4857 -0.1447
 2299ntf    on513419   0.758   1.294   1.235 -0.0314 -0.3314 -0.0372
 2299ntf    on513420   0.913   1.202   1.401 -0.0441  0.1902  0.0426
 2299ntf    on513421   0.667   1.123   1.665 -0.2642  0.4470 -0.3780
 2299ntf    on513422   0.756   0.936   1.516  0.1380 -0.0774 -0.1141
 2299ntf    fn413423   0.496   0.878   1.618  0.3333  0.1045 -0.0756
 2299ntf    fn413424   0.404   1.053   1.580 -0.0240 -0.2133  0.4659
 2299ntf    fn413425   0.472   0.923   1.419  0.0930 -0.4183  0.1973
 2300ntf    cn113426   2.925   6.278   0.924  0.1027 -0.3725 -0.0506
 2300ntf    sn213427   3.055   6.269   1.051  0.4493 -0.1022 -0.3866
 2300ntf    nn313428   3.153   6.177   0.971 -0.1443 -0.1336 -1.0911
 2300ntf    sn213429   3.310   6.163   0.978 -0.1740  0.0110 -0.0138
 2300ntf    cn113430   3.316   6.047   1.118 -0.3147 -0.1478 -0.1393
 2300ntf    fn413431   2.979   6.328   0.815 -0.0959 -0.0054  0.0163
 2300ntf    fn413432   2.877   6.158   0.895  0.1959 -0.3657 -0.2333
 2300ntf    fn413433   2.819   6.351   0.956  0.1105 -0.4799  0.2272
 2300ntf    on513434   3.097   6.406   1.070 -0.1609  0.0695 -0.2565
 2300ntf    on513435   2.994   6.201   1.162  0.0689 -0.0020 -0.5316
 2300ntf    on513436   3.378   6.280   1.028  0.0056  0.0569 -0.3603
 2300ntf    on513437   3.365   6.092   0.866  0.1441  0.3707 -0.0853
 2300ntf    fn413438   3.256   6.095   1.225  0.2029 -0.6955  0.4048
 2300ntf    fn413439   3.256   5.933   1.088 -0.1452 -0.4754  0.7378
 2300ntf    fn413440   3.440   6.017   1.154 -0.3506  0.3927  0.4496
 2301ntf    cn113441   6.829   4.516   0.681 -0.3657  0.3043  0.0828
 2301ntf    sn213442   6.763   4.549   0.515 -0.0777  0.3669 -0.0207
 2301ntf    nn313443   6.641   4.640   0.555 -0.1217  0.2859  0.0276
 2301ntf    sn213444   6.596   4.782   0.506 -0.4914  0.1767  0.0483
 2301ntf    cn113445   6.434   4.738   0.435 -0.5047  0.1898  0.0711
 2301ntf    fn413446   6.745   4.436   0.746 -0.1902 -0.1468 -0.2389
 2301ntf    fn413447   6.944   4.450   0.677 -0.4261  0.2181 -0.2684
 2301ntf    fn413448   6.843   4.619   0.763  0.5421  0.2047  0.0628
 2301ntf    on513449   6.873   4.608   0.444  0.0774  0.1957  0.0776
 2301ntf    on513450   6.720   4.416   0.479  0.3230  0.1194  0.4130
 2301ntf    on513451   6.670   4.839   0.396  0.4653 -0.2760  0.4453
 2301ntf    on513452   6.565   4.869   0.617 -0.1527  0.5171 -0.1221
 2301ntf    fn413453   6.442   4.657   0.331 -0.5663  0.0323  0.1884
 2301ntf    fn413454   6.354   4.682   0.524  0.3506 -0.2260  0.5956
 2301ntf    fn413455   6.374   4.849   0.397 -0.8590  0.0604  0.2515
 2302ntf    cn113456   6.665   0.131   4.256  0.2174  0.2727 -0.2836
 2302ntf    sn213457   6.833   0.095   4.317  0.0576  0.1344  0.0744
 2302ntf    nn313458   6.909   0.081   4.181 -0.1529 -0.2324 -0.0057
 2302ntf    sn213459   6.998  -0.034   4.122  0.1410  0.0806 -0.1835
 2302ntf    cn113460   7.167   0.029   4.143  0.2763 -0.2493 -0.2791
 2302ntf    fn413461   6.602   0.022   4.214 -0.3771  0.5252 -0.0494
 2302ntf    fn413462   6.585   0.180   4.348  0.5602  0.5377 -0.1245
 2302ntf    fn413463   6.664   0.213   4.152 -0.1733  0.3801 -0.1953
 2302ntf    on513464   6.862   0.212   4.397 -0.1781  0.7219 -0.6883
 2302ntf    on513465   6.809  -0.026   4.392 -0.2394 -0.2128 -0.5800
 2302ntf    on513466   6.983  -0.044   3.979  0.0875  0.4810 -0.2052
 2302ntf    on513467   7.002  -0.159   4.195 -0.2061 -0.3680 -0.9189
 2302ntf    fn413468   7.196   0.057   4.269  0.2152 -0.2806 -0.2584
 2302ntf    fn413469   7.245  -0.066   4.094  0.8680  0.0596  0.0601
 2302ntf    fn413470   7.191   0.135   4.068  0.1180 -0.0138  0.0040
 2303ntf    cn113471   0.203   0.889   3.926 -0.2513 -0.1272 -0.0471
 2303ntf    sn213472   0.047   0.958   3.989 -0.0903  0.1776  0.0196
 2303ntf    nn313473   0.049   1.099   3.920  0.0650 -0.0322 -0.4108
 2303ntf    sn213474   0.015   1.238   3.985  0.3294 -0.1915  0.0747
 2303ntf    cn113475   0.183   1.302   4.013  0.3880 -0.2007 -0.2558
 2303ntf    fn413476   0.308   0.968   3.933  0.0785 -0.4846 -0.7624
 2303ntf    fn413477   0.234   0.781   3.995 -0.2269 -0.0286  0.0950
 2303ntf    fn413478   0.195   0.856   3.798  0.1024 -0.3066 -0.0223
 2303ntf    on513479  -0.062   0.878   3.937 -0.2203  0.0528  0.4806
 2303ntf    on513480   0.073   0.960   4.130 -0.1191 -0.1201  0.0297
 2303ntf    on513481  -0.043   1.242   4.117 -0.3795  0.4152 -0.2504
 2303ntf    on513482  -0.050   1.330   3.895  0.5112 -0.0679  0.0691
 2303ntf    fn413483   0.177   1.416   4.081  0.5935 -0.2128 -0.2172
 2303ntf    fn413484   0.268   1.224   4.077 -0.0116 -0.5056 -0.0896
 2303ntf    fn413485   0.241   1.338   3.899  0.0677 -0.0548 -0.3756
 2304ntf    cn113486   4.421   2.092   1.589  0.0005 -0.1356  0.2692
 2304ntf    sn213487   4.588   2.050   1.649  0.0398 -0.2154  0.1045
 2304ntf    nn313488   4.651   2.023   1.508 -0.2254 -0.5227  0.0442
 2304ntf    sn213489   4.677   1.891   1.426  0.0685 -0.0674 -0.6089
 2304ntf    cn113490   4.620   1.953   1.265 -0.3492 -0.2981 -0.5513
 2304ntf    fn413491   4.427   2.174   1.486 -0.0914 -0.2168  0.1992
 2304ntf    fn413492   4.345   1.991   1.550  0.0969 -0.0305 -0.1931
 2304ntf    fn413493   4.348   2.153   1.681  0.3650  0.5432  0.1126
 2304ntf    on513494   4.635   2.173   1.707 -0.1658 -0.3080  0.4690
 2304ntf    on513495   4.573   1.937   1.737  0.1383 -0.0424  0.3441
 2304ntf    on513496   4.582   1.784   1.447  0.1185  0.0264  0.1459
 2304ntf    on513497   4.816   1.860   1.405  0.3874  0.3675  0.7687
 2304ntf    fn413498   4.680   2.068   1.242 -0.8845  0.1492  0.2263
 2304ntf    fn413499   4.647   1.881   1.157  0.1181 -0.0046 -0.6285
 2304ntf    fn413500   4.491   1.976   1.283 -0.2624 -0.1061 -0.1594
 2305ntf    cn113501   1.903   0.895   4.625 -0.4114 -0.3125 -0.0304
 2305ntf    sn213502   1.766   0.906   4.744 -0.1154 -0.2952  0.3081
 2305ntf    nn313503   1.753   0.751   4.765  0.1016 -0.2917  0.4766
 2305ntf    sn213504   1.652   0.654   4.694  0.3077  0.0674 -0.3119
 2305ntf    cn113505   1.510   0.690   4.802  0.5656 -0.0767  0.0739
 2305ntf    fn413506   1.882   0.799   4.536 -0.0400 -0.1719 -0.2691
 2305ntf    fn413507   1.920   1.000   4.548  0.0372 -0.0489  0.4256
 2305ntf    fn413508   2.022   0.867   4.673 -0.7131 -0.3833  0.6891
 2305ntf    on513509   1.817   0.973   4.861  0.3122 -0.1552  0.0402
 2305ntf    on513510   1.666   0.963   4.658  0.8030 -0.0089 -0.5822
 2305ntf    on513511   1.685   0.516   4.718  0.0367  0.1009  0.2629
 2305ntf    on513512   1.607   0.683   4.560 -0.6404 -0.1357 -0.0505
 2305ntf    fn413513   1.523   0.639   4.924 -0.1817 -0.2992  0.0669
 2305ntf    fn413514   1.489   0.820   4.814  0.4675 -0.0450 -0.4169
 2305ntf    fn413515   1.401   0.637   4.750  0.2881  0.1875  0.3846
 2306ntf    cn113516   2.046   2.151   1.931  0.2047  0.3085 -0.0524
 2306ntf    sn213517   1.975   2.042   1.804  0.0927 -0.0718  0.3377
 2306ntf    nn313518   1.835   2.111   1.792 -0.1166 -0.5652 -0.1032
 2306ntf    sn213519   1.694   2.067   1.845 -0.3797  0.3178 -0.0479
 2306ntf    cn113520   1.662   2.189   1.975  0.2673  0.2617  0.1670
 2306ntf    fn413521   1.956   2.182   2.023  0.4856  0.5327  0.1494
 2306ntf    fn413522   2.153   2.105   1.993 -0.1906 -0.2215  0.2431
 2306ntf    fn413523   2.085   2.268   1.881  0.7826  0.2342  0.2152
 2306ntf    on513524   2.055   2.070   1.688 -0.0026  0.0324  0.2972
 2306ntf    on513525   1.975   1.912   1.867 -0.4092 -0.4239 -0.3886
 2306ntf    on513526   1.674   1.936   1.902 -0.4739  0.2337 -0.2745
 2306ntf    on513527   1.594   2.097   1.746 -0.3394  0.3590 -0.0759
 2306ntf    fn413528   1.719   2.172   2.094 -0.0480  0.2434  0.3176
 2306ntf    fn413529   1.692   2.309   1.929 -0.3742  0.4260  0.1673
 2306ntf    fn413530   1.533   2.197   2.005  0.2458  0.5717 -0.0083
 2307ntf    cn113531   5.452   2.950   5.232  0.0301  0.0178 -0.1726
 2307ntf    sn213532   5.569   3.007   5.104  0.0983 -0.1779 -0.1982
 2307ntf    nn313533   5.563   2.879   5.013 -0.4341 -0.2711 -0.0385
 2307ntf    sn213534   5.531   2.870   4.859 -0.1730 -0.1503 -0.1007
 2307ntf    cn113535   5.547   2.689   4.851  0.2707 -0.1419  0.5098
 2307ntf    fn413536   5.334   2.915   5.183 -0.1959 -0.3400  0.6155
 2307ntf    fn413537   5.499   2.842   5.291 -0.2818 -0.0276 -0.0064
 2307ntf    fn413538   5.433   3.040   5.327 -0.0554 -0.1182 -0.0606
 2307ntf    on513539   5.498   3.116   5.042  0.0540 -0.2772 -0.3221
 2307ntf    on513540   5.697   3.025   5.167 -0.0741 -0.6916  0.3120
 2307ntf    on513541   5.630   2.924   4.768  0.4338 -0.2540  0.4871
 2307ntf    on513542   5.393   2.889   4.824  0.0148  0.8148 -0.3446
 2307ntf    fn413543   5.667   2.647   4.888  0.4435  0.0085  0.1212
 2307ntf    fn413544   5.462   2.620   4.926  0.1503 -0.2902  0.2373
 2307ntf    fn413545   5.531   2.654   4.725  0.2075 -0.0858  0.5018
 2308ntf    cn113546   0.919   3.192   1.529  0.1152  0.0285  0.0262
 2308ntf    sn213547   0.749   3.252   1.504  0.0574 -0.1255  0.0492
 2308ntf    nn313548   0.772   3.401   1.546 -0.0471 -0.0223 -0.2557
 2308ntf    sn213549   0.704   3.479   1.664  0.4089 -0.3883  0.2508
 2308ntf    cn113550   0.847   3.577   1.719  0.1774 -0.1677  0.4624
 2308ntf    fn413551   1.011   3.262   1.465 -0.1847  0.1779 -0.2499
 2308ntf    fn413552   0.948   3.209   1.656 -0.4327  0.8800  0.0519
 2308ntf    fn413553   0.935   3.064   1.498 -0.0185  0.0097  0.0329
 2308ntf    on513554   0.734   3.248   1.361 -0.0951 -0.4524  0.0743
 2308ntf    on513555   0.672   3.160   1.583 -0.3859 -0.0101 -0.2425
 2308ntf    on513556   0.666   3.402   1.781 -0.6401  0.3451  0.4090
 2308ntf    on513557   0.605   3.575   1.621  1.0936  0.2888  0.1758
 2308ntf    fn413558   0.862   3.691   1.655  0.0904 -0.1656  0.4447
 2308ntf    fn413559   0.843   3.601   1.849 -0.3395 -0.1382  0.4447
 2308ntf    fn413560   0.958   3.506   1.707  0.0394 -0.2039 -0.7464
 2309ntf    cn113561   2.853   0.673   0.403 -0.0456  0.0358 -0.1439
 2309ntf    sn213562   2.983   0.783   0.341  0.0163  0.0465  0.0041
 2309ntf    nn313563   3.081   0.687   0.264 -0.2930 -0.2052 -0.0749
 2309ntf    sn213564   3.059   0.580   0.151 -0.1410 -0.3606  0.0433
 2309ntf    cn113565   3.130   0.676   0.014 -0.0936  0.0466  0.3503
 2309ntf    fn413566   2.900   0.574   0.477 -0.4182 -0.2319 -0.2662
 2309ntf    fn413567   2.768   0.738   0.482  0.2666  0.2280  0.0367
 2309ntf    fn413568   2.776   0.619   0.310  0.0714 -0.3194 -0.0371
 2309ntf    on513569   2.920   0.879   0.253 -0.0616 -0.2039 -0.2134
 2309ntf    on513570   3.042   0.843   0.458  0.1669 -0.1700  0.0391
 2309ntf    on513571   2.925   0.550   0.108 -0.0097 -0.1048 -0.5531
 2309ntf    on513572   3.148   0.467   0.155  0.3499  0.0151 -0.1057
 2309ntf    fn413573   3.242   0.735   0.050 -0.0733 -0.2520  0.7758
 2309ntf    fn413574   3.165   0.588  -0.078 -0.1284  0.0371  0.3458
 2309ntf    fn413575   3.056   0.768  -0.047  0.2766  0.1870  0.1123
 2310ntf    cn113576   5.486   4.804   5.870 -0.0293  0.1064  0.3380
 2310ntf    sn213577   5.560   4.669   5.773  0.0331  0.1549  0.3174
 2310ntf    nn313578   5.429   4.592   5.735  0.1617  0.1159 -0.0478
 2310ntf    sn213579   5.424   4.452   5.663 -0.0386  0.0028  0.1849
 2310ntf    cn113580   5.340   4.484   5.505 -0.1012  0.0573  0.2289
 2310ntf    fn413581   5.397   4.872   5.801  0.1072  0.1229  0.1772
 2310ntf    fn413582   5.426   4.764   5.980 -0.5937 -0.0039 -0.0089
 2310ntf    fn413583   5.573   4.899   5.901 -0.0417  0.3332 -0.2986
 2310ntf    on513584   5.621   4.734   5.660  0.0824  0.1234  0.3260
 2310ntf    on513585   5.643   4.610   5.875  0.5459 -0.5850 -0.5145
 2310ntf    on513586   5.332   4.359   5.724  0.3649  0.0527  0.8835
 2310ntf    on513587   5.552   4.404   5.617  0.0501  0.1829  0.2447
 2310ntf    fn413588   5.311   4.377   5.433  0.0105  0.3044 -0.1852
 2310ntf    fn413589   5.226   4.550   5.515  0.2601  0.7280  0.0399
 2310ntf    fn413590   5.416   4.564   5.431  0.4088 -0.5360  0.1050
 2311ntf    cn113591   3.701   1.354   6.542 -0.0687  0.3056 -0.7112
 2311ntf    sn213592   3.829   1.273   6.441  0.1191 -0.1990 -0.0794
 2311ntf    nn313593   3.757   1.135   6.425  0.0504 -0.1532 -0.1648
 2311ntf    sn213594   3.780   1.002   6.504 -0.1070 -0.1438 -0.1025
 2311ntf    cn113595   3.620   0.918   6.486 -0.1604 -0.1046  0.1945
 2311ntf    fn413596   3.660   1.277   6.642 -0.0740  0.4271 -0.6190
 2311ntf    fn413597   3.739   1.468   6.597 -0.2219 -0.0551  0.1555
 2311ntf    fn413598   3.589   1.372   6.476 -0.2875 -0.2859 -0.5132
 2311ntf    on513599   3.825   1.350   6.319  0.7314  0.1789  0.1289
 2311ntf    on513600   3.949   1.278   6.522  0.4329  0.1759 -0.5556
 2311ntf    on513601   3.792   1.011   6.647 -0.0101 -0.1458 -0.1101
 2311ntf    on513602   3.868   0.917   6.427  0.0340 -0.3553  0.2888
 2311ntf    fn413603   3.529   1.001   6.535 -0.1651  0.4306 -0.7052
 2311ntf    fn413604   3.583   0.891   6.362 -0.4799 -0.2743  0.3250
 2311ntf    fn413605   3.612   0.807   6.557 -0.2026  0.1801  0.6456
 2312ntf    cn113606   6.186   5.837   4.269 -0.0132 -0.0958  0.1016
 2312ntf    sn213607   6.185   6.015   4.304 -0.0863 -0.0863  0.0515
 2312ntf    nn313608   6.190   6.009   4.461 -0.1495  0.3969  0.0732
 2312ntf    sn213609   6.236   6.123   4.559 -0.2354  0.1635  0.3822
 2312ntf    cn113610   6.071   6.188   4.601 -0.3749  0.1072 -0.0745
 2312ntf    fn413611   6.300   5.778   4.302  0.1263  0.1572  0.0719
 2312ntf    fn413612   6.081   5.776   4.322 -0.0756 -0.2534 -0.2033
 2312ntf    fn413613   6.182   5.808   4.140 -0.1926  0.2840  0.0210
 2312ntf    on513614   6.308   6.061   4.244 -0.1198 -0.0750 -0.0074
 2312ntf    on513615   6.063   6.074   4.254 -0.2163  0.0221  0.4908
 2312ntf    on513616   6.309   6.236   4.509  0.2448 -0.2382  0.1746
 2312ntf    on513617   6.285   6.060   4.680 -0.1958 -0.1410  0.2080
 2312ntf    fn413618   6.004   6.089   4.658 -0.3475  0.2030  0.1248
 2312ntf    fn413619   6.068   6.279   4.697 -0.0924  0.2281 -0.1772
 2312ntf    fn413620   6.005   6.237   4.498 -0.2821  0.0050 -0.1834
 2313ntf    cn113621   4.785   1.179   4.569  0.4215  0.2675  0.0307
 2313ntf    sn213622   4.808   0.999   4.575 -0.0159  0.2139  0.1204
 2313ntf    nn313623   4.754   0.959   4.717 -0.2268 -0.1525 -0.0604
 2313ntf    sn213624   4.838   0.974   4.849  0.0251 -0.3050 -0.2018
 2313ntf    cn113625   4.907   0.809   4.882  0.0463 -0.2351  0.1126
 2313ntf    fn413626   4.660   1.220   4.555  0.2942 -0.4266 -0.9659
 2313ntf    fn413627   4.831   1.250   4.671 -0.5148  0.3456  0.4096
 2313ntf    fn413628   4.854   1.227   4.467  0.0150  0.5132 -0.1293
 2313ntf    on513629   4.709   0.963   4.477  0.4471  0.0990 -0.3105
 2313ntf    on513630   4.942   0.971   4.531 -0.0151  0.6854 -0.1781
 2313ntf    on513631   4.752   0.993   4.964  0.1960 -1.0203  0.0510
 2313ntf    on513632   4.945   1.069   4.836 -0.0037 -0.2708 -0.1884
 2313ntf    fn413633   4.997   0.791   4.787  0.0906  0.3749  0.0342
 2313ntf    fn413634   4.980   0.807   4.993  0.5356  0.7986 -0.1788
 2313ntf    fn413635   4.813   0.716   4.888 -0.5681  0.3903  0.2405
 2314ntf    cn113636   2.610   0.109   2.365  0.2577  0.1202  0.2832
 2314ntf    sn213637   2.477   0.024   2.455  0.0360  0.0188 -0.1348
 2314ntf    nn313638   2.547  -0.108   2.504  0.5361  0.2443 -0.2377
 2314ntf    sn213639   2.554  -0.167   2.649 -0.0494  0.0768 -0.2788
 2314ntf    cn113640   2.692  -0.078   2.725  0.0587  0.0555 -0.4507
 2314ntf    fn413641   2.571   0.225   2.313  0.3648 -0.0894 -0.2714
 2314ntf    fn413642   2.718   0.133   2.437  0.5541 -0.4637  0.0360
 2314ntf    fn413643   2.644   0.030   2.264 -0.0169 -0.1924  0.4328
 2314ntf    on513644   2.450   0.125   2.555 -0.0917 -0.4004  0.2597
 2314ntf    on513645   2.372  -0.001   2.359 -0.3007 -0.2871  0.3092
 2314ntf    on513646   2.605  -0.302   2.657 -0.5059 -0.0391  0.8411
 2314ntf    on513647   2.437  -0.146   2.731 -0.0910  0.2918 -0.3935
 2314ntf    fn413648   2.698  -0.107   2.854 -0.1305  0.1524 -0.4204
 2314ntf    fn413649   2.804  -0.110   2.662  0.5802  0.1353  0.4196
 2314ntf    fn413650   2.687   0.054   2.714  0.1437  0.1328  0.3479
 2315ntf    cn113651   4.326   2.849   5.848 -0.2823  0.3171 -0.1539
 2315ntf    sn213652   4.341   2.771   6.012  0.0721  0.4077 -0.1423
 2315ntf    nn313653   4.498   2.764   6.022  0.0456  0.1585  0.1195
 2315ntf    sn213654   4.596   2.646   5.990 -0.3481 -0.1170 -0.0819
 2315ntf    cn113655   4.705   2.654   6.135 -0.4209 -0.1561 -0.0248
 2315ntf    fn413656   4.396   2.791   5.751  0.0391  0.5978 -0.0932
 2315ntf    fn413657   4.202   2.842   5.803 -0.1916  0.7486 -0.4785
 2315ntf    fn413658   4.359   2.977   5.853  0.0115  0.2504 -0.3230
 2315ntf    on513659   4.277   2.865   6.100 -0.3614 -0.2735  0.2785
 2315ntf    on513660   4.284   2.640   5.990  0.5706  0.1498  0.0711
 2315ntf    on513661   4.687   2.677   5.883 -0.0599 -0.1971  0.1376
 2315ntf    on513662   4.539   2.514   5.998 -0.4211 -0.1166 -0.5842
 2315ntf    fn413663   4.643   2.629   6.249 -0.0798 -1.0284 -0.0202
 2315ntf    fn413664   4.808   2.571   6.120  0.0012  0.3329  0.1331
 2315ntf    fn413665   4.755   2.776   6.143 -0.0572 -0.3120  0.1025
 2316ntf    cn113666   1.676   2.116   3.536 -0.2728 -0.5712  0.1209
 2316ntf    sn213667   1.770   2.053   3.394  0.0014 -0.3558  0.2057
 2316ntf    nn313668   1.772   1.897   3.411 -0.5183 -0.3628  0.2138
 2316ntf    sn213669   1.889   1.792   3.411 -0.1300  0.0638 -0.2324
 2316ntf    cn113670   1.914   1.778   3.232 -0.0349 -0.2587 -0.1933
 2316ntf    fn413671   1.630   2.237   3.507  0.1442 -0.4395  0.0020
 2316ntf    fn413672   1.574   2.042   3.574 -0.5957  0.1147  0.6245
 2316ntf    fn413673   1.753   2.129   3.644 -0.5839 -0.2567  0.3076
 2316ntf    on513674   1.692   2.101   3.283  0.1903 -0.5882 -0.0297
 2316ntf    on513675   1.902   2.111   3.411 -0.0580 -0.0540 -0.3473
 2316ntf    on513676   1.849   1.661   3.455  0.2801 -0.0327 -0.1426
 2316ntf    on513677   2.016   1.834   3.466 -0.0399  0.1060 -0.4727
 2316ntf    fn413678   1.949   1.894   3.179 -0.5856  0.0599  0.1336
 2316ntf    fn413679   2.014   1.694   3.207  0.1283 -0.0652 -0.1867
 2316ntf    fn413680   1.805   1.726   3.177 -0.5240  0.2846  0.2518
 2317ntf    cn113681   0.379   0.264   5.506 -0.1556 -0.0776 -0.5163
 2317ntf    sn213682   0.500   0.259   5.370  0.1505  0.0144 -0.2481
 2317ntf    nn313683   0.402   0.262   5.248 -0.5739 -0.1818  0.3168
 2317ntf    sn213684   0.421   0.186   5.112  0.1715  0.3387  0.1199
 2317ntf    cn113685   0.323   0.280   4.991 -0.1124  0.1751  0.2218
 2317ntf    fn413686   0.315   0.149   5.518 -0.0756 -0.0528  0.1541
 2317ntf    fn413687   0.430   0.285   5.626 -0.2730 -0.5637 -0.3787
 2317ntf    fn413688   0.281   0.353   5.497  0.0730  0.2875  0.5260
 2317ntf    on513689   0.577   0.379   5.390 -0.8285  0.6389 -0.1393
 2317ntf    on513690   0.572   0.136   5.389 -0.2656 -0.1860  0.0667
 2317ntf    on513691   0.353   0.058   5.112 -0.2593  0.5630 -0.2319
 2317ntf    on513692   0.550   0.189   5.049  0.1412  0.0102  0.0350
 2317ntf    fn413693   0.198   0.301   5.031 -0.2175  0.1291 -0.0773
 2317ntf    fn413694   0.374   0.397   4.956 -0.2405  0.0914 -0.2630
 2317ntf    fn413695   0.319   0.214   4.876 -0.1090 -0.1592  0.4108
 2318ntf    cn113696   4.758   6.275   3.957  0.0010 -0.2063 -0.3934
 2318ntf    sn213697   4.599   6.335   4.021  0.1751 -0.2086  0.0431
 2318ntf    nn313698   4.603   6.264   4.161  0.3359 -0.1340  0.0773
 2318ntf    sn213699   4.663   6.311   4.298  0.0725 -0.1027  0.1840
 2318ntf    cn113700   4.517   6.363   4.393  0.0940 -0.0187  0.1722
 2318ntf    fn413701   4.759   6.148   3.917 -0.6973 -0.3827  0.1297
 2318ntf    fn413702   4.804   6.343   3.854 -0.0703  0.4779  0.0245
 2318ntf    fn413703   4.850   6.285   4.051 -0.2802  0.2022 -0.1586
 2318ntf    on513704   4.606   6.479   4.023 -0.2771 -0.1899  0.9490
 2318ntf    on513705   4.504   6.278   3.928 -0.0910  0.4103 -0.0686
 2318ntf    on513706   4.743   6.431   4.297 -0.7455  0.4485 -0.1478
 2318ntf    on513707   4.721   6.202   4.373 -0.1193 -0.3707 -0.0559
 2318ntf    fn413708   4.428   6.267   4.410  0.1148 -0.0649  0.0227
 2318ntf    fn413709   4.549   6.406   4.514 -0.1681  0.3798  0.1026
 2318ntf    fn413710   4.450   6.457   4.328 -0.0031  0.0858  0.4224
 2319ntf    cn113711   0.795   3.341   0.585 -0.1811  0.0504 -0.0566
 2319ntf    sn213712   0.635   3.311   0.504 -0.0177 -0.1113 -0.3182
 2319ntf    nn313713   0.675   3.185   0.419  0.3348 -0.3463  0.1910
 2319ntf    sn213714   0.694   3.034   0.459  0.4873 -0.3359  0.1585
 2319ntf    cn113715   0.531   2.975   0.404  0.1591  0.2636  0.4704
 2319ntf    fn413716   0.838   3.234   0.650  0.0395  0.2178  0.0734
 2319ntf    fn413717   0.891   3.370   0.499  0.0935  0.5838  0.4262
 2319ntf    fn413718   0.793   3.444   0.668  0.6115  0.1839 -0.2029
 2319ntf    on513719   0.536   3.279   0.604  0.1017 -0.2425 -0.2418
 2319ntf    on513720   0.613   3.428   0.423  0.1455 -0.2363 -0.5450
 2319ntf    on513721   0.709   3.020   0.602  0.2103 -0.4375  0.1784
 2319ntf    on513722   0.783   2.963   0.371  0.2850 -0.7126  0.2604
 2319ntf    fn413723   0.494   3.028   0.288  0.0534 -0.4042  0.1934
 2319ntf    fn413724   0.531   2.843   0.402  0.0042  0.2670  0.1362
 2319ntf    fn413725   0.433   3.009   0.486 -0.4033 -0.6435  0.1907
 2320ntf    cn113726   3.301   0.556   2.071 -0.2002  0.0385  0.0984
 2320ntf    sn213727   3.224   0.679   2.181  0.4722  0.5708 -0.0163
 2320ntf    nn313728   3.314   0.808   2.176  0.3155  0.6747 -0.1692
 2320ntf    sn213729   3.282   0.945   2.106 -0.3003  0.5540 -0.1359
 2320ntf    cn113730   3.361   0.905   1.948  0.1713 -0.1483  0.2700
 2320ntf    fn413731   3.423   0.523   2.110 -0.2538 -0.3875 -0.0895
 2320ntf    fn413732   3.228   0.446   2.071 -0.0619 -0.0548  0.3110
 2320ntf    fn413733   3.306   0.601   1.947 -0.1875  0.5923  0.2955
 2320ntf    on513734   3.086   0.696   2.144  0.4116 -0.2720 -0.2045
 2320ntf    on513735   3.245   0.628   2.314  0.4814 -0.7333 -0.4949
 2320ntf    on513736   3.359   1.055   2.159  0.3618 -0.0704  0.2275
 2320ntf    on513737   3.145   0.970   2.070 -0.5155  0.0766  0.3334
 2320ntf    fn413738   3.367   1.013   1.872 -0.5877 -0.2589  0.0427
 2320ntf    fn413739   3.479   0.845   1.950  0.2595  0.0488  0.9348
 2320ntf    fn413740   3.290   0.813   1.885  0.3209 -0.3445  0.3842
 2321ntf    cn113741   1.924   4.258   0.102  0.2387  0.0615  0.0846
 2321ntf    sn213742   2.088   4.315   0.155  0.3326  0.3720 -0.5392
 2321ntf    nn313743   2.148   4.187   0.223  0.3406  0.3996 -0.4943
 2321ntf    sn213744   2.151   4.141   0.373  0.0984  0.0897 -0.5841
 2321ntf    cn113745   2.313   4.200   0.431 -0.2852  0.4659  0.1248
 2321ntf    fn413746   1.871   4.338   0.011  0.8123  0.2198 -0.1119
 2321ntf    fn413747   1.932   4.133   0.058  0.2907  0.0925  0.0061
 2321ntf    fn413748   1.841   4.258   0.205 -0.0555  0.4841 -0.1516
 2321ntf    on513749   2.151   4.332   0.026  0.2665 -0.4659 -0.6864
 2321ntf    on513750   2.062   4.434   0.232  0.4382  0.4391 -0.6057
 2321ntf    on513751   2.162   3.997   0.377  0.0603  0.1067  0.4773
 2321ntf    on513752   2.056   4.196   0.467  0.3279 -0.0986 -0.2369
 2321ntf    fn413753   2.315   4.331   0.418  0.3336  0.4564  0.1208
 2321ntf    fn413754   2.332   4.177   0.560  0.2184 -0.3735 -0.0901
 2321ntf    fn413755   2.414   4.151   0.360 -0.5197  0.2306 -0.0505
 2322ntf    cn113756   6.213   1.360   3.847 -0.0427 -0.0483 -0.3271
 2322ntf    sn213757   6.190   1.512   3.750 -0.2577  0.0995 -0.0455
 2322ntf    nn313758   6.302   1.487   3.644 -0.0672 -0.0031  0.1803
 2322ntf    sn213759   6.447   1.546   3.631 -0.1303  0.1677  0.2441
 2322ntf    cn113760   6.431   1.665   3.495  0.6629 -0.0083 -0.0127
 2322ntf    fn413761   6.129   1.349   3.949 -0.0013 -0.1824 -0.3079
 2322ntf    fn413762   6.188   1.263   3.761 -0.0299  0.1203 -0.5236
 2322ntf    fn413763   6.335   1.341   3.893  0.0061  0.1532 -0.3702
 2322ntf    on513764   6.057   1.488   3.699 -0.0503 -0.4879 -0.3053
 2322ntf    on513765   6.208   1.623   3.841  0.4226  0.1738 -0.2637
 2322ntf    on513766   6.535   1.445   3.577 -0.2715  0.4639 -0.5616
 2322ntf    on513767   6.487   1.628   3.742  0.0595 -0.2285  0.4697
 2322ntf    fn413768   6.374   1.782   3.522 -0.1525 -0.3566 -0.2052
 2322ntf    fn413769   6.548   1.689   3.438  0.5579 -0.0900 -0.2674
 2322ntf    fn413770   6.359   1.607   3.400  0.5114  0.1670 -0.0072
 2323ntf    cn113771   6.795   3.290   1.621  0.0514  0.0950 -0.1135
 2323ntf    sn213772   6.791   3.420   1.749 -0.3019 -0.0616  0.0342
 2323ntf    nn313773   6.719   3.531   1.665 -0.4673 -0.1304  0.0842
 2323ntf    sn213774   6.688   3.680   1.704  0.0274  0.0966 -0.3784
 2323ntf    cn113775   6.525   3.664   1.783  0.1999  0.0656 -0.0271
 2323ntf    fn413776   6.850   3.342   1.512  0.2894  0.0693 -0.0072
 2323ntf    fn413777   6.873   3.188   1.652  0.1798  0.1127 -0.3767
 2323ntf    fn413778   6.679   3.242   1.582  0.1652  0.0498 -0.4008
 2323ntf    on513779   6.712   3.374   1.860 -0.2449  0.1267  0.1526
 2323ntf    on513780   6.934   3.433   1.764 -0.3130  0.2503 -0.1327
 2323ntf    on513781   6.672   3.763   1.588  0.0927  0.1486 -0.3505
 2323ntf    on513782   6.762   3.735   1.815  0.4842  0.3223 -0.7927
 2323ntf    fn413783   6.528   3.598   1.898 -0.4278  0.0943  0.0075
 2323ntf    fn413784   6.465   3.778   1.811 -0.2555 -0.2456  0.2838
 2323ntf    fn413785   6.446   3.596   1.702 -0.1467  0.1661  0.2263
 2324ntf    cn113786   1.380   1.658   0.114  0.2170  0.1036 -0.1426
 2324ntf    sn213787   1.324   1.819   0.053 -0.1240  0.0911  0.1352
 2324ntf    nn313788   1.366   1.817  -0.098 -0.0022 -0.2462  0.1739
 2324ntf    sn213789   1.503   1.855  -0.167 -0.2375 -0.0863 -0.2097
 2324ntf    cn113790   1.483   2.034  -0.195 -0.2341 -0.1344 -0.5144
 2324ntf    fn413791   1.364   1.567   0.019 -0.3173 -0.0267  0.0700
 2324ntf    fn413792   1.510   1.656   0.141  0.2268  0.1719 -0.1837
 2324ntf    fn413793   1.317   1.624   0.225  0.3433 -0.3042 -0.1912
 2324ntf    on513794   1.182   1.805   0.072 -0.1797  0.2093 -0.1848
 2324ntf    on513795   1.383   1.916   0.142  0.8368 -0.1902 -0.1775
 2324ntf    on513796   1.514   1.801  -0.300 -0.1178  0.2819 -0.3494
 2324ntf    on513797   1.621   1.843  -0.086 -0.4288  0.3647  0.1442
 2324ntf    fn413798   1.401   2.066  -0.294 -0.2576  0.2374 -0.3762
 2324ntf    fn413799   1.441   2.098  -0.088 -0.6702 -0.0532 -0.7315
 2324ntf    fn413800   1.600   2.092  -0.217 -0.2471  0.0481 -0.1065
 2325ntf    cn113801   1.375   3.830   0.956 -0.2715 -0.4150  0.3411
 2325ntf    sn213802   1.487   3.691   0.993 -0.0553 -0.1881  0.5410
 2325ntf    nn313803   1.598   3.776   1.065  0.1221 -0.2017  0.2842
 2325ntf    sn213804   1.642   3.780   1.216 -0.1928 -0.1218  0.3738
 2325ntf    cn113805   1.817   3.806   1.178 -0.2803  0.2028  0.1895
 2325ntf    fn413806   1.346   3.913   1.055  0.2812  0.4786 -0.2328
 2325ntf    fn413807   1.422   3.907   0.859 -0.8123 -0.3553  0.1209
 2325ntf    fn413808   1.255   3.786   0.924 -0.1761 -0.1602 -0.3895
 2325ntf    on513809   1.405   3.601   1.070  0.5480 -0.5483  0.7684
 2325ntf    on513810   1.532   3.646   0.864  0.0191 -0.3791  0.6327
 2325ntf    on513811   1.633   3.657   1.290 -0.0116 -0.0533  0.5078
 2325ntf    on513812   1.609   3.901   1.287 -0.5898 -0.2510  0.4138
 2325ntf    fn413813   1.896   3.823   1.282 -0.3163  0.4201  0.1825
 2325ntf    fn413814   1.868   3.710   1.102  0.1664  0.4282  0.2002
 2325ntf    fn413815   1.830   3.912   1.099 -0.1657  0.0711  0.0302
 2326ntf    cn113816   2.117   6.725   6.144 -0.0368  0.0638 -0.3996
 2326ntf    sn213817   1.998   6.707   6.280  0.2382  0.1066 -0.1538
 2326ntf    nn313818   2.033   6.560   6.323 -0.0871  0.1011  0.0954
 2326ntf    sn213819   1.931   6.447   6.360 -0.0230 -0.0482 -0.1830
 2326ntf    cn113820   1.833   6.513   6.499  0.0450  0.0403 -0.1772
 2326ntf    fn413821   2.125   6.850   6.102 -0.1888  0.3575  0.4271
 2326ntf    fn413822   2.238   6.681   6.174 -0.3510 -0.3112  0.3633
 2326ntf    fn413823   2.075   6.644   6.047  0.2910 -0.6338  0.0322
 2326ntf    on513824   2.040   6.806   6.377 -0.1569  0.2933 -0.1740
 2326ntf    on513825   1.867   6.720   6.221  0.1043  0.1044  0.1381
 2326ntf    on513826   1.992   6.329   6.415  0.0366  0.1824  0.2558
 2326ntf    on513827   1.831   6.420   6.260 -0.0740 -0.2696 -0.0731
 2326ntf    fn413828   1.783   6.416   6.573  0.0497 -0.1824 -0.4617
 2326ntf    fn413829   1.908   6.589   6.577 -0.0666  0.5030 -0.5143
 2326ntf    fn413830   1.731   6.592   6.468 -0.3975 -0.3389  0.3144
 2327ntf    cn113831   6.767   3.239   0.131 -0.0046  0.1964  0.0419
 2327ntf    sn213832   6.873   3.094   0.160  0.0133  0.2102  0.0474
 2327ntf    nn313833   6.802   3.031   0.285  0.0897 -0.2655 -0.1479
 2327ntf    sn213834   6.727   2.893   0.293 -0.2176 -0.0866  0.0492
 2327ntf    cn113835   6.865   2.778   0.318  0.2259  0.3588 -0.3058
 2327ntf    fn413836   6.641   3.211   0.101  0.0993 -0.1211 -0.1058
 2327ntf    fn413837   6.758   3.328   0.228 -0.2846 -0.6655  0.8249
 2327ntf    fn413838   6.818   3.301   0.026 -0.1807  0.2768  0.0026
 2327ntf    on513839   6.866   3.012   0.041  0.1000 -1.1369  0.9464
 2327ntf    on513840   7.001   3.147   0.199  0.2416 -0.0555 -0.3395
 2327ntf    on513841   6.659   2.846   0.174 -0.3501 -0.2820  0.2016
 2327ntf    on513842   6.646   2.881   0.412 -0.2042 -0.1749  0.0487
 2327ntf    fn413843   6.945   2.818   0.415  0.0049  0.4422 -0.1570
 2327ntf    fn413844   6.826   2.656   0.352 -0.0564  0.3536 -0.6436
 2327ntf    fn413845   6.940   2.773   0.209 -0.1480  0.0924 -0.5559
 2328ntf    cn113846   0.264   3.205   3.552  0.4706 -0.3953  0.4220
 2328ntf    sn213847   0.310   3.035   3.508  0.1584 -0.3436 -0.1072
 2328ntf    nn313848   0.406   2.993   3.625  0.1882  0.4891  0.1727
 2328ntf    sn213849   0.387   2.905   3.753  0.1953  0.0575 -0.1201
 2328ntf    cn113850   0.422   2.737   3.694 -0.1196 -0.0698  0.0518
 2328ntf    fn413851   0.216   3.214   3.675  0.1545  0.2964  0.2550
 2328ntf    fn413852   0.375   3.277   3.554  0.1715  0.0948 -0.1812
 2328ntf    fn413853   0.171   3.259   3.474  0.3651 -0.1956  0.6802
 2328ntf    on513854   0.183   2.968   3.496  0.2007 -0.3803 -0.3572
 2328ntf    on513855   0.387   3.044   3.386  0.1718 -0.4390 -0.1062
 2328ntf    on513856   0.258   2.902   3.818  0.4609  0.1386  0.4240
 2328ntf    on513857   0.491   2.927   3.851 -0.1606  0.1625  0.2387
 2328ntf    fn413858   0.382   2.641   3.776  0.1440 -0.5173 -0.3415
 2328ntf    fn413859   0.364   2.710   3.577  0.5143 -0.1170 -0.2534
 2328ntf    fn413860   0.551   2.718   3.678 -0.0374  0.1081  0.4869
 2329ntf    cn113861   0.102   4.730   5.919 -0.0689 -0.3302 -0.0697
 2329ntf    sn213862  -0.079   4.720   5.928 -0.0754 -0.1321  0.0455
 2329ntf    nn313863  -0.103   4.660   6.071  0.5482  0.0726  0.2394
 2329ntf    sn213864  -0.183   4.727   6.189  0.0895  0.0390 -0.0500
 2329ntf    cn113865  -0.130   4.636   6.338 -0.1105 -0.2395 -0.1480
 2329ntf    fn413866   0.151   4.776   5.805  0.3029 -0.5500 -0.0010
 2329ntf    fn413867   0.164   4.799   6.014 -0.4459  0.3947 -0.3401
 2329ntf    fn413868   0.153   4.608   5.926  0.1096 -0.2682 -0.2626
 2329ntf    on513869  -0.116   4.859   5.929 -0.0230 -0.1186  0.0270
 2329ntf    on513870  -0.122   4.634   5.820 -0.3550 -0.0570  0.0958
 2329ntf    on513871  -0.323   4.693   6.181  0.0129  0.4338 -0.3916
 2329ntf    on513872  -0.149   4.864   6.215  0.2511  0.0230 -0.1783
 2329ntf    fn413873  -0.197   4.669   6.447 -0.2538 -0.1912 -0.2511
 2329ntf    fn413874  -0.141   4.505   6.323  0.0533 -0.2562 -0.1171
 2329ntf    fn413875  -0.003   4.653   6.369 -0.2022 -0.3978  0.3151
 2330ntf    cn113876   4.528   6.773   1.437 -0.0944 -0.2237  0.1774
 2330ntf    sn213877   4.488   6.660   1.300  0.0110  0.2286 -0.2292
 2330ntf    nn313878   4.332   6.659   1.314  0.0096 -0.1524 -0.2734
 2330ntf    sn213879   4.237   6.571   1.403  0.0925 -0.0887 -0.1210
 2330ntf    cn113880   4.082   6.661   1.433  0.3659  0.2825  0.1868
 2330ntf    fn413881   4.494   6.900   1.417  0.4351 -0.1291 -0.1342
 2330ntf    fn413882   4.474   6.740   1.553 -0.4196  0.3313  0.1876
 2330ntf    fn413883   4.655   6.795   1.465 -0.0912  0.3752 -0.2630
 2330ntf    on513884   4.533   6.734   1.184 -0.0606 -0.3204 -0.6104
 2330ntf    on513885   4.562   6.543   1.341 -0.2828  0.0808 -0.1218
 2330ntf    on513886   4.294   6.545   1.532  0.0455 -0.2176 -0.1265
 2330ntf    on513887   4.190   6.457   1.328 -0.4480 -0.2335  0.4278
 2330ntf    fn413888   4.046   6.663   1.561  0.4606  0.2956  0.2128
 2330ntf    fn413889   4.099   6.787   1.397  0.2269  0.1355 -0.3972
 2330ntf    fn413890   3.981   6.617   1.359  0.3672  0.5151  0.0461
 2331ntf    cn113891   5.486   3.274   5.630 -0.0006 -0.0104 -0.0297
 2331ntf    sn213892   5.347   3.232   5.739 -0.0735  0.0770 -0.0885
 2331ntf    nn313893   5.262   3.126   5.660  0.2897 -0.0734 -0.2822
 2331ntf    sn213894   5.154   3.028   5.718  0.3010  0.1599  0.1446
 2331ntf    cn113895   5.036   3.033   5.579 -0.0663 -0.1059  0.4427
 2331ntf    fn413896   5.445   3.333   5.519  0.0060 -0.2098 -0.1384
 2331ntf    fn413897   5.578   3.351   5.688  0.2441 -0.0323 -0.3876
 2331ntf    fn413898   5.547   3.163   5.593  0.6476  0.1330  0.5939
 2331ntf    on513899   5.418   3.181   5.854 -0.0533  0.1505 -0.0682
 2331ntf    on513900   5.284   3.361   5.755  0.1393  0.1685  0.0222
 2331ntf    on513901   5.078   3.079   5.829 -0.0874  0.2521 -0.1589
 2331ntf    on513902   5.200   2.891   5.720 -0.2737 -0.0355  0.2693
 2331ntf    fn413903   5.081   2.968   5.473  0.4902  0.6744  0.1890
 2331ntf    fn413904   4.914   2.991   5.607 -0.0679 -0.2446  0.2206
 2331ntf    fn413905   5.012   3.157   5.538  0.1906  0.1788  1.1324
 2332ntf    cn113906   5.054   4.290   1.953  0.1419  0.0847  0.1393
 2332ntf    sn213907   5.080   4.259   2.130 -0.2234 -0.1742  0.1495
 2332ntf    nn313908   5.235   4.234   2.126 -0.2397 -0.2009 -0.2804
 2332ntf    sn213909   5.350   4.340   2.111 -0.2482 -0.1418  0.0692
 2332ntf    cn113910   5.442   4.270   1.971  0.1325  0.0950  0.2022
 2332ntf    fn413911   5.130   4.205   1.886  0.1036  0.2759 -0.1457
 2332ntf    fn413912   4.927   4.269   1.923  0.0000  0.0859  0.7231
 2332ntf    fn413913   5.086   4.408   1.903  0.2522  0.0467  0.1210
 2332ntf    on513914   5.034   4.377   2.200 -0.1792 -0.2165  0.2516
 2332ntf    on513915   5.011   4.136   2.159 -0.0417 -0.3497 -0.1699
 2332ntf    on513916   5.446   4.335   2.218 -0.4393 -0.7087  0.2170
 2332ntf    on513917   5.314   4.471   2.061  0.1374 -0.2229 -0.4179
 2332ntf    fn413918   5.442   4.138   1.962 -0.2168  0.0814  0.3944
 2332ntf    fn413919   5.403   4.317   1.854  0.1059 -0.1030  0.1313
 2332ntf    fn413920   5.569   4.309   1.974  0.1374  0.0675  0.4446
 2333ntf    cn113921   2.490   3.592   2.066  0.0176  0.0385  0.1971
 2333ntf    sn213922   2.557   3.705   1.940  0.0379 -0.0316  0.1448
 2333ntf    nn313923   2.711   3.676   1.935  0.0961  0.2820  0.1290
 2333ntf    sn213924   2.785   3.559   1.862 -0.2373  0.0928  0.0920
 2333ntf    cn113925   2.811   3.642   1.702 -0.1095  0.0684  0.1002
 2333ntf    fn413926   2.502   3.624   2.194  0.2163 -0.5217  0.3237
 2333ntf    fn413927   2.361   3.579   2.040 -0.0542  0.5649  0.2777
 2333ntf    fn413928   2.542   3.471   2.052 -0.1498  0.0392 -0.4821
 2333ntf    on513929   2.490   3.671   1.817  0.0920 -0.2341  0.1713
 2333ntf    on513930   2.527   3.832   2.000  0.7126  0.2928 -0.1900
 2333ntf    on513931   2.702   3.445   1.835  0.4787 -0.3708 -0.1940
 2333ntf    on513932   2.919   3.535   1.909 -0.0989  0.4086 -0.1323
 2333ntf    fn413933   2.699   3.669   1.637  0.0833  0.3094 -0.1330
 2333ntf    fn413934   2.877   3.757   1.708 -0.0024  0.0030  0.1919
 2333ntf    fn413935   2.875   3.556   1.624 -0.3808  0.1146 -0.1758
 2334ntf    cn113936   2.133   1.875   0.773 -0.1199  0.3277 -0.1074
 2334ntf    sn213937   2.259   1.979   0.853 -0.0818  0.1499  0.0627
 2334ntf    nn313938   2.188   2.012   0.989 -0.0149 -0.4831  0.2541
 2334ntf    sn213939   2.212   2.127   1.093 -0.0621 -0.3482  0.1164
 2334ntf    cn113940   2.051   2.208   1.077  0.2284  0.1356 -0.3598
 2334ntf    fn413941   2.110   1.765   0.843 -0.3905  0.5238  0.1181
 2334ntf    fn413942   2.015   1.932   0.755 -0.1944  0.4804  0.8205
 2334ntf    fn413943   2.168   1.830   0.654 -0.7593  0.0483 -0.1943
 2334ntf    on513944   2.372   1.892   0.870 -0.3262 -0.1798  0.0172
 2334ntf    on513945   2.278   2.093   0.768  0.0387  0.0585 -0.0337
 2334ntf    on513946   2.304   2.229   1.049 -0.6283  0.0249 -0.2177
 2334ntf    on513947   2.208   2.087   1.232  0.3808 -0.2821  0.1507
 2334ntf    fn413948   1.956   2.119   1.103  0.0172  0.1991 -0.8821
 2334ntf    fn413949   2.041   2.314   1.157 -0.5488 -0.0587 -0.1893
 2334ntf    fn413950   2.028   2.260   0.957  0.1938  0.4459 -0.2197
 2335ntf    cn113951   3.939   6.897   6.309 -0.2364 -0.1212 -0.6131
 2335ntf    sn213952   3.979   6.894   6.487  0.0129  0.1910 -0.6631
 2335ntf    nn313953   3.963   7.047   6.519  0.5531  0.1645 -0.2518
 2335ntf    sn213954   4.046   7.145   6.609  0.3249  0.1529 -0.0270
 2335ntf    cn113955   3.913   7.236   6.693  0.2145  0.0831 -0.1272
 2335ntf    fn413956   3.818   6.945   6.289 -0.3062  0.0193  0.1098
 2335ntf    fn413957   4.025   6.972   6.241 -0.1799  0.3013 -0.0865
 2335ntf    fn413958   3.938   6.776   6.256  0.0121 -0.3822 -0.0408
 2335ntf    on513959   3.867   6.823   6.544  0.7058 -0.3246  0.0784
 2335ntf    on513960   4.110   6.836   6.497 -0.0942  0.0265 -0.1795
 2335ntf    on513961   4.119   7.248   6.539 -0.3358  0.4368 -0.3079
 2335ntf    on513962   4.123   7.083   6.714  0.0052 -0.0922  0.0652
 2335ntf    fn413963   3.962   7.302   6.797  0.3202  0.0259 -0.1397
 2335ntf    fn413964   3.851   7.326   6.618  0.1296 -0.0889 -0.2629
 2335ntf    fn413965   3.818   7.155   6.737 -0.0149 -0.0913 -0.9195
 2336ntf    cn113966   3.006   1.072   3.546  0.1170  0.2739  0.0802
 2336ntf    sn213967   3.087   1.206   3.638  0.3111  0.2063  0.0077
 2336ntf    nn313968   3.117   1.125   3.769 -0.0009 -0.0056 -0.0493
 2336ntf    sn213969   3.255   1.067   3.816  0.0766  0.2992  0.0995
 2336ntf    cn113970   3.242   1.098   3.995  0.0713  0.2438  0.1089
 2336ntf    fn413971   2.904   1.008   3.601  0.0066 -0.0857 -0.5250
 2336ntf    fn413972   2.968   1.114   3.426 -0.3577  0.0372  0.1461
 2336ntf    fn413973   3.091   0.973   3.524 -0.2863  0.0486 -0.5030
 2336ntf    on513974   3.203   1.240   3.559  0.4564  0.1520  0.1964
 2336ntf    on513975   2.979   1.298   3.659 -0.2432 -0.3128 -0.5163
 2336ntf    on513976   3.372   1.144   3.780  0.2844 -0.1872 -0.2733
 2336ntf    on513977   3.263   0.924   3.799  0.4696  0.3347 -0.0168
 2336ntf    fn413978   3.238   1.226   4.029 -0.2732  0.2112  0.1955
 2336ntf    fn413979   3.132   1.040   4.039  0.3282 -0.8475 -0.6407
 2336ntf    fn413980   3.343   1.043   4.061  0.1778 -0.3229 -0.5196
 2337ntf    cn113981   2.420   5.717   6.672 -0.0932  0.3551  0.0410
 2337ntf    sn213982   2.467   5.792   6.831 -0.0741  0.1948  0.1118
 2337ntf    nn313983   2.377   5.712   6.931 -0.1365  0.3496  0.1796
 2337ntf    sn213984   2.223   5.718   6.960 -0.2232 -0.2768 -0.1365
 2337ntf    cn113985   2.237   5.812   7.115  0.3868 -0.3429 -0.1500
 2337ntf    fn413986   2.464   5.795   6.575 -0.2023 -0.0811 -0.3628
 2337ntf    fn413987   2.457   5.593   6.649  0.1290  0.4233  0.0353
 2337ntf    fn413988   2.289   5.705   6.658 -0.0716 -0.0607  0.2076
 2337ntf    on513989   2.607   5.766   6.850 -0.0845  0.1554  0.1323
 2337ntf    on513990   2.431   5.930   6.812  0.0035  0.2278  0.2066
 2337ntf    on513991   2.153   5.597   6.997 -0.4611 -0.2113 -0.3670
 2337ntf    on513992   2.151   5.818   6.885  0.7343  0.4067 -0.1525
 2337ntf    fn413993   2.274   5.932   7.075  0.4402 -0.3656 -0.1685
 2337ntf    fn413994   2.124   5.835   7.180  0.5115  0.5670 -0.2490
 2337ntf    fn413995   2.334   5.773   7.196  0.5341  0.5488  0.1142
 2338ntf    cn113996   2.808   1.247   1.572  0.3692 -0.0084 -0.2715
 2338ntf    sn213997   2.838   1.282   1.396 -0.0098 -0.1455 -0.3631
 2338ntf    nn313998   2.802   1.142   1.336 -0.3793 -0.0622 -0.3394
 2338ntf    sn213999   2.893   1.014   1.328 -0.1321  0.0803  0.1857
 2338ntf    cn114000   2.993   1.045   1.180 -0.3433 -0.0829  0.0081
 2338ntf    fn414001   2.792   1.365   1.630  0.4577 -0.1081 -0.0453
 2338ntf    fn414002   2.702   1.175   1.604  0.4219 -0.0289 -0.1445
 2338ntf    fn414003   2.912   1.186   1.626  0.4084  0.1877 -0.1224
 2338ntf    on514004   2.747   1.389   1.363  0.5533  0.3539 -0.3072
 2338ntf    on514005   2.980   1.307   1.393  0.0026 -0.0763  0.6377
 2338ntf    on514006   2.813   0.898   1.296  0.4381 -0.3008  0.1371
 2338ntf    on514007   2.989   0.995   1.434  0.0456  0.0368  0.0180
 2338ntf    fn414008   2.928   1.065   1.066  0.0586  0.7303 -0.0859
 2338ntf    fn414009   3.065   1.156   1.193 -0.3353 -0.0868 -0.0025
 2338ntf    fn414010   3.077   0.951   1.141  0.0071  0.2318 -0.0101
 2339ntf    cn114011   1.217   5.277   4.133 -0.2764  0.4742  0.0642
 2339ntf    sn214012   1.218   5.457   4.153  0.1751  0.4414  0.3562
 2339ntf    nn314013   1.346   5.487   4.066  0.0820  0.1149  0.1065
 2339ntf    sn214014   1.360   5.566   3.931 -0.1237 -0.1732 -0.0866
 2339ntf    cn114015   1.344   5.737   3.991 -0.0715 -0.0484 -0.4294
 2339ntf    fn414016   1.321   5.220   4.192 -0.2650  0.3473 -0.0760
 2339ntf    fn414017   1.115   5.222   4.198  0.4672 -0.4067  0.5136
 2339ntf    fn414018   1.209   5.250   4.004 -0.3714  0.2575  0.1141
 2339ntf    on514019   1.094   5.504   4.095  0.2698 -0.0672 -0.2698
 2339ntf    on514020   1.239   5.481   4.293  0.2494  0.7535  0.2933
 2339ntf    on514021   1.244   5.573   3.846  0.3671  0.3435 -0.7281
 2339ntf    on514022   1.489   5.559   3.867 -0.1562 -0.7900 -0.0917
 2339ntf    fn414023   1.353   5.818   3.887  0.0282  0.4079 -0.0677
 2339ntf    fn414024   1.227   5.760   4.048  0.1439  0.4256 -0.1752
 2339ntf    fn414025   1.430   5.767   4.087 -0.0958 -0.5156 -0.2574
 2340ntf    cn114026   6.103   6.032   5.582 -0.0788  0.0481 -0.2175
 2340ntf    sn214027   6.055   6.184   5.495  0.0499  0.2228  0.0167
 2340ntf    nn314028   6.127   6.154   5.359 -0.4015  0.3318 -0.2488
 2340ntf    sn214029   6.233   6.240   5.282 -0.1141  0.0011 -0.2277
 2340ntf    cn114030   6.139   6.315   5.145 -0.2951 -0.0196 -0.1148
 2340ntf    fn414031   6.048   6.032   5.703  0.0194 -0.0901 -0.1730
 2340ntf    fn414032   6.061   5.921   5.523 -0.5917 -0.1001  0.4151
 2340ntf    fn414033   6.234   6.024   5.601 -0.1570 -0.4837  0.1142
 2340ntf    on514034   5.912   6.170   5.482  0.0269  0.4446  0.0270
 2340ntf    on514035   6.114   6.288   5.576  0.0046  0.2006  0.0778
 2340ntf    on514036   6.320   6.144   5.219  0.1864  0.2794 -0.2445
 2340ntf    on514037   6.297   6.354   5.343  0.4367 -0.3595 -0.1247
 2340ntf    fn414038   6.037   6.391   5.182  0.0151 -0.0489  0.8470
 2340ntf    fn414039   6.212   6.397   5.071 -0.1854  0.0690  0.0903
 2340ntf    fn414040   6.089   6.220   5.068  0.1052 -0.2873 -0.0480
 2341ntf    cn114041   5.398   6.438   6.583 -0.4227  0.1017 -0.2789
 2341ntf    sn214042   5.417   6.395   6.407  0.0851  0.0713 -0.2158
 2341ntf    nn314043   5.545   6.481   6.376  0.3603 -0.0430  0.5807
 2341ntf    sn214044   5.699   6.462   6.400  0.3700 -0.2119  0.3863
 2341ntf    cn114045   5.761   6.419   6.234 -0.4120 -0.3774  0.1340
 2341ntf    fn414046   5.389   6.569   6.593  0.3396  0.1026  0.4845
 2341ntf    fn414047   5.289   6.381   6.632  0.0265 -0.6152 -0.1033
 2341ntf    fn414048   5.506   6.403   6.651 -0.3439  0.4952 -0.1986
 2341ntf    on514049   5.428   6.251   6.404  0.2466  0.0804 -0.0608
 2341ntf    on514050   5.306   6.460   6.343  0.1736  0.3177 -0.1221
 2341ntf    on514051   5.734   6.360   6.495  0.1624 -0.2440  0.4284
 2341ntf    on514052   5.755   6.593   6.419 -0.2907  0.1984 -0.4407
 2341ntf    fn414053   5.893   6.422   6.223 -0.4229  0.0265  0.0998
 2341ntf    fn414054   5.723   6.297   6.200 -0.0816 -0.4718  0.1048
 2341ntf    fn414055   5.727   6.504   6.139  0.6148 -0.4774 -0.3445
 2342ntf    cn114056   2.580   6.810   6.724  0.3604  0.1082  0.3180
 2342ntf    sn214057   2.483   6.964   6.718 -0.0105 -0.1360 -0.0269
 2342ntf    nn314058   2.386   6.931   6.838 -0.0992 -0.1344 -0.0979
 2342ntf    sn214059   2.376   6.994   6.982 -0.0346 -0.2864 -0.0264
 2342ntf    cn114060   2.296   7.154   6.949  0.0903 -0.2137  0.0197
 2342ntf    fn414061   2.631   6.776   6.607  0.1508  0.2594  0.1812
 2342ntf    fn414062   2.680   6.817   6.809  0.7287 -0.1846 -0.0855
 2342ntf    fn414063   2.516   6.704   6.770 -0.2767 -0.0175 -0.7991
 2342ntf    on514064   2.567   7.080   6.733 -0.4668  0.1453  0.4180
 2342ntf    on514065   2.417   6.961   6.590  0.4927  0.0433 -0.2938
 2342ntf    on514066   2.505   7.031   7.036 -0.2125 -0.0675  0.2465
 2342ntf    on514067   2.288   6.924   7.071 -0.3758  0.1707  0.0020
 2342ntf    fn414068   2.353   7.232   6.859 -0.6651  0.3919  0.0493
 2342ntf    fn414069   2.169   7.133   6.916  0.0082 -0.0648  0.2361
 2342ntf    fn414070   2.286   7.225   7.060  0.7698  0.8236 -0.5697
 2343ntf    cn114071   5.393   5.343   4.448 -0.2928 -0.4875  0.3395
 2343ntf    sn214072   5.370   5.425   4.288  0.2389 -0.3967  0.3072
 2343ntf    nn314073   5.304   5.307   4.208 -0.2606  0.0904 -0.0117
 2343ntf    sn214074   5.346   5.236   4.075 -0.1395  0.0298  0.0563
 2343ntf    cn114075   5.459   5.107   4.133  0.1741  0.1374 -0.3116
 2343ntf    fn414076   5.485   5.404   4.521 -0.4813 -0.0473  0.2089
 2343ntf    fn414077   5.285   5.335   4.524 -0.1584 -0.7011  0.5114
 2343ntf    fn414078   5.430   5.218   4.426  0.0849 -0.3902  0.4038
 2343ntf    on514079   5.280   5.536   4.307 -0.0574 -0.5163 -0.3602
 2343ntf    on514080   5.504   5.456   4.242 -0.0834  0.7739  0.1057
 2343ntf    on514081   5.428   5.305   3.978 -0.1058  0.2217  0.2220
 2343ntf    on514082   5.239   5.156   4.020 -0.4016  0.4283 -0.0176
 2343ntf    fn414083   5.478   5.012   4.042 -0.0858 -0.5348  0.3299
 2343ntf    fn414084   5.578   5.153   4.168  0.0880  0.5196 -0.5191
 2343ntf    fn414085   5.409   5.054   4.243  0.3811  0.1770 -0.1982
 2344ntf    cn114086   0.946   2.179   1.220  0.2686 -0.0311  0.0444
 2344ntf    sn214087   0.888   2.190   1.392  0.0177  0.1996 -0.0524
 2344ntf    nn314088   0.912   2.341   1.429  0.2609  0.1778 -0.1213
 2344ntf    sn214089   0.803   2.453   1.440  0.0176 -0.0487 -0.2228
 2344ntf    cn114090   0.693   2.397   1.573  0.1015  0.0770 -0.1011
 2344ntf    fn414091   1.066   2.231   1.200  0.1695  0.1808 -0.0133
 2344ntf    fn414092   0.951   2.055   1.176  0.3008 -0.0859  0.2034
 2344ntf    fn414093   0.865   2.248   1.141 -0.1851  0.0547  0.5717
 2344ntf    on514094   0.753   2.145   1.372 -0.0887  0.1831  0.6513
 2344ntf    on514095   0.969   2.093   1.463 -0.2197 -0.1129 -0.2060
 2344ntf    on514096   0.718   2.467   1.324 -0.4877  0.2475  0.1794
 2344ntf    on514097   0.857   2.575   1.495  0.2098 -0.1998 -0.0763
 2344ntf    fn414098   0.601   2.490   1.594  0.1069 -0.0410  0.4656
 2344ntf    fn414099   0.625   2.286   1.550  0.2906 -0.1541  0.4332
 2344ntf    fn414100   0.762   2.367   1.682 -0.4677  0.1076  0.2741
 2345ntf    cn114101   1.029   4.115   6.337  0.2649 -0.2267  0.0653
 2345ntf    sn214102   0.870   4.071   6.413  0.1198  0.3449  0.0952
 2345ntf    nn314103   0.916   4.061   6.563 -0.8553  0.1576  0.3966
 2345ntf    sn214104   0.954   3.932   6.644  0.1214  0.0379 -0.2354
 2345ntf    cn114105   0.794   3.858   6.686 -0.0176  0.5933  0.2229
 2345ntf    fn414106   1.117   4.016   6.332  0.4817 -0.0388  0.1331
 2345ntf    fn414107   1.018   4.153   6.211  0.8904  0.4062  0.1953
 2345ntf    fn414108   1.086   4.218   6.398 -0.2671 -0.0838  0.3311
 2345ntf    on514109   0.781   4.183   6.392  0.1274  0.3670  0.1785
 2345ntf    on514110   0.835   3.948   6.347  0.5370  0.2460  0.0575
 2345ntf    on514111   1.015   3.963   6.771  0.2089 -0.1404 -0.2334
 2345ntf    on514112   1.018   3.833   6.560 -0.5857 -0.0858 -0.6427
 2345ntf    fn414113   0.705   3.853   6.587 -0.3140 -0.5944  0.5322
 2345ntf    fn414114   0.818   3.731   6.713 -0.1117  0.5515  0.1142
 2345ntf    fn414115   0.744   3.921   6.791 -0.1669  0.0907  0.4532
 2346ntf    cn114116   5.902   3.184   2.865  0.4146 -0.1447  0.0550
 2346ntf    sn214117   5.978   3.173   2.701  0.0906 -0.0454 -0.1025
 2346ntf    nn314118   6.130   3.174   2.738  0.0333 -0.3455  0.1419
 2346ntf    sn214119   6.246   3.075   2.699  0.0651 -0.3824  0.3291
 2346ntf    cn114120   6.384   3.190   2.671 -0.3154 -0.0678 -0.2893
 2346ntf    fn414121   5.770   3.172   2.856  0.4368 -0.5520  0.2446
 2346ntf    fn414122   5.946   3.081   2.936 -0.1335 -0.5049 -0.1182
 2346ntf    fn414123   5.928   3.297   2.928 -0.1322 -0.2494  0.4810
 2346ntf    on514124   5.931   3.049   2.645  0.3379 -0.2629  0.1745
 2346ntf    on514125   5.924   3.297   2.649  0.2139  0.1891  0.3253
 2346ntf    on514126   6.229   3.000   2.577 -0.3724  0.3577 -0.0758
 2346ntf    on514127   6.290   3.002   2.815 -0.6238 -0.5202  0.5094
 2346ntf    fn414128   6.421   3.252   2.782 -0.3591  0.2938 -0.4760
 2346ntf    fn414129   6.489   3.130   2.617 -0.1398  0.2817 -0.3350
 2346ntf    fn414130   6.343   3.290   2.596 -0.3334  0.6015  0.5959
 2347ntf    cn114131   0.172   1.319   1.494 -0.0978 -0.1831  0.1392
 2347ntf    sn214132   0.087   1.474   1.536  0.0367 -0.1020  0.1138
 2347ntf    nn314133  -0.022   1.408   1.627  0.0902 -0.2485  0.0726
 2347ntf    sn214134  -0.176   1.377   1.626  0.0395 -0.0001  0.0958
 2347ntf    cn114135  -0.177   1.196   1.631 -0.0124  0.0101  0.4780
 2347ntf    fn414136   0.229   1.256   1.595  0.4878 -0.3371 -0.2807
 2347ntf    fn414137   0.089   1.240   1.429  0.1180 -0.4362  0.1676
 2347ntf    fn414138   0.271   1.335   1.407 -0.1695  0.1520  0.1161
 2347ntf    on514139   0.174   1.554   1.618 -0.4159 -0.6665  1.1503
 2347ntf    on514140   0.035   1.521   1.410  0.5536  0.1060 -0.0237
 2347ntf    on514141  -0.247   1.398   1.502 -0.5821  0.0989  0.4652
 2347ntf    on514142  -0.253   1.413   1.743 -0.0963 -0.2587  0.0858
 2347ntf    fn414143  -0.097   1.150   1.726  0.4330 -0.3769 -0.0789
 2347ntf    fn414144  -0.296   1.144   1.653  0.0040 -0.2976 -0.1408
 2347ntf    fn414145  -0.134   1.147   1.516 -0.1463  0.4201  0.2524
 2348ntf    cn114146   3.217   4.987   1.547  0.2296  0.0359 -0.2941
 2348ntf    sn214147   3.042   5.026   1.522  0.1155 -0.3692 -0.1378
 2348ntf    nn314148   3.025   5.133   1.635  0.2073  0.1270 -0.5867
 2348ntf    sn214149   2.927   5.256   1.645  0.1078  0.0096 -0.0899
 2348ntf    cn114150   2.962   5.361   1.501 -0.1735  0.0653 -0.1169
 2348ntf    fn414151   3.242   4.957   1.674  0.1264  0.7583 -0.0988
 2348ntf    fn414152   3.272   4.891   1.475 -0.2572 -0.3773 -0.1155
 2348ntf    fn414153   3.293   5.095   1.534  0.2192  0.1086  0.2065
 2348ntf    on514154   3.031   5.095   1.395 -0.8483 -0.1960  0.0291
 2348ntf    on514155   2.968   4.903   1.535 -0.4789  0.0028  0.0416
 2348ntf    on514156   2.964   5.344   1.753  0.2856  0.2440 -0.3413
 2348ntf    on514157   2.786   5.233   1.627  0.2014 -0.3159 -0.4196
 2348ntf    fn414158   3.093   5.371   1.495 -0.1495 -0.0606  0.1842
 2348ntf    fn414159   2.916   5.313   1.387 -0.2595  0.6308 -0.3214
 2348ntf    fn414160   2.912   5.483   1.517 -0.3680 -0.0572  0.2212
 2349ntf    cn114161   4.362   1.976   0.294  0.5014  0.2057  0.3176
 2349ntf    sn214162   4.304   2.074   0.436 -0.3311 -0.1069  0.2004
 2349ntf    nn314163   4.433   2.071   0.526 -0.2214 -0.2110  0.0397
 2349ntf    sn214164   4.469   2.158   0.652  0.0222  0.0063 -0.1766
 2349ntf    cn114165   4.523   2.314   0.577  0.0887 -0.0226 -0.1893
 2349ntf    fn414166   4.450   2.039   0.218 -0.2367  0.5969 -0.2312
 2349ntf    fn414167   4.410   1.860   0.335  0.0601 -0.0104  0.2301
 2349ntf    fn414168   4.268   1.939   0.209  0.3414  0.3466  0.4335
 2349ntf    on514169   4.275   2.201   0.375  0.3916  0.0756  0.2303
 2349ntf    on514170   4.190   2.000   0.483 -0.3135 -0.0398  0.3491
 2349ntf    on514171   4.587   2.114   0.723  0.0511  0.5595  0.1187
 2349ntf    on514172   4.355   2.186   0.735  0.0925 -0.0464 -0.0632
 2349ntf    fn414173   4.577   2.389   0.672 -0.2966 -0.2618  0.2234
 2349ntf    fn414174   4.614   2.301   0.482  0.2441  0.2206 -0.0730
 2349ntf    fn414175   4.419   2.382   0.531 -0.2469 -0.4865 -0.1276
 2350ntf    cn114176   2.856   2.406   5.763 -0.1973  0.0364 -0.1396
 2350ntf    sn214177   2.960   2.473   5.630  0.1025 -0.0692  0.0404
 2350ntf    nn314178   2.970   2.339   5.549  0.4320  0.4450 -0.7833
 2350ntf    sn214179   3.105   2.275   5.499  0.6140  0.1549  0.0660
 2350ntf    cn114180   3.104   2.339   5.329 -0.1974  0.1015  0.0443
 2350ntf    fn414181   2.770   2.498   5.803  0.2377  0.4134 -0.0506
 2350ntf    fn414182   2.788   2.303   5.714 -0.0084 -0.3401  0.3777
 2350ntf    fn414183   2.920   2.351   5.866 -0.2068 -0.5559 -0.4449
 2350ntf    on514184   2.877   2.572   5.566  0.1731  0.2938  0.5020
 2350ntf    on514185   3.074   2.524   5.703  0.3455 -0.4914 -0.0426
 2350ntf    on514186   3.095   2.132   5.479  0.4044  0.2336 -0.4114
 2350ntf    on514187   3.226   2.332   5.552  0.6102  0.1371  0.0940
 2350ntf    fn414188   3.205   2.302   5.252 -0.3129  0.0778 -0.0953
 2350ntf    fn414189   2.996   2.309   5.259  0.0564  0.0347 -0.3185
 2350ntf    fn414190   3.098   2.471   5.330  0.3595  0.1299 -0.0845
 2351ntf    cn114191   4.215   1.283   3.668  0.3316  0.4365 -0.1994
 2351ntf    sn214192   4.144   1.143   3.759  0.4104  0.1507 -0.5728
 2351ntf    nn314193   4.124   1.214   3.898 -0.2489  0.1264 -0.6535
 2351ntf    sn214194   3.988   1.274   3.949 -0.0341  0.0029  0.0670
 2351ntf    cn114195   3.899   1.129   4.014 -0.1333  0.0300 -0.0086
 2351ntf    fn414196   4.142   1.392   3.686 -0.3295 -0.0769  0.2822
 2351ntf    fn414197   4.334   1.309   3.719  0.1707 -0.4066  0.6234
 2351ntf    fn414198   4.230   1.254   3.539  0.5420  0.1312 -0.1060
 2351ntf    on514199   4.027   1.114   3.680  0.2358 -0.0362 -0.2504
 2351ntf    on514200   4.253   1.049   3.761  0.2983  0.0231 -0.4432
 2351ntf    on514201   3.906   1.329   3.844  0.1165 -0.2162 -0.1657
 2351ntf    on514202   4.004   1.363   4.061 -0.5802  0.2461 -0.0429
 2351ntf    fn414203   3.770   1.147   4.035 -0.2121 -0.7629  0.2172
 2351ntf    fn414204   3.917   1.020   3.941  0.1818 -0.0350  0.1638
 2351ntf    fn414205   3.951   1.106   4.134 -0.0521  0.0579 -0.0380
 2352ntf    cn114206   2.804   5.606   3.249 -0.2265  0.1138  0.1346
 2352ntf    sn214207   2.858   5.502   3.387 -0.0611  0.2819  0.1972
 2352ntf    nn314208   2.750   5.544   3.493 -0.1836  0.1089  0.1435
 2352ntf    sn214209   2.762   5.636   3.620 -0.0611 -0.1802  0.3434
 2352ntf    cn114210   2.589   5.668   3.666 -0.0192  0.4127  0.1033
 2352ntf    fn414211   2.879   5.589   3.141  0.2472 -0.3025  0.5296
 2352ntf    fn414212   2.678   5.588   3.212 -0.0727 -0.3227 -0.1944
 2352ntf    fn414213   2.810   5.733   3.285  0.2746  0.1673 -0.1320
 2352ntf    on514214   2.838   5.372   3.327 -0.4127  0.5439 -0.2611
 2352ntf    on514215   2.995   5.543   3.401  0.0410  0.1210 -0.3289
 2352ntf    on514216   2.804   5.771   3.590  0.0617 -0.4484 -0.7413
 2352ntf    on514217   2.809   5.575   3.742  0.1822 -0.0787  0.2998
 2352ntf    fn414218   2.522   5.709   3.559 -0.1372  0.8811  0.3552
 2352ntf    fn414219   2.528   5.561   3.715  0.4968  0.1520  0.1795
 2352ntf    fn414220   2.578   5.758   3.763 -0.1335 -0.0499  0.5245
 2353ntf    cn114221   3.403   4.941   0.655 -0.0154  0.0633 -0.2150
 2353ntf    sn214222   3.461   4.803   0.553 -0.1096 -0.2842  0.1989
 2353ntf    nn314223   3.597   4.855   0.495 -0.2966  0.2038  0.1952
 2353ntf    sn214224   3.634   4.907   0.351  0.2082 -0.1459  0.1960
 2353ntf    cn114225   3.664   5.082   0.388 -0.0623 -0.0710  0.0648
 2353ntf    fn414226   3.350   4.891   0.765 -0.0471  0.4079 -0.0713
 2353ntf    fn414227   3.502   5.020   0.692  0.1921 -0.2457 -0.1134
 2353ntf    fn414228   3.311   5.021   0.603  0.1336  0.0785 -0.4557
 2353ntf    on514229   3.481   4.699   0.651 -0.5537 -0.4410  0.1307
 2353ntf    on514230   3.345   4.783   0.469 -0.1960  0.2386  0.1912
 2353ntf    on514231   3.525   4.909   0.256  0.2771  0.1144  0.1237
 2353ntf    on514232   3.761   4.861   0.302  0.2919  0.5808 -0.2875
 2353ntf    fn414233   3.554   5.143   0.429 -0.2051 -0.2053 -0.1182
 2353ntf    fn414234   3.749   5.098   0.488  0.2140 -0.2329 -0.1430
 2353ntf    fn414235   3.714   5.153   0.288 -0.3122 -0.1731 -0.1339
 2354ntf    cn114236   3.459   2.355   3.430 -0.4558 -0.0393  0.2876
 2354ntf    sn214237   3.491   2.195   3.510 -0.0929 -0.2588 -0.2916
 2354ntf    nn314238   3.407   2.210   3.641 -0.1172 -0.3499 -0.2962
 2354ntf    sn214239   3.454   2.197   3.791  0.1299  0.0934 -0.3331
 2354ntf    cn114240   3.491   2.367   3.845  0.3013 -0.0248 -0.0776
 2354ntf    fn414241   3.489   2.451   3.516  0.0591 -0.2092  0.3028
 2354ntf    fn414242   3.539   2.369   3.325 -0.2848  0.1707  0.4456
 2354ntf    fn414243   3.336   2.380   3.388 -0.3267  0.5806  0.2781
 2354ntf    on514244   3.441   2.102   3.412 -0.1691 -0.5203 -0.0070
 2354ntf    on514245   3.634   2.195   3.532 -0.1205 -0.1155 -0.1139
 2354ntf    on514246   3.569   2.115   3.817  0.1470  0.2904  0.2156
 2354ntf    on514247   3.338   2.158   3.867  0.0825  0.3554 -0.2697
 2354ntf    fn414248   3.605   2.413   3.794  0.2853 -0.0564 -0.1417
 2354ntf    fn414249   3.398   2.455   3.812 -0.0561 -0.2993  0.2052
 2354ntf    fn414250   3.503   2.377   3.976 -0.2110  0.3903 -0.0590
 2355ntf    cn114251   4.565   5.617   0.936  0.3030 -0.0097  0.0035
 2355ntf    sn214252   4.733   5.546   0.928  0.3278  0.0743 -0.2285
 2355ntf    nn314253   4.695   5.397   0.959 -0.2370  0.2969  0.1934
 2355ntf    sn214254   4.653   5.281   0.862  0.1446  0.0663  0.2992
 2355ntf    cn114255   4.817   5.210   0.829  0.1913  0.2868  0.0462
 2355ntf    fn414256   4.524   5.622   1.061  0.0466  0.0128 -0.0815
 2355ntf    fn414257   4.565   5.739   0.884 -0.2405 -0.0454 -0.0782
 2355ntf    fn414258   4.484   5.539   0.868  0.0007  0.1313  0.1998
 2355ntf    on514259   4.770   5.577   0.792  0.1105  0.4653 -0.2016
 2355ntf    on514260   4.808   5.611   1.033  0.8911 -0.2902 -0.4061
 2355ntf    on514261   4.591   5.315   0.736 -0.0144 -0.5362  0.2083
 2355ntf    on514262   4.585   5.176   0.934 -0.5044  0.3373  0.0934
 2355ntf    fn414263   4.818   5.106   0.748 -0.2624  0.0954  0.2820
 2355ntf    fn414264   4.895   5.298   0.770 -0.3218  0.4976 -0.3250
 2355ntf    fn414265   4.873   5.171   0.943 -0.0942  0.0265  0.0985
 2356ntf    cn114266   2.729   1.812   2.600 -0.1567  0.4111 -0.0795
 2356ntf    sn214267   2.773   1.636   2.584 -0.1102  0.4203 -0.0546
 2356ntf    nn314268   2.918   1.627   2.642 -0.2744  0.0687  0.3021
 2356ntf    sn214269   2.979   1.593   2.783  0.1021  0.1363  0.1578
 2356ntf    cn114270   3.039   1.751   2.849 -0.1116  0.2414  0.1010
 2356ntf    fn414271   2.604   1.839   2.567 -0.1903  0.1241 -0.1881
 2356ntf    fn414272   2.743   1.856   2.725 -0.2500 -0.4680  0.2477
 2356ntf    fn414273   2.810   1.885   2.526  0.0451  0.0520 -0.2158
 2356ntf    on514274   2.674   1.561   2.657  0.1334 -0.1525 -0.3096
 2356ntf    on514275   2.760   1.614   2.442 -0.3596  0.1229  0.0145
 2356ntf    on514276   3.094   1.506   2.788 -0.0944 -0.1459 -0.1690
 2356ntf    on514277   2.877   1.545   2.873  0.3175  0.0778  0.3711
 2356ntf    fn414278   2.942   1.834   2.882 -0.1995  0.2989 -0.3035
 2356ntf    fn414279   3.119   1.734   2.953 -0.0870 -0.2644  0.0045
 2356ntf    fn414280   3.104   1.820   2.757  0.1299 -0.0121  0.0790
 2357ntf    cn114281   2.246   1.812   4.987 -0.3632 -0.1583 -0.0113
 2357ntf    sn214282   2.099   1.865   5.079 -0.0063 -0.0252  0.4862
 2357ntf    nn314283   2.036   1.727   5.118  0.2381 -0.1686  0.3776
 2357ntf    sn214284   1.934   1.640   5.036  0.5006  0.0701 -0.2140
 2357ntf    cn114285   1.770   1.709   5.073  0.2439 -0.5529 -0.1662
 2357ntf    fn414286   2.304   1.917   4.931 -0.1728 -0.1772  0.1507
 2357ntf    fn414287   2.341   1.762   5.064  0.1424  0.5362 -0.1773
 2357ntf    fn414288   2.216   1.720   4.896  0.3092 -0.4857  0.0903
 2357ntf    on514289   2.163   1.925   5.194  0.4470 -0.0234  0.2360
 2357ntf    on514290   2.015   1.947   4.995 -0.3297 -0.2073  0.6315
 2357ntf    on514291   1.926   1.505   5.089 -0.2735  0.1964  0.0043
 2357ntf    on514292   1.954   1.644   4.894  0.2468  0.1735 -0.2474
 2357ntf    fn414293   1.674   1.641   5.014  0.1295 -0.1309 -0.4739
 2357ntf    fn414294   1.750   1.715   5.204 -0.2937  0.0798 -0.2736
 2357ntf    fn414295   1.757   1.833   5.028  0.3844 -0.2750  0.5468
 2358ntf    cn114296   6.083   6.064   1.992 -0.4577  0.4613  0.3270
 2358ntf    sn214297   5.925   6.064   1.903 -0.0143  0.1188 -0.4639
 2358ntf    nn314298   5.954   5.952   1.797  0.2452 -0.6065  0.3665
 2358ntf    sn214299   5.858   5.921   1.677  0.3877  0.2927  0.0126
 2358ntf    cn114300   5.926   6.028   1.547 -0.0851  0.4423 -0.1142
 2358ntf    fn414301   6.100   6.152   2.090 -0.4127  0.3256  0.4427
 2358ntf    fn414302   6.096   5.941   2.041  0.2633  0.2452 -0.3807
 2358ntf    fn414303   6.191   6.072   1.917 -0.7070  0.3141 -0.0507
 2358ntf    on514304   5.830   6.033   2.006  0.5214  0.1634  0.0448
 2358ntf    on514305   5.917   6.193   1.838 -0.4030  0.0297 -0.5980
 2358ntf    on514306   5.721   5.966   1.687  0.2967  0.0057  0.0717
 2358ntf    on514307   5.874   5.788   1.622  0.5965 -0.0257  0.8195
 2358ntf    fn414308   5.839   6.044   1.449  0.4047 -0.0069 -0.6339
 2358ntf    fn414309   5.970   6.145   1.591  0.0684  0.4201 -0.2094
 2358ntf    fn414310   6.030   5.973   1.486  0.0453  0.3124  0.2185
 2359ntf    cn114311   4.930   1.524   3.305  0.2836 -0.0124 -0.0360
 2359ntf    sn214312   4.930   1.372   3.405  0.0558  0.0843  0.1123
 2359ntf    nn314313   4.775   1.348   3.401  0.1578 -0.6160  0.1587
 2359ntf    sn214314   4.686   1.236   3.337 -0.0088 -0.3635 -0.0548
 2359ntf    cn114315   4.549   1.225   3.456  0.0402  0.1758  0.0574
 2359ntf    fn414316   5.056   1.557   3.279  0.3702 -0.2734  0.0523
 2359ntf    fn414317   4.867   1.509   3.190 -0.3772  0.0453  0.3102
 2359ntf    fn414318   4.872   1.619   3.377  0.1909 -0.1005  0.0053
 2359ntf    on514319   5.008   1.284   3.322 -0.3593 -0.3904  0.2252
 2359ntf    on514320   4.979   1.410   3.535  0.7937 -0.9420  0.1488
 2359ntf    on514321   4.737   1.102   3.326  0.0566 -0.3123 -0.3937
 2359ntf    on514322   4.609   1.282   3.224 -0.2678  0.6015  0.5004
 2359ntf    fn414323   4.587   1.233   3.582 -0.7354 -0.1766  0.3258
 2359ntf    fn414324   4.465   1.327   3.447  0.1377  0.1955 -0.7195
 2359ntf    fn414325   4.475   1.116   3.441  0.1250  0.0575  0.4970
 2360ntf    cn114326   4.336   1.865   2.585  0.1786 -0.1289  0.0653
 2360ntf    sn214327   4.290   2.024   2.511  0.1555 -0.0988  0.1442
 2360ntf    nn314328   4.171   2.069   2.604 -0.0606 -0.3411 -0.0141
 2360ntf    sn214329   4.175   2.106   2.756  0.3603  0.2638 -0.1688
 2360ntf    cn114330   4.088   2.265   2.747 -0.1383 -0.0129 -0.2556
 2360ntf    fn414331   4.231   1.785   2.599  0.0192  0.0096 -0.3178
 2360ntf    fn414332   4.426   1.800   2.513  0.0253 -0.6047  0.2997
 2360ntf    fn414333   4.390   1.876   2.705 -0.4476  0.4861  0.2974
 2360ntf    on514334   4.407   2.108   2.519  0.0871  0.0443 -0.2831
 2360ntf    on514335   4.237   2.000   2.379  0.0388  0.2093  0.1337
 2360ntf    on514336   4.295   2.152   2.821  0.1028 -0.0416  0.5405
 2360ntf    on514337   4.094   2.021   2.841  0.2768 -0.0853 -0.5960
 2360ntf    fn414338   4.152   2.360   2.681 -0.6911  0.7025  0.2268
 2360ntf    fn414339   3.968   2.253   2.692 -0.1920 -0.0982 -0.1211
 2360ntf    fn414340   4.056   2.323   2.862  0.0387  0.1404 -0.2835
 2361ntf    cn114341   2.932   3.766   3.446 -0.2987 -0.2855  0.0025
 2361ntf    sn214342   2.945   3.915   3.343  0.0526 -0.0887  0.3301
 2361ntf    nn314343   2.963   4.017   3.461 -0.1063  0.0845  0.2048
 2361ntf    sn214344   3.091   4.044   3.547 -0.0474  0.0969  0.1131
 2361ntf    cn114345   3.113   4.222   3.514 -0.0827  0.1483  0.3645
 2361ntf    fn414346   3.040   3.743   3.520  0.0491 -0.3459 -0.5123
 2361ntf    fn414347   2.825   3.773   3.522 -0.0455  0.2542  0.3109
 2361ntf    fn414348   2.920   3.656   3.372 -0.4505 -0.0496 -0.3275
 2361ntf    on514349   3.058   3.899   3.256 -0.1992  0.1622 -0.0445
 2361ntf    on514350   2.812   3.920   3.287  0.4492  0.3066 -0.5819
 2361ntf    on514351   3.213   3.976   3.510 -0.0842  0.2418 -0.2729
 2361ntf    on514352   3.063   4.049   3.688 -0.5927  0.0169  0.0072
 2361ntf    fn414353   3.130   4.235   3.383  0.1897  0.1027  0.3937
 2361ntf    fn414354   3.004   4.287   3.550  0.0333  0.3622  0.3322
 2361ntf    fn414355   3.214   4.286   3.571  0.2372  0.0133 -0.0399
 2362ntf    cn114356   1.050   2.790   0.083  0.6483  0.3007 -0.1484
 2362ntf    sn214357   1.124   2.803  -0.082  0.0353 -0.1418 -0.4605
 2362ntf    nn314358   1.264   2.862  -0.044  0.0999 -0.6731  0.1214
 2362ntf    sn214359   1.409   2.847  -0.104  0.1724  0.0311  0.1185
 2362ntf    cn114360   1.486   2.708  -0.017  0.3823 -0.0958 -0.2675
 2362ntf    fn414361   0.942   2.714   0.088  0.3008  0.7843 -0.2464
 2362ntf    fn414362   1.128   2.729   0.171  0.1273  0.4863  0.4496
 2362ntf    fn414363   1.013   2.907   0.133  0.0562 -0.0987  0.3661
 2362ntf    on514364   1.118   2.673  -0.143  0.0370 -0.2146 -0.3042
 2362ntf    on514365   1.039   2.905  -0.141 -0.2183 -0.1154 -0.0574
 2362ntf    on514366   1.484   2.960  -0.056 -0.0628  0.3209 -0.1910
 2362ntf    on514367   1.434   2.813  -0.242 -0.1561 -0.4164  0.1658
 2362ntf    fn414368   1.420   2.594  -0.034 -0.0758  0.1561 -0.1814
 2362ntf    fn414369   1.609   2.685  -0.058  0.5077 -0.2286  0.1717
 2362ntf    fn414370   1.486   2.713   0.116 -0.2302 -0.0623 -0.2628
 2363ntf    cn114371   2.791   0.292   3.048 -0.3457 -0.0653 -0.2370
 2363ntf    sn214372   2.770   0.398   2.902  0.0718 -0.2650 -0.4425
 2363ntf    nn314373   2.749   0.538   2.971 -0.3640 -0.6183  0.1517
 2363ntf    sn214374   2.614   0.597   3.026 -0.0130  0.0302  0.3265
 2363ntf    cn114375   2.571   0.696   2.880 -0.4181  0.2583  0.5993
 2363ntf    fn414376   2.803   0.164   3.018 -0.3697 -0.1103 -0.0587
 2363ntf    fn414377   2.907   0.318   3.106 -0.3832 -0.1777 -0.1117
 2363ntf    fn414378   2.696   0.306   3.139 -0.4028  0.1695 -0.3327
 2363ntf    on514379   2.898   0.391   2.836  0.0266  0.0329 -0.5666
 2363ntf    on514380   2.655   0.357   2.826  0.0634 -0.3910 -0.3610
 2363ntf    on514381   2.632   0.687   3.137 -0.2065  0.2016  0.2184
 2363ntf    on514382   2.500   0.511   3.041 -0.5027  0.4715 -0.7432
 2363ntf    fn414383   2.458   0.765   2.880 -0.0476  0.8645  0.8343
 2363ntf    fn414384   2.654   0.794   2.847 -0.2687 -0.2118 -0.4750
 2363ntf    fn414385   2.574   0.618   2.773  0.3384  0.5945  0.3706
 2364ntf    cn114386   1.535   6.314   2.171  0.2073 -0.0435  0.2096
 2364ntf    sn214387   1.702   6.371   2.213  0.3352 -0.2757  0.0201
 2364ntf    nn314388   1.700   6.348   2.368 -0.1028  0.0610  0.0663
 2364ntf    sn214389   1.701   6.206   2.434 -0.2719 -0.0392 -0.1445
 2364ntf    cn114390   1.878   6.191   2.475 -0.3668  0.1134  0.3307
 2364ntf    fn414391   1.528   6.312   2.039  0.4577  0.0009  0.1956
 2364ntf    fn414392   1.505   6.189   2.204 -0.0883  0.1297  0.6071
 2364ntf    fn414393   1.434   6.386   2.218  0.1395 -0.0281  0.0425
 2364ntf    on514394   1.792   6.285   2.140  0.1505 -0.2465 -0.2451
 2364ntf    on514395   1.697   6.511   2.177 -0.2878 -0.2610  0.1554
 2364ntf    on514396   1.679   6.091   2.350  0.1085  0.0807 -0.4115
 2364ntf    on514397   1.636   6.198   2.563 -0.2601  0.7248 -0.0900
 2364ntf    fn414398   1.960   6.217   2.374 -0.1745 -0.0706  0.4399
 2364ntf    fn414399   1.903   6.274   2.575  0.5441 -0.8929  0.9447
 2364ntf    fn414400   1.906   6.068   2.515  0.3183  0.0694 -0.2657
 2365ntf    cn114401   6.117   3.404   1.850  0.2323  0.0250 -0.0086
 2365ntf    sn214402   6.055   3.357   1.686  0.1618  0.2183 -0.0384
 2365ntf    nn314403   5.940   3.257   1.725  0.7205 -0.2360  0.4674
 2365ntf    sn214404   5.931   3.105   1.685 -0.1825 -0.0963  0.1342
 2365ntf    cn114405   5.757   3.057   1.710 -0.2502 -0.0497 -0.2420
 2365ntf    fn414406   6.024   3.462   1.925  0.2198  0.1918 -0.1528
 2365ntf    fn414407   6.163   3.303   1.922 -0.5260 -0.5346 -0.2958
 2365ntf    fn414408   6.207   3.500   1.842 -0.2981  0.5131 -0.2025
 2365ntf    on514409   6.000   3.476   1.628  0.1427 -0.2323 -0.9698
 2365ntf    on514410   6.176   3.301   1.630 -0.2732 -0.2303 -0.5369
 2365ntf    on514411   5.993   3.016   1.780 -0.3335  0.1226  0.4432
 2365ntf    on514412   5.943   3.081   1.544  0.2246  0.6125  0.0397
 2365ntf    fn414413   5.737   2.929   1.687  0.2737 -0.2566  0.4377
 2365ntf    fn414414   5.717   3.079   1.834 -0.0827  0.1704 -0.2274
 2365ntf    fn414415   5.672   3.125   1.634  0.0290  0.5067 -0.0668
 2366ntf    cn114416   3.920   3.666   6.430  0.2177  0.1566  0.1822
 2366ntf    sn214417   3.768   3.690   6.528  0.0395 -0.0508 -0.0400
 2366ntf    nn314418   3.829   3.673   6.672 -0.1693 -0.2955  0.0199
 2366ntf    sn214419   3.815   3.558   6.778 -0.2663  0.1995  0.5484
 2366ntf    cn114420   3.783   3.646   6.933  0.0082  0.5345  0.4150
 2366ntf    fn414421   3.897   3.657   6.300  0.6137 -0.3878  0.1472
 2366ntf    fn414422   4.011   3.761   6.443  0.3738  0.0635 -0.2094
 2366ntf    fn414423   3.971   3.548   6.461 -0.1789 -0.1713 -0.3898
 2366ntf    on514424   3.738   3.825   6.488 -0.4148 -0.1499 -0.0349
 2366ntf    on514425   3.682   3.585   6.479 -0.3449  0.1363  0.2337
 2366ntf    on514426   3.947   3.503   6.798 -0.0446  0.5977  0.2108
 2366ntf    on514427   3.706   3.466   6.757  0.0906 -0.0302 -0.3591
 2366ntf    fn414428   3.757   3.560   7.030  0.0273 -0.1243 -0.1620
 2366ntf    fn414429   3.885   3.714   6.984  0.3536 -0.2719  0.8238
 2366ntf    fn414430   3.677   3.725   6.927 -0.0588  0.3801 -0.6117
 2367ntf    cn114431   0.549   5.194   2.890 -0.0686  0.1244  0.1488
 2367ntf    sn214432   0.728   5.192   2.860 -0.1174  0.0579 -0.1353
 2367ntf    nn314433   0.755   5.344   2.888 -0.3796  0.0650  0.0742
 2367ntf    sn214434   0.846   5.414   2.995  0.0394  0.0775 -0.2859
 2367ntf    cn114435   0.761   5.573   3.018  0.1475  0.0555  0.2654
 2367ntf    fn414436   0.521   5.247   3.008 -0.0238 -0.1166  0.2663
 2367ntf    fn414437   0.478   5.267   2.805 -0.1398 -0.3934 -0.2383
 2367ntf    fn414438   0.494   5.074   2.884  0.3139 -0.0756  0.5925
 2367ntf    on514439   0.773   5.100   2.962 -0.0060 -0.0554 -0.2853
 2367ntf    on514440   0.743   5.147   2.723  0.8319  0.3716 -0.1400
 2367ntf    on514441   0.974   5.455   2.943 -0.0779  0.0621 -0.5917
 2367ntf    on514442   0.834   5.351   3.124  0.0904  0.2438 -0.2005
 2367ntf    fn414443   0.642   5.566   3.074 -0.0016 -0.2608 -0.0904
 2367ntf    fn414444   0.829   5.656   3.096  0.2963  0.4158 -0.2403
 2367ntf    fn414445   0.747   5.633   2.901  0.1112 -0.1288  0.1750
 2368ntf    cn114446   3.443   1.514   5.591 -0.0209  0.4879  0.1994
 2368ntf    sn214447   3.300   1.413   5.543  0.3798 -0.0650  0.1595
 2368ntf    nn314448   3.366   1.273   5.570  0.0727 -0.2684 -0.1269
 2368ntf    sn214449   3.341   1.180   5.694 -0.2980  0.2453  0.1898
 2368ntf    cn114450   3.308   1.026   5.602  0.3518  0.1619  0.0956
 2368ntf    fn414451   3.414   1.643   5.604  0.0948  0.5543 -0.1859
 2368ntf    fn414452   3.490   1.482   5.711 -0.7926 -0.2099  0.3268
 2368ntf    fn414453   3.543   1.496   5.506 -0.2500  0.2068 -0.0093
 2368ntf    on514454   3.189   1.447   5.628  0.4668 -0.0261  0.2578
 2368ntf    on514455   3.289   1.448   5.403  0.2080 -0.6711  0.0183
 2368ntf    on514456   3.216   1.196   5.766 -0.4325  0.0682 -0.0044
 2368ntf    on514457   3.456   1.147   5.774  0.2324  0.9072 -0.2924
 2368ntf    fn414458   3.197   1.033   5.530  0.5185 -0.3106 -0.2125
 2368ntf    fn414459   3.403   0.996   5.515  0.0872 -0.1573 -0.0850
 2368ntf    fn414460   3.292   0.915   5.672 -0.1898  0.1172 -0.1004
 2369ntf    cn114461   1.724   1.498   0.875  0.1632 -0.1410  0.0443
 2369ntf    sn214462   1.810   1.366   0.785  0.3590  0.0795 -0.0934
 2369ntf    nn314463   1.817   1.268   0.907 -0.2594 -0.1134 -0.2057
 2369ntf    sn214464   1.729   1.143   0.944 -0.0364 -0.2662 -0.1868
 2369ntf    cn114465   1.847   1.009   0.910  0.0794 -0.2300  0.0623
 2369ntf    fn414466   1.618   1.466   0.948 -0.0335  0.4881  0.0476
 2369ntf    fn414467   1.805   1.556   0.962 -0.2999 -0.2263  0.5399
 2369ntf    fn414468   1.687   1.595   0.793  1.0549  0.4215  0.2830
 2369ntf    on514469   1.720   1.322   0.681  0.2697  0.2314 -0.0821
 2369ntf    on514470   1.933   1.427   0.743  0.2526  0.3479 -0.0192
 2369ntf    on514471   1.613   1.108   0.866  0.3765 -0.3432 -0.7734
 2369ntf    on514472   1.723   1.138   1.088 -0.1160  0.3933 -0.1621
 2369ntf    fn414473   1.963   1.035   0.966 -0.0397  0.0853  0.1657
 2369ntf    fn414474   1.804   0.894   0.958 -0.8027 -0.0389 -0.2458
 2369ntf    fn414475   1.864   0.990   0.780 -0.5000 -0.5105  0.0207
 2370ntf    cn114476   1.273   0.267   5.898 -0.0951  0.1521  0.0223
 2370ntf    sn214477   1.426   0.168   5.895 -0.4772 -0.4425  0.0293
 2370ntf    nn314478   1.381   0.069   6.008 -0.7976  0.2817  0.5458
 2370ntf    sn214479   1.344  -0.084   5.998 -0.2183  0.1666  0.0973
 2370ntf    cn114480   1.173  -0.070   6.057 -0.1846  0.3336  0.1549
 2370ntf    fn414481   1.175   0.199   5.841 -0.0574  0.0761  0.0473
 2370ntf    fn414482   1.239   0.292   6.023 -0.4731  0.1736 -0.0853
 2370ntf    fn414483   1.283   0.380   5.830 -0.3582 -0.2189 -0.6414
 2370ntf    on514484   1.432   0.120   5.759  0.5777  0.0536 -0.1048
 2370ntf    on514485   1.529   0.256   5.944 -0.4918 -0.0877 -0.5636
 2370ntf    on514486   1.422  -0.166   6.086 -0.1104  0.0806 -0.0782
 2370ntf    on514487   1.333  -0.137   5.864 -0.0757  0.3091  0.0288
 2370ntf    fn414488   1.170  -0.018   6.179  0.1848  0.6297  0.0393
 2370ntf    fn414489   1.100   0.007   5.978 -0.0691  0.0925 -0.1847
 2370ntf    fn414490   1.112  -0.187   6.060 -0.6564  0.5576 -0.4794
 2371ntf    cn114491   3.202   3.618   5.862 -0.0289  0.1015  0.0134
 2371ntf    sn214492   3.350   3.589   5.760  0.1547  0.0386  0.2991
 2371ntf    nn314493   3.436   3.505   5.861  0.0773 -0.0319  0.3061
 2371ntf    sn214494   3.523   3.554   5.982 -0.1775 -0.0460  0.4949
 2371ntf    cn114495   3.688   3.533   5.908 -0.5247 -0.3733 -0.1896
 2371ntf    fn414496   3.138   3.729   5.828  0.0906  0.1203 -0.1536
 2371ntf    fn414497   3.117   3.517   5.853 -0.1636  0.2247 -0.0987
 2371ntf    fn414498   3.233   3.636   5.989 -0.6917  0.0423  0.1851
 2371ntf    on514499   3.303   3.510   5.649 -0.0098 -0.1175  0.4789
 2371ntf    on514500   3.411   3.715   5.726  0.1770  0.0297  0.3054
 2371ntf    on514501   3.520   3.471   6.100  0.1409 -0.1115  0.4576
 2371ntf    on514502   3.526   3.696   6.009 -0.7061  0.0669 -0.0221
 2371ntf    fn414503   3.713   3.611   5.804  0.1733  0.2518  0.4382
 2371ntf    fn414504   3.783   3.572   5.991 -0.5171 -0.3459 -0.2112
 2371ntf    fn414505   3.716   3.407   5.880  0.2137 -0.2791  0.1013
 2372ntf    cn114506   4.373   3.217   0.259  0.1678  0.2928  0.4105
 2372ntf    sn214507   4.475   3.347   0.182  0.2974 -0.0547 -0.0123
 2372ntf    nn314508   4.543   3.408   0.310 -0.2108 -0.0330  0.2507
 2372ntf    sn214509   4.691   3.388   0.358  0.1060  0.4160 -0.5189
 2372ntf    cn114510   4.714   3.546   0.444 -0.3803 -0.0551  0.4956
 2372ntf    fn414511   4.293   3.275   0.347 -0.0978  0.0582  0.3244
 2372ntf    fn414512   4.304   3.151   0.167  0.2687  0.3027  0.3264
 2372ntf    fn414513   4.440   3.129   0.331  0.2678  0.1717  0.1689
 2372ntf    on514514   4.559   3.279   0.088  0.1448 -0.3855  0.0902
 2372ntf    on514515   4.376   3.438   0.130  0.3980  0.0363 -0.0442
 2372ntf    on514516   4.790   3.400   0.254  0.0106 -0.1006 -0.6745
 2372ntf    on514517   4.707   3.282   0.455 -0.2708  1.1642  0.3686
 2372ntf    fn414518   4.630   3.564   0.544 -0.4119 -0.4129  0.5359
 2372ntf    fn414519   4.831   3.550   0.507 -0.3273 -0.2155  0.4095
 2372ntf    fn414520   4.716   3.650   0.363 -0.2182 -0.1895  0.3254
 2373ntf    cn114521   0.443   3.961   3.788 -0.0032  0.0409  0.3471
 2373ntf    sn214522   0.522   3.918   3.946  0.2343  0.0130  0.2218
 2373ntf    nn314523   0.565   4.061   3.993  0.1412  0.1423 -0.0872
 2373ntf    sn214524   0.524   4.136   4.124 -0.0003 -0.1590  0.0403
 2373ntf    cn114525   0.691   4.179   4.181  0.1157 -0.2212 -0.2520
 2373ntf    fn414526   0.339   4.040   3.802 -0.0620  0.0288 -0.0054
 2373ntf    fn414527   0.524   4.025   3.705 -0.1937  0.0067  0.1337
 2373ntf    fn414528   0.399   3.846   3.739 -0.1340  0.1781  0.1397
 2373ntf    on514529   0.431   3.838   4.025  0.6575 -0.6717  0.0300
 2373ntf    on514530   0.640   3.847   3.904  0.1588  0.1631 -0.2510
 2373ntf    on514531   0.476   4.050   4.230  0.4810 -0.3029  0.1406
 2373ntf    on514532   0.463   4.265   4.103 -0.5885 -0.3530  0.5093
 2373ntf    fn414533   0.776   4.216   4.087  0.1452 -0.4194 -0.3052
 2373ntf    fn414534   0.687   4.280   4.267 -0.1734 -0.2224 -0.2642
 2373ntf    fn414535   0.739   4.073   4.245 -0.1896  0.0199  0.3801
 2374ntf    cn114536   2.405   5.301   3.872 -0.2052 -0.3779  0.2071
 2374ntf    sn214537   2.251   5.282   3.966 -0.2385 -0.0576  0.2161
 2374ntf    nn314538   2.164   5.197   3.867  0.2205  0.3132 -0.5129
 2374ntf    sn214539   2.047   5.253   3.779 -0.4526  0.1232  0.2435
 2374ntf    cn114540   2.149   5.290   3.632 -0.5236  0.1842  0.2099
 2374ntf    fn414541   2.466   5.183   3.863  0.4879 -0.0074  0.0098
 2374ntf    fn414542   2.383   5.342   3.748  0.0980 -0.0748  0.2541
 2374ntf    fn414543   2.493   5.383   3.925 -0.0404 -0.4227  0.0054
 2374ntf    on514544   2.288   5.202   4.080  0.0125 -0.0273  0.1555
 2374ntf    on514545   2.207   5.418   3.990 -0.4069 -0.1141  0.2309
 2374ntf    on514546   1.987   5.378   3.820  0.6419  0.7057  0.1150
 2374ntf    on514547   1.953   5.151   3.741 -0.3661  0.2651 -0.3610
 2374ntf    fn414548   2.257   5.217   3.611 -0.0791  0.8021  0.3373
 2374ntf    fn414549   2.082   5.275   3.519  0.4262  0.4854 -0.3951
 2374ntf    fn414550   2.196   5.413   3.640  0.1450 -0.0541 -0.0052
 2375ntf    cn114551   5.373   6.307   0.152 -0.2271 -0.0690 -0.1287
 2375ntf    sn214552   5.494   6.300   0.288 -0.2663  0.0817 -0.0855
 2375ntf    nn314553   5.465   6.163   0.359 -0.1213  0.0319 -0.1202
 2375ntf    sn214554   5.380   6.151   0.490 -0.0167 -0.4703 -0.0971
 2375ntf    cn114555   5.442   5.986   0.534 -0.1093 -0.3847  0.3683
 2375ntf    fn414556   5.364   6.425   0.092 -0.0564 -0.0951 -0.2057
 2375ntf    fn414557   5.387   6.215   0.058  0.1620 -0.1583  0.0143
 2375ntf    fn414558   5.256   6.283   0.210  0.0865 -0.0011  0.5477
 2375ntf    on514559   5.628   6.311   0.235 -0.1578  0.0655  0.1850
 2375ntf    on514560   5.460   6.415   0.367 -0.2373 -0.0823  0.1639
 2375ntf    on514561   5.238   6.130   0.472 -0.3131  0.5558  0.9092
 2375ntf    on514562   5.432   6.231   0.598  0.1473  0.2652 -0.7113
 2375ntf    fn414563   5.374   5.939   0.637 -0.1965  0.3208  0.6398
 2375ntf    fn414564   5.433   5.898   0.435  0.0100  0.0687 -0.0543
 2375ntf    fn414565   5.570   5.984   0.566  0.1040  0.3988 -0.3890
 2376ntf    cn114566   3.907   3.660   4.399  0.4695  0.0086  0.5151
 2376ntf    sn214567   3.871   3.726   4.565 -0.2946 -0.0937  0.3926
 2376ntf    nn314568   3.856   3.881   4.547  0.3978 -0.1265 -0.5036
 2376ntf    sn214569   3.913   3.998   4.635  0.3199 -0.0156 -0.6012
 2376ntf    cn114570   4.068   4.031   4.545  0.3514  0.1837 -0.4724
 2376ntf    fn414571   3.814   3.702   4.315  0.0105 -0.1687  0.9239
 2376ntf    fn414572   4.022   3.693   4.344  0.1865  0.1662  0.0158
 2376ntf    fn414573   3.900   3.528   4.399 -0.4669  0.0473 -0.6126
 2376ntf    on514574   3.746   3.658   4.594 -0.3763 -0.2244 -0.2506
 2376ntf    on514575   3.991   3.683   4.633 -0.1556  0.0311  0.2259
 2376ntf    on514576   3.957   3.966   4.768  0.3269 -0.1947 -0.6451
 2376ntf    on514577   3.837   4.117   4.609  0.0171 -0.0462  0.1321
 2376ntf    fn414578   4.164   3.941   4.556 -0.3423 -0.4858  0.2827
 2376ntf    fn414579   4.054   4.051   4.415  0.1054  0.0429 -0.4684
 2376ntf    fn414580   4.114   4.148   4.588 -0.0767  0.1658  0.0475
 2377ntf    cn114581   1.286   2.838   0.405  0.5124  0.0099 -0.2421
 2377ntf    sn214582   1.397   2.955   0.488 -0.2263  0.2987  0.3516
 2377ntf    nn314583   1.495   2.851   0.553  0.1357  0.4237  0.0076
 2377ntf    sn214584   1.628   2.792   0.493 -0.1336 -0.0135 -0.1670
 2377ntf    cn114585   1.746   2.903   0.577 -0.1299 -0.0854 -0.0767
 2377ntf    fn414586   1.174   2.899   0.369  0.4029  0.2867  0.5530
 2377ntf    fn414587   1.339   2.801   0.289  0.6744 -0.0591 -0.1452
 2377ntf    fn414588   1.244   2.734   0.476  0.0901 -0.0057 -0.5066
 2377ntf    on514589   1.442   3.035   0.377  0.1037  0.0807  0.3255
 2377ntf    on514590   1.311   3.020   0.583 -0.5646 -0.4732  0.5841
 2377ntf    on514591   1.651   2.814   0.352 -0.2480 -0.1958 -0.2134
 2377ntf    on514592   1.666   2.664   0.547 -0.8108 -0.1409  0.0176
 2377ntf    fn414593   1.722   3.030   0.545  0.0029 -0.1165 -0.3062
 2377ntf    fn414594   1.731   2.905   0.708 -0.5287  0.1936 -0.1218
 2377ntf    fn414595   1.874   2.882   0.553 -0.0852 -0.0424  0.1238
 2378ntf    cn114596   4.544   0.760   3.929 -0.0732 -0.0577 -0.0509
 2378ntf    sn214597   4.716   0.818   3.941 -0.0765 -0.1079  0.2564
 2378ntf    nn314598   4.757   0.842   3.791 -0.4730  0.1083  0.1814
 2378ntf    sn214599   4.900   0.874   3.734 -0.3143 -0.1027  0.4551
 2378ntf    cn114600   4.859   1.031   3.653 -0.1056 -0.3635 -0.1654
 2378ntf    fn414601   4.476   0.752   4.042 -0.1721 -0.0331 -0.1088
 2378ntf    fn414602   4.478   0.845   3.852  0.1044  0.1650  0.0429
 2378ntf    fn414603   4.527   0.642   3.871 -0.2805  0.1984 -0.5148
 2378ntf    on514604   4.707   0.939   4.019  0.0292  0.3857 -0.4847
 2378ntf    on514605   4.784   0.703   3.995 -0.3882 -0.4687 -0.1103
 2378ntf    on514606   4.938   0.786   3.626  0.2020  0.4835  0.1568
 2378ntf    on514607   4.997   0.903   3.835 -0.1404  0.3433  0.1616
 2378ntf    fn414608   4.943   1.069   3.558  0.3508 -0.2351  0.2892
 2378ntf    fn414609   4.738   1.037   3.599 -0.0673  0.3364 -0.1799
 2378ntf    fn414610   4.867   1.126   3.745 -0.3695 -0.8358  0.3453
 2379ntf    cn114611   5.406   1.354   5.186 -0.1160  0.3768  0.1267
 2379ntf    sn214612   5.253   1.256   5.198  0.0121  0.1590 -0.0129
 2379ntf    nn314613   5.185   1.323   5.322 -0.3481 -0.2316  0.0037
 2379ntf    sn214614   5.084   1.444   5.324  0.0419  0.0900  0.3282
 2379ntf    cn114615   4.932   1.345   5.337 -0.0561  0.1959 -0.0261
 2379ntf    fn414616   5.465   1.360   5.304 -0.3642 -0.0681  0.2791
 2379ntf    fn414617   5.488   1.290   5.105 -0.1426 -0.0391  0.4218
 2379ntf    fn414618   5.396   1.477   5.139  0.4353  0.3378 -0.1020
 2379ntf    on514619   5.203   1.282   5.066 -0.5604  0.0217  0.1748
 2379ntf    on514620   5.289   1.121   5.237  0.8286  0.1869 -0.6504
 2379ntf    on514621   5.071   1.511   5.198 -0.3986  0.1988  0.4287
 2379ntf    on514622   5.091   1.525   5.443 -0.6547 -0.1639  0.5485
 2379ntf    fn414623   4.828   1.426   5.345 -0.1882  0.0233  0.0237
 2379ntf    fn414624   4.915   1.263   5.234  0.1213  0.1808 -0.0448
 2379ntf    fn414625   4.939   1.279   5.451  0.2483  0.6090  0.1969
 2380ntf    cn114626   5.954   0.875   0.914  0.4558  0.2272  0.2921
 2380ntf    sn214627   6.035   0.845   0.754 -0.0592 -0.1580  0.0979
 2380ntf    nn314628   6.045   0.689   0.765 -0.2201 -0.1596  0.2182
 2380ntf    sn214629   6.167   0.591   0.756 -0.0543  0.0787 -0.1779
 2380ntf    cn114630   6.162   0.522   0.588 -0.2676  0.1957 -0.2197
 2380ntf    fn414631   6.031   0.838   1.014  0.8300 -0.1996 -0.1520
 2380ntf    fn414632   5.914   0.999   0.939  0.4216  0.3243 -0.2258
 2380ntf    fn414633   5.847   0.798   0.928  0.2189  0.5081  0.0550
 2380ntf    on514634   5.938   0.882   0.654 -0.0608 -0.3574  0.0271
 2380ntf    on514635   6.162   0.915   0.758 -0.3517  0.3597  0.3765
 2380ntf    on514636   6.146   0.474   0.837  0.7334 -0.2424 -0.4299
 2380ntf    on514637   6.300   0.646   0.769 -0.0337 -0.1667  0.7143
 2380ntf    fn414638   6.048   0.469   0.548 -0.1753 -0.1838  0.0188
 2380ntf    fn414639   6.187   0.625   0.509  0.2139 -0.2300 -0.6299
 2380ntf    fn414640   6.260   0.435   0.569 -0.1622  0.2331  0.1501
 2381ntf    cn114641   5.153   3.239   2.307  0.3012 -0.2512  0.0211
 2381ntf    sn214642   5.299   3.346   2.318  0.0088  0.1518  0.0021
 2381ntf    nn314643   5.308   3.380   2.471 -0.1495 -0.1578  0.0814
 2381ntf    sn214644   5.413   3.331   2.577  0.1291 -0.1795 -0.2068
 2381ntf    cn114645   5.550   3.451   2.568 -0.1723  0.1667 -0.1833
 2381ntf    fn414646   5.154   3.136   2.390 -0.4735 -0.0176  0.3381
 2381ntf    fn414647   5.043   3.304   2.342  0.5010  0.0688  0.0564
 2381ntf    fn414648   5.143   3.200   2.181 -0.2891 -1.1846  0.3397
 2381ntf    on514649   5.414   3.279   2.263 -0.0054  0.3273 -0.2460
 2381ntf    on514650   5.263   3.463   2.243  0.7331  0.3710 -0.0065
 2381ntf    on514651   5.473   3.200   2.562  0.0161 -0.2363 -0.1593
 2381ntf    on514652   5.371   3.352   2.713 -0.1440 -0.1239 -0.2998
 2381ntf    fn414653   5.647   3.434   2.657 -0.1352  0.5482 -0.1503
 2381ntf    fn414654   5.601   3.452   2.446 -0.3159  0.1189 -0.2441
 2381ntf    fn414655   5.507   3.575   2.585  0.4452  0.3434  0.1307
 2382ntf    cn114656   0.652   2.599   2.150  0.3908 -0.1221 -0.3591
 2382ntf    sn214657   0.761   2.743   2.167  0.1411 -0.0000  0.2384
 2382ntf    nn314658   0.826   2.742   2.024 -0.4748  0.8344 -0.0552
 2382ntf    sn214659   0.924   2.847   1.961  0.0916  0.2884 -0.1031
 2382ntf    cn114660   0.802   2.957   1.883 -0.1519 -0.0901 -0.2592
 2382ntf    fn414661   0.727   2.490   2.158  0.0672 -0.2755  0.6716
 2382ntf    fn414662   0.556   2.592   2.241  0.3982  0.7327 -0.2807
 2382ntf    fn414663   0.596   2.592   2.030 -0.4443 -0.0683  0.0200
 2382ntf    on514664   0.670   2.854   2.171  0.3071  0.1391  0.1397
 2382ntf    on514665   0.847   2.711   2.278 -0.2691 -0.3882  0.4467
 2382ntf    on514666   0.991   2.803   1.842  0.3287  0.7059 -0.1270
 2382ntf    on514667   1.000   2.930   2.051 -0.1200  0.0492  0.2996
 2382ntf    fn414668   0.863   3.053   1.815  0.4408  0.1225  0.5510
 2382ntf    fn414669   0.721   2.901   1.794 -0.5353  0.2222 -0.1120
 2382ntf    fn414670   0.732   3.024   1.973 -0.2647 -0.2238 -0.2475
 2383ntf    cn114671   5.403   3.183   1.466 -0.0608  0.4651 -0.2533
 2383ntf    sn214672   5.264   3.209   1.352 -0.4875 -0.1877  0.1182
 2383ntf    nn314673   5.344   3.273   1.234 -0.1214 -0.2956  0.3082
 2383ntf    sn214674   5.412   3.212   1.106  0.1571  0.1009  0.2623
 2383ntf    cn114675   5.271   3.231   0.993  0.0290 -0.1339  0.3823
 2383ntf    fn414676   5.458   3.301   1.493  0.4394  0.2670 -0.4046
 2383ntf    fn414677   5.363   3.128   1.579  0.2879  0.5141 -0.1052
 2383ntf    fn414678   5.486   3.099   1.407 -0.6489 -0.3711  0.0905
 2383ntf    on514679   5.212   3.077   1.323  0.3620 -0.3967 -0.4824
 2383ntf    on514680   5.176   3.297   1.425  0.3918  0.3096  0.5883
 2383ntf    on514681   5.440   3.070   1.109 -0.1374  0.0348 -0.0476
 2383ntf    on514682   5.507   3.302   1.048 -0.2963  0.5510  0.2150
 2383ntf    fn414683   5.284   3.183   0.870  0.1210  0.1575  0.2776
 2383ntf    fn414684   5.163   3.168   1.037  0.1547 -0.3432  0.3972
 2383ntf    fn414685   5.248   3.360   0.980  0.2076 -0.1027  0.3709
 2384ntf    cn114686   4.849   4.416   3.879 -0.0056  0.2015 -0.2997
 2384ntf    sn214687   4.792   4.556   3.778 -0.1783  0.3174 -0.0436
 2384ntf    nn314688   4.778   4.653   3.901  0.2713  0.1738  0.1232
 2384ntf    sn214689   4.657   4.694   3.991  0.0681  0.2849 -0.2009
 2384ntf    cn114690   4.588   4.838   3.903 -0.4396 -0.0473 -0.3543
 2384ntf    fn414691   4.769   4.401   3.983  0.4200  0.5780  0.0862
 2384ntf    fn414692   4.858   4.297   3.822  0.6656  0.0631  0.0865
 2384ntf    fn414693   4.968   4.445   3.929 -0.0305  0.4076 -0.3582
 2384ntf    on514694   4.909   4.590   3.700 -0.1751  0.3229 -0.0365
 2384ntf    on514695   4.673   4.520   3.704 -0.3520  0.1372  0.3234
 2384ntf    on514696   4.698   4.745   4.119  0.2146 -0.0829 -0.1008
 2384ntf    on514697   4.548   4.600   3.993 -0.2207  0.6151 -0.1566
 2384ntf    fn414698   4.675   4.938   3.907 -0.2693 -0.2175  0.2424
 2384ntf    fn414699   4.553   4.815   3.778 -0.8784 -0.1624 -0.2110
 2384ntf    fn414700   4.484   4.890   3.966 -0.6636 -0.2482 -0.5612
 2385ntf    cn114701   1.084   6.678   0.970 -0.2567  0.1835 -0.5242
 2385ntf    sn214702   1.022   6.755   0.818 -0.2274  0.3044 -0.4750
 2385ntf    nn314703   0.868   6.756   0.852 -0.1742  0.0567 -0.2243
 2385ntf    sn214704   0.774   6.873   0.898 -0.0539  0.0514  0.0389
 2385ntf    cn114705   0.668   6.880   0.751  0.3162 -0.1885 -0.2416
 2385ntf    fn414706   1.024   6.564   1.001  0.0373  0.0763 -0.3418
 2385ntf    fn414707   1.214   6.655   0.969 -0.3290 -0.2838 -0.0041
 2385ntf    fn414708   1.062   6.756   1.074  0.3649 -0.1274 -0.1521
 2385ntf    on514709   1.089   6.883   0.812  0.0671  0.1819  0.1689
 2385ntf    on514710   1.049   6.662   0.711 -0.3396  0.2571 -0.4626
 2385ntf    on514711   0.840   6.999   0.917  0.2615 -0.0576 -0.3182
 2385ntf    on514712   0.681   6.832   1.000  0.3231  0.2717  0.4723
 2385ntf    fn414713   0.559   6.953   0.768  0.1392 -0.4362 -0.2967
 2385ntf    fn414714   0.739   6.937   0.655  0.4390  0.0462 -0.0127
 2385ntf    fn414715   0.629   6.760   0.711  0.2786 -0.0446 -0.6459
 2386ntf    cn114716   1.175   4.963   2.420  0.5325 -0.0070 -0.0757
 2386ntf    sn214717   1.279   4.901   2.556  0.2603  0.0325  0.1532
 2386ntf    nn314718   1.313   5.037   2.628 -0.2305  0.2407 -0.0034
 2386ntf    sn214719   1.447   5.101   2.679 -0.2487  0.0774  0.2500
 2386ntf    cn114720   1.463   5.229   2.551 -0.0950 -0.3363 -0.1496
 2386ntf    fn414721   1.228   5.072   2.366  0.1163  0.0730 -0.3254
 2386ntf    fn414722   1.165   4.875   2.322 -0.0606  0.0755 -0.0949
 2386ntf    fn414723   1.053   5.000   2.457  0.5904  0.2180 -0.1061
 2386ntf    on514724   1.187   4.819   2.630  0.2987 -0.5189 -0.3961
 2386ntf    on514725   1.390   4.839   2.488  0.0620  0.1172 -0.2512
 2386ntf    on514726   1.565   5.019   2.663 -0.4888 -0.2525  0.1602
 2386ntf    on514727   1.427   5.177   2.799 -0.3302 -0.1111  0.3564
 2386ntf    fn414728   1.477   5.180   2.429 -0.2816 -0.1885 -0.2303
 2386ntf    fn414729   1.361   5.313   2.547  0.1420 -0.0390 -0.0449
 2386ntf    fn414730   1.572   5.303   2.566 -0.2352 -0.0609 -0.4787
 2387ntf    cn114731   5.007   5.815   1.935  0.4764  0.0458  0.2576
 2387ntf    sn214732   5.037   5.953   1.820  0.2997 -0.0389  0.1101
 2387ntf    nn314733   5.022   6.078   1.913  0.5164 -0.1504  0.2971
 2387ntf    sn214734   5.093   6.218   1.906  0.0597  0.0760  0.1483
 2387ntf    cn114735   5.201   6.200   2.051 -0.1036 -0.0297  0.2569
 2387ntf    fn414736   5.097   5.809   2.032  0.6323 -0.3579  0.0883
 2387ntf    fn414737   4.888   5.821   1.993  0.3989  0.6917  0.0396
 2387ntf    fn414738   5.011   5.692   1.886  0.7102  0.2586 -0.2588
 2387ntf    on514739   5.175   5.932   1.784  0.1543 -0.5261 -0.1732
 2387ntf    on514740   4.933   5.935   1.722  0.3034 -0.1216  0.1208
 2387ntf    on514741   5.008   6.324   1.954  0.3881  0.3197  0.1969
 2387ntf    on514742   5.183   6.242   1.795 -0.6056  0.4161 -0.3262
 2387ntf    fn414743   5.293   6.294   2.045 -0.6539  0.4867 -0.2116
 2387ntf    fn414744   5.150   6.204   2.172 -0.0472  0.5579  0.2642
 2387ntf    fn414745   5.268   6.086   2.041  0.6687  0.4653 -0.3637
 2388ntf    cn114746   0.354   1.253   2.978  0.0594  0.0707  0.2722
 2388ntf    sn214747   0.408   1.081   2.997 -0.1347 -0.0183  0.0198
 2388ntf    nn314748   0.408   1.063   3.153 -0.1252 -0.3010 -0.0114
 2388ntf    sn214749   0.528   1.068   3.254 -0.1173  0.3532 -0.0464
 2388ntf    cn114750   0.591   1.237   3.228  0.0029  0.2754 -0.2695
 2388ntf    fn414751   0.367   1.302   2.856  0.1070  0.2621  0.3544
 2388ntf    fn414752   0.225   1.267   3.007  0.0365  0.0647  0.1742
 2388ntf    fn414753   0.419   1.340   3.053  0.0638  0.6263 -0.3672
 2388ntf    on514754   0.316   1.001   2.919 -0.1984 -0.1238  0.2023
 2388ntf    on514755   0.534   1.085   2.927 -0.2380 -0.2731 -0.1832
 2388ntf    on514756   0.633   0.973   3.225 -0.1711  0.4808 -0.6783
 2388ntf    on514757   0.482   1.071   3.390 -0.1614 -0.5879 -0.0301
 2388ntf    fn414758   0.614   1.262   3.101  0.0884 -0.1622 -0.3417
 2388ntf    fn414759   0.505   1.328   3.270  0.2919  0.5621 -0.2979
 2388ntf    fn414760   0.704   1.256   3.294  0.0923 -0.2657 -0.2556
 2389ntf    cn114761   6.788   3.679   4.975 -0.0524  0.6927 -0.1144
 2389ntf    sn214762   6.941   3.589   4.936 -0.1684  0.5566 -0.2566
 2389ntf    nn314763   6.887   3.496   4.821  0.0121  0.0383  0.0750
 2389ntf    sn214764   6.856   3.342   4.816 -0.3084  0.1075 -0.0980
 2389ntf    cn114765   7.008   3.284   4.734 -0.1995  0.2085  0.0305
 2389ntf    fn414766   6.738   3.731   4.864 -0.2024  0.3261 -0.2180
 2389ntf    fn414767   6.706   3.594   5.034  0.7252  0.1171  0.1506
 2389ntf    fn414768   6.804   3.784   5.054  0.4355  0.4794  0.0746
 2389ntf    on514769   7.031   3.680   4.870 -0.1419  0.9035  0.2587
 2389ntf    on514770   6.978   3.531   5.062 -1.2405 -0.1591 -0.2570
 2389ntf    on514771   6.751   3.302   4.726 -0.3568 -0.3554  0.1642
 2389ntf    on514772   6.858   3.278   4.944  0.1024  0.0939 -0.1109
 2389ntf    fn414773   7.120   3.320   4.794  0.0301 -0.4172 -0.0117
 2389ntf    fn414774   7.025   3.153   4.722  0.0936  0.1985  0.5550
 2389ntf    fn414775   7.004   3.327   4.609  0.3822  0.5136  0.1183
 2390ntf    cn114776   6.782   4.826   1.841  0.1313  0.2371 -0.1342
 2390ntf    sn214777   6.880   4.688   1.774  0.0249  0.1586 -0.1265
 2390ntf    nn314778   6.854   4.564   1.867  0.4465  0.0180 -0.1935
 2390ntf    sn214779   6.948   4.490   1.968 -0.0219  0.0365  0.2581
 2390ntf    cn114780   7.018   4.372   1.850 -0.1303  0.2194  0.0092
 2390ntf    fn414781   6.765   4.836   1.972 -0.1461 -0.0903 -0.1448
 2390ntf    fn414782   6.828   4.944   1.802 -0.3066  0.3990 -0.1641
 2390ntf    fn414783   6.656   4.814   1.802  0.2587 -0.9116 -0.2296
 2390ntf    on514784   6.825   4.678   1.641  0.0036  0.1034 -0.1136
 2390ntf    on514785   7.014   4.741   1.783  0.0854  0.0133 -0.1835
 2390ntf    on514786   6.876   4.404   2.058 -0.2593 -0.0950 -0.0578
 2390ntf    on514787   7.068   4.557   2.013 -0.0383 -0.0824  0.4822
 2390ntf    fn414788   6.937   4.273   1.815  0.6595 -0.5214  0.2261
 2390ntf    fn414789   7.061   4.432   1.741  0.0077  0.0687 -0.0203
 2390ntf    fn414790   7.123   4.304   1.892 -0.4130 -0.3158 -0.1344
 2391ntf    cn114791   0.321   2.503   5.944  0.0767 -0.0552  0.0416
 2391ntf    sn214792   0.213   2.523   6.089  0.1110 -0.0145  0.0621
 2391ntf    nn314793   0.083   2.577   6.020  0.2101  0.0848 -0.0470
 2391ntf    sn214794  -0.020   2.693   6.044  0.0020 -0.1062 -0.0159
 2391ntf    cn114795   0.025   2.800   5.905 -0.0422  0.2219  0.2192
 2391ntf    fn414796   0.318   2.605   5.859 -0.2021 -0.1369 -0.0463
 2391ntf    fn414797   0.448   2.488   5.976  0.0269  0.5389  0.5542
 2391ntf    fn414798   0.291   2.393   5.878 -0.2649  0.3491 -0.4805
 2391ntf    on514799   0.198   2.387   6.135 -0.1328  0.0089  0.0538
 2391ntf    on514800   0.285   2.610   6.178  0.1023  0.0418  0.0139
 2391ntf    on514801   0.006   2.780   6.156 -0.3186 -0.0456  0.0146
 2391ntf    on514802  -0.159   2.665   6.017  0.0581 -0.3144 -0.0844
 2391ntf    fn414803  -0.021   2.921   5.930 -0.1305  0.1980  0.1728
 2391ntf    fn414804   0.155   2.817   5.885 -0.0923  0.0632 -0.2775
 2391ntf    fn414805  -0.035   2.769   5.791  0.0317 -0.1365  0.2772
 2392ntf    cn114806   0.541   3.167   5.975 -0.1608 -0.4046  0.3645
 2392ntf    sn214807   0.367   3.135   5.932 -0.2305  0.5316 -0.0896
 2392ntf    nn314808   0.312   3.281   5.920 -0.1665  0.5876  0.2760
 2392ntf    sn214809   0.286   3.380   5.800  0.3501 -0.0310 -0.3548
 2392ntf    cn114810   0.386   3.519   5.861  0.4516 -0.3288  0.1669
 2392ntf    fn414811   0.538   3.240   6.085  0.0270 -0.0793  0.1565
 2392ntf    fn414812   0.608   3.055   5.995  0.1887 -0.3573 -0.4869
 2392ntf    fn414813   0.611   3.239   5.888  0.1843 -0.2524  0.7659
 2392ntf    on514814   0.373   3.056   5.812  0.4018 -0.1829  0.3979
 2392ntf    on514815   0.318   3.061   6.046 -0.4294  0.4420 -0.2333
 2392ntf    on514816   0.152   3.433   5.802  0.3884  0.0645 -0.3405
 2392ntf    on514817   0.347   3.340   5.676 -0.0071 -0.4811 -0.3891
 2392ntf    fn414818   0.344   3.561   5.979  0.5581 -0.3662  0.2193
 2392ntf    fn414819   0.515   3.498   5.881  0.4650  0.1209  0.5605
 2392ntf    fn414820   0.383   3.614   5.770  0.0784 -0.5779 -0.0847
 2393ntf    cn114821   6.626   0.781   5.828  0.1861  0.1784 -0.2862
 2393ntf    sn214822   6.517   0.796   5.973  0.2709  0.2122 -0.2250
 2393ntf    nn314823   6.482   0.949   5.966 -0.2443  0.1407  0.6408
 2393ntf    sn214824   6.360   1.004   5.885  0.1530  0.3797  0.1963
 2393ntf    cn114825   6.386   1.183   5.906  0.0611  0.4177 -0.0061
 2393ntf    fn414826   6.711   0.680   5.831 -0.0524 -0.0111  0.4892
 2393ntf    fn414827   6.556   0.766   5.717  0.0321  0.0369 -0.1695
 2393ntf    fn414828   6.694   0.894   5.816  0.0971  0.2466 -0.1487
 2393ntf    on514829   6.410   0.704   5.946 -0.2392  0.5539  0.5926
 2393ntf    on514830   6.606   0.762   6.081  0.1128  0.4802 -0.0109
 2393ntf    on514831   6.235   0.987   5.956 -0.0737  0.0926 -0.2623
 2393ntf    on514832   6.368   0.983   5.742  0.4194  0.5310  0.1885
 2393ntf    fn414833   6.513   1.222   5.902  0.3327 -0.4396 -0.0475
 2393ntf    fn414834   6.315   1.249   5.816 -0.3602 -0.3356 -0.2348
 2393ntf    fn414835   6.333   1.226   6.019 -0.5783  0.1446 -0.1998
 2394ntf    cn114836   1.548   4.741   0.318 -0.1221 -0.0436  0.3131
 2394ntf    sn214837   1.616   4.858   0.440  0.3646  0.1527 -0.1424
 2394ntf    nn314838   1.488   4.879   0.529  0.0494 -0.5286 -0.4278
 2394ntf    sn214839   1.435   4.788   0.646  0.0621 -0.2040 -0.1692
 2394ntf    cn114840   1.530   4.848   0.790 -0.2402 -0.2812  0.0630
 2394ntf    fn414841   1.625   4.731   0.211  0.3085 -0.0670  0.6214
 2394ntf    fn414842   1.536   4.619   0.368 -0.1932 -0.2109 -0.1130
 2394ntf    fn414843   1.431   4.777   0.269  0.0308 -0.3296 -0.2684
 2394ntf    on514844   1.732   4.797   0.500  0.6576 -0.0405 -0.8919
 2394ntf    on514845   1.646   4.969   0.353  0.2458  0.1936 -0.1318
 2394ntf    on514846   1.465   4.648   0.629  0.1081 -0.1637 -0.4208
 2394ntf    on514847   1.299   4.816   0.685  0.1388 -0.1261  0.0472
 2394ntf    fn414848   1.660   4.837   0.772 -0.3469 -0.2014 -0.8141
 2394ntf    fn414849   1.505   4.974   0.822 -0.0778 -0.0931 -0.5202
 2394ntf    fn414850   1.499   4.771   0.893 -0.0094 -0.0326  0.3191
 2395ntf    cn114851   4.561   0.306   3.555 -0.0660  0.1848 -0.1362
 2395ntf    sn214852   4.522   0.218   3.709 -0.3061  0.5990  0.0417
 2395ntf    nn314853   4.648   0.125   3.721 -0.3847  0.3768 -0.8234
 2395ntf    sn214854   4.659  -0.025   3.676  0.2161  0.0958  0.2260
 2395ntf    cn114855   4.613  -0.107   3.832  0.3861  0.1382  0.2974
 2395ntf    fn414856   4.457   0.382   3.524  0.0818  0.4652  0.0424
 2395ntf    fn414857   4.664   0.389   3.556 -0.2450  0.4081  0.1185
 2395ntf    fn414858   4.587   0.219   3.459  0.2369  0.1544 -0.0253
 2395ntf    on514859   4.524   0.319   3.812  0.5884  0.6790 -0.0438
 2395ntf    on514860   4.397   0.155   3.676 -0.3075  0.3890  0.4398
 2395ntf    on514861   4.797  -0.063   3.663  0.0311 -0.5051 -0.0400
 2395ntf    on514862   4.568  -0.074   3.575  0.5096  0.5358 -0.2587
 2395ntf    fn414863   4.586  -0.234   3.807 -0.0098  0.2413  0.1940
 2395ntf    fn414864   4.715  -0.108   3.916  0.3073 -0.3710  0.3889
 2395ntf    fn414865   4.517  -0.045   3.899  0.4644  0.3646  0.2026
 2396ntf    cn114866   0.339   3.885   2.568 -0.3024  0.0123  0.1524
 2396ntf    sn214867   0.306   3.986   2.420  0.1745 -0.0700 -0.0105
 2396ntf    nn314868   0.337   3.877   2.310 -0.1911 -0.4638  0.2744
 2396ntf    sn214869   0.395   3.901   2.167  0.0134 -0.1715  0.4052
 2396ntf    cn114870   0.570   3.867   2.206  0.2486  0.3719 -0.1544
 2396ntf    fn414871   0.274   3.770   2.574  0.1144 -0.2263  0.0998
 2396ntf    fn414872   0.467   3.853   2.563 -0.3613 -0.1732 -0.2205
 2396ntf    fn414873   0.313   3.947   2.682  0.0086 -0.1305  0.3002
 2396ntf    on514874   0.168   4.026   2.435  0.1288 -0.1401 -0.2389
 2396ntf    on514875   0.403   4.092   2.428  0.2361 -0.1014 -0.3068
 2396ntf    on514876   0.385   4.034   2.113  0.7006 -0.4828 -0.5307
 2396ntf    on514877   0.353   3.801   2.072  0.0721  0.0657  0.1286
 2396ntf    fn414878   0.659   3.868   2.108  0.0182 -0.4397 -0.3804
 2396ntf    fn414879   0.604   3.943   2.309 -0.2676 -0.0812  0.3576
 2396ntf    fn414880   0.581   3.749   2.265 -0.0960  0.3874 -0.0548
 2397ntf    cn114881   6.742   1.639   5.958  0.0469 -0.3532 -0.2200
 2397ntf    sn214882   6.605   1.743   5.899 -0.0911 -0.3363  0.1303
 2397ntf    nn314883   6.608   1.854   6.009  0.1349 -0.5555  0.3447
 2397ntf    sn214884   6.500   1.946   6.077  0.2020 -0.0551 -0.2232
 2397ntf    cn114885   6.470   1.854   6.230  0.3267  0.1259 -0.0887
 2397ntf    fn414886   6.856   1.705   5.971  0.0647 -0.5485  0.6547
 2397ntf    fn414887   6.714   1.605   6.082  0.1516  0.4640  0.0351
 2397ntf    fn414888   6.760   1.535   5.879 -0.3707 -0.5814 -0.0194
 2397ntf    on514889   6.643   1.795   5.770  0.1012 -0.3348  0.1871
 2397ntf    on514890   6.492   1.653   5.897 -0.5756  0.2768 -0.7499
 2397ntf    on514891   6.373   1.948   6.009  0.2342  0.1648 -0.2808
 2397ntf    on514892   6.549   2.075   6.120  0.0494 -0.0387 -0.1007
 2397ntf    fn414893   6.368   1.891   6.305 -0.0367 -0.3426 -0.3419
 2397ntf    fn414894   6.445   1.725   6.213  0.0869  0.0944  0.4816
 2397ntf    fn414895   6.564   1.854   6.324  0.3395  0.4074 -0.1023
 2398ntf    cn114896   4.992   0.254   1.375  0.1277 -0.1274 -0.0161
 2398ntf    sn214897   5.151   0.169   1.352  0.1464 -0.0612 -0.1373
 2398ntf    nn314898   5.151   0.183   1.196 -0.6127 -0.1926 -0.1511
 2398ntf    sn214899   5.226   0.094   1.090  0.2644 -0.0368  0.3291
 2398ntf    cn114900   5.337   0.210   1.005 -0.1681  0.0510 -0.1163
 2398ntf    fn414901   5.002   0.377   1.328 -0.2534 -0.0246  0.1706
 2398ntf    fn414902   4.890   0.194   1.315 -0.2304  0.5469 -0.0921
 2398ntf    fn414903   4.961   0.269   1.503 -0.5984 -0.2483 -0.1758
 2398ntf    on514904   5.236   0.254   1.432  0.0216  0.1865 -0.2692
 2398ntf    on514905   5.125   0.038   1.407 -0.0478 -0.1643 -0.4724
 2398ntf    on514906   5.127   0.048   0.996 -0.4780 -0.1710  1.1595
 2398ntf    on514907   5.317  -0.001   1.148  0.8926  0.4431  0.1404
 2398ntf    fn414908   5.265   0.295   0.933  0.2569  0.1256 -0.4554
 2398ntf    fn414909   5.404   0.291   1.084  0.0938  0.0243 -0.3071
 2398ntf    fn414910   5.426   0.147   0.930  0.4510  0.8149 -0.0353
 2399ntf    cn114911   0.062   4.958   5.116  0.1852  0.1844 -0.1818
 2399ntf    sn214912   0.053   5.137   5.087 -0.0884  0.1662 -0.2193
 2399ntf    nn314913   0.169   5.165   4.985  0.3997 -0.1182  0.2534
 2399ntf    sn214914   0.161   5.148   4.829 -0.0722  0.3413  0.2273
 2399ntf    cn114915   0.337   5.137   4.787 -0.1000 -0.0813  0.2225
 2399ntf    fn414916   0.180   4.917   5.159 -0.0242 -0.1513  0.0874
 2399ntf    fn414917  -0.024   4.911   5.205  0.5491  0.0574  0.1051
 2399ntf    fn414918   0.033   4.888   5.007 -0.2494 -0.0805  0.0988
 2399ntf    on514919  -0.079   5.173   5.044  0.0367  0.3938 -0.4140
 2399ntf    on514920   0.089   5.190   5.217 -0.0041 -0.3789 -0.0186
 2399ntf    on514921   0.122   5.271   4.764  0.2653  0.2312 -0.1826
 2399ntf    on514922   0.111   5.024   4.776  0.5903 -0.0527  0.5138
 2399ntf    fn414923   0.396   5.074   4.887 -0.3495 -0.5936  0.0570
 2399ntf    fn414924   0.370   5.062   4.682 -0.2232 -0.1810  0.2555
 2399ntf    fn414925   0.393   5.255   4.769 -0.2805 -0.1101 -0.5868
 2400ntf    cn114926   6.846   5.564   4.429  0.3651 -0.3789 -0.2321
 2400ntf    sn214927   6.989   5.675   4.441  0.0088  0.0653 -0.0382
 2400ntf    nn314928   6.954   5.780   4.330  0.2283  0.3022  0.1150
 2400ntf    sn214929   6.912   5.930   4.345 -0.1008  0.1848  0.3698
 2400ntf    cn114930   7.073   6.013   4.361 -0.1182  0.3377 -0.2501
 2400ntf    fn414931   6.864   5.439   4.467  0.5929 -0.1277  0.4901
 2400ntf    fn414932   6.736   5.603   4.491  0.7595  0.1066  0.1712
 2400ntf    fn414933   6.809   5.553   4.302  0.0270 -0.1832 -0.1506
 2400ntf    on514934   6.978   5.728   4.575 -1.0303  0.2348 -0.1857
 2400ntf    on514935   7.100   5.587   4.413  0.1260  0.3959 -0.6229
 2400ntf    on514936   6.836   5.968   4.462  0.6149  0.0956  0.8698
 2400ntf    on514937   6.856   5.965   4.217  0.3116  0.2215  0.1964
 2400ntf    fn414938   7.158   5.956   4.446  0.0921  0.2989 -0.4827
 2400ntf    fn414939   7.133   6.018   4.243 -0.4532  0.5347 -0.4104
 2400ntf    fn414940   7.079   6.141   4.392  0.2483  0.2851 -0.0868
 2401ntf    cn114941   6.739   2.502   4.233 -0.7475 -0.1708 -0.3089
 2401ntf    sn214942   6.638   2.444   4.372  0.0518 -0.2343  0.2502
 2401ntf    nn314943   6.743   2.373   4.465  0.2537 -0.0013  0.1993
 2401ntf    sn214944   6.796   2.225   4.465 -0.1177 -0.1362  0.3590
 2401ntf    cn114945   6.667   2.142   4.561 -0.4987  0.0400  0.0037
 2401ntf    fn414946   6.800   2.409   4.161 -0.0930 -0.1124  0.1679
 2401ntf    fn414947   6.684   2.588   4.148  0.2023  0.3822 -0.3774
 2401ntf    fn414948   6.832   2.584   4.278 -0.2932 -0.8636  0.0313
 2401ntf    on514949   6.599   2.571   4.428 -0.0773 -0.1880  0.0539
 2401ntf    on514950   6.529   2.369   4.315 -0.1631 -0.0236  0.3820
 2401ntf    on514951   6.924   2.210   4.531  0.1958  0.4381 -0.1022
 2401ntf    on514952   6.795   2.165   4.334 -0.1591  0.2870  0.1632
 2401ntf    fn414953   6.635   2.212   4.669 -0.5980 -0.1330  0.0863
 2401ntf    fn414954   6.556   2.131   4.491 -0.3358  0.4872 -0.3298
 2401ntf    fn414955   6.690   2.018   4.601  0.5245  0.1591 -0.1994
 2402ntf    cn114956   2.075   5.086   4.966  0.4567  0.3939  0.0941
 2402ntf    sn214957   1.998   5.227   4.881 -0.1566  0.0208  0.0193
 2402ntf    nn314958   2.115   5.332   4.890 -0.1801  0.0833 -0.3817
 2402ntf    sn214959   2.253   5.331   4.816 -0.0649 -0.1801 -0.1662
 2402ntf    cn114960   2.215   5.431   4.669 -0.1385  0.0748  0.0255
 2402ntf    fn414961   2.151   5.011   4.888  0.0329  0.3153 -0.2509
 2402ntf    fn414962   2.160   5.117   5.062  1.1304 -0.1874 -0.3013
 2402ntf    fn414963   1.988   5.009   5.029  0.3826  0.6183  0.2675
 2402ntf    on514964   1.973   5.179   4.747 -1.1013  0.1967  0.1272
 2402ntf    on514965   1.884   5.276   4.954 -0.0092  0.4727 -0.0510
 2402ntf    on514966   2.307   5.207   4.767 -0.3518 -0.3977  0.0688
 2402ntf    on514967   2.346   5.417   4.886  0.2695 -0.2128 -0.5669
 2402ntf    fn414968   2.203   5.559   4.698 -0.2757  0.1809 -0.4803
 2402ntf    fn414969   2.307   5.436   4.573 -0.1962 -0.3609 -0.0559
 2402ntf    fn414970   2.102   5.396   4.611 -0.1442  0.1581 -0.0140
 2403ntf    cn114971   6.396   6.163   3.491  0.1001 -0.1279 -0.2802
 2403ntf    sn214972   6.308   6.005   3.481  0.1332 -0.1687  0.0618
 2403ntf    nn314973   6.397   5.918   3.577  0.1912 -0.3039 -0.1150
 2403ntf    sn214974   6.370   5.889   3.729  0.1198  0.1701 -0.0365
 2403ntf    cn114975   6.289   5.728   3.703  0.0642  0.1705  0.1287
 2403ntf    fn414976   6.445   6.176   3.614  0.1083 -0.0626 -0.2903
 2403ntf    fn414977   6.507   6.162   3.419  0.0065  0.2573 -0.4314
 2403ntf    fn414978   6.323   6.267   3.452  0.8306  0.3282 -0.4625
 2403ntf    on514979   6.172   6.035   3.519  0.2102 -0.4777  0.5918
 2403ntf    on514980   6.334   5.978   3.342  0.0331 -0.7587  0.1526
 2403ntf    on514981   6.282   5.974   3.804  0.3351  0.0097  0.4011
 2403ntf    on514982   6.486   5.851   3.805 -0.0903  0.4006  0.4030
 2403ntf    fn414983   6.265   5.664   3.816  0.2396 -0.2715 -0.0797
 2403ntf    fn414984   6.180   5.750   3.632 -0.0497  0.4686  0.3960
 2403ntf    fn414985   6.372   5.651   3.634 -0.3110  0.1632 -0.3206
 2404ntf    cn114986   1.034   6.689   3.403  0.3182 -0.1529 -0.3859
 2404ntf    sn214987   0.994   6.564   3.528 -0.0409  0.0514 -0.2928
 2404ntf    nn314988   1.142   6.514   3.548 -0.2478 -0.4301  0.0529
 2404ntf    sn214989   1.262   6.567   3.635 -0.3981  0.0976 -0.0620
 2404ntf    cn114990   1.391   6.579   3.508 -0.2059 -0.0612  0.1178
 2404ntf    fn414991   1.087   6.640   3.292  0.2403  0.1781 -0.5721
 2404ntf    fn414992   0.928   6.762   3.370  0.2188 -0.2355 -0.2520
 2404ntf    fn414993   1.133   6.767   3.443  0.1007 -0.0260 -0.0902
 2404ntf    on514994   0.935   6.633   3.640  0.4427  0.3101 -0.1959
 2404ntf    on514995   0.922   6.465   3.452 -0.5459  0.2331 -0.0529
 2404ntf    on514996   1.309   6.466   3.726 -0.1917  0.1365 -0.1252
 2404ntf    on514997   1.252   6.703   3.684  0.1768  0.0273  0.2550
 2404ntf    fn414998   1.356   6.659   3.408 -0.1600 -0.1485  0.0316
 2404ntf    fn414999   1.497   6.634   3.563 -0.0771 -0.1674 -0.0231
 2404ntf    fn415000   1.434   6.465   3.455 -0.0022  0.2342 -0.3586
 2405ntf    cn115001   3.400   1.630   0.976 -0.1091 -0.0286  0.1377
 2405ntf    sn215002   3.237   1.549   0.991 -0.1642  0.0427 -0.0768
 2405ntf    nn315003   3.257   1.448   0.873  0.2383  0.4496 -0.3634
 2405ntf    sn215004   3.313   1.302   0.893 -0.3757  0.3179  0.4534
 2405ntf    cn115005   3.417   1.285   0.745 -0.3525 -0.1132  0.5186
 2405ntf    fn415006   3.495   1.543   1.006 -0.5473 -0.6204 -0.1487
 2405ntf    fn415007   3.431   1.679   0.858 -0.6671  0.0523  0.0208
 2405ntf    fn415008   3.411   1.720   1.072 -0.6064 -0.0497  0.2174
 2405ntf    on515009   3.228   1.493   1.123  0.2928  0.2434  0.0430
 2405ntf    on515010   3.145   1.655   0.956 -0.1522  0.0151 -0.1921
 2405ntf    on515011   3.215   1.198   0.878  0.4624 -0.3591 -0.4809
 2405ntf    on515012   3.407   1.280   1.001  0.0390 -0.3740 -0.0401
 2405ntf    fn415013   3.478   1.168   0.736  0.0107  0.0990  0.1727
 2405ntf    fn415014   3.348   1.303   0.634 -0.2166  0.2436  0.4900
 2405ntf    fn415015   3.516   1.374   0.747 -0.0875 -0.4038  0.4742
 2406ntf    cn115016   2.124   0.773   2.159 -0.2905  0.0179  0.3001
 2406ntf    sn215017   2.096   0.619   2.068  0.0619  0.2266 -0.1665
 2406ntf    nn315018   1.946   0.652   2.033  0.0936  0.4014 -0.1380
 2406ntf    sn215019   1.869   0.637   1.897 -0.0041  0.1208 -0.0516
 2406ntf    cn115020   1.713   0.706   1.962 -0.0707 -0.1385  0.0673
 2406ntf    fn415021   2.048   0.795   2.266 -0.0473  0.1240  0.4526
 2406ntf    fn415022   2.242   0.778   2.218 -0.2343  0.5822  0.1515
 2406ntf    fn415023   2.114   0.885   2.089 -0.0419 -0.1243  0.0380
 2406ntf    on515024   2.190   0.616   1.959  0.0419  0.0542 -0.1798
 2406ntf    on515025   2.110   0.520   2.172 -0.1319 -0.1653 -0.5098
 2406ntf    on515026   1.843   0.503   1.851 -0.3198  0.2371 -0.2202
 2406ntf    on515027   1.915   0.734   1.801  0.1438 -0.3945 -0.5073
 2406ntf    fn415028   1.723   0.835   1.988 -0.1833 -0.0586 -0.2837
 2406ntf    fn415029   1.607   0.693   1.884  0.1098 -0.5129 -0.1186
 2406ntf    fn415030   1.675   0.648   2.074  0.0519  0.0944  0.2310
 2407ntf    cn115031   5.566   2.268   6.179 -0.1687  0.0965  0.0089
 2407ntf    sn215032   5.440   2.362   6.270 -0.0629  0.1481  0.1014
 2407ntf    nn315033   5.354   2.242   6.322  0.0315 -0.0166 -0.1263
 2407ntf    sn215034   5.213   2.207   6.264 -0.2345  0.2866  0.3335
 2407ntf    cn115035   5.104   2.336   6.332 -0.2907  0.1088  0.5821
 2407ntf    fn415036   5.654   2.214   6.261 -0.1940 -0.5281 -0.3672
 2407ntf    fn415037   5.527   2.163   6.109 -0.1824  0.3107 -0.3111
 2407ntf    fn415038   5.632   2.347   6.095 -0.1177  0.3502  0.2870
 2407ntf    on515039   5.516   2.423   6.377  0.1569 -0.3723  0.2435
 2407ntf    on515040   5.383   2.450   6.171 -0.2464 -0.1808 -0.0855
 2407ntf    on515041   5.157   2.088   6.324  0.1449  0.1072  0.3324
 2407ntf    on515042   5.182   2.219   6.123 -0.2873  1.0807  0.4074
 2407ntf    fn415043   5.112   2.353   6.463  0.2122 -0.1083  0.5843
 2407ntf    fn415044   5.134   2.448   6.268 -0.4287 -0.2982 -0.2043
 2407ntf    fn415045   4.976   2.315   6.305 -0.1241 -0.3458  0.1186
 2408ntf    cn115046   5.272   3.676   6.477  0.2163 -0.0863 -0.3502
 2408ntf    sn215047   5.377   3.530   6.500  0.0571 -0.2145 -0.4313
 2408ntf    nn315048   5.292   3.414   6.437 -0.4305  0.2001 -0.5405
 2408ntf    sn215049   5.326   3.262   6.419 -0.1748  0.2020 -0.0778
 2408ntf    cn115050   5.199   3.189   6.527 -0.2210 -0.0999 -0.3354
 2408ntf    fn415051   5.330   3.794   6.492 -0.3990  0.2109 -0.2763
 2408ntf    fn415052   5.220   3.675   6.355 -0.0145 -0.1661 -0.2516
 2408ntf    fn415053   5.168   3.669   6.558  0.5842 -0.1185  0.1250
 2408ntf    on515054   5.495   3.557   6.421  0.1115  0.2310 -0.2001
 2408ntf    on515055   5.386   3.524   6.643  0.3067 -0.1885 -0.4450
 2408ntf    on515056   5.452   3.219   6.475 -0.2831 -0.3834 -0.2727
 2408ntf    on515057   5.293   3.213   6.287 -0.1563 -0.2022  0.0667
 2408ntf    fn415058   5.168   3.258   6.635 -0.2102 -0.2296 -0.2494
 2408ntf    fn415059   5.081   3.175   6.468 -0.2558 -0.1792 -0.2473
 2408ntf    fn415060   5.232   3.068   6.568 -0.5005 -0.1254 -0.1858
 2409ntf    cn115061   1.071   3.186   3.812  0.1248 -0.1637 -0.2295
 2409ntf    sn215062   1.101   3.185   3.992 -0.2056  0.2396 -0.1696
 2409ntf    nn315063   0.972   3.126   4.057 -0.0269 -0.0079 -0.0388
 2409ntf    sn215064   0.933   2.974   4.071 -0.2654  0.0522 -0.0407
 2409ntf    cn115065   1.009   2.944   4.233 -0.2319  0.0635 -0.0540
 2409ntf    fn415066   1.173   3.225   3.738 -0.1471  0.9982 -0.0101
 2409ntf    fn415067   1.033   3.070   3.760 -0.3435 -0.0351 -0.1842
 2409ntf    fn415068   0.978   3.273   3.777  0.4066  0.0311 -0.4905
 2409ntf    on515069   1.215   3.099   4.012 -0.3509  0.0667 -0.0822
 2409ntf    on515070   1.125   3.325   4.015 -0.5406  0.2248  0.2684
 2409ntf    on515071   0.994   2.884   3.975 -0.1620 -0.6550  0.6771
 2409ntf    on515072   0.792   2.958   4.094 -0.2753  0.3082  0.0745
 2409ntf    fn415073   1.117   3.015   4.258 -0.2140  0.0634 -0.1325
 2409ntf    fn415074   0.926   2.978   4.331 -0.4268 -0.5168 -0.0079
 2409ntf    fn415075   1.039   2.816   4.253  0.4346  0.1587 -0.4177
 2410ntf    cn115076   0.834   5.509   5.256  0.1299 -0.1155  0.1510
 2410ntf    sn215077   0.829   5.684   5.208 -0.1023 -0.1801 -0.0578
 2410ntf    nn315078   0.726   5.749   5.307  0.4698  0.7942 -0.0905
 2410ntf    sn215079   0.582   5.805   5.277  0.1016 -0.0123  0.1388
 2410ntf    cn115080   0.620   5.972   5.215 -0.1172 -0.0248 -0.0311
 2410ntf    fn415081   0.944   5.445   5.218  0.1265  0.0958 -0.2168
 2410ntf    fn415082   0.839   5.495   5.388  0.1202  0.6803  0.2429
 2410ntf    fn415083   0.728   5.442   5.216  0.0884  0.0401 -0.0019
 2410ntf    on515084   0.956   5.741   5.243 -0.0375 -0.6097  0.4218
 2410ntf    on515085   0.793   5.693   5.068 -0.0037  0.1652 -0.0615
 2410ntf    on515086   0.518   5.829   5.404  0.3138 -0.2504  0.2911
 2410ntf    on515087   0.501   5.744   5.175  0.4178  0.2147 -0.2519
 2410ntf    fn415088   0.510   6.025   5.163  0.0560  0.1417 -0.2267
 2410ntf    fn415089   0.664   6.058   5.305  0.0289  0.1645 -0.2832
 2410ntf    fn415090   0.712   5.980   5.121 -0.0393 -0.3511  0.0147
 2411ntf    cn115091   3.098   4.710   1.270 -0.2634 -0.2376 -0.4034
 2411ntf    sn215092   2.975   4.602   1.191 -0.3962 -0.3614 -0.0275
 2411ntf    nn315093   3.050   4.466   1.218  0.2162 -0.0559 -0.1697
 2411ntf    sn215094   3.043   4.378   1.347 -0.1123  0.1440 -0.0470
 2411ntf    cn115095   2.900   4.278   1.298 -0.1839  0.2665 -0.0873
 2411ntf    fn415096   3.101   4.691   1.401  0.0655 -0.0941 -0.3885
 2411ntf    fn415097   3.221   4.688   1.226 -0.0317  0.3777 -0.0807
 2411ntf    fn415098   3.066   4.838   1.255 -0.7379 -0.3053  0.0083
 2411ntf    on515099   2.853   4.620   1.266 -0.4178 -0.4609 -0.0378
 2411ntf    on515100   2.973   4.635   1.051 -0.0741 -0.0712  0.0358
 2411ntf    on515101   3.000   4.443   1.469 -0.2521 -0.2345  0.1071
 2411ntf    on515102   3.145   4.277   1.362 -0.3996 -0.0612  0.5716
 2411ntf    fn415103   2.785   4.342   1.287 -0.4031 -0.1388 -0.1783
 2411ntf    fn415104   2.917   4.218   1.180 -0.2666 -0.0156  0.0431
 2411ntf    fn415105   2.883   4.188   1.394 -0.0801  0.1929 -0.1375
 2412ntf    cn115106   4.745   3.611   4.581 -0.3370 -0.3201 -0.0219
 2412ntf    sn215107   4.797   3.437   4.593  0.4419 -0.0989 -0.1339
 2412ntf    nn315108   4.885   3.417   4.465  0.2756 -0.7085 -0.1522
 2412ntf    sn215109   4.849   3.372   4.319  0.0457 -0.1767 -0.2594
 2412ntf    cn115110   4.894   3.196   4.319  0.1717 -0.1453 -0.0178
 2412ntf    fn415111   4.703   3.630   4.457 -0.0273  0.3758 -0.0258
 2412ntf    fn415112   4.641   3.647   4.654 -0.5257 -0.1968 -0.3486
 2412ntf    fn415113   4.844   3.696   4.600 -0.6587  0.0600 -0.0325
 2412ntf    on515114   4.880   3.440   4.711 -0.4018 -0.3483  0.4716
 2412ntf    on515115   4.674   3.362   4.599  0.7526 -0.6215 -0.2640
 2412ntf    on515116   4.944   3.436   4.231 -0.1554  0.1219 -0.2621
 2412ntf    on515117   4.711   3.388   4.278 -0.0798  0.0239  0.2320
 2412ntf    fn415118   5.017   3.168   4.358  0.3363 -0.1601 -0.5433
 2412ntf    fn415119   4.806   3.128   4.391 -0.2756  0.1453 -0.2864
 2412ntf    fn415120   4.894   3.152   4.194 -0.4496  0.0550 -0.0929
 2413ntf    cn115121   4.260   0.815   4.718  0.2112  0.0522  0.0634
 2413ntf    sn215122   4.255   0.768   4.893  0.0084  0.2324  0.1074
 2413ntf    nn315123   4.126   0.679   4.903  0.2770 -0.1259  0.4476
 2413ntf    sn215124   4.103   0.537   4.842  0.0350  0.1214 -0.0396
 2413ntf    cn115125   4.128   0.441   4.994 -0.3300  0.2712  0.1155
 2413ntf    fn415126   4.252   0.704   4.647 -0.3585  0.2781 -0.2266
 2413ntf    fn415127   4.156   0.888   4.683 -0.1556 -0.4074  0.1920
 2413ntf    fn415128   4.364   0.882   4.670 -0.1509  0.3336 -0.3390
 2413ntf    on515129   4.378   0.702   4.930 -0.1576 -0.2058 -0.1127
 2413ntf    on515130   4.224   0.893   4.958 -0.2345  0.1679  0.1156
 2413ntf    on515131   4.198   0.488   4.745  0.1999 -0.5633  0.4622
 2413ntf    on515132   3.965   0.506   4.812 -0.0785  0.7452 -0.1671
 2413ntf    fn415133   4.250   0.457   5.043  0.0142 -0.5422 -0.4638
 2413ntf    fn415134   4.049   0.468   5.097 -0.3912 -0.0913  0.1623
 2413ntf    fn415135   4.114   0.311   4.974  0.1499  0.2723 -0.2250
 2414ntf    cn115136   3.061   5.622   5.570  0.1008  0.4937 -0.1613
 2414ntf    sn215137   2.879   5.619   5.563  0.1148 -0.2727 -0.3038
 2414ntf    nn315138   2.850   5.653   5.413  0.0893  0.0557 -0.2248
 2414ntf    sn215139   2.816   5.557   5.293 -0.2499 -0.2107  0.0831
 2414ntf    cn115140   2.939   5.622   5.176 -0.0389 -0.0571  0.3862
 2414ntf    fn415141   3.108   5.742   5.539  0.3840  0.4829  0.2280
 2414ntf    fn415142   3.111   5.588   5.687  0.6978  0.4380 -0.4271
 2414ntf    fn415143   3.114   5.542   5.479  0.1580  0.0193  0.2855
 2414ntf    on515144   2.852   5.488   5.617  0.3769  0.0129  0.5393
 2414ntf    on515145   2.850   5.727   5.654 -0.1474 -0.3556 -0.2888
 2414ntf    on515146   2.684   5.586   5.244  0.0257  0.4036 -0.3057
 2414ntf    on515147   2.863   5.422   5.309  0.6877  0.0739 -0.1912
 2414ntf    fn415148   3.063   5.590   5.206 -0.0991 -0.6061  0.0646
 2414ntf    fn415149   2.917   5.568   5.057  0.2723 -0.1995  0.3927
 2414ntf    fn415150   2.933   5.753   5.156 -0.1405 -0.2097 -0.6786
 2415ntf    cn115151   1.645   2.032   6.236 -0.3013  0.0194 -0.0533
 2415ntf    sn215152   1.667   2.052   6.056 -0.2123  0.3210 -0.0107
 2415ntf    nn315153   1.673   2.209   6.055 -0.2992  0.3308  0.6280
 2415ntf    sn215154   1.568   2.313   6.002  0.0133  0.3312  0.0101
 2415ntf    cn115155   1.631   2.316   5.831  0.3325  0.3049  0.1273
 2415ntf    fn415156   1.656   1.907   6.278 -0.0582  0.3054  0.7482
 2415ntf    fn415157   1.737   2.103   6.299 -0.2458 -0.3203  0.2488
 2415ntf    fn415158   1.524   2.072   6.271 -0.3481 -0.2275  0.0647
 2415ntf    on515159   1.792   1.989   6.021 -0.4472 -0.2336  0.1243
 2415ntf    on515160   1.543   1.993   6.010  0.0944 -0.1443 -0.2451
 2415ntf    on515161   1.591   2.446   6.051  0.3356  0.3590 -0.2100
 2415ntf    on515162   1.431   2.271   5.987  0.1626 -0.2672  0.3127
 2415ntf    fn415163   1.642   2.193   5.782 -0.0245  0.2865  0.0951
 2415ntf    fn415164   1.553   2.386   5.751  0.2634  0.1958  0.1000
 2415ntf    fn415165   1.750   2.374   5.819  0.6269 -0.2354  0.3918
 2416ntf    cn115166   2.268   0.547   6.521  0.1354  0.0379 -0.1884
 2416ntf    sn215167   2.407   0.562   6.405  0.1608  0.1174 -0.1473
 2416ntf    nn315168   2.330   0.564   6.269  0.0792 -0.0245 -0.1042
 2416ntf    sn215169   2.283   0.684   6.178  0.3932 -0.0681 -0.3248
 2416ntf    cn115170   2.106   0.682   6.217  0.4072 -0.0177 -0.2599
 2416ntf    fn415171   2.203   0.437   6.487  0.1994  0.1961 -0.8441
 2416ntf    fn415172   2.312   0.543   6.646  0.3501 -0.2411 -0.2724
 2416ntf    fn415173   2.181   0.646   6.511 -0.1539 -0.2187 -0.2236
 2416ntf    on515174   2.473   0.687   6.433  0.5169 -0.0522 -0.2202
 2416ntf    on515175   2.483   0.441   6.420  0.0060  0.0845  0.4115
 2416ntf    on515176   2.289   0.650   6.038  0.8918 -0.0087 -0.3208
 2416ntf    on515177   2.324   0.818   6.213 -0.1532  0.1413 -0.4805
 2416ntf    fn415178   2.086   0.735   6.337  0.3712 -0.0951 -0.2316
 2416ntf    fn415179   2.030   0.746   6.130 -0.2151 -0.3185  0.0565
 2416ntf    fn415180   2.060   0.558   6.214  0.0945  0.1019 -0.4436
 2417ntf    cn115181   0.947   1.486   2.190  0.1245  0.0748  0.1216
 2417ntf    sn215182   0.974   1.645   2.104  0.1958  0.0624  0.1205
 2417ntf    nn315183   1.100   1.620   2.014  0.3686  0.0132  0.3755
 2417ntf    sn215184   1.098   1.575   1.864  0.1050 -0.0228  0.3898
 2417ntf    cn115185   1.270   1.521   1.841  0.0587 -0.2399  0.5504
 2417ntf    fn415186   0.857   1.501   2.285 -0.0331 -0.0535 -0.0083
 2417ntf    fn415187   0.916   1.382   2.115 -0.0218 -0.0750  0.3883
 2417ntf    fn415188   1.055   1.449   2.258  0.2003 -0.0839 -0.0836
 2417ntf    on515189   0.846   1.667   2.041  0.3237  0.2319 -0.0775
 2417ntf    on515190   1.000   1.732   2.216  0.7139  0.1833 -0.0940
 2417ntf    on515191   1.091   1.677   1.762 -0.0305 -0.5992 -0.1845
 2417ntf    on515192   1.023   1.454   1.843 -0.2674  0.2072  0.3804
 2417ntf    fn415193   1.290   1.409   1.908 -0.0693 -0.4623  0.2203
 2417ntf    fn415194   1.297   1.492   1.715  0.3746  0.2637  0.4981
 2417ntf    fn415195   1.360   1.612   1.872 -0.0357 -0.0357  0.2361
 2418ntf    cn115196   5.855   1.397   5.363  0.0142  0.2931  0.0951
 2418ntf    sn215197   5.938   1.533   5.451  0.0587  0.2048  0.1879
 2418ntf    nn315198   5.943   1.475   5.597 -0.2472  0.5500  0.3378
 2418ntf    sn215199   6.066   1.422   5.680 -0.0097 -0.1380 -0.4312
 2418ntf    cn115200   6.039   1.245   5.654  0.1525 -0.2485  0.1380
 2418ntf    fn415201   5.906   1.277   5.386 -0.0801  0.1536 -0.3965
 2418ntf    fn415202   5.726   1.389   5.393 -0.0413 -0.4923 -0.3272
 2418ntf    fn415203   5.857   1.413   5.231 -0.3494 -0.6136 -0.0308
 2418ntf    on515204   6.065   1.548   5.384  0.0174  0.4383  0.1646
 2418ntf    on515205   5.846   1.644   5.450 -0.2998 -0.0896 -0.4129
 2418ntf    on515206   6.041   1.434   5.821  0.0640 -0.5014 -0.3866
 2418ntf    on515207   6.202   1.446   5.639  0.2451 -0.4535  0.2244
 2418ntf    fn415208   6.085   1.164   5.748  0.1293 -0.0296  0.3360
 2418ntf    fn415209   5.909   1.223   5.640 -0.0145  0.5046  0.4989
 2418ntf    fn415210   6.095   1.203   5.541  0.5574  0.8731 -0.0842
 2419ntf    cn115211   0.301   5.384   0.556  0.1506  0.4935 -0.1292
 2419ntf    sn215212   0.184   5.408   0.693 -0.2323  0.0108 -0.3685
 2419ntf    nn315213   0.191   5.562   0.724 -0.2587 -0.1095  0.2404
 2419ntf    sn215214   0.082   5.675   0.711 -0.2044 -0.0811  0.0388
 2419ntf    cn115215   0.138   5.771   0.567 -0.2977  0.0380  0.0818
 2419ntf    fn415216   0.255   5.434   0.443 -0.1073  1.2092  0.2844
 2419ntf    fn415217   0.417   5.445   0.574 -0.0011  0.6604  0.3202
 2419ntf    fn415218   0.331   5.258   0.533  0.0603  0.3961  0.2732
 2419ntf    on515219   0.063   5.350   0.641 -0.0470 -0.6645 -0.0590
 2419ntf    on515220   0.248   5.329   0.795  0.3446  0.4648 -0.3735
 2419ntf    on515221   0.083   5.772   0.817 -0.6672  0.0665 -0.0893
 2419ntf    on515222  -0.050   5.628   0.676 -0.2205  0.0955 -0.1360
 2419ntf    fn415223   0.252   5.836   0.581 -0.0274 -0.4556  0.2126
 2419ntf    fn415224   0.148   5.696   0.458  0.4249  0.3215 -0.0515
 2419ntf    fn415225   0.050   5.867   0.544 -0.1596  0.2257  0.3337
 2420ntf    cn115226   6.778   3.001   1.226  0.1787  0.3551  0.2621
 2420ntf    sn215227   6.768   2.823   1.264  0.1201  0.2970 -0.0188
 2420ntf    nn315228   6.772   2.767   1.118 -0.1677 -0.2047  0.1651
 2420ntf    sn215229   6.871   2.677   1.036 -0.0496  0.2041 -0.1448
 2420ntf    cn115230   6.959   2.793   0.928  0.4390 -0.0909 -0.0641
 2420ntf    fn415231   6.853   3.027   1.120  0.2164  0.3065  0.2764
 2420ntf    fn415232   6.659   3.057   1.208  0.3575  0.6553  0.0205
 2420ntf    fn415233   6.828   3.072   1.326  0.0742  0.4124  0.2738
 2420ntf    on515234   6.890   2.803   1.339  0.5452 -0.0765 -0.8043
 2420ntf    on515235   6.639   2.811   1.327  0.1408 -0.1508 -0.0637
 2420ntf    on515236   6.799   2.597   0.939 -0.3355  0.2281  0.0462
 2420ntf    on515237   6.970   2.603   1.110 -0.3560  0.3865  0.4498
 2420ntf    fn415238   6.876   2.888   0.890  0.3957 -0.0527  0.1253
 2420ntf    fn415239   7.050   2.864   0.993 -0.0434  0.0221  0.4935
 2420ntf    fn415240   7.011   2.739   0.819  0.5348 -0.2795  0.0740
 2421ntf    cn115241   3.699   1.073   4.435 -0.1839  0.0212 -0.7516
 2421ntf    sn215242   3.555   1.146   4.519  0.3031  0.0649  0.0548
 2421ntf    nn315243   3.447   1.033   4.505 -0.3715  0.6691  0.3370
 2421ntf    sn215244   3.343   0.974   4.607 -0.1188 -0.1273  0.1398
 2421ntf    cn115245   3.205   0.950   4.491 -0.2534  0.1781  0.2381
 2421ntf    fn415246   3.671   1.046   4.308 -0.4355  0.4185 -0.7799
 2421ntf    fn415247   3.809   1.145   4.440 -0.0798 -0.1923  0.1053
 2421ntf    fn415248   3.724   0.949   4.474 -0.1040  0.1027 -0.5438
 2421ntf    on515249   3.599   1.168   4.654 -0.1939 -0.3038  0.2779
 2421ntf    on515250   3.533   1.262   4.437  0.2792 -0.2124 -0.3373
 2421ntf    on515251   3.287   1.064   4.704  0.1466 -0.0709  0.2432
 2421ntf    on515252   3.374   0.842   4.656 -0.0560 -0.2127 -0.1251
 2421ntf    fn415253   3.097   0.915   4.559 -0.5457  0.1516 -0.2345
 2421ntf    fn415254   3.170   1.061   4.428  0.5072  0.1042 -0.3347
 2421ntf    fn415255   3.235   0.857   4.402 -0.3699 -0.1100  0.5000
 2422ntf    cn115256   0.086   3.541   0.254 -0.3260 -0.1665  0.2025
 2422ntf    sn215257   0.154   3.673   0.359  0.0958 -0.1554 -0.0820
 2422ntf    nn315258   0.047   3.787   0.348  0.4212  0.1496 -0.1054
 2422ntf    sn215259   0.021   3.904   0.450  0.1291 -0.0952  0.1046
 2422ntf    cn115260  -0.119   3.833   0.541 -0.2151  0.0419 -0.3159
 2422ntf    fn415261   0.062   3.595   0.135  1.1676  0.3888  0.1343
 2422ntf    fn415262   0.166   3.440   0.226 -0.1319 -0.0694  0.4104
 2422ntf    fn415263  -0.024   3.492   0.309 -0.4945 -0.0365 -0.0157
 2422ntf    on515264   0.160   3.607   0.487 -0.0786 -0.1763 -0.0840
 2422ntf    on515265   0.279   3.710   0.298  0.3224  0.0066  0.4768
 2422ntf    on515266  -0.035   4.021   0.388  0.4115 -0.1466 -0.2470
 2422ntf    on515267   0.125   3.927   0.547  0.2866 -0.0812 -0.0668
 2422ntf    fn415268  -0.102   3.710   0.587  0.6528  0.3711  0.2515
 2422ntf    fn415269  -0.152   3.908   0.645 -0.2597 -0.1589 -0.1850
 2422ntf    fn415270  -0.227   3.830   0.465 -0.3775 -0.0774 -0.0842
 2423ntf    cn115271   4.694   1.913   2.325 -0.1486 -0.3869 -0.3827
 2423ntf    sn215272   4.866   1.864   2.296 -0.0818 -0.4202  0.0726
 2423ntf    nn315273   4.904   1.790   2.429  0.0537 -0.3378  0.0799
 2423ntf    sn215274   5.041   1.777   2.505  0.1843  0.0759 -0.0837
 2423ntf    cn115275   5.007   1.890   2.644  0.1904 -0.1564  0.1082
 2423ntf    fn415276   4.686   1.992   2.431 -0.1368 -0.1298 -0.5713
 2423ntf    fn415277   4.632   1.987   2.233 -0.4773 -0.2902 -0.0849
 2423ntf    fn415278   4.616   1.811   2.357 -0.1385 -0.4026 -0.4070
 2423ntf    on515279   4.843   1.771   2.189  0.3333  0.2932 -0.6466
 2423ntf    on515280   4.944   1.982   2.268  0.0515 -0.5467 -0.0942
 2423ntf    on515281   5.152   1.836   2.434  0.2317 -0.0794 -0.1396
 2423ntf    on515282   5.055   1.646   2.563 -0.2974 -0.0174 -0.1768
 2423ntf    fn415283   5.112   1.902   2.723  0.5469 -0.1092 -0.3701
 2423ntf    fn415284   4.987   2.014   2.601 -0.1003 -0.3170 -0.2257
 2423ntf    fn415285   4.908   1.855   2.725 -0.1205  0.2929 -0.0734
 2424ntf    cn115286   3.560   1.693   2.999  0.3405 -0.2424 -0.2559
 2424ntf    sn215287   3.606   1.639   3.167 -0.1450  0.0312 -0.0332
 2424ntf    nn315288   3.762   1.658   3.170 -0.0644 -0.6660  0.1828
 2424ntf    sn215289   3.851   1.695   3.293 -0.0217  0.2615 -0.1169
 2424ntf    cn115290   3.845   1.876   3.302  0.0714  0.2552  0.0948
 2424ntf    fn415291   3.432   1.720   2.975  0.3608  0.5320  0.4778
 2424ntf    fn415292   3.620   1.804   2.960 -0.1152  0.1019  0.0120
 2424ntf    fn415293   3.597   1.609   2.903  0.0455 -0.6513 -0.0158
 2424ntf    on515294   3.532   1.718   3.262  0.4755 -0.0276  0.5031
 2424ntf    on515295   3.573   1.499   3.164 -0.0321  0.0062 -0.1230
 2424ntf    on515296   3.988   1.669   3.255 -0.1207  0.0768 -0.3492
 2424ntf    on515297   3.805   1.653   3.423  0.2846  0.6202  0.1081
 2424ntf    fn415298   3.924   1.932   3.392  0.0057 -0.3205  0.5167
 2424ntf    fn415299   3.876   1.927   3.183 -0.7209 -0.2451 -0.3329
 2424ntf    fn415300   3.721   1.915   3.324  0.0137 -0.0420  0.2905
 2425ntf    cn115301   6.351   3.931   5.230  0.2118  0.3453 -0.3773
 2425ntf    sn215302   6.234   3.795   5.199 -0.0731  0.4735  0.1270
 2425ntf    nn315303   6.273   3.695   5.313 -0.2406  0.1223 -0.1207
 2425ntf    sn215304   6.211   3.681   5.456  0.2183 -0.2338  0.0472
 2425ntf    cn115305   6.190   3.500   5.461 -0.3005 -0.1737  0.1880
 2425ntf    fn415306   6.348   3.980   5.352  0.0536  0.3996 -0.4025
 2425ntf    fn415307   6.476   3.893   5.210  0.3276  0.2839  0.4345
 2425ntf    fn415308   6.321   4.029   5.146 -0.0609  0.2868 -0.3494
 2425ntf    on515309   6.103   3.855   5.206 -0.4645 -0.2607 -0.6720
 2425ntf    on515310   6.267   3.741   5.069 -0.7549  0.2123  0.0598
 2425ntf    on515311   6.071   3.716   5.467  0.2880 -0.0026  0.1817
 2425ntf    on515312   6.292   3.721   5.568  0.2990 -0.6107  0.1260
 2425ntf    fn415313   6.301   3.436   5.427 -0.2773 -0.2646  0.4340
 2425ntf    fn415314   6.161   3.470   5.586 -0.2760  0.0371  0.2446
 2425ntf    fn415315   6.092   3.450   5.388 -0.3310  0.0757  0.0541
 2426ntf    cn115316   3.470   6.275   3.087  0.3751 -0.1098  0.1391
 2426ntf    sn215317   3.419   6.409   2.974  0.1091 -0.3463 -0.0232
 2426ntf    nn315318   3.302   6.332   2.902  0.0478 -0.2488 -0.0279
 2426ntf    sn215319   3.148   6.333   2.930  0.0595 -0.3235  0.0402
 2426ntf    cn115320   3.096   6.450   2.801  0.3509 -0.2957 -0.0533
 2426ntf    fn415321   3.494   6.158   3.031  0.4927  0.0810 -0.2108
 2426ntf    fn415322   3.579   6.322   3.144  0.1632  0.0467  0.4194
 2426ntf    fn415323   3.377   6.264   3.181  0.1226  0.2094 -0.0679
 2426ntf    on515324   3.388   6.521   3.059  0.3100 -0.3659  0.0770
 2426ntf    on515325   3.534   6.430   2.891  0.0140  0.6808  0.0926
 2426ntf    on515326   3.093   6.384   3.053 -0.1166  0.0355 -0.1847
 2426ntf    on515327   3.086   6.214   2.876  0.2395 -0.4292  0.0676
 2426ntf    fn415328   2.965   6.443   2.783  0.2956 -0.1972  0.2963
 2426ntf    fn415329   3.136   6.574   2.823 -0.5203 -0.0246  0.0543
 2426ntf    fn415330   3.150   6.423   2.684  0.0808 -0.5111 -0.1299
 2427ntf    cn115331   5.415   5.424   1.230  0.2316 -0.3637 -0.1335
 2427ntf    sn215332   5.486   5.591   1.217 -0.3669 -0.1050 -0.1371
 2427ntf    nn315333   5.552   5.585   1.074 -0.0949 -0.4010 -0.0028
 2427ntf    sn215334   5.701   5.548   1.042 -0.0217 -0.0941 -0.0195
 2427ntf    cn115335   5.757   5.705   0.967  0.3208 -0.0484  0.3301
 2427ntf    fn415336   5.501   5.329   1.195 -0.0635 -0.5757 -0.2839
 2427ntf    fn415337   5.389   5.402   1.357  0.1883 -0.2996 -0.1313
 2427ntf    fn415338   5.311   5.397   1.153 -0.1339 -0.2033  0.3026
 2427ntf    on515339   5.369   5.674   1.214 -0.2263  0.0922 -0.1959
 2427ntf    on515340   5.572   5.593   1.333 -0.5075 -0.3184 -0.0300
 2427ntf    on515341   5.710   5.449   0.938  0.1513 -0.0326 -0.0640
 2427ntf    on515342   5.790   5.524   1.153 -0.1718  0.2994  0.1890
 2427ntf    fn415343   5.688   5.733   0.858  0.1424  0.6029  0.6070
 2427ntf    fn415344   5.754   5.814   1.043  0.0517 -0.2487  0.6114
 2427ntf    fn415345   5.882   5.699   0.927  0.2692 -0.0536  0.1685
 2428ntf    cn115346   2.721   2.717   0.646 -0.2507 -0.3402  0.4363
 2428ntf    sn215347   2.656   2.885   0.667 -0.2049 -0.2535 -0.1110
 2428ntf    nn315348   2.592   2.870   0.809  0.0905  0.3271  0.0880
 2428ntf    sn215349   2.442   2.864   0.853  0.1391  0.0543  0.2215
 2428ntf    cn115350   2.397   3.036   0.891  0.0796  0.0665  0.0982
 2428ntf    fn415351   2.803   2.705   0.543 -0.2501 -0.1256  0.4120
 2428ntf    fn415352   2.790   2.671   0.749 -0.2946 -0.2782  0.4929
 2428ntf    fn415353   2.632   2.620   0.627 -0.3530 -0.1373 -0.1440
 2428ntf    on515354   2.779   2.960   0.672 -0.4833  0.2226 -0.3154
 2428ntf    on515355   2.561   2.889   0.558  0.1712 -0.0748 -0.4378
 2428ntf    on515356   2.420   2.793   0.977 -0.3833  0.3609  0.3122
 2428ntf    on515357   2.350   2.837   0.745  0.1785 -0.1078  0.2282
 2428ntf    fn415358   2.447   3.060   1.011 -0.1732 -0.6894  0.3623
 2428ntf    fn415359   2.460   3.124   0.815  0.2033  0.0673  0.2017
 2428ntf    fn415360   2.269   3.068   0.897 -0.0593 -0.5745  0.6829
 2429ntf    cn115361   0.144   0.821   0.944 -0.1866  0.4591 -0.0923
 2429ntf    sn215362   0.075   0.812   1.112  0.2170  0.0081  0.0507
 2429ntf    nn315363   0.182   0.712   1.168  0.0113 -0.2506 -0.0132
 2429ntf    sn215364   0.172   0.597   1.275 -0.0666  0.0604  0.3176
 2429ntf    cn115365   0.135   0.461   1.160 -0.0848  0.2364  0.1136
 2429ntf    fn415366   0.071   0.891   0.859 -0.3901  0.2036 -0.1295
 2429ntf    fn415367   0.263   0.879   0.946  0.0279  0.0097  0.2000
 2429ntf    fn415368   0.158   0.707   0.878  0.2373  0.7464 -0.5013
 2429ntf    on515369   0.098   0.945   1.164 -0.2378  0.0853  0.0613
 2429ntf    on515370  -0.056   0.756   1.087  0.2417 -0.0272 -0.0003
 2429ntf    on515371   0.054   0.611   1.356 -0.2574  0.3336 -0.0012
 2429ntf    on515372   0.297   0.563   1.339  0.3161  0.5003 -0.1881
 2429ntf    fn415373   0.144   0.343   1.219  0.1433  0.0824 -0.2308
 2429ntf    fn415374   0.015   0.457   1.104  0.0689 -0.1827 -0.1906
 2429ntf    fn415375   0.209   0.467   1.051 -0.3503 -0.3791 -0.1063
 2430ntf    cn115376   4.152   1.403   5.462  0.3911 -0.3307  0.5979
 2430ntf    sn215377   4.122   1.230   5.415  0.1219 -0.1200 -0.0245
 2430ntf    nn315378   3.986   1.242   5.337  0.0738  0.1654  0.1031
 2430ntf    sn215379   3.840   1.216   5.387 -0.0975  0.2676 -0.3399
 2430ntf    cn115380   3.830   1.039   5.344 -0.1951  0.2182 -0.1173
 2430ntf    fn415381   4.245   1.405   5.555  0.1717 -0.2914  0.8158
 2430ntf    fn415382   4.185   1.470   5.353  0.2654 -0.5784  0.4048
 2430ntf    fn415383   4.052   1.471   5.516  0.5384  0.1307  0.2969
 2430ntf    on515384   4.225   1.193   5.322  0.0599 -0.1964 -0.0619
 2430ntf    on515385   4.123   1.150   5.535  0.1972 -0.0446  0.0250
 2430ntf    on515386   3.739   1.284   5.309 -0.7067 -0.0154  0.1939
 2430ntf    on515387   3.832   1.214   5.531  0.1385  0.6195 -0.3220
 2430ntf    fn415388   3.834   1.019   5.213 -0.2665  0.3078 -0.1338
 2430ntf    fn415389   3.927   0.967   5.398 -0.3465  0.4040  0.4024
 2430ntf    fn415390   3.715   0.986   5.380  0.1601 -0.3246  0.2308
 2431ntf    cn115391   5.091   4.045   5.288 -0.3385  0.0283 -0.3363
 2431ntf    sn215392   5.053   3.939   5.430  0.1656  0.3362  0.0315
 2431ntf    nn315393   4.942   4.022   5.504 -0.1896 -0.1970  0.1025
 2431ntf    sn215394   4.785   4.014   5.495 -0.1835 -0.1220 -0.0808
 2431ntf    cn115395   4.750   4.187   5.453  0.0614 -0.1282 -0.3153
 2431ntf    fn415396   4.977   4.062   5.222 -0.3458 -0.8962 -0.5830
 2431ntf    fn415397   5.139   4.159   5.335 -0.1597 -0.1359 -0.1205
 2431ntf    fn415398   5.173   3.992   5.199 -0.1928 -0.0668 -0.1467
 2431ntf    on515399   5.009   3.818   5.364 -0.4735  0.5563  0.0440
 2431ntf    on515400   5.176   3.930   5.505 -0.2022  0.1185  0.6182
 2431ntf    on515401   4.723   3.993   5.623  0.3285  0.9103  0.3465
 2431ntf    on515402   4.733   3.940   5.383 -0.2210  0.4117 -0.4155
 2431ntf    fn415403   4.812   4.274   5.532 -0.4053  0.0372 -0.1289
 2431ntf    fn415404   4.787   4.216   5.329  0.2317  0.0248 -0.2303
 2431ntf    fn415405   4.620   4.210   5.457 -0.0637 -0.8733 -0.0081
 2432ntf    cn115406   2.595   1.141   0.273  0.0645  0.0483  0.5113
 2432ntf    sn215407   2.477   1.147   0.411 -0.3151  0.2204  0.1814
 2432ntf    nn315408   2.350   1.131   0.320  0.0265  0.5558 -0.3553
 2432ntf    sn215409   2.205   1.186   0.339  0.0734  0.4390  0.3595
 2432ntf    cn115410   2.125   1.025   0.365 -0.0174  0.4330  0.0519
 2432ntf    fn415411   2.569   1.033   0.200  0.3427  0.5201 -0.3038
 2432ntf    fn415412   2.579   1.248   0.196 -0.0195 -0.0058  0.4531
 2432ntf    fn415413   2.720   1.150   0.316  0.3343 -0.5882 -0.1223
 2432ntf    on515414   2.500   1.028   0.489  0.3331  0.2737  0.0754
 2432ntf    on515415   2.493   1.277   0.473  0.4248  0.3237 -0.2196
 2432ntf    on515416   2.138   1.225   0.217  0.5394  0.0335 -0.0304
 2432ntf    on515417   2.177   1.266   0.456  0.0366 -0.0458  0.6852
 2432ntf    fn415418   2.140   0.948   0.258  0.3185  0.3620  0.1481
 2432ntf    fn415419   2.187   0.959   0.462  0.0767  0.2240 -0.1476
 2432ntf    fn415420   1.996   1.033   0.394  0.0372 -0.0888  0.4629
 2433ntf    cn115421   5.726   1.468   3.178  0.2452  0.1220 -0.0111
 2433ntf    sn215422   5.743   1.620   3.080  0.3873 -0.0046 -0.1850
 2433ntf    nn315423   5.864   1.593   2.984  0.1529 -0.2526 -0.4122
 2433ntf    sn215424   5.865   1.547   2.834 -0.4159 -0.2778 -0.4101
 2433ntf    cn115425   5.962   1.394   2.852 -0.0625  0.0248  0.2888
 2433ntf    fn415426   5.673   1.366   3.112  0.0861  0.1204  0.1193
 2433ntf    fn415427   5.842   1.422   3.222  0.1975 -0.5109 -0.5222
 2433ntf    fn415428   5.645   1.483   3.281  0.0776  0.2956 -0.1686
 2433ntf    on515429   5.617   1.645   3.014 -0.1325 -0.6168  0.5579
 2433ntf    on515430   5.772   1.719   3.181  0.0134 -0.4103  0.3256
 2433ntf    on515431   5.948   1.624   2.745 -0.2734  0.4715  0.3544
 2433ntf    on515432   5.740   1.499   2.781 -0.7452 -0.0914  0.1802
 2433ntf    fn415433   6.001   1.335   2.740 -0.2364  0.0815  0.1976
 2433ntf    fn415434   6.078   1.413   2.913 -0.0394  0.1918  0.1936
 2433ntf    fn415435   5.889   1.305   2.917  0.0837 -0.3406 -0.0412
 2434ntf    cn115436   2.492   0.925   5.342  0.0230  0.0624  0.0563
 2434ntf    sn215437   2.567   1.045   5.457  0.5181  0.1584 -0.3638
 2434ntf    nn315438   2.470   1.167   5.443 -0.0688 -0.2802 -0.1641
 2434ntf    sn215439   2.392   1.242   5.558  0.0923 -0.1910 -0.1133
 2434ntf    cn115440   2.387   1.413   5.497  0.1970  0.1193  0.7365
 2434ntf    fn415441   2.547   0.808   5.373 -0.3491 -0.1168  0.0441
 2434ntf    fn415442   2.364   0.904   5.367 -0.0782 -0.0899 -0.5754
 2434ntf    fn415443   2.512   0.952   5.214  0.0910 -0.9629 -0.1595
 2434ntf    on515444   2.567   0.974   5.582  0.1913  0.9108  0.0694
 2434ntf    on515445   2.694   1.072   5.394  0.1343  0.2361 -1.1188
 2434ntf    on515446   2.466   1.251   5.681 -0.4695 -0.0597  0.2187
 2434ntf    on515447   2.254   1.202   5.558  0.1283 -0.3148 -0.0230
 2434ntf    fn415448   2.334   1.493   5.588 -0.0310  0.3050  0.4452
 2434ntf    fn415449   2.506   1.454   5.455 -0.2103  0.5497 -0.0108
 2434ntf    fn415450   2.298   1.413   5.399  0.2692 -0.2258  0.6712
 2435ntf    cn115451   4.845   3.621   3.423  0.2350 -0.0522 -0.2463
 2435ntf    sn215452   4.721   3.749   3.388  0.1584 -0.0572  0.0057
 2435ntf    nn315453   4.619   3.725   3.505  0.0675  0.0823 -0.0447
 2435ntf    sn215454   4.605   3.810   3.636 -0.0606 -0.1135  0.0678
 2435ntf    cn115455   4.535   3.968   3.579 -0.0621 -0.1172  0.0606
 2435ntf    fn415456   4.962   3.637   3.363  0.2683  0.0830 -0.1463
 2435ntf    fn415457   4.872   3.612   3.552  0.1497 -0.0632 -0.2288
 2435ntf    fn415458   4.798   3.504   3.383  0.5338 -0.2434 -0.0435
 2435ntf    on515459   4.800   3.870   3.400  0.2212 -0.1160  0.1784
 2435ntf    on515460   4.668   3.715   3.258  0.0815  0.0676  0.0042
 2435ntf    on515461   4.729   3.845   3.701  0.2699  0.0350 -0.6311
 2435ntf    on515462   4.506   3.750   3.722  0.1528 -0.1376  0.2982
 2435ntf    fn415463   4.619   4.042   3.509 -0.3724  0.1875  0.0086
 2435ntf    fn415464   4.432   3.942   3.500  0.0528 -0.2462 -0.0488
 2435ntf    fn415465   4.488   4.043   3.678  0.0611 -0.1023  0.1083
 2436ntf    cn115466   4.415   1.373   6.481 -0.3491 -0.0844 -0.0356
 2436ntf    sn215467   4.394   1.378   6.661  0.0881 -0.1842  0.0193
 2436ntf    nn315468   4.522   1.463   6.690 -0.0586  0.1837 -0.4086
 2436ntf    sn215469   4.652   1.433   6.773 -0.1801  0.3227 -0.1694
 2436ntf    cn115470   4.736   1.329   6.650 -0.1504  0.1141  0.0254
 2436ntf    fn415471   4.397   1.496   6.434  0.3260 -0.2233 -0.6631
 2436ntf    fn415472   4.536   1.345   6.437 -0.4933  0.0325 -0.5155
 2436ntf    fn415473   4.328   1.296   6.418 -0.3869  0.1235 -0.2421
 2436ntf    on515474   4.271   1.449   6.690 -0.1115 -0.3907 -0.3067
 2436ntf    on515475   4.399   1.240   6.701 -0.5897 -0.1050  0.4071
 2436ntf    on515476   4.632   1.342   6.883 -0.4255  0.0587 -0.4302
 2436ntf    on515477   4.739   1.547   6.788 -0.1228  0.3208 -0.4963
 2436ntf    fn415478   4.852   1.279   6.690 -0.2848  0.4434  0.8459
 2436ntf    fn415479   4.657   1.227   6.623  0.1474 -0.2175  0.4063
 2436ntf    fn415480   4.762   1.402   6.542 -0.1190  0.4653  0.2668
 2437ntf    cn115481   3.833   6.508   5.442 -0.1853 -0.4521  0.2741
 2437ntf    sn215482   3.868   6.525   5.619 -0.1728 -0.3901  0.2652
 2437ntf    nn315483   3.722   6.534   5.677 -0.3642  0.0024 -0.2717
 2437ntf    sn215484   3.630   6.659   5.699 -0.2176  0.0868 -0.1302
 2437ntf    cn115485   3.614   6.671   5.879 -0.2723 -0.4890 -0.0944
 2437ntf    fn415486   3.940   6.513   5.365 -0.3430 -0.3454  0.0580
 2437ntf    fn415487   3.776   6.392   5.411 -0.4919 -0.2598  0.1051
 2437ntf    fn415488   3.751   6.605   5.403  0.0036 -0.3562  0.1171
 2437ntf    on515489   3.939   6.403   5.643  0.4681  0.0134  0.4498
 2437ntf    on515490   3.948   6.645   5.626 -0.0931 -0.4545  0.4760
 2437ntf    on515491   3.495   6.641   5.649 -0.0269 -0.1875 -0.5502
 2437ntf    on515492   3.700   6.780   5.664  0.9060 -0.5752 -0.2261
 2437ntf    fn415493   3.539   6.772   5.921  0.5912  0.2071 -0.1994
 2437ntf    fn415494   3.561   6.561   5.929 -0.3435 -0.2679  0.3216
 2437ntf    fn415495   3.736   6.680   5.930 -0.4592  0.2875  0.2453
 2438ntf    cn115496   6.491   3.579   6.370  0.1450 -0.1442  0.1787
 2438ntf    sn215497   6.361   3.517   6.481 -0.1553 -0.1373 -0.1714
 2438ntf    nn315498   6.364   3.610   6.607 -0.0520 -0.0327 -0.2510
 2438ntf    sn215499   6.470   3.609   6.723 -0.5744 -0.0472  0.2310
 2438ntf    cn115500   6.380   3.512   6.848 -0.5025 -0.1132  0.2313
 2438ntf    fn415501   6.609   3.521   6.386 -0.0487 -0.4848  0.3823
 2438ntf    fn415502   6.454   3.560   6.245  0.3154  0.1607  0.0789
 2438ntf    fn415503   6.520   3.707   6.386 -0.4650 -0.0204  0.3270
 2438ntf    on515504   6.237   3.531   6.408 -0.0513  0.4465 -0.2392
 2438ntf    on515505   6.398   3.384   6.521 -0.2876  0.0192  0.4750
 2438ntf    on515506   6.485   3.737   6.789  0.1812 -0.3322  0.6264
 2438ntf    on515507   6.595   3.542   6.696 -0.5311  0.2087 -0.2159
 2438ntf    fn415508   6.335   3.400   6.794 -0.1983 -0.0182 -0.2249
 2438ntf    fn415509   6.447   3.476   6.956 -0.2652 -0.4556 -0.0271
 2438ntf    fn415510   6.274   3.573   6.899 -0.5065 -0.0983  0.2055
 2439ntf    cn115511   4.397   0.448   6.049 -0.0516 -0.2193  0.1853
 2439ntf    sn215512   4.378   0.627   6.069  0.1291 -0.1983  0.1713
 2439ntf    nn315513   4.485   0.666   5.961  0.2193 -0.5921  0.1197
 2439ntf    sn215514   4.472   0.667   5.804 -0.2757 -0.3955  0.1605
 2439ntf    cn115515   4.471   0.844   5.764 -0.2190 -0.4642 -0.1417
 2439ntf    fn415516   4.523   0.413   6.029 -0.2942 -0.8204 -0.3367
 2439ntf    fn415517   4.363   0.380   6.157 -0.2485 -0.3779  0.0224
 2439ntf    fn415518   4.333   0.393   5.947 -0.1207  0.3395 -0.0740
 2439ntf    on515519   4.239   0.656   6.047  0.2090  0.0670  0.0084
 2439ntf    on515520   4.424   0.652   6.204 -0.1189 -0.0795  0.2352
 2439ntf    on515521   4.340   0.625   5.765 -0.4828 -0.0011  0.4265
 2439ntf    on515522   4.585   0.606   5.739 -0.3020  0.2766 -0.5247
 2439ntf    fn415523   4.413   0.917   5.857 -0.0115 -0.1688 -0.2425
 2439ntf    fn415524   4.593   0.891   5.746 -0.6816  0.5637 -0.7066
 2439ntf    fn415525   4.403   0.860   5.651  0.0062  0.3760 -0.1618
 2440ntf    cn115526   6.023   6.114   2.473  0.2808  0.1554 -0.1079
 2440ntf    sn215527   5.939   6.048   2.621  0.2899  0.2595 -0.0566
 2440ntf    nn315528   6.018   5.912   2.623  0.1564  0.1907  0.6025
 2440ntf    sn215529   5.976   5.761   2.614  0.1056  0.2431 -0.0588
 2440ntf    cn115530   6.124   5.697   2.529 -0.1373  0.0357 -0.3261
 2440ntf    fn415531   5.965   6.230   2.446  0.1444  0.1610  0.2019
 2440ntf    fn415532   6.150   6.136   2.503  0.2665 -0.0362  0.0955
 2440ntf    fn415533   6.011   6.032   2.370 -0.1267 -0.1032  0.1424
 2440ntf    on515534   5.960   6.141   2.729  0.2948  0.2874 -0.0814
 2440ntf    on515535   5.801   6.035   2.583  0.2755  0.9367 -0.2518
 2440ntf    on515536   5.876   5.731   2.515 -0.1663 -0.1291  0.3255
 2440ntf    on515537   5.981   5.698   2.743  0.1059 -0.1279 -0.2386
 2440ntf    fn415538   6.168   5.585   2.585 -0.0857 -0.0393 -0.5145
 2440ntf    fn415539   6.105   5.656   2.404 -0.1028  0.2688 -0.4087
 2440ntf    fn415540   6.227   5.778   2.539  0.4881 -0.7084 -0.6255
 2441ntf    cn115541   2.936   2.353   2.286  0.0547 -0.2521  0.0709
 2441ntf    sn215542   2.901   2.392   2.460  0.0035 -0.0805  0.0227
 2441ntf    nn315543   3.015   2.497   2.484 -0.1772  0.1290 -0.0276
 2441ntf    sn215544   3.171   2.482   2.494 -0.1589  0.2182 -0.1707
 2441ntf    cn115545   3.224   2.582   2.352  0.1134 -0.0263 -0.2418
 2441ntf    fn415546   2.917   2.463   2.214 -0.3471 -0.2322  0.2055
 2441ntf    fn415547   3.057   2.303   2.265  0.0158  0.1172 -1.0642
 2441ntf    fn415548   2.842   2.269   2.247 -0.1681 -0.0330  0.1352
 2441ntf    on515549   2.771   2.455   2.465 -0.3810 -0.8414 -0.1977
 2441ntf    on515550   2.910   2.264   2.527 -0.1904 -0.0499  0.1091
 2441ntf    on515551   3.227   2.351   2.472  0.2192  0.2427  0.5997
 2441ntf    on515552   3.221   2.554   2.609  0.0929 -0.4102  0.1204
 2441ntf    fn415553   3.206   2.709   2.384  0.7733  0.0343 -0.0999
 2441ntf    fn415554   3.354   2.565   2.329  0.1127 -0.5347  0.0984
 2441ntf    fn415555   3.152   2.562   2.243 -0.1008  0.5343 -0.2057
 2442ntf    cn115556   4.905   3.067   3.591  0.2918  0.1138  0.0181
 2442ntf    sn215557   5.063   2.993   3.538  0.3965  0.1516  0.2768
 2442ntf    nn315558   5.167   3.087   3.607  0.4910  0.1621  0.1199
 2442ntf    sn215559   5.188   3.099   3.762  0.2568 -0.1958  0.1790
 2442ntf    cn115560   5.146   3.275   3.780  0.1715 -0.2149  0.1652
 2442ntf    fn415561   4.894   3.072   3.722 -0.3255 -0.8580  0.0152
 2442ntf    fn415562   4.877   3.190   3.553 -0.1253 -0.2875 -1.0155
 2442ntf    fn415563   4.807   2.987   3.552  0.5624 -0.2853  0.1537
 2442ntf    on515564   5.068   2.853   3.571 -0.2268  0.0650  0.0197
 2442ntf    on515565   5.061   3.016   3.396  0.5713 -0.1600  0.2228
 2442ntf    on515566   5.327   3.090   3.801  0.3605 -0.4758 -0.2501
 2442ntf    on515567   5.099   3.027   3.850 -0.0859  0.3285  0.2607
 2442ntf    fn415568   5.122   3.306   3.906 -0.0548 -0.1612  0.1096
 2442ntf    fn415569   5.244   3.356   3.744 -0.1276 -0.0601 -0.3164
 2442ntf    fn415570   5.040   3.303   3.705  0.2646 -0.4543 -0.0594
 2443ntf    cn115571   1.747   4.445   4.340 -0.0015 -0.0697  0.1933
 2443ntf    sn215572   1.824   4.564   4.453  0.0409  0.0613  0.0249
 2443ntf    nn315573   1.779   4.704   4.396  0.0460  0.0549  0.0050
 2443ntf    sn215574   1.653   4.788   4.436  0.0752  0.0590  0.0896
 2443ntf    cn115575   1.721   4.888   4.572  0.1632  0.2895 -0.1245
 2443ntf    fn415576   1.616   4.456   4.332  0.0339  0.5492  0.4640
 2443ntf    fn415577   1.796   4.458   4.217 -0.2892 -0.0022  0.0863
 2443ntf    fn415578   1.773   4.318   4.367  1.0523  0.2094  0.5521
 2443ntf    on515579   1.774   4.534   4.585 -0.0995  0.5255  0.0813
 2443ntf    on515580   1.966   4.559   4.427  0.0399  0.2004 -0.0118
 2443ntf    on515581   1.540   4.716   4.490 -0.3366  0.5852 -0.0563
 2443ntf    on515582   1.623   4.882   4.331  0.5400  0.1176  0.0102
 2443ntf    fn415583   1.739   4.809   4.676 -0.4932  0.2980  0.0063
 2443ntf    fn415584   1.840   4.931   4.536  0.4458  0.0761  0.5466
 2443ntf    fn415585   1.642   4.986   4.614 -0.5439 -0.3847  0.1542
 2444ntf    cn115586   5.764   1.236   1.396  0.0174  0.1640 -0.3013
 2444ntf    sn215587   5.881   1.207   1.533 -0.0671  0.0774 -0.2473
 2444ntf    nn315588   6.018   1.229   1.460 -0.1644  0.1872 -0.4002
 2444ntf    sn215589   6.156   1.156   1.479 -0.2034  0.1661 -0.2042
 2444ntf    cn115590   6.147   1.007   1.374  0.1191  0.0799 -0.1097
 2444ntf    fn415591   5.777   1.143   1.303 -0.0940 -0.0691 -0.0886
 2444ntf    fn415592   5.639   1.220   1.437  0.0357 -0.2099 -0.3880
 2444ntf    fn415593   5.770   1.351   1.333 -0.3470  0.4209  0.1211
 2444ntf    on515594   5.838   1.313   1.621 -0.1850  0.0074 -0.2211
 2444ntf    on515595   5.841   1.076   1.577  0.2314 -0.0907 -0.4753
 2444ntf    on515596   6.176   1.102   1.612 -0.2708 -0.0336 -0.2741
 2444ntf    on515597   6.265   1.235   1.430 -0.0897  0.3987  0.4096
 2444ntf    fn415598   6.075   1.038   1.268 -0.4213 -0.3778  0.1234
 2444ntf    fn415599   6.261   0.959   1.327  0.1711  0.0160  0.0779
 2444ntf    fn415600   6.086   0.906   1.434 -0.0208  0.1807 -0.0808
 2445ntf    cn115601   0.322   0.228   1.809 -0.0298 -0.1254  0.4417
 2445ntf    sn215602   0.495   0.183   1.843 -0.0305 -0.4026  0.0787
 2445ntf    nn315603   0.566   0.280   1.742  0.4668 -0.6323  0.2041
 2445ntf    sn215604   0.703   0.357   1.748  0.0202  0.1779  0.1233
 2445ntf    cn115605   0.634   0.521   1.787 -0.0960  0.1112  0.1994
 2445ntf    fn415606   0.298   0.356   1.836  0.0424  0.1169 -0.6055
 2445ntf    fn415607   0.307   0.217   1.678  0.5378 -0.4172  0.3966
 2445ntf    fn415608   0.241   0.146   1.873 -0.2654 -0.1237  0.1461
 2445ntf    on515609   0.512   0.209   1.983 -0.3392  0.4668 -0.0408
 2445ntf    on515610   0.501   0.048   1.791 -0.3243  0.0258 -1.1069
 2445ntf    on515611   0.778   0.368   1.626 -0.3908  0.6142 -0.0945
 2445ntf    on515612   0.780   0.331   1.867 -0.3059 -0.3631  0.2209
 2445ntf    fn415613   0.542   0.552   1.698 -0.3228 -0.2870  0.2929
 2445ntf    fn415614   0.584   0.524   1.910 -0.2570  0.0447  0.1355
 2445ntf    fn415615   0.725   0.617   1.788  0.0656 -0.0394  0.1748
 2446ntf    cn115616   5.162   6.710   5.132 -0.4581  0.2622  0.0155
 2446ntf    sn215617   5.152   6.544   5.205 -0.7611  0.2390 -0.0800
 2446ntf    nn315618   5.015   6.491   5.149 -0.6691  0.3273 -0.3871
 2446ntf    sn215619   4.993   6.371   5.050  0.0168  0.0579 -0.2224
 2446ntf    cn115620   5.004   6.226   5.159  0.4016  0.1145 -0.1844
 2446ntf    fn415621   5.052   6.774   5.166 -0.2315  0.4021  0.4997
 2446ntf    fn415622   5.268   6.778   5.173 -0.2924  0.0133  0.0013
 2446ntf    fn415623   5.163   6.718   5.000  0.0468  0.1371  0.0081
 2446ntf    on515624   5.262   6.464   5.155 -0.5305  0.5372 -0.0500
 2446ntf    on515625   5.147   6.565   5.348  0.2697  0.1855 -0.0306
 2446ntf    on515626   5.091   6.353   4.947  0.5146  0.2016  0.2221
 2446ntf    on515627   4.858   6.373   4.998  0.0542 -0.4781 -0.3469
 2446ntf    fn415628   4.989   6.108   5.101 -0.1625 -0.1330  0.4481
 2446ntf    fn415629   5.125   6.229   5.212  0.3463  0.2167 -0.0616
 2446ntf    fn415630   4.918   6.230   5.260  0.6595  0.2173  0.0327
 2447ntf    cn115631   6.201   1.157   2.536  0.2145 -0.0138 -0.0617
 2447ntf    sn215632   6.287   1.087   2.392 -0.0807  0.2163 -0.3528
 2447ntf    nn315633   6.354   1.219   2.338 -0.0765  0.4311  0.1699
 2447ntf    sn215634   6.381   1.256   2.188  0.1956 -0.0878  0.0883
 2447ntf    cn115635   6.543   1.178   2.162  0.1247 -0.4346  0.6429
 2447ntf    fn415636   6.121   1.253   2.491 -0.1821 -0.1758  0.2906
 2447ntf    fn415637   6.138   1.066   2.608  0.1468  0.0167 -0.0827
 2447ntf    fn415638   6.283   1.225   2.615  0.0765  0.2545 -0.1474
 2447ntf    on515639   6.391   1.005   2.450 -0.5719 -0.0062  0.2219
 2447ntf    on515640   6.190   1.023   2.307 -0.5462 -0.0736  0.3882
 2447ntf    on515641   6.408   1.396   2.169  0.1907 -0.1142 -0.1147
 2447ntf    on515642   6.295   1.198   2.088  0.2532 -0.2113  0.1104
 2447ntf    fn415643   6.543   1.052   2.200 -0.1364 -0.5531  0.2547
 2447ntf    fn415644   6.575   1.169   2.033 -0.3009 -0.6982  0.5559
 2447ntf    fn415645   6.636   1.246   2.227 -0.1156  0.1406  0.3953
 2448ntf    cn115646   0.919   6.357   2.537  0.0738  0.4662  0.2916
 2448ntf    sn215647   0.771   6.454   2.576 -0.4721 -0.1656 -0.1851
 2448ntf    nn315648   0.723   6.355   2.688  0.3529 -0.5183 -0.1412
 2448ntf    sn215649   0.572   6.324   2.714  0.2571 -0.0230 -0.0862
 2448ntf    cn115650   0.544   6.202   2.582  0.0551 -0.1902  0.1112
 2448ntf    fn415651   1.012   6.385   2.627  0.5042 -0.6063  0.1987
 2448ntf    fn415652   0.902   6.225   2.540  0.4469  0.4137  0.1459
 2448ntf    fn415653   0.964   6.396   2.419 -0.0754 -0.1063  0.0390
 2448ntf    on515654   0.821   6.583   2.617 -0.3033 -0.2198 -0.2226
 2448ntf    on515655   0.699   6.453   2.451 -0.2629  0.2534 -0.3135
 2448ntf    on515656   0.471   6.424   2.690  0.0244 -0.1171  0.4725
 2448ntf    on515657   0.552   6.244   2.832  0.0263  0.0132 -0.0994
 2448ntf    fn415658   0.418   6.160   2.580  0.0963 -0.3098 -0.0701
 2448ntf    fn415659   0.563   6.253   2.461 -0.5653  0.2331  0.1872
 2448ntf    fn415660   0.615   6.090   2.590 -0.4294 -0.5387 -0.3863
 2449ntf    cn115661   1.980   6.298   1.268 -0.2299 -0.0277  0.0409
 2449ntf    sn215662   1.939   6.472   1.305  0.0291  0.1136 -0.3279
 2449ntf    nn315663   2.070   6.541   1.254 -0.0396  0.3390 -0.1985
 2449ntf    sn215664   2.194   6.565   1.347 -0.2216  0.1188  0.1022
 2449ntf    cn115665   2.175   6.741   1.384 -0.1573  0.1467  0.0004
 2449ntf    fn415666   2.092   6.268   1.332 -0.0445  0.7557  0.0999
 2449ntf    fn415667   1.898   6.214   1.328 -0.3405 -0.1040 -0.2193
 2449ntf    fn415668   1.987   6.269   1.139 -0.2571  0.0016  0.0328
 2449ntf    on515669   1.821   6.495   1.225 -0.2072 -0.1519 -0.0642
 2449ntf    on515670   1.913   6.468   1.447 -0.0694 -0.2715 -0.3551
 2449ntf    on515671   2.324   6.556   1.285  0.1905  0.2256  0.9392
 2449ntf    on515672   2.194   6.509   1.480  0.1465 -0.1905 -0.0219
 2449ntf    fn415673   2.158   6.816   1.276  0.0996  0.3226  0.0791
 2449ntf    fn415674   2.075   6.778   1.463 -0.1588 -0.4224  0.2650
 2449ntf    fn415675   2.289   6.782   1.438 -0.3689  0.2777  0.3519
 2450ntf    cn115676   2.716   3.165   0.067 -0.0815 -0.0996 -0.4191
 2450ntf    sn215677   2.829   3.289  -0.002 -0.0096  0.1147  0.0824
 2450ntf    nn315678   2.795   3.412   0.090  0.2753 -0.1310  0.5156
 2450ntf    sn215679   2.725   3.549   0.060  0.0868 -0.4175 -0.3832
 2450ntf    cn115680   2.803   3.655   0.186 -0.0946 -0.5513 -0.1571
 2450ntf    fn415681   2.752   3.140   0.191 -0.0314  0.1374 -0.3865
 2450ntf    fn415682   2.589   3.203   0.059 -0.0328  0.0685 -0.3853
 2450ntf    fn415683   2.725   3.051  -0.001  0.5196 -0.0243 -0.4728
 2450ntf    on515684   2.962   3.235   0.008 -0.2361 -0.4261  0.1913
 2450ntf    on515685   2.776   3.301  -0.136  0.5387 -0.0001 -0.1457
 2450ntf    on515686   2.586   3.566   0.096  0.2856  0.3903  0.0324
 2450ntf    on515687   2.759   3.612  -0.065  0.3380 -0.0611 -0.1358
 2450ntf    fn415688   2.934   3.656   0.170 -0.1276 -0.4059 -0.4244
 2450ntf    fn415689   2.761   3.780   0.189  0.3335 -0.3779 -0.9609
 2450ntf    fn415690   2.780   3.606   0.307 -0.1017  0.2295  0.1597
 2451ntf    cn115691   5.642   0.566   3.648  0.3280  0.3725  0.0928
 2451ntf    sn215692   5.490   0.549   3.745  0.3363  0.0324  0.0489
 2451ntf    nn315693   5.545   0.526   3.891 -0.0811  0.2029  0.2356
 2451ntf    sn215694   5.607   0.394   3.948 -0.0589  0.1167  0.0128
 2451ntf    cn115695   5.476   0.336   4.059 -0.2797  0.2230 -0.1908
 2451ntf    fn415696   5.727   0.650   3.705  0.0756  0.3959  0.4344
 2451ntf    fn415697   5.710   0.453   3.633 -0.4161 -0.0564 -0.0851
 2451ntf    fn415698   5.619   0.612   3.526  0.5511  0.2906  0.0186
 2451ntf    on515699   5.433   0.682   3.740  0.5097  0.0959 -0.2438
 2451ntf    on515700   5.413   0.447   3.679 -0.4112  0.3354  0.4341
 2451ntf    on515701   5.720   0.401   4.037  0.0256  0.1822 -0.0991
 2451ntf    on515702   5.609   0.284   3.855  0.3359  0.1133  0.0228
 2451ntf    fn415703   5.498   0.211   4.099 -0.0520  0.4904  0.5404
 2451ntf    fn415704   5.465   0.409   4.169  0.0654  0.5062 -0.3445
 2451ntf    fn415705   5.358   0.341   3.999 -0.3457 -0.0836 -0.0917
 2452ntf    cn115706   6.369   2.209   3.648 -0.1092 -0.1465 -0.1908
 2452ntf    sn215707   6.216   2.175   3.740 -0.0933  0.0073 -0.1079
 2452ntf    nn315708   6.198   2.319   3.801  0.4222 -0.0156  0.1114
 2452ntf    sn215709   6.220   2.381   3.943 -0.0516 -0.1599  0.2498
 2452ntf    cn115710   6.384   2.453   3.914 -0.2883  0.1595 -0.3126
 2452ntf    fn415711   6.471   2.236   3.727  0.5277 -0.3240 -0.9350
 2452ntf    fn415712   6.411   2.112   3.568  0.5373 -0.1374  0.1314
 2452ntf    fn415713   6.352   2.312   3.567 -0.0358  0.1162  0.1265
 2452ntf    on515714   6.126   2.137   3.635 -0.2092 -0.1594  0.0516
 2452ntf    on515715   6.250   2.068   3.830  0.4238  0.1476 -0.1330
 2452ntf    on515716   6.240   2.291   4.054 -0.6115 -0.2136  0.3110
 2452ntf    on515717   6.143   2.500   3.970 -0.0807 -0.1415  0.0839
 2452ntf    fn415718   6.394   2.531   3.808 -0.2166  0.0893 -0.3579
 2452ntf    fn415719   6.429   2.521   4.018 -0.3023 -0.2995 -0.0025
 2452ntf    fn415720   6.481   2.365   3.894  0.0104  0.3827  0.1344
 2453ntf    cn115721   4.468   2.364   6.358 -0.1897 -0.3293 -0.2531
 2453ntf    sn215722   4.394   2.290   6.507 -0.2832 -0.0763 -0.1719
 2453ntf    nn315723   4.492   2.169   6.526 -0.3937 -0.0910  0.3106
 2453ntf    sn215724   4.612   2.166   6.627 -0.2413  0.1226  0.1364
 2453ntf    cn115725   4.534   2.189   6.790 -0.2694  0.0265  0.1364
 2453ntf    fn415726   4.494   2.273   6.266 -0.3834 -0.5182 -0.1225
 2453ntf    fn415727   4.406   2.468   6.303  0.4690  0.0679 -0.2622
 2453ntf    fn415728   4.588   2.404   6.396 -0.2021 -0.5923  0.0620
 2453ntf    on515729   4.396   2.403   6.597  0.2848  0.0789 -0.3744
 2453ntf    on515730   4.265   2.241   6.467 -0.0409 -0.5168 -0.4234
 2453ntf    on515731   4.712   2.270   6.618 -0.6625  0.5572  0.3943
 2453ntf    on515732   4.651   2.029   6.649 -0.2333  0.1141  0.0663
 2453ntf    fn415733   4.437   2.101   6.807 -0.1184 -0.1502  0.0777
 2453ntf    fn415734   4.621   2.164   6.886  0.2107 -0.2139 -0.3583
 2453ntf    fn415735   4.475   2.302   6.825  0.2239  0.1772  0.5002
 2454ntf    cn115736   2.689   1.975   3.608 -0.2905  0.1304 -0.0784
 2454ntf    sn215737   2.627   1.965   3.779 -0.1764 -0.1004 -0.0496
 2454ntf    nn315738   2.694   1.831   3.828 -0.0930  0.1728  0.5885
 2454ntf    sn215739   2.645   1.683   3.842 -0.0809  0.1072 -0.0339
 2454ntf    cn115740   2.770   1.607   3.735 -0.0850  0.1176 -0.0462
 2454ntf    fn415741   2.634   1.883   3.532  0.2022 -0.1749 -0.0738
 2454ntf    fn415742   2.673   2.095   3.555  0.2830  0.1834 -0.1379
 2454ntf    fn415743   2.818   1.947   3.598 -0.2028  0.2219  0.6630
 2454ntf    on515744   2.685   2.081   3.841 -0.2958 -0.2238  0.2929
 2454ntf    on515745   2.483   1.959   3.773 -0.1843  0.1219 -0.1064
 2454ntf    on515746   2.523   1.647   3.775  0.4287 -0.5752 -0.6094
 2454ntf    on515747   2.662   1.633   3.977  0.0176 -0.4103 -0.2338
 2454ntf    fn415748   2.740   1.483   3.699 -0.0129  0.1761 -0.3136
 2454ntf    fn415749   2.791   1.676   3.624 -0.5417  0.3353  0.0041
 2454ntf    fn415750   2.883   1.594   3.803 -0.1842  0.2190  0.1383
 2455ntf    cn115751   1.376   2.212   5.473 -0.2853  0.0505 -0.0467
 2455ntf    sn215752   1.278   2.352   5.411  0.1270  0.2949 -0.1502
 2455ntf    nn315753   1.235   2.415   5.549 -0.1727 -0.4862  0.1247
 2455ntf    sn215754   1.099   2.403   5.625 -0.3385 -0.0187 -0.0940
 2455ntf    cn115755   1.165   2.366   5.790  0.0343 -0.0354 -0.2471
 2455ntf    fn415756   1.308   2.126   5.548  0.2195 -0.4239 -0.1234
 2455ntf    fn415757   1.411   2.144   5.365  0.2609  0.1902  0.0430
 2455ntf    fn415758   1.480   2.240   5.549  0.2398  0.2280 -0.8270
 2455ntf    on515759   1.381   2.429   5.346  0.2834 -0.1218 -0.3983
 2455ntf    on515760   1.171   2.298   5.330 -0.2070  0.3984  0.2161
 2455ntf    on515761   1.014   2.292   5.589 -0.2218  0.1629 -0.9520
 2455ntf    on515762   1.043   2.535   5.642 -0.3731 -0.0304 -0.1154
 2455ntf    fn415763   1.211   2.242   5.801  0.2308  0.0958  0.4697
 2455ntf    fn415764   1.259   2.449   5.834 -0.2455 -0.0957  0.4740
 2455ntf    fn415765   1.072   2.366   5.883 -0.0046 -0.1534 -0.2860
 2456ntf    cn115766   4.523   0.678   0.760  0.1501 -0.2477  0.2467
 2456ntf    sn215767   4.592   0.567   0.887 -0.0623 -0.0310  0.5542
 2456ntf    nn315768   4.731   0.638   0.905  0.1246 -0.3290  0.3074
 2456ntf    sn215769   4.875   0.588   0.866  0.0324 -0.3350 -0.0276
 2456ntf    cn115770   4.931   0.536   1.031 -0.0438  0.0873  0.1335
 2456ntf    fn415771   4.567   0.653   0.638  0.1565 -0.3079  0.2610
 2456ntf    fn415772   4.391   0.672   0.757  0.1377  0.0749  0.1534
 2456ntf    fn415773   4.549   0.804   0.790 -0.3675 -0.0106 -0.2780
 2456ntf    on515774   4.498   0.588   0.993 -0.2024  0.0598  0.4120
 2456ntf    on515775   4.604   0.437   0.825  0.4931  0.3080 -0.0674
 2456ntf    on515776   4.963   0.699   0.840  0.2917 -0.5818 -0.2068
 2456ntf    on515777   4.891   0.471   0.784 -0.0736 -0.3967  0.0398
 2456ntf    fn415778   4.846   0.458   1.097  0.4877 -0.0553  0.6604
 2456ntf    fn415779   5.041   0.463   1.029 -0.0345  0.0981  0.2935
 2456ntf    fn415780   4.956   0.642   1.107  0.4746  0.3250 -0.3633
 2457ntf    cn115781   6.563   1.694   3.050  0.1344  0.0386 -0.4062
 2457ntf    sn215782   6.697   1.776   3.142  0.1010 -0.1367 -0.2012
 2457ntf    nn315783   6.796   1.807   3.024  0.0169  0.0767 -0.2183
 2457ntf    sn215784   6.953   1.797   3.025 -0.0063 -0.2801  0.1223
 2457ntf    cn115785   6.980   1.623   2.981 -0.1439 -0.2830  0.0478
 2457ntf    fn415786   6.514   1.772   2.955 -0.2731  0.5701  0.2256
 2457ntf    fn415787   6.608   1.577   3.008  0.0642 -0.1251 -0.0268
 2457ntf    fn415788   6.460   1.665   3.127  0.3617 -0.0632 -0.1394
 2457ntf    on515789   6.634   1.900   3.181 -0.0231 -0.1675 -0.3050
 2457ntf    on515790   6.739   1.677   3.238  0.6485  0.2873  0.0073
 2457ntf    on515791   7.009   1.824   3.155  0.2227  0.3279 -0.0999
 2457ntf    on515792   7.008   1.873   2.916 -0.7686 -0.0374 -0.1014
 2457ntf    fn415793   6.931   1.591   2.863  0.3644 -0.0134 -0.2406
 2457ntf    fn415794   7.107   1.587   2.977 -0.1234 -0.1832 -0.2090
 2457ntf    fn415795   6.922   1.539   3.066 -0.3223 -0.0215  0.1842
 2458ntf    cn115796   4.339   0.254   2.622 -0.0168  0.3101  0.2262
 2458ntf    sn215797   4.380   0.362   2.481 -0.0820  0.1072  0.0522
 2458ntf    nn315798   4.485   0.451   2.556 -0.4338  0.0128  0.6649
 2458ntf    sn215799   4.486   0.599   2.609 -0.1191  0.1613  0.2430
 2458ntf    cn115800   4.563   0.594   2.773 -0.0435  0.2592  0.2114
 2458ntf    fn415801   4.280   0.317   2.722 -0.3177  0.4508 -0.0384
 2458ntf    fn415802   4.256   0.156   2.590  0.3711  0.0033  0.1550
 2458ntf    fn415803   4.444   0.186   2.665 -0.3181 -0.1003  0.3062
 2458ntf    on515804   4.440   0.275   2.383  0.1125  0.6986 -0.3599
 2458ntf    on515805   4.267   0.433   2.426  0.1270  0.0564 -0.4467
 2458ntf    on515806   4.353   0.645   2.637 -0.3800 -0.0859 -0.5543
 2458ntf    on515807   4.571   0.678   2.524  0.7335  0.1830  1.0986
 2458ntf    fn415808   4.692   0.565   2.781 -0.1647 -0.2846  0.2766
 2458ntf    fn415809   4.555   0.713   2.830  0.2128  0.3586  0.0408
 2458ntf    fn415810   4.496   0.513   2.854  0.1566 -0.2407 -0.1178
 2459ntf    cn115811   3.004   4.765   3.946 -0.4242  0.1112 -0.0002
 2459ntf    sn215812   2.995   4.742   4.126 -0.3312 -0.5626 -0.0787
 2459ntf    nn315813   3.040   4.593   4.144 -0.4104 -0.6173 -0.3303
 2459ntf    sn215814   3.179   4.542   4.196 -0.2607  0.1295  0.0198
 2459ntf    cn115815   3.159   4.380   4.116 -0.1395  0.1505 -0.0532
 2459ntf    fn415816   2.957   4.885   3.913 -0.2295  0.2024  0.0549
 2459ntf    fn415817   3.128   4.756   3.900 -0.1085  0.2685  0.8095
 2459ntf    fn415818   2.928   4.679   3.879 -0.0984 -0.4022  0.2837
 2459ntf    on515819   3.090   4.844   4.163 -0.4699 -0.2951 -0.4507
 2459ntf    on515820   2.857   4.764   4.162 -0.1723  0.8413 -0.2455
 2459ntf    on515821   3.184   4.511   4.337  0.2918 -0.1568 -0.0608
 2459ntf    on515822   3.291   4.595   4.122 -0.5309  0.0698 -0.4406
 2459ntf    fn415823   3.270   4.308   4.110 -0.1869  0.0295  0.4801
 2459ntf    fn415824   3.072   4.299   4.175 -0.0711  0.1558  0.0539
 2459ntf    fn415825   3.119   4.393   3.990  0.1301 -0.0508 -0.1630
 2460ntf    cn115826   5.623   0.469   4.958  0.3403  0.1816  0.0379
 2460ntf    sn215827   5.673   0.604   5.068  0.0996  0.1198  0.2235
 2460ntf    nn315828   5.830   0.595   5.059  0.0686  0.0507 -0.2743
 2460ntf    sn215829   5.927   0.507   5.145 -0.0357  0.2745  0.0789
 2460ntf    cn115830   6.047   0.462   5.016 -0.1380  0.0076  0.0755
 2460ntf    fn415831   5.654   0.349   5.004  0.3578 -0.0747 -0.6289
 2460ntf    fn415832   5.492   0.466   4.938  0.4357  0.0609 -0.5912
 2460ntf    fn415833   5.674   0.482   4.837 -0.0350  0.1127 -0.1286
 2460ntf    on515834   5.639   0.729   5.003  0.4684  0.1945  0.1696
 2460ntf    on515835   5.611   0.577   5.196  0.0930  0.3793  0.2765
 2460ntf    on515836   5.882   0.374   5.181  0.2038  0.1261 -0.1642
 2460ntf    on515837   6.001   0.571   5.250  0.2075 -0.4138  0.3379
 2460ntf    fn415838   6.014   0.354   4.947  0.1710  0.0491 -0.1406
 2460ntf    fn415839   6.057   0.559   4.927 -0.5090 -0.2861 -0.2924
 2460ntf    fn415840   6.169   0.439   5.062 -0.0372  0.0746 -0.1557
 2461ntf    cn115841   4.979   0.300   5.066 -0.2209  0.0833 -0.0084
 2461ntf    sn215842   4.959   0.426   5.196  0.1503  0.0729  0.0593
 2461ntf    nn315843   5.107   0.453   5.240  0.1944 -0.2388  0.1107
 2461ntf    sn215844   5.144   0.526   5.374 -0.0508 -0.0419  0.0727
 2461ntf    cn115845   5.175   0.377   5.473  0.1808  0.1923  0.3555
 2461ntf    fn415846   5.056   0.199   5.104 -0.8368 -0.4528 -0.1581
 2461ntf    fn415847   4.864   0.243   5.031 -0.0440  0.0665 -0.5551
 2461ntf    fn415848   5.022   0.355   4.954 -0.7275  0.7314  0.1110
 2461ntf    on515849   4.908   0.539   5.123 -0.0928  0.0739  0.2325
 2461ntf    on515850   4.873   0.351   5.285 -0.2373  0.3470 -0.0816
 2461ntf    on515851   5.036   0.593   5.441 -0.3606 -0.4122 -0.0501
 2461ntf    on515852   5.274   0.590   5.377 -0.1385  0.1074  0.6235
 2461ntf    fn415853   5.254   0.399   5.577  0.4651 -0.8638  0.3830
 2461ntf    fn415854   5.064   0.326   5.523  0.1406 -0.1345 -0.0586
 2461ntf    fn415855   5.236   0.287   5.397 -0.5934 -0.2573  0.2509
 2462ntf    cn115856   6.312   2.783   5.276 -0.1377  0.5496  0.2483
 2462ntf    sn215857   6.429   2.787   5.136 -0.4286  0.4000  0.0014
 2462ntf    nn315858   6.327   2.759   5.020 -0.4520  0.1942  0.0692
 2462ntf    sn215859   6.344   2.812   4.873  0.0891  0.3627  0.1886
 2462ntf    cn115860   6.248   2.966   4.880 -0.4925  0.0410 -0.4594
 2462ntf    fn415861   6.239   2.674   5.271  0.5944  0.0566  0.1799
 2462ntf    fn415862   6.376   2.796   5.391 -0.2330  0.3591  0.3227
 2462ntf    fn415863   6.226   2.883   5.273 -0.4709  0.2602  0.1787
 2462ntf    on515864   6.481   2.921   5.138  0.2776  0.1308 -0.1676
 2462ntf    on515865   6.518   2.675   5.149 -0.4830  0.2399 -0.9795
 2462ntf    on515866   6.265   2.727   4.786  0.1602  0.2993  0.1852
 2462ntf    on515867   6.474   2.857   4.832  0.1402  0.1083  0.0659
 2462ntf    fn415868   6.265   3.033   4.767 -0.3256  0.3349 -0.2606
 2462ntf    fn415869   6.119   2.946   4.901 -0.3989 -0.0950 -0.0003
 2462ntf    fn415870   6.284   3.048   4.977 -0.5019 -0.4729 -0.0156
 2463ntf    cn115871   4.770   0.931   1.973 -0.0949  0.5563  0.5833
 2463ntf    sn215872   4.719   0.971   1.803 -0.2202 -0.1557  0.4489
 2463ntf    nn315873   4.639   0.841   1.768  0.2054 -0.2944 -0.0166
 2463ntf    sn215874   4.486   0.810   1.778  0.1461  0.0259  0.0647
 2463ntf    cn115875   4.430   0.828   1.605  0.2018 -0.0853  0.0355
 2463ntf    fn415876   4.845   0.822   1.970 -0.0673  0.5958 -0.7283
 2463ntf    fn415877   4.855   1.023   2.015  0.3781  0.3303  0.1178
 2463ntf    fn415878   4.673   0.910   2.061 -0.0614 -0.8862  0.3072
 2463ntf    on515879   4.641   1.093   1.802 -0.6305 -0.4212 -0.1311
 2463ntf    on515880   4.846   0.984   1.736 -0.3278 -0.4705  0.1860
 2463ntf    on515881   4.414   0.903   1.862  0.2287 -0.0245  0.1913
 2463ntf    on515882   4.461   0.670   1.799 -0.6548  0.1930  0.2643
 2463ntf    fn415883   4.301   0.798   1.599  0.1316  0.3059 -0.4117
 2463ntf    fn415884   4.437   0.953   1.564 -0.6108 -0.1447 -0.2911
 2463ntf    fn415885   4.483   0.748   1.514  0.4384 -0.4795  0.5099
 2464ntf    cn115886   6.345   0.186   3.558  0.1661 -0.1495  0.2451
 2464ntf    sn215887   6.307   0.021   3.491 -0.0229  0.1090 -0.2966
 2464ntf    nn315888   6.400  -0.072   3.578 -0.6717  0.0841  0.3868
 2464ntf    sn215889   6.371  -0.213   3.640  0.1531 -0.3420 -0.1695
 2464ntf    cn115890   6.523  -0.303   3.598  0.3575  0.0433 -0.2607
 2464ntf    fn415891   6.471   0.222   3.544 -0.0010  0.1059 -0.6963
 2464ntf    fn415892   6.282   0.284   3.495 -0.0004 -0.0296  0.5939
 2464ntf    fn415893   6.317   0.203   3.686  0.1456  0.2461  0.1899
 2464ntf    on515894   6.166   0.007   3.514 -0.0107 -0.0432 -0.3135
 2464ntf    on515895   6.350   0.022   3.354  0.7403  0.2960 -0.0657
 2464ntf    on515896   6.270  -0.295   3.579  0.0397  0.1778 -0.6846
 2464ntf    on515897   6.367  -0.195   3.783  0.2671 -0.1734 -0.1879
 2464ntf    fn415898   6.579  -0.270   3.483  0.1064 -0.1609 -0.4407
 2464ntf    fn415899   6.616  -0.275   3.689 -0.4042  0.7772  0.3025
 2464ntf    fn415900   6.528  -0.435   3.609 -0.2177  0.0870  0.6838
 2465ntf    cn115901   1.262   3.256   5.812 -0.5306  0.3957  0.1539
 2465ntf    sn215902   1.225   3.081   5.844  0.0979  0.2041 -0.1672
 2465ntf    nn315903   1.340   3.055   5.948  0.3691  0.3208 -0.4330
 2465ntf    sn215904   1.487   3.010   5.916  0.2857 -0.3494  0.0805
 2465ntf    cn115905   1.569   3.161   5.977 -0.1514 -0.1044  0.0718
 2465ntf    fn415906   1.374   3.261   5.743 -0.4539  0.4238  0.2797
 2465ntf    fn415907   1.171   3.318   5.738 -0.6178  0.2326  0.1243
 2465ntf    fn415908   1.275   3.335   5.918  0.2180 -0.1224  0.4547
 2465ntf    on515909   1.100   3.084   5.915  0.0836 -0.3908 -0.1650
 2465ntf    on515910   1.234   3.017   5.714  0.1924 -0.2379  0.0557
 2465ntf    on515911   1.534   3.004   5.779 -0.1389 -0.4936 -0.0596
 2465ntf    on515912   1.535   2.909   6.006 -0.0858 -0.5223  0.0879
 2465ntf    fn415913   1.524   3.278   5.936  0.2860  0.1019  0.1753
 2465ntf    fn415914   1.572   3.166   6.109  0.2141  0.0056  0.0619
 2465ntf    fn415915   1.695   3.162   5.935 -0.2976  0.0520 -0.3704
 2466ntf    cn115916   3.148   2.158   0.089 -0.0057 -0.1172 -0.2147
 2466ntf    sn215917   3.057   2.230   0.228 -0.0930 -0.2607 -0.1969
 2466ntf    nn315918   3.155   2.349   0.257 -0.4298 -0.1822  0.6583
 2466ntf    sn215919   3.124   2.499   0.292 -0.1623  0.0188  0.0527
 2466ntf    cn115920   3.252   2.536   0.415 -0.1367 -0.2781  0.1168
 2466ntf    fn415921   3.278   2.145   0.109 -0.1938 -1.0985  0.4327
 2466ntf    fn415922   3.102   2.038   0.054 -0.6165 -0.2910  1.1350
 2466ntf    fn415923   3.151   2.237  -0.017  0.1647  0.3158  0.1118
 2466ntf    on515924   2.931   2.271   0.172 -0.0382 -0.0933 -0.1995
 2466ntf    on515925   3.059   2.121   0.322  0.0290 -0.3533 -0.3078
 2466ntf    on515926   3.002   2.528   0.364 -0.3264  0.3576 -0.3551
 2466ntf    on515927   3.163   2.589   0.187 -0.2554  0.7691  0.6517
 2466ntf    fn415928   3.241   2.475   0.532  0.2842  0.1747  0.4035
 2466ntf    fn415929   3.376   2.503   0.381 -0.1351 -0.2720  0.1165
 2466ntf    fn415930   3.245   2.664   0.449 -0.2473 -0.2992  0.1715
 2467ntf    cn115931   6.580   3.453   3.822 -0.3230  0.0486 -0.0318
 2467ntf    sn215932   6.610   3.547   3.670 -0.1546  0.1914  0.0891
 2467ntf    nn315933   6.734   3.633   3.715  0.2526 -0.3753  0.0622
 2467ntf    sn215934   6.853   3.693   3.632  0.0170  0.1742  0.1168
 2467ntf    cn115935   6.982   3.572   3.674 -0.2038 -0.2483 -0.4089
 2467ntf    fn415936   6.682   3.385   3.871 -0.2999  0.2057  0.1441
 2467ntf    fn415937   6.534   3.524   3.924  0.0629  0.0905  0.1153
 2467ntf    fn415938   6.491   3.358   3.801  0.3054 -0.5447 -0.0393
 2467ntf    on515939   6.649   3.444   3.577 -0.1680 -0.2034  0.5190
 2467ntf    on515940   6.490   3.624   3.651 -0.3438 -0.0042  0.5006
 2467ntf    on515941   6.906   3.820   3.674  0.1810  0.2249 -0.2420
 2467ntf    on515942   6.851   3.675   3.489  0.1397 -0.2163  0.1638
 2467ntf    fn415943   7.105   3.615   3.654 -0.5594  0.9045 -0.1867
 2467ntf    fn415944   6.970   3.536   3.801 -0.4789 -0.0883 -0.3872
 2467ntf    fn415945   6.973   3.458   3.607 -0.1221 -0.2008 -0.4999
 2468ntf    cn115946   0.432   2.062   2.450  0.0110 -0.2237  0.0888
 2468ntf    sn215947   0.541   1.935   2.521  0.2358 -0.1345 -0.0952
 2468ntf    nn315948   0.448   1.835   2.598  0.5132 -0.2747  0.0569
 2468ntf    sn215949   0.400   1.694   2.549 -0.0047 -0.1111  0.0899
 2468ntf    cn115950   0.270   1.670   2.673  0.0708 -0.1675  0.1583
 2468ntf    fn415951   0.364   2.005   2.352 -0.0817  0.2345 -0.1194
 2468ntf    fn415952   0.345   2.105   2.540 -0.2562 -0.2284 -0.1670
 2468ntf    fn415953   0.494   2.170   2.406 -0.6521  0.0891 -0.0963
 2468ntf    on515954   0.615   1.882   2.409  0.0249 -0.1388 -0.2327
 2468ntf    on515955   0.622   2.006   2.617  0.2791  0.1622 -0.3490
 2468ntf    on515956   0.495   1.590   2.581  0.1182  0.0092  0.1176
 2468ntf    on515957   0.333   1.702   2.421 -0.1783  0.4649  0.2146
 2468ntf    fn415958   0.231   1.543   2.674  0.7467 -0.3816 -0.0376
 2468ntf    fn415959   0.311   1.702   2.794 -0.2754 -0.0020  0.2326
 2468ntf    fn415960   0.162   1.742   2.648  0.4643  0.5577  0.5256
 2469ntf    cn115961   4.043   6.622   3.362  0.0149 -0.4940  0.0785
 2469ntf    sn215962   4.130   6.683   3.214 -0.1440 -0.4206  0.0144
 2469ntf    nn315963   4.036   6.798   3.162 -0.0499 -0.2182  0.2863
 2469ntf    sn215964   3.939   6.800   3.038  0.2572 -0.0140  0.0491
 2469ntf    cn115965   4.060   6.879   2.927  0.2833  0.1834  0.2157
 2469ntf    fn415966   4.113   6.520   3.410  0.5700 -0.3605 -0.4409
 2469ntf    fn415967   4.027   6.712   3.457 -0.0365 -0.2706 -0.1399
 2469ntf    fn415968   3.922   6.579   3.331 -0.2206 -0.1564  0.5165
 2469ntf    on515969   4.262   6.717   3.259  0.2446 -0.6052 -0.9700
 2469ntf    on515970   4.116   6.565   3.133  0.0300 -0.4500  0.0271
 2469ntf    on515971   3.831   6.894   3.055 -0.2425 -0.3939 -0.9843
 2469ntf    on515972   3.903   6.673   2.981 -0.6741  0.2153  0.1094
 2469ntf    fn415973   4.029   6.869   2.799  0.5134 -0.1016  0.1809
 2469ntf    fn415974   4.065   7.010   2.943 -0.1620  0.2236  0.0348
 2469ntf    fn415975   4.183   6.831   2.937  0.0332 -0.4987  0.0597
 2470ntf    cn115976   6.223   2.429   2.399  0.3810 -0.0766 -0.2839
 2470ntf    sn215977   6.057   2.362   2.427  0.2284  0.4802  0.1700
 2470ntf    nn315978   6.060   2.347   2.583  0.2674 -0.6168  0.0684
 2470ntf    sn215979   6.010   2.425   2.709  0.1312 -0.0008 -0.3643
 2470ntf    cn115980   6.160   2.427   2.811 -0.1050  0.0163 -0.0117
 2470ntf    fn415981   6.233   2.546   2.460  0.0464 -0.2730  0.1498
 2470ntf    fn415982   6.319   2.350   2.445  0.2270 -0.1403 -0.0674
 2470ntf    fn415983   6.241   2.450   2.270  0.1646 -0.2134 -0.3369
 2470ntf    on515984   5.975   2.470   2.376 -0.6550 -0.3542 -0.2229
 2470ntf    on515985   6.051   2.235   2.359 -0.4998  0.4102  0.3550
 2470ntf    on515986   5.925   2.339   2.787 -0.0825  0.2957 -0.2677
 2470ntf    on515987   5.970   2.563   2.693 -0.7334 -0.1891  0.0811
 2470ntf    fn415988   6.263   2.485   2.751 -0.1407 -0.1753 -0.2633
 2470ntf    fn415989   6.147   2.490   2.926 -0.1148 -0.3613  0.1944
 2470ntf    fn415990   6.208   2.306   2.836 -0.2405  0.0002  0.1685
 2471ntf    cn115991   1.729   2.492   2.292  0.3385  0.2813  0.1219
 2471ntf    sn215992   1.573   2.455   2.378  0.4519  0.1428  0.2685
 2471ntf    nn315993   1.613   2.434   2.529 -0.0679 -0.4147  0.3285
 2471ntf    sn215994   1.616   2.544   2.641 -0.1758  0.2471 -0.3068
 2471ntf    cn115995   1.466   2.502   2.735 -0.1939  0.1538 -0.3768
 2471ntf    fn415996   1.712   2.546   2.172 -0.1298  0.1754  0.1390
 2471ntf    fn415997   1.809   2.567   2.366  0.1368 -0.1540  0.7945
 2471ntf    fn415998   1.800   2.382   2.273 -0.2095 -0.1346  0.4635
 2471ntf    on515999   1.491   2.568   2.342 -0.0079  0.0233  0.9243
 2471ntf    on516000   1.529   2.334   2.313 -0.1503  0.4586  0.0829
 2471ntf    on516001   1.590   2.681   2.607  0.0532  0.2386 -0.5237
 2471ntf    on516002   1.724   2.521   2.733 -0.3030 -0.5476 -0.3485
 2471ntf    fn416003   1.354   2.505   2.665 -0.2957  0.2415 -0.2114
 2471ntf    fn416004   1.470   2.384   2.795 -0.0467  0.1829 -0.3279
 2471ntf    fn416005   1.448   2.598   2.825 -0.7043 -0.0038 -0.3060
 2472ntf    cn116006   3.769   3.259   1.871  0.0237 -0.1536  0.1369
 2472ntf    sn216007   3.824   3.431   1.892 -0.1410 -0.1101  0.2118
 2472ntf    nn316008   3.857   3.441   2.045  0.5428 -0.1449  0.0693
 2472ntf    sn216009   3.845   3.567   2.139 -0.0863 -0.1020 -0.0653
 2472ntf    cn116010   3.670   3.540   2.183 -0.0734 -0.2803 -0.1225
 2472ntf    fn416011   3.660   3.236   1.944 -0.1530 -0.4661 -0.2206
 2472ntf    fn416012   3.741   3.222   1.748  0.3877  0.0231  0.0004
 2472ntf    fn416013   3.856   3.170   1.916  0.0200 -0.4702 -0.4750
 2472ntf    on516014   3.939   3.445   1.806 -0.3900 -0.6969 -0.2216
 2472ntf    on516015   3.709   3.503   1.843  0.3298  0.2227 -0.4163
 2472ntf    on516016   3.861   3.699   2.084  0.4826 -0.1196  0.0544
 2472ntf    on516017   3.913   3.544   2.264  0.1757 -0.6618 -0.3027
 2472ntf    fn416018   3.594   3.521   2.076  0.3822  0.2023 -0.5366
 2472ntf    fn416019   3.655   3.429   2.253 -0.1733 -0.1595  0.0445
 2472ntf    fn416020   3.635   3.644   2.256  0.0426 -0.1294 -0.2809
 2473ntf    cn116021   2.371   3.840   5.999 -0.2285 -0.0853 -0.1888
 2473ntf    sn216022   2.374   3.670   6.062  0.3133 -0.0561 -0.1305
 2473ntf    nn316023   2.530   3.649   6.064  0.3016 -0.1266  0.0720
 2473ntf    sn216024   2.618   3.564   5.967 -0.0713 -0.3134 -0.1024
 2473ntf    cn116025   2.740   3.686   5.910 -0.6820  0.3031 -0.0919
 2473ntf    fn416026   2.441   3.844   5.887 -0.3342  0.3742 -0.2426
 2473ntf    fn416027   2.249   3.874   5.961 -0.3932 -0.5730 -0.0970
 2473ntf    fn416028   2.426   3.933   6.076 -0.0912 -0.3655  0.0516
 2473ntf    on516029   2.322   3.669   6.196 -0.1169  0.4657 -0.2919
 2473ntf    on516030   2.304   3.600   5.957 -0.3217  0.1534  0.1486
 2473ntf    on516031   2.554   3.513   5.848 -0.4996  0.2778 -0.1279
 2473ntf    on516032   2.702   3.477   6.046  0.2765  0.2539  0.1510
 2473ntf    fn416033   2.837   3.634   5.837 -0.4625  0.3290  0.1804
 2473ntf    fn416034   2.687   3.784   5.838  0.0131  0.7147 -0.0505
 2473ntf    fn416035   2.798   3.742   6.015  0.1994  0.4611 -0.6529
 2474ntf    cn116036   2.508   6.652   5.164 -0.2475  0.0080 -0.3707
 2474ntf    sn216037   2.632   6.723   5.275 -0.1492 -0.3128 -0.2727
 2474ntf    nn316038   2.747   6.760   5.174  0.1374  0.7136  0.4001
 2474ntf    sn216039   2.881   6.688   5.136 -0.3201  0.0907 -0.0732
 2474ntf    cn116040   2.888   6.719   4.956  0.2667  0.2222 -0.0318
 2474ntf    fn416041   2.427   6.569   5.227  0.0753 -0.2139 -0.2432
 2474ntf    fn416042   2.439   6.743   5.097 -0.0590  0.3316 -0.1233
 2474ntf    fn416043   2.562   6.580   5.066 -0.2701 -0.3338 -0.1332
 2474ntf    on516044   2.555   6.836   5.322  0.2879 -0.2278  0.2575
 2474ntf    on516045   2.662   6.618   5.369  0.3304  0.3046  0.2784
 2474ntf    on516046   2.884   6.545   5.151 -0.8735  0.1622  0.7779
 2474ntf    on516047   2.997   6.754   5.190 -0.0967 -0.0952 -0.3227
 2474ntf    fn416048   2.770   6.702   4.898 -0.0507  0.2967  0.5804
 2474ntf    fn416049   2.938   6.837   4.925  1.0160 -0.1349 -0.2152
 2474ntf    fn416050   2.963   6.629   4.895 -0.0768 -0.0687 -0.0270
 2475ntf    cn116051   4.018   2.375   5.269 -0.0154 -0.1158  0.1228
 2475ntf    sn216052   3.961   2.364   5.097 -0.2116  0.4084  0.1499
 2475ntf    nn316053   4.096   2.354   5.017 -0.2708 -0.2680  0.1288
 2475ntf    sn216054   4.178   2.223   4.987  0.3077  0.0275  0.4066
 2475ntf    cn116055   4.341   2.289   5.032  0.5637 -0.0974 -0.3245
 2475ntf    fn416056   4.105   2.281   5.301  0.2612  0.1404  0.1274
 2475ntf    fn416057   4.078   2.492   5.283  0.4333 -0.3918  0.5085
 2475ntf    fn416058   3.910   2.363   5.346  0.1629 -0.2379  0.3522
 2475ntf    on516059   3.875   2.248   5.096  0.2637  0.0517 -0.7999
 2475ntf    on516060   3.894   2.490   5.077 -0.0985  0.4662  0.1315
 2475ntf    on516061   4.195   2.205   4.845  0.1311  0.2253  0.3593
 2475ntf    on516062   4.160   2.107   5.070  0.0252 -0.4223 -0.2705
 2475ntf    fn416063   4.384   2.389   4.957  0.2178  0.2399 -0.0772
 2475ntf    fn416064   4.352   2.327   5.159  0.0446 -0.1517 -0.2599
 2475ntf    fn416065   4.432   2.194   5.013  0.5481 -0.1733 -0.0375
 2476ntf    cn116066   2.886   4.840   2.888 -0.2936  0.1278  0.1109
 2476ntf    sn216067   3.057   4.830   2.950 -0.3846 -0.2664  0.3042
 2476ntf    nn316068   3.042   4.811   3.105 -0.3224 -0.3403  0.3012
 2476ntf    sn216069   3.073   4.916   3.218  0.1536  0.0379 -0.1730
 2476ntf    cn116070   3.109   4.799   3.352 -0.2425 -0.0160 -0.1128
 2476ntf    fn416071   2.819   4.938   2.947 -0.3346  0.3583 -0.3175
 2476ntf    fn416072   2.877   4.866   2.759  0.0969 -0.4475 -0.0352
 2476ntf    fn416073   2.821   4.729   2.916 -0.3108  0.0601 -0.1991
 2476ntf    on516074   3.097   4.707   2.886 -0.3066 -0.2271  0.2766
 2476ntf    on516075   3.120   4.947   2.892  0.4472 -0.3802  0.9662
 2476ntf    on516076   2.961   4.997   3.257  0.2306  0.1871 -0.2626
 2476ntf    on516077   3.199   4.981   3.190  0.1250  0.2520  0.1963
 2476ntf    fn416078   3.084   4.841   3.475  0.0802  0.7918 -0.3198
 2476ntf    fn416079   3.030   4.694   3.338 -0.1731 -0.1482  0.4623
 2476ntf    fn416080   3.236   4.764   3.364 -0.1181  0.4541 -0.0411
 2477ntf    cn116081   5.954   6.554   3.119 -0.4082 -0.1110  0.0528
 2477ntf    sn216082   5.876   6.718   3.136 -0.0775  0.0660 -0.1160
 2477ntf    nn316083   5.751   6.714   3.042 -0.2452 -0.3304  0.1216
 2477ntf    sn216084   5.616   6.633   3.054 -0.4004 -0.0707  0.1484
 2477ntf    cn116085   5.507   6.753   3.136 -0.0200  0.2957  0.1260
 2477ntf    fn416086   6.058   6.553   3.201  0.2012 -0.1247 -0.7082
 2477ntf    fn416087   5.878   6.451   3.152  0.0826 -0.4860  0.0184
 2477ntf    fn416088   5.996   6.540   2.994  0.2524 -0.1289  0.2728
 2477ntf    on516089   5.863   6.732   3.279  0.7326 -0.3041  0.0002
 2477ntf    on516090   5.979   6.804   3.084  0.3419 -0.3506  0.0140
 2477ntf    on516091   5.624   6.535   3.159 -0.1012 -0.4552 -0.2254
 2477ntf    on516092   5.560   6.600   2.925 -0.0074  0.2189 -0.1009
 2477ntf    fn416093   5.558   6.800   3.248  0.0383 -0.3967  0.3998
 2477ntf    fn416094   5.477   6.854   3.056 -0.2903 -0.0823 -0.2553
 2477ntf    fn416095   5.394   6.691   3.167  0.1792 -0.1566 -0.0293
 2478ntf    cn116096   5.032   4.950   0.370  0.1758  0.1363  0.2509
 2478ntf    sn216097   5.114   4.800   0.309 -0.0412  0.1761 -0.1409
 2478ntf    nn316098   4.989   4.715   0.265  0.4276 -0.4081 -0.3623
 2478ntf    sn216099   4.933   4.696   0.120  0.1661 -0.0241 -0.3124
 2478ntf    cn116100   4.762   4.663   0.174  0.1490  0.1048 -0.2866
 2478ntf    fn416101   4.972   4.922   0.485 -0.2886  0.5839  0.1185
 2478ntf    fn416102   5.113   5.052   0.389 -0.4499  0.7263 -0.2057
 2478ntf    fn416103   4.939   5.001   0.291  0.2031 -0.2594 -0.0394
 2478ntf    on516104   5.190   4.847   0.196  0.0958  0.6208  0.1348
 2478ntf    on516105   5.180   4.759   0.431  0.0051  0.2321 -0.1472
 2478ntf    on516106   4.973   4.571   0.060 -0.2813 -0.2698 -0.0982
 2478ntf    on516107   4.924   4.809   0.031  0.4344  0.2018 -0.0558
 2478ntf    fn416108   4.682   4.678   0.070 -0.2664  0.2540  0.0526
 2478ntf    fn416109   4.747   4.541   0.222  0.0935  0.1345 -0.2288
 2478ntf    fn416110   4.722   4.753   0.262  0.1515  0.2463 -0.4274
 2479ntf    cn116111   0.577   5.085   1.305 -0.0003 -0.0777 -0.3832
 2479ntf    sn216112   0.593   4.927   1.217 -0.0487 -0.2332 -0.1092
 2479ntf    nn316113   0.483   4.944   1.107  0.1658 -0.4508 -0.3566
 2479ntf    sn216114   0.374   4.844   1.053 -0.2383 -0.2217  0.0316
 2479ntf    cn116115   0.324   4.928   0.899 -0.2105 -0.0771  0.1010
 2479ntf    fn416116   0.665   5.100   1.403 -0.0622  0.1288 -0.3578
 2479ntf    fn416117   0.595   5.188   1.223  0.2768 -0.1613 -0.4294
 2479ntf    fn416118   0.457   5.092   1.359  0.3225 -0.0068  0.3314
 2479ntf    on516119   0.720   4.932   1.150 -0.1112  0.5535 -0.1703
 2479ntf    on516120   0.569   4.831   1.323  0.2357 -0.2883 -0.0929
 2479ntf    on516121   0.255   4.835   1.135 -0.1857  0.1924  0.1600
 2479ntf    on516122   0.437   4.720   1.016 -0.2095 -0.1333 -0.2142
 2479ntf    fn416123   0.343   5.059   0.907 -0.0543 -0.0569 -0.6122
 2479ntf    fn416124   0.402   4.884   0.801  0.5587  0.5787  0.4031
 2479ntf    fn416125   0.200   4.900   0.865 -0.1627 -0.3934  0.1792
 2480ntf    cn116126   0.385   0.870   6.411  0.1538 -0.1639 -0.4840
 2480ntf    sn216127   0.333   0.998   6.528  0.1445 -0.4386 -0.1887
 2480ntf    nn316128   0.206   0.932   6.593 -0.0971 -0.2881 -0.5086
 2480ntf    sn216129   0.052   0.960   6.574 -0.0592  0.3641  0.0917
 2480ntf    cn116130   0.013   1.023   6.740 -0.2295  0.0622  0.1651
 2480ntf    fn416131   0.292   0.841   6.321 -0.9961  0.5689  0.4453
 2480ntf    fn416132   0.494   0.910   6.348  0.2587 -0.0486 -0.2294
 2480ntf    fn416133   0.420   0.758   6.472 -0.1245  0.0069 -0.0088
 2480ntf    on516134   0.441   0.999   6.624  0.3312 -0.0422 -0.3997
 2480ntf    on516135   0.313   1.113   6.444 -0.3107  0.0272  0.5389
 2480ntf    on516136  -0.027   0.840   6.562 -0.2878  0.5751 -0.5567
 2480ntf    on516137   0.013   1.068   6.487  0.0560  0.1079 -0.2799
 2480ntf    fn416138   0.097   1.113   6.787 -0.0948  0.0490 -0.0484
 2480ntf    fn416139  -0.105   1.083   6.748 -0.2405  0.0962 -0.2288
 2480ntf    fn416140   0.008   0.928   6.832 -0.1403 -0.1361 -0.0318
 2481ntf    cn116141   4.188   0.057   4.625  0.0679 -0.5219 -0.0441
 2481ntf    sn216142   4.039   0.009   4.533 -0.2311  0.1821  0.0688
 2481ntf    nn316143   3.932   0.115   4.578 -0.5078  0.1771 -0.5626
 2481ntf    sn216144   3.790   0.084   4.636 -0.2080 -0.2607 -0.0503
 2481ntf    cn116145   3.844   0.010   4.793 -0.1674 -0.1008  0.0115
 2481ntf    fn416146   4.295   0.004   4.566  0.1860  0.1048 -0.4013
 2481ntf    fn416147   4.206   0.188   4.631 -0.4005 -0.4316 -0.5220
 2481ntf    fn416148   4.185   0.006   4.747 -0.4617 -0.1747  0.0884
 2481ntf    on516149   4.076   0.025   4.395  0.5120 -0.3329  0.2007
 2481ntf    on516150   4.013  -0.125   4.579 -0.3635  0.2516  0.1965
 2481ntf    on516151   3.714  -0.021   4.572  0.0061 -0.3132 -0.2149
 2481ntf    on516152   3.719   0.202   4.680 -0.2332 -0.3682  0.1995
 2481ntf    fn416153   3.935   0.087   4.851 -0.2823 -0.0173  0.0799
 2481ntf    fn416154   3.741  -0.013   4.872  0.0702 -0.1827  0.3012
 2481ntf    fn416155   3.893  -0.113   4.785 -0.1825 -0.0826 -0.3830
 2482ntf    cn116156   0.883   6.380   1.852 -0.3793  0.1771  0.0742
 2482ntf    sn216157   0.859   6.451   1.686  0.0850  0.0387 -0.0542
 2482ntf    nn316158   0.790   6.329   1.617 -0.0301  0.1064 -0.0593
 2482ntf    sn216159   0.641   6.291   1.586 -0.1317  0.4175  0.0452
 2482ntf    cn116160   0.635   6.258   1.407 -0.0520  0.2556  0.0722
 2482ntf    fn416161   0.978   6.447   1.916  0.5890 -0.7265 -0.3884
 2482ntf    fn416162   0.779   6.389   1.933 -0.3260  0.2135  0.1383
 2482ntf    fn416163   0.912   6.251   1.847 -0.0100  0.2402  0.4478
 2482ntf    on516164   0.773   6.565   1.704  0.7722  0.5739 -0.1048
 2482ntf    on516165   0.996   6.477   1.648  0.1244  0.0154  0.0713
 2482ntf    on516166   0.546   6.400   1.594 -0.0215  0.5070  0.1306
 2482ntf    on516167   0.609   6.162   1.643  0.3126  0.3339  0.1060
 2482ntf    fn416168   0.733   6.176   1.372  0.1928  0.6463 -0.1739
 2482ntf    fn416169   0.521   6.208   1.364  0.1453  0.2001 -0.3915
 2482ntf    fn416170   0.654   6.365   1.331 -0.5179  0.3417  0.0739
 2483ntf    cn116171   1.885   0.637   0.135 -0.4149  0.4182  0.2315
 2483ntf    sn216172   1.781   0.632  -0.014 -0.1104  0.4256  0.0171
 2483ntf    nn316173   1.659   0.711   0.045  0.1188  0.1431  0.8841
 2483ntf    sn216174   1.565   0.822  -0.012  0.7305  0.2487  0.0674
 2483ntf    cn116175   1.641   0.969   0.064  0.7220 -0.0241  0.6087
 2483ntf    fn416176   2.013   0.619   0.106 -0.4776  0.5384 -0.1249
 2483ntf    fn416177   1.867   0.755   0.192 -0.5976  0.4089  0.1910
 2483ntf    fn416178   1.832   0.553   0.222 -0.0697 -0.3210 -0.2702
 2483ntf    on516179   1.855   0.708  -0.111  0.0278 -0.5369 -0.6496
 2483ntf    on516180   1.750   0.495  -0.047  0.1162  0.3597  0.0701
 2483ntf    on516181   1.432   0.819   0.044  0.3971  0.2892 -0.7143
 2483ntf    on516182   1.585   0.847  -0.153 -0.1152  0.2245 -0.0651
 2483ntf    fn416183   1.647   0.945   0.194 -0.5726 -0.0651  0.6784
 2483ntf    fn416184   1.763   1.000   0.025  0.6857 -0.4057  0.1902
 2483ntf    fn416185   1.565   1.076   0.046  0.4174 -0.2473  0.5468
 2484ntf    cn116186   0.385   5.179   3.320 -0.3787 -0.1458  0.1018
 2484ntf    sn216187   0.493   5.065   3.412 -0.1341 -0.1047 -0.1311
 2484ntf    nn316188   0.456   4.920   3.365  0.0604 -0.0519 -0.4483
 2484ntf    sn216189   0.353   4.815   3.419  0.1307  0.0525 -0.1083
 2484ntf    cn116190   0.239   4.809   3.278 -0.0562 -0.2408  0.0528
 2484ntf    fn416191   0.278   5.216   3.389 -0.3646  0.0441  0.0230
 2484ntf    fn416192   0.452   5.291   3.294 -0.2459 -0.3331 -0.3796
 2484ntf    fn416193   0.339   5.124   3.209 -0.1828 -0.0617 -0.0222
 2484ntf    on516194   0.627   5.097   3.369 -0.1344  0.3110  0.1736
 2484ntf    on516195   0.460   5.095   3.549 -0.0435  0.2438 -0.1853
 2484ntf    on516196   0.272   4.853   3.532 -0.3658  0.1664 -0.4988
 2484ntf    on516197   0.401   4.679   3.414 -0.0576 -0.0034 -0.4055
 2484ntf    fn416198   0.185   4.923   3.238  0.5494  0.0017 -0.0899
 2484ntf    fn416199   0.296   4.748   3.175 -0.0171  0.4555 -0.3481
 2484ntf    fn416200   0.132   4.733   3.296 -0.4644  0.2748 -0.1601
 2485ntf    cn116201   5.450   4.021   2.578  0.0209  0.3409  0.0883
 2485ntf    sn216202   5.455   4.008   2.759 -0.1875 -0.2240  0.0557
 2485ntf    nn316203   5.481   4.153   2.814  0.3804 -0.0379 -0.6997
 2485ntf    sn216204   5.369   4.259   2.843  0.0820 -0.4584 -0.3027
 2485ntf    cn116205   5.381   4.269   3.024 -0.2366  0.1746 -0.3118
 2485ntf    fn416206   5.358   4.102   2.530 -0.1919 -0.1180 -0.2866
 2485ntf    fn416207   5.567   4.057   2.528  0.2432 -0.1041  0.2747
 2485ntf    fn416208   5.419   3.909   2.515  0.2221 -0.0086  0.5979
 2485ntf    on516209   5.331   3.938   2.782 -0.2048 -0.1915  0.0600
 2485ntf    on516210   5.576   3.931   2.772 -0.2930 -0.5105 -0.6142
 2485ntf    on516211   5.231   4.226   2.816 -0.1244  0.1163  0.0311
 2485ntf    on516212   5.402   4.390   2.792  0.0505  0.0091  0.8329
 2485ntf    fn416213   5.505   4.303   3.053 -0.2765  0.0570  0.0144
 2485ntf    fn416214   5.300   4.355   3.084  0.1884  0.4344 -0.1053
 2485ntf    fn416215   5.355   4.152   3.081 -0.4966  0.2842 -0.2022
 2486ntf    cn116216   5.132   4.918   6.264  0.0574  0.2362 -0.0544
 2486ntf    sn216217   4.953   4.952   6.265  0.0099 -0.0054 -0.1274
 2486ntf    nn316218   4.908   4.802   6.275 -0.0122  0.0046 -0.0724
 2486ntf    sn216219   4.874   4.717   6.402 -0.0915  0.4752  0.2223
 2486ntf    cn116220   4.889   4.544   6.348 -0.3409  0.3237  0.6323
 2486ntf    fn416221   5.167   4.851   6.156 -0.0726  0.3235 -0.1510
 2486ntf    fn416222   5.198   5.032   6.264 -0.3925  0.5026  0.4093
 2486ntf    fn416223   5.172   4.844   6.366 -0.4749 -0.2023 -0.1561
 2486ntf    on516224   4.933   5.033   6.382 -0.5829 -0.3199 -0.0074
 2486ntf    on516225   4.931   5.011   6.135 -0.2108 -0.2630 -0.2070
 2486ntf    on516226   4.733   4.719   6.432 -0.1106  0.9039  0.1141
 2486ntf    on516227   4.977   4.736   6.502  0.3180 -0.1097 -0.0847
 2486ntf    fn416228   4.893   4.456   6.446  0.3897  0.2646  0.5504
 2486ntf    fn416229   4.792   4.513   6.264  0.0638  0.2851  0.1763
 2486ntf    fn416230   5.006   4.533   6.286 -0.4565 -0.4688  0.5436
 2487ntf    cn116231   2.290   2.834   5.088 -0.0130  0.0786  0.0612
 2487ntf    sn216232   2.471   2.821   5.098 -0.0116 -0.0986 -0.1778
 2487ntf    nn316233   2.482   2.837   5.254  0.3301 -0.1790 -0.1912
 2487ntf    sn216234   2.543   2.946   5.349 -0.3571  0.2754 -0.2642
 2487ntf    cn116235   2.406   2.963   5.468  0.0226 -0.4578  0.2886
 2487ntf    fn416236   2.223   2.737   5.148  0.4540 -0.4268 -0.2243
 2487ntf    fn416237   2.244   2.950   5.132  0.1400  0.0356  0.3340
 2487ntf    fn416238   2.249   2.838   4.962  0.4287  0.3523 -0.0770
 2487ntf    on516239   2.494   2.683   5.064 -0.0956 -0.0072 -0.6107
 2487ntf    on516240   2.518   2.931   5.018 -0.0700  0.1000  0.0576
 2487ntf    on516241   2.555   3.077   5.290  0.1068  0.2863 -0.1469
 2487ntf    on516242   2.649   2.897   5.433 -0.2190  0.6036 -0.2463
 2487ntf    fn416243   2.310   3.045   5.427  0.4191 -0.3554 -0.4500
 2487ntf    fn416244   2.347   2.850   5.501 -0.6699 -0.1955 -0.0225
 2487ntf    fn416245   2.447   3.014   5.583  0.4621 -0.4377  0.1242
 2488ntf    cn116246   6.751   4.077   5.252  0.0872 -0.1630  0.0758
 2488ntf    sn216247   6.775   4.218   5.140 -0.0379 -0.1724  0.0370
 2488ntf    nn316248   6.731   4.349   5.214  0.1420  0.1726 -0.4650
 2488ntf    sn216249   6.802   4.422   5.333 -0.0714 -0.0492 -0.2016
 2488ntf    cn116250   6.895   4.550   5.244 -0.0329  0.0588 -0.0081
 2488ntf    fn416251   6.829   4.083   5.358 -0.1664  0.0814  0.2512
 2488ntf    fn416252   6.627   4.053   5.292  0.0288  0.0542  0.0269
 2488ntf    fn416253   6.795   3.964   5.198 -0.0462 -0.0250 -0.3258
 2488ntf    on516254   6.915   4.204   5.108 -0.1421 -0.4949 -0.2894
 2488ntf    on516255   6.681   4.202   5.032 -0.2303 -0.6046  0.2667
 2488ntf    on516256   6.899   4.344   5.407 -0.1061  0.1553  0.0593
 2488ntf    on516257   6.699   4.496   5.401 -0.0721 -0.1729 -0.0664
 2488ntf    fn416258   6.989   4.599   5.324 -0.0695  0.2043 -0.0531
 2488ntf    fn416259   6.949   4.511   5.130 -0.3113 -0.4834  0.0454
 2488ntf    fn416260   6.807   4.645   5.215 -0.0964 -0.0449 -0.1560
 2489ntf    cn116261   1.996   4.494   2.050  0.0747  0.1510 -0.1049
 2489ntf    sn216262   1.937   4.481   2.222  0.1966  0.2477 -0.0561
 2489ntf    nn316263   1.943   4.327   2.248  0.0436  0.2242 -0.1581
 2489ntf    sn216264   1.830   4.219   2.227  0.2600 -0.0998  0.3299
 2489ntf    cn116265   1.782   4.203   2.402  0.3143  0.2166  0.3749
 2489ntf    fn416266   1.949   4.606   1.998 -0.4006  0.0206  0.0313
 2489ntf    fn416267   2.128   4.497   2.045  0.1111  0.1010  0.6549
 2489ntf    fn416268   1.969   4.394   1.968 -0.1388  0.2216 -0.1221
 2489ntf    on516269   2.033   4.547   2.308  0.0596  0.2237  0.1137
 2489ntf    on516270   1.807   4.543   2.217  0.0514 -0.0560 -0.0634
 2489ntf    on516271   1.873   4.085   2.197 -0.4376 -0.1154 -0.6554
 2489ntf    on516272   1.708   4.254   2.159 -0.1412 -0.6395  0.7597
 2489ntf    fn416273   1.691   4.109   2.421 -0.1300  0.4692 -0.4275
 2489ntf    fn416274   1.887   4.172   2.476  0.7013 -0.1928 -0.3332
 2489ntf    fn416275   1.730   4.311   2.459 -0.1071  0.1787  0.0685
 2490ntf    cn116276   5.482   5.109   2.999 -0.2781  0.1028 -0.0285
 2490ntf    sn216277   5.477   4.935   3.051  0.1244  0.0566 -0.1411
 2490ntf    nn316278   5.611   4.919   3.131 -0.0962  0.7362  0.3753
 2490ntf    sn216279   5.640   4.885   3.282 -0.1153 -0.4430  0.1258
 2490ntf    cn116280   5.683   4.710   3.257 -0.0493 -0.3804 -0.2026
 2490ntf    fn416281   5.373   5.142   2.931 -0.3139 -0.0715 -0.0564
 2490ntf    fn416282   5.474   5.198   3.096 -0.2138  0.2232 -0.1336
 2490ntf    fn416283   5.588   5.139   2.925 -0.3477  0.0920 -0.1319
 2490ntf    on516284   5.357   4.940   3.131 -0.0537  0.3030 -0.4191
 2490ntf    on516285   5.474   4.862   2.927 -0.7798  0.0531 -0.1261
 2490ntf    on516286   5.529   4.876   3.374  0.1026  0.2116  0.4556
 2490ntf    on516287   5.764   4.941   3.329 -0.3390  0.4131 -0.2779
 2490ntf    fn416288   5.589   4.644   3.191 -0.5711  0.1596 -0.0107
 2490ntf    fn416289   5.793   4.706   3.183 -0.0670  0.5239 -0.2894
 2490ntf    fn416290   5.699   4.649   3.373 -0.2844  0.5198  0.3104
 2491ntf    cn116291   5.393   1.614   0.147 -0.1961 -0.0808 -0.0957
 2491ntf    sn216292   5.362   1.697   0.305  0.1259 -0.3199  0.0935
 2491ntf    nn316293   5.432   1.838   0.298 -0.0359 -0.2541 -0.2012
 2491ntf    sn216294   5.398   1.966   0.214  0.3752  0.0907  0.1542
 2491ntf    cn116295   5.330   2.078   0.340  0.0518  0.2015 -0.1175
 2491ntf    fn416296   5.333   1.671   0.044  0.2113  0.8007  0.1484
 2491ntf    fn416297   5.524   1.606   0.128 -0.1541  0.0161  0.1617
 2491ntf    fn416298   5.347   1.490   0.149 -0.2866 -0.0473 -0.0891
 2491ntf    on516299   5.219   1.707   0.311  0.1646  0.1876  0.2604
 2491ntf    on516300   5.425   1.609   0.401 -0.0282 -0.2884  0.2229
 2491ntf    on516301   5.287   1.951   0.123  0.3202  0.4767  0.1559
 2491ntf    on516302   5.515   2.030   0.160  0.4205 -0.9688 -1.0591
 2491ntf    fn416303   5.205   2.047   0.372 -0.0305 -0.2847 -0.8850
 2491ntf    fn416304   5.404   2.060   0.449 -0.1857 -0.1481 -0.0107
 2491ntf    fn416305   5.331   2.206   0.306 -0.0159  0.0414 -0.7315
 2492ntf    cn116306   6.288   3.385   3.279  0.0543 -0.0458 -0.1006
 2492ntf    sn216307   6.167   3.408   3.413  0.1477  0.0215 -0.0273
 2492ntf    nn316308   6.063   3.503   3.343 -0.1278  0.0588  0.4323
 2492ntf    sn216309   5.930   3.464   3.269  0.1795  0.0161 -0.1027
 2492ntf    cn116310   5.807   3.500   3.398  0.0957  0.1118 -0.2085
 2492ntf    fn416311   6.346   3.500   3.252  0.2560 -0.2667 -0.6108
 2492ntf    fn416312   6.380   3.303   3.326  0.0197 -0.3738 -0.5938
 2492ntf    fn416313   6.237   3.337   3.166 -0.2438 -0.2042  0.0987
 2492ntf    on516314   6.102   3.285   3.448  0.1317  0.1113  0.2571
 2492ntf    on516315   6.247   3.469   3.516 -0.5595  0.2178  0.4148
 2492ntf    on516316   5.908   3.326   3.234  0.1743  0.0640 -0.2880
 2492ntf    on516317   5.893   3.557   3.166 -0.3781  0.4156  0.4507
 2492ntf    fn416318   5.805   3.629   3.431 -0.5498  0.0478  0.0131
 2492ntf    fn416319   5.690   3.473   3.344  0.3286 -0.7758 -0.2717
 2492ntf    fn416320   5.824   3.430   3.509 -0.0339  0.7725  0.2353
 2493ntf    cn116321   4.448   5.706   5.892  0.3216  0.0151 -0.2604
 2493ntf    sn216322   4.400   5.835   6.010  0.2517 -0.0545 -0.2119
 2493ntf    nn316323   4.543   5.865   6.067  0.1051 -0.1205  0.1916
 2493ntf    sn216324   4.605   5.996   6.127 -0.0798 -0.1178  0.3779
 2493ntf    cn116325   4.590   5.957   6.304  0.1741 -0.2361  0.3740
 2493ntf    fn416326   4.533   5.614   5.935  0.3379  0.2566  0.2252
 2493ntf    fn416327   4.339   5.637   5.858  0.2215 -0.2110  0.4973
 2493ntf    fn416328   4.506   5.756   5.784  0.3181  0.1243 -0.2109
 2493ntf    on516329   4.338   5.940   5.933  0.2199 -0.2430 -0.4433
 2493ntf    on516330   4.319   5.772   6.112 -0.0299 -0.0981 -0.4606
 2493ntf    on516331   4.544   6.122   6.094  0.5293  0.0552 -0.1050
 2493ntf    on516332   4.748   5.997   6.107 -0.1775 -0.2952 -0.3663
 2493ntf    fn416333   4.490   5.872   6.322  0.1654 -0.3197 -0.0615
 2493ntf    fn416334   4.699   5.908   6.361  0.3211 -0.4604 -0.0912
 2493ntf    fn416335   4.570   6.069   6.371  0.2298  0.1240 -0.2027
 2494ntf    cn116336   0.447   5.563   1.236  0.2212 -0.1331 -0.5469
 2494ntf    sn216337   0.424   5.724   1.316 -0.1285 -0.2896 -0.3312
 2494ntf    nn316338   0.376   5.668   1.455  0.3132  0.3286  0.0794
 2494ntf    sn216339   0.232   5.657   1.518  0.1954  0.1778 -0.2137
 2494ntf    cn116340   0.239   5.784   1.647  0.0714 -0.2460  0.2108
 2494ntf    fn416341   0.330   5.504   1.221 -0.2250  0.5704  0.1099
 2494ntf    fn416342   0.494   5.567   1.112 -0.2104  0.1045 -0.7068
 2494ntf    fn416343   0.520   5.477   1.305 -0.3920 -0.3637 -0.1811
 2494ntf    on516344   0.560   5.773   1.313 -0.1307 -0.2290  0.3387
 2494ntf    on516345   0.328   5.798   1.239 -0.2895 -0.0509  0.0911
 2494ntf    on516346   0.214   5.539   1.599  0.5204  0.2808  0.0097
 2494ntf    on516347   0.122   5.701   1.435 -0.1184  0.0180  0.1167
 2494ntf    fn416348   0.138   5.778   1.732 -0.2522  0.1653 -0.1397
 2494ntf    fn416349   0.346   5.775   1.725  0.1611 -0.0996  0.1055
 2494ntf    fn416350   0.237   5.908   1.601 -0.4361 -0.4463 -0.3209
 2495ntf    cn116351   2.239   3.469   3.234 -0.0950 -0.1607 -0.0455
 2495ntf    sn216352   2.343   3.462   3.383  0.0600  0.1444 -0.1400
 2495ntf    nn316353   2.325   3.309   3.409  0.3605  0.0692 -0.3630
 2495ntf    sn216354   2.366   3.224   3.535  0.0167  0.1988 -0.1602
 2495ntf    cn116355   2.219   3.118   3.544  0.4168 -0.3221  0.3074
 2495ntf    fn416356   2.209   3.344   3.200 -0.2174 -0.0399 -0.3886
 2495ntf    fn416357   2.127   3.537   3.251 -0.0078 -0.1493  0.5145
 2495ntf    fn416358   2.307   3.520   3.133 -0.0628 -0.1815 -0.0347
 2495ntf    on516359   2.474   3.500   3.337  0.1048 -0.1216 -0.2291
 2495ntf    on516360   2.272   3.551   3.472 -0.2547  0.0023 -0.2465
 2495ntf    on516361   2.374   3.299   3.658 -0.1567  0.0336 -0.0472
 2495ntf    on516362   2.480   3.139   3.510 -0.0623 -0.2258  0.8802
 2495ntf    fn416363   2.215   3.033   3.443 -0.6303  0.2869 -0.1784
 2495ntf    fn416364   2.210   3.054   3.660 -0.1537  0.1027  0.5037
 2495ntf    fn416365   2.103   3.180   3.529  0.6277 -0.0104 -0.0551
 2496ntf    cn116366   3.288   5.260   5.555  0.1074 -0.0774  0.1791
 2496ntf    sn216367   3.205   5.112   5.622 -0.2763  0.0394 -0.0391
 2496ntf    nn316368   3.244   5.130   5.772 -0.1016  0.4379 -0.1311
 2496ntf    sn216369   3.377   5.075   5.836 -0.2741 -0.2160 -0.3385
 2496ntf    cn116370   3.319   4.909   5.883 -0.3274 -0.0540  0.1735
 2496ntf    fn416371   3.267   5.292   5.429  0.6045  0.2878  0.1889
 2496ntf    fn416372   3.248   5.368   5.620 -0.0127  0.4195 -0.7090
 2496ntf    fn416373   3.419   5.259   5.570  0.0399 -0.1959  0.7947
 2496ntf    on516374   3.067   5.148   5.599 -0.2554  0.6218  0.7223
 2496ntf    on516375   3.259   4.996   5.555  0.5156  0.1736  0.3568
 2496ntf    on516376   3.401   5.129   5.967 -0.4547  0.1880 -0.4706
 2496ntf    on516377   3.493   5.073   5.751 -0.1894  0.8042 -0.2513
 2496ntf    fn416378   3.393   4.855   5.978 -0.3180 -0.5088 -0.0903
 2496ntf    fn416379   3.194   4.914   5.928 -0.2044 -0.1703  0.5287
 2496ntf    fn416380   3.311   4.831   5.776 -0.1164  0.1284  0.0252
 2497ntf    cn116381   4.101   5.860   4.525  0.1026 -0.1316  0.0040
 2497ntf    sn216382   3.961   5.976   4.542  0.2844  0.0818  0.0460
 2497ntf    nn316383   3.953   5.974   4.699 -0.1095  0.1270  0.0268
 2497ntf    sn216384   3.841   5.898   4.778  0.0772 -0.1310  0.0455
 2497ntf    cn116385   3.827   6.001   4.927 -0.1642 -0.0678 -0.0212
 2497ntf    fn416386   4.080   5.757   4.605 -0.0770  0.0183  0.1512
 2497ntf    fn416387   4.123   5.814   4.403  0.1573  0.4534 -0.2128
 2497ntf    fn416388   4.215   5.911   4.566  0.0935 -0.1002 -0.0088
 2497ntf    on516389   4.011   6.103   4.495 -0.2645  0.3426  0.1659
 2497ntf    on516390   3.857   5.912   4.466  0.1059  0.4302 -0.0021
 2497ntf    on516391   3.881   5.767   4.824  0.3128 -0.1546 -0.2236
 2497ntf    on516392   3.710   5.904   4.719  0.2495  0.1274 -0.3155
 2497ntf    fn416393   3.938   5.996   4.998 -0.3498  0.2528  0.2947
 2497ntf    fn416394   3.795   6.127   4.906 -0.5323 -0.0948  0.3559
 2497ntf    fn416395   3.726   5.956   5.001 -0.1804 -0.0038 -0.0042
 2498ntf    cn116396   4.457   6.801   2.364  0.2596 -0.1270  0.0312
 2498ntf    sn216397   4.417   6.646   2.278 -0.0615 -0.1624  0.2412
 2498ntf    nn316398   4.347   6.692   2.146  0.0289 -0.6742  0.0121
 2498ntf    sn216399   4.406   6.731   2.006 -0.3336  0.1452  0.0777
 2498ntf    cn116400   4.261   6.789   1.913 -0.2590  0.3747  0.1051
 2498ntf    fn416401   4.548   6.782   2.458 -0.2526 -0.0405  0.5484
 2498ntf    fn416402   4.508   6.878   2.270  0.1205 -0.1123 -0.0330
 2498ntf    fn416403   4.346   6.856   2.412 -0.1039 -0.3568 -0.5345
 2498ntf    on516404   4.548   6.587   2.264 -0.0426  0.0021 -0.2875
 2498ntf    on516405   4.335   6.584   2.379 -0.2656 -0.0989  0.1146
 2498ntf    on516406   4.457   6.622   1.926  0.1296  0.1082  0.4168
 2498ntf    on516407   4.486   6.850   2.020  0.1601 -0.0784 -0.7395
 2498ntf    fn416408   4.297   6.825   1.790 -0.3257 -0.1200 -0.0625
 2498ntf    fn416409   4.176   6.688   1.909  0.1492  0.0436 -0.4142
 2498ntf    fn416410   4.202   6.895   1.965 -0.0427  0.2437  0.6224
 2499ntf    cn116411   3.814   4.986   3.474 -0.0113  0.2101  0.3437
 2499ntf    sn216412   3.845   4.809   3.450 -0.1155  0.2977 -0.4584
 2499ntf    nn316413   3.780   4.746   3.578 -0.0314  0.3758 -0.3764
 2499ntf    sn216414   3.702   4.610   3.592 -0.2840  0.5302 -0.2895
 2499ntf    cn116415   3.529   4.664   3.573 -0.5132 -0.0481  0.1156
 2499ntf    fn416416   3.861   5.055   3.371 -0.0594  0.1425  0.2772
 2499ntf    fn416417   3.691   5.029   3.494 -0.3395 -0.5772  0.0484
 2499ntf    fn416418   3.878   5.033   3.581  0.1012  0.3098  0.2336
 2499ntf    on516419   3.778   4.774   3.327 -0.5595 -0.5272  0.0093
 2499ntf    on516420   3.989   4.801   3.454 -0.1190  0.4069 -0.0728
 2499ntf    on516421   3.694   4.551   3.723 -0.1750  0.2226 -0.4213
 2499ntf    on516422   3.725   4.513   3.488  0.0609 -0.0520  0.3285
 2499ntf    fn416423   3.445   4.565   3.597 -0.6347  0.0989  0.2991
 2499ntf    fn416424   3.490   4.759   3.656  0.2592  0.9913 -0.6808
 2499ntf    fn416425   3.502   4.708   3.451  0.2076  0.1759  0.0331
 2500ntf    cn116426   5.591   1.281   4.520 -0.2213  0.2982 -0.0344
 2500ntf    sn216427   5.640   1.116   4.461  0.0243  0.4138 -0.1566
 2500ntf    nn316428   5.549   1.088   4.336 -0.1877 -0.1416  0.1190
 2500ntf    sn216429   5.591   1.025   4.199  0.1005  0.2477  0.0278
 2500ntf    cn116430   5.654   1.171   4.110  0.1660  0.0301 -0.2884
 2500ntf    fn416431   5.672   1.307   4.621  0.0099 -0.3139 -0.0551
 2500ntf    fn416432   5.605   1.382   4.436  0.1507  0.1868 -0.1085
 2500ntf    fn416433   5.465   1.281   4.559 -0.2181  0.0623 -0.0176
 2500ntf    on516434   5.780   1.140   4.435  0.2372 -0.1593  0.4210
 2500ntf    on516435   5.609   1.034   4.576  0.5143 -0.0354 -0.3392
 2500ntf    on516436   5.481   0.980   4.118  0.3173  0.1675 -0.2265
 2500ntf    on516437   5.706   0.938   4.197  0.2795  0.4838 -0.0536
 2500ntf    fn416438   5.737   1.139   4.013  0.6228  0.4132 -0.0292
 2500ntf    fn416439   5.556   1.236   4.049  0.2536 -0.0349 -0.4982
 2500ntf    fn416440   5.716   1.260   4.187 -0.0834 -0.1932  0.1740
 2501ntf    cn116441   0.200   5.209   2.633 -0.0796 -0.0429  0.0628
 2501ntf    sn216442   0.104   5.356   2.585  0.0063 -0.0840 -0.2323
 2501ntf    nn316443   0.131   5.357   2.430  0.1101  0.1925 -0.2139
 2501ntf    sn216444   0.036   5.313   2.313  0.2536 -0.2274 -0.1750
 2501ntf    cn116445   0.026   5.133   2.333  0.2200 -0.2253 -0.1711
 2501ntf    fn416446   0.128   5.100   2.612  0.1214 -0.2392  0.3738
 2501ntf    fn416447   0.307   5.189   2.559 -0.2888 -0.1104 -0.2254
 2501ntf    fn416448   0.232   5.211   2.762  0.1044  0.8692  0.0123
 2501ntf    on516449  -0.032   5.332   2.625 -0.1060 -0.0966 -0.6149
 2501ntf    on516450   0.181   5.461   2.648 -0.4694 -0.0772  0.3398
 2501ntf    on516451   0.105   5.337   2.189 -0.1028 -0.0550 -0.3407
 2501ntf    on516452  -0.103   5.354   2.316  0.4303  0.3513  0.5585
 2501ntf    fn416453  -0.028   5.104   2.450  0.4532 -0.1718 -0.0502
 2501ntf    fn416454  -0.054   5.079   2.242 -0.3290 -0.2963  0.3463
 2501ntf    fn416455   0.143   5.070   2.332  0.1542 -0.3510  0.1334
 2502ntf    cn116456   1.644   3.383   5.046 -0.3288 -0.5134 -0.2040
 2502ntf    sn216457   1.768   3.508   5.002 -0.3354 -0.3890  0.1291
 2502ntf    nn316458   1.694   3.644   5.028  0.0273 -0.1804  0.0867
 2502ntf    sn216459   1.670   3.726   5.159  0.1944 -0.4559  0.2899
 2502ntf    cn116460   1.715   3.896   5.113  0.0632 -0.5505 -0.1932
 2502ntf    fn416461   1.589   3.406   5.164  0.0714  0.0208 -0.1170
 2502ntf    fn416462   1.547   3.383   4.957  0.0688  0.1142 -0.6478
 2502ntf    fn416463   1.694   3.261   5.056  0.1530 -0.3685 -0.8003
 2502ntf    on516464   1.874   3.485   5.098  0.7554  0.4512 -0.8483
 2502ntf    on516465   1.800   3.483   4.864 -0.0721  0.1310  0.0932
 2502ntf    on516466   1.762   3.709   5.269  0.1635  0.3547  0.4495
 2502ntf    on516467   1.530   3.735   5.192  0.1525  0.3086 -0.0851
 2502ntf    fn416468   1.847   3.909   5.119  0.0113 -0.1925  0.2110
 2502ntf    fn416469   1.666   3.928   4.995  0.2529 -0.3922 -0.2295
 2502ntf    fn416470   1.668   3.991   5.192  0.4418 -0.0197 -0.5971
 2503ntf    cn116471   2.132   4.638   0.770  0.2056  0.0559  0.4481
 2503ntf    sn216472   2.265   4.554   0.861  0.5003 -0.0845 -0.1064
 2503ntf    nn316473   2.391   4.610   0.785  0.1787  0.4960 -0.2186
 2503ntf    sn216474   2.472   4.741   0.816  0.2781  0.3961 -0.0556
 2503ntf    cn116475   2.594   4.687   0.940 -0.3910  0.4678  0.6483
 2503ntf    fn416476   2.123   4.592   0.646 -0.5301  0.3201  0.3970
 2503ntf    fn416477   2.013   4.613   0.821 -0.1500  1.1419  0.1647
 2503ntf    fn416478   2.146   4.769   0.758 -0.2824  0.0582 -0.1545
 2503ntf    on516479   2.256   4.596   0.999  0.2295 -0.0813 -0.1254
 2503ntf    on516480   2.250   4.415   0.828 -0.5144 -0.0408  0.1431
 2503ntf    on516481   2.406   4.854   0.876 -0.2462  0.4203 -0.6691
 2503ntf    on516482   2.553   4.771   0.701  0.1323  0.9410 -0.0174
 2503ntf    fn416483   2.552   4.613   1.041  0.5374 -0.8973  0.0534
 2503ntf    fn416484   2.691   4.625   0.875 -0.5582  0.4574  0.4053
 2503ntf    fn416485   2.649   4.793   0.997  0.0090  0.4471  0.3054
 2504ntf    cn116486   0.070   1.945   2.230 -0.0052  0.1337 -0.1116
 2504ntf    sn216487  -0.101   1.995   2.267 -0.0887 -0.1476 -0.1164
 2504ntf    nn316488  -0.135   1.922   2.402 -0.2698  0.3395  0.1032
 2504ntf    sn216489  -0.232   1.800   2.425 -0.0880  0.2474  0.3885
 2504ntf    cn116490  -0.304   1.827   2.589 -0.3369 -0.1087  0.3369
 2504ntf    fn416491   0.067   1.818   2.195  0.3343  0.2407 -0.5357
 2504ntf    fn416492   0.124   2.013   2.130 -0.1913 -0.0301 -0.3256
 2504ntf    fn416493   0.144   1.959   2.339 -0.0767  0.1208 -0.0608
 2504ntf    on516494  -0.089   2.136   2.293 -0.1553 -0.1078 -0.3011
 2504ntf    on516495  -0.177   1.956   2.151 -0.3801 -0.4511  0.1717
 2504ntf    on516496  -0.166   1.672   2.431 -0.5554 -0.0154 -0.0567
 2504ntf    on516497  -0.348   1.811   2.340 -0.1977 -0.2955  0.4681
 2504ntf    fn416498  -0.217   1.788   2.681  0.1445  0.0365 -0.0572
 2504ntf    fn416499  -0.328   1.953   2.619 -0.5334 -0.1317  0.2747
 2504ntf    fn416500  -0.413   1.752   2.602 -0.1582 -0.4486 -0.1159
 2505ntf    cn116501   5.555   4.130   6.521 -0.3004 -0.1170  0.0559
 2505ntf    sn216502   5.662   4.186   6.657  0.0740 -0.1938 -0.2060
 2505ntf    nn316503   5.635   4.076   6.767  0.2584  0.7656  0.8137
 2505ntf    sn216504   5.744   3.999   6.849  0.0900 -0.2430  0.1034
 2505ntf    cn116505   5.799   4.141   6.948 -0.0189 -0.1916  0.0897
 2505ntf    fn416506   5.573   4.002   6.497  0.0186 -0.0683  0.0268
 2505ntf    fn416507   5.428   4.149   6.553 -0.2603 -0.3737  0.3743
 2505ntf    fn416508   5.583   4.193   6.408 -0.1237 -0.1767  0.0665
 2505ntf    on516509   5.789   4.196   6.591  0.1616 -0.3192 -0.0598
 2505ntf    on516510   5.601   4.313   6.688 -0.3644 -0.2795 -0.6971
 2505ntf    on516511   5.865   3.963   6.778 -0.1653  0.5220 -0.7373
 2505ntf    on516512   5.698   3.910   6.953  0.6951 -0.7985 -0.0954
 2505ntf    fn416513   5.702   4.199   7.019  0.4477  0.2194  0.3970
 2505ntf    fn416514   5.894   4.108   7.033 -0.0765 -0.3292  0.1013
 2505ntf    fn416515   5.847   4.235   6.868 -0.2059 -0.0993  0.0837
 2506ntf    cn116516   0.852   1.220   0.229  0.1359 -0.0652 -0.2934
 2506ntf    sn216517   0.938   1.344   0.330  0.1765 -0.2057 -0.1544
 2506ntf    nn316518   0.830   1.356   0.443 -0.1263 -0.0753 -0.4550
 2506ntf    sn216519   0.712   1.458   0.461  0.0940  0.1006 -0.0032
 2506ntf    cn116520   0.806   1.585   0.552 -0.3838  0.3446  0.1589
 2506ntf    fn416521   0.755   1.260   0.149  0.0410  0.1486 -0.0726
 2506ntf    fn416522   0.930   1.152   0.147  0.1953 -0.1841 -0.1395
 2506ntf    fn416523   0.790   1.129   0.302 -0.0507 -0.2191 -0.6414
 2506ntf    on516524   1.055   1.274   0.374  0.0590 -0.3943 -0.1411
 2506ntf    on516525   0.951   1.456   0.239  0.0646 -0.3712 -0.3751
 2506ntf    on516526   0.610   1.420   0.556  0.1407 -0.6192 -0.2340
 2506ntf    on516527   0.662   1.529   0.346 -0.0732 -0.0852 -0.0459
 2506ntf    fn416528   0.865   1.530   0.657 -0.0884 -0.1179 -0.2420
 2506ntf    fn416529   0.897   1.646   0.478 -0.0502 -0.0595  0.2305
 2506ntf    fn416530   0.727   1.682   0.593 -0.0627  0.7092 -0.0860
 2507ntf    cn116531   6.438   5.981   2.213 -0.3423 -0.3684 -0.2546
 2507ntf    sn216532   6.485   6.155   2.195  0.1473 -0.4617  0.0821
 2507ntf    nn316533   6.627   6.151   2.263  0.0798  0.3958  0.2831
 2507ntf    sn216534   6.759   6.093   2.201 -0.0554 -0.0763  0.4351
 2507ntf    cn116535   6.790   5.962   2.323  0.2384 -0.1465  0.2828
 2507ntf    fn416536   6.521   5.896   2.155  0.0914 -0.2183  0.1311
 2507ntf    fn416537   6.444   5.947   2.341 -0.0719  0.6174  0.0010
 2507ntf    fn416538   6.316   5.954   2.172 -0.3332 -0.7199 -0.0575
 2507ntf    on516539   6.489   6.184   2.054  0.0600 -0.0478  0.1616
 2507ntf    on516540   6.379   6.218   2.270  0.2593 -0.2029  0.0256
 2507ntf    on516541   6.867   6.188   2.214  0.1995 -0.2937 -0.0992
 2507ntf    on516542   6.749   6.020   2.077  0.3308  0.0605  0.3245
 2507ntf    fn416543   6.882   5.874   2.284 -0.0399 -0.2117 -0.2493
 2507ntf    fn416544   6.827   6.005   2.442  0.1978 -0.1566  0.2985
 2507ntf    fn416545   6.687   5.882   2.349  0.2848 -0.2881  0.0404
 2508ntf    cn116546   2.181   3.064   2.100 -0.0389 -0.0087 -0.1442
 2508ntf    sn216547   2.332   3.016   2.010  0.1017  0.0462  0.0602
 2508ntf    nn316548   2.400   2.920   2.115  0.4579 -0.0883 -0.2910
 2508ntf    sn216549   2.412   2.764   2.124  0.2318 -0.0963 -0.1190
 2508ntf    cn116550   2.577   2.745   2.050  0.4336  0.6491  0.1304
 2508ntf    fn416551   2.107   3.146   2.028 -0.0207 -0.1772 -0.3543
 2508ntf    fn416552   2.118   2.957   2.144 -0.4272  0.4419  0.4208
 2508ntf    fn416553   2.217   3.136   2.206  0.4235 -0.1011 -0.2371
 2508ntf    on516554   2.284   2.962   1.885 -0.2437  0.3869  0.0436
 2508ntf    on516555   2.407   3.138   2.001  0.0554  0.0817  0.1617
 2508ntf    on516556   2.313   2.692   2.047  0.7805 -0.4992 -0.4502
 2508ntf    on516557   2.431   2.710   2.256 -0.0111 -0.0452 -0.0621
 2508ntf    fn416558   2.618   2.621   2.035  0.4039  0.5644  0.7186
 2508ntf    fn416559   2.583   2.797   1.928 -0.1716  0.3056 -0.0554
 2508ntf    fn416560   2.669   2.812   2.117  0.6592  0.5858 -0.1153
 2509ntf    cn116561   6.842   0.671   2.999 -0.3720  0.4245  0.1894
 2509ntf    sn216562   6.762   0.697   3.161 -0.4312  0.2828  0.1832
 2509ntf    nn316563   6.628   0.766   3.118 -0.1993  0.0531 -0.9395
 2509ntf    sn216564   6.603   0.921   3.130 -0.1656 -0.0140  0.0175
 2509ntf    cn116565   6.440   0.924   3.048 -0.1700 -0.2140  0.0177
 2509ntf    fn416566   6.818   0.777   2.923 -0.1435 -0.2445 -0.8206
 2509ntf    fn416567   6.973   0.654   3.011 -0.3979 -0.3289 -0.5846
 2509ntf    fn416568   6.792   0.568   2.935  0.0636  0.1475  0.2906
 2509ntf    on516569   6.741   0.564   3.210  0.4868  0.1348  0.1872
 2509ntf    on516570   6.854   0.778   3.237  0.2030  0.0848 -0.3640
 2509ntf    on516571   6.690   1.002   3.049 -0.1908 -0.4481 -0.4501
 2509ntf    on516572   6.556   0.963   3.260 -0.1300 -0.1485  0.0745
 2509ntf    fn416573   6.439   0.855   2.935 -0.4446  0.5852 -0.4703
 2509ntf    fn416574   6.353   0.859   3.124 -0.2708  0.5144  0.5275
 2509ntf    fn416575   6.394   1.047   3.036 -0.5942 -0.3290  0.4501
 2510ntf    cn116576   0.851   0.681   2.153 -0.0747 -0.1695  0.0263
 2510ntf    sn216577   0.900   0.769   2.305 -0.3073 -0.0880  0.0545
 2510ntf    nn316578   0.835   0.672   2.410  0.1459 -0.6792 -0.2022
 2510ntf    sn216579   0.688   0.671   2.465  0.3152 -0.1240  0.2763
 2510ntf    cn116580   0.699   0.795   2.597 -0.4354 -0.0127  0.2387
 2510ntf    fn416581   0.722   0.693   2.128 -0.0512 -0.1191 -0.0713
 2510ntf    fn416582   0.921   0.716   2.047 -0.1902  0.2677  0.0940
 2510ntf    fn416583   0.877   0.553   2.172 -0.1081 -0.0886  0.6500
 2510ntf    on516584   1.044   0.762   2.309 -0.2625  0.1934 -0.8348
 2510ntf    on516585   0.843   0.900   2.287 -0.4556 -0.1376  0.1608
 2510ntf    on516586   0.651   0.553   2.538 -0.0964 -0.0753  0.1501
 2510ntf    on516587   0.592   0.725   2.372  0.1923 -0.1329  0.3970
 2510ntf    fn416588   0.714   0.916   2.546  0.5357 -0.1959  0.0706
 2510ntf    fn416589   0.591   0.801   2.673 -0.6852  0.3383 -0.1409
 2510ntf    fn416590   0.802   0.775   2.678 -0.2187  0.1025 -0.0078
 2511ntf    cn116591   1.265   3.997   1.775  0.1214 -0.1547  0.0635
 2511ntf    sn216592   1.364   4.096   1.891  0.0626  0.1731 -0.1642
 2511ntf    nn316593   1.276   4.077   2.019 -0.0656  0.2206 -0.2451
 2511ntf    sn216594   1.158   4.171   2.063 -0.0878 -0.0126  0.2017
 2511ntf    cn116595   1.256   4.322   2.092  0.1873 -0.0604 -0.4753
 2511ntf    fn416596   1.259   3.870   1.810 -0.3058 -0.1346  0.0720
 2511ntf    fn416597   1.139   4.037   1.771  0.0958 -0.2118  0.2758
 2511ntf    fn416598   1.317   4.003   1.653 -0.2405 -0.2849 -0.0971
 2511ntf    on516599   1.484   4.017   1.906  0.0418  0.1425 -0.1606
 2511ntf    on516600   1.372   4.226   1.829 -0.2847  0.3389  0.1381
 2511ntf    on516601   1.113   4.135   2.195  0.2203  0.1880  0.3621
 2511ntf    on516602   1.061   4.212   1.965 -0.1167 -0.3907  0.0702
 2511ntf    fn416603   1.192   4.404   2.174  0.1503 -0.7832  0.2320
 2511ntf    fn416604   1.372   4.295   2.149 -0.0250 -0.7119 -0.3412
 2511ntf    fn416605   1.282   4.389   1.981  0.0481  0.6642 -0.0728
 2512ntf    cn116606   1.266   6.331   5.032  0.0532 -0.0704 -0.0768
 2512ntf    sn216607   1.127   6.303   5.146  0.1752  0.1334  0.1251
 2512ntf    nn316608   1.008   6.333   5.048  0.2430 -0.1639 -0.0522
 2512ntf    sn216609   0.908   6.249   4.960  0.1516 -0.0168 -0.0907
 2512ntf    cn116610   0.756   6.292   5.049  0.2891  0.2490  0.0186
 2512ntf    fn416611   1.254   6.449   4.972  0.2733 -0.1673 -0.3121
 2512ntf    fn416612   1.385   6.326   5.089  0.0092  0.3470  0.0614
 2512ntf    fn416613   1.266   6.239   4.938  0.3115 -0.1287 -0.0200
 2512ntf    on516614   1.133   6.168   5.196  0.1646  0.2571  0.4612
 2512ntf    on516615   1.147   6.408   5.242  0.5123  0.1205  0.0682
 2512ntf    on516616   0.919   6.106   4.970  0.0723 -0.0725 -0.7883
 2512ntf    on516617   0.899   6.308   4.829  0.1283 -0.3985 -0.2603
 2512ntf    fn416618   0.765   6.258   5.176  0.1153  0.0146 -0.0297
 2512ntf    fn416619   0.721   6.420   5.046  0.0162  0.1755 -0.0216
 2512ntf    fn416620   0.658   6.218   5.000  0.3647 -0.0854  0.3717
 2513ntf    cn116621   1.818   2.372   3.863  0.2535 -0.3393 -0.4350
 2513ntf    sn216622   1.875   2.530   3.793  0.1391 -0.2041 -0.2272
 2513ntf    nn316623   1.979   2.582   3.898  0.1153 -0.2261 -0.1929
 2513ntf    sn216624   2.135   2.595   3.880  0.1171  0.0283  0.0082
 2513ntf    cn116625   2.144   2.774   3.848 -0.1427  0.0608  0.1128
 2513ntf    fn416626   1.745   2.388   3.973 -0.1387 -0.0904 -0.7280
 2513ntf    fn416627   1.743   2.308   3.775 -0.1998 -0.6610  0.1758
 2513ntf    fn416628   1.911   2.282   3.886  0.5463 -0.0300 -0.3968
 2513ntf    on516629   1.929   2.490   3.665  0.3025 -0.0759 -0.1995
 2513ntf    on516630   1.759   2.615   3.800  0.3816  0.1421 -0.3954
 2513ntf    on516631   2.189   2.530   3.763  0.3684  0.9846 -0.4141
 2513ntf    on516632   2.204   2.579   4.006  0.7058  0.1479 -0.2980
 2513ntf    fn416633   2.264   2.818   3.815 -0.3061  0.3160 -0.1492
 2513ntf    fn416634   2.065   2.804   3.746 -0.0833  0.0908  0.0756
 2513ntf    fn416635   2.109   2.843   3.956 -0.3683 -0.5911  0.4629
 2514ntf    cn116636   3.415   0.450   3.630 -0.1651  0.3602  0.1241
 2514ntf    sn216637   3.391   0.320   3.755  0.0019  0.2527  0.0448
 2514ntf    nn316638   3.526   0.330   3.835  0.1449 -0.2410 -0.1337
 2514ntf    sn216639   3.658   0.249   3.812  0.1035 -0.3504  0.0095
 2514ntf    cn116640   3.621   0.085   3.879 -0.0706 -0.1595  0.3803
 2514ntf    fn416641   3.426   0.572   3.680 -0.0475  0.5142 -0.2656
 2514ntf    fn416642   3.515   0.425   3.547 -0.1074  0.0834  0.2765
 2514ntf    fn416643   3.307   0.468   3.555 -0.1140  0.4315  0.0668
 2514ntf    on516644   3.277   0.366   3.831  0.1920 -0.2119  0.6144
 2514ntf    on516645   3.374   0.201   3.676 -0.4175 -0.1410  0.7262
 2514ntf    on516646   3.756   0.309   3.900 -0.1775 -0.1072  0.1590
 2514ntf    on516647   3.699   0.232   3.675  0.1732  0.1965 -0.0415
 2514ntf    fn416648   3.722   0.013   3.925  0.3165 -0.0649 -0.3263
 2514ntf    fn416649   3.539   0.086   3.983 -0.4425  0.0695  0.0866
 2514ntf    fn416650   3.558  -0.002   3.801 -0.0858 -0.1939  0.4308
 2515ntf    cn116651   5.912   6.560   5.718 -0.0000  0.3027 -0.1961
 2515ntf    sn216652   5.836   6.633   5.570 -0.0231  0.1406 -0.2640
 2515ntf    nn316653   5.683   6.629   5.606 -0.2235 -0.0486 -1.1044
 2515ntf    sn216654   5.596   6.747   5.661  0.0360 -0.3643  0.0206
 2515ntf    cn116655   5.503   6.794   5.512  0.0753  0.2208  0.1744
 2515ntf    fn416656   5.868   6.440   5.752 -0.0233  0.4772  0.4002
 2515ntf    fn416657   6.044   6.557   5.720 -0.0122 -0.1513  0.0649
 2515ntf    fn416658   5.882   6.636   5.822 -0.2229  0.3141 -0.2671
 2515ntf    on516659   5.894   6.765   5.563  0.4801 -0.0871 -0.4396
 2515ntf    on516660   5.865   6.537   5.466 -0.5557  0.3347 -0.5967
 2515ntf    on516661   5.659   6.871   5.700  0.2634 -0.5846  0.3528
 2515ntf    on516662   5.495   6.707   5.756  0.3836 -0.0347  0.5360
 2515ntf    fn416663   5.429   6.900   5.535 -0.0361  0.2359 -0.2428
 2515ntf    fn416664   5.581   6.824   5.409 -0.4564  0.1138 -0.2614
 2515ntf    fn416665   5.425   6.697   5.468  0.0380  0.0519  0.6165
 2516ntf    cn116666   2.268   0.309   5.126 -0.3750 -0.0984 -0.4321
 2516ntf    sn216667   2.224   0.431   4.999  0.0645  0.1402 -0.3566
 2516ntf    nn316668   2.344   0.531   5.016  0.2635 -0.1767  0.1312
 2516ntf    sn216669   2.355   0.649   5.119 -0.0772  0.1100 -0.1556
 2516ntf    cn116670   2.314   0.782   5.003 -0.1189  0.0666 -0.1911
 2516ntf    fn416671   2.170   0.224   5.149 -0.4876  0.1844  0.1489
 2516ntf    fn416672   2.370   0.232   5.089  0.0604  0.2224  0.0814
 2516ntf    fn416673   2.301   0.373   5.237  0.1448  0.0389 -0.6636
 2516ntf    on516674   2.256   0.352   4.883  0.4273  0.2043 -0.3026
 2516ntf    on516675   2.089   0.468   5.034  0.0305 -0.1140 -0.2164
 2516ntf    on516676   2.494   0.671   5.153 -0.1082 -0.5366  0.4340
 2516ntf    on516677   2.259   0.662   5.226  0.1495  0.4349  0.0089
 2516ntf    fn416678   2.199   0.763   4.940 -0.2993 -0.4167  0.2803
 2516ntf    fn416679   2.297   0.897   5.066 -0.7375  0.1124 -0.4304
 2516ntf    fn416680   2.412   0.804   4.917 -0.0698 -0.2310 -0.2132
 2517ntf    cn116681   3.232   5.979   6.104 -0.1460 -0.1116 -0.2163
 2517ntf    sn216682   3.256   6.142   6.027 -0.0008 -0.0167  0.0269
 2517ntf    nn316683   3.368   6.195   6.123 -0.0991  0.0253  0.1193
 2517ntf    sn216684   3.350   6.280   6.254 -0.1868  0.6301 -0.2830
 2517ntf    cn116685   3.381   6.448   6.193 -0.2458  0.8010  0.1585
 2517ntf    fn416686   3.177   5.983   6.225  0.1173  0.0300 -0.0999
 2517ntf    fn416687   3.164   5.888   6.036  0.2778 -0.5252 -0.0922
 2517ntf    fn416688   3.353   5.927   6.115 -0.1742 -0.1937 -0.2969
 2517ntf    on516689   3.300   6.115   5.893  0.1820 -0.2374  0.1315
 2517ntf    on516690   3.127   6.206   6.039  0.2310  0.3772  0.4232
 2517ntf    on516691   3.456   6.265   6.350 -0.3677  0.3687 -0.1211
 2517ntf    on516692   3.214   6.286   6.301 -0.0512  0.0845  0.1903
 2517ntf    fn416693   3.507   6.476   6.168 -0.1857 -0.2307 -0.7454
 2517ntf    fn416694   3.306   6.456   6.084  0.2057  0.4883 -0.1757
 2517ntf    fn416695   3.340   6.547   6.272 -0.0001  0.7473  0.3554
 2518ntf    cn116696   0.023   3.569   2.782  0.1093  0.0352 -0.1549
 2518ntf    sn216697  -0.154   3.540   2.811  0.1065  0.3906  0.1894
 2518ntf    nn316698  -0.197   3.691   2.814  0.1528  0.4040  0.1794
 2518ntf    sn216699  -0.312   3.756   2.729  0.1016  0.1556  0.0574
 2518ntf    cn116700  -0.327   3.917   2.813  0.0064 -0.1007  0.5326
 2518ntf    fn416701   0.052   3.597   2.656 -0.0980  0.4957 -0.1018
 2518ntf    fn416702   0.083   3.665   2.850  0.1417  0.0887 -0.2595
 2518ntf    fn416703   0.089   3.460   2.820 -0.4240 -0.2803 -0.1192
 2518ntf    on516704  -0.200   3.456   2.703 -0.2128  0.5349  0.2110
 2518ntf    on516705  -0.146   3.481   2.942  0.0487 -0.0720 -0.0152
 2518ntf    on516706  -0.435   3.683   2.743  0.2952 -0.0983  0.4666
 2518ntf    on516707  -0.270   3.792   2.596  0.3299  0.1348  0.1224
 2518ntf    fn416708  -0.426   3.987   2.762  0.1343 -0.3266 -0.0323
 2518ntf    fn416709  -0.340   3.910   2.944 -0.4969 -0.3688  0.4699
 2518ntf    fn416710  -0.219   3.993   2.801 -0.0760  0.0035  0.4446
 2519ntf    cn116711   3.784   4.535   2.323 -0.0659 -0.1213  0.3100
 2519ntf    sn216712   3.700   4.692   2.286  0.0967 -0.0905  0.0665
 2519ntf    nn316713   3.820   4.785   2.325  0.0367  0.0145  0.0022
 2519ntf    sn216714   3.848   4.937   2.295  0.4422 -0.0573  0.0135
 2519ntf    cn116715   4.013   4.919   2.221  0.3764 -0.0674 -0.1310
 2519ntf    fn416716   3.809   4.517   2.452  0.0470 -0.4002  0.2493
 2519ntf    fn416717   3.713   4.428   2.291  0.3354 -0.3965  0.3316
 2519ntf    fn416718   3.905   4.513   2.274  0.0950  0.3123  0.5064
 2519ntf    on516719   3.682   4.677   2.144 -0.0923 -0.4763  0.1294
 2519ntf    on516720   3.588   4.683   2.378  0.0896 -0.2618  0.0414
 2519ntf    on516721   3.881   5.015   2.412 -0.0291  0.3146 -0.1030
 2519ntf    on516722   3.762   5.000   2.199 -0.3024 -0.4123  0.4390
 2519ntf    fn416723   4.014   4.883   2.094  0.3733  0.2375 -0.2185
 2519ntf    fn416724   4.081   5.033   2.229  0.0431  0.1302 -0.1001
 2519ntf    fn416725   4.096   4.833   2.278  0.1016 -0.1623  0.1314
 2520ntf    cn116726   0.093   4.092   0.868  0.1095  0.3168 -0.0536
 2520ntf    sn216727   0.229   4.086   0.989  0.1403 -0.5078 -0.1215
 2520ntf    nn316728   0.302   3.951   0.955  0.9706 -0.1305  0.1292
 2520ntf    sn216729   0.255   3.809   1.001 -0.0048  0.1856  0.1429
 2520ntf    cn116730   0.359   3.794   1.150 -0.3872 -0.1191  0.3825
 2520ntf    fn416731   0.056   3.973   0.825  0.9426  0.0608 -0.0847
 2520ntf    fn416732  -0.016   4.140   0.926  0.4135 -0.0080  0.8082
 2520ntf    fn416733   0.122   4.158   0.757 -0.3196  0.2613 -0.1995
 2520ntf    on516734   0.317   4.195   0.955 -0.0522 -0.1293  0.5756
 2520ntf    on516735   0.164   4.092   1.118 -0.2327  0.3821 -0.3396
 2520ntf    on516736   0.309   3.701   0.922 -0.1112 -0.2413  0.6412
 2520ntf    on516737   0.120   3.783   1.047 -0.0506  0.3364  0.0915
 2520ntf    fn416738   0.310   3.696   1.225 -0.5737  0.3336  0.8599
 2520ntf    fn416739   0.487   3.771   1.125 -0.4383  0.1163 -0.1087
 2520ntf    fn416740   0.351   3.904   1.224  0.1401  0.4024 -0.3272
 2521ntf    cn116741   1.362   2.850   5.001  0.3346  0.2173  0.3482
 2521ntf    sn216742   1.518   2.913   4.931  0.3081  0.1177  0.1977
 2521ntf    nn316743   1.585   2.962   5.065  0.1367  0.1239  0.2816
 2521ntf    sn216744   1.687   2.891   5.160  0.1022 -0.2064  0.0729
 2521ntf    cn116745   1.846   2.938   5.084  0.1570  0.0809  0.3687
 2521ntf    fn416746   1.281   2.939   5.056 -0.0331  0.1713 -0.1132
 2521ntf    fn416747   1.281   2.795   4.912  0.0873  0.4900  0.4018
 2521ntf    fn416748   1.389   2.760   5.094  0.8601  0.2566  0.2376
 2521ntf    on516749   1.576   2.794   4.875  0.4101  0.4830 -0.4822
 2521ntf    on516750   1.481   3.021   4.843  0.0515  0.1736  0.3731
 2521ntf    on516751   1.692   2.746   5.159  0.6772 -0.1910  0.1059
 2521ntf    on516752   1.695   2.956   5.288  0.0673  0.0265 -0.0423
 2521ntf    fn416753   1.955   2.885   5.137  0.2070 -0.1537  0.0275
 2521ntf    fn416754   1.846   2.906   4.956 -0.1750  0.1366  0.3532
 2521ntf    fn416755   1.865   3.068   5.099 -0.3848  0.3109 -0.8412
 2522ntf    cn116756   0.040   4.516   3.041  0.5446 -0.4979  0.0588
 2522ntf    sn216757  -0.011   4.408   3.178 -0.1138 -0.0163  0.2018
 2522ntf    nn316758  -0.138   4.478   3.237 -0.3678 -0.3586  0.0655
 2522ntf    sn216759  -0.195   4.475   3.383 -0.1261  0.1384  0.1726
 2522ntf    cn116760  -0.095   4.595   3.475  0.1770  0.1443 -0.1641
 2522ntf    fn416761  -0.023   4.494   2.927  0.0876 -0.4130  0.2904
 2522ntf    fn416762   0.039   4.647   3.065 -0.5200 -0.4226 -0.3371
 2522ntf    fn416763   0.166   4.490   3.013  0.6738  0.4879 -0.3417
 2522ntf    on516764  -0.027   4.277   3.118 -0.0726 -0.0309  0.2224
 2522ntf    on516765   0.099   4.428   3.269 -0.1254  0.4910  0.1080
 2522ntf    on516766  -0.181   4.351   3.456 -0.4371  0.0562  0.0952
 2522ntf    on516767  -0.330   4.527   3.385 -0.1896 -0.0077 -0.2526
 2522ntf    fn416768   0.005   4.542   3.545  0.0068  0.6765  0.5024
 2522ntf    fn416769  -0.048   4.684   3.389  0.3986  0.3846  0.1958
 2522ntf    fn416770  -0.165   4.662   3.565  0.3339 -0.4377  0.4027
 2523ntf    cn116771   2.282   6.340   4.416 -0.1670  0.4805  0.5884
 2523ntf    sn216772   2.337   6.425   4.567  0.5677  0.1381  0.5147
 2523ntf    nn316773   2.329   6.302   4.664  0.1411  0.3637  0.7625
 2523ntf    sn216774   2.444   6.214   4.723  0.0902 -0.1394  0.1173
 2523ntf    cn116775   2.393   6.058   4.645 -0.1655 -0.0650  0.1354
 2523ntf    fn416776   2.155   6.301   4.419 -0.1517  0.4097  0.3211
 2523ntf    fn416777   2.299   6.405   4.302 -0.1331 -0.2836  0.1471
 2523ntf    fn416778   2.349   6.225   4.413  0.2231  0.7278 -0.3729
 2523ntf    on516779   2.471   6.465   4.529  0.7933 -0.6238  0.4717
 2523ntf    on516780   2.243   6.532   4.586 -0.0412 -0.2845 -0.0584
 2523ntf    on516781   2.430   6.195   4.866  0.0937  0.1796  0.1592
 2523ntf    on516782   2.576   6.228   4.668 -0.3751  0.4518 -0.8719
 2523ntf    fn416783   2.465   6.021   4.540 -0.0983 -0.2801  0.2563
 2523ntf    fn416784   2.402   5.964   4.738  0.0032 -0.3444 -0.1578
 2523ntf    fn416785   2.267   6.052   4.605 -0.1618 -0.0702  0.1250
 2524ntf    cn116786   5.171   2.895   0.603  0.1384  0.0422  0.3962
 2524ntf    sn216787   5.042   2.801   0.516  0.0640  0.4202  0.0950
 2524ntf    nn316788   5.064   2.656   0.572  0.9434  0.5110 -0.0100
 2524ntf    sn216789   5.119   2.528   0.500 -0.2988 -0.0747  0.0759
 2524ntf    cn116790   4.959   2.443   0.482 -0.1508 -0.2912 -0.2342
 2524ntf    fn416791   5.154   2.888   0.734  0.4218 -0.0509  0.4285
 2524ntf    fn416792   5.293   2.862   0.566 -0.0084  0.2840 -0.3192
 2524ntf    fn416793   5.159   3.024   0.575  0.2224 -0.0039  0.1495
 2524ntf    on516794   4.916   2.861   0.555 -0.4448  0.1680 -1.1102
 2524ntf    on516795   5.085   2.822   0.380  0.2288 -0.4711  0.0026
 2524ntf    on516796   5.195   2.446   0.591 -0.5134  0.1248  0.4382
 2524ntf    on516797   5.177   2.542   0.369  0.1098  0.5079  0.3149
 2524ntf    fn416798   4.898   2.416   0.596  0.2318 -0.4894 -0.0770
 2524ntf    fn416799   4.878   2.518   0.408 -0.2107 -0.3450 -0.2227
 2524ntf    fn416800   4.965   2.324   0.425  0.1092 -0.2450 -0.3043
 2525ntf    cn116801   5.271   5.830   6.024 -0.1361  0.2473  0.1613
 2525ntf    sn216802   5.337   5.896   5.868 -0.1823  0.0025  0.0374
 2525ntf    nn316803   5.362   6.047   5.904  1.2012 -0.2244  0.0707
 2525ntf    sn216804   5.461   6.148   5.835  0.5347  0.2201 -0.2383
 2525ntf    cn116805   5.580   6.169   5.971  0.1665  0.1846  0.0910
 2525ntf    fn416806   5.358   5.815   6.123  0.2008  0.5625 -0.0884
 2525ntf    fn416807   5.173   5.907   6.069 -0.1272  0.3159  0.0631
 2525ntf    fn416808   5.220   5.708   6.015  0.8060 -0.1647  0.2235
 2525ntf    on516809   5.454   5.811   5.861 -0.2759 -0.1818  0.5845
 2525ntf    on516810   5.227   5.882   5.776  0.0793  0.1454 -0.3000
 2525ntf    on516811   5.408   6.282   5.831  0.6221  0.2616 -0.0055
 2525ntf    on516812   5.532   6.099   5.720  0.2394 -0.3101 -0.1984
 2525ntf    fn416813   5.567   6.065   6.051 -0.3235 -0.0736 -0.3134
 2525ntf    fn416814   5.708   6.168   5.938  0.3057  0.0730  0.6270
 2525ntf    fn416815   5.550   6.261   6.060 -0.0584 -0.0556  0.2656
 2526ntf    cn116816   2.598   3.700   0.956  0.4097  0.2215  0.3674
 2526ntf    sn216817   2.674   3.848   1.029  0.1100  0.4367  0.2434
 2526ntf    nn316818   2.675   3.814   1.183  0.0855  0.4127  0.2382
 2526ntf    sn216819   2.774   3.715   1.255 -0.0961 -0.1232 -0.2402
 2526ntf    cn116820   2.881   3.824   1.353 -0.1596 -0.1379 -0.1547
 2526ntf    fn416821   2.679   3.596   0.973  0.0044 -0.1626 -0.0314
 2526ntf    fn416822   2.479   3.667   1.004  0.1142  0.0192 -0.4970
 2526ntf    fn416823   2.586   3.715   0.825  0.4405  0.0074  0.3391
 2526ntf    on516824   2.807   3.855   0.974 -0.2769 -0.3393 -0.8265
 2526ntf    on516825   2.590   3.961   0.999  0.0768  0.0879 -1.0175
 2526ntf    on516826   2.869   3.640   1.178  0.2046 -0.2138  0.2191
 2526ntf    on516827   2.702   3.639   1.354 -0.4445  0.1039 -0.3178
 2526ntf    fn416828   2.948   3.915   1.284 -0.4565 -0.0555 -0.3358
 2526ntf    fn416829   2.813   3.897   1.441 -0.4294 -0.1030 -0.3904
 2526ntf    fn416830   2.967   3.753   1.424 -0.2111  0.0003  0.0469
 2527ntf    cn116831   3.671   2.037   1.929  0.0371 -0.0819 -0.2283
 2527ntf    sn216832   3.732   2.081   1.764 -0.1294 -0.0803 -0.2888
 2527ntf    nn316833   3.614   2.160   1.696 -0.2205  0.1927  0.1887
 2527ntf    sn216834   3.618   2.285   1.601  0.2098  0.0194 -0.0251
 2527ntf    cn116835   3.501   2.233   1.472  0.1569  0.3120 -0.0963
 2527ntf    fn416836   3.599   1.927   1.927  0.3411 -0.2946  0.2933
 2527ntf    fn416837   3.770   2.025   2.017 -0.0038  1.0945 -0.0036
 2527ntf    fn416838   3.588   2.128   1.978  0.1293 -0.0230 -0.1798
 2527ntf    on516839   3.841   2.166   1.803 -0.5565  0.0316  0.6760
 2527ntf    on516840   3.759   1.953   1.703 -0.2576 -0.3295  0.1709
 2527ntf    on516841   3.740   2.301   1.526  0.1065  0.6111 -0.0719
 2527ntf    on516842   3.562   2.402   1.663 -0.3432 -0.3588  0.1989
 2527ntf    fn416843   3.375   2.244   1.511  0.2864  0.2271  0.3562
 2527ntf    fn416844   3.520   2.305   1.363  0.0809  0.0381 -0.2931
 2527ntf    fn416845   3.512   2.104   1.442  0.3479  0.3008  0.0232
 2528ntf    cn116846   1.910   2.794   1.234  0.2330 -0.0909  0.0834
 2528ntf    sn216847   1.900   2.917   1.367 -0.3346  0.0703 -0.1014
 2528ntf    nn316848   1.986   3.037   1.313 -0.0284  0.0955  0.4289
 2528ntf    sn216849   1.948   3.141   1.202  0.1591 -0.4101 -0.1163
 2528ntf    cn116850   1.869   3.268   1.305 -0.1564 -0.0712 -0.7679
 2528ntf    fn416851   1.878   2.672   1.274 -0.2577  0.0200  0.0374
 2528ntf    fn416852   1.820   2.835   1.146  0.2060 -0.2044  0.0580
 2528ntf    fn416853   2.025   2.790   1.169  0.0069 -0.2593 -0.3105
 2528ntf    on516854   1.760   2.946   1.382 -0.3547 -0.3290  0.5264
 2528ntf    on516855   1.963   2.847   1.477  0.1171  0.5481 -0.0515
 2528ntf    on516856   1.857   3.097   1.099 -0.3573 -0.3613  0.3128
 2528ntf    on516857   2.064   3.214   1.158 -0.0932  0.4328  0.5965
 2528ntf    fn416858   1.777   3.218   1.385  0.3846 -0.1861 -0.2088
 2528ntf    fn416859   1.954   3.324   1.390 -0.3594 -0.3292 -0.3965
 2528ntf    fn416860   1.818   3.370   1.237  0.1886  0.3393 -0.4215
 2529ntf    cn116861   5.451   1.179   0.355  0.0798 -0.1567 -0.0632
 2529ntf    sn216862   5.323   1.167   0.484  0.1140  0.2287  0.0054
 2529ntf    nn316863   5.396   1.190   0.622 -0.2910  0.2991  0.2083
 2529ntf    sn216864   5.458   1.090   0.725 -0.2423 -0.0195 -0.1275
 2529ntf    cn116865   5.570   1.199   0.818 -0.1050 -0.0819 -0.2199
 2529ntf    fn416866   5.415   1.150   0.231 -0.3537 -0.2655  0.0844
 2529ntf    fn416867   5.511   1.296   0.340 -0.4589  0.0857 -0.3346
 2529ntf    fn416868   5.553   1.099   0.383  0.0902 -0.1749 -0.1532
 2529ntf    on516869   5.235   1.277   0.452  0.1027  0.2645  0.1583
 2529ntf    on516870   5.271   1.034   0.469 -0.0181  0.2346  0.3898
 2529ntf    on516871   5.554   0.998   0.668 -0.8240 -0.6037 -0.1778
 2529ntf    on516872   5.361   1.037   0.818  0.4072 -0.1067  0.5064
 2529ntf    fn416873   5.644   1.285   0.751 -0.0298 -0.1358 -0.2068
 2529ntf    fn416874   5.502   1.257   0.916  0.0810 -0.7892  0.3407
 2529ntf    fn416875   5.653   1.113   0.877  0.0538  0.2014 -0.0293
 2530ntf    cn116876   5.214   0.283   3.100  0.3961  0.1299  0.0069
 2530ntf    sn216877   5.082   0.162   3.128  0.2564  0.2816  0.0029
 2530ntf    nn316878   4.957   0.256   3.132  0.1562  0.1500  0.0022
 2530ntf    sn216879   4.820   0.268   3.055  0.1173  0.2238  0.0826
 2530ntf    cn116880   4.717   0.158   3.156 -0.2015  0.3265 -0.1290
 2530ntf    fn416881   5.327   0.219   3.074  0.2023 -0.0597 -0.3754
 2530ntf    fn416882   5.191   0.366   2.999  0.0874 -0.1404 -0.1476
 2530ntf    fn416883   5.239   0.368   3.198  0.1412  0.5917 -0.3221
 2530ntf    on516884   5.095   0.080   3.009 -0.0615  0.2953 -0.0427
 2530ntf    on516885   5.110   0.100   3.255  0.1962 -0.5931 -0.3999
 2530ntf    on516886   4.829   0.219   2.920 -0.7827 -0.0785  0.1322
 2530ntf    on516887   4.757   0.396   3.076  0.2651  0.3690 -0.3478
 2530ntf    fn416888   4.746   0.033   3.126 -0.3185  0.2566  0.0446
 2530ntf    fn416889   4.726   0.189   3.285  0.6297 -0.3524 -0.0165
 2530ntf    fn416890   4.586   0.163   3.136 -0.2304 -0.0836 -0.0565
 2531ntf    cn116891   1.693   2.260   4.281  0.0449  0.0338 -0.4469
 2531ntf    sn216892   1.682   2.323   4.452 -0.0329 -0.1434 -0.3866
 2531ntf    nn316893   1.809   2.412   4.428 -0.1725  0.2186  0.2033
 2531ntf    sn216894   1.918   2.450   4.535 -0.1276  0.1440  0.1843
 2531ntf    cn116895   1.972   2.608   4.464 -0.1942  0.0072 -0.1750
 2531ntf    fn416896   1.705   2.354   4.189 -0.3543 -0.1622 -0.7001
 2531ntf    fn416897   1.789   2.171   4.268  0.0657 -0.0955  0.4941
 2531ntf    fn416898   1.584   2.189   4.256  0.0219  0.0542 -0.4059
 2531ntf    on516899   1.556   2.391   4.439  0.1162  0.3016  0.4548
 2531ntf    on516900   1.696   2.204   4.533 -0.6715 -0.1689 -0.3056
 2531ntf    on516901   2.032   2.363   4.536  0.0870  0.4103 -0.4403
 2531ntf    on516902   1.862   2.488   4.662 -0.6350  0.1315 -0.0301
 2531ntf    fn416903   2.094   2.639   4.507 -0.0349 -0.4923 -0.2558
 2531ntf    fn416904   1.990   2.610   4.333 -0.4440  0.8059 -0.2067
 2531ntf    fn416905   1.889   2.710   4.484  0.1534  0.2433  0.0872
 2532ntf    cn116906   4.477   0.212   5.707 -0.1859  0.4522 -0.4125
 2532ntf    sn216907   4.478   0.040   5.647 -0.4834  0.3230 -0.0519
 2532ntf    nn316908   4.507   0.055   5.493  0.3214 -0.0964  0.0518
 2532ntf    sn216909   4.403   0.072   5.376 -0.0732  0.0757  0.4234
 2532ntf    cn116910   4.505   0.183   5.274 -0.0584 -0.3045  0.0224
 2532ntf    fn416911   4.428   0.234   5.828 -0.2891 -0.1204 -0.3453
 2532ntf    fn416912   4.597   0.267   5.702  0.0497  0.0471  0.5390
 2532ntf    fn416913   4.402   0.289   5.630 -0.5845 -0.2324 -0.7174
 2532ntf    on516914   4.593  -0.017   5.713 -0.3631  0.2086 -0.3586
 2532ntf    on516915   4.348  -0.013   5.680 -0.0646 -0.7807 -0.1512
 2532ntf    on516916   4.294   0.163   5.400 -0.5043 -0.1925 -0.4968
 2532ntf    on516917   4.383  -0.051   5.303 -0.7111  0.6288 -0.3446
 2532ntf    fn416918   4.435   0.230   5.173 -0.4066 -0.0646  0.3720
 2532ntf    fn416919   4.566   0.287   5.329 -0.5937  0.0127  0.0233
 2532ntf    fn416920   4.601   0.112   5.217  0.0123 -0.0609 -0.1640
 2533ntf    cn116921   3.307   0.067   4.456  0.1822 -0.3095 -0.1562
 2533ntf    sn216922   3.180   0.178   4.522  0.3858  0.0211 -0.3123
 2533ntf    nn316923   3.164   0.268   4.395 -0.0576  0.0490 -0.2399
 2533ntf    sn216924   3.241   0.403   4.371  0.3131 -0.1203 -0.0124
 2533ntf    cn116925   3.138   0.501   4.258  0.2100 -0.1882  0.0230
 2533ntf    fn416926   3.260  -0.012   4.361 -0.5466  0.3644 -0.3692
 2533ntf    fn416927   3.408   0.134   4.402  0.5346 -0.1693  0.6576
 2533ntf    fn416928   3.368  -0.006   4.548  0.6957  0.8358  0.4346
 2533ntf    on516929   3.073   0.084   4.547  0.7180 -0.1265  0.6191
 2533ntf    on516930   3.254   0.232   4.633  0.0866  0.3539 -0.2717
 2533ntf    on516931   3.355   0.385   4.284 -0.4183  0.4257 -1.1042
 2533ntf    on516932   3.260   0.487   4.486 -0.0230  0.1484 -0.1523
 2533ntf    fn416933   3.201   0.613   4.228  0.2500 -0.1952  0.0833
 2533ntf    fn416934   3.119   0.445   4.139 -0.1277 -0.1296  0.0463
 2533ntf    fn416935   3.023   0.540   4.311  0.2065 -0.4016  0.1728
 2534ntf    cn116936   6.031   4.189   6.284 -0.1160 -0.1607  0.1315
 2534ntf    sn216937   6.162   4.200   6.158 -0.2019 -0.2157  0.0381
 2534ntf    nn316938   6.113   4.082   6.068 -0.0706 -0.0905 -0.1975
 2534ntf    sn216939   6.166   3.934   6.066  0.1347 -0.0211  0.2262
 2534ntf    cn116940   6.274   3.947   5.921  0.0272  0.3650  0.1813
 2534ntf    fn416941   6.035   4.075   6.349 -0.4129  0.2149  0.8243
 2534ntf    fn416942   6.050   4.283   6.376  0.8785 -0.3531  0.1382
 2534ntf    fn416943   5.909   4.190   6.233 -0.1000  0.0048  0.0962
 2534ntf    on516944   6.130   4.325   6.092 -0.4588 -0.3061 -0.0093
 2534ntf    on516945   6.292   4.184   6.217 -0.4372 -0.5061  0.4828
 2534ntf    on516946   6.066   3.835   6.034  0.4407 -0.2512 -0.0111
 2534ntf    on516947   6.256   3.900   6.174  0.0147  0.0036  0.3358
 2534ntf    fn416948   6.374   3.860   5.921 -0.3843 -0.1114 -0.4123
 2534ntf    fn416949   6.203   3.931   5.811  0.3858 -0.0880  0.0139
 2534ntf    fn416950   6.334   4.065   5.915  0.0595  0.3665  0.4954
 2535ntf    cn116951   4.774   4.852   0.994 -0.3385 -0.2385  0.2225
 2535ntf    sn216952   4.909   4.748   1.058  0.0513  0.1344  0.0145
 2535ntf    nn316953   4.846   4.702   1.194  0.0288  0.2279  0.0352
 2535ntf    sn216954   4.769   4.567   1.218  0.0311  0.2112 -0.0493
 2535ntf    cn116955   4.910   4.474   1.284 -0.0564  0.0371 -0.1076
 2535ntf    fn416956   4.811   4.919   0.886 -0.2368 -0.5120  0.0873
 2535ntf    fn416957   4.667   4.781   0.965 -0.2885 -0.3314  0.2647
 2535ntf    fn416958   4.742   4.941   1.086  0.2793  0.1892  0.0327
 2535ntf    on516959   4.922   4.648   0.954 -0.0397  0.1195  0.0176
 2535ntf    on516960   5.021   4.838   1.073  0.3663 -0.1760 -0.4389
 2535ntf    on516961   4.732   4.493   1.100 -0.1355 -0.0739  0.1812
 2535ntf    on516962   4.677   4.572   1.329  0.1171  0.5469  0.0108
 2535ntf    fn416963   5.000   4.452   1.190  0.0074 -0.1384 -0.0055
 2535ntf    fn416964   4.979   4.523   1.386 -0.3943 -0.1996  0.2377
 2535ntf    fn416965   4.879   4.354   1.329  0.2569 -0.1754 -0.4446
 2536ntf    cn116966   0.121   2.445   2.069 -0.0461 -0.0743 -0.0107
 2536ntf    sn216967  -0.005   2.517   1.961  0.2887  0.1358 -0.2618
 2536ntf    nn316968  -0.057   2.638   2.046  0.2089 -0.1953  0.1629
 2536ntf    sn216969  -0.185   2.647   2.137  0.2394  0.1286  0.1748
 2536ntf    cn116970  -0.144   2.794   2.236 -0.0897  0.3226  0.0231
 2536ntf    fn416971   0.220   2.522   2.113 -0.2414  0.4473 -0.4838
 2536ntf    fn416972   0.068   2.376   2.169  0.1078  0.4064  0.4059
 2536ntf    fn416973   0.187   2.352   2.001  0.0260  0.0838 -0.1571
 2536ntf    on516974   0.069   2.574   1.851  0.1520  0.1093 -0.3675
 2536ntf    on516975  -0.099   2.410   1.940 -0.1336  0.3873  0.3185
 2536ntf    on516976  -0.193   2.550   2.243  0.3361 -0.3089 -0.2174
 2536ntf    on516977  -0.309   2.685   2.074  0.2670 -0.3986 -0.1992
 2536ntf    fn416978  -0.161   2.904   2.164  0.1574 -0.0118 -0.5449
 2536ntf    fn416979  -0.229   2.813   2.336 -0.0898  0.2137  0.0435
 2536ntf    fn416980  -0.024   2.789   2.293 -0.3071 -0.3117  0.4318
 2537ntf    cn116981   2.471   6.757   3.350  0.2603  0.1450 -0.0104
 2537ntf    sn216982   2.346   6.771   3.481 -0.0699 -0.2161 -0.2847
 2537ntf    nn316983   2.426   6.844   3.594  0.5622 -0.0632 -0.8273
 2537ntf    sn216984   2.471   6.995   3.596  0.3229  0.0018 -0.0729
 2537ntf    cn116985   2.358   7.041   3.731  0.3806 -0.1943  0.0432
 2537ntf    fn416986   2.418   6.704   3.241  0.0101 -0.0884  0.2242
 2537ntf    fn416987   2.524   6.870   3.306  0.2185  0.2668  0.2522
 2537ntf    fn416988   2.570   6.677   3.383  0.1071 -0.0690 -0.0696
 2537ntf    on516989   2.236   6.849   3.430  0.3067  0.5192  0.0202
 2537ntf    on516990   2.312   6.636   3.520  0.5568 -0.3221 -0.0864
 2537ntf    on516991   2.441   7.082   3.485 -0.1016 -0.1652 -0.0927
 2537ntf    on516992   2.602   7.004   3.654  0.3822 -0.5349 -0.1172
 2537ntf    fn416993   2.370   7.170   3.759 -0.1940 -0.0037 -0.5544
 2537ntf    fn416994   2.233   7.017   3.694  0.4278 -0.4344  0.0447
 2537ntf    fn416995   2.379   6.969   3.840 -0.2574 -0.1953  0.1675
 2538ntf    cn116996   3.570   3.940   0.344  0.0734  0.0647  0.1452
 2538ntf    sn216997   3.655   4.033   0.475  0.3212  0.0118  0.0239
 2538ntf    nn316998   3.698   4.167   0.406  0.6577 -0.0419  0.1321
 2538ntf    sn216999   3.655   4.316   0.430  0.2180 -0.1115 -0.2181
 2538ntf    cn117000   3.517   4.335   0.313  0.0142 -0.1971  0.0073
 2538ntf    fn417001   3.459   4.000   0.304  0.3603  0.0597 -0.6768
 2538ntf    fn417002   3.647   3.926   0.237 -0.2688 -0.0838 -0.0817
 2538ntf    fn417003   3.544   3.817   0.384 -0.4496  0.1647  0.1269
 2538ntf    on517004   3.552   4.041   0.576  0.2604  0.2497 -0.0560
 2538ntf    on517005   3.765   3.943   0.496  0.1721 -0.2626 -0.3553
 2538ntf    on517006   3.757   4.406   0.382  0.0338 -0.1337 -0.6617
 2538ntf    on517007   3.602   4.345   0.561  0.2951  0.4468 -0.3085
 2538ntf    fn417008   3.539   4.271   0.200 -0.3006  0.1168 -0.2348
 2538ntf    fn417009   3.404   4.287   0.362  0.2619 -0.5993  0.1851
 2538ntf    fn417010   3.483   4.459   0.280  0.2786 -0.1318 -0.0264
 2539ntf    cn117011   3.333   6.081   2.153 -0.0843 -0.0217 -0.0167
 2539ntf    sn217012   3.514   6.097   2.151 -0.0760 -0.1206 -0.0549
 2539ntf    nn317013   3.556   5.964   2.223  0.2630  0.0915  0.1408
 2539ntf    sn217014   3.657   5.956   2.343  0.0682 -0.1058  0.2921
 2539ntf    cn117015   3.541   5.955   2.483 -0.2694  0.2628  0.0188
 2539ntf    fn417016   3.279   6.087   2.274 -0.1003 -0.0297 -0.0236
 2539ntf    fn417017   3.261   6.176   2.095 -0.3751 -0.4672 -0.3932
 2539ntf    fn417018   3.295   5.965   2.102  0.2734 -0.1668  0.0467
 2539ntf    on517019   3.539   6.089   2.009  0.0973  0.5298 -0.0617
 2539ntf    on517020   3.539   6.219   2.223 -0.4674 -0.0225 -0.0832
 2539ntf    on517021   3.736   6.075   2.367  0.3882 -0.3793  0.5979
 2539ntf    on517022   3.719   5.827   2.354  0.6440  0.1025 -0.4407
 2539ntf    fn417023   3.496   5.832   2.500 -0.4071  0.3462  0.2648
 2539ntf    fn417024   3.595   5.990   2.598 -0.0844 -0.3730  0.1295
 2539ntf    fn417025   3.437   6.035   2.466 -0.2620  0.3592  0.4159
 2540ntf    cn117026   1.130   5.737   3.161  0.3422 -0.0666 -0.1841
 2540ntf    sn217027   1.263   5.857   3.129  0.2437  0.0928 -0.0004
 2540ntf    nn317028   1.272   5.907   3.278 -0.6390 -0.3671  0.2164
 2540ntf    sn217029   1.208   6.034   3.343 -0.1524  0.1827 -0.3663
 2540ntf    cn117030   1.317   6.173   3.301  0.3030 -0.1322 -0.2266
 2540ntf    fn417031   1.142   5.661   3.268  0.1173  0.0295 -0.0896
 2540ntf    fn417032   1.019   5.807   3.183  0.5695  0.2582 -0.0663
 2540ntf    fn417033   1.098   5.669   3.052 -0.0736  0.2022 -0.2338
 2540ntf    on517034   1.371   5.769   3.095  0.4742  0.3006  0.1918
 2540ntf    on517035   1.199   5.946   3.035  0.0758  0.6314  0.6152
 2540ntf    on517036   1.213   6.026   3.487  0.2776 -0.1352 -0.4002
 2540ntf    on517037   1.082   6.085   3.295 -0.3569  0.3448  0.3280
 2540ntf    fn417038   1.406   6.145   3.207  0.0533  0.2227 -0.5730
 2540ntf    fn417039   1.255   6.283   3.261  0.0866 -0.3305 -0.4348
 2540ntf    fn417040   1.388   6.198   3.410 -0.4199  0.1897  0.1738
 2541ntf    cn117041   1.882   4.741   5.622 -0.0639  0.0202 -0.0674
 2541ntf    sn217042   1.726   4.650   5.601 -0.0256 -0.0706  0.0418
 2541ntf    nn317043   1.766   4.551   5.486 -0.0006  0.0263 -0.0339
 2541ntf    sn217044   1.756   4.394   5.489  0.4696 -0.0042 -0.0102
 2541ntf    cn117045   1.930   4.342   5.498  0.4462 -0.0612  0.1091
 2541ntf    fn417046   1.907   4.809   5.511  0.3716  0.4104  0.2659
 2541ntf    fn417047   1.868   4.823   5.725  0.0382 -0.3519  0.2430
 2541ntf    fn417048   1.985   4.664   5.652  0.4622  0.7153 -0.0668
 2541ntf    on517049   1.692   4.595   5.729  0.1170 -0.2203  0.0152
 2541ntf    on517050   1.633   4.748   5.550  0.1275  0.1553  0.1946
 2541ntf    on517051   1.707   4.338   5.366  0.3111  0.6592 -0.2520
 2541ntf    on517052   1.701   4.339   5.611  0.6585  0.0672  0.1078
 2541ntf    fn417053   1.939   4.214   5.529  0.2475 -0.0362  0.2729
 2541ntf    fn417054   1.996   4.354   5.384  0.1274  0.5584 -0.0148
 2541ntf    fn417055   2.003   4.411   5.584  0.4951 -0.2060  0.1839
 2542ntf    cn117056   5.979   1.933   0.788  0.3331  0.2485 -0.3341
 2542ntf    sn217057   6.004   1.762   0.843 -0.2776  0.2820  0.0653
 2542ntf    nn317058   5.863   1.740   0.908 -0.3467 -0.2916 -0.2734
 2542ntf    sn217059   5.746   1.648   0.855 -0.5630 -0.0404 -0.2328
 2542ntf    cn117060   5.751   1.521   0.984  0.1160 -0.0966 -0.3105
 2542ntf    fn417061   5.931   2.013   0.883  0.1979 -0.0370 -0.1609
 2542ntf    fn417062   6.093   1.987   0.749  0.5760  0.0151  0.0391
 2542ntf    fn417063   5.901   1.949   0.683 -0.0304  0.2027 -0.0739
 2542ntf    on517064   6.029   1.694   0.718  0.0088 -0.6620  0.6257
 2542ntf    on517065   6.114   1.780   0.934 -0.0773 -0.3471 -0.0429
 2542ntf    on517066   5.763   1.571   0.734 -0.5999 -0.1654 -0.1571
 2542ntf    on517067   5.620   1.717   0.855 -0.6626 -0.2219 -0.4957
 2542ntf    fn417068   5.650   1.435   0.981  0.0204 -0.0058  0.1716
 2542ntf    fn417069   5.852   1.436   0.974  0.0320 -0.2496  0.1301
 2542ntf    fn417070   5.752   1.577   1.104  0.0762  0.1089 -0.4055
 2543ntf    cn117071   3.254   3.126   3.381 -0.3263 -0.2406 -0.2427
 2543ntf    sn217072   3.320   3.076   3.543 -0.0085  0.0219 -0.2922
 2543ntf    nn317073   3.198   3.101   3.638  0.2177  0.1379 -0.0294
 2543ntf    sn217074   3.146   3.002   3.748  0.3055  0.1140 -0.0091
 2543ntf    cn117075   3.103   3.120   3.880 -0.3872 -0.1652  0.0212
 2543ntf    fn417076   3.140   3.063   3.358 -0.4189 -0.3167  0.4174
 2543ntf    fn417077   3.220   3.254   3.386 -0.2772 -0.2233 -0.3510
 2543ntf    fn417078   3.335   3.104   3.279 -0.0441 -0.4606  0.0264
 2543ntf    on517079   3.353   2.937   3.528  0.5607  0.2045 -0.8354
 2543ntf    on517080   3.430   3.168   3.564 -0.0017 -0.1031  0.2165
 2543ntf    on517081   3.247   2.924   3.815  0.4948 -0.1435 -0.5923
 2543ntf    on517082   3.018   2.942   3.720  0.5242 -0.4008  0.0826
 2543ntf    fn417083   3.044   3.229   3.833  0.5710  0.2853 -0.1630
 2543ntf    fn417084   3.028   3.072   3.978 -0.0834  0.1689  0.4253
 2543ntf    fn417085   3.213   3.162   3.942 -0.4941  0.2837 -0.0897
 2544ntf    cn117086   3.543   1.669   2.104 -0.0535  0.3596  0.2324
 2544ntf    sn217087   3.677   1.632   2.220  0.0656 -0.0098 -0.0204
 2544ntf    nn317088   3.604   1.663   2.356  0.3238  0.1475  0.0837
 2544ntf    sn217089   3.517   1.572   2.450  0.1373  0.0241 -0.2080
 2544ntf    cn117090   3.637   1.514   2.573 -0.2659  0.0750  0.2115
 2544ntf    fn417091   3.574   1.634   1.980  0.4430 -0.0019  0.4602
 2544ntf    fn417092   3.435   1.597   2.131  0.0246  0.2480  0.2456
 2544ntf    fn417093   3.508   1.796   2.118 -0.0246  0.4026 -0.0707
 2544ntf    on517094   3.717   1.496   2.191  0.2791 -0.0209  0.3160
 2544ntf    on517095   3.773   1.736   2.190  0.4280 -0.3436 -0.0308
 2544ntf    on517096   3.463   1.450   2.395  0.2819 -0.1087 -0.0575
 2544ntf    on517097   3.432   1.646   2.540 -0.1836 -0.4968 -0.0759
 2544ntf    fn417098   3.732   1.441   2.517 -0.5598 -0.0021 -0.1895
 2544ntf    fn417099   3.702   1.613   2.633  0.0091 -0.1396  0.2711
 2544ntf    fn417100   3.587   1.439   2.670 -0.3487 -0.2160 -0.0550
 2545ntf    cn117101   0.148   6.754   1.782  0.1988 -0.0604  0.0567
 2545ntf    sn217102   0.116   6.696   1.951  0.1053 -0.0773  0.0331
 2545ntf    nn317103  -0.040   6.712   1.964  0.0634 -0.3737 -0.0944
 2545ntf    sn217104  -0.143   6.617   2.035 -0.1731  0.0113  0.0856
 2545ntf    cn117105  -0.223   6.720   2.161  0.1272 -0.2061  0.4552
 2545ntf    fn417106   0.277   6.777   1.766  0.1392  0.3265  0.1133
 2545ntf    fn417107   0.100   6.668   1.693 -0.2816  0.6613 -0.3989
 2545ntf    fn417108   0.094   6.874   1.763  0.2635 -0.0061  0.2087
 2545ntf    on517109   0.171   6.563   1.954  0.1773 -0.0546 -0.2774
 2545ntf    on517110   0.182   6.800   2.027 -0.2072  0.2631 -0.1576
 2545ntf    on517111  -0.085   6.513   2.118 -0.0381  0.5567  0.6799
 2545ntf    on517112  -0.258   6.577   1.957 -0.2081 -0.2282  0.2581
 2545ntf    fn417113  -0.330   6.668   2.219 -0.0467  0.0081  0.3249
 2545ntf    fn417114  -0.141   6.758   2.258 -0.1880  0.2074  0.5625
 2545ntf    fn417115  -0.269   6.832   2.109  0.3751 -0.2066  0.2304
 2546ntf    cn117116   0.848   5.056   1.807 -0.0554 -0.4054  0.0969
 2546ntf    sn217117   0.796   5.058   1.982  0.0050  0.0187  0.1118
 2546ntf    nn317118   0.861   4.924   2.033 -0.0845  0.2051  0.7103
 2546ntf    sn217119   0.788   4.791   2.072  0.0289  0.0334  0.3400
 2546ntf    cn117120   0.797   4.800   2.253  0.1421 -0.2190  0.3475
 2546ntf    fn417121   0.809   4.940   1.756 -0.6513 -0.0820 -0.1877
 2546ntf    fn417122   0.789   5.154   1.742 -0.1543 -0.5932 -0.0975
 2546ntf    fn417123   0.979   5.077   1.798 -0.0772 -0.5450 -0.5912
 2546ntf    on517124   0.859   5.174   2.039 -0.3004  0.2581 -0.0408
 2546ntf    on517125   0.652   5.059   1.979  0.0142  0.0500 -0.4389
 2546ntf    on517126   0.873   4.680   2.038 -0.1181 -0.2168  0.7807
 2546ntf    on517127   0.648   4.773   2.040  0.0081  0.1301  0.3766
 2546ntf    fn417128   0.920   4.795   2.301  0.2893  0.3641  0.0392
 2546ntf    fn417129   0.741   4.911   2.300  0.4726  0.2901 -0.4524
 2546ntf    fn417130   0.731   4.703   2.315 -0.4024 -0.1045 -0.0495
 2547ntf    cn117131   4.039   6.344   3.627  0.2265  0.2593  0.0662
 2547ntf    sn217132   3.968   6.219   3.739  0.2196  0.1309 -0.0803
 2547ntf    nn317133   3.859   6.160   3.642 -0.1708 -0.5746  0.7719
 2547ntf    sn217134   3.705   6.190   3.630  0.0310  0.2249  0.0844
 2547ntf    cn117135   3.649   6.024   3.678 -0.1945  0.2321 -0.1553
 2547ntf    fn417136   4.101   6.285   3.526  0.3673  0.0896  0.2495
 2547ntf    fn417137   3.949   6.428   3.577 -0.1406 -0.1790 -0.0205
 2547ntf    fn417138   4.130   6.418   3.687  0.5242 -0.2825  0.2948
 2547ntf    on517139   4.076   6.127   3.762 -0.1569 -0.3554 -0.2416
 2547ntf    on517140   3.922   6.291   3.856  0.5132 -0.2578  0.2780
 2547ntf    on517141   3.657   6.212   3.496  0.0772  0.2911  0.0785
 2547ntf    on517142   3.648   6.275   3.731  0.3795  0.4080  0.1300
 2547ntf    fn417143   3.670   6.003   3.806  0.0115  0.0264 -0.2216
 2547ntf    fn417144   3.518   6.008   3.659 -0.0789 -0.0283 -0.7834
 2547ntf    fn417145   3.712   5.929   3.610 -0.2418 -0.1450  0.3271
 2548ntf    cn117146   5.237   5.157   5.718  0.0128 -0.0854  0.1512
 2548ntf    sn217147   5.180   5.321   5.663 -0.3930 -0.2252  0.1530
 2548ntf    nn317148   5.113   5.286   5.525 -0.3131 -0.2421  0.1184
 2548ntf    sn217149   5.042   5.383   5.424 -0.0718 -0.3995 -0.2051
 2548ntf    cn117150   5.160   5.413   5.289  0.0426 -0.5381 -0.1379
 2548ntf    fn417151   5.145   5.084   5.779 -0.3447  0.5398  0.3674
 2548ntf    fn417152   5.288   5.089   5.618 -0.7226  0.2261 -0.4492
 2548ntf    fn417153   5.337   5.164   5.805  0.2675  0.1116 -0.1536
 2548ntf    on517154   5.089   5.369   5.764  0.0988  0.2387  0.3806
 2548ntf    on517155   5.308   5.385   5.646 -0.2469 -0.3654  0.6990
 2548ntf    on517156   5.023   5.520   5.464  0.0818 -0.3344 -0.3557
 2548ntf    on517157   4.936   5.318   5.351 -0.5571  0.4736 -0.2802
 2548ntf    fn417158   5.281   5.427   5.341 -0.1618 -0.2182  0.2620
 2548ntf    fn417159   5.170   5.327   5.189  0.3510 -0.6537 -0.0103
 2548ntf    fn417160   5.145   5.532   5.233 -0.3482 -0.4978  0.0502
 2549ntf    cn117161   2.435   4.441   2.866  0.0404  0.3255 -0.6885
 2549ntf    sn217162   2.287   4.364   2.936  0.4758  0.1823  0.0877
 2549ntf    nn317163   2.355   4.280   3.050 -0.2979 -0.4272  0.1177
 2549ntf    sn217164   2.394   4.314   3.198  0.0820 -0.0516 -0.0637
 2549ntf    cn117165   2.303   4.187   3.292  0.0276  0.3523  0.4374
 2549ntf    fn417166   2.498   4.503   2.965 -0.3738 -0.2775 -0.0392
 2549ntf    fn417167   2.526   4.360   2.814  0.2939 -0.1480  0.4722
 2549ntf    fn417168   2.400   4.530   2.775 -0.4630  0.2502 -0.5727
 2549ntf    on517169   2.199   4.468   2.985  0.0697 -0.1110 -0.0069
 2549ntf    on517170   2.239   4.275   2.833  0.3459 -0.0871  0.3773
 2549ntf    on517171   2.344   4.442   3.243 -0.2168 -0.0767 -0.3223
 2549ntf    on517172   2.531   4.283   3.230  0.1065  0.7279  0.6274
 2549ntf    fn417173   2.344   4.063   3.272  0.1222  0.3903  0.3975
 2549ntf    fn417174   2.314   4.207   3.422  0.0377  0.4808  0.4173
 2549ntf    fn417175   2.175   4.190   3.259  0.1182  0.3957  0.0817
 2550ntf    cn117176   3.092   3.383   4.190  0.0212  0.1906 -0.0923
 2550ntf    sn217177   3.269   3.392   4.231  0.1445  0.1204 -0.5987
 2550ntf    nn317178   3.272   3.479   4.361  0.3894 -0.0444 -0.4944
 2550ntf    sn217179   3.361   3.606   4.386  0.0969  0.0841 -0.0936
 2550ntf    cn117180   3.255   3.734   4.312  0.0629  0.2093  0.1681
 2550ntf    fn417181   3.025   3.343   4.296  0.1376  0.6027  0.1399
 2550ntf    fn417182   3.051   3.506   4.161 -0.6069 -0.0762 -0.3560
 2550ntf    fn417183   3.073   3.302   4.087 -0.0925  0.1215 -0.0164
 2550ntf    on517184   3.321   3.258   4.245 -0.3847 -0.0126  0.1071
 2550ntf    on517185   3.307   3.462   4.111 -0.2856  0.6102 -0.4536
 2550ntf    on517186   3.489   3.611   4.319  0.1071 -0.0006 -0.0791
 2550ntf    on517187   3.358   3.647   4.525  0.3386 -0.2751  0.0190
 2550ntf    fn417188   3.238   3.712   4.182  0.2717  0.1348  0.1521
 2550ntf    fn417189   3.135   3.736   4.367 -0.0668  0.5297 -0.1191
 2550ntf    fn417190   3.309   3.853   4.331 -0.0644  0.2444  0.3076
 2551ntf    cn117191   3.333   0.607   1.453 -0.1477 -0.4523  0.2840
 2551ntf    sn217192   3.176   0.531   1.402 -0.2684 -0.0985  0.1246
 2551ntf    nn317193   3.179   0.392   1.476 -0.4021  0.0207  0.3545
 2551ntf    sn217194   3.228   0.256   1.416  0.1909  0.2192  0.3807
 2551ntf    cn117195   3.235   0.159   1.570 -0.0662 -0.1305  0.1748
 2551ntf    fn417196   3.338   0.628   1.584  0.2956  0.1090  0.1820
 2551ntf    fn417197   3.432   0.524   1.423 -0.1959 -0.4414  0.0969
 2551ntf    fn417198   3.353   0.721   1.389  0.1163 -0.6500  0.0129
 2551ntf    on517199   3.072   0.617   1.452 -0.3429 -0.0932 -0.0412
 2551ntf    on517200   3.186   0.523   1.259 -0.0233  0.2833  0.1180
 2551ntf    on517201   3.367   0.255   1.380  0.1498  0.6724  0.2071
 2551ntf    on517202   3.134   0.183   1.333  0.9343 -0.1994 -0.1036
 2551ntf    fn417203   3.302   0.045   1.564  0.1126 -0.0097 -0.1647
 2551ntf    fn417204   3.295   0.228   1.665  0.0151 -0.0819  0.0890
 2551ntf    fn417205   3.112   0.138   1.612 -0.0828  0.3875  0.3937
 2552ntf    cn117206   2.797   5.628   4.527  0.0601 -0.1448  0.0972
 2552ntf    sn217207   2.930   5.515   4.475  0.3602  0.1665  0.1800
 2552ntf    nn317208   2.913   5.509   4.319 -0.0226  0.1184  0.2222
 2552ntf    sn217209   2.988   5.594   4.210 -0.0734 -0.2066 -0.0707
 2552ntf    cn117210   2.838   5.634   4.116 -0.0439 -0.1333 -0.0875
 2552ntf    fn417211   2.801   5.746   4.467 -0.2503 -0.5393 -0.7124
 2552ntf    fn417212   2.680   5.575   4.498 -0.1950  0.1651  0.5554
 2552ntf    fn417213   2.809   5.654   4.656  0.5118 -0.2339  0.0770
 2552ntf    on517214   3.044   5.586   4.528  0.4791  0.1303 -0.0252
 2552ntf    on517215   2.895   5.387   4.531 -0.5112  0.4559  0.3087
 2552ntf    on517216   3.073   5.515   4.125  0.5165  0.5788 -0.2242
 2552ntf    on517217   3.031   5.726   4.250 -0.6461 -0.0366  0.0037
 2552ntf    fn417218   2.747   5.705   4.181 -0.1079 -0.2236 -0.0770
 2552ntf    fn417219   2.870   5.706   4.010 -0.1683  0.2467  0.1328
 2552ntf    fn417220   2.777   5.526   4.068  0.1417 -0.3253  0.1072
 2553ntf    cn117221   1.262   4.969   4.477  0.3730  0.2544  0.3527
 2553ntf    sn217222   1.101   5.040   4.521  0.0130 -0.3669  0.0548
 2553ntf    nn317223   1.095   4.969   4.661  0.3670 -0.1833  0.1641
 2553ntf    sn217224   1.019   4.840   4.710 -0.0511  0.0312  0.0843
 2553ntf    cn117225   0.854   4.902   4.754  0.0679  0.1969  0.2948
 2553ntf    fn417226   1.360   5.025   4.546  0.4788  0.0565  0.3638
 2553ntf    fn417227   1.256   4.840   4.506  0.5299  0.1596 -0.0240
 2553ntf    fn417228   1.304   4.983   4.352 -0.2087 -0.3259  0.0858
 2553ntf    on517229   1.116   5.181   4.549  0.7876 -0.5243  0.4719
 2553ntf    on517230   1.011   4.996   4.417 -0.4529  0.6458  0.0153
 2553ntf    on517231   1.069   4.782   4.832  0.3372 -0.1224 -0.1433
 2553ntf    on517232   0.988   4.743   4.608 -0.6651  0.5023 -0.1852
 2553ntf    fn417233   0.872   4.995   4.846 -0.0953  0.1705  0.3532
 2553ntf    fn417234   0.802   4.962   4.648  0.1268 -0.5931 -0.1855
 2553ntf    fn417235   0.772   4.811   4.803  0.2401 -0.0939  0.0467
 2554ntf    cn117236   0.924   3.739   4.336 -0.2347 -0.1718 -0.0907
 2554ntf    sn217237   1.091   3.808   4.350 -0.4022  0.1847  0.1730
 2554ntf    nn317238   1.066   3.961   4.326  0.0930  0.2193 -0.1548
 2554ntf    sn217239   1.031   4.070   4.433 -0.3186 -0.0963  0.0364
 2554ntf    cn117240   1.205   4.105   4.474 -0.1248 -0.4692 -0.4617
 2554ntf    fn417241   0.845   3.775   4.436  0.1466  0.2664  0.0528
 2554ntf    fn417242   0.863   3.773   4.223 -0.1375 -0.0930 -0.1191
 2554ntf    fn417243   0.923   3.607   4.346 -0.4296 -0.1728 -0.1189
 2554ntf    on517244   1.127   3.774   4.486 -0.1950  0.0375  0.0832
 2554ntf    on517245   1.167   3.744   4.245 -0.7990  0.3487 -0.2184
 2554ntf    on517246   0.986   4.026   4.563 -0.1179  1.4159  0.6452
 2554ntf    on517247   0.977   4.194   4.383  0.1439  0.2381  0.3537
 2554ntf    fn417248   1.265   4.007   4.540  0.3542 -0.1978 -0.4954
 2554ntf    fn417249   1.275   4.124   4.363 -0.1744  0.1334 -0.3945
 2554ntf    fn417250   1.222   4.214   4.546 -0.6149 -0.4682 -0.3401
 2555ntf    cn117251   4.498   5.564   6.594 -0.3324 -0.3891 -0.2357
 2555ntf    sn217252   4.636   5.530   6.708 -0.1432 -0.0685 -0.3672
 2555ntf    nn317253   4.603   5.637   6.818  0.0217 -0.0812 -0.3045
 2555ntf    sn217254   4.508   5.638   6.943  0.0191 -0.0673 -0.3065
 2555ntf    cn117255   4.640   5.642   7.068 -0.6018 -0.2567  0.3607
 2555ntf    fn417256   4.380   5.529   6.643 -0.4875  0.3325 -0.0787
 2555ntf    fn417257   4.486   5.693   6.567 -0.6747 -0.4275 -0.2664
 2555ntf    fn417258   4.513   5.513   6.473 -0.2666 -0.4404 -0.2058
 2555ntf    on517259   4.621   5.389   6.730  0.1503 -0.0780 -0.2288
 2555ntf    on517260   4.757   5.570   6.639 -0.0993  0.1372 -0.1724
 2555ntf    on517261   4.435   5.519   6.979  0.0623 -0.0591 -0.1913
 2555ntf    on517262   4.453   5.770   6.961 -0.2407 -0.2178  0.0247
 2555ntf    fn417263   4.691   5.763   7.076  0.4324 -0.6227 -0.3974
 2555ntf    fn417264   4.604   5.596   7.187  0.0719 -0.6913  0.4040
 2555ntf    fn417265   4.738   5.560   7.034 -0.3459  0.1493  0.1090
 2556ntf    cn117266   6.196   6.704   4.996 -0.2565 -0.1801 -0.3411
 2556ntf    sn217267   6.211   6.843   4.881 -0.0775 -0.0876 -0.2064
 2556ntf    nn317268   6.266   6.764   4.757  0.7249 -0.2800  0.2650
 2556ntf    sn217269   6.217   6.750   4.608  0.1875  0.0409  0.4117
 2556ntf    cn117270   6.127   6.593   4.628 -0.0770  0.1996  0.4772
 2556ntf    fn417271   6.313   6.647   5.017 -0.0875 -0.1038 -1.0631
 2556ntf    fn417272   6.145   6.747   5.111  0.2110 -0.3819 -0.0563
 2556ntf    fn417273   6.112   6.612   4.951 -0.2697 -0.4995  0.3243
 2556ntf    on517274   6.081   6.904   4.877  0.1253  0.3606 -0.1164
 2556ntf    on517275   6.310   6.920   4.952 -0.3141 -0.1176  0.1530
 2556ntf    on517276   6.316   6.720   4.508 -0.0097  0.6693  0.0206
 2556ntf    on517277   6.113   6.843   4.571  0.2078 -0.1261 -0.0751
 2556ntf    fn417278   6.050   6.574   4.522  0.6235 -0.6611  0.1096
 2556ntf    fn417279   6.202   6.486   4.650 -0.2025  0.1737  0.7850
 2556ntf    fn417280   6.040   6.599   4.727 -0.6940 -0.2394 -0.0376
 2557ntf    cn117281   0.176   5.762   3.855  0.1279 -0.1912  0.4619
 2557ntf    sn217282   0.303   5.643   3.800 -0.1369 -0.2675  0.0117
 2557ntf    nn317283   0.285   5.649   3.644  0.5373 -0.1834 -0.0635
 2557ntf    sn217284   0.354   5.757   3.553 -0.0471  0.0820 -0.1975
 2557ntf    cn117285   0.279   5.713   3.394  0.3850 -0.1073 -0.3518
 2557ntf    fn417286   0.072   5.738   3.778  0.1862  0.1206  0.2860
 2557ntf    fn417287   0.136   5.748   3.981  0.1560 -0.4052  0.4469
 2557ntf    fn417288   0.207   5.889   3.836 -0.1728 -0.1052  0.5413
 2557ntf    on517289   0.424   5.709   3.844 -0.2645 -0.1148  0.1388
 2557ntf    on517290   0.268   5.518   3.862  0.0448 -0.2887  0.0714
 2557ntf    on517291   0.495   5.731   3.532 -0.0708 -0.3487  0.1371
 2557ntf    on517292   0.317   5.894   3.574  0.0833  0.1089 -0.1399
 2557ntf    fn417293   0.152   5.750   3.388  0.2604 -0.4792 -0.0762
 2557ntf    fn417294   0.348   5.756   3.290  0.6267  0.1037 -0.1048
 2557ntf    fn417295   0.271   5.583   3.372 -0.5062 -0.0191 -0.5683
 2558ntf    cn117296   6.452   4.436   1.345  0.2115 -0.2941  0.0326
 2558ntf    sn217297   6.420   4.285   1.440 -0.3301 -0.1103  0.1462
 2558ntf    nn317298   6.553   4.279   1.523  0.0513 -0.0513 -0.4556
 2558ntf    sn217299   6.685   4.198   1.494  0.1082 -0.2236  0.2777
 2558ntf    cn117300   6.699   4.122   1.659 -0.3306 -0.1407  0.3544
 2558ntf    fn417301   6.461   4.541   1.425  0.2402 -0.3288  0.0752
 2558ntf    fn417302   6.566   4.429   1.278  0.6812 -0.2311  0.8117
 2558ntf    fn417303   6.353   4.449   1.258 -0.0433 -0.3684  0.3136
 2558ntf    on517304   6.308   4.330   1.519 -0.0947  0.4183  0.1888
 2558ntf    on517305   6.391   4.185   1.340  0.0865  0.2214 -0.3132
 2558ntf    on517306   6.799   4.285   1.491 -0.3945  0.4253 -0.2271
 2558ntf    on517307   6.679   4.089   1.400  0.1881  0.4618 -0.5311
 2558ntf    fn417308   6.605   4.032   1.684 -0.6373  0.0012 -0.2520
 2558ntf    fn417309   6.808   4.052   1.681  0.0905  0.3584 -0.1165
 2558ntf    fn417310   6.712   4.209   1.758 -0.2837  0.2080  0.0423
 2559ntf    cn117311   2.639   3.612   5.357  0.1608 -0.0254 -0.4328
 2559ntf    sn217312   2.552   3.665   5.207 -0.3394  0.0588 -0.1186
 2559ntf    nn317313   2.575   3.547   5.106  0.0217  0.2200 -0.2256
 2559ntf    sn217314   2.708   3.513   5.028  0.3547 -0.2772  0.5473
 2559ntf    cn117315   2.656   3.525   4.855  0.5724 -0.1912  0.4873
 2559ntf    fn417316   2.576   3.506   5.407  0.0877  0.2281  0.0150
 2559ntf    fn417317   2.764   3.580   5.329  0.0654 -0.4680 -0.3643
 2559ntf    fn417318   2.649   3.697   5.458 -0.0950 -0.1981 -0.2605
 2559ntf    on517319   2.415   3.667   5.253 -0.0716 -0.1838  0.7048
 2559ntf    on517320   2.595   3.794   5.159  0.2278 -0.2249 -0.3853
 2559ntf    on517321   2.747   3.375   5.042  0.2780 -0.3957 -0.3413
 2559ntf    on517322   2.811   3.612   5.044  0.0075  0.2160 -0.1953
 2559ntf    fn417323   2.748   3.495   4.765  0.6351 -0.2693  0.5776
 2559ntf    fn417324   2.552   3.450   4.822  0.4658  0.1870 -0.0469
 2559ntf    fn417325   2.610   3.644   4.819  0.6794 -0.3235 -0.0984
 2560ntf    cn117326   2.778   6.820   5.718 -0.0634  0.2484  0.0199
 2560ntf    sn217327   2.759   6.719   5.868 -0.0115 -0.0579 -0.1775
 2560ntf    nn317328   2.883   6.756   5.957 -0.1005 -0.5652  0.1578
 2560ntf    sn217329   2.994   6.665   6.021  0.1499 -0.5680 -0.2843
 2560ntf    cn117330   3.117   6.636   5.889  0.4919  0.0338 -0.1022
 2560ntf    fn417331   2.747   6.947   5.739  0.1192  0.3823 -0.5091
 2560ntf    fn417332   2.905   6.816   5.682 -0.3085  0.3647 -0.8896
 2560ntf    fn417333   2.701   6.777   5.619 -0.2494 -0.1372  0.3309
 2560ntf    on517334   2.634   6.769   5.919 -0.4109 -0.3988 -0.8145
 2560ntf    on517335   2.756   6.587   5.811 -0.8780 -0.1908  0.1573
 2560ntf    on517336   2.933   6.540   6.059 -0.1536 -0.2242  0.3623
 2560ntf    on517337   3.061   6.744   6.121 -0.5549 -0.9839  0.5208
 2560ntf    fn417338   3.048   6.597   5.783  0.1389 -0.2122  0.2116
 2560ntf    fn417339   3.184   6.745   5.856  0.0606  0.3704  0.1108
 2560ntf    fn417340   3.193   6.532   5.916  0.3130 -0.1262 -0.2154
 2561ntf    cn117341   0.964   4.273   2.956 -0.0375  0.2080 -0.1488
 2561ntf    sn217342   0.925   4.353   2.797 -0.0355  0.1019 -0.2029
 2561ntf    nn317343   0.792   4.279   2.758  0.1982 -0.4264 -0.0075
 2561ntf    sn217344   0.647   4.339   2.755  0.2929 -0.1970 -0.0035
 2561ntf    cn117345   0.545   4.192   2.788 -0.3735  0.2756  0.0759
 2561ntf    fn417346   1.032   4.350   3.040  0.5457 -0.4214 -0.0340
 2561ntf    fn417347   0.856   4.242   3.025  0.0749  0.2764  0.0581
 2561ntf    fn417348   1.031   4.160   2.944 -0.2432  0.0572  0.1192
 2561ntf    on517349   0.922   4.494   2.828 -0.1571  0.0485  0.0371
 2561ntf    on517350   1.027   4.307   2.707 -0.3690 -0.3111 -0.3694
 2561ntf    on517351   0.601   4.376   2.624  0.1311 -0.1429  0.0683
 2561ntf    on517352   0.606   4.419   2.868 -0.4736 -0.6234  0.0266
 2561ntf    fn417353   0.415   4.210   2.779 -0.3543  0.3336 -0.0868
 2561ntf    fn417354   0.576   4.095   2.704  0.0423  0.3078  0.1882
 2561ntf    fn417355   0.561   4.141   2.909 -0.5811 -0.4185 -0.1849
 2562ntf    cn117356   3.843   0.042   0.937 -0.0571  0.0184  0.0423
 2562ntf    sn217357   3.802   0.211   0.883  0.0383 -0.0697 -0.3132
 2562ntf    nn317358   3.834   0.304   1.006  0.1118  0.1533 -0.5013
 2562ntf    sn217359   3.971   0.372   1.043  0.0708 -0.0031 -0.0628
 2562ntf    cn117360   3.965   0.352   1.224 -0.2578  0.1571 -0.0541
 2562ntf    fn417361   3.970   0.007   0.920 -0.0861 -0.4088  0.6929
 2562ntf    fn417362   3.827   0.020   1.066 -0.0654  0.3621  0.1016
 2562ntf    fn417363   3.772  -0.049   0.872 -0.2612  0.3587 -0.2148
 2562ntf    on517364   3.899   0.227   0.778  0.3627  0.6422  0.0862
 2562ntf    on517365   3.662   0.199   0.850  0.0156 -0.3463 -0.1220
 2562ntf    on517366   3.975   0.515   1.027 -0.3006  0.0564  0.3430
 2562ntf    on517367   4.094   0.307   1.007  0.0338 -0.1425  0.0593
 2562ntf    fn417368   4.073   0.400   1.284 -0.6442  0.0487  0.7429
 2562ntf    fn417369   3.861   0.404   1.286 -0.3167 -0.3720  0.3005
 2562ntf    fn417370   3.960   0.224   1.258 -0.2274  0.1475 -0.0849
 2563ntf    cn117371   6.725   0.018   6.652  0.2642 -0.1270 -0.2565
 2563ntf    sn217372   6.664   0.190   6.644 -0.3975 -0.3383  0.1526
 2563ntf    nn317373   6.800   0.268   6.653 -0.1557 -0.7173 -0.1542
 2563ntf    sn217374   6.886   0.305   6.527 -0.0284 -0.3062  0.0524
 2563ntf    cn117375   7.055   0.311   6.595 -0.2219 -0.0881  0.5166
 2563ntf    fn417376   6.632  -0.075   6.665 -0.2034  0.4011  0.2458
 2563ntf    fn417377   6.797  -0.019   6.547  0.8245 -0.4509  0.2405
 2563ntf    fn417378   6.809   0.005   6.753  0.0261  0.3482  0.0094
 2563ntf    on517379   6.604   0.187   6.513 -0.2824 -0.3544  0.0993
 2563ntf    on517380   6.582   0.206   6.761 -0.2600 -0.2586  0.2375
 2563ntf    on517381   6.868   0.441   6.480 -0.1612 -0.3704 -0.0831
 2563ntf    on517382   6.891   0.203   6.425  0.1474 -0.5575  0.3134
 2563ntf    fn417383   7.149   0.355   6.513 -0.5421  0.0075  0.1942
 2563ntf    fn417384   7.069   0.388   6.702  0.2058  0.5580  0.0061
 2563ntf    fn417385   7.091   0.189   6.630 -0.2716 -0.2965 -0.1352
 2564ntf    cn117386   4.703   3.272   2.942 -0.3225  0.3039 -0.1005
 2564ntf    sn217387   4.830   3.143   2.925 -0.2062  0.3892  0.1167
 2564ntf    nn317388   4.765   3.041   2.825  0.3335  0.0145  0.1450
 2564ntf    sn217389   4.686   2.908   2.855 -0.2139  0.2746 -0.1530
 2564ntf    cn117390   4.749   2.800   2.723  0.3793  0.2097  0.1847
 2564ntf    fn417391   4.749   3.364   3.025  0.4849 -0.1515 -0.0314
 2564ntf    fn417392   4.677   3.329   2.826 -0.4795 -0.1677 -0.3015
 2564ntf    fn417393   4.587   3.233   2.992 -0.0442 -0.2291  0.1383
 2564ntf    on517394   4.946   3.208   2.869 -0.0621  0.1154  0.0960
 2564ntf    on517395   4.849   3.095   3.060  0.1147  0.2650  0.0274
 2564ntf    on517396   4.546   2.928   2.823 -0.2278  0.0517 -0.2303
 2564ntf    on517397   4.715   2.840   2.978 -0.2151  0.3879 -0.0902
 2564ntf    fn417398   4.743   2.855   2.604 -0.3227  0.1590  0.1887
 2564ntf    fn417399   4.875   2.767   2.745  0.1910 -0.4834  0.2793
 2564ntf    fn417400   4.685   2.684   2.732  0.2070  0.2649 -0.3223
 2565ntf    cn117401   5.769   3.217   4.428 -0.0275  0.0096 -0.1673
 2565ntf    sn217402   5.793   3.359   4.317  0.3969  0.1075  0.0477
 2565ntf    nn317403   5.827   3.279   4.186  0.3089 -0.0647  0.1304
 2565ntf    sn217404   5.810   3.321   4.036  0.1919  0.0733  0.1817
 2565ntf    cn117405   5.971   3.267   3.970 -0.0026  0.1124 -0.3282
 2565ntf    fn417406   5.659   3.144   4.411 -0.2385  0.1716  0.4664
 2565ntf    fn417407   5.869   3.133   4.411 -0.0673 -0.0573 -0.0708
 2565ntf    fn417408   5.778   3.257   4.554 -0.1658 -0.4623 -0.0055
 2565ntf    on517409   5.664   3.423   4.311  0.3761  0.0403 -0.2674
 2565ntf    on517410   5.901   3.428   4.382  0.4296 -0.1822  0.3046
 2565ntf    on517411   5.805   3.465   4.023 -0.0052  0.0317 -0.2037
 2565ntf    on517412   5.713   3.232   3.977  0.0956 -0.1401  0.6602
 2565ntf    fn417413   5.962   3.248   3.839 -0.5123  0.2287 -0.3123
 2565ntf    fn417414   6.064   3.356   3.997 -0.0975 -0.0005  0.4017
 2565ntf    fn417415   6.008   3.157   4.035 -0.1506  0.0701 -0.3129
 2566ntf    cn117416   1.258   3.593   2.661  0.2770 -0.1545  0.0582
 2566ntf    sn217417   1.252   3.413   2.640  0.0841 -0.1700  0.2455
 2566ntf    nn317418   1.095   3.410   2.643  0.0611 -0.0638 -0.5373
 2566ntf    sn217419   0.995   3.395   2.523 -0.4478  0.1234 -0.1452
 2566ntf    cn117420   0.918   3.559   2.519  0.0604  0.3560 -0.4775
 2566ntf    fn417421   1.235   3.667   2.554  0.3751 -0.3105 -0.0698
 2566ntf    fn417422   1.179   3.633   2.759  0.4535 -0.3647  0.2871
 2566ntf    fn417423   1.379   3.631   2.701  0.1034  0.3909  0.0767
 2566ntf    on517424   1.311   3.395   2.510 -0.0208 -0.0254  0.1775
 2566ntf    on517425   1.319   3.357   2.755 -0.2415 -0.5744  0.2430
 2566ntf    on517426   0.887   3.307   2.559  0.3389 -0.5157  0.7134
 2566ntf    on517427   1.040   3.383   2.386  0.2393 -0.2452  0.1073
 2566ntf    fn417428   0.838   3.581   2.415 -0.5713 -0.3475 -0.1509
 2566ntf    fn417429   0.853   3.589   2.630  0.0649 -0.0792 -0.3554
 2566ntf    fn417430   1.016   3.647   2.509  0.4048  0.0064 -0.1891
 2567ntf    cn117431   6.551   5.532   1.413 -0.3400 -0.4846 -0.1947
 2567ntf    sn217432   6.428   5.413   1.351 -0.4623 -0.2838 -0.3398
 2567ntf    nn317433   6.424   5.310   1.470 -0.1252  0.1933  0.0873
 2567ntf    sn217434   6.337   5.296   1.600  0.3250  0.2282  0.3959
 2567ntf    cn117435   6.222   5.168   1.541  0.4011  0.2622  0.1731
 2567ntf    fn417436   6.573   5.637   1.335 -0.1554 -0.2846  0.1267
 2567ntf    fn417437   6.517   5.588   1.528  0.0922  0.1947 -0.3915
 2567ntf    fn417438   6.669   5.476   1.433  0.0995  0.5852  0.2877
 2567ntf    on517439   6.314   5.499   1.333 -0.0423  0.4234  0.2999
 2567ntf    on517440   6.502   5.357   1.241  0.1368 -0.2851  0.0603
 2567ntf    on517441   6.241   5.400   1.629 -0.1810  0.1582 -0.9602
 2567ntf    on517442   6.412   5.229   1.703 -0.0221  0.1182  0.5786
 2567ntf    fn417443   6.139   5.217   1.450 -0.0445 -0.6650  0.0657
 2567ntf    fn417444   6.285   5.064   1.490 -0.0903 -0.1008  0.2913
 2567ntf    fn417445   6.142   5.122   1.636 -0.0401  0.7176  0.0236
 2568ntf    cn117446   4.176   1.687   4.406 -0.2260  0.0169  0.0567
 2568ntf    sn217447   4.143   1.729   4.580  0.1705  0.0514  0.1266
 2568ntf    nn317448   4.290   1.732   4.632  0.0068  0.6126  0.5674
 2568ntf    sn217449   4.344   1.685   4.772  0.0935 -0.2110  0.2615
 2568ntf    cn117450   4.485   1.796   4.800 -0.2334  0.4168 -0.5391
 2568ntf    fn417451   4.072   1.705   4.327  0.1227 -0.2182 -0.4620
 2568ntf    fn417452   4.271   1.762   4.352  0.0176 -0.3573 -0.0391
 2568ntf    fn417453   4.220   1.563   4.394  0.2855  0.2025 -0.0081
 2568ntf    on517454   4.082   1.860   4.577  0.7269  0.3107  0.0674
 2568ntf    on517455   4.068   1.616   4.628  0.4364  0.0250  0.4740
 2568ntf    on517456   4.406   1.554   4.770 -0.0277 -0.2665  0.1192
 2568ntf    on517457   4.267   1.715   4.890 -0.3639  0.2432 -0.1480
 2568ntf    fn417458   4.573   1.788   4.702  0.0270 -0.0868 -0.2653
 2568ntf    fn417459   4.453   1.924   4.812 -0.3582  0.3797 -0.4703
 2568ntf    fn417460   4.554   1.768   4.910 -0.8383 -0.2724 -0.3271
 2569ntf    cn117461   1.000   6.488   0.123 -0.4988 -0.0105  0.2440
 2569ntf    sn217462   0.945   6.563  -0.033  0.0749 -0.1380 -0.0237
 2569ntf    nn317463   1.079   6.634  -0.073 -0.3091  0.1269 -0.8648
 2569ntf    sn217464   1.126   6.781  -0.045 -0.1509 -0.0963  0.0656
 2569ntf    cn117465   1.086   6.846  -0.210 -0.0304  0.2399  0.1687
 2569ntf    fn417466   0.909   6.405   0.171 -0.2500 -0.5900 -0.2736
 2569ntf    fn417467   1.106   6.408   0.121 -0.5106 -0.0158 -0.7653
 2569ntf    fn417468   1.021   6.588   0.207 -0.0568  0.3654 -0.3045
 2569ntf    on517469   0.930   6.452  -0.125 -0.2581 -0.0145 -0.1220
 2569ntf    on517470   0.828   6.638   0.003 -0.2919 -0.4504 -0.5334
 2569ntf    on517471   1.270   6.791  -0.044 -0.1790  0.3053  0.0745
 2569ntf    on517472   1.048   6.857   0.050 -0.5037  0.1198 -0.3933
 2569ntf    fn417473   0.968   6.808  -0.256  0.1771 -0.4363  0.1837
 2569ntf    fn417474   1.092   6.978  -0.205 -0.3146  0.2495  0.2668
 2569ntf    fn417475   1.175   6.810  -0.301 -0.0714  0.1589  0.1603
 2570ntf    cn117476   4.008   0.735   0.364  0.1532  0.1732  0.2173
 2570ntf    sn217477   3.857   0.832   0.391  0.1025  0.1403  0.0538
 2570ntf    nn317478   3.826   0.791   0.540 -0.1015  0.1299  0.0094
 2570ntf    sn217479   3.743   0.671   0.596  0.1705  0.0457  0.2367
 2570ntf    cn117480   3.573   0.725   0.558  0.0752 -0.2043  0.3058
 2570ntf    fn417481   4.070   0.765   0.252 -0.5886  0.2774 -0.1708
 2570ntf    fn417482   4.103   0.755   0.454 -0.0688  0.2125  0.4437
 2570ntf    fn417483   3.977   0.606   0.355  0.1359  0.1946 -0.0317
 2570ntf    on517484   3.895   0.971   0.380  0.6727 -0.0225 -0.0376
 2570ntf    on517485   3.769   0.773   0.293  0.4391  0.2249 -0.3025
 2570ntf    on517486   3.756   0.665   0.739 -0.6979  0.1694  0.3236
 2570ntf    on517487   3.757   0.546   0.524  0.0439  0.1192  0.0837
 2570ntf    fn417488   3.480   0.653   0.619 -0.1354 -0.3338 -0.1627
 2570ntf    fn417489   3.547   0.851   0.585  0.0679 -0.1339 -0.0338
 2570ntf    fn417490   3.545   0.713   0.429  0.0239  0.2324  0.2776
 2571ntf    cn117491   4.711   1.479   1.042 -0.3329 -0.0478 -0.0504
 2571ntf    sn217492   4.605   1.486   0.894  0.2354 -0.1622 -0.4713
 2571ntf    nn317493   4.634   1.337   0.857  0.2419 -0.2441 -0.1442
 2571ntf    sn217494   4.543   1.209   0.845 -0.0053 -0.0777 -0.0387
 2571ntf    cn117495   4.483   1.232   0.675 -0.2619 -0.2421  0.0282
 2571ntf    fn417496   4.838   1.446   1.021 -0.2969  0.0156  0.0675
 2571ntf    fn417497   4.712   1.592   1.110 -0.2020  0.1334 -0.3507
 2571ntf    fn417498   4.661   1.389   1.125 -0.2543  0.2314  0.2982
 2571ntf    on517499   4.472   1.510   0.945  0.3276 -0.7244  0.0523
 2571ntf    on517500   4.667   1.578   0.802  0.8151 -0.2140 -0.1356
 2571ntf    on517501   4.423   1.199   0.926  0.0318  0.5670  0.1017
 2571ntf    on517502   4.620   1.089   0.825  0.3571  0.1774 -0.1760
 2571ntf    fn417503   4.407   1.340   0.676 -0.1751 -0.1819  0.1190
 2571ntf    fn417504   4.580   1.257   0.588 -0.3993  0.3902  0.0534
 2571ntf    fn417505   4.412   1.129   0.632 -0.3570 -0.0632 -0.2461
 2572ntf    cn117506   5.033   5.224   4.713  0.1915 -0.1445  0.6273
 2572ntf    sn217507   5.073   5.048   4.700 -0.2739 -0.1732 -0.4994
 2572ntf    nn317508   4.979   5.003   4.582  0.0111 -0.4074 -0.6398
 2572ntf    sn217509   4.855   4.908   4.588 -0.1259 -0.1836  0.2496
 2572ntf    cn117510   4.729   5.039   4.598 -0.1823 -0.2055 -0.1273
 2572ntf    fn417511   5.113   5.291   4.795  0.3042  0.0027  0.3960
 2572ntf    fn417512   5.040   5.282   4.595  0.2817 -0.0114  0.6979
 2572ntf    fn417513   4.911   5.250   4.758 -0.0353  0.2925 -0.2289
 2572ntf    on517514   5.211   5.068   4.662 -0.0691 -0.4625  0.0866
 2572ntf    on517515   5.044   4.991   4.829 -0.4351 -0.4402 -0.6510
 2572ntf    on517516   4.830   4.837   4.711 -0.0236 -0.6993 -0.0256
 2572ntf    on517517   4.831   4.836   4.465 -0.2181  0.1434  0.0742
 2572ntf    fn417518   4.734   5.091   4.720  0.3270  0.1191 -0.2831
 2572ntf    fn417519   4.745   5.135   4.509 -0.1456  0.1640  0.2757
 2572ntf    fn417520   4.603   5.000   4.593 -0.4228  0.3864  0.9346
 2573ntf    cn117521   1.429   0.653   1.100 -0.3677  0.1254  0.1013
 2573ntf    sn217522   1.307   0.767   1.171 -0.2585  0.2892  0.0266
 2573ntf    nn317523   1.283   0.697   1.309  0.0330 -0.1236 -0.1289
 2573ntf    sn217524   1.322   0.756   1.449 -0.0708 -0.2351 -0.0528
 2573ntf    cn117525   1.180   0.869   1.459  0.0831 -0.0625  0.1994
 2573ntf    fn417526   1.531   0.636   1.183 -0.2257 -0.4603 -0.1813
 2573ntf    fn417527   1.378   0.532   1.083  0.3902 -0.2776  0.6428
 2573ntf    fn417528   1.485   0.692   0.986  0.0790  0.4759  0.4370
 2573ntf    on517529   1.375   0.893   1.161  0.0812  0.0917 -0.1676
 2573ntf    on517530   1.197   0.755   1.078 -0.0140 -0.1217 -0.2166
 2573ntf    on517531   1.439   0.840   1.454  0.0231 -0.3648 -0.0426
 2573ntf    on517532   1.308   0.667   1.563  0.1628 -0.0172  0.1478
 2573ntf    fn417533   1.188   0.974   1.380  0.3250  0.0259  0.3410
 2573ntf    fn417534   1.066   0.806   1.434  0.0447  0.0896 -0.0001
 2573ntf    fn417535   1.160   0.927   1.576  0.1069  0.0166  0.1642
 2574ntf    cn117536   0.512   4.851   3.918 -0.0660 -0.0255 -0.0416
 2574ntf    sn217537   0.454   4.973   4.040  0.0615 -0.3419  0.3366
 2574ntf    nn317538   0.329   4.895   4.094 -0.1152  0.0239  0.4622
 2574ntf    sn217539   0.327   4.787   4.209 -0.0261 -0.3783  0.0880
 2574ntf    cn117540   0.198   4.679   4.140 -0.2141 -0.2905  0.3006
 2574ntf    fn417541   0.571   4.745   3.970  0.0490  0.1492  0.1848
 2574ntf    fn417542   0.408   4.806   3.849 -0.0531  0.1622 -0.1847
 2574ntf    fn417543   0.606   4.889   3.833 -0.0550  0.2212  0.0805
 2574ntf    on517544   0.569   4.981   4.127  0.1974  0.1961  0.1134
 2574ntf    on517545   0.425   5.084   3.952 -0.8981 -0.6715  0.2315
 2574ntf    on517546   0.262   4.836   4.328 -0.5244 -0.3012 -0.2152
 2574ntf    on517547   0.439   4.696   4.213  0.8942  0.7306  0.0573
 2574ntf    fn417548   0.232   4.649   4.015 -0.1244 -0.1448  0.2893
 2574ntf    fn417549   0.182   4.567   4.208  0.5496 -0.1201  0.7723
 2574ntf    fn417550   0.085   4.747   4.131 -0.0707 -0.0803  0.0443
 2575ntf    cn117551   4.803   3.949   4.524 -0.1185 -0.0469 -0.4949
 2575ntf    sn217552   4.785   4.123   4.473 -0.1472  0.1151  0.0661
 2575ntf    nn317553   4.760   4.199   4.608  0.2436 -0.1400  0.2857
 2575ntf    sn217554   4.867   4.256   4.707  0.0199 -0.0197  0.4617
 2575ntf    cn117555   4.783   4.204   4.859 -0.2731 -0.1550  0.2538
 2575ntf    fn417556   4.808   3.869   4.419  0.2976 -0.2608 -0.3170
 2575ntf    fn417557   4.904   3.915   4.603 -0.4598  0.0680 -0.0045
 2575ntf    fn417558   4.692   3.920   4.590  0.3073 -0.1486  0.1895
 2575ntf    on517559   4.911   4.154   4.412  0.1258 -0.1654  0.4772
 2575ntf    on517560   4.676   4.126   4.379 -0.4004 -0.3240  0.3395
 2575ntf    on517561   4.876   4.400   4.718 -0.0240 -0.0043  0.3044
 2575ntf    on517562   4.988   4.177   4.715  0.4135  0.5116 -0.1100
 2575ntf    fn417563   4.664   4.261   4.856 -0.2646 -0.1546 -0.0393
 2575ntf    fn417564   4.765   4.074   4.871 -0.4559 -0.2008 -0.4914
 2575ntf    fn417565   4.841   4.247   4.970  0.5266  0.3983 -0.3696
 2576ntf    cn117566   1.578   3.573   6.478 -0.1330  0.0067 -0.1395
 2576ntf    sn217567   1.672   3.463   6.589 -0.2251  0.0766  0.0083
 2576ntf    nn317568   1.811   3.535   6.580 -0.1961  0.0136 -0.0475
 2576ntf    sn217569   1.958   3.487   6.606 -0.1376  0.0189 -0.3649
 2576ntf    cn117570   2.044   3.646   6.587 -0.3045  0.1072 -0.3777
 2576ntf    fn417571   1.447   3.563   6.494 -0.1337 -0.0745 -0.1984
 2576ntf    fn417572   1.607   3.701   6.492 -0.2900  0.0520 -0.2304
 2576ntf    fn417573   1.596   3.537   6.352 -0.3527 -0.4033 -0.0553
 2576ntf    on517574   1.610   3.476   6.718  0.4913 -0.3857  0.4063
 2576ntf    on517575   1.658   3.334   6.525 -0.4415  0.3520 -0.5122
 2576ntf    on517576   2.016   3.391   6.515  0.3172 -0.0924  0.0366
 2576ntf    on517577   1.976   3.455   6.746 -0.3905  0.3173 -0.2645
 2576ntf    fn417578   2.012   3.704   6.473 -0.4111  0.0849 -0.3597
 2576ntf    fn417579   2.013   3.735   6.680  0.0764 -0.1878  0.0371
 2576ntf    fn417580   2.176   3.641   6.587 -0.2912  0.2625  0.4355
 2577ntf    cn117581   4.867   5.070   2.919 -0.0717  0.0140 -0.1777
 2577ntf    sn217582   4.829   5.129   2.751 -0.3781  0.0905 -0.0809
 2577ntf    nn317583   4.929   5.249   2.739 -0.4088  0.0814 -0.4330
 2577ntf    sn217584   5.016   5.304   2.620  0.1871 -0.3826 -0.2197
 2577ntf    cn117585   5.110   5.435   2.704 -0.3170 -0.0798 -0.1251
 2577ntf    fn417586   4.800   4.960   2.946 -0.0722  0.0660  0.0307
 2577ntf    fn417587   4.992   5.052   2.959  0.0350  0.1734 -0.4334
 2577ntf    fn417588   4.813   5.159   3.001 -0.4047  0.1183 -0.5085
 2577ntf    on517589   4.851   5.014   2.667 -0.1650  0.0136  0.0809
 2577ntf    on517590   4.692   5.173   2.770 -0.4483  0.2565 -0.9258
 2577ntf    on517591   4.944   5.366   2.512  0.0861  0.1782  0.1618
 2577ntf    on517592   5.125   5.215   2.588  0.7337  0.1806  0.0468
 2577ntf    fn417593   5.028   5.523   2.760 -0.0880 -0.2002  0.4043
 2577ntf    fn417594   5.190   5.391   2.800 -0.1130  0.5494 -0.0022
 2577ntf    fn417595   5.184   5.512   2.626  0.2868 -0.6445 -0.1145
 2578ntf    cn117596   2.222   2.081   2.902  0.2677 -0.3883 -0.0108
 2578ntf    sn217597   2.252   1.935   2.797  0.1893 -0.4199  0.0113
 2578ntf    nn317598   2.114   1.863   2.820 -0.1298  0.0147 -0.5163
 2578ntf    sn217599   2.061   1.738   2.742 -0.3426 -0.1306 -0.1432
 2578ntf    cn117600   1.981   1.644   2.874 -0.0555 -0.3260 -0.1090
 2578ntf    fn417601   2.192   2.049   3.027 -0.2502  0.1402  0.0050
 2578ntf    fn417602   2.330   2.157   2.906  0.2382 -0.3494  0.0497
 2578ntf    fn417603   2.121   2.157   2.862  0.4215 -0.2013 -0.0478
 2578ntf    on517604   2.259   1.991   2.664 -0.1880 -0.3121  0.0349
 2578ntf    on517605   2.369   1.882   2.863  0.1356  0.1373  0.5651
 2578ntf    on517606   2.169   1.652   2.704  0.1169  0.7159 -0.8052
 2578ntf    on517607   1.960   1.758   2.640 -0.1958  0.2800 -0.2108
 2578ntf    fn417608   2.063   1.627   2.976 -0.3457 -0.4216  0.1130
 2578ntf    fn417609   1.875   1.704   2.927  0.2198 -0.1597  0.2538
 2578ntf    fn417610   1.934   1.524   2.843 -0.0494 -0.4295  0.2703
 2579ntf    cn117611   5.317   0.238   1.832  0.0973  0.0567  0.2419
 2579ntf    sn217612   5.363   0.079   1.907  0.0633  0.1023  0.3593
 2579ntf    nn317613   5.274   0.084   2.036 -0.4368  0.6377 -0.0033
 2579ntf    sn217614   5.139   0.012   2.072 -0.0951  0.0194  0.0440
 2579ntf    cn117615   5.216  -0.133   2.150 -0.0018  0.0504  0.0102
 2579ntf    fn417616   5.379   0.248   1.716 -0.2320  0.0390  0.0622
 2579ntf    fn417617   5.189   0.253   1.802  0.1644 -0.2978 -0.2333
 2579ntf    fn417618   5.348   0.344   1.905 -0.1121  0.5236 -0.3372
 2579ntf    on517619   5.326  -0.014   1.803  0.7018 -0.4060  0.5828
 2579ntf    on517620   5.502   0.092   1.944  0.1845 -0.1998  0.0101
 2579ntf    on517621   5.067  -0.045   1.961  0.0928  0.0210 -0.0786
 2579ntf    on517622   5.063   0.082   2.173 -0.2087  0.4506 -0.3378
 2579ntf    fn417623   5.304  -0.187   2.067  0.0480  0.3410 -0.1261
 2579ntf    fn417624   5.282  -0.103   2.261  0.3708 -0.0847 -0.1736
 2579ntf    fn417625   5.121  -0.219   2.183 -0.2361  0.2303 -0.2012
 2580ntf    cn117626   2.903   6.161   1.901 -0.2782 -0.5016  0.0092
 2580ntf    sn217627   2.799   6.019   1.948 -0.1284 -0.5295  0.2565
 2580ntf    nn317628   2.895   5.933   2.038  0.2158 -0.1190  0.2859
 2580ntf    sn217629   2.954   5.792   2.001  0.0197 -0.1008 -0.1024
 2580ntf    cn117630   3.049   5.768   2.154 -0.0185 -0.6106 -0.1594
 2580ntf    fn417631   2.928   6.233   2.009  0.0644 -0.2906 -0.2117
 2580ntf    fn417632   3.019   6.131   1.845  0.1434  0.2966  0.4501
 2580ntf    fn417633   2.843   6.239   1.813  0.4168  0.4414  0.3594
 2580ntf    on517634   2.694   6.072   2.030 -0.0139 -0.2713  0.2356
 2580ntf    on517635   2.759   5.969   1.818  0.0457 -0.1622  0.0589
 2580ntf    on517636   3.052   5.794   1.895  0.0667  0.4104 -0.0520
 2580ntf    on517637   2.858   5.685   2.003  0.2871 -0.3485 -0.5398
 2580ntf    fn417638   3.091   5.881   2.207 -0.8055 -0.0481 -0.7233
 2580ntf    fn417639   2.967   5.709   2.240 -0.2523  0.4531  0.3538
 2580ntf    fn417640   3.154   5.687   2.154  0.1039 -0.4540  0.1262
 2581ntf    cn117641   0.526   0.290   0.134  0.3990  0.1536  0.0093
 2581ntf    sn217642   0.612   0.131   0.146 -0.0932 -0.1428 -0.3604
 2581ntf    nn317643   0.495   0.030   0.175 -0.3342  0.2038 -0.1268
 2581ntf    sn217644   0.449  -0.033   0.311 -0.2801  0.1070 -0.1532
 2581ntf    cn117645   0.559  -0.177   0.321 -0.3057  0.0993  0.0383
 2581ntf    fn417646   0.477   0.337   0.248 -0.1155 -0.0828 -0.1094
 2581ntf    fn417647   0.615   0.378   0.092  0.6462  0.0538  0.3213
 2581ntf    fn417648   0.425   0.284   0.048  0.4035 -0.5493  0.0491
 2581ntf    on517649   0.666   0.113   0.013  0.5000 -0.5584 -0.0679
 2581ntf    on517650   0.708   0.146   0.252  0.0275  0.4435 -0.5487
 2581ntf    on517651   0.322  -0.101   0.316  0.0356 -0.5009 -0.3380
 2581ntf    on517652   0.480   0.050   0.425 -0.0848  0.3356 -0.3739
 2581ntf    fn417653   0.687  -0.146   0.303 -0.1053 -0.4264  0.5390
 2581ntf    fn417654   0.550  -0.230   0.441 -0.0841 -0.0852 -0.0249
 2581ntf    fn417655   0.524  -0.266   0.230 -0.6172  0.2790 -0.0157
 2582ntf    cn117656   4.497   2.380   2.028 -0.1339  0.2367 -0.0655
 2582ntf    sn217657   4.388   2.478   2.137 -0.2327 -0.0112  0.0600
 2582ntf    nn317658   4.279   2.516   2.032  0.4801  0.2031 -0.6158
 2582ntf    sn217659   4.248   2.656   1.967 -0.0919  0.3612 -0.0098
 2582ntf    cn117660   4.181   2.609   1.805  0.1534 -0.1735  0.0415
 2582ntf    fn417661   4.440   2.268   1.985 -0.6719  0.3986  0.2111
 2582ntf    fn417662   4.529   2.451   1.921  0.3778  0.3857  0.1821
 2582ntf    fn417663   4.610   2.346   2.088 -0.1773  0.2669  0.0339
 2582ntf    on517664   4.339   2.381   2.232  0.0353 -0.1931  0.0164
 2582ntf    on517665   4.478   2.580   2.183  0.0459 -0.0713 -0.3417
 2582ntf    on517666   4.368   2.729   1.939  0.0807  0.2346  0.3903
 2582ntf    on517667   4.151   2.737   2.037 -0.0186  0.4317  0.0092
 2582ntf    fn417668   4.135   2.714   1.739 -0.2820 -0.3572  0.0497
 2582ntf    fn417669   4.263   2.545   1.724  0.7186  0.0934  0.3947
 2582ntf    fn417670   4.073   2.532   1.806  0.1101 -0.1177 -0.2116
 2583ntf    cn117671   1.503   1.194   4.162 -0.2749  0.0564  0.4210
 2583ntf    sn217672   1.575   1.265   4.012 -0.2328 -0.2270  0.3072
 2583ntf    nn317673   1.667   1.381   4.065 -0.0876 -0.0011 -0.4209
 2583ntf    sn217674   1.810   1.431   4.024 -0.0291  0.0096 -0.2025
 2583ntf    cn117675   1.756   1.565   3.915 -0.2397  0.2806  0.2319
 2583ntf    fn417676   1.447   1.291   4.233 -0.0478  0.3611  0.1810
 2583ntf    fn417677   1.397   1.119   4.134  0.3369 -0.5836 -0.2095
 2583ntf    fn417678   1.588   1.128   4.239  0.2053  0.0045 -0.1535
 2583ntf    on517679   1.639   1.145   3.964 -0.0960 -0.1869  0.3897
 2583ntf    on517680   1.460   1.309   3.937 -0.1655 -0.2395  0.1964
 2583ntf    on517681   1.890   1.337   3.950  0.2931  0.0179  0.1311
 2583ntf    on517682   1.872   1.499   4.135 -0.7322  0.8573 -0.3211
 2583ntf    fn417683   1.692   1.664   3.974 -0.4247  0.1334  0.2781
 2583ntf    fn417684   1.855   1.622   3.847  0.1588 -0.5707  0.0906
 2583ntf    fn417685   1.673   1.525   3.821  0.7470 -0.4055 -0.3701
 2584ntf    cn117686   4.570   0.739   0.344  0.2102 -0.2161 -0.2180
 2584ntf    sn217687   4.722   0.837   0.356 -0.1883  0.3637  0.1352
 2584ntf    nn317688   4.813   0.764   0.251  0.0137 -0.0682  0.6111
 2584ntf    sn217689   4.920   0.653   0.285  0.2997 -0.0169 -0.1029
 2584ntf    cn117690   5.018   0.656   0.133  0.1914 -0.1060 -0.1752
 2584ntf    fn417691   4.578   0.615   0.392 -0.8479 -0.2689 -0.1522
 2584ntf    fn417692   4.470   0.797   0.410  0.3586 -0.2636  0.0510
 2584ntf    fn417693   4.531   0.722   0.219  0.0339  0.6723 -0.2852
 2584ntf    on517694   4.677   0.965   0.305  0.0216  0.2781 -0.2713
 2584ntf    on517695   4.771   0.830   0.491  0.2980  0.2943 -0.0414
 2584ntf    on517696   4.870   0.518   0.295  0.0519  0.1278  0.6761
 2584ntf    on517697   5.019   0.688   0.384  0.1508  0.2997 -0.0613
 2584ntf    fn417698   5.067   0.777   0.109  0.1436 -0.0089  0.2126
 2584ntf    fn417699   5.125   0.578   0.132  0.3827  0.1517 -0.1171
 2584ntf    fn417700   4.949   0.638   0.022  0.4718 -0.2150 -0.3337
 2585ntf    cn117701   2.195   6.039   3.371  0.1454 -0.3733 -0.1479
 2585ntf    sn217702   2.077   6.042   3.233 -0.1580 -0.1248  0.1159
 2585ntf    nn317703   2.025   5.894   3.237  0.5523 -0.3822 -0.1355
 2585ntf    sn217704   1.905   5.839   3.322  0.3245  0.2034 -0.0735
 2585ntf    cn117705   1.983   5.721   3.436 -0.4621 -0.2612 -0.0113
 2585ntf    fn417706   2.138   6.051   3.490 -0.1016 -0.1625 -0.2857
 2585ntf    fn417707   2.265   5.927   3.376  0.1586 -0.3454  0.2908
 2585ntf    fn417708   2.283   6.138   3.365  0.4249 -0.6230 -0.1844
 2585ntf    on517709   1.985   6.148   3.266  0.1770  0.1376  0.1997
 2585ntf    on517710   2.161   6.051   3.116 -0.1242  0.5327  0.1894
 2585ntf    on517711   1.809   5.755   3.253 -0.0264  0.4260  0.1456
 2585ntf    on517712   1.855   5.933   3.419  0.1463  0.3463 -0.3032
 2585ntf    fn417713   1.897   5.656   3.514  0.0050 -0.7685  0.0890
 2585ntf    fn417714   2.057   5.632   3.372 -0.0477  0.0991 -0.0316
 2585ntf    fn417715   2.066   5.783   3.517 -0.2456 -0.1646 -0.3062
 2586ntf    cn117716   5.688   2.695   1.879 -0.1138 -0.2580  0.0628
 2586ntf    sn217717   5.591   2.550   1.930 -0.0691 -0.2396  0.2015
 2586ntf    nn317718   5.449   2.614   1.910  0.1393  0.2030  0.1388
 2586ntf    sn217719   5.339   2.639   2.018  0.0103  0.0565  0.0415
 2586ntf    cn117720   5.384   2.810   2.059 -0.2257  0.2171 -0.3671
 2586ntf    fn417721   5.815   2.688   1.917 -0.1493  0.1610  0.2678
 2586ntf    fn417722   5.685   2.715   1.748 -0.6170  0.2084  0.1437
 2586ntf    fn417723   5.646   2.813   1.922  0.1700 -0.2709  0.3836
 2586ntf    on517724   5.625   2.454   1.828  0.1346 -0.5028  0.5152
 2586ntf    on517725   5.643   2.529   2.063 -0.2578  0.1251  0.3338
 2586ntf    on517726   5.354   2.567   2.143 -0.3292 -0.3087 -0.1251
 2586ntf    on517727   5.209   2.653   1.958  0.1246  0.0109 -0.2155
 2586ntf    fn417728   5.307   2.867   2.150 -0.1615  0.1035 -0.2423
 2586ntf    fn417729   5.511   2.820   2.097 -0.2908  0.0582 -0.1065
 2586ntf    fn417730   5.382   2.891   1.954 -0.3083  0.4630 -0.1781
 2587ntf    cn117731   6.560   3.208   4.164  0.0340  0.1131  0.1507
 2587ntf    sn217732   6.632   3.222   4.330  0.0062 -0.1640  0.1866
 2587ntf    nn317733   6.785   3.219   4.295 -0.0250 -0.0570  0.0404
 2587ntf    sn217734   6.895   3.118   4.342  0.0818  0.2112  0.3706
 2587ntf    cn117735   6.879   3.005   4.200 -0.0012  0.0750  0.4884
 2587ntf    fn417736   6.594   3.307   4.083  0.2590  0.0970  0.2258
 2587ntf    fn417737   6.586   3.094   4.102  0.1091 -0.0204  0.4297
 2587ntf    fn417738   6.428   3.219   4.166  0.0142 -0.1846  0.3845
 2587ntf    on517739   6.592   3.352   4.377  0.1652 -0.0060 -0.1084
 2587ntf    on517740   6.577   3.109   4.399 -0.0280 -0.4872 -0.3628
 2587ntf    on517741   6.868   3.047   4.465 -0.5007  0.4895  0.4050
 2587ntf    on517742   7.030   3.168   4.331  0.1567 -0.0620  0.0179
 2587ntf    fn417743   6.843   3.071   4.091  0.0698 -0.0541  0.3877
 2587ntf    fn417744   6.995   2.948   4.174  0.1571  0.4816  0.2959
 2587ntf    fn417745   6.789   2.908   4.210  0.2766 -0.2327 -0.0136
 2588ntf    cn117746   6.268   3.054   5.576  0.0292 -0.4220  0.3893
 2588ntf    sn217747   6.270   3.116   5.747  0.0373  0.1137  0.1965
 2588ntf    nn317748   6.120   3.157   5.769 -0.0419  0.0188 -0.1689
 2588ntf    sn217749   6.005   3.076   5.839 -0.0007  0.0343 -0.0835
 2588ntf    cn117750   5.862   3.165   5.770 -0.0150  0.1061  0.0373
 2588ntf    fn417751   6.375   2.983   5.546  0.4951  0.3583  0.1735
 2588ntf    fn417752   6.168   2.979   5.533 -0.2502  0.0996  0.1182
 2588ntf    fn417753   6.271   3.152   5.487  0.2647 -0.3948  0.4267
 2588ntf    on517754   6.321   3.004   5.822  0.6197  0.0814 -0.2466
 2588ntf    on517755   6.354   3.233   5.741  0.5910 -0.3118 -0.4167
 2588ntf    on517756   5.985   3.101   5.980 -0.1538  0.1131 -0.1188
 2588ntf    on517757   5.982   2.944   5.785  0.1919  0.0072 -0.0997
 2588ntf    fn417758   5.850   3.288   5.817  0.2351 -0.0290  0.4583
 2588ntf    fn417759   5.884   3.175   5.640 -0.0489 -0.5504 -0.0222
 2588ntf    fn417760   5.752   3.099   5.801  0.3033 -0.5915 -0.2940
 2589ntf    cn117761   3.569   1.647   4.715  0.1949  0.1717  0.0666
 2589ntf    sn217762   3.409   1.635   4.799  0.2075  0.1398  0.0859
 2589ntf    nn317763   3.432   1.748   4.906  0.0936  0.4892 -0.2554
 2589ntf    sn217764   3.468   1.735   5.058  0.0659  0.4115 -0.2554
 2589ntf    cn117765   3.303   1.752   5.133  0.1267 -0.2834  0.0516
 2589ntf    fn417766   3.671   1.626   4.797  0.2154  0.0140  0.0013
 2589ntf    fn417767   3.582   1.572   4.606  0.0591  0.3008 -0.0382
 2589ntf    fn417768   3.591   1.773   4.681  0.0862  0.1072 -0.2465
 2589ntf    on517769   3.316   1.669   4.694  0.4550 -0.1880 -0.2432
 2589ntf    on517770   3.411   1.500   4.848 -0.0714  0.2198  0.3227
 2589ntf    on517771   3.536   1.852   5.108  0.4931 -0.1429  0.4934
 2589ntf    on517772   3.521   1.608   5.102 -0.5774  0.4078  0.5409
 2589ntf    fn417773   3.299   1.731   5.263  0.0842 -0.7921 -0.0296
 2589ntf    fn417774   3.251   1.873   5.115  0.2396 -0.1407  0.6748
 2589ntf    fn417775   3.219   1.661   5.087  0.2105 -0.1518 -0.3719
 2590ntf    cn117776   5.383   0.075   0.602  0.1134 -0.5916 -0.1802
 2590ntf    sn217777   5.406   0.231   0.513 -0.1664 -0.4884 -0.0717
 2590ntf    nn317778   5.421   0.180   0.365  0.4208 -0.5490  0.0065
 2590ntf    sn217779   5.486   0.252   0.242  0.2708 -0.1018  0.1869
 2590ntf    cn117780   5.350   0.260   0.123  0.2734  0.2689  0.2071
 2590ntf    fn417781   5.365   0.091   0.732  0.4052  0.0757 -0.2210
 2590ntf    fn417782   5.280   0.004   0.561  0.0367 -0.3697 -0.3740
 2590ntf    fn417783   5.490  -0.004   0.601  0.4337 -0.1749  0.5802
 2590ntf    on517784   5.281   0.300   0.536 -0.1005 -0.2899 -0.3005
 2590ntf    on517785   5.523   0.283   0.579 -0.4954  0.2022 -0.0179
 2590ntf    on517786   5.584   0.164   0.183  0.1118  0.1926 -0.5231
 2590ntf    on517787   5.528   0.389   0.260  0.5421 -0.1513 -0.0610
 2590ntf    fn417788   5.247   0.331   0.169 -0.0210 -0.1916  0.2617
 2590ntf    fn417789   5.389   0.313   0.008 -0.4796  0.4794  0.0409
 2590ntf    fn417790   5.307   0.137   0.099  0.2752  0.3330 -0.1416
 2591ntf    cn117791   2.575   5.736   0.868  0.0487 -0.0212  0.2304
 2591ntf    sn217792   2.684   5.606   0.934  0.3248  0.0063 -0.1680
 2591ntf    nn317793   2.648   5.485   0.841  0.0896 -0.1168  0.0829
 2591ntf    sn217794   2.566   5.352   0.857  0.0818 -0.1080  0.1136
 2591ntf    cn117795   2.671   5.248   0.962  0.0912 -0.4270 -0.2104
 2591ntf    fn417796   2.606   5.782   0.748 -0.1246 -0.4129  0.0344
 2591ntf    fn417797   2.450   5.695   0.867  0.0440 -0.0039 -0.0562
 2591ntf    fn417798   2.584   5.839   0.951 -0.3031 -0.2579  0.5583
 2591ntf    on517799   2.817   5.660   0.919  0.3616  0.0310  0.2618
 2591ntf    on517800   2.645   5.587   1.071  0.0991  0.3109 -0.1880
 2591ntf    on517801   2.556   5.277   0.735  0.1079 -0.2817  0.2178
 2591ntf    on517802   2.443   5.355   0.933  0.2462 -0.4212  0.3918
 2591ntf    fn417803   2.691   5.306   1.079  0.3438 -0.0574 -0.4391
 2591ntf    fn417804   2.625   5.128   0.996 -0.5548 -0.2574 -0.4675
 2591ntf    fn417805   2.789   5.220   0.909 -0.1161  0.0863 -0.9507
 2592ntf    cn117806   6.649   0.808   2.030  0.1506  0.5380 -0.1066
 2592ntf    sn217807   6.787   0.735   1.935 -0.0830  0.0562 -0.0807
 2592ntf    nn317808   6.811   0.611   2.028  0.0910 -0.0895 -0.3177
 2592ntf    sn217809   6.716   0.488   2.047  0.1829 -0.1049  0.0561
 2592ntf    cn117810   6.828   0.344   2.038  0.4509  0.1013  0.0875
 2592ntf    fn417811   6.581   0.898   1.961 -0.0421  0.2668 -0.2736
 2592ntf    fn417812   6.563   0.717   2.073  0.1712  0.5834  0.0304
 2592ntf    fn417813   6.686   0.873   2.139  0.1455  0.0574  0.1885
 2592ntf    on517814   6.742   0.692   1.805  0.3425  0.6802 -0.4411
 2592ntf    on517815   6.885   0.841   1.943  0.4217 -0.4345  0.3074
 2592ntf    on517816   6.615   0.475   1.945  0.3383  0.2352 -0.1436
 2592ntf    on517817   6.671   0.489   2.184  0.2541  0.5787  0.0742
 2592ntf    fn417818   6.903   0.337   1.930 -0.2283  0.2456 -0.4006
 2592ntf    fn417819   6.899   0.327   2.148 -0.1931 -0.2693  0.4482
 2592ntf    fn417820   6.762   0.230   2.035  0.5733  0.0420 -0.3830
 2593ntf    cn117821   3.907   1.844   0.329 -0.2994  0.4053  0.4359
 2593ntf    sn217822   3.759   1.808   0.428 -0.3139 -0.4050  0.1281
 2593ntf    nn317823   3.789   1.655   0.451  0.2005 -0.2910  0.2310
 2593ntf    sn217824   3.732   1.534   0.370  0.1622 -0.1449  0.0393
 2593ntf    cn117825   3.596   1.479   0.478 -0.0108  0.1064 -0.0489
 2593ntf    fn417826   4.007   1.773   0.378 -0.0380  0.1983 -0.3726
 2593ntf    fn417827   3.889   1.801   0.205 -0.3878 -0.1574  0.6394
 2593ntf    fn417828   3.938   1.972   0.326  0.5863  0.2093  1.0060
 2593ntf    on517829   3.788   1.875   0.552 -0.6206  0.2822 -0.1689
 2593ntf    on517830   3.639   1.847   0.358  0.1863  0.3328 -0.3323
 2593ntf    on517831   3.822   1.421   0.366 -0.0409 -0.3004 -0.2078
 2593ntf    on517832   3.660   1.552   0.246  0.3647  0.5508  0.0201
 2593ntf    fn417833   3.512   1.395   0.420  0.0369  0.3544 -0.4844
 2593ntf    fn417834   3.641   1.415   0.585 -0.1300  0.0004 -0.0617
 2593ntf    fn417835   3.522   1.580   0.519 -0.1848 -0.1279  0.2094
 2594ntf    cn117836   5.144   3.758   0.603  0.1318 -0.3366 -0.0814
 2594ntf    sn217837   5.201   3.728   0.433 -0.1833 -0.0825 -0.2318
 2594ntf    nn317838   5.228   3.874   0.381 -0.7222  0.0419 -0.1733
 2594ntf    sn217839   5.261   3.927   0.238  0.1744 -0.3317 -0.1125
 2594ntf    cn117840   5.428   3.996   0.259 -0.1226  0.4207 -0.1784
 2594ntf    fn417841   5.068   3.866   0.606  0.1236 -0.3389 -0.2166
 2594ntf    fn417842   5.067   3.665   0.657  0.2105  0.1471  0.8917
 2594ntf    fn417843   5.244   3.777   0.688 -0.4498 -0.0661  0.5547
 2594ntf    on517844   5.322   3.651   0.447  0.0126  0.1031 -0.8536
 2594ntf    on517845   5.085   3.664   0.374 -0.0738  0.0494 -0.5931
 2594ntf    on517846   5.181   4.041   0.200 -0.1649 -0.5861 -0.1641
 2594ntf    on517847   5.284   3.818   0.145  0.7800  0.2279 -0.6338
 2594ntf    fn417848   5.436   4.088   0.353  0.5483  0.0122  0.1758
 2594ntf    fn417849   5.514   3.906   0.305 -0.3912  0.0603 -0.3749
 2594ntf    fn417850   5.476   4.042   0.144 -0.1592 -0.0402 -0.3802
 2595ntf    cn117851   5.493   2.466   2.916 -0.1276  0.1413 -0.0291
 2595ntf    sn217852   5.332   2.456   3.001 -0.1046  0.2108  0.0214
 2595ntf    nn317853   5.356   2.326   3.085  0.2141  0.3456  0.1403
 2595ntf    sn217854   5.247   2.224   3.133  0.0588  0.3435 -0.2144
 2595ntf    cn117855   5.232   2.107   2.995 -0.6289  0.1714  0.0013
 2595ntf    fn417856   5.596   2.479   2.997 -0.1531  0.3221 -0.0262
 2595ntf    fn417857   5.519   2.353   2.852  0.4602  0.3760 -0.2107
 2595ntf    fn417858   5.497   2.552   2.816  0.6183 -0.0354 -0.1567
 2595ntf    on517859   5.324   2.581   3.073 -0.5042 -0.1582  0.6173
 2595ntf    on517860   5.238   2.430   2.895 -0.0610 -0.8810  0.2388
 2595ntf    on517861   5.117   2.281   3.159 -0.2940 -0.2616 -0.6445
 2595ntf    on517862   5.296   2.143   3.242 -0.4999 -0.3886 -0.4940
 2595ntf    fn417863   5.324   2.011   2.992 -0.2730  0.5040  0.1605
 2595ntf    fn417864   5.113   2.049   2.987 -0.7291  0.4858 -0.8081
 2595ntf    fn417865   5.245   2.170   2.880 -0.3227  0.4947  0.2106
 2596ntf    cn117866   5.619   5.846   3.418 -0.3948  0.3972  0.1070
 2596ntf    sn217867   5.578   5.670   3.428  0.5160  0.2022  0.5678
 2596ntf    nn317868   5.522   5.649   3.282  0.3540 -0.1108  0.6739
 2596ntf    sn217869   5.562   5.532   3.185  0.1291  0.4333 -0.0811
 2596ntf    cn117870   5.412   5.526   3.082  0.2781 -0.0586 -0.2749
 2596ntf    fn417871   5.520   5.923   3.375 -0.4533  0.1713 -0.1639
 2596ntf    fn417872   5.647   5.899   3.536 -0.0937 -0.3296  0.3639
 2596ntf    fn417873   5.722   5.867   3.338 -0.2126 -0.3599  0.1432
 2596ntf    on517874   5.705   5.606   3.451  0.9319  0.6743 -0.3361
 2596ntf    on517875   5.483   5.666   3.536  0.0641 -0.1814  0.1639
 2596ntf    on517876   5.582   5.402   3.244 -0.2522  0.4835  0.1621
 2596ntf    on517877   5.664   5.574   3.092  0.6793 -0.5669  0.0571
 2596ntf    fn417878   5.381   5.647   3.038  0.4390 -0.0447 -0.3477
 2596ntf    fn417879   5.410   5.456   2.970 -0.3528  0.2099 -0.4372
 2596ntf    fn417880   5.312   5.477   3.154  0.1688  0.3057 -0.1727
 2597ntf    cn117881   4.649   4.041   0.724  0.5427 -0.1831 -0.1267
 2597ntf    sn217882   4.521   3.926   0.665  0.0398  0.2559  0.0930
 2597ntf    nn317883   4.390   4.005   0.700 -0.1579  0.0786 -0.2415
 2597ntf    sn217884   4.311   4.114   0.620 -0.2789  0.3895  0.2978
 2597ntf    cn117885   4.240   4.200   0.764  0.2630  0.2246  0.6647
 2597ntf    fn417886   4.774   3.999   0.723  0.3993 -0.6227 -0.0729
 2597ntf    fn417887   4.647   4.157   0.660  0.2931 -0.2518 -0.2423
 2597ntf    fn417888   4.628   4.071   0.852 -0.4648 -0.3649 -0.2395
 2597ntf    on517889   4.535   3.914   0.522 -0.1781  0.7457  0.0314
 2597ntf    on517890   4.535   3.806   0.745 -0.4412  0.4732  0.5092
 2597ntf    on517891   4.194   4.061   0.553  0.0407 -0.1867  0.1870
 2597ntf    on517892   4.394   4.211   0.555  0.0380  0.2515  0.4954
 2597ntf    fn417893   4.175   4.111   0.837  0.4088 -0.2798  0.1872
 2597ntf    fn417894   4.337   4.246   0.842  0.2227  0.3571  0.6357
 2597ntf    fn417895   4.155   4.296   0.732  0.0733  0.0060  0.5054
 2598ntf    cn117896   4.569   6.032   3.112 -0.3829  0.2214  0.0063
 2598ntf    sn217897   4.487   5.873   3.078 -0.0068  0.0465 -0.0889
 2598ntf    nn317898   4.342   5.929   3.057 -0.0896  0.1044  0.6086
 2598ntf    sn217899   4.207   5.889   3.126 -0.3697 -0.0131 -0.0045
 2598ntf    cn117900   4.102   5.919   2.981 -0.1859  0.2726 -0.0800
 2598ntf    fn417901   4.528   6.117   3.019  0.5298 -0.0089 -0.6202
 2598ntf    fn417902   4.535   6.086   3.227  0.0170  0.5880 -0.0459
 2598ntf    fn417903   4.701   6.041   3.108 -0.3160 -0.6213  0.0116
 2598ntf    on517904   4.544   5.843   2.949 -0.2386 -0.0796 -0.1622
 2598ntf    on517905   4.517   5.786   3.189  0.0403  0.0704 -0.0829
 2598ntf    on517906   4.164   5.982   3.227 -0.2420 -0.0021  0.0393
 2598ntf    on517907   4.182   5.751   3.158  0.4409 -0.2724 -0.4562
 2598ntf    fn417908   3.974   5.900   3.009 -0.1573  0.1842 -0.0115
 2598ntf    fn417909   4.114   6.043   2.935  0.3279 -0.0187 -0.7465
 2598ntf    fn417910   4.120   5.844   2.874  0.2706  0.4151 -0.1064
 2599ntf    cn117911   2.488   1.264   4.606  0.0344 -0.2096  0.1919
 2599ntf    sn217912   2.430   1.425   4.666 -0.2290 -0.2960  0.1676
 2599ntf    nn317913   2.492   1.525   4.562  0.0681 -0.7437 -0.0855
 2599ntf    sn217914   2.432   1.650   4.490  0.2147 -0.4357  0.3227
 2599ntf    cn117915   2.502   1.790   4.582  0.1022  0.2344 -0.5963
 2599ntf    fn417916   2.431   1.246   4.488  0.4226  0.7030 -0.1436
 2599ntf    fn417917   2.620   1.256   4.597  0.0065 -0.3179 -0.1639
 2599ntf    fn417918   2.454   1.165   4.686 -0.1453  0.0893  0.4850
 2599ntf    on517919   2.286   1.421   4.656 -0.2782  0.2367  0.5906
 2599ntf    on517920   2.479   1.433   4.802 -0.3049  0.6502  0.1445
 2599ntf    on517921   2.289   1.669   4.498  0.2579 -0.2133  0.5565
 2599ntf    on517922   2.500   1.663   4.363 -0.0007  0.8929  0.3275
 2599ntf    fn417923   2.585   1.856   4.503 -0.0763  0.7130 -0.3882
 2599ntf    fn417924   2.410   1.881   4.612 -0.0811  0.0784 -0.6864
 2599ntf    fn417925   2.569   1.767   4.693 -0.1737  0.1936 -0.4354
 2600ntf    cn117926   3.520   4.855   6.376  0.4479 -0.2177  0.2563
 2600ntf    sn217927   3.484   4.751   6.520  0.2372 -0.2591  0.1744
 2600ntf    nn317928   3.362   4.677   6.456 -0.0275  0.0622  0.3077
 2600ntf    sn217929   3.324   4.528   6.426  0.0194  0.0752  0.1810
 2600ntf    cn117930   3.143   4.548   6.416  0.0462  0.1051 -0.2344
 2600ntf    fn417931   3.604   4.948   6.418  0.5969 -0.2256 -0.0160
 2600ntf    fn417932   3.574   4.792   6.272 -0.1967 -0.5079  0.0931
 2600ntf    fn417933   3.407   4.910   6.338  0.4996 -0.0836  0.2964
 2600ntf    on517934   3.599   4.663   6.520  0.5061  0.0906 -0.1676
 2600ntf    on517935   3.441   4.834   6.630  0.0035  0.4839 -0.4654
 2600ntf    on517936   3.336   4.438   6.539 -0.7379 -0.5141 -0.1947
 2600ntf    on517937   3.356   4.480   6.294  0.0514 -0.3221  0.3301
 2600ntf    fn417938   3.079   4.436   6.384  0.2067 -0.1505  0.3324
 2600ntf    fn417939   3.089   4.582   6.531 -0.3398 -0.3490 -0.2747
 2600ntf    fn417940   3.111   4.637   6.323 -0.0687 -0.2447 -0.5352
 2601ntf    cn117941   6.137   6.852   2.384  0.0389 -0.1701 -0.3852
 2601ntf    sn217942   5.974   6.901   2.322  0.0794 -0.0057 -0.3665
 2601ntf    nn317943   5.884   6.843   2.437  0.1511 -0.2439 -0.4300
 2601ntf    sn217944   5.773   6.733   2.424 -0.0901 -0.0078 -0.3712
 2601ntf    cn117945   5.678   6.788   2.569  0.4681 -0.2163  0.0740
 2601ntf    fn417946   6.225   6.879   2.289  0.2200  0.1158 -0.1404
 2601ntf    fn417947   6.179   6.916   2.492 -0.2039 -0.2541 -0.2408
 2601ntf    fn417948   6.131   6.723   2.410 -0.0803 -0.1706 -0.4142
 2601ntf    on517949   5.979   7.044   2.334 -0.5564 -0.0147  0.0632
 2601ntf    on517950   5.960   6.834   2.194  0.6565 -0.3541 -0.2489
 2601ntf    on517951   5.827   6.603   2.456  0.4436  0.2269 -0.3213
 2601ntf    on517952   5.683   6.750   2.313 -0.1369 -0.1463 -0.3553
 2601ntf    fn417953   5.586   6.697   2.598  0.0008  0.1846 -0.1464
 2601ntf    fn417954   5.760   6.787   2.673  0.2693 -0.6300  0.2308
 2601ntf    fn417955   5.622   6.907   2.561  0.1115 -0.3935 -0.0451
 2602ntf    cn117956   4.172   2.919   4.556 -0.0415  0.0064  0.2476
 2602ntf    sn217957   4.100   2.847   4.406  0.2369 -0.1723  0.1986
 2602ntf    nn317958   3.951   2.883   4.441  0.3233  0.2703  0.1123
 2602ntf    sn217959   3.870   2.996   4.367  0.0510  0.1579  0.2374
 2602ntf    cn117960   3.856   2.915   4.205 -0.0089 -0.2846  0.4598
 2602ntf    fn417961   4.103   2.886   4.663  0.1068 -0.3276  0.2388
 2602ntf    fn417962   4.297   2.885   4.581  0.0663  0.2512  0.0542
 2602ntf    fn417963   4.174   3.051   4.541 -0.3862  0.0077  0.2193
 2602ntf    on517964   4.173   2.915   4.302 -0.3776  0.6633  0.2994
 2602ntf    on517965   4.119   2.705   4.418  0.4931 -0.0937  0.7496
 2602ntf    on517966   3.943   3.120   4.354  0.4020 -0.0688  0.0307
 2602ntf    on517967   3.735   3.009   4.415  0.3068  0.2748  0.9308
 2602ntf    fn417968   3.772   2.982   4.128  0.0709 -0.1182  0.5156
 2602ntf    fn417969   3.968   2.924   4.134  0.1615 -0.5449  0.6945
 2602ntf    fn417970   3.823   2.787   4.209  0.0999 -0.3233  0.1375
 2603ntf    cn117971   0.233   0.998   0.588  0.2986  0.0424  0.1937
 2603ntf    sn217972   0.079   1.030   0.496  0.1218  0.0317  0.4866
 2603ntf    nn317973   0.030   0.886   0.457 -0.1914  0.2918 -0.0854
 2603ntf    sn217974  -0.032   0.852   0.317  0.0042  0.1923 -0.1473
 2603ntf    cn117975   0.113   0.835   0.208  0.2270  0.1353  0.1558
 2603ntf    fn417976   0.259   1.108   0.655  0.2970  0.2192 -0.0938
 2603ntf    fn417977   0.216   0.903   0.679  0.0622 -0.4657 -0.3690
 2603ntf    fn417978   0.335   0.965   0.511  0.0587 -0.4885  0.0972
 2603ntf    on517979  -0.009   1.103   0.584 -0.1225  0.6228 -0.2397
 2603ntf    on517980   0.128   1.104   0.383 -0.4203 -0.5064 -0.1075
 2603ntf    on517981  -0.114   0.958   0.263  0.1121  0.3844  0.0653
 2603ntf    on517982  -0.093   0.721   0.323  0.1934  0.0956 -0.3256
 2603ntf    fn417983   0.210   0.774   0.273 -0.1737 -0.2544  0.4004
 2603ntf    fn417984   0.088   0.770   0.095  0.5493 -0.1341  0.2399
 2603ntf    fn417985   0.162   0.950   0.166  0.1863  0.1562  0.1653
 2604ntf    cn117986   1.243   5.784   6.618  0.1963 -0.1964  0.3594
 2604ntf    sn217987   1.228   5.959   6.571 -0.0708 -0.2432  0.2695
 2604ntf    nn317988   1.252   6.031   6.709 -0.0697  0.0999  0.0900
 2604ntf    sn217989   1.180   6.162   6.756 -0.0742  0.1313 -0.0040
 2604ntf    cn117990   1.080   6.110   6.899  0.2632  0.4848  0.3636
 2604ntf    fn417991   1.147   5.756   6.704 -0.3304 -0.3178 -0.2540
 2604ntf    fn417992   1.239   5.686   6.528 -0.2378 -0.0087  0.1750
 2604ntf    fn417993   1.358   5.764   6.680  0.6349  0.3652 -0.2588
 2604ntf    on517994   1.333   5.980   6.476 -0.0524 -0.0509  0.3331
 2604ntf    on517995   1.094   5.949   6.519  0.0563  0.0531 -0.1161
 2604ntf    on517996   1.081   6.209   6.662 -0.1808 -0.4217 -0.1690
 2604ntf    on517997   1.272   6.254   6.817  0.6913 -0.3629 -0.4001
 2604ntf    fn417998   0.972   6.041   6.865  0.6020  0.3722 -0.5215
 2604ntf    fn417999   1.146   6.030   6.981  0.3168  0.8317  0.6617
 2604ntf    fn418000   1.041   6.217   6.967  0.1420  0.5142  0.2470
 2605ntf    cn118001   3.554   3.580   3.015  0.4438 -0.0014 -0.1116
 2605ntf    sn218002   3.687   3.640   3.124  0.0832  0.1774  0.2320
 2605ntf    nn318003   3.787   3.520   3.138 -0.0721 -0.0590 -0.6329
 2605ntf    sn218004   3.779   3.397   3.236  0.0360  0.1221 -0.3977
 2605ntf    cn118005   3.720   3.255   3.139 -0.0585  0.0048 -0.1686
 2605ntf    fn418006   3.608   3.532   2.905 -0.2376 -0.4523 -0.2540
 2605ntf    fn418007   3.479   3.489   3.075  0.1554  0.4442  0.2122
 2605ntf    fn418008   3.469   3.675   2.981 -0.0160 -0.3115  0.1652
 2605ntf    on518009   3.746   3.748   3.049  0.0165  0.0187 -0.0487
 2605ntf    on518010   3.619   3.681   3.245  0.2805  0.3382  0.2887
 2605ntf    on518011   3.685   3.395   3.345 -0.1092  0.0485 -0.5236
 2605ntf    on518012   3.914   3.355   3.264 -0.0653  0.1317  0.1224
 2605ntf    fn418013   3.680   3.158   3.218  0.3875 -0.0058  0.0484
 2605ntf    fn418014   3.623   3.287   3.054 -0.0334 -0.0266 -0.2086
 2605ntf    fn418015   3.817   3.207   3.063  0.0213 -0.1840  0.0535
 2606ntf    cn118016   6.437   2.570   3.064 -0.2162 -0.0335  0.2820
 2606ntf    sn218017   6.508   2.523   3.225  0.0621 -0.0730  0.1485
 2606ntf    nn318018   6.630   2.618   3.252 -0.0345 -0.0327  0.4387
 2606ntf    sn218019   6.781   2.591   3.218 -0.1112  0.1479 -0.0426
 2606ntf    cn118020   6.815   2.736   3.114 -0.2839 -0.0368 -0.3603
 2606ntf    fn418021   6.366   2.473   3.008 -0.1016  0.1325 -0.1571
 2606ntf    fn418022   6.355   2.672   3.080  0.2417  0.3023  0.4953
 2606ntf    fn418023   6.530   2.606   2.977 -0.4112 -0.0292  0.0757
 2606ntf    on518024   6.411   2.557   3.325  0.0409  0.0974  0.0708
 2606ntf    on518025   6.532   2.382   3.205 -0.4298 -0.2343  0.7007
 2606ntf    on518026   6.809   2.474   3.137  0.4460 -0.0645  0.4496
 2606ntf    on518027   6.866   2.608   3.332  0.3699 -0.0622 -0.3653
 2606ntf    fn418028   6.729   2.749   3.014 -0.5110 -0.2240 -0.1892
 2606ntf    fn418029   6.814   2.847   3.186  0.0837 -0.3329  0.1079
 2606ntf    fn418030   6.938   2.723   3.066 -0.2780 -0.6976 -0.1838
 2607ntf    cn118031   4.466   5.183   3.262  0.2515  0.1119 -0.1467
 2607ntf    sn218032   4.570   5.313   3.336  0.3527 -0.0454 -0.0111
 2607ntf    nn318033   4.488   5.342   3.467  0.0531 -0.3824 -0.1238
 2607ntf    sn218034   4.539   5.329   3.615 -0.3055  0.2650  0.0619
 2607ntf    cn118035   4.490   5.158   3.653  0.0639  0.0741 -0.2966
 2607ntf    fn418036   4.515   5.132   3.150  0.2626  0.1950 -0.1794
 2607ntf    fn418037   4.434   5.085   3.345 -0.7482  0.0761 -0.5661
 2607ntf    fn418038   4.350   5.234   3.224  0.2906  0.4785  0.2226
 2607ntf    on518039   4.704   5.261   3.341  0.3039 -0.1515  0.2270
 2607ntf    on518040   4.545   5.422   3.245 -0.1765 -0.2876 -0.1583
 2607ntf    on518041   4.467   5.415   3.704  0.3179  0.6525  0.1967
 2607ntf    on518042   4.683   5.329   3.626 -0.2295 -0.8307 -0.6656
 2607ntf    fn418043   4.538   5.070   3.567  0.0876 -0.2515  0.0501
 2607ntf    fn418044   4.546   5.124   3.768 -0.9224 -0.2982  0.0931
 2607ntf    fn418045   4.359   5.138   3.660  0.1099 -0.1794 -0.1499
 2608ntf    cn118046   3.459   2.820   5.124  0.3610  0.3247 -0.0047
 2608ntf    sn218047   3.346   2.953   5.176 -0.1042 -0.0590 -0.0253
 2608ntf    nn318048   3.448   3.071   5.195 -0.4481  0.2247  0.0537
 2608ntf    sn218049   3.521   3.150   5.081  0.0236  0.0613  0.2388
 2608ntf    cn118050   3.440   3.313   5.080  0.3571  0.2278 -0.1990
 2608ntf    fn418051   3.384   2.712   5.107  0.8673 -0.0266 -0.0228
 2608ntf    fn418052   3.520   2.847   5.010 -0.1631  0.4003 -0.2700
 2608ntf    fn418053   3.554   2.782   5.209  0.4047 -0.0176 -0.2061
 2608ntf    on518054   3.251   2.972   5.069  0.1541 -0.1577 -0.2742
 2608ntf    on518055   3.290   2.914   5.302 -0.2246  0.1048 -0.0272
 2608ntf    on518056   3.495   3.117   4.943 -0.4097  0.1434  0.2992
 2608ntf    on518057   3.653   3.185   5.127  0.0505 -0.2779  0.4191
 2608ntf    fn418058   3.450   3.381   5.193 -0.3839  0.0661 -0.0229
 2608ntf    fn418059   3.489   3.392   4.986  0.1865  0.0299 -0.4549
 2608ntf    fn418060   3.310   3.308   5.054  0.3190 -0.1708  0.0640
 2609ntf    cn118061   2.139   4.296   4.752  0.3375 -0.2410  0.0243
 2609ntf    sn218062   2.196   4.387   4.899  0.1675 -0.2374  0.0885
 2609ntf    nn318063   2.318   4.454   4.827  0.3899 -0.5632  0.1628
 2609ntf    sn218064   2.456   4.493   4.891  0.0805  0.2948  0.3172
 2609ntf    cn118065   2.567   4.349   4.882 -0.2267  0.0532  0.3500
 2609ntf    fn418066   2.219   4.199   4.711  0.0931 -0.1681 -0.6487
 2609ntf    fn418067   2.019   4.242   4.770 -0.0821  0.3641 -0.9044
 2609ntf    fn418068   2.131   4.381   4.651  0.3324  0.0733  0.2896
 2609ntf    on518069   2.090   4.480   4.927  0.2034 -0.0672 -0.3301
 2609ntf    on518070   2.229   4.280   4.990 -0.5209 -0.2157  0.3661
 2609ntf    on518071   2.458   4.511   5.034 -0.0155 -0.5762  0.4361
 2609ntf    on518072   2.521   4.582   4.798  0.4155  0.2860  0.5391
 2609ntf    fn418073   2.683   4.367   4.944 -0.0799  0.0603  0.0715
 2609ntf    fn418074   2.514   4.245   4.943 -0.5016  0.1531  0.2832
 2609ntf    fn418075   2.599   4.317   4.758  0.3088  0.1901  0.4477
 2610ntf    cn118076   1.585   6.433   0.223  0.6093  0.0913 -0.2326
 2610ntf    sn218077   1.718   6.541   0.165  0.5247  0.3892  0.1272
 2610ntf    nn318078   1.723   6.649   0.279 -0.1485  0.1201  0.4136
 2610ntf    sn218079   1.804   6.649   0.413  0.1098 -0.2036  0.2566
 2610ntf    cn118080   1.687   6.733   0.525  0.0691 -0.1134  0.1457
 2610ntf    fn418081   1.624   6.344   0.313 -0.4524  0.0220  0.1815
 2610ntf    fn418082   1.499   6.505   0.294  0.3190 -0.4292 -0.0487
 2610ntf    fn418083   1.513   6.369   0.132  0.3542 -0.2175  0.1780
 2610ntf    on518084   1.836   6.459   0.157  0.4273  0.2653 -0.0251
 2610ntf    on518085   1.674   6.596   0.039  0.4454 -0.2321 -0.1170
 2610ntf    on518086   1.924   6.728   0.410  0.2052 -0.3704 -0.5650
 2610ntf    on518087   1.812   6.518   0.475 -0.1198 -0.4170 -0.1649
 2610ntf    fn418088   1.570   6.674   0.538 -0.0344 -0.2039 -1.0268
 2610ntf    fn418089   1.739   6.735   0.646 -0.1278 -0.2932  0.2327
 2610ntf    fn418090   1.667   6.855   0.478  0.7748 -0.1403 -0.2585
 2611ntf    cn118091   1.184   5.842   2.465  0.4123 -0.4084  0.3667
 2611ntf    sn218092   1.227   5.739   2.321 -0.3287 -0.1786 -0.0241
 2611ntf    nn318093   1.082   5.718   2.267 -0.4614 -0.0585  0.2836
 2611ntf    sn218094   1.032   5.685   2.122  0.1076  0.3430 -0.0097
 2611ntf    cn118095   0.970   5.851   2.081 -0.5249  0.1950  0.3224
 2611ntf    fn418096   1.100   5.941   2.442  0.1568 -0.6973  0.0478
 2611ntf    fn418097   1.132   5.770   2.563 -0.5459  0.3610  0.4331
 2611ntf    fn418098   1.290   5.903   2.517  0.2554  0.3560 -0.1994
 2611ntf    on518099   1.319   5.825   2.250 -0.1416  0.0384  0.4736
 2611ntf    on518100   1.274   5.619   2.385 -1.0211 -0.1888  0.4676
 2611ntf    on518101   0.910   5.607   2.129  0.2566  0.0496 -0.5998
 2611ntf    on518102   1.131   5.650   2.023 -0.5325 -0.0593 -0.5183
 2611ntf    fn418103   0.839   5.856   2.094 -0.6583 -0.7632 -0.5216
 2611ntf    fn418104   1.022   5.943   2.160 -0.0979  0.2024  0.0364
 2611ntf    fn418105   1.006   5.887   1.959 -0.0999  0.4941  0.5305
 2612ntf    cn118106   2.028   3.975   6.194 -0.0835 -0.3086 -0.4258
 2612ntf    sn218107   1.985   4.152   6.184  0.0752 -0.2805 -0.6037
 2612ntf    nn318108   1.991   4.202   6.332  0.3010  0.1695 -0.7626
 2612ntf    sn218109   1.897   4.309   6.398  0.1969 -0.2302 -0.2508
 2612ntf    cn118110   1.762   4.203   6.458  0.0365 -0.1460 -0.4589
 2612ntf    fn418111   2.147   3.937   6.151  0.2460  0.0380  0.1592
 2612ntf    fn418112   2.026   3.931   6.319 -0.7697 -0.1612 -0.3831
 2612ntf    fn418113   1.945   3.899   6.125 -0.5198  0.2284 -0.5043
 2612ntf    on518114   2.100   4.197   6.109  0.1889 -0.3282 -0.4578
 2612ntf    on518115   1.854   4.147   6.124 -0.5031  0.0713  0.6062
 2612ntf    on518116   1.828   4.402   6.312 -0.0104 -0.0386  0.1186
 2612ntf    on518117   1.966   4.374   6.507 -0.4822 -0.0568  0.0850
 2612ntf    fn418118   1.674   4.177   6.362 -0.0398 -0.3755 -0.3288
 2612ntf    fn418119   1.819   4.088   6.490  0.3179  0.1099 -0.0251
 2612ntf    fn418120   1.694   4.245   6.564 -0.1105 -0.0154 -0.6057
 2613ntf    cn118121   2.443   1.023   3.033  0.0568 -0.0654 -0.1406
 2613ntf    sn218122   2.384   1.159   3.138 -0.4296 -0.1613 -0.2900
 2613ntf    nn318123   2.471   1.127   3.265  0.1575  0.2887 -0.5762
 2613ntf    sn218124   2.603   1.193   3.318  0.0902  0.1528 -0.2371
 2613ntf    cn118125   2.561   1.213   3.493 -0.0926 -0.2249 -0.2357
 2613ntf    fn418126   2.387   1.008   2.914 -0.2431 -0.2540  0.0221
 2613ntf    fn418127   2.574   1.036   3.016 -0.0064  0.1909 -0.4382
 2613ntf    fn418128   2.431   0.902   3.086 -0.2345 -0.0528 -0.1758
 2613ntf    on518129   2.417   1.279   3.065  0.1556 -0.3432 -0.3257
 2613ntf    on518130   2.243   1.129   3.149 -0.2686 -0.8374  0.0338
 2613ntf    on518131   2.631   1.327   3.274  0.2882  0.2009  0.0349
 2613ntf    on518132   2.716   1.103   3.318 -0.0534 -0.0298  0.0082
 2613ntf    fn418133   2.526   1.099   3.550 -0.3800 -0.0187 -0.0006
 2613ntf    fn418134   2.668   1.259   3.557 -0.4646  0.3548 -0.0187
 2613ntf    fn418135   2.460   1.297   3.506 -0.1518 -0.3955  0.4797
 2614ntf    cn118136   0.914   0.709   5.091 -0.0189  0.4164 -0.0132
 2614ntf    sn218137   1.060   0.632   5.167 -0.1867 -0.1013 -0.2096
 2614ntf    nn318138   1.122   0.761   5.231 -0.5035  0.0215 -0.1505
 2614ntf    sn218139   1.212   0.869   5.162 -0.2616  0.0158  0.1514
 2614ntf    cn118140   1.373   0.792   5.194 -0.0535  0.1701 -0.5137
 2614ntf    fn418141   0.861   0.794   5.177 -0.2210 -0.1109  0.3924
 2614ntf    fn418142   0.947   0.781   4.986  0.1834  0.0636 -0.1944
 2614ntf    fn418143   0.825   0.618   5.055 -0.1757  0.5212  0.1094
 2614ntf    on518144   0.997   0.545   5.264 -0.2108 -0.0889 -0.2143
 2614ntf    on518145   1.133   0.569   5.060 -0.2982 -0.0359 -0.3242
 2614ntf    on518146   1.223   0.990   5.240  0.2871  0.1743 -0.1636
 2614ntf    on518147   1.213   0.887   5.019  0.7559  0.2039  0.1732
 2614ntf    fn418148   1.392   0.790   5.324 -0.4548  0.5280 -0.4483
 2614ntf    fn418149   1.378   0.665   5.157  0.4841  0.0444 -0.0274
 2614ntf    fn418150   1.472   0.861   5.137  0.2352  0.1565 -0.0319
 2615ntf    cn118151   0.686   4.531   4.937 -0.0114  0.0927  0.2013
 2615ntf    sn218152   0.644   4.427   5.080  0.1568 -0.1047  0.1073
 2615ntf    nn318153   0.728   4.299   5.044  0.1365 -0.2766  0.6613
 2615ntf    sn218154   0.693   4.153   5.001 -0.1368  0.0169 -0.1325
 2615ntf    cn118155   0.738   4.162   4.826  0.1319 -0.1539 -0.0733
 2615ntf    fn418156   0.671   4.464   4.825 -0.3461  0.4028  0.0600
 2615ntf    fn418157   0.610   4.640   4.933  0.1347  0.2016  0.3283
 2615ntf    fn418158   0.813   4.568   4.948  0.2179 -0.6076 -0.0585
 2615ntf    on518159   0.691   4.508   5.191 -0.1829 -0.4069  0.4755
 2615ntf    on518160   0.502   4.423   5.060  0.0943  0.4104  0.4004
 2615ntf    on518161   0.552   4.122   5.001 -0.1614  0.1311 -0.2753
 2615ntf    on518162   0.787   4.054   5.048 -0.1137 -0.2273 -0.6887
 2615ntf    fn418163   0.868   4.180   4.806  0.1170  0.2010  0.1341
 2615ntf    fn418164   0.710   4.046   4.768  0.1625 -0.0727 -0.2526
 2615ntf    fn418165   0.667   4.250   4.757  0.1817  0.2290  0.3583
 2616ntf    cn118166   6.267   0.319   6.608  0.2840  0.1540 -0.1527
 2616ntf    sn218167   6.125   0.433   6.600 -0.0885 -0.3016 -0.0375
 2616ntf    nn318168   6.131   0.460   6.446 -0.0506  0.5355  0.1084
 2616ntf    sn218169   6.033   0.424   6.328  0.1459 -0.0416  0.1210
 2616ntf    cn118170   5.966   0.591   6.305  0.5726  0.1505  0.2573
 2616ntf    fn418171   6.383   0.365   6.565  0.4864 -0.0452  0.1777
 2616ntf    fn418172   6.291   0.277   6.730 -0.2741 -0.7959 -0.3630
 2616ntf    fn418173   6.249   0.205   6.544 -0.1934  0.1677 -0.0465
 2616ntf    on518174   6.020   0.344   6.645 -0.0307 -0.1611  0.3845
 2616ntf    on518175   6.158   0.538   6.693 -0.0159 -0.6162  0.2926
 2616ntf    on518176   5.918   0.345   6.366  0.3224 -0.4363 -0.1570
 2616ntf    on518177   6.094   0.390   6.202  0.8858  0.0044  0.4639
 2616ntf    fn418178   5.925   0.640   6.421  0.3555  0.4258  0.0664
 2616ntf    fn418179   6.051   0.675   6.249  0.3668  0.0362 -0.2340
 2616ntf    fn418180   5.862   0.601   6.223  0.5599 -0.3808  0.2102
 2617ntf    cn118181   3.997   2.727   2.859 -0.0433 -0.0245 -0.4750
 2617ntf    sn218182   3.816   2.727   2.873 -0.0475  0.4306 -0.4825
 2617ntf    nn318183   3.790   2.576   2.835 -0.0998  0.2552  0.2311
 2617ntf    sn218184   3.657   2.494   2.849  0.0190  0.0171 -0.0271
 2617ntf    cn118185   3.654   2.453   3.026  0.3613  0.0986 -0.0020
 2617ntf    fn418186   4.049   2.667   2.754  0.1525 -0.3303 -0.2058
 2617ntf    fn418187   4.046   2.850   2.863  0.0765 -0.0856  0.0831
 2617ntf    fn418188   4.045   2.654   2.959 -0.9518 -0.0683 -0.0584
 2617ntf    on518189   3.793   2.752   3.013 -0.1517 -0.4647 -0.3318
 2617ntf    on518190   3.778   2.823   2.773 -0.6110  0.2532 -0.4426
 2617ntf    on518191   3.661   2.371   2.774 -0.4611 -0.0351  0.0292
 2617ntf    on518192   3.538   2.575   2.832 -0.0767 -0.1607 -0.2129
 2617ntf    fn418193   3.637   2.558   3.103 -0.4972  0.1115 -0.1966
 2617ntf    fn418194   3.558   2.365   3.052  0.5088 -0.1190 -0.1806
 2617ntf    fn418195   3.772   2.401   3.056  0.1297 -0.1725  0.4435
 2618ntf    cn118196   3.917   4.149   1.379  0.1278  0.0990 -0.0976
 2618ntf    sn218197   3.947   4.327   1.402  0.2935  0.0675 -0.0739
 2618ntf    nn318198   3.799   4.379   1.415  0.1450 -0.4926  0.5271
 2618ntf    sn218199   3.726   4.437   1.541 -0.1609  0.4273 -0.0625
 2618ntf    cn118200   3.583   4.517   1.463 -0.2100  0.0785 -0.3314
 2618ntf    fn418201   4.022   4.077   1.343 -0.0484 -0.3848  0.3419
 2618ntf    fn418202   3.872   4.089   1.488  0.0216  0.3049 -0.0265
 2618ntf    fn418203   3.831   4.124   1.282  0.0054 -0.5542  0.1755
 2618ntf    on518204   4.023   4.331   1.524  0.3980 -0.5498 -0.1158
 2618ntf    on518205   4.007   4.378   1.281  0.2738  0.1140 -0.0642
 2618ntf    on518206   3.792   4.551   1.600 -0.4080  0.5080  0.0572
 2618ntf    on518207   3.673   4.339   1.633 -0.4868  0.7249  0.0687
 2618ntf    fn418208   3.498   4.429   1.414 -0.2065 -0.2101  0.1701
 2618ntf    fn418209   3.509   4.590   1.545 -0.1318 -0.1992 -0.0100
 2618ntf    fn418210   3.616   4.602   1.367 -0.3678  0.4621 -0.0514
 2619ntf    cn118211   2.609   3.660   4.088 -0.1550  0.3569 -0.4505
 2619ntf    sn218212   2.563   3.823   4.155 -0.4145  0.2621 -0.3955
 2619ntf    nn318213   2.696   3.866   4.226 -0.9204  0.1672  0.6176
 2619ntf    sn218214   2.725   3.920   4.371  0.2891  0.2620  0.3512
 2619ntf    cn118215   2.792   3.771   4.452 -0.0259  0.0211  0.1732
 2619ntf    fn418216   2.514   3.580   4.042 -0.3491  0.5166 -0.3260
 2619ntf    fn418217   2.691   3.668   3.984 -0.1655 -0.2839 -0.5139
 2619ntf    fn418218   2.663   3.591   4.187 -0.3685 -0.1723 -0.7001
 2619ntf    on518219   2.536   3.904   4.038  0.6967  0.1744 -0.7339
 2619ntf    on518220   2.458   3.792   4.249 -0.0972 -0.0443 -0.1372
 2619ntf    on518221   2.620   3.955   4.463  0.0467  0.2126  0.0957
 2619ntf    on518222   2.842   4.004   4.364  0.2471  0.2637 -0.3686
 2619ntf    fn418223   2.911   3.734   4.407  0.0267 -0.0523  0.3702
 2619ntf    fn418224   2.817   3.785   4.581 -0.1411  0.0630  0.1910
 2619ntf    fn418225   2.713   3.667   4.433  0.4580 -0.2257 -0.4987
 2620ntf    cn118226   0.454   2.500   5.058 -0.0726  0.2151  0.4477
 2620ntf    sn218227   0.433   2.518   5.237  0.0464  0.2200  0.4614
 2620ntf    nn318228   0.278   2.544   5.239  0.0126  0.0082  0.6485
 2620ntf    sn218229   0.178   2.519   5.358 -0.4077 -0.1925  0.2555
 2620ntf    cn118230   0.258   2.598   5.500  0.2689 -0.2997 -0.0609
 2620ntf    fn418231   0.570   2.443   5.031 -0.5908 -0.5349 -0.2698
 2620ntf    fn418232   0.363   2.425   4.997  0.4054 -0.0572  0.0679
 2620ntf    fn418233   0.450   2.616   4.994  0.3561 -0.0306 -0.0334
 2620ntf    on518234   0.476   2.391   5.291  0.0865  0.0942  0.1354
 2620ntf    on518235   0.512   2.631   5.279  0.9786 -0.4378  0.5026
 2620ntf    on518236   0.163   2.377   5.380  0.2901 -0.3071  0.0292
 2620ntf    on518237   0.053   2.589   5.340 -0.3609 -0.1794 -0.0213
 2620ntf    fn418238   0.274   2.729   5.486  0.0086 -0.2348  0.2465
 2620ntf    fn418239   0.182   2.583   5.608  0.4203  0.1556  0.1135
 2620ntf    fn418240   0.377   2.544   5.523  0.2119 -0.1226  0.6726
 2621ntf    cn118241   5.548   5.460   0.082 -0.4616  0.0648 -0.0376
 2621ntf    sn218242   5.370   5.441   0.113 -0.3698 -0.2254  0.3135
 2621ntf    nn318243   5.311   5.571   0.048  0.1928 -0.2448 -0.2447
 2621ntf    sn218244   5.269   5.593  -0.102 -0.2526  0.1428 -0.0668
 2621ntf    cn118245   5.090   5.566  -0.098 -0.3030  0.3888 -0.5503
 2621ntf    fn418246   5.620   5.364   0.138  0.1994  0.2248 -0.5907
 2621ntf    fn418247   5.581   5.452  -0.046 -0.7535 -0.0517 -0.1060
 2621ntf    fn418248   5.587   5.576   0.132 -0.1675  0.0463 -0.2187
 2621ntf    on518249   5.330   5.327   0.034 -0.6118  0.2970 -0.3238
 2621ntf    on518250   5.362   5.431   0.257  0.8166 -0.6322  0.3610
 2621ntf    on518251   5.318   5.498  -0.199 -0.0247  0.2860 -0.0921
 2621ntf    on518252   5.287   5.730  -0.143  0.1177  0.1372  0.0702
 2621ntf    fn418253   5.066   5.456  -0.028  0.2412  0.1606 -0.7206
 2621ntf    fn418254   5.024   5.662  -0.036  0.6796  0.3172  0.6310
 2621ntf    fn418255   5.035   5.546  -0.217 -0.2938  0.4199 -0.5594
 2622ntf    cn118256   4.186   4.152   2.763 -0.3310 -0.0425 -0.2464
 2622ntf    sn218257   4.196   3.994   2.853  0.2745 -0.0818 -0.3770
 2622ntf    nn318258   4.351   3.970   2.859  0.3234  0.3267  0.0371
 2622ntf    sn218259   4.451   3.876   2.784 -0.0610  0.3176 -0.4717
 2622ntf    cn118260   4.501   3.755   2.911 -0.0988  0.6433 -0.1450
 2622ntf    fn418261   4.060   4.186   2.747 -0.3505 -0.1575 -0.3486
 2622ntf    fn418262   4.233   4.256   2.829  0.0965 -0.2796 -0.1704
 2622ntf    fn418263   4.234   4.154   2.639  0.5726  0.0270  0.0939
 2622ntf    on518264   4.130   4.021   2.979 -0.4389  0.1592 -0.7943
 2622ntf    on518265   4.125   3.905   2.764  0.0043 -0.4797  0.2319
 2622ntf    on518266   4.574   3.946   2.757 -0.1807  0.8135  0.2418
 2622ntf    on518267   4.399   3.791   2.680  0.1700 -0.3196 -0.0773
 2622ntf    fn418268   4.558   3.644   2.868 -0.1347  0.7581 -0.4914
 2622ntf    fn418269   4.582   3.813   2.997  0.1312  0.1983 -0.0596
 2622ntf    fn418270   4.397   3.710   2.980  0.1623 -0.0088 -0.1643
 2623ntf    cn118271   1.688   1.335   2.627 -0.0736  0.0407 -0.0875
 2623ntf    sn218272   1.540   1.296   2.529 -0.2222  0.0585  0.1315
 2623ntf    nn318273   1.511   1.426   2.445  0.1726  0.0592 -0.0025
 2623ntf    sn218274   1.579   1.464   2.309 -0.0309  0.1137 -0.0883
 2623ntf    cn118275   1.454   1.409   2.188  0.0169  0.0152 -0.0930
 2623ntf    fn418276   1.713   1.229   2.701 -0.3169  0.1501  0.1505
 2623ntf    fn418277   1.797   1.360   2.555 -0.2564  0.6293 -0.1638
 2623ntf    fn418278   1.665   1.439   2.705  0.1607  0.1698 -0.1891
 2623ntf    on518279   1.572   1.176   2.457  0.1458  0.2047  0.0515
 2623ntf    on518280   1.437   1.269   2.627 -0.0492 -0.6741  0.1153
 2623ntf    on518281   1.699   1.389   2.281  0.1793  0.3417  0.1965
 2623ntf    on518282   1.586   1.606   2.290 -0.6045  0.1345 -0.1621
 2623ntf    fn418283   1.448   1.281   2.154  0.0262  0.0550 -0.2439
 2623ntf    fn418284   1.338   1.441   2.242  0.0012  0.0816 -0.1662
 2623ntf    fn418285   1.467   1.477   2.075  0.0556 -0.0364 -0.1197
 2624ntf    cn118286   3.061   2.350   4.940 -0.0785 -0.2422 -0.4714
 2624ntf    sn218287   3.026   2.373   4.763 -0.0413  0.2904 -0.4094
 2624ntf    nn318288   3.032   2.223   4.717 -0.2433  0.1422  0.0449
 2624ntf    sn218289   2.926   2.107   4.728 -0.0013 -0.0327  0.5595
 2624ntf    cn118290   3.035   1.987   4.809  0.2052 -0.0545  0.2503
 2624ntf    fn418291   3.096   2.460   5.003 -0.1037 -0.2747 -0.4016
 2624ntf    fn418292   2.961   2.294   5.006 -0.0361  0.2326 -0.0004
 2624ntf    fn418293   3.170   2.275   4.950  0.2675  0.3337  0.1599
 2624ntf    on518294   2.895   2.434   4.763 -0.1408  0.0767 -0.0931
 2624ntf    on518295   3.131   2.462   4.719  0.0964  0.2549 -0.1535
 2624ntf    on518296   2.893   2.045   4.602 -0.1340  0.2254  0.4650
 2624ntf    on518297   2.823   2.122   4.828  0.1612  0.2121  0.6935
 2624ntf    fn418298   3.138   1.957   4.731  0.2833  0.0451  0.3148
 2624ntf    fn418299   3.094   2.029   4.919 -0.1275 -0.1726  0.4740
 2624ntf    fn418300   2.976   1.872   4.839  0.2909 -0.1071  0.2198
 2625ntf    cn118301   2.406   5.279   6.886 -0.1773  0.0796  0.4519
 2625ntf    sn218302   2.460   5.176   7.027 -0.0978 -0.0386  0.3356
 2625ntf    nn318303   2.523   5.057   6.946  0.6635  0.7048 -0.1804
 2625ntf    sn218304   2.665   4.993   6.959  0.3092 -0.1049 -0.2421
 2625ntf    cn118305   2.765   5.117   6.871  0.7707 -0.0957  0.2863
 2625ntf    fn418306   2.294   5.238   6.828 -0.1408  0.5148  0.0708
 2625ntf    fn418307   2.378   5.403   6.921 -0.1861  0.1201  0.2986
 2625ntf    fn418308   2.500   5.295   6.795 -0.3938 -0.6751  0.0882
 2625ntf    on518309   2.564   5.258   7.084 -0.0394  0.1809 -0.0743
 2625ntf    on518310   2.336   5.148   7.095 -0.1234 -0.1383  0.2484
 2625ntf    on518311   2.680   4.867   6.891  0.5133 -0.4159  0.3661
 2625ntf    on518312   2.706   4.999   7.097  0.4589  0.2296 -0.2989
 2625ntf    fn418313   2.894   5.086   6.880  0.8141 -0.0859 -0.2598
 2625ntf    fn418314   2.742   5.113   6.741 -0.1518  0.4022  0.4224
 2625ntf    fn418315   2.750   5.242   6.910 -0.5172 -0.0945 -0.1572
 2626ntf    cn118316   0.301   1.770   5.075 -0.0019  0.0109  0.1345
 2626ntf    sn218317   0.447   1.827   4.982  0.0848  0.0757  0.3098
 2626ntf    nn318318   0.543   1.704   4.996  0.1917  0.1563  0.2812
 2626ntf    sn218319   0.572   1.596   4.886 -0.1579  0.1468  0.1989
 2626ntf    cn118320   0.648   1.469   4.991 -0.2269 -0.2663 -0.2476
 2626ntf    fn418321   0.246   1.658   5.032 -0.3345  0.0860  0.3638
 2626ntf    fn418322   0.339   1.745   5.199 -0.3082  0.4598  0.3194
 2626ntf    fn418323   0.208   1.863   5.088  0.1137  0.1058  0.2897
 2626ntf    on518324   0.395   1.850   4.849 -0.8076  0.3832  0.7067
 2626ntf    on518325   0.481   1.941   5.064  0.6792  0.1071  0.0221
 2626ntf    on518326   0.679   1.632   4.796 -0.0277 -0.7291 -0.0048
 2626ntf    on518327   0.464   1.519   4.829 -0.4712  0.1963  0.7198
 2626ntf    fn418328   0.769   1.504   5.030 -0.4889  0.0205  0.3142
 2626ntf    fn418329   0.575   1.441   5.098 -0.1338 -0.2776 -0.1879
 2626ntf    fn418330   0.659   1.353   4.928 -0.1054 -0.2014 -0.3436
 2627ntf    cn118331   2.843   2.715   1.694 -0.4164  0.1715  0.1340
 2627ntf    sn218332   2.890   2.743   1.520 -0.3210  0.1762  0.1605
 2627ntf    nn318333   3.046   2.732   1.535 -0.2369  0.5397 -0.4303
 2627ntf    sn218334   3.140   2.840   1.600 -0.3362  0.3634  0.0068
 2627ntf    cn118335   3.243   2.878   1.456 -0.2720  0.1528 -0.0040
 2627ntf    fn418336   2.715   2.724   1.726 -0.5008 -0.4902 -0.0112
 2627ntf    fn418337   2.882   2.594   1.731  0.0017  0.2882  0.0887
 2627ntf    fn418338   2.908   2.803   1.768  0.2953  0.1606 -0.4658
 2627ntf    on518339   2.833   2.631   1.448  0.0830 -0.3617  0.6640
 2627ntf    on518340   2.854   2.877   1.480  0.2641  0.3913  0.3455
 2627ntf    on518341   3.237   2.784   1.691 -0.0828  0.3216 -0.2909
 2627ntf    on518342   3.078   2.965   1.635 -0.3505  0.2695  0.3237
 2627ntf    fn418343   3.339   2.960   1.496  0.2690 -0.1158 -0.7426
 2627ntf    fn418344   3.296   2.774   1.395  0.1394  0.3004  0.0969
 2627ntf    fn418345   3.172   2.946   1.367  0.1582  0.4433 -0.1270
 2628ntf    cn118346   2.591   0.274   0.512 -0.4219  0.2176  0.4035
 2628ntf    sn218347   2.615   0.115   0.597 -0.0078 -0.1095 -0.3108
 2628ntf    nn318348   2.767   0.108   0.634 -0.1280 -0.0902  0.1907
 2628ntf    sn218349   2.885   0.052   0.548 -0.0770  0.1155  0.1282
 2628ntf    cn118350   2.862  -0.124   0.587  0.2824  0.0108 -0.1254
 2628ntf    fn418351   2.664   0.371   0.564  0.3022  0.0038 -0.1800
 2628ntf    fn418352   2.616   0.265   0.382  0.0387  0.4823  0.4716
 2628ntf    fn418353   2.466   0.314   0.521 -0.4945  0.1373 -0.2049
 2628ntf    on518354   2.534   0.134   0.715 -0.0617 -0.5008 -0.2809
 2628ntf    on518355   2.563   0.012   0.510 -0.0367 -0.4849  0.1443
 2628ntf    on518356   3.015   0.081   0.604  0.3060 -0.2976 -0.5330
 2628ntf    on518357   2.883   0.070   0.405 -0.4988  0.3897  0.1673
 2628ntf    fn418358   2.752  -0.181   0.542  0.0531 -0.0596  0.5168
 2628ntf    fn418359   2.961  -0.191   0.530  0.4803  0.2298 -0.0414
 2628ntf    fn418360   2.867  -0.148   0.717 -0.0538  0.4241 -0.0340
 2629ntf    cn118361   3.831   2.842   0.339 -0.1023 -0.2959  0.1977
 2629ntf    sn218362   3.667   2.764   0.342 -0.3184  0.1453 -0.0005
 2629ntf    nn318363   3.667   2.684   0.207 -0.5699 -0.1485  0.1725
 2629ntf    sn218364   3.615   2.737   0.068 -0.2743 -0.1234  0.0717
 2629ntf    cn118365   3.573   2.572   0.005  0.0736 -0.1278 -0.1536
 2629ntf    fn418366   3.831   2.929   0.439  0.1077 -0.3098  0.2098
 2629ntf    fn418367   3.931   2.757   0.353  0.2829  0.2260  0.6411
 2629ntf    fn418368   3.852   2.918   0.232 -0.2210 -0.2587  0.2005
 2629ntf    on518369   3.684   2.667   0.448 -0.3496  0.1929  0.0481
 2629ntf    on518370   3.573   2.871   0.368  0.2165  0.6588 -0.1436
 2629ntf    on518371   3.711   2.781  -0.030  0.0359 -0.8205  0.0512
 2629ntf    on518372   3.488   2.803   0.082 -0.2229  0.1311 -0.6460
 2629ntf    fn418373   3.660   2.480   0.045 -0.4598 -0.3183  0.6103
 2629ntf    fn418374   3.459   2.523   0.053  0.1168 -0.3637 -0.2883
 2629ntf    fn418375   3.565   2.576  -0.127  0.8279 -0.0810 -0.2023
 2630ntf    cn118376   3.715   2.911   5.955 -0.1658  0.5016 -0.0961
 2630ntf    sn218377   3.872   2.910   5.864 -0.1632  0.1674 -0.0885
 2630ntf    nn318378   3.936   2.768   5.882 -0.4654  0.0286 -0.1026
 2630ntf    sn218379   3.899   2.638   5.803  0.1148 -0.0564 -0.2427
 2630ntf    cn118380   3.849   2.532   5.942 -0.2287  0.0724 -0.2676
 2630ntf    fn418381   3.733   2.867   6.078 -0.0665  0.6772 -0.0472
 2630ntf    fn418382   3.656   3.030   5.965 -0.1179  0.5311 -0.1624
 2630ntf    fn418383   3.626   2.831   5.899  0.0946  0.4948 -0.5055
 2630ntf    on518384   3.833   2.956   5.733  0.1301  0.3760 -0.1049
 2630ntf    on518385   3.949   3.005   5.941  0.5006  0.0787 -0.6306
 2630ntf    on518386   4.013   2.563   5.758  0.1053 -0.3016  0.1336
 2630ntf    on518387   3.780   2.642   5.722 -0.1169 -0.4954  0.0739
 2630ntf    fn418388   3.775   2.605   6.024 -0.0784 -0.0001 -0.0660
 2630ntf    fn418389   3.777   2.429   5.902 -0.4341  0.1641 -0.1385
 2630ntf    fn418390   3.951   2.484   6.011  0.0341  0.7745 -0.1557
 2631ntf    cn118391   0.657   3.182   4.930  0.1202  0.0815 -0.2047
 2631ntf    sn218392   0.689   3.003   4.923 -0.0424  0.0482 -0.0968
 2631ntf    nn318393   0.841   2.995   4.886  0.0529  0.4432  0.2050
 2631ntf    sn218394   0.907   2.971   4.745 -0.0827 -0.1053  0.2325
 2631ntf    cn118395   0.901   2.789   4.741  0.1010 -0.1015 -0.1446
 2631ntf    fn418396   0.730   3.239   5.024 -0.3657 -0.2426  0.3684
 2631ntf    fn418397   0.691   3.241   4.816  0.7119  0.2211  0.0418
 2631ntf    fn418398   0.528   3.208   4.945  0.0040 -0.4412 -0.2669
 2631ntf    on518399   0.663   2.967   5.060 -0.3639  0.5712 -0.0171
 2631ntf    on518400   0.595   2.954   4.825 -0.3736  0.4467  0.0169
 2631ntf    on518401   1.046   3.003   4.730 -0.1780  0.2024 -0.0019
 2631ntf    on518402   0.822   3.015   4.637 -0.1439  0.4783  0.5121
 2631ntf    fn418403   0.777   2.746   4.748  0.1100 -0.0747  0.1743
 2631ntf    fn418404   0.958   2.743   4.630  0.4767  0.3671 -0.1506
 2631ntf    fn418405   0.963   2.736   4.845  0.1511 -0.4831 -0.3664
 2632ntf    cn118406   1.387   6.298   1.273 -0.1315  0.2438  0.2678
 2632ntf    sn218407   1.353   6.139   1.192  0.1339  0.0821  0.4762
 2632ntf    nn318408   1.213   6.163   1.125  0.3003  0.0017  0.0936
 2632ntf    sn218409   1.091   6.065   1.116  0.1972  0.1175  0.2084
 2632ntf    cn118410   1.001   6.119   1.264 -0.2099  0.0368 -0.0071
 2632ntf    fn418411   1.391   6.401   1.190 -0.3477 -0.1117 -0.1897
 2632ntf    fn418412   1.289   6.316   1.360 -0.4868  0.3477 -0.1457
 2632ntf    fn418413   1.502   6.306   1.338  0.0114  0.4323 -0.0049
 2632ntf    on518414   1.459   6.131   1.095 -0.4984  0.4780 -0.2575
 2632ntf    on518415   1.355   6.044   1.300  0.3594 -0.6820 -0.1912
 2632ntf    on518416   1.123   5.928   1.148 -0.0497  0.0031 -0.0312
 2632ntf    on518417   1.004   6.091   1.004  0.1347 -0.3078  0.1568
 2632ntf    fn418418   1.073   6.098   1.373 -0.5753  0.0736  0.2408
 2632ntf    fn418419   0.966   6.246   1.257 -0.3034  0.0001 -0.2183
 2632ntf    fn418420   0.895   6.042   1.278 -0.2412  0.0113 -0.3681
 2633ntf    cn118421   0.669   4.775   0.144 -0.0538 -0.3527 -0.3447
 2633ntf    sn218422   0.777   4.920   0.163 -0.3684 -0.1693  0.0559
 2633ntf    nn318423   0.906   4.878   0.085  0.0120  0.0054  0.5819
 2633ntf    sn218424   0.952   4.903  -0.063 -0.0921  0.0411  0.5564
 2633ntf    cn118425   1.053   5.052  -0.036 -0.0035  0.0432  0.2164
 2633ntf    fn418426   0.559   4.784   0.216  0.2415 -0.1526  0.0824
 2633ntf    fn418427   0.633   4.750   0.019 -0.0913  0.2083 -0.4510
 2633ntf    fn418428   0.725   4.660   0.176  0.1163 -0.1178  0.2122
 2633ntf    on518429   0.711   5.031   0.099  0.0106  0.2549  0.3923
 2633ntf    on518430   0.782   4.923   0.307 -0.1332 -0.1848  0.0478
 2633ntf    on518431   0.854   4.956  -0.155  0.7579  0.5670 -0.0623
 2633ntf    on518432   1.039   4.801  -0.115  0.2770  0.5126  0.2369
 2633ntf    fn418433   0.985   5.147   0.026  0.5949  0.5525  0.1086
 2633ntf    fn418434   1.154   5.028   0.047 -0.0457 -0.0049  0.2539
 2633ntf    fn418435   1.093   5.117  -0.145 -0.1281 -0.1615  0.0482
 2634ntf    cn118436   0.174   6.361   4.931 -0.0589  0.1550 -0.0079
 2634ntf    sn218437   0.003   6.425   4.927 -0.0886  0.0659 -0.1736
 2634ntf    nn318438  -0.013   6.452   5.081  0.2525 -0.0356 -0.1192
 2634ntf    sn218439  -0.055   6.350   5.192 -0.1932  0.3301  0.0496
 2634ntf    cn118440  -0.236   6.351   5.176 -0.1517  0.1927 -0.4298
 2634ntf    fn418441   0.218   6.303   4.820 -0.0568 -0.4261  0.2940
 2634ntf    fn418442   0.261   6.458   4.954 -0.2654  0.4010 -0.2464
 2634ntf    fn418443   0.198   6.274   5.027  0.4244  0.0812 -0.1929
 2634ntf    on518444   0.024   6.542   4.845  0.4806  0.1694  0.1148
 2634ntf    on518445  -0.071   6.313   4.875 -0.5774  0.0630  0.5228
 2634ntf    on518446  -0.022   6.394   5.326  0.9676 -0.1453 -0.0697
 2634ntf    on518447  -0.017   6.214   5.163  0.2369  0.4161  0.1898
 2634ntf    fn418448  -0.273   6.360   5.049 -0.3527  0.2583 -0.3664
 2634ntf    fn418449  -0.295   6.243   5.226 -0.0946  0.4705  0.2424
 2634ntf    fn418450  -0.294   6.451   5.239 -0.1669 -0.2093  0.2047
 2635ntf    cn118451   5.596   3.808   3.701 -0.0981 -0.3075  0.2237
 2635ntf    sn218452   5.540   3.901   3.847 -0.3521  0.4571 -0.3503
 2635ntf    nn318453   5.532   4.049   3.797  0.0398  0.4148 -0.5403
 2635ntf    sn218454   5.407   4.143   3.781 -0.2167  0.1653 -0.0009
 2635ntf    cn118455   5.409   4.136   3.600  0.0774 -0.3411  0.0184
 2635ntf    fn418456   5.644   3.689   3.734  0.1101 -0.0349  0.9260
 2635ntf    fn418457   5.502   3.796   3.609 -0.1994  0.2840  0.2451
 2635ntf    fn418458   5.698   3.870   3.644 -0.0604 -0.5994 -0.0262
 2635ntf    on518459   5.416   3.839   3.886 -0.1753  0.4964  0.2960
 2635ntf    on518460   5.649   3.878   3.939 -0.6574  0.0984 -0.0739
 2635ntf    on518461   5.441   4.279   3.817  0.2168  0.1911 -0.4947
 2635ntf    on518462   5.282   4.087   3.828 -0.1742 -0.5636 -0.7411
 2635ntf    fn418463   5.301   4.180   3.536  0.1282 -0.0300  0.1433
 2635ntf    fn418464   5.508   4.207   3.548  0.3030 -0.7334 -0.0881
 2635ntf    fn418465   5.419   4.011   3.558  0.2895 -0.3709  0.1550
 2636ntf    cn118466   6.196   2.251   1.698  0.2454  0.5862 -0.4949
 2636ntf    sn218467   6.223   2.238   1.519  0.1645  0.1326 -0.4743
 2636ntf    nn318468   6.079   2.208   1.465  0.0373  0.2184 -0.1813
 2636ntf    sn218469   6.017   2.089   1.385  0.1789  0.1316 -0.1622
 2636ntf    cn118470   5.904   2.185   1.279  0.1999  0.4297  0.0847
 2636ntf    fn418471   6.166   2.130   1.740  0.3967  0.6487 -0.2077
 2636ntf    fn418472   6.298   2.294   1.770 -0.1758  0.5439  0.1405
 2636ntf    fn418473   6.093   2.328   1.729 -0.3281 -0.1783 -0.4967
 2636ntf    on518474   6.289   2.361   1.484 -0.1728  0.6895  0.8103
 2636ntf    on518475   6.309   2.121   1.516 -0.1195 -0.0957  0.2008
 2636ntf    on518476   5.923   2.004   1.456  0.1691 -0.1100 -0.4596
 2636ntf    on518477   6.113   2.026   1.297 -0.0267 -0.3277 -0.0646
 2636ntf    fn418478   5.967   2.252   1.184  0.6949 -0.0976  0.0288
 2636ntf    fn418479   5.822   2.100   1.219  0.0605  0.3945  0.3238
 2636ntf    fn418480   5.825   2.271   1.341 -0.2963  0.0645 -0.0361
 2637ntf    cn118481   2.178   5.829   0.691  0.2044 -0.3408  0.0501
 2637ntf    sn218482   2.145   5.831   0.870  0.1202  0.3176  0.0297
 2637ntf    nn318483   2.000   5.889   0.871  0.0007  0.0197 -0.0485
 2637ntf    sn218484   1.863   5.812   0.864  0.0791 -0.1561  0.3805
 2637ntf    cn118485   1.818   5.792   1.039 -0.0439  0.1722  0.3861
 2637ntf    fn418486   2.087   5.768   0.617  0.2407 -0.1889 -0.1226
 2637ntf    fn418487   2.198   5.951   0.643  0.1769 -0.4566 -0.2632
 2637ntf    fn418488   2.289   5.764   0.661 -0.0428 -0.5169 -0.5132
 2637ntf    on518489   2.151   5.697   0.921  0.6069  0.2285 -0.2506
 2637ntf    on518490   2.234   5.926   0.932  0.4165 -0.0300  0.1413
 2637ntf    on518491   1.877   5.677   0.816 -0.1777 -0.3521  0.8488
 2637ntf    on518492   1.754   5.887   0.808  0.1078 -0.4304 -0.0415
 2637ntf    fn418493   1.907   5.732   1.116  0.5011  0.5383  0.0413
 2637ntf    fn418494   1.799   5.911   1.094 -0.0413  0.1139  0.5140
 2637ntf    fn418495   1.701   5.732   1.055  0.0401 -0.0226  0.2691
 2638ntf    cn118496   0.112   6.086   0.091  0.1612 -0.3274 -0.0051
 2638ntf    sn218497   0.252   6.198   0.118 -0.2063  0.1204  0.0623
 2638ntf    nn318498   0.303   6.142   0.256 -0.4888 -0.1464  0.0567
 2638ntf    sn218499   0.278   6.194   0.402 -0.0827 -0.0723  0.1008
 2638ntf    cn118500   0.392   6.335   0.418  0.1664 -0.2271 -0.2829
 2638ntf    fn418501   0.046   6.099  -0.023  0.0470 -0.2023  0.0751
 2638ntf    fn418502   0.159   5.963   0.098  0.2917 -0.2516  0.4800
 2638ntf    fn418503   0.021   6.095   0.186 -0.2795 -0.4973 -0.4044
 2638ntf    on518504   0.349   6.166   0.016  0.1789 -0.6991  0.6753
 2638ntf    on518505   0.191   6.328   0.123 -0.2426  0.1052  0.0163
 2638ntf    on518506   0.326   6.110   0.508  0.9761  0.4813  0.0661
 2638ntf    on518507   0.145   6.246   0.426 -0.0296  0.1777 -0.1354
 2638ntf    fn418508   0.515   6.298   0.387  0.4192  0.0770  0.3248
 2638ntf    fn418509   0.362   6.433   0.335  0.4357 -0.2631 -0.4247
 2638ntf    fn418510   0.404   6.387   0.539  0.0221 -0.1474 -0.3017
 2639ntf    cn118511   5.309   0.570   6.299  0.4334  0.0501  0.2726
 2639ntf    sn218512   5.330   0.405   6.224  0.1713  0.0683  0.1585
 2639ntf    nn318513   5.223   0.421   6.110  0.2964 -0.3896 -0.0243
 2639ntf    sn218514   5.244   0.433   5.955  0.3215 -0.4635 -0.0268
 2639ntf    cn118515   5.282   0.259   5.918  0.1647 -0.4823 -0.0989
 2639ntf    fn418516   5.213   0.566   6.389  0.1855 -0.2630 -0.0040
 2639ntf    fn418517   5.417   0.618   6.358  0.4419  0.4944 -0.1005
 2639ntf    fn418518   5.283   0.665   6.210  0.2150 -0.0191  0.2626
 2639ntf    on518519   5.468   0.401   6.182  0.1567  0.0177  0.1148
 2639ntf    on518520   5.286   0.308   6.321  0.1405  0.2926  0.3694
 2639ntf    on518521   5.362   0.505   5.914  0.2648 -0.1115  0.4173
 2639ntf    on518522   5.124   0.459   5.880  0.2582 -0.0483  0.2162
 2639ntf    fn418523   5.177   0.181   5.935 -0.1672 -0.0368 -0.0984
 2639ntf    fn418524   5.312   0.247   5.790 -0.0561  0.2741 -0.2281
 2639ntf    fn418525   5.387   0.212   5.984  0.1102  0.5332  0.7335
 2640ntf    cn118526   1.052   4.877   1.425  0.2325  0.2181 -0.0734
 2640ntf    sn218527   1.142   4.733   1.489  0.1387  0.2928  0.2299
 2640ntf    nn318528   1.039   4.624   1.443  0.6297 -0.1076  0.0688
 2640ntf    sn218529   1.042   4.530   1.317 -0.3006  0.0604 -0.0870
 2640ntf    cn118530   1.133   4.397   1.399 -0.1782  0.2651  0.1093
 2640ntf    fn418531   1.108   4.992   1.458 -0.0056  0.2787  0.1276
 2640ntf    fn418532   1.037   4.892   1.295 -0.2908 -0.3379 -0.0804
 2640ntf    fn418533   0.925   4.878   1.461  0.3039 -0.7623  0.2266
 2640ntf    on518534   1.267   4.731   1.419 -0.1575 -0.2212 -0.2932
 2640ntf    on518535   1.138   4.761   1.631  0.2725 -0.0699  0.3092
 2640ntf    on518536   1.126   4.575   1.209  0.0910  0.1868  0.2663
 2640ntf    on518537   0.913   4.478   1.279 -0.0309 -0.2415 -0.6003
 2640ntf    fn418538   1.055   4.328   1.480  0.3273 -0.6786 -0.1902
 2640ntf    fn418539   1.171   4.305   1.312  0.5630  0.4104  0.2689
 2640ntf    fn418540   1.237   4.437   1.471 -0.2687 -0.0726  0.4343
 2641ntf    cn118541   4.057   3.993   3.626  0.2401  0.1901 -0.4887
 2641ntf    sn218542   3.986   4.078   3.770  0.3401 -0.0326 -0.3078
 2641ntf    nn318543   3.986   3.947   3.857 -0.7526  0.0587 -0.1640
 2641ntf    sn218544   4.001   3.932   4.013 -0.3049  0.1196 -0.2020
 2641ntf    cn118545   4.176   3.881   4.013 -0.2837  0.1887  0.2560
 2641ntf    fn418546   4.129   3.889   3.664 -0.2206  0.0278 -0.0502
 2641ntf    fn418547   3.966   3.951   3.539  0.3554 -0.4571 -0.3050
 2641ntf    fn418548   4.131   4.079   3.558  0.2963  0.1493 -0.4802
 2641ntf    on518549   4.075   4.186   3.804  0.2028  0.0471 -0.2012
 2641ntf    on518550   3.859   4.124   3.721  0.2439  0.0713  0.0336
 2641ntf    on518551   3.929   3.821   4.070 -0.4410  0.3509  0.0765
 2641ntf    on518552   4.013   4.053   4.090 -0.0806  0.0115 -0.0651
 2641ntf    fn418553   4.258   3.954   3.939  0.0708  0.0821  0.5419
 2641ntf    fn418554   4.221   3.892   4.137 -0.3136 -0.4415  0.3246
 2641ntf    fn418555   4.195   3.754   3.981 -0.4657  0.1580  0.2671
 2642ntf    cn118556   5.674   5.965   4.883  0.0156  0.2774  0.0576
 2642ntf    sn218557   5.589   5.954   5.044 -0.1503  0.1435 -0.0388
 2642ntf    nn318558   5.522   5.813   5.031  0.1138  0.0556 -0.4686
 2642ntf    sn218559   5.372   5.782   4.998  0.1344 -0.5259 -0.0490
 2642ntf    cn118560   5.396   5.634   4.895 -0.0344 -0.4924 -0.1376
 2642ntf    fn418561   5.586   5.982   4.785  0.0104  0.1725  0.0441
 2642ntf    fn418562   5.753   6.071   4.870  0.3671  0.0284  0.1534
 2642ntf    fn418563   5.749   5.859   4.861  0.0019  0.1290  0.6865
 2642ntf    on518564   5.695   5.960   5.141 -0.3599 -0.0921  0.2055
 2642ntf    on518565   5.498   6.065   5.040 -0.3842 -0.0605 -0.4157
 2642ntf    on518566   5.306   5.871   4.905  0.6275 -0.0807  0.0241
 2642ntf    on518567   5.300   5.738   5.115 -0.0214  0.6159  0.2979
 2642ntf    fn418568   5.303   5.614   4.803 -0.1285  0.1965 -0.2002
 2642ntf    fn418569   5.512   5.645   4.832  0.0693 -0.4300  0.0628
 2642ntf    fn418570   5.409   5.525   4.968  0.5445  0.1320  0.7146
 2643ntf    cn118571   6.731   0.752   5.101 -0.0214  0.3027 -0.1667
 2643ntf    sn218572   6.817   0.630   4.997 -0.0815 -0.3565  0.5490
 2643ntf    nn318573   6.707   0.523   4.966  0.1359 -0.4243  0.0070
 2643ntf    sn218574   6.665   0.460   4.828 -0.3064 -0.0265 -0.0461
 2643ntf    cn118575   6.519   0.559   4.786 -0.3321 -0.1270 -0.1958
 2643ntf    fn418576   6.690   0.706   5.218  0.0092  0.1023 -0.2342
 2643ntf    fn418577   6.802   0.862   5.123 -0.1711  0.2957  0.3706
 2643ntf    fn418578   6.622   0.788   5.034 -0.0928  0.0290 -0.1964
 2643ntf    on518579   6.850   0.703   4.877 -0.3359  0.3641  0.9134
 2643ntf    on518580   6.918   0.589   5.092 -0.5243 -0.9304  0.7707
 2643ntf    on518581   6.610   0.329   4.852  0.1048 -0.1413  0.2837
 2643ntf    on518582   6.752   0.473   4.713  0.1353 -0.6679  0.2060
 2643ntf    fn418583   6.473   0.522   4.668  0.4538  0.0123 -0.5501
 2643ntf    fn418584   6.414   0.548   4.866 -0.0848  0.4758  0.2208
 2643ntf    fn418585   6.550   0.687   4.772 -0.7546  0.0514  0.4404
 2644ntf    cn118586   1.795   0.051   5.241  0.2879 -0.0192  0.1598
 2644ntf    sn218587   1.820  -0.113   5.316 -0.3933 -0.2781 -0.1707
 2644ntf    nn318588   1.882  -0.073   5.454 -0.2455 -0.5928 -0.1440
 2644ntf    sn218589   1.813  -0.044   5.592  0.3263 -0.2497  0.0754
 2644ntf    cn118590   1.951  -0.063   5.710  0.1748 -0.4067  0.2274
 2644ntf    fn418591   1.740   0.040   5.121 -0.1851  0.2084  0.3501
 2644ntf    fn418592   1.712   0.131   5.307  0.6141  0.5331 -0.0978
 2644ntf    fn418593   1.901   0.127   5.223 -0.2122  0.6138 -0.1218
 2644ntf    on518594   1.688  -0.172   5.319 -0.4807 -0.1227 -0.8326
 2644ntf    on518595   1.914  -0.175   5.225 -0.5632  0.3455 -0.7753
 2644ntf    on518596   1.720  -0.146   5.633  0.0491 -0.2749 -0.5994
 2644ntf    on518597   1.780   0.094   5.614 -0.0513 -0.2887 -0.2347
 2644ntf    fn418598   2.055   0.014   5.685  0.1592 -0.3019  0.4857
 2644ntf    fn418599   1.908  -0.049   5.834  0.0609  0.0197  0.1429
 2644ntf    fn418600   2.005  -0.183   5.696 -0.2643 -0.5645 -0.1624
 2645ntf    cn118601   0.185   4.494   6.653 -0.5830 -0.0560  0.1221
 2645ntf    sn218602   0.290   4.360   6.716  0.0254  0.2354 -0.2603
 2645ntf    nn318603   0.301   4.395   6.869  0.0705  0.1777 -0.2506
 2645ntf    sn218604   0.419   4.451   6.957  0.0379 -0.0481 -0.0621
 2645ntf    cn118605   0.485   4.298   7.030 -0.0855 -0.1117 -0.0821
 2645ntf    fn418606   0.138   4.462   6.533 -0.6046 -0.5778  0.2678
 2645ntf    fn418607   0.080   4.524   6.727 -1.2578 -0.0304 -0.8280
 2645ntf    fn418608   0.254   4.606   6.635  0.2423 -0.6379 -0.4011
 2645ntf    on518609   0.200   4.249   6.698 -0.2857  0.4574 -0.0927
 2645ntf    on518610   0.406   4.359   6.631  0.4531 -0.4324  0.3167
 2645ntf    on518611   0.370   4.514   7.077  0.2179  0.5545 -0.3029
 2645ntf    on518612   0.525   4.517   6.886 -0.3252  0.4950 -0.1093
 2645ntf    fn418613   0.563   4.221   6.955 -0.1838 -0.4604  0.1692
 2645ntf    fn418614   0.562   4.312   7.137 -0.3687  0.1930  0.0825
 2645ntf    fn418615   0.382   4.225   7.069  0.0111 -0.5038 -0.5528
 2646ntf    cn118616   2.183   1.002   3.819  0.0465  0.0333  0.3330
 2646ntf    sn218617   2.325   0.902   3.871  0.4141  0.1556 -0.4244
 2646ntf    nn318618   2.256   0.762   3.876 -0.3900  0.5727  0.4465
 2646ntf    sn218619   2.250   0.662   3.755  0.3047  0.4141  0.5387
 2646ntf    cn118620   2.188   0.511   3.835  0.6578  0.0837  0.1977
 2646ntf    fn418621   2.076   0.930   3.788  0.2438 -0.1417  0.0608
 2646ntf    fn418622   2.153   1.083   3.919 -0.2479  0.1740  0.1322
 2646ntf    fn418623   2.215   1.093   3.728 -0.1512 -0.2077  0.0194
 2646ntf    on518624   2.421   0.925   3.765  0.4301  0.8927 -0.2536
 2646ntf    on518625   2.355   0.954   4.002  0.0965 -0.2754 -0.1814
 2646ntf    on518626   2.377   0.617   3.702 -0.1794 -0.1422 -0.1831
 2646ntf    on518627   2.152   0.693   3.653  0.6179 -0.9964 -0.2222
 2646ntf    fn418628   2.280   0.453   3.909 -0.0398 -0.8325  0.3659
 2646ntf    fn418629   2.090   0.545   3.918  0.1633  0.0287 -0.3575
 2646ntf    fn418630   2.149   0.419   3.749  0.3776  0.3151  0.0718
 2647ntf    cn118631   1.566   0.179   2.431 -0.0662  0.3233  0.2685
 2647ntf    sn218632   1.450   0.163   2.292  0.0941  0.2073  0.1484
 2647ntf    nn318633   1.348   0.282   2.301 -0.1731 -0.0457  0.4253
 2647ntf    sn218634   1.228   0.295   2.401 -0.2942 -0.4791  0.3423
 2647ntf    cn118635   1.091   0.235   2.298 -0.0333 -0.4010 -0.0527
 2647ntf    fn418636   1.631   0.294   2.428  0.1035  0.2193 -0.3005
 2647ntf    fn418637   1.514   0.173   2.552 -0.1032 -0.0882  0.2307
 2647ntf    fn418638   1.660   0.086   2.432 -0.3769  0.0021 -0.2479
 2647ntf    on518639   1.538   0.186   2.180 -0.2173  0.4988 -0.0401
 2647ntf    on518640   1.401   0.028   2.303  0.2351  0.1261 -0.1864
 2647ntf    on518641   1.191   0.434   2.418  0.3061 -0.3013  0.2114
 2647ntf    on518642   1.230   0.213   2.520  0.8801 -0.0814  0.6049
 2647ntf    fn418643   1.122   0.122   2.238  0.7280  0.1154 -0.6476
 2647ntf    fn418644   0.976   0.221   2.363 -0.0072 -0.2058  0.0382
 2647ntf    fn418645   1.069   0.326   2.205  0.2611 -0.2932 -0.0164
 2648ntf    cn118646   3.975   4.478   4.621  0.0377  0.0428  0.1145
 2648ntf    sn218647   3.982   4.653   4.669  0.1617  0.0503  0.0690
 2648ntf    nn318648   3.924   4.654   4.815  0.3143 -0.0799  0.1309
 2648ntf    sn218649   4.015   4.654   4.943 -0.0864  0.1931  0.4179
 2648ntf    cn118650   3.954   4.497   5.011 -0.2671  0.1823  0.2345
 2648ntf    fn418651   4.056   4.394   4.683 -0.2248 -0.3481 -0.0682
 2648ntf    fn418652   3.851   4.437   4.642  0.1667 -0.1392  0.5238
 2648ntf    fn418653   4.002   4.465   4.492 -0.5298 -0.0119  0.0016
 2648ntf    on518654   4.121   4.687   4.646  0.1154  0.2877  0.1312
 2648ntf    on518655   3.887   4.710   4.577  0.3977  0.3251 -0.0100
 2648ntf    on518656   3.960   4.746   5.040  0.4035  1.1606 -0.2017
 2648ntf    on518657   4.158   4.643   4.930 -0.1066  0.1170  0.2457
 2648ntf    fn418658   3.823   4.495   5.029 -0.3380 -0.3795 -0.2860
 2648ntf    fn418659   3.989   4.396   4.933 -0.2508  0.0763  0.3782
 2648ntf    fn418660   4.008   4.474   5.129  0.5190 -0.4987 -0.2452
 2649ntf    cn118661   1.374   0.323   4.529  0.1199  0.0359  0.0948
 2649ntf    sn218662   1.327   0.180   4.427  0.1609  0.0707  0.0261
 2649ntf    nn318663   1.379   0.062   4.517  0.0334  0.2963  0.3994
 2649ntf    sn218664   1.306  -0.074   4.544  0.2536  0.0871 -0.0446
 2649ntf    cn118665   1.433  -0.187   4.481  0.1304 -0.0320 -0.0806
 2649ntf    fn418666   1.502   0.317   4.562  0.1158 -0.1088  0.0841
 2649ntf    fn418667   1.344   0.436   4.467  0.9443  0.4990  0.5163
 2649ntf    fn418668   1.306   0.330   4.642 -0.4704  0.5398 -0.2890
 2649ntf    on518669   1.184   0.192   4.411  0.1486 -0.5575 -0.3517
 2649ntf    on518670   1.396   0.185   4.301  0.3524  0.0063  0.1282
 2649ntf    on518671   1.188  -0.098   4.464 -0.2282 -0.0967  0.7086
 2649ntf    on518672   1.287  -0.102   4.684  0.3831 -0.3261 -0.1094
 2649ntf    fn418673   1.537  -0.200   4.562  0.3156  0.2860 -0.2651
 2649ntf    fn418674   1.392  -0.307   4.444 -0.2179  0.1336 -0.2312
 2649ntf    fn418675   1.483  -0.139   4.369  0.1143 -0.3532 -0.2251
 2650ntf    cn118676   2.787   2.797   3.261  0.1826  0.1412 -0.0164
 2650ntf    sn218677   2.660   2.702   3.174 -0.0311  0.0991  0.3412
 2650ntf    nn318678   2.748   2.578   3.138 -0.3512 -0.1067  0.2571
 2650ntf    sn218679   2.778   2.456   3.232 -0.1739 -0.3016 -0.0510
 2650ntf    cn118680   2.662   2.329   3.172 -0.2657 -0.3856  0.3062
 2650ntf    fn418681   2.839   2.738   3.368 -0.0605  0.1198  0.0903
 2650ntf    fn418682   2.891   2.820   3.183 -0.0144  0.4254 -0.1970
 2650ntf    fn418683   2.756   2.917   3.309  0.0043 -0.0309  0.3003
 2650ntf    on518684   2.552   2.682   3.267 -0.0406 -0.4706  0.2140
 2650ntf    on518685   2.627   2.780   3.057 -0.4265 -0.4315  0.0912
 2650ntf    on518686   2.738   2.467   3.370 -0.2982  0.2129 -0.1284
 2650ntf    on518687   2.907   2.397   3.201 -0.0450 -0.0678  0.0368
 2650ntf    fn418688   2.539   2.371   3.192 -0.0487  0.2020  0.4243
 2650ntf    fn418689   2.673   2.299   3.044 -0.1041  0.7484  0.0421
 2650ntf    fn418690   2.676   2.215   3.239  0.5197 -0.3296  0.2527
 2651ntf    cn118691   3.507   6.760   0.094  0.1341 -0.1651 -0.1129
 2651ntf    sn218692   3.335   6.815   0.075  0.2303  0.0948 -0.2294
 2651ntf    nn318693   3.325   6.822  -0.081 -0.1905  0.7366 -0.1791
 2651ntf    sn218694   3.218   6.764  -0.181 -0.0837  0.1347  0.0519
 2651ntf    cn118695   3.299   6.622  -0.261 -0.0439  0.1474  0.0678
 2651ntf    fn418696   3.545   6.746   0.220 -0.5165  0.5446  0.1642
 2651ntf    fn418697   3.553   6.658   0.022  0.2344 -0.0448 -0.2191
 2651ntf    fn418698   3.589   6.855   0.052  0.0500  0.3004  0.7577
 2651ntf    on518699   3.263   6.705   0.135 -0.2114  0.5218  0.0339
 2651ntf    on518700   3.319   6.942   0.143 -0.1103 -0.1255  0.1083
 2651ntf    on518701   3.201   6.856  -0.290  0.3415  0.7595  0.5032
 2651ntf    on518702   3.099   6.713  -0.117 -0.3376  0.9690  0.2579
 2651ntf    fn418703   3.401   6.573  -0.192 -0.1390 -0.5116 -0.2452
 2651ntf    fn418704   3.221   6.522  -0.300  0.4190  0.0031 -0.4964
 2651ntf    fn418705   3.349   6.656  -0.378  0.0006  0.5187  0.1931
 2652ntf    cn118706   3.902   5.454   1.556  0.2985 -0.2946 -0.0219
 2652ntf    sn218707   3.742   5.540   1.545  0.0644 -0.7346 -0.0637
 2652ntf    nn318708   3.783   5.676   1.478 -0.2391 -0.7046 -0.1879
 2652ntf    sn218709   3.730   5.735   1.342  0.3015  0.2297 -0.0057
 2652ntf    cn118710   3.886   5.743   1.250  0.2205  0.0582 -0.1582
 2652ntf    fn418711   3.967   5.456   1.441  0.1171  0.3726 -0.1191
 2652ntf    fn418712   3.973   5.510   1.654  0.2740 -0.2931 -0.0049
 2652ntf    fn418713   3.884   5.328   1.591 -0.1549 -0.1912  0.1267
 2652ntf    on518714   3.658   5.447   1.474 -0.3436 -0.4009 -0.0184
 2652ntf    on518715   3.707   5.559   1.683 -0.1712 -0.3085 -0.1815
 2652ntf    on518716   3.700   5.875   1.355  0.2658  0.2053  0.1789
 2652ntf    on518717   3.646   5.646   1.265  0.3649  0.5077 -0.3955
 2652ntf    fn418718   3.867   5.756   1.120 -0.1920  0.7334 -0.0306
 2652ntf    fn418719   3.965   5.842   1.288  0.4854 -0.0965 -0.3012
 2652ntf    fn418720   3.952   5.628   1.259 -0.1675 -0.1434  0.1482
 2653ntf    cn118721   1.390   0.979   5.559 -0.1455  0.0377 -0.0723
 2653ntf    sn218722   1.317   1.090   5.683 -0.0769  0.1430 -0.1255
 2653ntf    nn318723   1.415   1.213   5.679 -0.1291  0.1976  0.2100
 2653ntf    sn218724   1.522   1.254   5.785 -0.0790  0.1165  0.1907
 2653ntf    cn118725   1.422   1.308   5.927  0.0138  0.4415  0.1335
 2653ntf    fn418726   1.486   0.904   5.610 -0.5598 -0.1957  0.3659
 2653ntf    fn418727   1.300   0.906   5.495  0.5332 -0.2807 -0.6685
 2653ntf    fn418728   1.447   1.037   5.454  0.3839  0.1385  0.2711
 2653ntf    on518729   1.188   1.113   5.623 -0.2107 -0.2724 -0.0040
 2653ntf    on518730   1.323   1.014   5.805  0.1634  0.3750  0.0075
 2653ntf    on518731   1.585   1.377   5.745 -0.0006 -0.1445 -0.5075
 2653ntf    on518732   1.600   1.146   5.840 -0.2480 -0.1283 -0.0470
 2653ntf    fn418733   1.328   1.221   5.961  0.3326  0.0964  0.1364
 2653ntf    fn418734   1.499   1.339   6.030  0.5639  0.3060 -0.2313
 2653ntf    fn418735   1.358   1.420   5.899  0.2575  0.5585  0.0427
 2654ntf    cn118736   6.201   4.393   4.628  0.1211  0.0716 -0.1402
 2654ntf    sn218737   6.163   4.403   4.806  0.1486  0.3522 -0.1488
 2654ntf    nn318738   6.083   4.270   4.829  0.5977  0.1578  0.3294
 2654ntf    sn218739   6.041   4.193   4.959 -0.0218  0.1336  0.1171
 2654ntf    cn118740   5.884   4.280   4.990 -0.1847 -0.0599 -0.1464
 2654ntf    fn418741   6.320   4.339   4.608  0.1383 -0.1016  0.4118
 2654ntf    fn418742   6.120   4.310   4.564  0.0093  0.1817 -0.1421
 2654ntf    fn418743   6.200   4.513   4.571  0.7309 -0.0193 -0.3479
 2654ntf    on518744   6.297   4.393   4.860  0.2507  0.1846 -0.4260
 2654ntf    on518745   6.083   4.520   4.833 -0.7823 -0.3429  0.1339
 2654ntf    on518746   6.123   4.217   5.075 -0.3895  0.1435  0.3764
 2654ntf    on518747   5.996   4.058   4.930 -0.3875  0.2668  0.0477
 2654ntf    fn418748   5.810   4.318   4.888 -0.3899 -0.2013 -0.0499
 2654ntf    fn418749   5.803   4.208   5.066 -0.6084  0.2198 -0.3284
 2654ntf    fn418750   5.910   4.390   5.060  0.2217 -0.1449 -0.1618
 2655ntf    cn118751   2.007   4.411   1.153 -0.3164 -0.0423  0.0046
 2655ntf    sn218752   1.917   4.432   1.309 -0.1065 -0.1664  0.1438
 2655ntf    nn318753   1.963   4.307   1.392  0.2487 -0.0981  0.0494
 2655ntf    sn218754   2.072   4.300   1.505 -0.0110  0.4722  0.3361
 2655ntf    cn118755   1.998   4.401   1.637  0.1941 -0.1515  0.9306
 2655ntf    fn418756   1.973   4.303   1.085  0.6926 -0.5442  0.2736
 2655ntf    fn418757   2.005   4.510   1.065 -0.0347  0.0523  0.1038
 2655ntf    fn418758   2.134   4.388   1.181 -0.3429  0.0976  0.2367
 2655ntf    on518759   1.964   4.562   1.351 -0.3284 -0.1120  0.2289
 2655ntf    on518760   1.782   4.418   1.260 -0.1677  0.1391  0.2190
 2655ntf    on518761   2.197   4.363   1.473  0.2583 -0.2635 -0.0809
 2655ntf    on518762   2.079   4.166   1.557  0.4361  0.4268  0.1605
 2655ntf    fn418763   1.966   4.523   1.599  0.4138 -0.1752  0.6752
 2655ntf    fn418764   1.880   4.354   1.674 -0.0425  0.0037  0.3822
 2655ntf    fn418765   2.080   4.406   1.741  0.7222  0.2286  0.4971
 2656ntf    cn118766   1.760   5.663   5.939 -0.2850  0.1881 -0.0267
 2656ntf    sn218767   1.696   5.505   6.003  0.2724 -0.0868 -0.1425
 2656ntf    nn318768   1.670   5.553   6.150  0.2710  0.1777 -0.2281
 2656ntf    sn218769   1.762   5.554   6.277  0.1766  0.0140 -0.1577
 2656ntf    cn118770   1.685   5.681   6.382 -0.1120 -0.0360 -0.3070
 2656ntf    fn418771   1.672   5.762   5.942 -0.6354 -0.1184 -0.0221
 2656ntf    fn418772   1.868   5.700   6.007 -0.2141 -0.5287  0.2612
 2656ntf    fn418773   1.792   5.652   5.811 -0.4314 -0.2538 -0.0269
 2656ntf    on518774   1.572   5.491   5.931  0.0725 -0.8370  0.3400
 2656ntf    on518775   1.797   5.404   5.984  0.4929  0.0959  0.0549
 2656ntf    on518776   1.890   5.614   6.251  0.1601  0.0851 -0.0735
 2656ntf    on518777   1.756   5.445   6.372  0.0774 -0.3130 -0.5381
 2656ntf    fn418778   1.570   5.645   6.436 -0.0782  0.0772 -0.1590
 2656ntf    fn418779   1.768   5.714   6.479 -0.4879  0.3698 -0.1195
 2656ntf    fn418780   1.662   5.785   6.303  0.0783 -0.0522 -0.3831
 2657ntf    cn118781   3.662   0.379   2.919  0.0177  0.0001 -0.0378
 2657ntf    sn218782   3.505   0.389   2.828  0.0237  0.0497 -0.0430
 2657ntf    nn318783   3.465   0.241   2.797 -0.3181  0.1557 -0.1109
 2657ntf    sn218784   3.478   0.155   2.666  0.6393  0.1742 -0.0381
 2657ntf    cn118785   3.338   0.226   2.573  0.2875  0.0691  0.4024
 2657ntf    fn418786   3.754   0.318   2.846 -0.3371 -0.2077 -0.3171
 2657ntf    fn418787   3.711   0.493   2.964  0.0333  0.0143 -0.0915
 2657ntf    fn418788   3.646   0.312   3.032  0.1210 -0.0466 -0.0507
 2657ntf    on518789   3.415   0.447   2.924  0.3017 -0.1021  0.3102
 2657ntf    on518790   3.545   0.469   2.714  0.4459 -0.1652 -0.0484
 2657ntf    on518791   3.452   0.014   2.682 -0.0331  0.3137  0.1314
 2657ntf    on518792   3.582   0.191   2.573  0.6174  0.0998 -0.0919
 2657ntf    fn418793   3.298   0.141   2.480  1.1374 -0.1023  0.1834
 2657ntf    fn418794   3.233   0.261   2.645  0.0249  0.0840  0.0160
 2657ntf    fn418795   3.374   0.333   2.503 -0.2525  0.2916  0.4652
 2658ntf    cn118796   2.023   6.036   4.429 -0.2553 -0.1130 -0.2662
 2658ntf    sn218797   1.904   5.955   4.318  0.0304 -0.4291 -0.3444
 2658ntf    nn318798   1.775   5.957   4.408 -0.0271 -0.4548 -0.4265
 2658ntf    sn218799   1.645   5.872   4.430 -0.0916 -0.2845 -0.1392
 2658ntf    cn118800   1.521   5.999   4.394 -0.0035 -0.0856  0.2585
 2658ntf    fn418801   2.022   5.987   4.552  0.3165 -0.0564 -0.2382
 2658ntf    fn418802   2.148   6.025   4.387 -0.1561  0.3064 -0.0922
 2658ntf    fn418803   2.006   6.167   4.438  0.2385 -0.0707  0.1044
 2658ntf    on518804   1.898   6.052   4.211  0.1275  0.1003  0.1236
 2658ntf    on518805   1.967   5.828   4.294  0.4401 -0.3584  0.3157
 2658ntf    on518806   1.619   5.832   4.566 -0.6518  0.0111 -0.1555
 2658ntf    on518807   1.627   5.768   4.332  0.1339 -0.1674 -0.3075
 2658ntf    fn418808   1.522   6.107   4.471 -0.5556  0.3555 -0.3413
 2658ntf    fn418809   1.532   6.040   4.268 -0.5236 -0.0166  0.2348
 2658ntf    fn418810   1.398   5.955   4.409 -0.1423  0.3368  0.3879
 2659ntf    cn118811   0.553   0.852   4.357 -0.3635  0.1618 -0.0939
 2659ntf    sn218812   0.677   0.782   4.470 -0.3238  0.3651 -0.0116
 2659ntf    nn318813   0.612   0.830   4.605  0.2312  0.0886  0.3566
 2659ntf    sn218814   0.676   0.863   4.744 -0.1142  0.2445  0.4779
 2659ntf    cn118815   0.650   0.704   4.829  0.0680 -0.0612 -0.0324
 2659ntf    fn418816   0.432   0.831   4.407 -0.4514  0.6424 -0.0968
 2659ntf    fn418817   0.552   0.983   4.339  0.5731  0.2067  0.1272
 2659ntf    fn418818   0.565   0.797   4.237 -0.5839 -0.8025  0.3165
 2659ntf    on518819   0.674   0.641   4.442 -0.4769  0.2821  0.4200
 2659ntf    on518820   0.797   0.853   4.434 -0.2016  0.0096 -0.3104
 2659ntf    on518821   0.588   0.957   4.809 -0.3509  0.4357 -0.1181
 2659ntf    on518822   0.817   0.892   4.745  0.0869 -0.7143  0.9095
 2659ntf    fn418823   0.669   0.718   4.960  0.7100  0.0973 -0.1407
 2659ntf    fn418824   0.527   0.658   4.814 -0.0211  0.2129 -0.1530
 2659ntf    fn418825   0.724   0.602   4.791  0.5799  0.1996  0.2463
 2660ntf    cn118826   2.178   3.499   2.356  0.1670  0.0784 -0.0265
 2660ntf    sn218827   2.228   3.633   2.467  0.1458  0.0557  0.0101
 2660ntf    nn318828   2.094   3.650   2.546 -0.0065 -0.4078 -0.1461
 2660ntf    sn218829   2.059   3.596   2.689  0.4298 -0.1606  0.0556
 2660ntf    cn118830   2.152   3.712   2.794  0.2163 -0.1766  0.2642
 2660ntf    fn418831   2.279   3.461   2.280  0.0962  0.0523 -0.1082
 2660ntf    fn418832   2.127   3.398   2.425  0.1212  0.1161 -0.0047
 2660ntf    fn418833   2.086   3.545   2.272 -0.0682  0.1946  0.2908
 2660ntf    on518834   2.347   3.587   2.534  0.1993 -0.1635 -0.2342
 2660ntf    on518835   2.248   3.739   2.371  0.0059 -0.5327 -0.6726
 2660ntf    on518836   2.093   3.463   2.734  0.1559 -0.1080  0.4273
 2660ntf    on518837   1.922   3.625   2.722  0.3928 -0.0140 -0.2293
 2660ntf    fn418838   2.139   3.835   2.748 -0.4687 -0.2214  0.3298
 2660ntf    fn418839   2.107   3.706   2.918  0.5050  0.4230  0.3995
 2660ntf    fn418840   2.281   3.681   2.805  0.1733 -0.5579 -0.2640
 2661ntf    cn118841   1.094   1.470   3.238  0.3222 -0.0089  0.0174
 2661ntf    sn218842   1.153   1.555   3.089  0.2944 -0.0665 -0.0259
 2661ntf    nn318843   1.040   1.661   3.067  0.7063  0.3902  0.0402
 2661ntf    sn218844   1.031   1.795   3.149  0.0922  0.3574  0.0338
 2661ntf    cn118845   1.132   1.907   3.047 -0.0289  0.2222 -0.2362
 2661ntf    fn418846   1.149   1.526   3.346  0.3089 -0.0159  0.0279
 2661ntf    fn418847   0.963   1.483   3.250  0.3823  0.1852  0.5096
 2661ntf    fn418848   1.117   1.340   3.235 -0.1107 -0.0797 -0.1350
 2661ntf    on518849   1.283   1.612   3.117  0.1134  0.4623 -0.2537
 2661ntf    on518850   1.146   1.457   2.983  0.0759  0.0821 -0.1515
 2661ntf    on518851   1.094   1.790   3.279  0.0366 -0.5346  0.0329
 2661ntf    on518852   0.899   1.854   3.148 -0.1100 -0.0935 -0.2621
 2661ntf    fn418853   1.256   1.868   3.022  0.1061  0.3766  0.1908
 2661ntf    fn418854   1.074   1.933   2.931 -0.2755  0.1582 -0.1288
 2661ntf    fn418855   1.150   2.024   3.107 -0.7792  0.3378 -0.2332
 2662ntf    cn118856   5.983   2.434   0.793  0.0660  0.0723 -0.2470
 2662ntf    sn218857   6.101   2.431   0.655  0.1977  0.3058 -0.1411
 2662ntf    nn318858   5.999   2.385   0.544  0.1153 -0.6147  0.3082
 2662ntf    sn218859   6.030   2.309   0.410 -0.3565 -0.0510 -0.1224
 2662ntf    cn118860   6.053   2.456   0.305  0.0865 -0.1719 -0.1939
 2662ntf    fn418861   5.898   2.333   0.795 -0.2832  0.3662  0.6714
 2662ntf    fn418862   6.045   2.415   0.908  0.2357 -0.2769 -0.3975
 2662ntf    fn418863   5.912   2.545   0.810 -0.1458 -0.1178  0.1238
 2662ntf    on518864   6.136   2.571   0.650  0.5071  0.2157 -0.5184
 2662ntf    on518865   6.197   2.332   0.695  0.2612  0.3032 -0.2984
 2662ntf    on518866   5.917   2.244   0.348 -0.2694 -0.2459 -0.0743
 2662ntf    on518867   6.158   2.243   0.401 -0.3703 -0.1141  0.1420
 2662ntf    fn418868   6.108   2.421   0.189  0.7139 -0.3182  0.1435
 2662ntf    fn418869   5.946   2.528   0.277  0.1909  0.0713  0.0272
 2662ntf    fn418870   6.141   2.535   0.364 -0.2791 -0.2055  0.4018
 2663ntf    cn118871   4.507   2.954   4.854 -0.0038 -0.2909 -0.1477
 2663ntf    sn218872   4.524   3.116   4.934 -0.4333 -0.3973  0.1642
 2663ntf    nn318873   4.535   3.066   5.082  0.1704 -0.1664  0.1971
 2663ntf    sn218874   4.607   3.138   5.202 -0.2351  0.0618  0.3036
 2663ntf    cn118875   4.682   2.995   5.285  0.3307  0.0707 -0.1922
 2663ntf    fn418876   4.610   2.879   4.891  0.2456  0.0670 -0.1097
 2663ntf    fn418877   4.402   2.885   4.897  0.0592 -0.2920  0.0075
 2663ntf    fn418878   4.502   2.964   4.723 -0.1819 -0.4016 -0.1497
 2663ntf    on518879   4.647   3.165   4.877 -0.5394 -0.3303 -0.0105
 2663ntf    on518880   4.399   3.182   4.901 -0.3091 -0.2377  0.0116
 2663ntf    on518881   4.518   3.197   5.299  0.1873  0.0930  0.6736
 2663ntf    on518882   4.724   3.211   5.161 -0.2195  0.2352  0.6545
 2663ntf    fn418883   4.597   2.895   5.302  0.0781  0.4155  0.6231
 2663ntf    fn418884   4.790   2.953   5.221  0.2184  0.3563 -0.5742
 2663ntf    fn418885   4.715   3.028   5.409  0.1657  0.0533 -0.1441
 2664ntf    cn118886   3.272   1.999   1.952 -0.1708  0.2223  0.4535
 2664ntf    sn218887   3.118   1.936   1.879  0.0879  0.0953  0.0144
 2664ntf    nn318888   3.052   2.072   1.839 -0.2306 -0.0679 -0.0233
 2664ntf    sn218889   2.907   2.126   1.813 -0.0838  0.3621  0.0399
 2664ntf    cn118890   2.870   2.198   1.976 -0.4549  0.2376  0.0109
 2664ntf    fn418891   3.351   1.896   1.981  0.0202  0.2016 -0.1243
 2664ntf    fn418892   3.344   2.082   1.879  0.5120 -0.3849  0.4199
 2664ntf    fn418893   3.252   2.056   2.070  0.1134  0.2621  0.4824
 2664ntf    on518894   3.163   1.850   1.772  0.1290  0.4066 -0.2169
 2664ntf    on518895   3.052   1.868   1.988 -0.1772  0.3829  0.0347
 2664ntf    on518896   2.805   2.026   1.794  0.0305  0.3690 -0.6020
 2664ntf    on518897   2.906   2.243   1.729  0.6062  0.0996 -0.3417
 2664ntf    fn418898   2.853   2.107   2.071 -0.4258  0.2125 -0.0081
 2664ntf    fn418899   2.969   2.276   2.017 -0.0945 -0.0281 -0.3510
 2664ntf    fn418900   2.758   2.270   1.983 -0.3191  0.4652 -0.1423
 2665ntf    cn118901   3.648   2.232   6.644 -0.1305 -0.4901 -0.1609
 2665ntf    sn218902   3.714   2.313   6.495 -0.0080  0.0674  0.1960
 2665ntf    nn318903   3.640   2.230   6.385  0.4216 -0.2089  0.1115
 2665ntf    sn218904   3.702   2.125   6.286  0.0606 -0.1458 -0.1865
 2665ntf    cn118905   3.733   2.230   6.141  0.0164 -0.2948 -0.3038
 2665ntf    fn418906   3.676   2.102   6.646  0.0357 -0.4532 -0.0073
 2665ntf    fn418907   3.690   2.293   6.754 -0.0801  0.2486 -0.5815
 2665ntf    fn418908   3.517   2.241   6.638 -0.1299  0.0922  0.5798
 2665ntf    on518909   3.660   2.447   6.500 -0.2652 -0.0282 -0.0392
 2665ntf    on518910   3.858   2.301   6.500  0.0337  0.4018 -0.1306
 2665ntf    on518911   3.599   2.036   6.239  0.2326 -0.3473 -0.1811
 2665ntf    on518912   3.822   2.057   6.329 -0.3734 -0.9838 -0.2861
 2665ntf    fn418913   3.814   2.331   6.168  0.1888 -0.4230 -0.3382
 2665ntf    fn418914   3.796   2.161   6.047  0.2629 -0.2629 -0.1628
 2665ntf    fn418915   3.626   2.278   6.081  0.1323  0.2694 -0.0612
 2666ntf    cn118916   5.150   1.632   4.177 -0.1294  0.0683 -0.0814
 2666ntf    sn218917   5.191   1.809   4.180 -0.0042  0.0360  0.1798
 2666ntf    nn318918   5.054   1.873   4.136  0.0794  0.1273  0.0516
 2666ntf    sn218919   5.025   1.946   4.001  0.1805 -0.1473 -0.1195
 2666ntf    cn118920   5.089   2.113   4.034  0.4701 -0.3772  0.4773
 2666ntf    fn418921   5.241   1.567   4.248 -0.1683  0.2210  0.1105
 2666ntf    fn418922   5.030   1.596   4.219 -0.0631 -0.0292  0.0230
 2666ntf    fn418923   5.157   1.587   4.053 -0.1934 -0.4690  0.1080
 2666ntf    on518924   5.221   1.820   4.320  0.4591  0.1806  0.0732
 2666ntf    on518925   5.303   1.830   4.090 -0.1345 -0.0546 -0.0058
 2666ntf    on518926   4.883   1.968   3.992  0.1633 -0.1666  0.1049
 2666ntf    on518927   5.098   1.899   3.885 -0.4629 -0.3478 -0.4492
 2666ntf    fn418928   5.215   2.108   4.076  0.4975 -0.4120  0.3890
 2666ntf    fn418929   5.092   2.199   3.935 -0.3845 -0.7130  0.1543
 2666ntf    fn418930   5.029   2.180   4.131 -0.0729  0.1129 -0.1922
 2667ntf    cn118931   3.051   3.341   0.605  0.3087  0.1372  0.2336
 2667ntf    sn218932   3.115   3.439   0.744  0.2644  0.2729  0.1590
 2667ntf    nn318933   3.220   3.532   0.674 -0.0212  0.0059 -0.6275
 2667ntf    sn218934   3.376   3.517   0.661  0.0572  0.0112  0.2440
 2667ntf    cn118935   3.382   3.535   0.480 -0.3237 -0.0546  0.2235
 2667ntf    fn418936   2.953   3.261   0.644  0.3192  0.1167  0.2179
 2667ntf    fn418937   3.011   3.410   0.500 -0.4121 -0.0540  0.3710
 2667ntf    fn418938   3.145   3.260   0.561 -0.2617 -0.2522 -0.2904
 2667ntf    on518939   3.000   3.518   0.778 -0.4259 -0.4537 -0.4500
 2667ntf    on518940   3.173   3.346   0.838  0.0229  0.3784  0.4123
 2667ntf    on518941   3.428   3.385   0.684  0.1842  0.0839  0.3766
 2667ntf    on518942   3.443   3.636   0.709 -0.4705  0.5625 -0.3577
 2667ntf    fn418943   3.507   3.522   0.437 -0.2786 -0.1348  0.3785
 2667ntf    fn418944   3.318   3.440   0.414 -0.2909  0.0136  0.0926
 2667ntf    fn418945   3.337   3.651   0.436  0.6616  0.3006  0.1246
 2668ntf    cn118946   1.676   3.907   3.424 -0.1733 -0.3335  0.2557
 2668ntf    sn218947   1.658   3.983   3.588 -0.0526  0.1378  0.0533
 2668ntf    nn318948   1.747   4.110   3.568  0.1366 -0.0877 -0.5542
 2668ntf    sn218949   1.712   4.246   3.498  0.2637  0.1699 -0.1188
 2668ntf    cn118950   1.645   4.341   3.637 -0.1782 -0.5212  0.1430
 2668ntf    fn418951   1.677   3.982   3.315 -0.4210 -0.5238  0.1220
 2668ntf    fn418952   1.797   3.856   3.407  0.0610  0.2322  0.1967
 2668ntf    fn418953   1.603   3.801   3.393 -0.0175 -0.3059 -0.2276
 2668ntf    on518954   1.517   4.008   3.602 -0.1030  0.1594 -0.4879
 2668ntf    on518955   1.707   3.876   3.673 -0.2331  0.0237  0.0139
 2668ntf    on518956   1.602   4.239   3.405  0.4931  0.1483 -0.3907
 2668ntf    on518957   1.829   4.320   3.455  0.1588  0.6081  0.3358
 2668ntf    fn418958   1.545   4.275   3.693 -0.4797  0.2070  0.4872
 2668ntf    fn418959   1.733   4.375   3.730 -0.1318  0.1427 -0.1367
 2668ntf    fn418960   1.589   4.455   3.600  0.1534 -0.4614 -0.1775
 2669ntf    cn118961   5.598   1.888   6.248 -0.0672 -0.3236 -0.7251
 2669ntf    sn218962   5.610   1.707   6.268 -0.3662 -0.2582  0.0422
 2669ntf    nn318963   5.458   1.681   6.240 -0.4293  0.6305 -0.4964
 2669ntf    sn218964   5.346   1.627   6.336  0.1378  0.1454 -0.0966
 2669ntf    cn118965   5.311   1.470   6.252 -0.3519 -0.0380  0.4468
 2669ntf    fn418966   5.487   1.930   6.306  0.3417 -0.0775 -0.1154
 2669ntf    fn418967   5.703   1.947   6.304 -0.0909 -0.4719 -0.5226
 2669ntf    fn418968   5.595   1.916   6.118 -0.6849  0.0030 -0.6424
 2669ntf    on518969   5.702   1.666   6.165 -0.3474 -0.2335  0.0497
 2669ntf    on518970   5.663   1.695   6.402 -0.0578 -0.8594 -0.1312
 2669ntf    on518971   5.220   1.696   6.322 -0.1339 -0.3260  0.0002
 2669ntf    on518972   5.386   1.599   6.472  0.0150  0.1297 -0.0643
 2669ntf    fn418973   5.249   1.489   6.137  0.5132  0.1621  0.0064
 2669ntf    fn418974   5.429   1.413   6.232 -0.2901  0.2202  0.0690
 2669ntf    fn418975   5.239   1.386   6.325 -0.1692 -0.6818 -0.1014
 2670ntf    cn118976   5.989   6.293   1.215 -0.0257 -0.3253 -0.2957
 2670ntf    sn218977   5.965   6.463   1.155 -0.0170 -0.2305 -0.0304
 2670ntf    nn318978   6.031   6.539   1.276 -0.3678 -0.0605  0.0546
 2670ntf    sn218979   5.967   6.625   1.391 -0.3373  0.0386 -0.0021
 2670ntf    cn118980   6.115   6.671   1.486  0.0996 -0.0570 -0.6323
 2670ntf    fn418981   5.956   6.278   1.342 -0.3972 -0.7078 -0.4327
 2670ntf    fn418982   5.915   6.208   1.146 -0.1613 -0.3321 -0.1415
 2670ntf    fn418983   6.116   6.256   1.204  0.1249 -0.0027  0.3437
 2670ntf    on518984   6.045   6.464   1.035 -0.1392  0.1111 -0.1100
 2670ntf    on518985   5.822   6.473   1.149 -0.0099 -0.0628  0.0590
 2670ntf    on518986   5.893   6.552   1.492 -0.1528  0.0938  0.1720
 2670ntf    on518987   5.913   6.749   1.341 -0.6467 -0.2320 -0.3429
 2670ntf    fn418988   6.100   6.778   1.561 -0.0153 -0.3499 -0.2345
 2670ntf    fn418989   6.146   6.575   1.571  0.6877  0.3505 -0.3800
 2670ntf    fn418990   6.222   6.689   1.411  0.4653  0.2491 -0.0381
 2671ntf    cn118991   0.971   4.848   5.745 -0.3153  0.2271  0.0116
 2671ntf    sn218992   0.830   4.741   5.703 -0.0888  0.0347 -0.2612
 2671ntf    nn318993   0.708   4.841   5.702 -0.0026  0.1359 -0.6539
 2671ntf    sn218994   0.563   4.818   5.756  0.2564 -0.2035 -0.1036
 2671ntf    cn118995   0.599   4.883   5.922  0.2632 -0.3926 -0.0307
 2671ntf    fn418996   1.089   4.790   5.732 -0.1111  0.5159  0.5278
 2671ntf    fn418997   0.983   4.963   5.681  0.3072  0.0247 -0.2383
 2671ntf    fn418998   0.956   4.892   5.869  0.3949 -0.0402  0.1938
 2671ntf    on518999   0.868   4.701   5.570 -0.0823  0.5265 -0.4112
 2671ntf    on519000   0.837   4.645   5.810  0.0896  0.0709 -0.2400
 2671ntf    on519001   0.520   4.680   5.763  0.0350 -0.1306  0.0005
 2671ntf    on519002   0.459   4.905   5.707  0.1455 -0.1588  0.2080
 2671ntf    fn419003   0.650   5.004   5.913  0.0784 -0.3266 -0.1953
 2671ntf    fn419004   0.496   4.889   6.006  0.5430  0.1014  0.2793
 2671ntf    fn419005   0.693   4.815   5.986  0.6341  0.0504 -0.1048
 2672ntf    cn119006   4.056   5.573   5.366  0.0228 -0.3821  0.3367
 2672ntf    sn219007   3.914   5.461   5.352 -0.3506  0.1431 -0.0727
 2672ntf    nn319008   3.815   5.536   5.448 -0.1517  0.1651  0.1153
 2672ntf    sn219009   3.784   5.508   5.599 -0.0122 -0.0256  0.1076
 2672ntf    cn119010   3.650   5.386   5.585  0.3513 -0.4176  0.0061
 2672ntf    fn419011   4.150   5.536   5.281 -0.3735 -0.0039 -0.2723
 2672ntf    fn419012   4.027   5.696   5.328 -0.3083 -0.6150 -0.1722
 2672ntf    fn419013   4.107   5.580   5.488 -0.2975  0.2732  0.4372
 2672ntf    on519014   3.867   5.467   5.215 -0.1854 -0.0683 -0.1381
 2672ntf    on519015   3.967   5.333   5.391  0.1400  0.2061 -0.5184
 2672ntf    on519016   3.725   5.631   5.644  0.2027 -0.0522  0.4630
 2672ntf    on519017   3.887   5.456   5.685  0.2530 -0.1919 -0.3059
 2672ntf    fn419018   3.702   5.267   5.562  0.9689 -0.1318 -0.1070
 2672ntf    fn419019   3.576   5.379   5.694  0.1989 -0.6022 -0.1079
 2672ntf    fn419020   3.566   5.407   5.485  0.4840  0.3083  0.0371
 2673ntf    cn119021   2.091   5.907   5.921  0.0546  0.3723  0.0825
 2673ntf    sn219022   2.264   5.940   5.875  0.0625  0.2329  0.0098
 2673ntf    nn319023   2.316   6.001   6.010 -0.2966  0.3517  0.0969
 2673ntf    sn219024   2.458   5.970   6.071 -0.2317  0.0368 -0.2111
 2673ntf    cn119025   2.568   5.976   5.927  0.4368  0.1421  0.3023
 2673ntf    fn419026   2.037   5.831   5.827  0.1539 -0.2358  0.5069
 2673ntf    fn419027   2.090   5.834   6.031  0.4162  0.1907 -0.0348
 2673ntf    fn419028   2.018   6.016   5.935  0.3074  0.5910 -0.3116
 2673ntf    on519029   2.314   5.807   5.855 -0.0135  0.2346 -0.1935
 2673ntf    on519030   2.261   6.027   5.760 -0.0609  0.4331  0.1633
 2673ntf    on519031   2.460   5.836   6.123 -0.5723  0.4699  0.9585
 2673ntf    on519032   2.506   6.076   6.157 -0.2791 -0.1795  0.0818
 2673ntf    fn419033   2.697   5.988   5.956  0.4573 -0.0128  0.2766
 2673ntf    fn419034   2.560   5.868   5.852 -0.4388  0.5791 -0.2403
 2673ntf    fn419035   2.539   6.075   5.843 -0.7131 -0.0924  0.4212
 2674ntf    cn119036   3.634   5.842   6.847  0.0341 -0.1064  0.0937
 2674ntf    sn219037   3.698   5.840   6.676 -0.2297  0.1365 -0.0082
 2674ntf    nn319038   3.737   5.692   6.642 -0.2322  0.1928 -0.2589
 2674ntf    sn219039   3.670   5.590   6.542 -0.2620  0.1518 -0.1973
 2674ntf    cn119040   3.810   5.476   6.520 -0.2095  0.2415 -0.3343
 2674ntf    fn419041   3.591   5.962   6.882 -0.1719 -0.1236 -0.0986
 2674ntf    fn419042   3.531   5.760   6.861 -0.0978  0.1128  0.4173
 2674ntf    fn419043   3.726   5.805   6.935 -0.3269 -0.6522  0.2423
 2674ntf    on519044   3.593   5.890   6.591 -0.2611  0.2791  0.1138
 2674ntf    on519045   3.821   5.915   6.681 -0.0411 -0.1363 -0.4832
 2674ntf    on519046   3.642   5.633   6.407 -0.4569  0.5776 -0.0252
 2674ntf    on519047   3.570   5.514   6.611  0.0650  0.0669  0.1877
 2674ntf    fn419048   3.914   5.537   6.467 -0.1707  0.1392 -0.3757
 2674ntf    fn419049   3.858   5.425   6.633  0.5386  0.5054 -0.5298
 2674ntf    fn419050   3.779   5.371   6.446 -0.1620  0.1471 -0.2208
 2675ntf    cn119051   5.938   5.344   2.560  0.2581  0.0835 -0.2786
 2675ntf    sn219052   5.823   5.282   2.434 -0.0775  0.0304  0.0533
 2675ntf    nn319053   5.934   5.216   2.345 -0.0919  0.2451 -0.1242
 2675ntf    sn219054   5.943   5.068   2.292  0.2115  0.1531  0.1810
 2675ntf    cn119055   6.030   4.983   2.426  0.3331 -0.0325 -0.0135
 2675ntf    fn419056   5.867   5.408   2.651  0.1056 -0.5289  0.0351
 2675ntf    fn419057   6.004   5.245   2.617  0.1547 -0.1389 -0.5390
 2675ntf    fn419058   6.025   5.431   2.510 -0.1945  0.3567 -0.6026
 2675ntf    on519059   5.734   5.192   2.504  0.0785 -0.0855  0.1016
 2675ntf    on519060   5.760   5.397   2.374  0.9213  0.4108 -0.2744
 2675ntf    on519061   6.038   5.058   2.184  0.2132  0.3901  0.1600
 2675ntf    on519062   5.814   5.006   2.275  0.2401  0.1353  0.0190
 2675ntf    fn419063   5.959   4.968   2.537  0.1361  0.3220 -0.0923
 2675ntf    fn419064   6.067   4.863   2.386  0.5674  0.0254  0.0256
 2675ntf    fn419065   6.137   5.053   2.462  0.1939 -0.0681  0.4813
 2676ntf    cn119066   2.923   4.416   0.002  0.7998 -0.3093  0.3170
 2676ntf    sn219067   2.821   4.265   0.007 -0.0009  0.2047 -0.1817
 2676ntf    nn319068   2.940   4.162   0.012 -0.0502  0.1674  0.3700
 2676ntf    sn219069   2.990   4.077  -0.110 -0.1176  0.3594  0.2079
 2676ntf    cn119070   3.011   3.915  -0.032 -0.4313  0.1600 -0.1172
 2676ntf    fn419071   2.848   4.524   0.006  0.7467 -0.3194 -0.2272
 2676ntf    fn419072   3.012   4.425   0.099  0.4172  0.2619  0.6182
 2676ntf    fn419073   2.985   4.422  -0.115  0.4133 -0.1333  0.1195
 2676ntf    on519074   2.759   4.290   0.135  0.1025 -0.5278  0.0184
 2676ntf    on519075   2.739   4.271  -0.111  0.1981 -0.2850 -0.3458
 2676ntf    on519076   3.128   4.108  -0.140 -0.0686  0.3375  0.4083
 2676ntf    on519077   2.895   4.058  -0.217  0.2430 -0.3086  0.0028
 2676ntf    fn419078   3.117   3.917   0.048 -0.6042  0.2820  0.1061
 2676ntf    fn419079   2.911   3.863   0.036 -0.1173 -0.5503 -0.1869
 2676ntf    fn419080   3.028   3.822  -0.125 -0.4921 -0.2153  0.2459
 2677ntf    cn119081   4.629   1.694   5.717 -0.1344  0.2052 -0.5701
 2677ntf    sn219082   4.459   1.759   5.726 -0.0803  0.2594  0.1051
 2677ntf    nn319083   4.421   1.692   5.863 -0.2591  0.0005 -0.0714
 2677ntf    sn219084   4.427   1.760   6.004 -0.2509 -0.3820  0.1118
 2677ntf    cn119085   4.445   1.609   6.105 -0.1037 -0.3142  0.1867
 2677ntf    fn419086   4.694   1.697   5.832 -0.7200  0.0276 -0.2326
 2677ntf    fn419087   4.625   1.566   5.685 -0.0014  0.0604 -0.0230
 2677ntf    fn419088   4.705   1.746   5.622  0.2767  0.3150 -0.1813
 2677ntf    on519089   4.476   1.902   5.726 -0.0960  0.2629 -0.5335
 2677ntf    on519090   4.399   1.702   5.608  0.0179 -0.4349  0.3843
 2677ntf    on519091   4.308   1.823   6.055  0.0382 -0.1467  0.5049
 2677ntf    on519092   4.552   1.828   6.025 -0.1408 -0.7208  0.5767
 2677ntf    fn419093   4.537   1.527   6.058  0.1860  0.2211 -0.2036
 2677ntf    fn419094   4.472   1.630   6.233  0.1356 -0.1264  0.1070
 2677ntf    fn419095   4.335   1.536   6.114 -0.3231 -0.0456 -0.3012
 2678ntf    cn119096   1.375   1.813   5.215  0.0613  0.1031 -0.0835
 2678ntf    sn219097   1.277   1.700   5.112  0.5345 -0.2212 -0.1814
 2678ntf    nn319098   1.196   1.799   5.021  0.2669 -0.1614  0.1194
 2678ntf    sn219099   1.211   1.828   4.868 -0.0491  0.0368  0.1244
 2678ntf    cn119100   1.120   1.985   4.859 -0.3845 -0.1746 -0.1786
 2678ntf    fn419101   1.297   1.904   5.271  0.1042  0.1583 -0.1141
 2678ntf    fn419102   1.438   1.751   5.314  0.6176  0.3117 -0.3089
 2678ntf    fn419103   1.467   1.883   5.152  0.2156  0.1794  0.2269
 2678ntf    on519104   1.373   1.615   5.045  0.2509 -0.3955 -0.3735
 2678ntf    on519105   1.194   1.627   5.205 -0.0078  0.0961 -0.4133
 2678ntf    on519106   1.136   1.741   4.780  0.1841  0.3765 -0.4168
 2678ntf    on519107   1.344   1.868   4.827 -0.2008  0.6170  0.1947
 2678ntf    fn419108   1.143   2.053   4.747  0.6000 -0.3663 -0.0980
 2678ntf    fn419109   0.989   1.970   4.867 -0.3889  0.1954  0.4657
 2678ntf    fn419110   1.155   2.068   4.955 -0.2430 -0.2161 -0.1939
 2679ntf    cn119111   4.132   3.047   0.537 -0.2237 -0.1724  0.0927
 2679ntf    sn219112   4.263   3.085   0.656 -0.4298 -0.2024  0.3296
 2679ntf    nn319113   4.182   3.052   0.786 -0.5762  0.1902  0.3403
 2679ntf    sn219114   4.222   2.954   0.903  0.3377  0.1258 -0.0164
 2679ntf    cn119115   4.061   2.871   0.924  0.2067  0.3506 -0.1222
 2679ntf    fn419116   4.048   2.946   0.559 -0.2257 -0.1021  0.4018
 2679ntf    fn419117   4.045   3.146   0.522 -0.1549 -0.0932  0.2246
 2679ntf    fn419118   4.187   3.017   0.420 -0.1954  0.8487 -0.1644
 2679ntf    on519119   4.375   3.001   0.621 -0.1725  0.5155 -0.6079
 2679ntf    on519120   4.287   3.227   0.645  0.0354 -0.3029  0.0223
 2679ntf    on519121   4.250   3.010   1.033  0.5515  0.6001 -0.2654
 2679ntf    on519122   4.301   2.838   0.872  0.0730 -0.0961  0.1379
 2679ntf    fn419123   4.068   2.779   1.019  0.9931  0.0993 -0.4168
 2679ntf    fn419124   3.960   2.952   0.948 -0.2239 -0.3290  0.3899
 2679ntf    fn419125   4.028   2.803   0.816 -0.2089 -0.1312  0.2999
 2680ntf    cn119126   6.228   5.076   6.610 -0.2577 -0.0549 -0.2317
 2680ntf    sn219127   6.120   4.979   6.719 -0.1400 -0.0204 -0.0837
 2680ntf    nn319128   6.224   4.874   6.771  0.2873  0.2101 -0.4635
 2680ntf    sn219129   6.268   4.741   6.700  0.1468 -0.2048  0.2139
 2680ntf    cn119130   6.131   4.637   6.759 -0.2550  0.1950 -0.0021
 2680ntf    fn419131   6.303   5.162   6.677  0.0785 -0.1430 -0.4881
 2680ntf    fn419132   6.312   5.005   6.536 -0.0739 -0.0494 -0.0308
 2680ntf    fn419133   6.155   5.142   6.521  0.4829  0.2660 -0.6232
 2680ntf    on519134   6.081   5.074   6.820 -0.0356 -0.0369 -0.0280
 2680ntf    on519135   6.016   4.925   6.635 -0.4730 -0.0739  0.3607
 2680ntf    on519136   6.392   4.683   6.745  0.3196  0.1532  0.2029
 2680ntf    on519137   6.241   4.744   6.558  0.1751 -0.2601  0.2072
 2680ntf    fn419138   6.125   4.634   6.891 -0.0309  0.2953  0.0102
 2680ntf    fn419139   6.012   4.677   6.717 -0.5348 -0.1689  0.4366
 2680ntf    fn419140   6.150   4.510   6.726  0.0512  0.1342  0.3939
 2681ntf    cn119141   5.863   2.006   5.400  0.0778 -0.0798 -0.3385
 2681ntf    sn219142   5.795   2.128   5.517  0.1128 -0.3223 -0.0639
 2681ntf    nn319143   5.920   2.164   5.604  0.0346 -0.0137 -0.0784
 2681ntf    sn219144   5.953   2.306   5.662 -0.0542  0.0302 -0.1362
 2681ntf    cn119145   5.816   2.304   5.781  0.0946  0.2926  0.0407
 2681ntf    fn419146   5.947   2.065   5.316  0.2326 -0.0588 -0.1692
 2681ntf    fn419147   5.931   1.908   5.458 -0.4107  0.0209  0.4185
 2681ntf    fn419148   5.772   1.945   5.326  0.3086 -0.0021 -0.6874
 2681ntf    on519149   5.750   2.223   5.418 -0.0765 -0.2693  0.0737
 2681ntf    on519150   5.695   2.054   5.590 -0.5313  0.5399 -0.0498
 2681ntf    on519151   5.921   2.418   5.577 -0.3371 -0.0797 -0.1762
 2681ntf    on519152   6.072   2.312   5.743 -0.1823  0.1873  0.0421
 2681ntf    fn419153   5.806   2.187   5.843 -0.0683  0.1536 -0.2435
 2681ntf    fn419154   5.834   2.393   5.877  0.1857  0.4184 -0.0910
 2681ntf    fn419155   5.699   2.326   5.723  0.1721  0.0502 -0.2114
 2682ntf    cn119156   4.230   5.962   5.106  0.3262  0.0613  0.2200
 2682ntf    sn219157   4.391   5.886   5.141  0.2993  0.0489  0.3157
 2682ntf    nn319158   4.492   5.999   5.097  0.3862 -0.2301 -0.2112
 2682ntf    sn219159   4.480   6.151   5.135 -0.2244 -0.3021 -0.0958
 2682ntf    cn119160   4.650   6.163   5.200 -0.2107 -0.5185 -0.0909
 2682ntf    fn419161   4.142   5.871   5.144 -0.1624  0.2639 -0.4206
 2682ntf    fn419162   4.201   6.075   5.168  0.1886  0.1922 -0.0840
 2682ntf    fn419163   4.207   5.986   4.978 -0.2892 -0.1753  0.2832
 2682ntf    on519164   4.395   5.864   5.284  0.4651  0.1511  0.3287
 2682ntf    on519165   4.395   5.770   5.057  0.0981  0.0739  0.2718
 2682ntf    on519166   4.403   6.182   5.253  0.4203  0.2979  0.1742
 2682ntf    on519167   4.482   6.237   5.020  0.0850 -0.3022 -0.0937
 2682ntf    fn419168   4.687   6.080   5.295  0.8045 -0.2136 -0.2027
 2682ntf    fn419169   4.746   6.143   5.111  0.1810  0.1324  0.1754
 2682ntf    fn419170   4.670   6.285   5.246 -0.2489 -0.4438 -0.2712
 2683ntf    cn119171   2.411   1.589   0.215  0.1455 -0.1008 -0.0849
 2683ntf    sn219172   2.550   1.668   0.302  0.0822 -0.1213  0.0352
 2683ntf    nn319173   2.512   1.815   0.262 -0.2402 -0.2694 -0.2086
 2683ntf    sn219174   2.556   1.943   0.342  0.4122 -0.5455 -0.1240
 2683ntf    cn119175   2.434   1.960   0.475  0.2153 -0.0891 -0.3614
 2683ntf    fn419176   2.303   1.662   0.231  0.5594  0.4286  0.3155
 2683ntf    fn419177   2.430   1.589   0.084 -0.0868 -0.2061 -0.1195
 2683ntf    fn419178   2.381   1.468   0.260 -0.6594 -0.0594 -0.5044
 2683ntf    on519179   2.528   1.642   0.442  0.3946 -0.0299  0.1017
 2683ntf    on519180   2.667   1.611   0.240 -0.0573 -0.0612 -0.2857
 2683ntf    on519181   2.529   2.061   0.265  0.1986 -0.2686  0.3725
 2683ntf    on519182   2.678   1.925   0.417  0.2841  0.1237  0.2475
 2683ntf    fn419183   2.436   2.076   0.538 -1.0757 -0.2401  0.0026
 2683ntf    fn419184   2.317   1.968   0.414  0.0104  0.1058  0.0531
 2683ntf    fn419185   2.432   1.861   0.563 -0.2240  0.0387 -0.2215
 2684ntf    cn119186   3.150   1.086   6.480 -0.0711 -0.1278 -0.0110
 2684ntf    sn219187   2.994   1.009   6.532 -0.2966  0.0119 -0.4771
 2684ntf    nn319188   2.896   1.131   6.518 -0.3964 -0.0341 -0.1766
 2684ntf    sn219189   2.791   1.190   6.619  0.0667  0.1903  0.1794
 2684ntf    cn119190   2.878   1.341   6.670  0.2754  0.2451 -0.3341
 2684ntf    fn419191   3.123   1.156   6.371  0.6576 -0.2486 -0.2756
 2684ntf    fn419192   3.206   1.170   6.565  0.3130 -0.2464 -0.1441
 2684ntf    fn419193   3.252   1.008   6.449  0.0433  0.0863 -0.1815
 2684ntf    on519194   2.971   0.918   6.422  0.1211 -0.1288 -0.4498
 2684ntf    on519195   3.033   0.961   6.662 -0.0908  0.1757 -0.4778
 2684ntf    on519196   2.777   1.115   6.741 -0.1860  0.2449  0.1846
 2684ntf    on519197   2.674   1.245   6.556  0.2448 -0.5062 -0.7873
 2684ntf    fn419198   2.812   1.424   6.749 -0.0975 -0.1991 -0.1798
 2684ntf    fn419199   2.993   1.311   6.728  0.0769 -0.0180 -0.0757
 2684ntf    fn419200   2.918   1.415   6.567  0.1264  0.5297 -0.1908
 2685ntf    cn119201   4.463   5.738   4.431  0.1245  0.1768  0.1793
 2685ntf    sn219202   4.611   5.638   4.400  0.0002  0.0515 -0.0116
 2685ntf    nn319203   4.570   5.571   4.264 -0.0565  0.2332 -0.0832
 2685ntf    sn219204   4.493   5.439   4.229 -0.2550  0.2581  0.2589
 2685ntf    cn119205   4.572   5.386   4.074 -0.3427  0.0414  0.2879
 2685ntf    fn419206   4.367   5.678   4.498 -0.0987  0.5140  0.1642
 2685ntf    fn419207   4.497   5.842   4.505  0.0168  0.6829 -0.4680
 2685ntf    fn419208   4.412   5.780   4.316 -0.5132 -0.0499  0.3787
 2685ntf    on519209   4.713   5.738   4.381  0.0946  0.0540  0.4877
 2685ntf    on519210   4.621   5.552   4.516 -0.6227  0.0224  0.0211
 2685ntf    on519211   4.356   5.469   4.199 -0.2797 -0.8177 -0.7760
 2685ntf    on519212   4.526   5.330   4.318  0.2655  0.4485  0.3074
 2685ntf    fn419213   4.703   5.398   4.078 -0.3367 -0.2376  0.9150
 2685ntf    fn419214   4.544   5.262   4.036 -0.4693  0.1273  0.0946
 2685ntf    fn419215   4.538   5.462   3.970 -0.7131 -0.5551 -0.0329
 2686ntf    cn119216   4.928   0.864   2.450 -0.5056  0.0047  0.0305
 2686ntf    sn219217   4.967   0.946   2.607  0.4366 -0.2316 -0.0684
 2686ntf    nn319218   5.020   0.823   2.690  0.0101 -0.1754  0.2953
 2686ntf    sn219219   5.165   0.764   2.688 -0.0488 -0.3141 -0.1439
 2686ntf    cn119220   5.246   0.867   2.815  0.0960 -0.2713 -0.2700
 2686ntf    fn419221   4.856   0.754   2.450 -0.7447  0.1616 -0.0467
 2686ntf    fn419222   4.877   0.950   2.363 -0.6238 -0.5808 -0.4893
 2686ntf    fn419223   5.042   0.834   2.390 -0.6616  0.0219 -0.2787
 2686ntf    on519224   5.062   1.051   2.584  0.1568  0.0813  0.1883
 2686ntf    on519225   4.837   0.989   2.653  0.4724 -0.2821  0.0834
 2686ntf    on519226   5.244   0.789   2.570 -0.1831 -0.3929 -0.2508
 2686ntf    on519227   5.169   0.631   2.743  0.8819 -0.3389 -0.2482
 2686ntf    fn419228   5.372   0.838   2.839  0.0733 -0.3050 -0.1946
 2686ntf    fn419229   5.246   0.996   2.784  0.4971 -0.1748  0.1372
 2686ntf    fn419230   5.171   0.866   2.924  0.3612  0.1404 -0.0845
 2687ntf    cn119231   6.569   1.841   5.373  0.1267  0.0103 -0.2222
 2687ntf    sn219232   6.550   1.985   5.264 -0.4947  0.2068  0.1410
 2687ntf    nn319233   6.619   1.927   5.135 -0.4089  0.6666 -0.0230
 2687ntf    sn219234   6.706   2.006   5.031 -0.0385  0.1337 -0.1238
 2687ntf    cn119235   6.870   1.992   5.109 -0.1917 -0.0138  0.1731
 2687ntf    fn419236   6.698   1.820   5.395  0.0164 -0.6142 -0.1487
 2687ntf    fn419237   6.493   1.844   5.481  0.0486  0.9981 -0.3020
 2687ntf    fn419238   6.532   1.728   5.314  0.1599 -0.3151  0.3725
 2687ntf    on519239   6.409   2.008   5.243 -0.5008  0.0271 -0.0205
 2687ntf    on519240   6.622   2.090   5.330 -0.5263 -0.1830  0.8007
 2687ntf    on519241   6.669   2.145   5.023 -0.1962  0.0647 -0.6574
 2687ntf    on519242   6.727   1.944   4.903  0.1643  0.2542 -0.1495
 2687ntf    fn419243   6.890   2.065   5.218 -0.3735 -0.5318  0.5603
 2687ntf    fn419244   6.893   1.867   5.144 -0.1773 -0.0563  0.0129
 2687ntf    fn419245   6.960   2.026   5.019  0.1524 -0.2042  0.4438
 2688ntf    cn119246   4.528   4.343   1.763  0.0628 -0.0915 -0.1082
 2688ntf    sn219247   4.475   4.277   1.924 -0.0536 -0.2405 -0.2077
 2688ntf    nn319248   4.525   4.131   1.895 -0.2078 -0.5320  0.9553
 2688ntf    sn219249   4.439   4.020   1.826  0.0792 -0.2823  0.1898
 2688ntf    cn119250   4.564   3.908   1.756  0.1530  0.0556 -0.2200
 2688ntf    fn419251   4.488   4.467   1.739 -0.1235 -0.0623  0.3447
 2688ntf    fn419252   4.661   4.344   1.758  0.0647 -0.4714 -0.1775
 2688ntf    fn419253   4.487   4.284   1.653 -0.1886 -0.1744  0.0297
 2688ntf    on519254   4.550   4.334   2.033  0.2189 -0.4857 -0.2657
 2688ntf    on519255   4.333   4.304   1.929  0.1219  0.6131  0.3489
 2688ntf    on519256   4.369   4.068   1.709  0.4401 -0.0268  0.0805
 2688ntf    on519257   4.364   3.932   1.912 -0.4655 -0.2974 -0.2893
 2688ntf    fn419258   4.652   3.969   1.677  0.3823 -0.3352 -0.2668
 2688ntf    fn419259   4.633   3.852   1.854 -0.1980 -0.3213 -0.1872
 2688ntf    fn419260   4.503   3.815   1.684 -0.2430 -0.0021  0.1872
 2689ntf    cn119261   6.452   5.576   6.484  0.2008  0.1220 -0.2303
 2689ntf    sn219262   6.357   5.709   6.405  0.0484  0.0160 -0.2253
 2689ntf    nn319263   6.340   5.662   6.257 -0.5275 -0.2947 -0.0630
 2689ntf    sn219264   6.255   5.730   6.144  0.0809  0.3278 -0.1585
 2689ntf    cn119265   6.388   5.814   6.054  0.1791  0.2053 -0.1280
 2689ntf    fn419266   6.382   5.466   6.509  0.2839  0.1433  0.1061
 2689ntf    fn419267   6.559   5.532   6.419  0.2113 -0.1643 -0.0205
 2689ntf    fn419268   6.496   5.609   6.604  0.0945 -0.0874 -0.1332
 2689ntf    on519269   6.229   5.700   6.470  0.1318 -0.0174 -0.0618
 2689ntf    on519270   6.437   5.829   6.420  0.0714 -0.0213 -0.0450
 2689ntf    on519271   6.162   5.832   6.185  0.1105  0.2046  0.2169
 2689ntf    on519272   6.211   5.630   6.049  0.1718  0.1363  0.0016
 2689ntf    fn419273   6.423   5.930   6.106  0.1382  0.5002 -0.7452
 2689ntf    fn419274   6.499   5.741   6.050 -0.0587 -0.1609 -0.0314
 2689ntf    fn419275   6.362   5.839   5.927 -0.6963  0.5248  0.1060
 2690ntf    cn119276   5.432   4.011   1.145 -0.3257 -0.0414 -0.3170
 2690ntf    sn219277   5.588   4.094   1.103 -0.0824 -0.0698  0.5206
 2690ntf    nn319278   5.691   3.993   1.166 -0.0354 -0.3780 -0.0437
 2690ntf    sn219279   5.743   3.980   1.314  0.0312 -0.1247 -0.0450
 2690ntf    cn119280   5.900   4.068   1.289  0.0805 -0.3107 -0.4005
 2690ntf    fn419281   5.427   3.966   1.269  0.3870 -0.1134 -0.3060
 2690ntf    fn419282   5.329   4.091   1.126 -0.1482  0.1068 -0.6608
 2690ntf    fn419283   5.413   3.912   1.059 -0.1381 -0.3202 -0.0406
 2690ntf    on519284   5.601   4.095   0.959  0.2534  0.0906  0.5500
 2690ntf    on519285   5.589   4.224   1.165  0.2016 -0.0868  0.5560
 2690ntf    on519286   5.792   3.850   1.353  0.2920  0.1093  0.4128
 2690ntf    on519287   5.671   4.056   1.413 -0.0930 -0.1515 -0.1141
 2690ntf    fn419288   5.953   4.103   1.405 -0.1595 -0.7926 -0.1468
 2690ntf    fn419289   6.002   4.003   1.235  0.2919  0.1119 -0.5200
 2690ntf    fn419290   5.885   4.183   1.225 -0.5516 -0.2323 -0.1144
 2691ntf    cn119291   2.295   3.095   0.141 -0.2784  0.2803 -0.5799
 2691ntf    sn219292   2.153   2.984   0.122 -0.1775  0.0578 -0.0512
 2691ntf    nn319293   2.188   2.915  -0.015 -0.1620  0.0469 -0.0417
 2691ntf    sn219294   2.111   2.924  -0.151 -0.0848 -0.1580 -0.1001
 2691ntf    cn119295   1.993   2.786  -0.141 -0.2195 -0.0415 -0.0841
 2691ntf    fn419296   2.257   3.211   0.192  0.5624  0.4027 -0.2122
 2691ntf    fn419297   2.384   3.041   0.223 -0.9380  0.3079  0.1637
 2691ntf    fn419298   2.352   3.129   0.027  0.3338  0.3565 -0.2582
 2691ntf    on519299   2.178   2.893   0.231  0.0932 -0.1232 -0.2612
 2691ntf    on519300   2.036   3.067   0.131 -0.3009 -0.1528  0.3302
 2691ntf    on519301   2.194   2.874  -0.258 -0.6051  0.2819 -0.7190
 2691ntf    on519302   2.037   3.044  -0.182 -0.0795 -0.0823  0.1788
 2691ntf    fn419303   1.871   2.822  -0.105 -0.2093  0.0791 -0.1664
 2691ntf    fn419304   1.980   2.728  -0.259 -0.1025 -0.3495  0.0555
 2691ntf    fn419305   2.037   2.689  -0.063  0.5280 -0.1999 -0.6983
 2692ntf    cn119306   1.210   2.044   0.890 -0.0103 -0.3503 -0.1915
 2692ntf    sn219307   1.391   2.033   0.871  0.0367 -0.0659  0.0888
 2692ntf    nn319308   1.413   2.174   0.804 -0.8716  0.0575  0.0283
 2692ntf    sn219309   1.451   2.218   0.659 -0.1495 -0.0453  0.1808
 2692ntf    cn119310   1.632   2.201   0.660 -0.1685 -0.2508  0.1137
 2692ntf    fn419311   1.165   2.152   0.952 -0.2139 -0.7474  0.3632
 2692ntf    fn419312   1.154   2.035   0.770 -0.5649 -0.1056  0.0463
 2692ntf    fn419313   1.164   1.938   0.955 -0.1749 -0.1415  0.0307
 2692ntf    on519314   1.446   2.039   1.004  0.4238 -0.1017 -0.0676
 2692ntf    on519315   1.415   1.913   0.795 -0.2810  0.1223 -0.3132
 2692ntf    on519316   1.424   2.357   0.632 -0.2587 -0.0377  0.3291
 2692ntf    on519317   1.408   2.131   0.552 -0.5280  0.3772 -0.0134
 2692ntf    fn419318   1.685   2.237   0.544 -0.3036  0.1088  0.1619
 2692ntf    fn419319   1.691   2.273   0.754  0.3312 -0.5477  0.0289
 2692ntf    fn419320   1.669   2.076   0.679  0.7442 -0.0432 -0.2481
 2693ntf    cn119321   5.466   3.967   4.737 -0.1104 -0.2565 -0.4187
 2693ntf    sn219322   5.618   3.875   4.773  0.0072  0.1666  0.1798
 2693ntf    nn319323   5.560   3.734   4.812 -0.3046  0.2492  0.0198
 2693ntf    sn219324   5.546   3.599   4.734  0.1353  0.2518 -0.0657
 2693ntf    cn119325   5.679   3.503   4.813  0.2759  0.2453 -0.3092
 2693ntf    fn419326   5.478   4.095   4.703  0.3323 -0.3330 -0.5449
 2693ntf    fn419327   5.403   3.908   4.637  0.1014 -0.1532 -0.6159
 2693ntf    fn419328   5.394   3.966   4.848  0.0926 -0.5818 -0.2924
 2693ntf    on519329   5.690   3.874   4.648 -0.2845 -0.5050  0.0084
 2693ntf    on519330   5.679   3.936   4.889  0.3714 -0.4206  0.3003
 2693ntf    on519331   5.580   3.605   4.594  0.3195  0.2497 -0.0211
 2693ntf    on519332   5.429   3.524   4.775  0.4201 -0.2592 -0.1744
 2693ntf    fn419333   5.694   3.382   4.763  0.5759 -0.1055  0.6032
 2693ntf    fn419334   5.794   3.568   4.797  0.7685 -0.5259  0.0384
 2693ntf    fn419335   5.659   3.489   4.943  0.3651  0.0170 -0.3206
 2694ntf    cn119336   3.398   3.117   6.265  0.0792 -0.0396  0.6269
 2694ntf    sn219337   3.269   2.989   6.256 -0.1203  0.1941  0.1314
 2694ntf    nn319338   3.135   3.066   6.288 -0.0227  0.4698 -0.1204
 2694ntf    sn219339   3.066   3.080   6.428  0.2222  0.3007  0.0184
 2694ntf    cn119340   2.975   2.923   6.436  0.4535  0.1611 -0.0839
 2694ntf    fn419341   3.357   3.222   6.197  0.4353 -0.0320  0.4208
 2694ntf    fn419342   3.421   3.163   6.387 -0.0574  0.0901  0.6038
 2694ntf    fn419343   3.512   3.088   6.204 -0.2151  0.0745  0.0145
 2694ntf    on519344   3.273   2.955   6.116  0.1406  0.0005  0.1852
 2694ntf    on519345   3.312   2.879   6.339 -0.4171 -0.3658 -0.4554
 2694ntf    on519346   2.960   3.178   6.433  0.3216  0.3816  0.6924
 2694ntf    on519347   3.153   3.079   6.543  0.3166  0.0763 -0.0549
 2694ntf    fn419348   3.052   2.821   6.401 -0.2424 -0.4773  0.2161
 2694ntf    fn419349   2.923   2.913   6.557  0.1968  0.8702 -0.1293
 2694ntf    fn419350   2.866   2.923   6.361  0.1829 -0.9600  0.2897
 2695ntf    cn119351   0.282   4.023   6.137  0.2383  0.1346  0.4291
 2695ntf    sn219352   0.197   3.957   5.991  0.1865  0.2525  0.4063
 2695ntf    nn319353   0.063   4.037   6.017 -0.1343 -0.1017 -0.1513
 2695ntf    sn219354  -0.022   4.125   5.920 -0.0951 -0.1045 -0.1884
 2695ntf    cn119355  -0.020   4.288   6.000  0.3968 -0.3161  0.2300
 2695ntf    fn419356   0.264   4.153   6.157  0.0455  0.1898 -0.1128
 2695ntf    fn419357   0.247   3.957   6.247  0.3064 -0.0258  0.3548
 2695ntf    fn419358   0.413   4.003   6.140  0.2840  0.3665 -0.0288
 2695ntf    on519359   0.281   4.013   5.888 -0.0646  0.0562  0.0935
 2695ntf    on519360   0.184   3.815   6.012 -0.2656  0.1346 -0.6210
 2695ntf    on519361  -0.162   4.092   5.933 -0.0884  0.0719  0.3281
 2695ntf    on519362   0.032   4.139   5.787 -0.2902 -0.0775 -0.2658
 2695ntf    fn419363  -0.096   4.294   6.108 -0.4458  0.4229 -0.3860
 2695ntf    fn419364   0.105   4.313   6.035  0.5604 -0.2329 -0.4033
 2695ntf    fn419365  -0.055   4.394   5.929 -0.2835  0.1320  1.1950
 2696ntf    cn119366   2.616   6.394   0.169  0.1714  0.1972 -0.0745
 2696ntf    sn219367   2.564   6.258   0.278  0.0589  0.3121  0.0155
 2696ntf    nn319368   2.650   6.135   0.229 -0.2252  0.0830  0.0895
 2696ntf    sn219369   2.788   6.092   0.289 -0.1118  0.0919 -0.1642
 2696ntf    cn119370   2.746   5.969   0.416  0.0263  0.2492  0.0355
 2696ntf    fn419371   2.557   6.375   0.051  0.2752 -0.1442 -0.0739
 2696ntf    fn419372   2.579   6.513   0.213 -0.0483  0.0936  0.0221
 2696ntf    fn419373   2.747   6.395   0.151  0.1648 -0.1660 -0.1643
 2696ntf    on519374   2.595   6.310   0.409  0.1336 -0.2233  0.2150
 2696ntf    on519375   2.427   6.237   0.239  0.1605  0.4741 -0.4376
 2696ntf    on519376   2.862   6.197   0.355 -0.0338 -0.1213  0.0911
 2696ntf    on519377   2.862   6.013   0.194  0.2704  0.3125 -0.0515
 2696ntf    fn419378   2.672   6.021   0.513  0.5135 -0.3070  0.7075
 2696ntf    fn419379   2.668   5.873   0.367 -0.0381  0.2900  0.0560
 2696ntf    fn419380   2.853   5.911   0.467 -0.1602 -0.1601 -0.0378
 2697ntf    cn119381   6.799   2.285   0.213 -0.2320 -0.3182  0.1774
 2697ntf    sn219382   6.655   2.348   0.123  0.1833  0.0207 -0.2579
 2697ntf    nn319383   6.656   2.265  -0.011  0.1556 -0.0450 -0.2174
 2697ntf    sn219384   6.596   2.312  -0.147  0.1154  0.2876 -0.0841
 2697ntf    cn119385   6.425   2.254  -0.127  0.1139  0.3939  0.2246
 2697ntf    fn419386   6.806   2.340   0.333  0.3104  0.3836 -0.1690
 2697ntf    fn419387   6.797   2.157   0.248 -0.1854 -0.1395  0.8400
 2697ntf    fn419388   6.916   2.308   0.155 -0.5228  0.3038 -0.1760
 2697ntf    on519389   6.555   2.296   0.213 -0.0331 -0.0143 -0.5141
 2697ntf    on519390   6.674   2.491   0.121 -0.4173  0.1044 -0.3826
 2697ntf    on519391   6.640   2.227  -0.255 -0.1699 -0.5212  0.4381
 2697ntf    on519392   6.592   2.452  -0.182  0.3079  0.2460 -0.2730
 2697ntf    fn419393   6.356   2.287  -0.019 -0.1622  0.0750  0.1483
 2697ntf    fn419394   6.347   2.295  -0.226 -0.6463 -0.6812  0.3565
 2697ntf    fn419395   6.426   2.121  -0.133 -0.0791  0.3880  0.3344
 2698ntf    cn119396   4.380   2.420   3.984  0.0342  0.1282  0.1961
 2698ntf    sn219397   4.351   2.271   3.884  0.0252  0.3226 -0.0926
 2698ntf    nn319398   4.248   2.196   3.975  0.4041 -0.3097 -0.1843
 2698ntf    sn219399   4.293   2.080   4.071 -0.3168 -0.4395  0.0044
 2698ntf    cn119400   4.131   2.047   4.148 -0.2115 -0.1059  0.3756
 2698ntf    fn419401   4.461   2.501   3.917 -0.4486  0.5141  0.0732
 2698ntf    fn419402   4.270   2.488   4.013  0.1537  0.5070 -0.2155
 2698ntf    fn419403   4.443   2.387   4.095 -0.0677  0.4717  0.3574
 2698ntf    on519404   4.290   2.314   3.760 -0.0996 -0.3383 -0.2647
 2698ntf    on519405   4.480   2.212   3.863 -0.1064 -0.2055  0.5650
 2698ntf    on519406   4.372   2.118   4.186 -0.1285  0.2272 -0.3434
 2698ntf    on519407   4.325   1.955   4.007 -0.0347 -0.1594 -0.4032
 2698ntf    fn419408   4.035   2.031   4.058 -0.0889  0.4071  0.1421
 2698ntf    fn419409   4.137   1.939   4.222 -0.4040 -0.3705  0.0107
 2698ntf    fn419410   4.091   2.150   4.221  0.0327 -0.3560  0.8659
 2699ntf    cn119411   2.665   2.407   6.260  0.1197 -0.1210  0.2439
 2699ntf    sn219412   2.547   2.543   6.284  0.1610 -0.0557  0.0759
 2699ntf    nn319413   2.515   2.586   6.137  0.0639 -0.7541 -0.1085
 2699ntf    sn219414   2.382   2.557   6.057 -0.1931 -0.0576  0.0590
 2699ntf    cn119415   2.439   2.606   5.891 -0.0883  0.2821  0.1943
 2699ntf    fn419416   2.781   2.432   6.202 -0.0880 -0.0764 -0.1497
 2699ntf    fn419417   2.695   2.358   6.379  0.5425  0.1975  0.2712
 2699ntf    fn419418   2.603   2.317   6.186 -0.5891  0.5113  0.0574
 2699ntf    on519419   2.434   2.494   6.359 -0.0915 -0.1235 -0.3472
 2699ntf    on519420   2.629   2.646   6.343  0.2969  0.0081 -0.2253
 2699ntf    on519421   2.276   2.650   6.085 -0.2130 -0.0880  0.0840
 2699ntf    on519422   2.358   2.416   6.044 -0.3486 -0.0831  0.6017
 2699ntf    fn419423   2.450   2.738   5.885  0.1512  0.2726  0.4297
 2699ntf    fn419424   2.554   2.560   5.847 -0.5792 -0.5008 -0.3000
 2699ntf    fn419425   2.349   2.578   5.798  0.1196  0.2363  0.0057
 2700ntf    cn119426   1.157   4.959   6.461 -0.4572 -0.1488 -0.1983
 2700ntf    sn219427   1.244   4.852   6.344 -0.0092  0.0323 -0.0339
 2700ntf    nn319428   1.260   4.723   6.432  0.1611  0.3739  0.4333
 2700ntf    sn219429   1.386   4.631   6.452 -0.2512 -0.2868 -0.0025
 2700ntf    cn119430   1.327   4.484   6.362  0.2496 -0.4723 -0.0272
 2700ntf    fn419431   1.105   5.067   6.405  0.1512  0.1136 -0.2673
 2700ntf    fn419432   1.052   4.899   6.515 -0.1544 -0.3226  0.2043
 2700ntf    fn419433   1.234   4.997   6.562 -0.6983 -0.0599 -0.0445
 2700ntf    on519434   1.154   4.834   6.232 -0.1911 -0.1675  0.1452
 2700ntf    on519435   1.365   4.927   6.324 -0.1937  0.2613 -0.3038
 2700ntf    on519436   1.401   4.585   6.588 -0.0694  0.0607  0.0958
 2700ntf    on519437   1.505   4.667   6.380 -0.0041 -0.3493  0.3685
 2700ntf    fn419438   1.271   4.516   6.246 -0.0559 -0.2486  0.1801
 2700ntf    fn419439   1.427   4.400   6.341  0.1774 -0.7821  0.8592
 2700ntf    fn419440   1.236   4.424   6.437 -0.0203  0.4078  0.3645
   6.89900   6.89900   6.89900
