Converted from moscito
15120
    1poe    c31    1   5.087   2.599   5.817  0.0841 -0.5321  0.2163
    1poe     o2    2   5.047   2.572   5.685 -0.0803  0.5216  0.0439
    1poe    c23    3   4.998   2.440   5.674  0.2735  0.4116 -0.2319
    1poe    c23    4   4.948   2.403   5.534  0.0188 -0.0481 -0.0226
    1poe     o2    5   5.054   2.446   5.451 -0.2667 -0.5577 -0.6557
    1poe    c23    6   5.012   2.453   5.316 -0.2874  0.2105 -0.6106
    1poe    c23    7   5.119   2.539   5.245  0.7279 -0.4484  0.0946
    1poe     o2    8   5.142   2.648   5.332  0.0418 -0.4624  0.3003
    1poe    c23    9   5.246   2.734   5.293 -1.1042  0.5975 -0.5069
    1poe    c23   10   5.279   2.804   5.425  0.1096 -0.6348 -0.1274
    1poe     o2   11   5.300   2.733   5.545 -0.8720  0.0330  0.4586
    1poe    c31   12   5.379   2.808   5.634  0.1038  0.0530 -0.4054
    2poe    c31   13   1.102   6.178   5.073 -0.6991 -0.4157 -0.0814
    2poe     o2   14   0.984   6.225   5.012 -0.4405  0.2465 -0.0723
    2poe    c23   15   0.963   6.364   5.026 -0.0370  0.3779 -0.7209
    2poe    c23   16   0.829   6.394   5.096  0.0700  0.1441 -0.4154
    2poe     o2   17   0.724   6.332   5.025 -0.0051  0.0454 -0.2173
    2poe    c23   18   0.603   6.347   5.096  0.1506 -0.4272  0.1556
    2poe    c23   19   0.495   6.275   5.015  0.1586  0.4800 -0.6755
    2poe     o2   20   0.538   6.148   4.970 -0.2287  0.2580 -0.4222
    2poe    c23   21   0.438   6.054   4.939 -0.0385 -0.0425 -0.1361
    2poe    c23   22   0.349   6.084   4.817 -0.0696  0.0497 -0.0915
    2poe     o2   23   0.416   6.064   4.695  0.4404  0.2810  0.1512
    2poe    c31   24   0.342   6.111   4.584  0.2569  0.0521  0.1770
    3poe    c31   25   4.685   5.097   5.537 -0.1652  0.0806 -0.0937
    3poe     o2   26   4.704   5.122   5.400 -0.0313 -0.1469 -0.1175
    3poe    c23   27   4.710   5.261   5.375 -0.0580 -0.1064  0.1046
    3poe    c23   28   4.809   5.281   5.259 -0.0314 -0.1485  0.1204
    3poe     o2   29   4.802   5.152   5.202  0.1012 -0.1432  0.0899
    3poe    c23   30   4.916   5.124   5.124  0.0576  0.5602 -0.2348
    3poe    c23   31   4.901   4.980   5.072 -0.1141  0.3428  0.4070
    3poe     o2   32   4.872   4.907   5.189  0.4900  0.2242  0.4824
    3poe    c23   33   4.820   4.779   5.163  0.2017  0.3510  0.4387
    3poe    c23   34   4.713   4.739   5.267 -0.2498  0.0368 -0.1362
    3poe     o2   35   4.638   4.850   5.310  0.0465  0.1723  0.0392
    3poe    c31   36   4.520   4.804   5.374  0.1353  0.1515  0.1887
    4poe    c31   37   3.879   5.501   6.642 -0.1629 -0.3634  0.0694
    4poe     o2   38   3.815   5.612   6.582  0.3000 -0.1055  0.0488
    4poe    c23   39   3.698   5.640   6.657 -0.0530 -0.2019 -0.4632
    4poe    c23   40   3.624   5.759   6.594 -0.3034 -0.1197 -0.0155
    4poe     o2   41   3.725   5.835   6.530 -0.6680 -0.0525 -0.5213
    4poe    c23   42   3.667   5.921   6.435 -0.1436  0.4643 -0.3838
    4poe    c23   43   3.789   5.974   6.358  0.5316  0.0384  0.3747
    4poe     o2   44   3.863   5.858   6.329  0.1781 -0.0992  0.0154
    4poe    c23   45   3.990   5.880   6.271 -0.3239 -0.0642 -1.1092
    4poe    c23   46   4.040   5.737   6.246 -0.2239 -0.1022 -0.7107
    4poe     o2   47   4.010   5.648   6.350  0.1230 -0.0627 -0.5737
    4poe    c31   48   4.082   5.528   6.331 -0.2591 -0.3233 -0.4088
    5poe    c31   49   6.018   5.504   1.756  0.8280 -0.0318  0.2712
    5poe     o2   50   5.944   5.465   1.870  0.3402 -0.1571 -0.0851
    5poe    c23   51   6.036   5.384   1.939  0.1103 -0.3021  0.0503
    5poe    c23   52   5.941   5.297   2.025  0.0957 -0.3734 -0.0377
    5poe     o2   53   5.825   5.364   2.070  0.3953  0.0527  0.1077
    5poe    c23   54   5.743   5.283   2.152  0.0058  0.3582  0.0231
    5poe    c23   55   5.631   5.360   2.223 -0.3067 -0.1429  0.0753
    5poe     o2   56   5.531   5.403   2.134 -0.0061 -0.3908 -0.3814
    5poe    c23   57   5.420   5.451   2.206  0.3041  0.0999 -0.2258
    5poe    c23   58   5.316   5.536   2.131  0.5788  0.5058 -0.1504
    5poe     o2   59   5.378   5.658   2.096  0.3133  0.6950  0.0324
    5poe    c31   60   5.294   5.740   2.019 -0.7998 -0.5381 -0.0946
    6poe    c31   61   5.971   2.232   4.370 -0.4862 -0.0826 -0.1958
    6poe     o2   62   5.967   2.354   4.301 -0.1711 -0.0314 -0.1255
    6poe    c23   63   5.868   2.438   4.355 -0.0752 -0.0257  0.0402
    6poe    c23   64   5.881   2.584   4.306 -0.1219  0.1367  0.5025
    6poe     o2   65   5.888   2.570   4.166 -0.0459  0.3535  0.4850
    6poe    c23   66   5.892   2.701   4.114 -0.4612  0.0572 -0.3230
    6poe    c23   67   5.993   2.689   3.999  0.2922  0.7973  0.2461
    6poe     o2   68   6.099   2.606   4.041  0.4543  0.5734 -0.5775
    6poe    c23   69   6.164   2.548   3.931  0.4213  0.2706 -0.4394
    6poe    c23   70   6.239   2.423   3.981 -0.0433  0.3648  0.4948
    6poe     o2   71   6.153   2.356   4.072 -0.0102  0.2808  0.4642
    6poe    c31   72   6.213   2.242   4.128  0.0830 -0.2183 -0.6315
    7poe    c31   73   3.093   4.816   3.569 -0.1749 -0.9610  0.5937
    7poe     o2   74   3.066   4.748   3.449 -0.0137 -0.0556  0.0337
    7poe    c23   75   3.185   4.691   3.400  0.6116  1.3171 -0.0719
    7poe    c23   76   3.157   4.666   3.250 -0.1123  0.1297  0.2531
    7poe     o2   77   3.032   4.601   3.240  0.0488 -0.1682  0.1786
    7poe    c23   78   3.003   4.549   3.112  0.0713 -0.1389  0.1612
    7poe    c23   79   2.862   4.487   3.123  0.0059 -0.1010 -0.4656
    7poe     o2   80   2.802   4.562   3.226 -0.1943 -0.0473 -0.6209
    7poe    c23   81   2.684   4.497   3.268  0.1112 -0.2914 -0.1297
    7poe    c23   82   2.646   4.586   3.388  0.5493  0.1542 -0.3141
    7poe     o2   83   2.765   4.598   3.462  0.2655  0.1930  0.1409
    7poe    c31   84   2.751   4.576   3.600 -0.2567 -0.4340 -0.0083
    8poe    c31   85   0.903   0.634   4.639  0.1546  0.0887  0.2498
    8poe     o2   86   0.773   0.685   4.654  0.0618 -0.0410 -0.0890
    8poe    c23   87   0.749   0.687   4.793 -0.1282 -0.1840 -0.1183
    8poe    c23   88   0.611   0.748   4.824  0.1998  0.4062  0.2022
    8poe     o2   89   0.500   0.668   4.793  0.3038  0.2452  0.2449
    8poe    c23   90   0.391   0.734   4.852  0.3227 -0.1557  0.7397
    8poe    c23   91   0.274   0.640   4.885 -0.2708  0.1901 -0.3372
    8poe     o2   92   0.230   0.561   4.776 -0.2569  0.2167 -0.3617
    8poe    c23   93   0.149   0.452   4.814 -0.4491  0.2368 -0.7129
    8poe    c23   94   0.121   0.384   4.679 -0.3115 -0.4478 -0.4013
    8poe     o2   95   0.243   0.380   4.608 -0.0299  0.4216  0.0219
    8poe    c31   96   0.218   0.299   4.496  0.3450  0.4557 -0.0896
    9poe    c31   97   1.199   4.484   2.841  0.4423  0.0271  0.2209
    9poe     o2   98   1.324   4.429   2.875  0.3254 -0.1949  0.2987
    9poe    c23   99   1.321   4.309   2.948  0.2075 -0.5049 -0.2089
    9poe    c23  100   1.458   4.310   3.019  0.2246  0.2721 -0.2442
    9poe     o2  101   1.548   4.307   2.910  0.0521 -0.1885 -0.3769
    9poe    c23  102   1.685   4.307   2.941 -0.0991 -0.1418  0.3210
    9poe    c23  103   1.751   4.346   2.807 -0.4511  0.1897  0.2412
    9poe     o2  104   1.669   4.451   2.760 -0.7566 -0.1239  0.0693
    9poe    c23  105   1.680   4.453   2.620  0.4156 -0.2217  0.1493
    9poe    c23  106   1.582   4.543   2.543 -0.0388 -0.6711  0.1973
    9poe     o2  107   1.455   4.515   2.599 -0.2979  0.1906  0.0525
    9poe    c31  108   1.358   4.596   2.537  0.3195  0.6650 -0.3117
   10poe    c31  109   4.559   2.989   1.982  0.5573  0.2797 -0.1909
   10poe     o2  110   4.457   2.977   1.885  0.1281 -0.8780  0.3889
   10poe    c23  111   4.332   2.998   1.947  0.1706 -0.2557  0.2750
   10poe    c23  112   4.236   3.037   1.833  1.0084  0.1616 -0.2974
   10poe     o2  113   4.243   2.937   1.733  0.4218 -0.2158  0.0336
   10poe    c23  114   4.166   2.966   1.619 -0.1910 -0.6235  0.3385
   10poe    c23  115   4.259   2.931   1.501 -0.2706 -0.1020  0.1195
   10poe     o2  116   4.389   2.968   1.541 -0.2541 -0.4667  0.4063
   10poe    c23  117   4.414   3.085   1.467  0.3331 -0.5335  0.4940
   10poe    c23  118   4.508   3.175   1.549  0.3070 -0.1502  0.1120
   10poe     o2  119   4.481   3.167   1.688  0.3618  0.0155  0.1318
   10poe    c31  120   4.512   3.298   1.731  0.7261 -0.2639  0.7381
   11poe    c31  121   0.189   1.925   3.579  0.2020 -0.2400 -0.1912
   11poe     o2  122   0.280   2.029   3.551 -0.7726  0.7326  0.1867
   11poe    c23  123   0.324   2.085   3.673  0.3901  0.0501  0.0963
   11poe    c23  124   0.463   2.150   3.654  0.1588  0.5146 -0.0111
   11poe     o2  125   0.442   2.194   3.521 -0.5170  0.7052  0.1521
   11poe    c23  126   0.546   2.269   3.462  0.1440  0.1162  0.5560
   11poe    c23  127   0.487   2.323   3.331 -0.2492  0.0297  0.6951
   11poe     o2  128   0.416   2.228   3.254 -0.0292  0.3621  0.0703
   11poe    c23  129   0.367   2.272   3.129  0.6389  0.1451 -0.2694
   11poe    c23  130   0.281   2.153   3.083 -0.2720  0.6778  0.0298
   11poe     o2  131   0.186   2.116   3.180  0.1546 -0.0100  0.1937
   11poe    c31  132   0.081   2.037   3.131  0.3467  0.0188 -0.2742
   12poe    c31  133   2.958   4.349   3.979  0.5189  0.2204  0.2750
   12poe     o2  134   3.043   4.250   4.033  0.2359 -0.0642  0.1984
   12poe    c23  135   3.097   4.294   4.156 -0.4992 -0.0079  0.5099
   12poe    c23  136   3.168   4.178   4.229  0.1515 -0.1898 -0.3816
   12poe     o2  137   3.299   4.147   4.187  0.4092  0.2566  0.0768
   12poe    c23  138   3.352   4.033   4.251 -0.1115 -0.1027 -0.1220
   12poe    c23  139   3.503   4.040   4.221 -0.0323  0.0888  0.3193
   12poe     o2  140   3.545   4.175   4.216 -0.0408  0.1088  0.7592
   12poe    c23  141   3.682   4.200   4.195  0.0107 -0.3096  0.5776
   12poe    c23  142   3.708   4.352   4.196  0.3063 -0.3571  0.4138
   12poe     o2  143   3.602   4.406   4.273  0.2226  0.0690  0.0040
   12poe    c31  144   3.618   4.541   4.311  0.1710  0.1028 -0.0952
   13poe    c31  145   1.377   0.249   3.206  0.2502  0.3098 -0.1607
   13poe     o2  146   1.245   0.274   3.165 -0.1193 -0.5120  0.4958
   13poe    c23  147   1.258   0.292   3.026  0.4568 -0.3422  0.5708
   13poe    c23  148   1.114   0.280   2.972  0.3509  0.5801  0.6328
   13poe     o2  149   1.038   0.197   3.057  0.0555  0.1017 -0.0994
   13poe    c23  150   0.905   0.176   3.013  0.2287 -0.6877 -0.2480
   13poe    c23  151   0.846   0.109   3.139  0.1981 -0.3035 -0.0589
   13poe     o2  152   0.910   0.160   3.254  0.2330 -0.1468 -0.1464
   13poe    c23  153   0.853   0.261   3.333  0.2389  0.4421 -0.8796
   13poe    c23  154   0.950   0.272   3.452 -0.4620 -0.0152 -0.2541
   13poe     o2  155   1.077   0.290   3.394  0.0515 -0.5179  0.6792
   13poe    c31  156   1.152   0.378   3.474  0.5740 -0.2645 -0.0752
   14poe    c31  157   1.349   3.468   3.154 -0.1083 -0.8008  0.0433
   14poe     o2  158   1.285   3.343   3.168 -0.2685 -0.7117  0.1023
   14poe    c23  159   1.146   3.359   3.191 -0.1699  0.3772 -0.0031
   14poe    c23  160   1.083   3.219   3.203 -0.4418  0.4754 -0.2755
   14poe     o2  161   1.178   3.135   3.265 -1.0204  0.0493  0.0422
   14poe    c23  162   1.128   3.006   3.292  0.0540 -0.4329 -0.1955
   14poe    c23  163   1.237   2.902   3.261  0.2647 -0.3058  0.1177
   14poe     o2  164   1.355   2.978   3.270  0.0625 -0.0495  0.6356
   14poe    c23  165   1.467   2.928   3.201 -0.2701  0.0652  0.0047
   14poe    c23  166   1.575   3.037   3.207 -0.1479 -0.0847  0.5713
   14poe     o2  167   1.521   3.165   3.187 -0.1145 -0.1663 -0.0479
   14poe    c31  168   1.617   3.268   3.173 -0.2815 -0.0400 -0.2752
   15poe    c31  169   1.821   5.933   0.747  0.1204 -0.0079  0.7648
   15poe     o2  170   1.885   5.981   0.863 -0.0197  0.6053  0.5930
   15poe    c23  171   2.006   6.044   0.829  0.1686 -0.2628 -0.3785
   15poe    c23  172   2.108   6.034   0.944 -0.5207 -0.1468  0.2527
   15poe     o2  173   2.109   5.899   0.986 -0.5111 -0.2738 -0.1501
   15poe    c23  174   2.177   5.871   1.106 -0.3239  0.3220 -0.1114
   15poe    c23  175   2.120   5.737   1.157  0.1407  0.3477  0.4839
   15poe     o2  176   1.982   5.746   1.128  0.2090 -0.4094 -0.1056
   15poe    c23  177   1.905   5.631   1.155 -0.4002  0.2661  1.1399
   15poe    c23  178   1.763   5.651   1.099 -0.0680  0.1561  0.2442
   15poe     o2  179   1.768   5.711   0.971 -0.3430 -0.0591  0.1300
   15poe    c31  180   1.636   5.715   0.924 -0.3000  0.1480  0.0250
   16poe    c31  181   0.495   1.957   2.458 -0.1782  0.3779  0.1124
   16poe     o2  182   0.584   1.921   2.561  0.2611  0.0227 -0.3825
   16poe    c23  183   0.511   1.865   2.668  0.1352  0.3599 -0.2898
   16poe    c23  184   0.605   1.871   2.791 -0.2490  0.4089  0.0016
   16poe     o2  185   0.733   1.828   2.750 -0.4277 -0.2440  0.1141
   16poe    c23  186   0.818   1.861   2.857 -0.0037  0.1508 -0.3387
   16poe    c23  187   0.958   1.849   2.795  0.0300 -0.0504 -0.2268
   16poe     o2  188   0.935   1.910   2.669  0.2119  0.1354 -0.1710
   16poe    c23  189   1.044   1.899   2.580  0.4528  0.2402  0.1095
   16poe    c23  190   1.009   1.949   2.439 -0.2817 -0.4354  0.0492
   16poe     o2  191   0.874   1.925   2.407 -0.3441  0.3631 -0.3180
   16poe    c31  192   0.849   1.946   2.270 -0.0979 -0.2846 -0.4669
   17poe    c31  193   6.027   0.535   6.325  0.1718 -0.2085 -0.2279
   17poe     o2  194   5.935   0.428   6.335 -0.1010 -0.0196 -0.6896
   17poe    c23  195   5.811   0.469   6.283 -0.5260  0.2228  0.4877
   17poe    c23  196   5.748   0.341   6.224  0.2447 -0.0222  0.1806
   17poe     o2  197   5.783   0.231   6.303  0.2536  0.0343  0.2558
   17poe    c23  198   5.810   0.122   6.218 -0.0808 -0.2293  0.4828
   17poe    c23  199   5.891   0.025   6.307  0.3658 -0.2964  0.0106
   17poe     o2  200   5.971   0.110   6.387  0.0580 -0.2678  0.2925
   17poe    c23  201   6.033   0.027   6.483  0.4586 -0.1583  0.1288
   17poe    c23  202   6.113   0.134   6.559  0.5472  0.0255 -0.2203
   17poe     o2  203   6.040   0.254   6.565 -0.0731 -0.3597  0.0231
   17poe    c31  204   6.110   0.335   6.657  0.2102 -0.3525 -0.1983
   18poe    c31  205   5.030   0.344   1.793 -0.2978 -0.1842  0.7785
   18poe     o2  206   5.090   0.451   1.861  0.2026  0.3564 -0.4890
   18poe    c23  207   5.229   0.437   1.882  0.1684  0.4071 -0.2187
   18poe    c23  208   5.282   0.535   1.988  0.5290  0.2249 -0.2307
   18poe     o2  209   5.298   0.659   1.923 -0.6345  0.5346  0.0486
   18poe    c23  210   5.350   0.759   2.008  0.3067 -0.0452  0.1692
   18poe    c23  211   5.337   0.897   1.943 -0.3113 -0.1348  0.0958
   18poe     o2  212   5.209   0.930   1.893 -0.1894 -0.2303 -0.2866
   18poe    c23  213   5.218   1.036   1.800  0.3854 -0.7226 -0.7988
   18poe    c23  214   5.082   1.101   1.772  0.3387 -0.1958  0.5413
   18poe     o2  215   4.986   0.997   1.775  0.0152  0.0331 -0.7585
   18poe    c31  216   4.854   1.043   1.778 -0.1009 -0.3152  0.7387
   19poe    c31  217   3.694   3.592   2.870 -0.0077  1.0227  0.0056
   19poe     o2  218   3.740   3.558   2.741 -0.4363 -0.4231  0.2201
   19poe    c23  219   3.705   3.660   2.651  0.0131 -0.3343  0.1468
   19poe    c23  220   3.754   3.626   2.509  0.5768  0.2175  0.1990
   19poe     o2  221   3.881   3.568   2.528  0.4461 -0.2031 -0.1835
   19poe    c23  222   3.910   3.488   2.415  0.2679  0.3996 -0.6678
   19poe    c23  223   4.030   3.396   2.445  0.0722  0.0952 -0.8081
   19poe     o2  224   3.997   3.345   2.572 -0.8347 -0.0013 -1.0725
   19poe    c23  225   4.105   3.276   2.633 -1.4527 -0.1022 -0.0803
   19poe    c23  226   4.047   3.249   2.773  0.5855  0.3183  0.8737
   19poe     o2  227   3.955   3.349   2.811  0.1534  0.1807  0.1952
   19poe    c31  228   3.924   3.329   2.947  0.2370 -0.0856  0.1757
   20poe    c31  229   0.515   3.146   5.447  0.0886  0.0342 -0.3743
   20poe     o2  230   0.509   3.017   5.389  0.2675 -0.0658 -0.1721
   20poe    c23  231   0.407   2.945   5.453  0.2331  0.6474  0.5969
   20poe    c23  232   0.404   2.799   5.405 -0.5290  0.7892  0.2023
   20poe     o2  233   0.404   2.792   5.264  0.3579  0.1756  0.2252
   20poe    c23  234   0.420   2.657   5.229  0.0106  0.2263 -0.1413
   20poe    c23  235   0.428   2.641   5.076 -0.5261 -0.4857 -0.1001
   20poe     o2  236   0.320   2.715   5.024  0.1738  0.4590 -0.2348
   20poe    c23  237   0.319   2.696   4.884  0.0109 -0.2210 -0.1425
   20poe    c23  238   0.204   2.768   4.812  0.3942  0.4607 -0.0777
   20poe     o2  239   0.207   2.907   4.789  0.4802  0.5358  0.3856
   20poe    c31  240   0.075   2.949   4.767  0.4657  0.2683 -0.0431
   21poe    c31  241   2.867   1.166   5.387  0.1014  0.2151 -0.0455
   21poe     o2  242   2.949   1.273   5.346  0.5454 -0.1037  0.0094
   21poe    c23  243   3.081   1.225   5.328  0.6030 -0.3622  1.0658
   21poe    c23  244   3.163   1.308   5.228 -0.1698 -0.1297  0.6144
   21poe     o2  245   3.119   1.441   5.249 -0.2190 -0.0595  0.0764
   21poe    c23  246   3.172   1.533   5.156  0.2325 -0.3580  0.0337
   21poe    c23  247   3.074   1.651   5.148  0.1266 -0.4854 -0.6318
   21poe     o2  248   2.949   1.587   5.161 -0.1696  0.2240  0.1890
   21poe    c23  249   2.836   1.670   5.169 -0.0859  0.3963 -0.3418
   21poe    c23  250   2.716   1.574   5.182  0.2800 -0.0680 -0.3474
   21poe     o2  251   2.749   1.473   5.274 -0.3746  0.2009  0.1908
   21poe    c31  252   2.629   1.407   5.311 -0.6118  0.3689 -0.2686
   22poe    c31  253   5.736   6.496   1.195 -0.0698 -0.5298  0.2413
   22poe     o2  254   5.704   6.477   1.331 -0.1724 -0.0280  0.2922
   22poe    c23  255   5.777   6.565   1.414 -0.5624  0.3730  0.2069
   22poe    c23  256   5.785   6.490   1.548  0.2418  0.4617  0.2095
   22poe     o2  257   5.659   6.429   1.564  0.4437  0.1281  0.5316
   22poe    c23  258   5.653   6.354   1.683  0.3901 -0.2245  0.3083
   22poe    c23  259   5.500   6.336   1.680  0.4020 -0.3632  0.5073
   22poe     o2  260   5.479   6.282   1.552 -0.0887  0.2567  0.3200
   22poe    c23  261   5.342   6.257   1.530  0.0602 -0.5309  0.2676
   22poe    c23  262   5.328   6.213   1.383 -0.1611 -0.4619  0.2683
   22poe     o2  263   5.425   6.288   1.315 -1.0288  0.4732  0.0459
   22poe    c31  264   5.419   6.269   1.175 -0.2126 -0.1143  0.0823
   23poe    c31  265   3.388   6.487   4.520 -0.1132  0.4137 -0.5093
   23poe     o2  266   3.514   6.482   4.457 -0.1052  0.0450 -0.4637
   23poe    c23  267   3.558   6.608   4.413 -0.2412  0.1288 -0.3588
   23poe    c23  268   3.709   6.586   4.392 -0.3010 -0.1617 -0.4828
   23poe     o2  269   3.731   6.476   4.306 -0.2255  0.0738 -0.7643
   23poe    c23  270   3.864   6.433   4.286 -0.1850 -0.2798  0.2127
   23poe    c23  271   3.832   6.296   4.223 -0.1437 -0.0057 -0.4092
   23poe     o2  272   3.738   6.240   4.311  0.4321 -0.0022  0.2241
   23poe    c23  273   3.728   6.099   4.304  0.2490  0.0296 -0.1782
   23poe    c23  274   3.661   6.080   4.441 -0.1722  0.2511 -0.3526
   23poe     o2  275   3.564   6.180   4.463 -0.1036  0.3604 -0.5396
   23poe    c31  276   3.485   6.143   4.574  0.5046 -0.0787 -0.2487
   24poe    c31  277   5.869   0.761   2.603 -0.0444 -0.1665 -0.4623
   24poe     o2  278   5.997   0.821   2.604 -0.0594 -0.1479  0.3479
   24poe    c23  279   5.983   0.919   2.704 -0.0356 -0.0256  0.2310
   24poe    c23  280   6.042   1.049   2.646  1.0974 -0.4785  0.3278
   24poe     o2  281   6.173   1.008   2.614  0.9312 -0.6284 -0.1690
   24poe    c23  282   6.247   1.094   2.531 -0.0852 -0.4575 -0.9143
   24poe    c23  283   6.377   1.014   2.519  0.1101 -0.2614 -0.1603
   24poe     o2  284   6.329   0.884   2.492 -0.3473 -0.1263  0.0031
   24poe    c23  285   6.427   0.786   2.518 -0.0736  0.2928  0.5765
   24poe    c23  286   6.355   0.650   2.519  0.0750  0.2124  0.4267
   24poe     o2  287   6.242   0.674   2.600  0.1133  0.4546  0.4081
   24poe    c31  288   6.203   0.555   2.664  0.4428  0.1268  0.0014
   25poe    c31  289   3.936   2.437   2.876  0.8141 -0.1183  0.0400
   25poe     o2  290   3.935   2.304   2.923 -0.2275 -0.0219  0.3303
   25poe    c23  291   4.034   2.241   2.845  0.1073  0.1650  0.5967
   25poe    c23  292   4.045   2.096   2.895 -0.3940 -0.0303  0.1524
   25poe     o2  293   3.911   2.050   2.905 -0.3879 -0.0030  0.3794
   25poe    c23  294   3.901   1.925   2.968  0.2902 -0.3768 -0.2359
   25poe    c23  295   3.750   1.922   2.998  0.3985 -0.0774  0.3569
   25poe     o2  296   3.726   2.049   3.054 -0.0809 -0.1578  0.3340
   25poe    c23  297   3.591   2.066   3.093 -0.1989  0.1529 -0.2069
   25poe    c23  298   3.598   2.216   3.125 -0.1655  0.2518 -0.6610
   25poe     o2  299   3.683   2.294   3.043  0.2781 -0.3313 -0.7604
   25poe    c31  300   3.634   2.425   3.028 -0.1763 -0.3823  0.1952
   26poe    c31  301   4.900   6.110   5.037  0.2899 -0.1316 -0.3404
   26poe     o2  302   5.011   6.197   5.039 -0.0300  0.2761 -0.3537
   26poe    c23  303   5.044   6.236   4.907  0.0696  0.1905 -0.3543
   26poe    c23  304   5.160   6.337   4.912 -0.4769  0.7979  0.4494
   26poe     o2  305   5.245   6.265   4.998  0.2211 -0.0303 -0.8927
   26poe    c23  306   5.374   6.319   5.020  0.0160  0.1914 -0.1958
   26poe    c23  307   5.429   6.215   5.119  0.2904  0.4087 -0.1204
   26poe     o2  308   5.337   6.188   5.223  0.1865 -0.3172 -0.3982
   26poe    c23  309   5.373   6.072   5.294  0.2994  0.0596  0.1661
   26poe    c23  310   5.248   6.053   5.382 -0.2251  0.2000 -0.5431
   26poe     o2  311   5.126   6.057   5.311 -0.1316  0.7135 -0.6787
   26poe    c31  312   5.035   5.965   5.367  0.3768  0.5003 -0.1899
   27poe    c31  313   2.922   5.194   2.437  0.0527  0.3120 -0.0729
   27poe     o2  314   3.000   5.149   2.545  0.0662  0.1460 -0.1515
   27poe    c23  315   3.059   5.027   2.508 -0.1929 -0.1343  0.3487
   27poe    c23  316   3.132   4.979   2.635  0.2665 -0.1899  0.0670
   27poe     o2  317   3.062   5.028   2.747  0.5982  0.2885  0.0677
   27poe    c23  318   3.101   4.956   2.862 -0.2070 -0.3446 -0.0474
   27poe    c23  319   3.020   5.038   2.965 -0.2626 -0.1202 -0.2686
   27poe     o2  320   3.051   5.175   2.952  0.2332 -0.2123 -0.0694
   27poe    c23  321   2.939   5.236   3.012 -0.3169 -0.7074 -0.5719
   27poe    c23  322   2.878   5.346   2.923 -0.4786  0.1180  0.5378
   27poe     o2  323   2.870   5.296   2.792  0.5643  0.4409  0.3378
   27poe    c31  324   2.735   5.317   2.753  0.2689 -0.7907  0.6589
   28poe    c31  325   0.351   0.030   5.403  0.3386 -0.0389 -0.2249
   28poe     o2  326   0.336  -0.072   5.500  0.1597  0.0798 -0.1280
   28poe    c23  327   0.470  -0.099   5.535  0.0582  0.1501  0.3138
   28poe    c23  328   0.480  -0.248   5.575  0.3275  0.1141  0.1132
   28poe     o2  329   0.379  -0.277   5.669  0.8223 -0.2401  0.5440
   28poe    c23  330   0.297  -0.390   5.651  0.3650  0.1456  0.1836
   28poe    c23  331   0.166  -0.362   5.726  0.1974 -0.0868 -0.0199
   28poe     o2  332   0.134  -0.234   5.676  0.1536 -0.1755 -0.2187
   28poe    c23  333   0.057  -0.166   5.773 -0.3228  0.0736 -0.7615
   28poe    c23  334   0.083  -0.015   5.765 -0.4939  0.1236 -0.3854
   28poe     o2  335   0.085   0.018   5.628  0.9764 -0.6293 -0.5727
   28poe    c31  336   0.085   0.157   5.607  0.1359 -0.5169  0.0771
   29poe    c31  337   3.920   4.131   3.192  0.0673  0.1958  0.0881
   29poe     o2  338   3.967   4.081   3.315  0.1076 -0.3807 -0.1569
   29poe    c23  339   4.016   4.185   3.396  0.0587 -0.2789 -0.2596
   29poe    c23  340   4.035   4.127   3.537  0.4074 -0.0417 -0.2086
   29poe     o2  341   4.122   4.018   3.520  0.1016 -0.3402  0.1269
   29poe    c23  342   4.126   3.943   3.639  0.0557  0.0357  0.3664
   29poe    c23  343   4.215   3.820   3.610  0.0812  0.1282  0.0491
   29poe     o2  344   4.154   3.774   3.492 -0.2293 -0.1705  0.3228
   29poe    c23  345   4.254   3.737   3.400 -0.1603  0.2559  0.2262
   29poe    c23  346   4.183   3.705   3.267  0.1748  0.0053  0.1053
   29poe     o2  347   4.113   3.824   3.236  0.0369 -0.0852  0.0656
   29poe    c31  348   4.039   3.812   3.117  0.0444  0.0124  0.0511
   30poe    c31  349   0.766   6.034   0.785 -0.7270  0.3319  0.2650
   30poe     o2  350   0.828   6.154   0.743 -0.2164  0.0979  0.3432
   30poe    c23  351   0.966   6.142   0.769 -0.0827  0.8229  0.0158
   30poe    c23  352   1.030   6.258   0.691  0.0899  0.3289 -0.5826
   30poe     o2  353   0.941   6.366   0.701  0.0096  0.2278 -0.1845
   30poe    c23  354   0.986   6.494   0.662  0.3699  0.2206  0.1993
   30poe    c23  355   0.877   6.588   0.715  0.3167  0.5754 -0.5235
   30poe     o2  356   0.756   6.530   0.670  0.1487 -0.1138  0.7529
   30poe    c23  357   0.628   6.573   0.712 -0.0780  0.5171 -0.5306
   30poe    c23  358   0.531   6.466   0.658  0.4741  0.0571 -0.6170
   30poe     o2  359   0.578   6.335   0.683 -0.7579 -0.1957  0.4375
   30poe    c31  360   0.502   6.242   0.609 -0.2319 -0.0489 -0.2916
   31poe    c31  361   0.855   1.990   0.843  0.0330  0.1106 -0.1046
   31poe     o2  362   0.900   2.123   0.849  0.1666  0.0782 -0.3517
   31poe    c23  363   0.786   2.200   0.818  0.0509 -0.2068 -0.6411
   31poe    c23  364   0.845   2.342   0.826 -0.5683  0.0296 -0.1435
   31poe     o2  365   0.932   2.354   0.936  0.4069  0.3858 -0.9441
   31poe    c23  366   1.006   2.473   0.955  0.0887  0.4524 -0.0581
   31poe    c23  367   1.143   2.449   0.890  0.1836  0.3673  0.1757
   31poe     o2  368   1.168   2.314   0.925 -0.2866  0.1006 -0.5005
   31poe    c23  369   1.289   2.268   0.869 -0.0093 -0.0518  0.2182
   31poe    c23  370   1.306   2.124   0.922  0.0088 -0.1056  0.0665
   31poe     o2  371   1.182   2.058   0.902 -0.1339  0.1679  0.0409
   31poe    c31  372   1.206   1.919   0.898 -0.0620  0.1744  0.2205
   32poe    c31  373   5.835   0.356   1.224 -1.1670 -0.8848  0.6930
   32poe     o2  374   5.850   0.331   1.362  0.7941  0.0876  0.6995
   32poe    c23  375   5.917   0.209   1.385  0.5904 -0.1205  0.2168
   32poe    c23  376   5.989   0.215   1.521  0.4816  0.4587  0.2528
   32poe     o2  377   5.904   0.291   1.604 -0.3376 -0.0517 -0.1045
   32poe    c23  378   5.933   0.294   1.742 -0.1051  0.4558 -0.1612
   32poe    c23  379   5.841   0.402   1.803 -0.6210 -0.0298 -0.0754
   32poe     o2  380   5.799   0.487   1.699 -0.1679  0.2420 -0.0374
   32poe    c23  381   5.686   0.561   1.739 -0.0994 -0.0423  0.6988
   32poe    c23  382   5.626   0.633   1.617  1.1217  0.0452  0.1265
   32poe     o2  383   5.654   0.545   1.511  0.8100 -0.0980  0.1605
   32poe    c31  384   5.556   0.565   1.413  0.3785  0.3777  0.6804
   33poe    c31  385   6.183   6.176   4.469  0.8910 -0.1075 -0.9712
   33poe     o2  386   6.251   6.223   4.583 -0.3453 -0.9021  0.1165
   33poe    c23  387   6.168   6.236   4.696  0.1233 -0.6836  0.4367
   33poe    c23  388   6.243   6.295   4.817 -0.1301  0.7470 -0.0808
   33poe     o2  389   6.360   6.219   4.795 -0.5628 -0.0193  0.2180
   33poe    c23  390   6.461   6.235   4.892 -0.1401 -0.3074 -0.1716
   33poe    c23  391   6.565   6.124   4.866  0.5109  0.2658 -0.0715
   33poe     o2  392   6.590   6.126   4.727  0.1262  0.7058 -0.1367
   33poe    c23  393   6.640   6.001   4.684  0.0116  0.5669  0.1302
   33poe    c23  394   6.629   6.002   4.531 -0.2066 -0.1982  0.1369
   33poe     o2  395   6.494   6.038   4.518 -0.0074  0.4076 -0.3313
   33poe    c31  396   6.446   5.961   4.409  0.3777  0.4499 -0.5321
   34poe    c31  397   4.904   6.178   0.885  0.7198 -0.0717 -0.5649
   34poe     o2  398   4.865   6.072   0.970 -0.0672  0.7190  0.0772
   34poe    c23  399   4.972   5.981   0.983 -0.5594  0.0547 -0.4202
   34poe    c23  400   4.977   5.907   1.118  0.2815  0.2413 -0.3408
   34poe     o2  401   4.845   5.861   1.137  0.4932 -0.0870  0.3555
   34poe    c23  402   4.814   5.822   1.269  0.0222  0.0535  0.2899
   34poe    c23  403   4.663   5.800   1.256  0.0083  0.3645 -0.0973
   34poe     o2  404   4.608   5.899   1.172 -0.1464  0.5020  0.1612
   34poe    c23  405   4.477   5.873   1.128  0.1448  0.3791 -0.6725
   34poe    c23  406   4.443   5.995   1.041 -0.7627  0.4711 -0.2038
   34poe     o2  407   4.560   6.063   1.004 -0.2720 -0.4008 -0.2806
   34poe    c31  408   4.524   6.179   0.931 -0.0005 -0.3100 -0.2732
   35poe    c31  409   5.186   3.622   3.602  0.4283  0.4174 -0.0543
   35poe     o2  410   5.147   3.716   3.700 -0.3122  0.2771 -0.2097
   35poe    c23  411   5.267   3.776   3.744 -0.1937  0.1517 -0.3597
   35poe    c23  412   5.227   3.924   3.762 -0.5157  0.0584 -0.3073
   35poe     o2  413   5.104   3.924   3.832 -0.3768 -0.6254 -0.0535
   35poe    c23  414   5.063   4.054   3.869  0.3799 -0.2995 -0.3367
   35poe    c23  415   4.922   4.025   3.924  0.5722  0.0153  0.3324
   35poe     o2  416   4.882   3.923   3.835  0.1967  0.0584  0.4506
   35poe    c23  417   4.745   3.918   3.804  0.4006  0.1108 -0.4865
   35poe    c23  418   4.730   3.818   3.688  0.0763  0.1203 -0.4526
   35poe     o2  419   4.842   3.734   3.674  0.0999  0.0772 -0.0042
   35poe    c31  420   4.788   3.614   3.624  0.1843  0.0226  0.0348
   36poe    c31  421   5.044   0.980   2.592  0.5247  0.5388 -0.4377
   36poe     o2  422   5.125   1.059   2.677  0.1541 -0.0421  0.4763
   36poe    c23  423   5.052   1.067   2.797  0.1576 -0.0414  0.4781
   36poe    c23  424   5.111   1.194   2.861  0.3580  0.0398  0.1378
   36poe     o2  425   5.107   1.295   2.763 -0.0033 -0.0166  0.0912
   36poe    c23  426   5.161   1.419   2.802 -0.3450  0.1468  0.0405
   36poe    c23  427   5.167   1.507   2.676 -0.3424 -0.2828 -0.2597
   36poe     o2  428   5.241   1.430   2.584  0.4316  0.1429  0.0061
   36poe    c23  429   5.247   1.485   2.454 -0.5554  0.4000  0.0589
   36poe    c23  430   5.309   1.369   2.373 -0.3207  0.3986  0.2394
   36poe     o2  431   5.261   1.244   2.416  0.0279  0.0358 -0.4142
   36poe    c31  432   5.343   1.135   2.377 -0.3120 -0.2473 -0.3401
   37poe    c31  433   6.332   2.593   4.999 -0.0887 -0.3945  0.3811
   37poe     o2  434   6.252   2.580   5.114 -0.2456  0.0065  0.3176
   37poe    c23  435   6.322   2.620   5.230  0.1102  0.3387 -0.0088
   37poe    c23  436   6.260   2.570   5.362 -0.2949  0.2317 -0.2368
   37poe     o2  437   6.124   2.541   5.336 -0.3112  0.0145  0.0852
   37poe    c23  438   6.056   2.472   5.439 -0.2452 -0.7879 -0.3942
   37poe    c23  439   5.908   2.458   5.398 -0.4215 -0.0747 -0.0249
   37poe     o2  440   5.921   2.424   5.261  0.2181 -0.2979  0.0876
   37poe    c23  441   5.813   2.474   5.186  0.4235  0.2757  0.1652
   37poe    c23  442   5.854   2.480   5.038  0.0386 -0.2803  0.0307
   37poe     o2  443   5.993   2.494   5.022 -0.0079  0.0335 -0.1069
   37poe    c31  444   6.028   2.485   4.885 -0.3127 -0.0507 -0.1804
   38poe    c31  445   3.525   5.179   6.649 -1.0181  0.3375  0.2796
   38poe     o2  446   3.471   5.114   6.536 -0.4393 -0.3563  0.3939
   38poe    c23  447   3.576   5.052   6.465 -0.6834 -0.7534  0.3772
   38poe    c23  448   3.520   4.966   6.350 -0.0184 -0.0026 -0.5227
   38poe     o2  449   3.426   4.899   6.430  0.3608 -0.0476 -0.1080
   38poe    c23  450   3.347   4.820   6.343  0.1925 -0.3933  0.3543
   38poe    c23  451   3.217   4.801   6.424 -0.2832 -0.0221 -0.3093
   38poe     o2  452   3.179   4.933   6.455  0.6768  0.1748  0.0775
   38poe    c23  453   3.053   4.945   6.518  0.4749  0.2084 -0.3296
   38poe    c23  454   3.038   5.089   6.573 -0.4169 -0.1580  0.4119
   38poe     o2  455   3.169   5.125   6.611 -0.4447  0.6546 -0.2267
   38poe    c31  456   3.171   5.254   6.668 -0.0037  0.7894 -0.5436
   39poe    c31  457   1.936   4.250   0.006 -0.3631 -0.2949 -0.4217
   39poe     o2  458   1.966   4.271  -0.130  0.6261 -0.2229 -0.1936
   39poe    c23  459   2.049   4.385  -0.129  0.8107 -0.3566 -0.0923
   39poe    c23  460   2.083   4.426  -0.274 -0.9239  0.1347 -0.3832
   39poe     o2  461   2.121   4.310  -0.344 -0.5701 -0.1493  0.2716
   39poe    c23  462   2.082   4.320  -0.479  0.1434  0.1570  0.0830
   39poe    c23  463   2.022   4.185  -0.524 -0.1610  0.1675  0.4464
   39poe     o2  464   1.934   4.139  -0.424  0.2635 -0.6166  0.4607
   39poe    c23  465   1.858   4.026  -0.460  0.2625 -0.4306 -0.1359
   39poe    c23  466   1.770   3.996  -0.336 -0.1541 -0.1139 -0.3503
   39poe     o2  467   1.853   4.011  -0.223 -0.2700 -0.3974 -0.2270
   39poe    c31  468   1.790   3.937  -0.121  0.1344  0.2154  0.4761
   40poe    c31  469   2.848   4.000   0.084 -0.2114 -0.0241 -0.2124
   40poe     o2  470   2.897   3.879   0.031  0.0272 -0.1897  0.3797
   40poe    c23  471   2.974   3.799   0.118  0.2764 -0.6297 -0.2411
   40poe    c23  472   3.069   3.713   0.032  0.3700  0.1878 -0.9638
   40poe     o2  473   2.980   3.650  -0.058 -0.1392  0.1115 -0.4095
   40poe    c23  474   3.050   3.549  -0.127  0.3387 -0.1361  0.4185
   40poe    c23  475   2.963   3.451  -0.209  0.4329  0.1424 -0.0154
   40poe     o2  476   2.901   3.517  -0.317  0.0483 -0.3495 -0.0950
   40poe    c23  477   2.860   3.417  -0.408 -0.4418 -0.1999 -0.0390
   40poe    c23  478   2.823   3.466  -0.549  0.3802  0.3083 -0.0801
   40poe     o2  479   2.708   3.547  -0.540  0.1804 -0.0065  0.1830
   40poe    c31  480   2.672   3.603  -0.664 -0.4380 -0.3377  0.2076
   41poe    c31  481   1.676   3.684   0.215 -0.0096 -0.4667 -0.8588
   41poe     o2  482   1.753   3.604   0.302 -0.1190  0.4965  0.1382
   41poe    c23  483   1.708   3.472   0.284 -0.2112  0.5289  0.1274
   41poe    c23  484   1.792   3.377   0.371 -0.0752  0.4236 -0.1164
   41poe     o2  485   1.771   3.422   0.503 -0.1720 -0.0068  0.0196
   41poe    c23  486   1.848   3.352   0.598 -0.0276  0.2368  0.0830
   41poe    c23  487   1.843   3.437   0.727 -0.6114  0.1707  0.1088
   41poe     o2  488   1.855   3.570   0.681 -0.0473  0.1012  0.0455
   41poe    c23  489   1.816   3.669   0.773 -0.5889 -0.0102 -0.0583
   41poe    c23  490   1.816   3.807   0.705 -0.5433 -0.0999 -0.2407
   41poe     o2  491   1.761   3.773   0.580 -0.3357 -0.3139 -0.2760
   41poe    c31  492   1.678   3.881   0.541  0.6574  0.3370 -0.6096
   42poe    c31  493   1.111   2.489   2.157  0.0399 -0.4564  0.3428
   42poe     o2  494   1.005   2.577   2.127  0.1764 -0.6034 -0.6115
   42poe    c23  495   0.892   2.541   2.203  0.3605 -0.0627 -0.0708
   42poe    c23  496   0.783   2.649   2.185  0.2676 -0.1153  0.1624
   42poe     o2  497   0.761   2.669   2.047 -0.1536 -0.4643  0.1777
   42poe    c23  498   0.695   2.789   2.014  0.5079 -0.0988  0.1751
   42poe    c23  499   0.737   2.812   1.868 -0.4557  0.5021 -0.0133
   42poe     o2  500   0.874   2.781   1.863 -0.4453  0.5716 -0.1682
   42poe    c23  501   0.924   2.810   1.734 -0.2903  0.3453 -0.1601
   42poe    c23  502   1.076   2.793   1.752 -0.3149 -0.4043 -0.5865
   42poe     o2  503   1.099   2.681   1.834 -0.1474  0.0511 -0.0073
   42poe    c31  504   1.238   2.660   1.844 -0.1994 -0.1079  0.4260
   43poe    c31  505   1.357   1.709   6.566  0.0328  0.5569  0.4191
   43poe     o2  506   1.391   1.609   6.659  0.3323  0.2142 -0.0529
   43poe    c23  507   1.531   1.590   6.662  0.2798 -0.1551  0.1215
   43poe    c23  508   1.575   1.491   6.771 -0.1769 -0.1100  0.3524
   43poe     o2  509   1.512   1.373   6.726  0.1769 -0.1732  0.0164
   43poe    c23  510   1.525   1.284   6.836  0.2321  0.2008  0.3152
   43poe    c23  511   1.391   1.208   6.831  0.1677  0.3433 -0.2593
   43poe     o2  512   1.290   1.307   6.832  0.1497  0.3223  0.2214
   43poe    c23  513   1.166   1.253   6.789 -0.1250  0.3807  0.9131
   43poe    c23  514   1.064   1.368   6.792 -0.1823  0.3435  0.5307
   43poe     o2  515   1.120   1.480   6.728  0.5568 -0.3297 -0.0112
   43poe    c31  516   1.022   1.578   6.702  0.4786 -0.1574  0.8795
   44poe    c31  517   6.405   4.184   2.027  0.5144  0.0405 -0.3336
   44poe     o2  518   6.421   4.306   1.959 -0.4169  0.1497 -0.3727
   44poe    c23  519   6.489   4.305   1.835 -0.2514  0.3843 -0.2839
   44poe    c23  520   6.558   4.443   1.832  0.5235  0.0285  0.7829
   44poe     o2  521   6.471   4.539   1.886 -0.4892 -0.2500 -0.3053
   44poe    c23  522   6.540   4.662   1.886 -0.1623 -0.4304  0.2239
   44poe    c23  523   6.443   4.769   1.939 -0.2845 -0.5872  0.3125
   44poe     o2  524   6.365   4.727   2.049 -0.2626 -0.7243  0.2764
   44poe    c23  525   6.425   4.725   2.177  0.0837 -0.3046  0.1232
   44poe    c23  526   6.334   4.620   2.243 -1.0757  0.4086 -0.3185
   44poe     o2  527   6.336   4.490   2.190  0.4206  0.1095  0.4215
   44poe    c31  528   6.230   4.413   2.242 -0.1709  0.2310 -0.5580
   45poe    c31  529   4.903   1.156   1.438  0.3170  0.9879 -0.2757
   45poe     o2  530   4.849   1.118   1.313 -0.3457 -0.6658  0.4773
   45poe    c23  531   4.901   0.990   1.283  0.4476 -0.2509  0.0436
   45poe    c23  532   4.807   0.923   1.182 -0.0132 -0.1083  0.3732
   45poe     o2  533   4.803   1.001   1.064 -0.3308 -0.0826  0.3985
   45poe    c23  534   4.675   0.996   1.006 -0.5730  0.6836  0.8570
   45poe    c23  535   4.629   1.141   0.983 -0.3559  0.5571 -0.4657
   45poe     o2  536   4.668   1.219   1.094 -0.3299  0.2881 -0.2855
   45poe    c23  537   4.604   1.344   1.101 -0.6825  0.0781  0.3297
   45poe    c23  538   4.668   1.420   1.219  0.7836  0.0479 -0.4126
   45poe     o2  539   4.805   1.388   1.227  0.7118 -0.1887 -0.1102
   45poe    c31  540   4.875   1.493   1.290  0.1087 -0.0449  0.3348
   46poe    c31  541   3.566   6.461   1.156 -0.4818  0.8767  0.2579
   46poe     o2  542   3.486   6.360   1.099  0.6777 -0.0057  0.1726
   46poe    c23  543   3.562   6.242   1.080  0.0782 -0.3389 -0.1813
   46poe    c23  544   3.476   6.120   1.044 -0.6529 -0.0108  0.4318
   46poe     o2  545   3.410   6.165   0.928 -0.2181 -0.2588  0.0848
   46poe    c23  546   3.290   6.092   0.909 -0.6371  0.3962  0.1777
   46poe    c23  547   3.219   6.169   0.796 -0.7507  0.2292  0.1346
   46poe     o2  548   3.211   6.304   0.837  0.6937  0.2963  0.2646
   46poe    c23  549   3.214   6.399   0.733 -0.8498  0.6384  0.5113
   46poe    c23  550   3.353   6.435   0.678 -0.4699 -1.0500  0.3210
   46poe     o2  551   3.425   6.455   0.797 -0.1296 -0.3632  0.0020
   46poe    c31  552   3.558   6.488   0.763 -0.2907  0.0996 -0.1922
   47poe    c31  553   2.061   3.627   4.938 -0.3249  0.0308  0.0063
   47poe     o2  554   1.968   3.591   4.839 -0.4178  0.1944  0.0324
   47poe    c23  555   2.013   3.642   4.715 -0.1679  0.0864  0.0778
   47poe    c23  556   1.943   3.559   4.606  0.1152  0.3789 -0.3249
   47poe     o2  557   1.811   3.531   4.647 -0.0073  0.2871 -0.7772
   47poe    c23  558   1.759   3.435   4.558 -0.2291 -0.2841 -0.0410
   47poe    c23  559   1.612   3.427   4.604 -0.1324 -0.2709  0.2717
   47poe     o2  560   1.626   3.417   4.744 -0.0847  0.3684  0.3172
   47poe    c23  561   1.524   3.482   4.817 -0.3486  0.6410 -0.2775
   47poe    c23  562   1.547   3.631   4.845 -0.3110  0.4898  0.5327
   47poe     o2  563   1.676   3.654   4.897 -0.0628  0.1950  0.0493
   47poe    c31  564   1.677   3.784   4.951 -0.6344  0.1320  0.2189
   48poe    c31  565   5.877   6.348   4.227 -0.1172  0.4574  0.3322
   48poe     o2  566   5.789   6.376   4.334 -0.5462  0.2940  0.0265
   48poe    c23  567   5.826   6.305   4.450 -0.6497 -0.4999 -0.4247
   48poe    c23  568   5.741   6.373   4.559 -0.0215  0.1977 -0.3608
   48poe     o2  569   5.615   6.390   4.498 -0.2472 -0.6311 -0.1331
   48poe    c23  570   5.515   6.446   4.581  0.0634  0.0663 -0.2213
   48poe    c23  571   5.385   6.445   4.498  0.0313  0.1726 -0.1719
   48poe     o2  572   5.422   6.512   4.380 -0.0982  0.1950 -0.2003
   48poe    c23  573   5.328   6.509   4.275 -0.5868  0.4946  0.2214
   48poe    c23  574   5.406   6.545   4.148  0.1510 -0.2164  0.4620
   48poe     o2  575   5.540   6.508   4.172  0.1600 -0.2832  0.3108
   48poe    c31  576   5.604   6.500   4.046 -0.2698 -0.1751  0.0823
   49poe    c31  577   6.561   2.614   2.080  0.0757  0.4737 -0.2853
   49poe     o2  578   6.686   2.559   2.114 -0.4630 -0.4881  0.1975
   49poe    c23  579   6.707   2.457   2.018  0.0827 -0.4667  0.2927
   49poe    c23  580   6.857   2.421   2.024  0.1424 -0.2730 -0.0220
   49poe     o2  581   6.901   2.394   2.156  0.3547  0.1923  0.0062
   49poe    c23  582   7.040   2.392   2.175  0.2973 -0.4802  0.3880
   49poe    c23  583   7.072   2.417   2.324  0.1748  0.3725  0.2781
   49poe     o2  584   6.986   2.523   2.358 -0.0475  0.1534  0.4100
   49poe    c23  585   6.997   2.550   2.496 -0.1841 -0.9980  0.6500
   49poe    c23  586   6.894   2.663   2.511  0.1700 -0.6265  0.2958
   49poe     o2  587   6.781   2.630   2.433  0.2225  0.3751 -0.2313
   49poe    c31  588   6.663   2.703   2.456 -0.2285 -0.1597 -0.8362
   50poe    c31  589   4.481   4.702   3.987 -0.0747  0.7063  0.0371
   50poe     o2  590   4.479   4.632   3.865 -0.5126  0.0749  0.3968
   50poe    c23  591   4.348   4.626   3.813 -0.2161  0.4241 -0.4147
   50poe    c23  592   4.318   4.476   3.800  0.2618  0.2953 -0.0573
   50poe     o2  593   4.402   4.419   3.703 -0.0191  0.2371 -0.2688
   50poe    c23  594   4.429   4.281   3.716 -0.0253  0.2367 -0.2632
   50poe    c23  595   4.515   4.245   3.839  0.1627 -0.2321 -0.5310
   50poe     o2  596   4.617   4.343   3.835  0.8423 -0.9123 -0.1512
   50poe    c23  597   4.698   4.342   3.950 -0.3067 -0.1863  0.6913
   50poe    c23  598   4.810   4.445   3.925 -0.1869 -0.5821 -0.4504
   50poe     o2  599   4.743   4.555   3.866 -0.0428 -0.5515 -0.5568
   50poe    c31  600   4.839   4.655   3.840 -0.4802 -0.0439 -0.2323
   51poe    c31  601   0.200   2.263   4.550 -0.3086 -0.1056  0.4011
   51poe     o2  602   0.195   2.263   4.409 -0.1928 -0.1732  0.3971
   51poe    c23  603   0.150   2.134   4.374 -0.6934  0.0965  0.0358
   51poe    c23  604   0.047   2.153   4.261 -0.1275 -0.2305 -0.5387
   51poe     o2  605   0.097   2.258   4.180  0.2125 -0.0762 -0.1317
   51poe    c23  606  -0.000   2.296   4.086 -0.1979  0.0860  0.3592
   51poe    c23  607   0.063   2.423   4.025  0.1115 -0.1072  0.2794
   51poe     o2  608   0.129   2.491   4.129 -0.1301  0.4547  0.0662
   51poe    c23  609   0.185   2.617   4.099  0.4087  0.1631 -0.1639
   51poe    c23  610   0.208   2.669   4.242  0.2411 -0.2319  0.0091
   51poe     o2  611   0.262   2.554   4.304  0.1520 -0.0340  0.4631
   51poe    c31  612   0.318   2.591   4.428  0.4215 -0.4933  0.4800
   52poe    c31  613   2.708   2.403   2.133 -0.8500 -0.2441 -0.8212
   52poe     o2  614   2.739   2.267   2.152 -0.2478  0.0073  0.1133
   52poe    c23  615   2.841   2.219   2.067 -0.2144 -0.3699  0.3637
   52poe    c23  616   2.837   2.066   2.053  0.1068 -0.3640  0.1969
   52poe     o2  617   2.820   2.005   2.179  0.0560 -0.6430  0.0580
   52poe    c23  618   2.739   1.891   2.166 -0.1094 -0.5458  0.2255
   52poe    c23  619   2.628   1.892   2.273  0.2496 -0.0323  0.5981
   52poe     o2  620   2.564   2.017   2.278  0.0900 -0.0888  0.0654
   52poe    c23  621   2.448   2.021   2.359 -0.0634  0.1248 -0.1619
   52poe    c23  622   2.391   2.160   2.324  0.4638  0.2837 -0.4093
   52poe     o2  623   2.483   2.265   2.305  0.8559  0.0515  0.1639
   52poe    c31  624   2.407   2.383   2.318 -0.2797 -0.7016  0.5456
   53poe    c31  625   3.106   3.909   4.844 -0.4141 -0.3171 -0.0914
   53poe     o2  626   3.103   3.794   4.926 -0.1636 -0.1473  0.1615
   53poe    c23  627   3.191   3.809   5.034 -0.1849 -0.6086  0.2472
   53poe    c23  628   3.258   3.674   5.062 -0.0542 -0.6203 -0.1142
   53poe     o2  629   3.164   3.569   5.068 -0.4425 -0.2786 -0.2482
   53poe    c23  630   3.219   3.442   5.094 -0.0948 -0.0576  0.1063
   53poe    c23  631   3.114   3.333   5.065  0.0073 -0.0832 -0.1697
   53poe     o2  632   3.075   3.369   4.934 -0.1970  0.5223  0.0523
   53poe    c23  633   2.941   3.344   4.898 -0.2376  0.1120  0.4839
   53poe    c23  634   2.914   3.427   4.772 -0.2829 -0.0446  0.3890
   53poe     o2  635   2.951   3.560   4.802  0.3665 -0.0883 -0.1851
   53poe    c31  636   2.927   3.651   4.697  0.2374 -0.2246 -0.2745
   54poe    c31  637   0.844   0.208   2.383 -0.1424  0.0310 -0.0603
   54poe     o2  638   0.916   0.329   2.372  0.0022 -0.0192  0.3436
   54poe    c23  639   1.030   0.337   2.455  0.2837 -0.1661 -0.0277
   54poe    c23  640   1.059   0.487   2.475  0.2367 -0.1049 -0.3995
   54poe     o2  641   1.059   0.543   2.346  0.0687 -0.0879 -0.3921
   54poe    c23  642   1.045   0.681   2.369 -0.7391 -0.3436  0.6937
   54poe    c23  643   1.053   0.722   2.221  0.7596 -0.4945  0.7215
   54poe     o2  644   0.958   0.646   2.151  0.7313 -0.0433  0.2594
   54poe    c23  645   0.989   0.614   2.017  0.4718 -0.2965  0.2578
   54poe    c23  646   1.077   0.487   2.019 -0.0609 -0.6743 -0.1400
   54poe     o2  647   1.033   0.406   2.125 -0.2879 -0.0542  0.2484
   54poe    c31  648   1.066   0.271   2.100 -0.5167  0.0423 -0.6070
   55poe    c31  649   2.580   6.270   4.721 -0.2492  0.4755  0.0053
   55poe     o2  650   2.668   6.290   4.612 -0.4674 -0.1984 -0.3008
   55poe    c23  651   2.726   6.168   4.573  0.5734  0.0271  0.4875
   55poe    c23  652   2.838   6.189   4.469 -0.4223  0.1053 -0.5946
   55poe     o2  653   2.802   6.297   4.387  0.1563  0.7635  0.0079
   55poe    c23  654   2.919   6.355   4.334  0.3777  0.2120 -0.1113
   55poe    c23  655   2.881   6.490   4.271  0.6282  0.4148  0.1731
   55poe     o2  656   2.812   6.548   4.380 -0.1594 -0.4289  0.1291
   55poe    c23  657   2.710   6.635   4.337  0.0066 -0.3436 -0.0967
   55poe    c23  658   2.656   6.688   4.471  0.4315 -0.3797  0.0916
   55poe     o2  659   2.599   6.577   4.537  0.1761 -0.1767  0.2151
   55poe    c31  660   2.502   6.629   4.626 -0.2622 -0.2865 -0.1956
   56poe    c31  661   1.032   6.245   2.200 -0.2572 -0.0690  0.6498
   56poe     o2  662   1.089   6.327   2.100  0.5696 -0.5525  0.7198
   56poe    c23  663   1.092   6.458   2.151 -0.6463  0.0180 -0.6160
   56poe    c23  664   1.136   6.557   2.041 -0.0234  0.6802  0.2182
   56poe     o2  665   1.044   6.520   1.942  0.1555  0.3070  0.1875
   56poe    c23  666   1.086   6.549   1.810 -0.2264  0.0882  0.0143
   56poe    c23  667   1.011   6.458   1.712 -0.0385 -0.3489  0.2736
   56poe     o2  668   1.019   6.333   1.776 -0.2807 -0.0223  0.9495
   56poe    c23  669   0.971   6.231   1.692  0.9636  0.3427 -0.2445
   56poe    c23  670   0.965   6.113   1.791  0.1990  0.5376 -0.0467
   56poe     o2  671   0.912   6.164   1.911  0.3685  0.0929  0.2156
   56poe    c31  672   0.826   6.072   1.975  0.3967 -0.0928 -0.0115
   57poe    c31  673   1.336   2.798   6.304 -0.0021  0.0673 -0.5634
   57poe     o2  674   1.352   2.912   6.385  0.3655 -0.1376 -0.3474
   57poe    c23  675   1.464   2.989   6.348  0.5569 -0.2691 -0.0577
   57poe    c23  676   1.419   3.137   6.345 -0.9561 -0.7127 -0.3783
   57poe     o2  677   1.327   3.169   6.446 -0.2152  0.0526  0.0639
   57poe    c23  678   1.245   3.279   6.410 -0.1138 -0.0058 -0.3439
   57poe    c23  679   1.132   3.285   6.514  0.3350 -0.4777  0.1798
   57poe     o2  680   1.091   3.151   6.507 -0.0270 -0.3377 -0.4926
   57poe    c23  681   1.010   3.120   6.618 -0.4289  0.5071 -0.5515
   57poe    c23  682   0.995   2.967   6.613  0.0663  0.4407 -0.0437
   57poe     o2  683   1.119   2.901   6.602  0.0114  0.2895  0.2256
   57poe    c31  684   1.086   2.775   6.655 -0.0077  0.2935  0.2230
   58poe    c31  685   0.114   2.213   6.486  0.0571 -0.1995 -0.6651
   58poe     o2  686   0.144   2.350   6.496 -0.0507 -0.2268  0.1310
   58poe    c23  687   0.050   2.423   6.420 -0.3201 -0.1250  0.5598
   58poe    c23  688  -0.002   2.541   6.503 -0.2778  0.0903  0.2826
   58poe     o2  689   0.116   2.589   6.563 -0.1068  0.0369 -0.0114
   58poe    c23  690   0.103   2.716   6.623  0.0902  0.1530 -0.2137
   58poe    c23  691   0.249   2.741   6.665 -0.1717 -0.2864  0.9921
   58poe     o2  692   0.298   2.614   6.703 -0.0292 -0.7127 -0.5288
   58poe    c23  693   0.439   2.618   6.700 -0.0445  0.3284 -0.4117
   58poe    c23  694   0.482   2.472   6.725  0.4673  0.3227 -1.2782
   58poe     o2  695   0.418   2.397   6.624 -0.0174  0.0440 -0.7721
   58poe    c31  696   0.449   2.262   6.645  0.0369  0.1859  0.0916
   59poe    c31  697   0.594   5.517   6.154 -0.0058 -0.2689 -0.4283
   59poe     o2  698   0.490   5.590   6.216  0.0490 -0.3138 -0.2830
   59poe    c23  699   0.377   5.512   6.247 -0.0247 -0.1347 -0.0974
   59poe    c23  700   0.285   5.595   6.338 -0.0495  0.2573 -0.4767
   59poe     o2  701   0.299   5.720   6.274  0.1437  0.2004 -0.5447
   59poe    c23  702   0.220   5.825   6.324 -0.0480  0.0165 -0.4586
   59poe    c23  703   0.307   5.919   6.409  0.2953 -0.8977  0.2151
   59poe     o2  704   0.430   5.932   6.340  0.0638 -0.1532 -0.0700
   59poe    c23  705   0.538   5.983   6.415 -0.2194  0.3437  0.0075
   59poe    c23  706   0.651   5.974   6.311  0.0429  0.0689  0.3137
   59poe     o2  707   0.645   5.840   6.266 -0.1493  0.0892  0.2786
   59poe    c31  708   0.773   5.812   6.213 -0.2875 -0.5337  0.2654
   60poe    c31  709   1.736   4.475   3.796 -0.0770 -0.2263  0.9805
   60poe     o2  710   1.814   4.358   3.813 -0.0673 -0.5295 -0.9218
   60poe    c23  711   1.729   4.254   3.856 -0.8243  0.1566 -0.7204
   60poe    c23  712   1.821   4.131   3.864  0.4176  1.1264  0.5062
   60poe     o2  713   1.911   4.133   3.756  0.6387 -0.3621  0.6334
   60poe    c23  714   1.987   4.016   3.735  0.6129 -0.3705  0.5869
   60poe    c23  715   2.101   4.059   3.641  0.5582 -1.0250  0.2177
   60poe     o2  716   2.176   4.166   3.695 -0.1655 -0.2805 -0.2317
   60poe    c23  717   2.282   4.215   3.616 -0.3212  0.2733 -0.0984
   60poe    c23  718   2.367   4.322   3.687  0.1890 -0.1280 -0.0966
   60poe     o2  719   2.439   4.249   3.783  0.1804 -0.3001 -0.2209
   60poe    c31  720   2.561   4.310   3.818 -0.1901  0.4467 -0.2160
   61poe    c31  721   0.830   5.274   3.765 -0.1816  0.5234  0.1182
   61poe     o2  722   0.907   5.251   3.881 -0.3112 -0.0548  0.0897
   61poe    c23  723   0.984   5.134   3.858  0.1102  0.2944 -0.2962
   61poe    c23  724   1.090   5.116   3.968 -0.2193  0.8351  0.1167
   61poe     o2  725   1.119   5.251   4.001  0.0842  0.8196 -0.0801
   61poe    c23  726   1.197   5.268   4.117  0.3154  0.3374 -0.1615
   61poe    c23  727   1.184   5.417   4.154  0.1861  0.4032 -0.4663
   61poe     o2  728   1.048   5.448   4.135 -0.0904 -0.4604  0.0617
   61poe    c23  729   0.998   5.574   4.173 -0.1446 -0.3737 -0.2888
   61poe    c23  730   0.845   5.562   4.174 -0.2076  0.4044  0.2174
   61poe     o2  731   0.819   5.473   4.068 -0.7069  0.5424  0.2204
   61poe    c31  732   0.695   5.408   4.086 -0.3432 -0.1428  0.2994
   62poe    c31  733   2.892   1.157   3.963  0.6705  0.1241 -0.5586
   62poe     o2  734   2.794   1.062   3.929  0.4104  0.2061 -0.0522
   62poe    c23  735   2.682   1.091   4.009  0.1267  0.3804 -0.5054
   62poe    c23  736   2.547   1.063   3.941 -0.0105  0.2219 -0.1733
   62poe     o2  737   2.576   0.949   3.863  0.2123  0.0468  0.1687
   62poe    c23  738   2.470   0.887   3.793  0.2793 -0.2121  0.2945
   62poe    c23  739   2.545   0.775   3.719 -0.0851 -0.2635  0.0059
   62poe     o2  740   2.676   0.819   3.689  0.1419 -0.6218  0.4783
   62poe    c23  741   2.766   0.723   3.639 -0.4021 -0.6211 -0.5201
   62poe    c23  742   2.897   0.803   3.635 -0.8196  0.1035  0.1059
   62poe     o2  743   2.915   0.879   3.753  0.1754 -0.4400  0.3138
   62poe    c31  744   3.055   0.887   3.768  0.1653 -0.0898  0.2138
   63poe    c31  745   5.784   1.008   2.053 -0.2547 -0.1521  0.3986
   63poe     o2  746   5.904   1.078   2.030 -0.5006 -0.1314 -0.8834
   63poe    c23  747   5.955   1.040   1.904  0.6177 -1.0319 -0.1792
   63poe    c23  748   6.098   1.096   1.907  0.2991 -0.2256  0.1047
   63poe     o2  749   6.096   1.227   1.961  0.1982 -0.0540 -0.3149
   63poe    c23  750   6.220   1.291   1.978 -0.1616  0.5869 -0.0524
   63poe    c23  751   6.191   1.436   2.018  0.0607  0.4526  0.6154
   63poe     o2  752   6.074   1.438   2.097 -0.1526  0.4783  0.3022
   63poe    c23  753   6.097   1.408   2.233  0.3926  0.0719  0.1263
   63poe    c23  754   5.955   1.388   2.288  0.4698 -0.1439  0.2492
   63poe     o2  755   5.921   1.258   2.246 -0.2353  0.0786  0.1012
   63poe    c31  756   5.849   1.200   2.353  0.3070  0.2333  0.5559
   64poe    c31  757   2.240   2.427   0.879 -0.4227 -0.3926 -0.3798
   64poe     o2  758   2.307   2.463   0.761 -0.2368 -0.1926 -0.2138
   64poe    c23  759   2.371   2.356   0.695  0.0814  0.0348 -0.2790
   64poe    c23  760   2.518   2.384   0.732  0.0962  0.1316 -0.4101
   64poe     o2  761   2.536   2.520   0.701  0.0065  0.3604  0.5055
   64poe    c23  762   2.656   2.565   0.759  0.2699  0.2172  0.0745
   64poe    c23  763   2.627   2.716   0.760 -0.2723  0.1191 -0.2717
   64poe     o2  764   2.498   2.747   0.807 -0.3113 -0.0358 -0.2767
   64poe    c23  765   2.451   2.879   0.789 -0.0653  0.0572 -0.2489
   64poe    c23  766   2.301   2.870   0.826  0.0543  0.0910  0.2501
   64poe     o2  767   2.246   2.745   0.791 -0.3205  0.2508  0.2748
   64poe    c31  768   2.105   2.755   0.788 -0.3912 -0.7102  0.0759
   65poe    c31  769   1.977   4.961   4.047  0.3976  0.3509  0.4202
   65poe     o2  770   1.928   4.917   4.172 -0.0444 -0.9725 -0.2056
   65poe    c23  771   1.788   4.902   4.160 -0.1545  0.0529 -0.2589
   65poe    c23  772   1.732   4.800   4.260  0.4991 -0.0736 -0.0158
   65poe     o2  773   1.770   4.818   4.394  0.5321 -0.3892  0.0181
   65poe    c23  774   1.737   4.721   4.491  0.2924 -0.2218  0.1043
   65poe    c23  775   1.821   4.767   4.611  0.0118  0.2611  0.1189
   65poe     o2  776   1.946   4.774   4.546  0.0399  0.5903  0.2061
   65poe    c23  777   2.064   4.788   4.621  0.0718  0.2481  0.2199
   65poe    c23  778   2.182   4.834   4.533 -0.0548  0.0082 -0.0760
   65poe     o2  779   2.110   4.925   4.452 -0.5267 -0.3660 -0.0842
   65poe    c31  780   2.217   5.005   4.407 -0.8574  0.0007 -0.2218
   66poe    c31  781   1.600   6.579   4.389  0.3176  0.1418  0.0696
   66poe     o2  782   1.547   6.504   4.496 -0.3228 -0.1273 -0.4318
   66poe    c23  783   1.624   6.499   4.614 -0.3394 -0.3514 -0.4284
   66poe    c23  784   1.590   6.375   4.697  0.6117 -0.3586 -0.0365
   66poe     o2  785   1.450   6.369   4.681  0.5903  0.0138  0.0182
   66poe    c23  786   1.390   6.275   4.767  0.4292  0.0031 -0.1044
   66poe    c23  787   1.257   6.244   4.696  0.2298 -0.1631  0.3369
   66poe     o2  788   1.274   6.229   4.557 -0.0333  0.7771  0.1929
   66poe    c23  789   1.164   6.240   4.469 -0.1377 -0.1176  0.2046
   66poe    c23  790   1.218   6.286   4.333  0.3525  0.0613  0.4565
   66poe     o2  791   1.317   6.386   4.336  0.1309  0.2936  0.0833
   66poe    c31  792   1.326   6.447   4.209 -0.2251 -0.7139 -0.4309
   67poe    c31  793   0.486   1.873   5.210  0.0479  0.1698 -0.5621
   67poe     o2  794   0.561   1.767   5.266  0.3589  0.5810 -0.1883
   67poe    c23  795   0.671   1.735   5.184  0.4137  0.1907  0.0339
   67poe    c23  796   0.775   1.655   5.264  0.1688  0.0217  0.1849
   67poe     o2  797   0.693   1.570   5.342  0.2375  0.4164  0.6922
   67poe    c23  798   0.768   1.497   5.437  0.2451  0.3168  0.6095
   67poe    c23  799   0.657   1.412   5.503 -0.1817  0.2496 -0.1727
   67poe     o2  800   0.549   1.502   5.515 -0.3892  0.0093 -0.2348
   67poe    c23  801   0.431   1.450   5.572 -0.2558 -0.2685 -0.2114
   67poe    c23  802   0.326   1.563   5.569 -0.1338 -0.1500 -0.0642
   67poe     o2  803   0.339   1.612   5.437  0.3917  0.2080  0.1160
   67poe    c31  804   0.212   1.658   5.399  0.3283  0.2968  0.4308
   68poe    c31  805   2.361   2.289   5.285 -0.3078 -0.3342  0.3132
   68poe     o2  806   2.408   2.268   5.154 -0.1491 -0.1591  0.3413
   68poe    c23  807   2.535   2.326   5.136  0.0663 -0.6018  0.4358
   68poe    c23  808   2.590   2.271   5.003 -0.2898 -0.2577  0.1423
   68poe     o2  809   2.478   2.273   4.918  0.0054 -0.2387 -0.2513
   68poe    c23  810   2.472   2.375   4.820  0.1284 -0.1979 -0.2163
   68poe    c23  811   2.375   2.351   4.703  0.0280 -0.5720 -0.0575
   68poe     o2  812   2.363   2.229   4.634  0.5647 -0.5229 -0.2423
   68poe    c23  813   2.253   2.234   4.546  0.1036 -0.0038  0.3597
   68poe    c23  814   2.209   2.096   4.494  0.2762 -0.0760  0.4052
   68poe     o2  815   2.309   2.038   4.412 -0.1046  0.0211 -0.1310
   68poe    c31  816   2.304   1.898   4.424 -0.1767 -0.0118 -0.5462
   69poe    c31  817   0.581   1.005   2.751 -0.3407  0.3049 -0.1075
   69poe     o2  818   0.471   0.919   2.767  0.1669 -0.1958  0.7579
   69poe    c23  819   0.514   0.805   2.838 -0.4119 -0.6216  0.4303
   69poe    c23  820   0.407   0.694   2.828 -0.4667 -0.5441  0.1297
   69poe     o2  821   0.346   0.721   2.704 -0.0776  0.0027  0.0506
   69poe    c23  822   0.240   0.630   2.682  0.3505 -0.5128  0.0964
   69poe    c23  823   0.131   0.719   2.619  0.6735 -0.2013 -0.0266
   69poe     o2  824   0.204   0.794   2.524  0.2793  0.0344 -0.1445
   69poe    c23  825   0.123   0.885   2.453 -0.2406 -0.1275  0.2339
   69poe    c23  826   0.226   0.981   2.391  0.1242 -0.3784  0.4450
   69poe     o2  827   0.311   1.020   2.496  0.3265  0.3251  0.0210
   69poe    c31  828   0.384   1.141   2.485  0.0177  0.4706 -0.4738
   70poe    c31  829   0.834   4.501   2.496  0.2804  0.1138  0.3896
   70poe     o2  830   0.719   4.582   2.490  0.2688  0.0666 -0.0608
   70poe    c23  831   0.619   4.494   2.440 -0.0384  0.4485 -0.1234
   70poe    c23  832   0.481   4.557   2.465 -0.2238 -0.1899  0.4651
   70poe     o2  833   0.500   4.652   2.567 -0.1997 -0.3738  0.6344
   70poe    c23  834   0.382   4.725   2.592 -0.1715  0.0104 -0.3121
   70poe    c23  835   0.414   4.812   2.715  0.0776 -0.3931 -0.0892
   70poe     o2  836   0.550   4.844   2.697 -0.0080  0.0454  0.0123
   70poe    c23  837   0.615   4.906   2.805  0.1014 -0.6500  0.3507
   70poe    c23  838   0.756   4.938   2.753 -0.0453  0.5027  0.6263
   70poe     o2  839   0.811   4.825   2.688  0.2434  0.7866  0.3707
   70poe    c31  840   0.942   4.848   2.642  0.2845 -0.3507 -0.1209
   71poe    c31  841   1.451   4.162   6.109 -0.4271  0.3813  0.6840
   71poe     o2  842   1.313   4.143   6.087 -0.2200 -0.4973  0.1132
   71poe    c23  843   1.235   4.148   6.204 -0.1733  0.6991  0.0994
   71poe    c23  844   1.163   4.013   6.223  0.1630  0.4613 -0.3059
   71poe     o2  845   1.080   3.998   6.111  0.0683  0.5477 -0.2480
   71poe    c23  846   1.033   3.871   6.071 -0.3550  0.8021 -0.5766
   71poe    c23  847   1.131   3.792   5.981 -0.3876  0.2418 -0.1316
   71poe     o2  848   1.205   3.891   5.913  0.1630  0.1172  0.2833
   71poe    c23  849   1.311   3.837   5.837 -0.2927 -0.1724 -0.1538
   71poe    c23  850   1.363   3.944   5.739  0.0823 -0.0416  0.1860
   71poe     o2  851   1.355   4.066   5.810 -0.5572 -0.1044  0.2298
   71poe    c31  852   1.407   4.169   5.729 -0.1618 -0.6101 -0.1686
   72poe    c31  853   0.454   3.310   6.228 -0.1046 -0.6472  0.0930
   72poe     o2  854   0.517   3.436   6.227  0.0146 -0.7071 -0.1345
   72poe    c23  855   0.440   3.510   6.136 -0.0515 -0.5891  0.0162
   72poe    c23  856   0.474   3.660   6.128 -0.4177 -0.5057 -0.0006
   72poe     o2  857   0.615   3.666   6.141 -0.4530  0.0822  0.1264
   72poe    c23  858   0.678   3.791   6.157 -0.0860 -0.0734 -0.0900
   72poe    c23  859   0.693   3.803   6.309  0.1004 -0.1954 -0.0989
   72poe     o2  860   0.750   3.685   6.360 -0.2572 -0.2812  0.1070
   72poe    c23  861   0.728   3.676   6.499 -0.3224 -0.6224  0.0757
   72poe    c23  862   0.759   3.532   6.543  0.2870 -0.4658  0.1758
   72poe     o2  863   0.673   3.446   6.471  0.2019  0.2435 -0.5898
   72poe    c31  864   0.727   3.317   6.488 -0.2520  0.1891  0.5375
   73poe    c31  865   4.089   3.497   3.745  0.0298  0.1177 -0.1006
   73poe     o2  866   4.080   3.537   3.880  0.3623 -0.6022  0.1428
   73poe    c23  867   3.941   3.554   3.899  0.3137 -0.2916 -0.4563
   73poe    c23  868   3.917   3.623   4.035 -0.5078 -0.4746 -0.5052
   73poe     o2  869   4.002   3.560   4.127 -0.3054 -0.0570 -0.4030
   73poe    c23  870   3.980   3.601   4.260  0.5993  0.0419 -0.2767
   73poe    c23  871   4.091   3.526   4.336  0.0854 -0.1117  0.3294
   73poe     o2  872   4.208   3.521   4.258 -0.2838 -0.5540 -0.2123
   73poe    c23  873   4.293   3.418   4.304  0.0006 -0.0683  0.3859
   73poe    c23  874   4.382   3.416   4.178 -0.1944  0.0281  0.2457
   73poe     o2  875   4.299   3.409   4.064  0.0649 -0.5219  0.0881
   73poe    c31  876   4.372   3.364   3.953  0.5774  0.0369  0.1917
   74poe    c31  877   2.337   3.624   1.223 -0.8391 -0.2856  0.1070
   74poe     o2  878   2.461   3.571   1.266 -0.4765  0.3481 -0.1400
   74poe    c23  879   2.469   3.432   1.244 -0.1247  0.3587 -0.0748
   74poe    c23  880   2.608   3.398   1.300 -0.4652 -0.0004  0.5588
   74poe     o2  881   2.650   3.482   1.406 -0.3386  0.1038  0.4261
   74poe    c23  882   2.772   3.451   1.470 -0.2091 -0.5160 -0.1068
   74poe    c23  883   2.793   3.570   1.565  0.7416 -0.4559 -0.3873
   74poe     o2  884   2.743   3.675   1.486  0.3089  0.1728  0.6951
   74poe    c23  885   2.706   3.784   1.567 -0.0026 -0.0483  0.8538
   74poe    c23  886   2.644   3.892   1.477  0.1378 -0.7831 -0.1387
   74poe     o2  887   2.559   3.823   1.388 -0.2836 -0.1967 -0.2011
   74poe    c31  888   2.483   3.919   1.320  0.3464  0.1940 -0.3606
   75poe    c31  889   4.873   3.416   2.833 -0.0625  0.1195 -0.5271
   75poe     o2  890   4.781   3.504   2.893  0.0990 -0.0054 -0.0979
   75poe    c23  891   4.782   3.473   3.031  0.2688  0.6461  0.0536
   75poe    c23  892   4.712   3.587   3.107 -0.2120  0.3542  0.0544
   75poe     o2  893   4.694   3.688   3.010 -0.0328 -0.1118 -0.4650
   75poe    c23  894   4.633   3.808   3.051  0.3328 -0.0093 -0.2148
   75poe    c23  895   4.695   3.916   2.960  0.2725 -0.1186 -0.3863
   75poe     o2  896   4.708   3.865   2.829  0.0223 -0.4183 -0.2964
   75poe    c23  897   4.783   3.949   2.744  0.1894  0.2437  0.4883
   75poe    c23  898   4.818   3.846   2.635 -0.0707  0.3136  0.3368
   75poe     o2  899   4.805   3.711   2.676  0.4400  0.1205 -0.1306
   75poe    c31  900   4.787   3.632   2.561  0.0523 -0.3946  0.2830
   76poe    c31  901   3.972   1.199   5.536  0.0206  0.0945  0.1900
   76poe     o2  902   4.022   1.067   5.542  0.2953  0.1803 -0.1197
   76poe    c23  903   4.079   1.048   5.415  0.0110 -0.1910 -0.1910
   76poe    c23  904   4.119   0.900   5.406  0.3357 -0.0997 -0.2375
   76poe     o2  905   4.026   0.829   5.484 -0.1626  0.5277 -0.2548
   76poe    c23  906   4.057   0.691   5.482  0.0919  0.5830 -0.1967
   76poe    c23  907   4.000   0.633   5.612  0.2664  0.6085 -0.1087
   76poe     o2  908   4.009   0.717   5.724 -0.2312  0.3501  0.1314
   76poe    c23  909   4.133   0.710   5.792 -0.2126  0.2688  0.0885
   76poe    c23  910   4.132   0.842   5.871 -0.3381  0.1615  0.2670
   76poe     o2  911   4.095   0.950   5.788  0.3822 -0.0796 -0.3837
   76poe    c31  912   4.108   1.073   5.855  0.2591  0.1242 -0.7329
   77poe    c31  913   5.073   4.834   1.227 -0.1706 -0.0059 -0.6522
   77poe     o2  914   5.088   4.722   1.143 -0.1816 -0.4043 -0.1244
   77poe    c23  915   5.212   4.715   1.076  0.0669  0.2393  0.2605
   77poe    c23  916   5.175   4.655   0.939  0.1713 -0.1049  0.3814
   77poe     o2  917   5.104   4.546   0.992  0.4989 -0.6160 -0.2139
   77poe    c23  918   5.012   4.488   0.903 -0.0491 -0.2664  0.1142
   77poe    c23  919   4.913   4.397   0.979 -0.2616 -0.2405 -0.1280
   77poe     o2  920   4.890   4.479   1.092 -0.1026 -0.3068 -0.0479
   77poe    c23  921   4.820   4.413   1.195 -0.3233 -0.0053 -0.0054
   77poe    c23  922   4.831   4.511   1.313  0.2317  0.0971 -0.1417
   77poe     o2  923   4.969   4.536   1.326  0.2367  0.0133 -0.0329
   77poe    c31  924   4.993   4.576   1.459  0.4948 -0.1547 -0.0266
   78poe    c31  925   5.014   0.080   2.074  0.8077  0.3806  0.2366
   78poe     o2  926   5.014  -0.028   1.984  0.6028  0.4245  0.1827
   78poe    c23  927   5.122  -0.112   2.020  0.3603 -0.0048 -0.0766
   78poe    c23  928   5.135  -0.235   1.929 -0.3257  0.2349 -0.5079
   78poe     o2  929   5.004  -0.279   1.901 -0.2212 -0.1764 -0.3588
   78poe    c23  930   4.982  -0.326   1.769 -0.5449 -0.3176 -0.2576
   78poe    c23  931   4.950  -0.212   1.671  0.1098  0.4717  0.4174
   78poe     o2  932   4.858  -0.127   1.736  0.0006  0.6179  0.0735
   78poe    c23  933   4.791  -0.037   1.651 -0.0783  0.4761 -0.0156
   78poe    c23  934   4.679   0.024   1.738 -0.0228  1.0169 -0.3179
   78poe     o2  935   4.748   0.040   1.860  0.0606 -0.3684 -0.1708
   78poe    c31  936   4.677   0.137   1.934 -0.0348 -0.2057 -0.4742
   79poe    c31  937   5.271   5.743   0.380  0.5437  0.0853 -0.1460
   79poe     o2  938   5.239   5.863   0.447 -0.1441 -0.1173 -0.1023
   79poe    c23  939   5.109   5.855   0.499 -0.0581  0.0804  0.1434
   79poe    c23  940   5.060   5.997   0.534 -0.0989  0.0373  0.2663
   79poe     o2  941   5.108   6.084   0.433 -0.7032  0.2642  0.1737
   79poe    c23  942   5.041   6.208   0.433 -0.2587  0.5053  0.2798
   79poe    c23  943   5.079   6.271   0.298  0.1676 -0.2188  0.0540
   79poe     o2  944   5.219   6.275   0.284  0.1360 -0.0883 -0.2162
   79poe    c23  945   5.263   6.270   0.150  0.0504 -0.7845 -0.2249
   79poe    c23  946   5.385   6.177   0.164 -0.0259 -0.8915 -0.2753
   79poe     o2  947   5.365   6.055   0.233 -0.1314 -0.3640  0.6352
   79poe    c31  948   5.486   5.983   0.233 -0.2644 -0.5933 -0.1886
   80poe    c31  949   6.527   6.609   0.817  0.4191  0.6083  0.6341
   80poe     o2  950   6.457   6.629   0.696  0.3730  0.0941  0.5767
   80poe    c23  951   6.505   6.741   0.625 -0.8710  0.7044  0.6780
   80poe    c23  952   6.411   6.753   0.504  0.1696 -0.5058 -0.2759
   80poe     o2  953   6.277   6.732   0.541  0.2974 -0.3294  0.2904
   80poe    c23  954   6.210   6.645   0.452  0.0082  0.5132 -0.3208
   80poe    c23  955   6.075   6.610   0.518  0.2956  0.1858  0.1011
   80poe     o2  956   6.098   6.595   0.656  0.2710  0.4362  0.1333
   80poe    c23  957   6.025   6.489   0.713  0.4902  0.2593  0.0905
   80poe    c23  958   6.041   6.501   0.866 -0.2135  0.7397  0.1341
   80poe     o2  959   6.171   6.546   0.900 -0.0534  0.2808  0.1269
   80poe    c31  960   6.197   6.531   1.038 -0.0274 -0.1469  0.0766
   81poe    c31  961   1.298   0.847   5.042 -0.1134 -1.1209  0.0024
   81poe     o2  962   1.169   0.875   4.993 -0.0703 -0.1526  0.4216
   81poe    c23  963   1.177   0.890   4.853 -0.5200  0.5047  0.4607
   81poe    c23  964   1.040   0.911   4.788 -0.0242  0.1266 -0.7388
   81poe     o2  965   0.974   0.989   4.885  0.1611  0.2338 -0.6987
   81poe    c23  966   0.847   1.027   4.837  0.0656  0.2292 -0.4527
   81poe    c23  967   0.782   1.077   4.967 -0.0300  0.1574 -0.4733
   81poe     o2  968   0.789   0.986   5.075  0.0303  1.0163  0.2523
   81poe    c23  969   0.686   0.999   5.171 -0.1415  0.5001  0.1403
   81poe    c23  970   0.676   0.867   5.249  0.5501  0.2190 -0.2375
   81poe     o2  971   0.628   0.778   5.152  0.4222  0.2990 -0.2476
   81poe    c31  972   0.630   0.647   5.204  0.2742  0.4774  0.2069
   82poe    c31  973   4.349   2.950   4.173 -0.2973 -0.0145  0.5057
   82poe     o2  974   4.301   2.867   4.069  0.4327  0.1543  0.0263
   82poe    c23  975   4.206   2.782   4.129  0.5325  0.3107  0.4143
   82poe    c23  976   4.113   2.710   4.030  0.2870 -0.0000  0.8708
   82poe     o2  977   4.178   2.633   3.931 -0.1287  0.3325  0.3314
   82poe    c23  978   4.125   2.638   3.801 -0.1485 -0.3112  0.3130
   82poe    c23  979   4.137   2.774   3.730  0.2169 -0.5498 -0.0886
   82poe     o2  980   4.259   2.832   3.770  0.0018 -0.2044  0.0769
   82poe    c23  981   4.266   2.953   3.700 -0.1774 -0.2798 -0.0694
   82poe    c23  982   4.408   3.009   3.718 -0.2995  0.1191 -0.3308
   82poe     o2  983   4.448   2.998   3.853  0.0344 -0.6873 -0.4884
   82poe    c31  984   4.583   3.031   3.872 -0.3460  0.5835  0.1340
   83poe    c31  985   1.193   5.628   0.568 -0.1864  0.0195  0.6110
   83poe     o2  986   1.132   5.501   0.563 -0.3031  0.1103 -0.5955
   83poe    c23  987   0.994   5.515   0.542 -0.3829 -0.3679 -0.4081
   83poe    c23  988   0.929   5.377   0.562 -0.1167 -0.4481 -0.0950
   83poe     o2  989   1.006   5.314   0.661  0.1311 -0.1828 -0.1166
   83poe    c23  990   0.962   5.180   0.675 -0.3077  0.0312  0.6079
   83poe    c23  991   1.043   5.115   0.789 -0.0848  0.1051  0.4930
   83poe     o2  992   1.174   5.164   0.776 -0.1522  0.2020  0.1634
   83poe    c23  993   1.273   5.129   0.871  0.1786  0.1050 -0.2106
   83poe    c23  994   1.400   5.195   0.815  0.3839 -0.0162  0.1106
   83poe     o2  995   1.366   5.323   0.765  0.1519 -0.2015 -0.2134
   83poe    c31  996   1.475   5.403   0.726 -0.1394  0.4409  0.2829
   84poe    c31  997   4.689   6.300   0.103  0.2330 -0.2209  0.1851
   84poe     o2  998   4.644   6.207   0.199 -0.6612 -0.4186 -0.4103
   84poe    c23  999   4.728   6.095   0.210  0.5474  0.4970 -0.0483
   84poe    c23 1000   4.719   6.029   0.349 -0.2308  0.5180 -0.0874
   84poe     o2 1001   4.580   6.011   0.367 -0.1241 -0.2489  0.0232
   84poe    c23 1002   4.553   5.992   0.504 -0.0089 -0.0173  0.0798
   84poe    c23 1003   4.403   6.024   0.518 -0.0221 -0.1439  0.2197
   84poe     o2 1004   4.392   6.148   0.454 -0.3122  0.1318  0.7909
   84poe    c23 1005   4.267   6.213   0.470 -0.3809  0.1823  0.0834
   84poe    c23 1006   4.246   6.288   0.337 -0.2823  0.0324 -0.0184
   84poe     o2 1007   4.363   6.337   0.275 -0.1181 -0.5312 -0.1540
   84poe    c31 1008   4.328   6.458   0.212 -0.0826  0.1507  1.1239
   85poe    c31 1009   3.125   2.653   2.741 -0.0731 -0.2351 -0.3867
   85poe     o2 1010   2.991   2.694   2.731 -0.0984 -0.3047 -0.3373
   85poe    c23 1011   2.990   2.760   2.606  0.1079  0.3236 -0.0105
   85poe    c23 1012   2.847   2.813   2.584 -0.0436  0.0107  0.2054
   85poe     o2 1013   2.816   2.850   2.716 -0.2396 -0.2735  0.2415
   85poe    c23 1014   2.688   2.907   2.728 -0.2158 -0.2194  0.2429
   85poe    c23 1015   2.688   2.950   2.875  0.1960  0.0778  0.1556
   85poe     o2 1016   2.756   2.851   2.949 -0.3934  0.0258  0.6365
   85poe    c23 1017   2.830   2.910   3.054  0.2151  0.1647  0.1367
   85poe    c23 1018   2.889   2.785   3.121  0.2446  0.1686  0.1182
   85poe     o2 1019   2.933   2.689   3.027  0.3299  0.2369  0.0893
   85poe    c31 1020   2.996   2.580   3.090  0.2604  0.2652  0.2062
   86poe    c31 1021   6.285   5.746   0.314  0.2969 -0.4535  0.3317
   86poe     o2 1022   6.172   5.802   0.376  0.2121 -0.0628 -0.1665
   86poe    c23 1023   6.109   5.894   0.290 -0.5882 -0.6007 -0.1692
   86poe    c23 1024   6.022   5.988   0.376 -0.2296 -0.4130 -0.0085
   86poe     o2 1025   5.961   5.897   0.466 -0.3473 -0.3293 -0.0032
   86poe    c23 1026   5.868   5.967   0.546  0.0832  0.4465 -0.1668
   86poe    c23 1027   5.858   5.896   0.683  0.3829  0.3263 -0.2053
   86poe     o2 1028   5.985   5.842   0.714  0.0344 -0.6383 -0.4274
   86poe    c23 1029   5.980   5.743   0.814 -0.7759 -0.3890 -0.2070
   86poe    c23 1030   6.128   5.698   0.815 -0.8064 -0.4859 -0.0980
   86poe     o2 1031   6.171   5.685   0.681 -0.3222  0.4481 -0.0427
   86poe    c31 1032   6.288   5.607   0.675 -0.2751  0.5270 -0.1714
   87poe    c31 1033   1.932   0.164   2.165 -0.0289 -0.4156 -0.4484
   87poe     o2 1034   2.029   0.189   2.066  0.1967  0.2344 -0.0674
   87poe    c23 1035   2.110   0.295   2.111 -0.3330  0.5731  0.0863
   87poe    c23 1036   2.233   0.313   2.020 -0.2638  0.0354  0.0738
   87poe     o2 1037   2.189   0.329   1.887  0.4533 -0.6228 -0.2513
   87poe    c23 1038   2.290   0.298   1.794  0.6674 -0.5419 -0.0485
   87poe    c23 1039   2.224   0.216   1.681  0.1426  0.3361 -0.3817
   87poe     o2 1040   2.143   0.123   1.750  0.7404  0.0395 -0.0803
   87poe    c23 1041   2.064   0.038   1.670  0.0257  0.1810  0.4651
   87poe    c23 1042   1.973  -0.053   1.754  0.4397 -0.1375  0.5766
   87poe     o2 1043   1.886   0.034   1.824 -0.2168 -0.3104 -0.0118
   87poe    c31 1044   1.769  -0.023   1.877 -0.2752 -0.2987 -0.1278
   88poe    c31 1045   6.564   5.246   1.292 -0.1782 -0.5660 -0.1020
   88poe     o2 1046   6.532   5.110   1.279 -0.7590 -0.4490  0.0712
   88poe    c23 1047   6.572   5.068   1.151 -0.2664 -0.3295  0.1841
   88poe    c23 1048   6.497   4.939   1.111 -0.5317  0.0247 -0.4730
   88poe     o2 1049   6.489   4.873   1.236 -1.1731  0.4723 -0.2680
   88poe    c23 1050   6.456   4.736   1.234  0.3644  0.0698  0.2775
   88poe    c23 1051   6.347   4.739   1.342  0.1082  0.4711  0.0134
   88poe     o2 1052   6.376   4.825   1.450 -0.0553  0.1739  0.2994
   88poe    c23 1053   6.258   4.864   1.517 -0.2772 -0.2731  0.1706
   88poe    c23 1054   6.303   4.986   1.600 -0.4452 -0.0232 -0.1018
   88poe     o2 1055   6.365   5.082   1.517  0.0233 -0.1136  0.1425
   88poe    c31 1056   6.382   5.204   1.585  0.0220  0.1658 -0.3552
   89poe    c31 1057   1.982   2.763   2.526 -0.1863 -0.3531 -0.2636
   89poe     o2 1058   1.915   2.846   2.434  0.1794  0.1304 -0.0970
   89poe    c23 1059   1.785   2.796   2.411  0.1381  0.2433 -0.1117
   89poe    c23 1060   1.699   2.918   2.372 -0.5540 -0.1715  0.1088
   89poe     o2 1061   1.772   2.986   2.273 -0.5788  0.4647  0.5263
   89poe    c23 1062   1.708   3.102   2.224 -0.1755  0.4996  0.0639
   89poe    c23 1063   1.817   3.168   2.138  0.0492 -0.4199 -0.3729
   89poe     o2 1064   1.951   3.145   2.175 -0.0281 -0.3881 -0.0662
   89poe    c23 1065   2.025   3.103   2.062 -0.3784 -0.2597 -0.3446
   89poe    c23 1066   2.005   2.951   2.042  0.1886 -0.3679 -0.1026
   89poe     o2 1067   2.017   2.881   2.164  0.3458  0.1393  0.1815
   89poe    c31 1068   2.067   2.752   2.136 -0.0397  0.1857 -0.7721
   90poe    c31 1069   4.328   3.467   5.665  0.0483 -0.0283 -0.0611
   90poe     o2 1070   4.237   3.529   5.578  0.0764  0.1806  0.0596
   90poe    c23 1071   4.103   3.510   5.618  0.0561 -0.1639 -0.1671
   90poe    c23 1072   4.012   3.600   5.533  0.4693 -0.1316 -0.5772
   90poe     o2 1073   4.080   3.723   5.520  0.1466  0.1528  0.3799
   90poe    c23 1074   4.027   3.802   5.417 -0.0237  0.1895  0.4946
   90poe    c23 1075   4.113   3.931   5.416 -0.4473  0.4720  0.2339
   90poe     o2 1076   4.245   3.883   5.411 -0.3121  0.8569  0.0468
   90poe    c23 1077   4.334   3.981   5.460  0.0771  0.4374  0.1962
   90poe    c23 1078   4.474   3.918   5.449 -0.0141  0.2991 -0.2136
   90poe     o2 1079   4.467   3.788   5.502  0.0938  0.2747 -0.2608
   90poe    c31 1080   4.599   3.743   5.524 -0.0931 -0.0290  0.2485
   91poe    c31 1081   6.142   3.320   1.687  0.5343  0.4893  0.1347
   91poe     o2 1082   6.179   3.262   1.564 -0.5787  0.1419 -0.0466
   91poe    c23 1083   6.319   3.251   1.552 -0.5413  0.2601  0.2939
   91poe    c23 1084   6.344   3.239   1.401 -0.1045  0.1364  0.3740
   91poe     o2 1085   6.267   3.132   1.353 -0.4789  0.4055  0.3650
   91poe    c23 1086   6.278   3.109   1.214  0.4817  0.3309  0.4449
   91poe    c23 1087   6.167   3.005   1.192  0.5375  0.4084 -0.2246
   91poe     o2 1088   6.063   3.056   1.273  0.3882 -0.4844  0.1615
   91poe    c23 1089   5.929   3.028   1.239  0.3228 -0.1675  0.1578
   91poe    c23 1090   5.871   2.989   1.376 -0.7441  0.3703 -0.1332
   91poe     o2 1091   5.929   3.081   1.466  0.1282 -0.2336 -0.0742
   91poe    c31 1092   5.849   3.102   1.580 -0.4409  0.7071 -0.6377
   92poe    c31 1093   3.364   6.574   6.448  0.5897  0.5244 -0.4530
   92poe     o2 1094   3.307   6.514   6.334 -0.1258 -0.3682  0.3575
   92poe    c23 1095   3.392   6.429   6.260 -0.5833 -0.1815 -0.3946
   92poe    c23 1096   3.312   6.356   6.151 -0.1997 -0.2735 -0.6158
   92poe     o2 1097   3.216   6.451   6.109  0.0205  0.1485 -0.1681
   92poe    c23 1098   3.116   6.409   6.019 -0.1836 -0.4712  0.3432
   92poe    c23 1099   2.980   6.479   6.035  0.3727  0.6139  0.4081
   92poe     o2 1100   2.964   6.488   6.174 -0.0209 -0.2184  0.4219
   92poe    c23 1101   2.850   6.569   6.197 -0.1308 -0.1230 -0.4348
   92poe    c23 1102   2.844   6.600   6.348  0.2375 -0.2780 -0.3874
   92poe     o2 1103   2.979   6.610   6.386  0.1158 -0.1046  0.0015
   92poe    c31 1104   2.981   6.653   6.520  0.0711  0.0660 -0.0521
   93poe    c31 1105   4.456   6.227   4.470 -0.0825  0.5199  0.0199
   93poe     o2 1106   4.586   6.235   4.418  0.0000  0.1822  0.1731
   93poe    c23 1107   4.631   6.368   4.405 -0.1655  0.2206 -0.0135
   93poe    c23 1108   4.785   6.364   4.398 -0.1793 -0.3065 -0.0924
   93poe     o2 1109   4.822   6.266   4.304 -0.3683 -0.4831  0.0177
   93poe    c23 1110   4.956   6.277   4.263 -0.2548 -0.0253  0.5069
   93poe    c23 1111   4.967   6.193   4.135  0.3406  0.4498  0.2387
   93poe     o2 1112   4.884   6.079   4.144  0.0637  0.6028 -0.3497
   93poe    c23 1113   4.787   6.071   4.042  0.4056 -0.3988 -0.6075
   93poe    c23 1114   4.681   5.967   4.086 -0.0096  0.1719 -0.2468
   93poe     o2 1115   4.631   6.018   4.207  0.4702 -0.7011  0.3269
   93poe    c31 1116   4.513   5.944   4.232  0.0047 -0.1828 -0.3059
   94poe    c31 1117   4.533   3.552   0.768 -0.1960  0.4541 -0.0302
   94poe     o2 1118   4.593   3.439   0.829 -0.0362  0.4332 -0.2245
   94poe    c23 1119   4.497   3.337   0.819  0.3872  0.0274 -0.1722
   94poe    c23 1120   4.585   3.211   0.835  0.1711 -0.1344 -0.2470
   94poe     o2 1121   4.663   3.235   0.950  0.0658  0.0566 -0.2139
   94poe    c23 1122   4.725   3.116   0.994 -0.2209  0.1234  0.3818
   94poe    c23 1123   4.857   3.165   1.054  0.0039 -0.2975  0.2344
   94poe     o2 1124   4.890   3.280   0.979 -0.1124 -0.2214  0.2983
   94poe    c23 1125   5.006   3.344   1.027  0.2538 -0.6769  0.0336
   94poe    c23 1126   5.011   3.473   0.944 -0.5754 -0.4828  0.2808
   94poe     o2 1127   4.876   3.510   0.921 -0.3865  0.2178  0.2743
   94poe    c31 1128   4.863   3.650   0.930 -0.1330  0.2436  0.2567
   95poe    c31 1129   1.991   3.825   2.075 -0.5051 -0.8216  0.0005
   95poe     o2 1130   2.036   3.759   2.191 -0.0254  0.1145  0.3573
   95poe    c23 1131   2.078   3.637   2.134 -0.0405 -0.1054  0.8185
   95poe    c23 1132   2.138   3.542   2.240  0.2284 -0.4043  0.4032
   95poe     o2 1133   2.219   3.628   2.318  0.6333 -0.0423 -0.4033
   95poe    c23 1134   2.304   3.562   2.409 -0.2939 -0.1281  0.4255
   95poe    c23 1135   2.402   3.669   2.462 -0.0444 -0.2759  0.2676
   95poe     o2 1136   2.313   3.773   2.496  0.0108  0.0505 -0.5594
   95poe    c23 1137   2.367   3.899   2.465 -0.2715  0.3641  0.1828
   95poe    c23 1138   2.251   4.000   2.477 -0.2824  0.4049 -0.2504
   95poe     o2 1139   2.151   3.951   2.391  0.0916  0.0111 -0.4706
   95poe    c31 1140   2.045   4.044   2.398  0.4890  0.4578 -0.4034
   96poe    c31 1141   2.960   1.628   6.488  0.4512 -0.0869 -0.3587
   96poe     o2 1142   3.018   1.563   6.599 -0.0173 -0.0602 -0.0958
   96poe    c23 1143   2.922   1.568   6.703 -0.3377 -0.2108 -0.3855
   96poe    c23 1144   2.977   1.503   6.831 -0.0039  0.2350 -0.2988
   96poe     o2 1145   3.036   1.381   6.792  0.0885  0.2697 -0.2662
   96poe    c23 1146   3.118   1.326   6.892  0.0916  0.2723 -0.2673
   96poe    c23 1147   3.237   1.279   6.807 -0.3593 -0.5689 -0.4495
   96poe     o2 1148   3.274   1.387   6.723 -0.1319 -0.1494  0.1865
   96poe    c23 1149   3.396   1.348   6.664 -0.1719  0.3445 -0.2266
   96poe    c23 1150   3.426   1.471   6.577 -0.0570 -0.1078 -0.8320
   96poe     o2 1151   3.306   1.523   6.526 -0.1552  0.2847 -0.2059
   96poe    c31 1152   3.332   1.630   6.438 -0.9672  0.2025 -0.5631
   97poe    c31 1153   0.785   2.400   6.589  0.1016 -0.6048  0.3192
   97poe     o2 1154   0.843   2.274   6.561 -0.2926 -0.7549  0.1682
   97poe    c23 1155   0.922   2.247   6.674  0.6259 -0.3782 -0.3678
   97poe    c23 1156   0.963   2.099   6.688  0.1315 -0.4706  0.1705
   97poe     o2 1157   1.007   2.075   6.556  0.3654  0.1733  0.1273
   97poe    c23 1158   1.026   1.939   6.525 -0.3119  0.0673  0.1537
   97poe    c23 1159   1.026   1.936   6.371  0.5982  0.2115  0.1454
   97poe     o2 1160   0.915   2.018   6.343  0.4098 -0.0444  0.1404
   97poe    c23 1161   0.885   2.030   6.206 -0.4203  0.3790  0.3541
   97poe    c23 1162   0.742   2.088   6.201 -0.7784 -0.4873  0.2180
   97poe     o2 1163   0.739   2.192   6.296 -0.1035 -0.3873  0.1363
   97poe    c31 1164   0.611   2.249   6.290  0.4307  0.8463  0.1238
   98poe    c31 1165   2.521   4.322   5.264  0.2690 -0.4158 -0.5658
   98poe     o2 1166   2.391   4.284   5.225  0.0403 -0.2611  0.0273
   98poe    c23 1167   2.405   4.157   5.165 -0.1975 -0.2344 -0.0836
   98poe    c23 1168   2.291   4.127   5.066 -0.3158 -0.1718  0.0320
   98poe     o2 1169   2.185   4.202   5.120  0.0825  0.2011  0.2995
   98poe    c23 1170   2.103   4.233   5.008  0.2468  0.4541  0.2476
   98poe    c23 1171   1.993   4.326   5.062 -0.1193  0.4667 -0.5111
   98poe     o2 1172   2.067   4.417   5.140 -0.0136 -0.2476  0.2336
   98poe    c23 1173   1.998   4.527   5.194  0.0107 -0.0472 -0.1412
   98poe    c23 1174   2.103   4.610   5.271  0.2010 -0.5751  0.1742
   98poe     o2 1175   2.230   4.549   5.268  0.3022 -0.3746  0.3755
   98poe    c31 1176   2.325   4.646   5.309 -0.2038  0.2301  0.1332
   99poe    c31 1177   5.053   4.927   2.621 -0.4531 -0.1679  0.2501
   99poe     o2 1178   5.169   4.879   2.686 -0.1263  0.0358 -0.1753
   99poe    c23 1179   5.220   4.991   2.756  0.2671  0.1013 -0.5617
   99poe    c23 1180   5.363   4.967   2.806 -0.0278  0.1953  0.3501
   99poe     o2 1181   5.370   4.832   2.846  0.2189 -0.0004 -0.3425
   99poe    c23 1182   5.496   4.775   2.815  0.1630 -0.3412  0.0599
   99poe    c23 1183   5.466   4.624   2.813 -0.1447 -0.2816  0.0456
   99poe     o2 1184   5.370   4.607   2.711 -0.8167 -0.2289  0.6615
   99poe    c23 1185   5.370   4.494   2.626 -0.2615  0.4316 -0.2317
   99poe    c23 1186   5.225   4.487   2.574 -0.2925 -0.5041 -0.0414
   99poe     o2 1187   5.171   4.615   2.546 -0.1463 -0.4232  0.0461
   99poe    c31 1188   5.096   4.606   2.427  0.0498 -0.2409 -0.0938
  100poe    c31 1189   2.196   4.821   0.976 -0.1405  0.0867 -0.0792
  100poe     o2 1190   2.070   4.759   0.993 -0.2408  0.1648 -0.5230
  100poe    c23 1191   2.094   4.627   1.037 -0.3653  0.4263  0.3376
  100poe    c23 1192   1.977   4.530   1.013  0.3005 -0.2319 -0.2784
  100poe     o2 1193   1.911   4.571   0.896  0.1182 -0.1759 -0.1572
  100poe    c23 1194   1.778   4.531   0.871  0.0164 -0.0839  0.2408
  100poe    c23 1195   1.734   4.614   0.749 -0.2090  0.2732  0.5607
  100poe     o2 1196   1.782   4.745   0.768 -0.4729  0.4429  0.0654
  100poe    c23 1197   1.761   4.835   0.661  0.1260 -0.0857 -0.5061
  100poe    c23 1198   1.800   4.978   0.702 -0.9782 -0.0269  0.3847
  100poe     o2 1199   1.918   4.968   0.779 -0.2300  0.2424 -0.6953
  100poe    c31 1200   1.987   5.088   0.804 -0.2868  0.2639 -0.6417
  101poe    c31 1201   4.757   6.136   2.646  0.2419 -0.0131  0.0672
  101poe     o2 1202   4.707   6.016   2.702  0.2860 -0.1154 -0.1147
  101poe    c23 1203   4.724   5.917   2.603 -0.0321 -0.4947  0.2101
  101poe    c23 1204   4.714   5.775   2.663  0.0298 -0.2802  0.7377
  101poe     o2 1205   4.616   5.773   2.763 -0.2247  0.2974  0.5036
  101poe    c23 1206   4.607   5.652   2.834 -0.4532 -0.0858 -0.1744
  101poe    c23 1207   4.489   5.661   2.932 -0.6163 -0.2642 -0.3519
  101poe     o2 1208   4.512   5.778   3.009  0.2346 -0.7380  0.1339
  101poe    c23 1209   4.432   5.761   3.124  0.2466 -0.3280  0.2037
  101poe    c23 1210   4.461   5.852   3.245  0.1833  0.0051 -0.0309
  101poe     o2 1211   4.422   5.986   3.224  0.1934 -0.0124 -0.1613
  101poe    c31 1212   4.453   6.083   3.322 -0.0390 -0.3307  0.2283
  102poe    c31 1213   1.818   6.046   5.148 -0.3026  0.0030  0.0418
  102poe     o2 1214   1.874   6.128   5.248 -0.6942  0.2509  0.0604
  102poe    c23 1215   1.847   6.068   5.373  0.4172  0.1936  0.2831
  102poe    c23 1216   1.840   6.174   5.484 -0.3069  0.4643 -0.0118
  102poe     o2 1217   1.967   6.236   5.486  0.1544 -0.4619 -0.3637
  102poe    c23 1218   1.974   6.356   5.560  0.5437 -0.3671 -0.5531
  102poe    c23 1219   2.028   6.470   5.471  0.4103  0.2224  0.1160
  102poe     o2 1220   1.988   6.444   5.338  0.2753 -0.3597  0.2655
  102poe    c23 1221   2.018   6.562   5.267 -0.2616 -0.2573  0.2042
  102poe    c23 1222   1.934   6.557   5.138  0.5434  0.0906 -0.3424
  102poe     o2 1223   1.912   6.421   5.108  0.2521  0.1622 -0.4529
  102poe    c31 1224   1.881   6.419   4.971 -0.7020 -0.4386 -0.2314
  103poe    c31 1225   0.661   6.103   2.365  0.0511 -0.6368  0.4892
  103poe     o2 1226   0.533   6.047   2.341 -0.3857  0.6498 -0.2404
  103poe    c23 1227   0.537   5.918   2.286  0.1678  0.4705  0.2105
  103poe    c23 1228   0.401   5.847   2.291  0.3865 -0.0094 -0.4671
  103poe     o2 1229   0.303   5.941   2.252  0.1191  0.0681  0.3809
  103poe    c23 1230   0.169   5.903   2.273  0.0744  0.1777  0.2926
  103poe    c23 1231   0.091   6.035   2.293 -0.4370 -0.0296 -0.2929
  103poe     o2 1232   0.158   6.116   2.387  0.6033 -0.2667 -0.8176
  103poe    c23 1233   0.111   6.247   2.404  0.3663 -0.4403 -0.1176
  103poe    c23 1234   0.219   6.304   2.498  0.2797 -0.4113 -0.0345
  103poe     o2 1235   0.344   6.277   2.438  0.6134 -0.1481  0.5359
  103poe    c31 1236   0.432   6.375   2.488  0.3310  0.3160  0.1220
  104poe    c31 1237   1.025   2.234   4.151  0.7596 -0.2987 -0.0877
  104poe     o2 1238   1.094   2.279   4.036 -0.4126  0.2622 -0.5877
  104poe    c23 1239   1.156   2.400   4.076  0.1306 -0.2513  0.1466
  104poe    c23 1240   1.281   2.424   3.990 -0.1658  0.1368 -0.1771
  104poe     o2 1241   1.243   2.383   3.860 -0.3398 -0.4849  0.0652
  104poe    c23 1242   1.346   2.375   3.764 -0.2027 -0.0721  0.1750
  104poe    c23 1243   1.258   2.355   3.639 -0.1198 -0.0580  0.1147
  104poe     o2 1244   1.174   2.247   3.674  0.1933 -0.2444  0.2980
  104poe    c23 1245   1.062   2.219   3.593  0.3241 -0.5453  0.2204
  104poe    c23 1246   0.931   2.260   3.663  0.4927  0.6794 -0.1640
  104poe     o2 1247   0.938   2.214   3.796 -0.5205 -0.2311 -0.4149
  104poe    c31 1248   0.817   2.217   3.867 -0.0582  0.0437  0.3718
  105poe    c31 1249   0.143   1.315   4.655  0.0712  0.9501 -0.4040
  105poe     o2 1250   0.172   1.303   4.518  0.4573  0.5522 -0.2929
  105poe    c23 1251   0.129   1.176   4.476  0.5325  0.2545  0.5187
  105poe    c23 1252   0.103   1.177   4.324 -0.2251  0.1629  0.6436
  105poe     o2 1253   0.216   1.246   4.278 -0.2065 -0.6836 -0.6329
  105poe    c23 1254   0.225   1.267   4.138  0.0734 -0.6179 -0.6066
  105poe    c23 1255   0.321   1.386   4.119  0.2686 -0.6295  0.2341
  105poe     o2 1256   0.294   1.482   4.218 -0.2083 -0.8024  0.2771
  105poe    c23 1257   0.399   1.577   4.226 -0.7348 -0.1791 -0.1012
  105poe    c23 1258   0.362   1.653   4.354 -0.4977  0.0678 -0.1801
  105poe     o2 1259   0.343   1.551   4.450 -0.0220  0.0463 -0.1040
  105poe    c31 1260   0.333   1.613   4.577 -0.2509  0.0287 -0.1135
  106poe    c31 1261   3.974   2.745   0.808 -0.0951 -0.0027  0.0734
  106poe     o2 1262   3.845   2.699   0.776 -0.1209  0.2195 -0.1439
  106poe    c23 1263   3.856   2.559   0.758 -0.3874  0.1175  0.4343
  106poe    c23 1264   3.729   2.504   0.690 -0.3473 -0.3045  0.7025
  106poe     o2 1265   3.625   2.578   0.749 -0.4295 -0.2607  0.5025
  106poe    c23 1266   3.523   2.597   0.653 -0.0940  0.1578  0.2235
  106poe    c23 1267   3.440   2.718   0.701  0.0564  0.2447  0.2637
  106poe     o2 1268   3.533   2.823   0.721 -0.1753  0.6084 -0.5283
  106poe    c23 1269   3.474   2.946   0.756  0.0088  0.3348  0.7724
  106poe    c23 1270   3.584   3.053   0.761  0.3351  0.0296  0.1661
  106poe     o2 1271   3.691   2.990   0.828  0.3170 -0.4297 -0.2287
  106poe    c31 1272   3.808   3.068   0.819  0.1635 -0.1627  0.0539
  107poe    c31 1273   2.860   4.210   2.741  0.0234 -0.0834 -0.5076
  107poe     o2 1274   2.902   4.338   2.703 -0.4198  0.1159 -0.3286
  107poe    c23 1275   3.017   4.374   2.775 -0.3559 -0.5718 -0.0825
  107poe    c23 1276   3.100   4.474   2.691 -0.3775 -0.3737  0.1293
  107poe     o2 1277   3.008   4.557   2.624  0.3359  0.6820  0.4338
  107poe    c23 1278   3.048   4.625   2.508  0.6576 -0.2163  0.0059
  107poe    c23 1279   3.017   4.542   2.382  0.3458 -0.3899  0.1943
  107poe     o2 1280   2.896   4.476   2.413 -0.0128  0.0835 -0.1844
  107poe    c23 1281   2.874   4.379   2.313  0.2207  0.1856 -0.3384
  107poe    c23 1282   2.726   4.339   2.329  0.1845  0.5303  0.2193
  107poe     o2 1283   2.698   4.326   2.466  0.3965 -0.2170  0.1919
  107poe    c31 1284   2.603   4.223   2.482 -0.7129  0.8157  0.3088
  108poe    c31 1285   0.513   5.238   6.417  0.0529  0.4582 -0.0327
  108poe     o2 1286   0.437   5.184   6.522  0.0197 -0.1111 -0.3455
  108poe    c23 1287   0.308   5.239   6.509  0.2643  0.5206 -0.1389
  108poe    c23 1288   0.211   5.136   6.569  0.5337  0.4954  0.2516
  108poe     o2 1289   0.258   5.100   6.697  0.2691 -0.1531  0.1729
  108poe    c23 1290   0.205   5.177   6.803 -0.1860 -0.2210 -0.0017
  108poe    c23 1291   0.309   5.158   6.915 -0.2985  0.7205  0.2725
  108poe     o2 1292   0.429   5.191   6.848 -0.3100 -0.3468 -0.3035
  108poe    c23 1293   0.546   5.155   6.918 -0.1684  0.0364 -0.3403
  108poe    c23 1294   0.663   5.200   6.828  0.1051 -0.0018 -0.0033
  108poe     o2 1295   0.636   5.125   6.712  0.4030 -0.0540 -0.0395
  108poe    c31 1296   0.762   5.112   6.650  0.5758  0.5411  0.1803
  109poe    c31 1297   2.148   4.911   1.384 -0.3623 -0.2951  0.2418
  109poe     o2 1298   2.163   4.944   1.520  0.1159  0.0174  0.1131
  109poe    c23 1299   2.252   4.850   1.575  0.0807  0.2788  0.6186
  109poe    c23 1300   2.223   4.842   1.726  0.5189 -0.4435  0.6680
  109poe     o2 1301   2.232   4.973   1.776  0.4310 -0.1668 -0.0322
  109poe    c23 1302   2.155   5.009   1.889 -0.1284 -0.0451 -0.4488
  109poe    c23 1303   2.001   5.008   1.884 -0.1279  0.1181 -0.5073
  109poe     o2 1304   1.980   5.088   1.770 -0.4118  0.2576 -0.3595
  109poe    c23 1305   1.840   5.098   1.756 -0.4639  0.4566  0.2913
  109poe    c23 1306   1.836   5.180   1.626 -0.5173 -0.3696 -0.2337
  109poe     o2 1307   1.940   5.147   1.537  0.4033  0.8115  0.3756
  109poe    c31 1308   1.909   5.187   1.406 -0.1133 -0.2869  0.1505
  110poe    c31 1309   5.984   2.972   3.527  0.3247 -0.4636 -0.6027
  110poe     o2 1310   6.114   2.917   3.530  0.4981 -0.0016  0.4738
  110poe    c23 1311   6.117   2.839   3.648  0.2208 -0.0146  0.4745
  110poe    c23 1312   6.228   2.734   3.629  0.0579 -0.0092 -0.5652
  110poe     o2 1313   6.346   2.803   3.597  0.3516 -0.2826 -0.0774
  110poe    c23 1314   6.430   2.721   3.518 -0.1831 -0.3458 -0.5802
  110poe    c23 1315   6.516   2.810   3.427  0.0715 -0.0149 -0.0234
  110poe     o2 1316   6.435   2.907   3.365 -0.0056 -0.1820 -0.1848
  110poe    c23 1317   6.490   3.017   3.296 -0.2682  0.0404 -0.0433
  110poe    c23 1318   6.372   3.105   3.251  0.0432  0.6122  0.2473
  110poe     o2 1319   6.273   3.099   3.351  0.2396 -0.2761  0.3997
  110poe    c31 1320   6.177   3.191   3.302  0.4952 -0.3600 -0.2670
  111poe    c31 1321   0.334   0.869   1.771 -1.0382 -0.0253  0.2875
  111poe     o2 1322   0.242   0.968   1.732 -0.8707 -0.0831 -0.2659
  111poe    c23 1323   0.119   0.908   1.696 -1.1663  0.0186  0.5508
  111poe    c23 1324   0.066   1.014   1.597 -0.2416  0.2441  0.2851
  111poe     o2 1325   0.086   1.141   1.655 -0.3162  0.1826  0.4439
  111poe    c23 1326   0.006   1.243   1.599 -0.3025 -0.0551 -0.0113
  111poe    c23 1327   0.052   1.361   1.687  0.1411 -0.3563  0.1677
  111poe     o2 1328   0.192   1.362   1.670  0.1408  0.2145  0.1541
  111poe    c23 1329   0.265   1.428   1.771 -0.4928  0.5117  0.4193
  111poe    c23 1330   0.269   1.339   1.897 -0.6089 -0.2267 -0.0937
  111poe     o2 1331   0.302   1.204   1.875 -0.2434 -0.1835  0.1686
  111poe    c31 1332   0.348   1.140   1.992  0.9105  0.1564 -0.0865
  112poe    c31 1333   4.421   5.655   1.972 -0.6523  0.2690  0.2106
  112poe     o2 1334   4.561   5.674   1.983 -0.6347 -0.0827  0.6231
  112poe    c23 1335   4.605   5.664   2.116 -0.0023 -0.9840  0.3610
  112poe    c23 1336   4.750   5.714   2.126 -0.0302 -0.6432 -0.8097
  112poe     o2 1337   4.737   5.839   2.062 -0.3558 -0.2849 -0.0498
  112poe    c23 1338   4.860   5.906   2.076 -0.3348 -0.3029 -0.1527
  112poe    c23 1339   4.843   6.024   1.979  0.4591  0.3212  0.4598
  112poe     o2 1340   4.778   5.973   1.865  0.6138  0.3680  0.3494
  112poe    c23 1341   4.727   6.072   1.778  0.0041 -0.0924  0.1731
  112poe    c23 1342   4.634   5.991   1.686  0.1753 -0.1797  0.0751
  112poe     o2 1343   4.560   5.897   1.761  0.3166  0.0094  0.4577
  112poe    c31 1344   4.445   5.865   1.686 -0.0104  0.3444  0.8160
  113poe    c31 1345   3.906   4.454   1.919 -0.7755 -0.4274  0.2513
  113poe     o2 1346   3.939   4.590   1.901 -0.2257 -0.5498  0.3152
  113poe    c23 1347   3.837   4.667   1.960 -0.2382 -0.4576  0.1727
  113poe    c23 1348   3.901   4.792   2.023  0.1299 -0.4383 -0.2315
  113poe     o2 1349   3.980   4.846   1.920  0.2445 -0.0770  0.0410
  113poe    c23 1350   4.067   4.948   1.964  0.3223 -0.0341 -0.2072
  113poe    c23 1351   4.149   4.983   1.839  0.1458 -0.1999 -0.3697
  113poe     o2 1352   4.165   4.872   1.753 -0.1142 -0.2824 -0.3135
  113poe    c23 1353   4.287   4.810   1.786 -0.1179 -0.0180  0.2119
  113poe    c23 1354   4.274   4.670   1.722 -0.4583  0.0895  0.0458
  113poe     o2 1355   4.149   4.608   1.744 -0.0600 -0.6598  0.2073
  113poe    c31 1356   4.159   4.473   1.703  1.0180 -0.5518  0.0695
  114poe    c31 1357   3.919   3.907   0.167  0.7621 -0.4672 -0.2270
  114poe     o2 1358   3.869   3.798   0.092 -0.0568 -0.0925 -0.2368
  114poe    c23 1359   3.973   3.759   0.004 -0.3458 -0.5926 -0.3604
  114poe    c23 1360   3.923   3.638  -0.076 -0.0102 -0.5837 -0.5849
  114poe     o2 1361   3.897   3.552   0.033  0.4236 -0.1835 -0.1630
  114poe    c23 1362   3.838   3.427   0.004 -0.1972  0.0551  0.0582
  114poe    c23 1363   3.776   3.380   0.136 -0.1775  0.1698  0.1089
  114poe     o2 1364   3.719   3.494   0.196 -0.3587  0.1098  0.0520
  114poe    c23 1365   3.652   3.461   0.316  0.5097  0.1276  0.5500
  114poe    c23 1366   3.624   3.599   0.380 -0.3873  0.1057  0.2187
  114poe     o2 1367   3.737   3.681   0.360 -0.0116 -0.4878 -0.1309
  114poe    c31 1368   3.748   3.787   0.452  0.1684 -0.0089 -0.7003
  115poe    c31 1369   4.313   2.405   1.600  0.7135 -0.0026  0.0601
  115poe     o2 1370   4.330   2.358   1.468 -0.3627  0.1641 -0.1513
  115poe    c23 1371   4.465   2.332   1.434 -0.3288 -0.4506  0.4349
  115poe    c23 1372   4.476   2.248   1.305  0.1428  0.1542  0.0779
  115poe     o2 1373   4.365   2.298   1.233  0.2470 -0.0737 -0.2452
  115poe    c23 1374   4.336   2.268   1.099 -0.1813 -0.1543 -0.1363
  115poe    c23 1375   4.242   2.376   1.043  0.1488  0.2918  0.1649
  115poe     o2 1376   4.164   2.411   1.155  0.3646  0.4234  0.2755
  115poe    c23 1377   4.100   2.534   1.131  0.5803  0.4514 -0.1711
  115poe    c23 1378   3.997   2.550   1.244  0.2090 -0.4012 -0.3835
  115poe     o2 1379   4.064   2.524   1.365 -0.1450 -0.5017 -0.2050
  115poe    c31 1380   3.974   2.518   1.473 -0.1877  0.1957 -0.1980
  116poe    c31 1381   4.263   5.631   4.959 -0.1357  0.4862  0.0038
  116poe     o2 1382   4.396   5.641   5.007  0.1496 -0.2076 -0.6301
  116poe    c23 1383   4.400   5.672   5.144  0.2339 -0.1104 -0.6550
  116poe    c23 1384   4.508   5.781   5.160 -0.1233  0.1582 -0.0417
  116poe     o2 1385   4.613   5.738   5.077 -0.1657  0.3119 -0.1761
  116poe    c23 1386   4.739   5.723   5.140 -0.0303  0.5833 -0.3809
  116poe    c23 1387   4.820   5.671   5.019 -0.3974 -0.0508 -0.3585
  116poe     o2 1388   4.741   5.578   4.949 -0.2712 -0.4305  0.0011
  116poe    c23 1389   4.794   5.554   4.820 -0.0813  0.3493 -0.0688
  116poe    c23 1390   4.676   5.484   4.750  0.3106 -0.3631 -0.0266
  116poe     o2 1391   4.555   5.554   4.770  0.1660 -0.6638  0.1562
  116poe    c31 1392   4.460   5.495   4.685  0.0562 -0.1814 -0.0585
  117poe    c31 1393   4.498   5.052   3.454  0.1302 -0.3676  0.0783
  117poe     o2 1394   4.507   5.143   3.347 -0.5746 -0.0905  0.2490
  117poe    c23 1395   4.589   5.251   3.388 -0.1705 -0.3531  0.1387
  117poe    c23 1396   4.558   5.368   3.293 -0.2071 -0.3024  0.2135
  117poe     o2 1397   4.577   5.346   3.155 -0.3485 -0.0318  0.1498
  117poe    c23 1398   4.711   5.346   3.110 -0.2825 -0.2006  0.3464
  117poe    c23 1399   4.719   5.239   3.000  0.3814 -0.1047  0.3008
  117poe     o2 1400   4.657   5.119   3.042 -0.3402  0.1391 -0.0467
  117poe    c23 1401   4.627   5.025   2.942 -0.1197 -0.2392  0.2428
  117poe    c23 1402   4.567   4.903   3.016  0.7802 -0.5912  0.4095
  117poe     o2 1403   4.493   4.959   3.122  0.6840 -0.1762  0.1269
  117poe    c31 1404   4.408   4.852   3.157  0.2606 -0.1925 -0.8916
  118poe    c31 1405   0.250   0.715   2.114  0.9248  0.2877 -0.2859
  118poe     o2 1406   0.279   0.578   2.128  0.3071  0.1874  0.0302
  118poe    c23 1407   0.164   0.519   2.185  0.3275 -0.1635 -0.2882
  118poe    c23 1408   0.180   0.368   2.212 -0.3616 -0.0804  0.6279
  118poe     o2 1409   0.220   0.311   2.090 -0.1772 -0.1014  0.6980
  118poe    c23 1410   0.276   0.183   2.114 -0.0103 -0.1331  0.1648
  118poe    c23 1411   0.353   0.152   1.984  0.3729  0.2512  0.2958
  118poe     o2 1412   0.437   0.259   1.950  0.0587  0.4025 -0.0130
  118poe    c23 1413   0.523   0.236   1.840 -0.1386  0.1075 -0.1065
  118poe    c23 1414   0.613   0.361   1.839  0.5308 -0.3719 -0.5402
  118poe     o2 1415   0.533   0.475   1.817  0.1121 -0.4506  0.4922
  118poe    c31 1416   0.590   0.568   1.727 -0.5817 -0.0809  0.4274
  119poe    c31 1417   4.187   1.832   2.358 -0.4467 -0.0350 -0.1300
  119poe     o2 1418   4.130   1.710   2.317  0.3021 -0.4244 -0.0271
  119poe    c23 1419   3.990   1.721   2.323  0.3457  0.2793 -0.2121
  119poe    c23 1420   3.950   1.618   2.216  0.1729  0.1741 -0.0481
  119poe     o2 1421   3.996   1.494   2.265 -0.7190 -0.2230 -0.2035
  119poe    c23 1422   3.923   1.390   2.204 -0.5989 -0.4497  0.0381
  119poe    c23 1423   3.956   1.267   2.290 -0.2299 -0.6330 -0.3627
  119poe     o2 1424   4.092   1.236   2.274  0.0801 -0.0056  0.9691
  119poe    c23 1425   4.130   1.107   2.318 -0.2878 -0.3864  0.1854
  119poe    c23 1426   4.278   1.097   2.358 -0.1133  0.6905 -0.1427
  119poe     o2 1427   4.364   1.105   2.247  0.1369 -0.8081 -0.0810
  119poe    c31 1428   4.503   1.094   2.267  0.2177 -1.0698 -0.7551
  120poe    c31 1429   5.276   4.958   3.158  0.0932 -0.1528 -0.2359
  120poe     o2 1430   5.300   4.915   3.290 -0.0951 -0.3763 -0.2716
  120poe    c23 1431   5.419   4.839   3.291  0.2901  0.2123 -0.2286
  120poe    c23 1432   5.468   4.835   3.436  0.0946 -0.1582 -0.1714
  120poe     o2 1433   5.366   4.781   3.518  0.2055  0.1173  0.1509
  120poe    c23 1434   5.393   4.803   3.655  0.1331  0.0882  0.1700
  120poe    c23 1435   5.261   4.855   3.714 -0.1630 -0.5791  0.1056
  120poe     o2 1436   5.209   4.940   3.613  0.1939  0.1190  0.4978
  120poe    c23 1437   5.085   4.993   3.655 -0.4044 -0.8090 -0.0477
  120poe    c23 1438   5.021   5.069   3.538 -0.1700 -0.1733  0.2325
  120poe     o2 1439   5.049   4.996   3.420 -0.2248 -0.0097  0.1166
  120poe    c31 1440   4.970   5.031   3.309  0.2556 -0.1037 -0.2593
  121poe    c31 1441   4.798   3.423   5.113 -0.4834  0.4636  0.0162
  121poe     o2 1442   4.788   3.465   4.978 -0.0854 -0.0303 -0.1707
  121poe    c23 1443   4.823   3.359   4.893 -0.2997 -0.3012  0.0776
  121poe    c23 1444   4.786   3.393   4.747  0.6105 -0.4954 -0.2014
  121poe     o2 1445   4.820   3.530   4.744 -0.0810 -0.3224 -0.1122
  121poe    c23 1446   4.775   3.594   4.627  0.0505  0.4771  0.2708
  121poe    c23 1447   4.809   3.744   4.644  0.2315  0.4138  0.4682
  121poe     o2 1448   4.775   3.763   4.780 -0.1983  0.0067  0.4230
  121poe    c23 1449   4.828   3.885   4.826  0.0613  0.0390  0.0497
  121poe    c23 1450   4.798   3.892   4.977 -0.4404 -0.4763 -0.0238
  121poe     o2 1451   4.841   3.772   5.038  0.3783 -0.3240 -0.2931
  121poe    c31 1452   4.850   3.808   5.174 -0.6352 -0.4637 -0.1860
  122poe    c31 1453   4.767   1.588   3.769 -0.3802  0.5612 -0.4173
  122poe     o2 1454   4.708   1.715   3.786  0.0161  0.7184 -0.2164
  122poe    c23 1455   4.689   1.763   3.655 -0.3762 -0.0926 -0.4600
  122poe    c23 1456   4.677   1.916   3.667 -0.8338 -0.1416 -0.2644
  122poe     o2 1457   4.590   1.923   3.777  0.3575 -0.2836  0.7069
  122poe    c23 1458   4.569   2.057   3.816 -0.1631 -0.1850  0.0972
  122poe    c23 1459   4.470   2.040   3.933 -0.4816  0.0265 -0.1391
  122poe     o2 1460   4.519   1.952   4.031  0.2781  0.0450 -0.4979
  122poe    c23 1461   4.607   2.006   4.128 -0.0245  0.0350 -0.2143
  122poe    c23 1462   4.678   1.877   4.174  0.2247  0.3616  0.3255
  122poe     o2 1463   4.714   1.805   4.058  0.0411  0.1708  0.3858
  122poe    c31 1464   4.766   1.681   4.100  0.0769  0.0474 -0.0206
  123poe    c31 1465   0.842   4.715   4.542 -0.0434 -0.1876  0.2984
  123poe     o2 1466   0.720   4.730   4.610 -0.1778 -0.2983  0.0815
  123poe    c23 1467   0.722   4.860   4.663  0.1330 -0.6042  0.8357
  123poe    c23 1468   0.594   4.870   4.749 -0.2362  0.0827  0.2203
  123poe     o2 1469   0.487   4.832   4.666 -0.1035  0.7016 -0.2399
  123poe    c23 1470   0.369   4.810   4.741  0.4909 -0.0675  0.4832
  123poe    c23 1471   0.364   4.668   4.799  0.0688 -0.2982 -0.1161
  123poe     o2 1472   0.439   4.594   4.704 -0.0603  0.1342 -0.5604
  123poe    c23 1473   0.441   4.457   4.739 -0.2934  0.1480 -0.4865
  123poe    c23 1474   0.503   4.386   4.617 -0.0499 -0.4867  0.0003
  123poe     o2 1475   0.622   4.458   4.595 -0.1050 -0.4093 -0.0437
  123poe    c31 1476   0.712   4.362   4.545  0.0427  0.0007 -0.5779
  124poe    c31 1477   5.028   0.843   2.138 -0.2339 -0.2524  0.2265
  124poe     o2 1478   4.973   0.815   2.011 -0.1306 -0.5619  0.2479
  124poe    c23 1479   4.905   0.692   2.006 -0.3515 -0.4225 -0.3492
  124poe    c23 1480   4.866   0.672   1.859  0.1409 -0.3135 -0.4946
  124poe     o2 1481   4.978   0.717   1.785  0.3098  0.2128  0.0764
  124poe    c23 1482   4.963   0.674   1.652 -0.0610 -0.7460  0.4188
  124poe    c23 1483   5.094   0.695   1.575 -0.3908 -0.2280 -0.0129
  124poe     o2 1484   5.137   0.829   1.573  0.3641 -0.4667 -0.1766
  124poe    c23 1485   5.236   0.845   1.473  0.7617  0.2132  0.3165
  124poe    c23 1486   5.313   0.977   1.456  0.4036  0.3589 -0.1776
  124poe     o2 1487   5.233   1.087   1.418  0.1400  0.0040 -0.6611
  124poe    c31 1488   5.317   1.200   1.413 -0.1513  0.2587 -0.0163
  125poe    c31 1489   2.256   5.186   2.755  0.4871  0.0762  0.0908
  125poe     o2 1490   2.144   5.255   2.705  0.0801 -0.1269  0.7130
  125poe    c23 1491   2.031   5.211   2.776 -0.2887  0.0554  0.2432
  125poe    c23 1492   1.946   5.337   2.805 -0.1789  0.2271 -0.1776
  125poe     o2 1493   1.954   5.406   2.682 -0.5954  0.4590 -0.0767
  125poe    c23 1494   1.909   5.538   2.697  0.2115  0.6345  0.9000
  125poe    c23 1495   1.954   5.604   2.566  0.1417  0.1000  0.6039
  125poe     o2 1496   2.083   5.555   2.542 -0.2394 -0.5460 -0.1797
  125poe    c23 1497   2.143   5.602   2.424 -0.1609 -0.1414  0.0213
  125poe    c23 1498   2.277   5.527   2.419 -0.0732  0.0259 -0.1663
  125poe     o2 1499   2.238   5.395   2.447  0.3919 -0.1259 -0.2286
  125poe    c31 1500   2.341   5.314   2.394  0.0048 -0.8614  0.1192
  126poe    c31 1501   3.313   6.513   1.998  0.0701  0.1670 -0.8491
  126poe     o2 1502   3.329   6.397   1.920 -0.1997  0.1483 -0.8754
  126poe    c23 1503   3.242   6.308   1.985  0.0100 -0.1225 -0.9656
  126poe    c23 1504   3.288   6.167   1.943 -0.0254 -0.4579  0.0907
  126poe     o2 1505   3.315   6.186   1.806 -0.7943 -0.0975 -0.0177
  126poe    c23 1506   3.369   6.071   1.743  0.7077  0.4397  0.2375
  126poe    c23 1507   3.416   6.111   1.602  0.1213  0.4986  0.0543
  126poe     o2 1508   3.455   6.245   1.626  0.5088  0.3498  0.2603
  126poe    c23 1509   3.462   6.317   1.505  0.0041  0.3951  0.2561
  126poe    c23 1510   3.490   6.463   1.546  0.4345  0.2519  0.4843
  126poe     o2 1511   3.433   6.491   1.672 -0.2656 -0.3962  0.3181
  126poe    c31 1512   3.436   6.630   1.689 -0.0647 -0.2944 -0.4852
  127poe    c31 1513   3.258   0.264   0.783 -0.1851 -0.0962  0.3037
  127poe     o2 1514   3.304   0.249   0.915  0.3802  0.1722  0.1397
  127poe    c23 1515   3.409   0.156   0.931 -0.2139 -0.4639  0.3992
  127poe    c23 1516   3.494   0.216   1.045  0.2298  0.2708 -0.3039
  127poe     o2 1517   3.388   0.233   1.137  0.4973  0.0782  0.0416
  127poe    c23 1518   3.427   0.296   1.257 -0.2630 -0.6375  0.6726
  127poe    c23 1519   3.297   0.331   1.332 -0.3388 -0.2074  0.3471
  127poe     o2 1520   3.209   0.373   1.231 -0.1095 -0.0114  0.2282
  127poe    c23 1521   3.085   0.428   1.270  0.1544  0.6042  0.2142
  127poe    c23 1522   2.982   0.416   1.156  0.2196 -0.3729  0.2533
  127poe     o2 1523   3.059   0.395   1.040  0.0976  0.1607  0.0778
  127poe    c31 1524   2.981   0.386   0.922 -0.2391  0.0794  0.3035
  128poe    c31 1525   2.205   0.218   2.477  0.2194 -0.5865 -0.5664
  128poe     o2 1526   2.202   0.093   2.542 -0.3431 -0.3933 -0.2097
  128poe    c23 1527   2.332   0.044   2.568 -0.1371  0.1934 -0.1311
  128poe    c23 1528   2.334  -0.109   2.552  0.2196  0.1319  0.4617
  128poe     o2 1529   2.197  -0.137   2.574  0.0082  0.0443 -0.8864
  128poe    c23 1530   2.166  -0.274   2.586 -0.3974  0.2647  0.7652
  128poe    c23 1531   2.037  -0.283   2.503  0.0448 -0.1343  0.1113
  128poe     o2 1532   1.963  -0.163   2.515  0.4296  0.1062  0.0985
  128poe    c23 1533   1.849  -0.140   2.435 -0.0626 -0.0081  0.7617
  128poe    c23 1534   1.794  -0.020   2.514 -0.3857  0.3032  0.0748
  128poe     o2 1535   1.910   0.060   2.526 -0.4641  0.4050  0.1566
  128poe    c31 1536   1.879   0.194   2.557 -0.1689  0.4895  0.0857
  129poe    c31 1537   4.791   3.592   0.209  0.0779  0.1365 -0.2566
  129poe     o2 1538   4.706   3.608   0.097  0.4948  0.4076 -0.5343
  129poe    c23 1539   4.651   3.480   0.078 -0.5577  0.6829  0.5525
  129poe    c23 1540   4.584   3.469  -0.060  0.7329 -0.0966 -0.0298
  129poe     o2 1541   4.543   3.603  -0.078 -0.4728 -0.4225  0.2550
  129poe    c23 1542   4.422   3.623  -0.148 -0.1753 -0.0869 -0.1670
  129poe    c23 1543   4.388   3.773  -0.138 -0.1787 -0.0954 -0.0406
  129poe     o2 1544   4.464   3.807  -0.024 -0.4691 -0.1412  0.1674
  129poe    c23 1545   4.433   3.936   0.022 -0.0724 -0.2165  0.6567
  129poe    c23 1546   4.495   3.941   0.163  0.0347 -0.2509  0.6106
  129poe     o2 1547   4.625   3.889   0.148 -0.0598 -0.3127 -0.0309
  129poe    c31 1548   4.711   3.973   0.222 -0.7097  0.2254  0.1279
  130poe    c31 1549   2.754   2.970   5.687 -0.0698 -0.3837  0.2725
  130poe     o2 1550   2.841   3.075   5.727 -0.4356  0.0081  0.0463
  130poe    c23 1551   2.848   3.067   5.868  0.2809 -0.0532  0.0102
  130poe    c23 1552   2.968   3.157   5.903  0.1307  0.1018  0.1308
  130poe     o2 1553   2.939   3.276   5.833 -0.1419 -0.1932 -0.2648
  130poe    c23 1554   3.036   3.378   5.849 -0.6077  0.2492 -0.2289
  130poe    c23 1555   2.998   3.489   5.750 -0.3590  0.2552 -0.3175
  130poe     o2 1556   2.942   3.418   5.641 -0.3644  0.0042 -0.1516
  130poe    c23 1557   2.837   3.491   5.582 -0.3663  0.1002 -0.0321
  130poe    c23 1558   2.773   3.399   5.475 -0.2816  0.1425 -0.1193
  130poe     o2 1559   2.755   3.273   5.536  0.3505  0.1640  0.1253
  130poe    c31 1560   2.642   3.225   5.467  1.1226 -0.4576 -0.7253
  131poe    c31 1561   4.541   4.733   6.457 -0.1128  0.6734 -0.1887
  131poe     o2 1562   4.506   4.778   6.586  0.6378  0.9505 -0.0808
  131poe    c23 1563   4.623   4.770   6.666  0.5940 -0.0008 -0.0936
  131poe    c23 1564   4.568   4.821   6.801  0.3244 -0.1231 -0.1563
  131poe     o2 1565   4.442   4.759   6.812  0.1801  0.2232  0.1270
  131poe    c23 1566   4.376   4.768   6.937 -0.4226  0.1041 -0.1820
  131poe    c23 1567   4.233   4.712   6.919 -0.3695 -0.0742 -0.0447
  131poe     o2 1568   4.201   4.747   6.786 -0.1256 -0.0490 -0.0982
  131poe    c23 1569   4.076   4.699   6.742 -0.0281 -0.4049  0.0063
  131poe    c23 1570   4.075   4.724   6.590  0.4537 -0.2137  0.0318
  131poe     o2 1571   4.206   4.719   6.541  0.5123 -0.5779  0.2211
  131poe    c31 1572   4.206   4.697   6.401 -0.0842  0.1762  0.0976
  132poe    c31 1573   5.188   3.476   1.969 -0.0865  0.2288 -0.5503
  132poe     o2 1574   5.097   3.561   1.903 -0.4486  0.3594  0.1050
  132poe    c23 1575   5.112   3.559   1.763 -0.5074 -0.2727  0.1012
  132poe    c23 1576   5.058   3.692   1.705  0.2295  0.0595  0.1649
  132poe     o2 1577   4.960   3.748   1.789 -0.4198 -0.1731 -0.4247
  132poe    c23 1578   4.908   3.869   1.739  0.1187  0.3356  0.2255
  132poe    c23 1579   4.832   3.936   1.856 -0.2338  0.0556  0.1588
  132poe     o2 1580   4.705   3.878   1.877 -0.2652  0.0907  0.0670
  132poe    c23 1581   4.686   3.858   2.015  0.1468  0.1056  0.1291
  132poe    c23 1582   4.682   3.707   2.045  0.0773 -0.0095 -0.4497
  132poe     o2 1583   4.803   3.639   2.020 -0.1458 -0.1224 -1.2474
  132poe    c31 1584   4.784   3.501   2.043  0.2877  0.0060 -0.0700
  133poe    c31 1585   6.055   6.028   2.118  0.2907 -0.0787  0.0129
  133poe     o2 1586   6.026   6.126   2.215 -0.3129  0.0774 -0.3186
  133poe    c23 1587   6.047   6.254   2.158  0.2773 -0.1269 -0.5769
  133poe    c23 1588   6.184   6.317   2.186  0.1821 -0.2798  0.2658
  133poe     o2 1589   6.202   6.381   2.310 -0.0546 -0.1202  0.2178
  133poe    c23 1590   6.328   6.441   2.329 -0.3299  0.4681  0.2085
  133poe    c23 1591   6.341   6.474   2.479 -0.1542 -0.1301  0.3286
  133poe     o2 1592   6.265   6.588   2.515  0.2715  0.3311 -0.2229
  133poe    c23 1593   6.303   6.626   2.645 -0.4332  0.0214  0.0729
  133poe    c23 1594   6.222   6.746   2.699 -0.0613  0.3070 -0.0043
  133poe     o2 1595   6.089   6.722   2.661  0.0609 -0.2058 -0.1191
  133poe    c31 1596   6.007   6.832   2.694  0.5833  0.1411  0.0272
  134poe    c31 1597   4.853   1.357   0.066 -0.5523 -0.8245  0.2263
  134poe     o2 1598   4.850   1.370   0.206 -0.0054 -0.0853  0.1724
  134poe    c23 1599   4.851   1.501   0.260  0.2706 -0.0514  0.0902
  134poe    c23 1600   4.903   1.516   0.404  0.1105 -0.4916  0.1942
  134poe     o2 1601   4.849   1.401   0.467  0.1821 -0.4419  0.3461
  134poe    c23 1602   4.907   1.387   0.594  0.2422 -0.1007  0.3565
  134poe    c23 1603   4.831   1.259   0.633 -0.2295  0.0976  0.0874
  134poe     o2 1604   4.813   1.170   0.525 -0.2385  0.4506 -0.2066
  134poe    c23 1605   4.692   1.099   0.541  0.1534 -0.0486  0.5925
  134poe    c23 1606   4.638   1.069   0.400 -0.3180  0.2907  0.7025
  134poe     o2 1607   4.665   1.177   0.314  0.1633 -0.4116 -0.0418
  134poe    c31 1608   4.567   1.169   0.213  0.5955 -0.6689 -0.4446
  135poe    c31 1609   3.517   2.722   1.515 -0.1410 -0.3600 -0.1249
  135poe     o2 1610   3.509   2.610   1.600 -0.2592 -0.4612 -0.2692
  135poe    c23 1611   3.619   2.525   1.576  0.0900 -0.1051  0.0445
  135poe    c23 1612   3.591   2.388   1.641  0.4949 -0.1538  0.1182
  135poe     o2 1613   3.582   2.414   1.779  0.3974  0.0003  0.0824
  135poe    c23 1614   3.610   2.300   1.856  0.0186 -0.1917 -0.0626
  135poe    c23 1615   3.581   2.310   2.007  0.0925 -0.0191 -0.0606
  135poe     o2 1616   3.450   2.279   2.047 -0.0195  0.0459 -0.3812
  135poe    c23 1617   3.456   2.266   2.187  0.1306  0.4286 -0.3515
  135poe    c23 1618   3.309   2.248   2.228  0.3433  0.1421  0.3046
  135poe     o2 1619   3.249   2.138   2.164  0.2451  0.1036  0.4628
  135poe    c31 1620   3.170   2.050   2.242 -0.1181  0.0037 -0.0137
  136poe    c31 1621   4.826   5.117   1.429 -0.5322 -0.2466  0.3458
  136poe     o2 1622   4.697   5.078   1.388 -0.4147 -0.0788 -0.1968
  136poe    c23 1623   4.662   4.970   1.472  0.2617 -0.0966  0.0679
  136poe    c23 1624   4.531   4.900   1.431  0.5239 -0.3341 -0.3867
  136poe     o2 1625   4.448   4.997   1.372 -0.1177 -0.5724  0.1119
  136poe    c23 1626   4.352   4.932   1.292 -0.4492 -0.4661  0.4207
  136poe    c23 1627   4.295   5.043   1.203  0.1766  0.0995  0.7194
  136poe     o2 1628   4.411   5.112   1.162  0.1213 -0.0674  0.2814
  136poe    c23 1629   4.380   5.220   1.077 -0.3521 -0.2562  0.2110
  136poe    c23 1630   4.522   5.269   1.044 -0.3538 -0.1030  0.4306
  136poe     o2 1631   4.597   5.267   1.164  0.5066 -0.3187 -0.0984
  136poe    c31 1632   4.715   5.344   1.161  0.5526 -0.3950 -0.2465
  137poe    c31 1633   0.054   5.240   3.835 -0.9573 -0.3337  0.1666
  137poe     o2 1634   0.042   5.191   3.967 -0.2143 -0.2753  0.2648
  137poe    c23 1635   0.166   5.183   4.033 -0.5278  0.7600  1.0183
  137poe    c23 1636   0.157   5.080   4.147  0.2636 -0.0908  0.3313
  137poe     o2 1637   0.061   5.132   4.236  0.1369 -0.1671  0.2399
  137poe    c23 1638   0.017   5.031   4.324  0.0823 -0.5142 -0.1802
  137poe    c23 1639  -0.119   5.074   4.381 -0.0728 -0.9498 -0.2226
  137poe     o2 1640  -0.188   5.113   4.265  0.6499  0.1873 -0.2836
  137poe    c23 1641  -0.270   5.008   4.218  0.5415  0.0090  0.2972
  137poe    c23 1642  -0.335   5.080   4.099 -0.0164 -0.4921  0.2937
  137poe     o2 1643  -0.234   5.129   4.013 -0.6736  0.3123 -0.0367
  137poe    c31 1644  -0.278   5.164   3.883  0.0428  0.5231 -0.2252
  138poe    c31 1645   5.985   3.025   1.996 -0.0095 -0.2014  0.3279
  138poe     o2 1646   5.994   3.046   2.135  0.1643  0.6021  0.1966
  138poe    c23 1647   5.865   3.061   2.191  0.1068 -0.2796  0.3110
  138poe    c23 1648   5.872   3.118   2.333 -0.0304  0.0003  0.2063
  138poe     o2 1649   5.971   3.050   2.407 -0.0550 -0.0118  0.2285
  138poe    c23 1650   6.027   3.144   2.495 -0.9216 -0.0317  0.8099
  138poe    c23 1651   6.165   3.083   2.524 -0.4760  0.6429  0.1405
  138poe     o2 1652   6.229   3.085   2.398 -0.1079  0.0431  0.3183
  138poe    c23 1653   6.366   3.051   2.406  0.0462  0.7249  0.6306
  138poe    c23 1654   6.386   3.059   2.253  0.1439 -0.1828  0.5898
  138poe     o2 1655   6.287   2.995   2.177  0.2692  0.5115 -0.1717
  138poe    c31 1656   6.339   2.984   2.046  0.2956  0.1746 -0.1343
  139poe    c31 1657   5.573   4.103   1.848 -0.7366 -0.3913 -0.0875
  139poe     o2 1658   5.657   4.013   1.778  0.0423  0.0206  0.2964
  139poe    c23 1659   5.623   4.011   1.641 -0.1788 -0.2999  0.3548
  139poe    c23 1660   5.748   3.985   1.555 -0.0666  0.1883  0.3667
  139poe     o2 1661   5.810   3.871   1.610  0.0014  0.3526  0.6283
  139poe    c23 1662   5.947   3.864   1.576 -0.1777  0.0088 -0.0298
  139poe    c23 1663   6.029   3.781   1.677  0.0730  0.5502  0.2151
  139poe     o2 1664   5.978   3.830   1.799  0.1279  0.0458  0.4436
  139poe    c23 1665   6.007   3.750   1.911  0.2936 -0.5863 -0.0436
  139poe    c23 1666   5.934   3.831   2.020  0.2828 -0.2863 -0.2726
  139poe     o2 1667   5.798   3.855   1.993  0.2741 -0.0112  0.0080
  139poe    c31 1668   5.744   3.930   2.099  1.2271 -0.0717  0.5409
  140poe    c31 1669   4.546   6.266   5.340 -0.2692 -0.4145  0.0353
  140poe     o2 1670   4.488   6.355   5.247  0.5574  0.0205 -0.0823
  140poe    c23 1671   4.376   6.292   5.189  0.4823  0.0295  0.0543
  140poe    c23 1672   4.326   6.366   5.063 -0.4372 -0.3437  0.1844
  140poe     o2 1673   4.329   6.505   5.088  0.1417 -0.2256 -0.4987
  140poe    c23 1674   4.380   6.581   4.981  0.3353  0.2044 -0.1025
  140poe    c23 1675   4.408   6.723   5.035  0.2332  0.3649 -0.4728
  140poe     o2 1676   4.483   6.710   5.153 -0.3840  0.1390 -0.0981
  140poe    c23 1677   4.441   6.798   5.255  0.0731  0.0770  0.1495
  140poe    c23 1678   4.472   6.719   5.383 -0.1073 -0.2015  0.0219
  140poe     o2 1679   4.400   6.599   5.366 -0.2310 -0.1495  0.1759
  140poe    c31 1680   4.351   6.542   5.486 -0.2927 -0.3605  0.0520
  141poe    c31 1681   1.670   4.473   1.428  0.0181  0.4354  0.3961
  141poe     o2 1682   1.688   4.335   1.451  0.0560  0.3906  0.1012
  141poe    c23 1683   1.765   4.325   1.569 -0.5291 -0.1863  0.4433
  141poe    c23 1684   1.886   4.233   1.544 -0.3160  0.3070 -0.4151
  141poe     o2 1685   1.860   4.102   1.498  0.2358  0.2997 -0.7076
  141poe    c23 1686   1.980   4.027   1.500 -0.0370 -0.1348 -0.3212
  141poe    c23 1687   1.950   3.880   1.466  0.5752 -0.2594 -0.3154
  141poe     o2 1688   1.870   3.880   1.351  0.2331 -0.1010 -0.0777
  141poe    c23 1689   1.835   3.749   1.309  0.2585 -0.1396  0.0240
  141poe    c23 1690   1.745   3.753   1.185  0.0115 -0.2133  0.1991
  141poe     o2 1691   1.627   3.822   1.218  0.2288  0.3611 -0.1955
  141poe    c31 1692   1.524   3.803   1.123  0.4214 -0.1024 -0.3140
  142poe    c31 1693   5.256   1.671   5.254 -0.1593 -0.2773  0.0068
  142poe     o2 1694   5.330   1.604   5.155  0.2521  0.0208  0.1089
  142poe    c23 1695   5.427   1.524   5.219 -0.1961 -0.1743  0.5573
  142poe    c23 1696   5.500   1.441   5.111 -0.3362  0.3428  0.0586
  142poe     o2 1697   5.399   1.414   5.017 -0.3052  0.0561  0.1050
  142poe    c23 1698   5.430   1.349   4.895 -0.3817 -0.0693  0.1525
  142poe    c23 1699   5.295   1.341   4.822 -0.2070  0.2487 -0.2098
  142poe     o2 1700   5.238   1.470   4.828 -0.0937  0.2962 -0.1494
  142poe    c23 1701   5.100   1.477   4.803 -0.1168  0.7849  0.1061
  142poe    c23 1702   5.056   1.620   4.839 -0.4011  0.7725 -0.1822
  142poe     o2 1703   5.097   1.652   4.971  0.1869 -0.0644 -0.1561
  142poe    c31 1704   5.061   1.785   4.998 -0.4395 -0.2548 -0.0177
  143poe    c31 1705   4.848   4.907   2.313  0.3542  0.3224 -0.5040
  143poe     o2 1706   4.752   5.008   2.289 -0.3276 -0.0650  0.5571
  143poe    c23 1707   4.621   4.961   2.265 -0.2730  0.0468  0.0356
  143poe    c23 1708   4.535   5.073   2.203 -0.4785 -0.3234 -0.3507
  143poe     o2 1709   4.609   5.133   2.099  0.2303 -0.0741  0.2971
  143poe    c23 1710   4.573   5.259   2.047  0.0628 -0.2920 -0.1164
  143poe    c23 1711   4.700   5.302   1.972 -0.1871  0.3630 -0.1735
  143poe     o2 1712   4.811   5.297   2.059 -0.0694 -0.0866 -0.3465
  143poe    c23 1713   4.931   5.319   1.987  0.4524  0.5524  0.6880
  143poe    c23 1714   5.048   5.278   2.078  0.3743  0.2294  0.6465
  143poe     o2 1715   5.007   5.176   2.165 -0.0691 -0.0681  0.0958
  143poe    c31 1716   5.119   5.147   2.247  0.0810  0.2327 -0.0038
  144poe    c31 1717   5.580   1.168   4.087 -0.4413  0.2516 -0.0570
  144poe     o2 1718   5.583   1.290   4.156  0.1180  0.2977 -0.1522
  144poe    c23 1719   5.711   1.325   4.203 -0.1129  0.2305  0.5479
  144poe    c23 1720   5.715   1.477   4.231  0.3359  0.4019 -0.3739
  144poe     o2 1721   5.597   1.496   4.306  0.0399  0.1783 -0.7793
  144poe    c23 1722   5.555   1.628   4.329 -0.0725  0.0232 -0.0630
  144poe    c23 1723   5.427   1.625   4.414  0.0857  0.1435  0.1834
  144poe     o2 1724   5.353   1.521   4.354  0.7131 -0.4738  0.4641
  144poe    c23 1725   5.242   1.476   4.429  0.3111  0.0578  0.1955
  144poe    c23 1726   5.174   1.374   4.336 -0.1207 -0.0734  0.6469
  144poe     o2 1727   5.283   1.309   4.274 -0.4784 -0.2610  0.2106
  144poe    c31 1728   5.227   1.192   4.217 -0.5294  0.3304 -0.9872
  145poe    c31 1729   5.502   4.228   3.323  0.8632  0.0851 -0.2854
  145poe     o2 1730   5.422   4.228   3.207  0.4842 -0.1357 -0.0256
  145poe    c23 1731   5.377   4.361   3.189  0.3019 -0.2294 -0.2601
  145poe    c23 1732   5.275   4.341   3.075  0.1475 -0.5431 -0.0695
  145poe     o2 1733   5.334   4.259   2.977 -0.1268 -0.7359 -0.0737
  145poe    c23 1734   5.255   4.224   2.865 -0.0051 -0.3597 -0.2810
  145poe    c23 1735   5.342   4.111   2.808  0.3934 -0.1595 -0.0728
  145poe     o2 1736   5.376   4.028   2.917  0.2117 -0.0588  0.0609
  145poe    c23 1737   5.484   3.945   2.879  0.3373  0.0628  0.1524
  145poe    c23 1738   5.526   3.865   3.004 -0.2837  0.1395  0.4157
  145poe     o2 1739   5.527   3.958   3.110  0.2019  0.2021  0.3630
  145poe    c31 1740   5.549   3.894   3.234  0.5217  0.6675  0.5477
  146poe    c31 1741   4.381   1.662   3.281 -0.5680  0.0620  0.0834
  146poe     o2 1742   4.392   1.522   3.274  0.2952  0.1374 -0.1175
  146poe    c23 1743   4.373   1.468   3.403  0.1339  0.3438 -0.0546
  146poe    c23 1744   4.360   1.315   3.390  0.4687  0.2775  0.4075
  146poe     o2 1745   4.477   1.275   3.322  0.0782 -0.2635  0.0417
  146poe    c23 1746   4.494   1.138   3.296 -0.0036 -0.2026 -0.3317
  146poe    c23 1747   4.585   1.137   3.171 -0.4182 -0.2218 -0.6358
  146poe     o2 1748   4.536   1.239   3.087  0.0177  0.5265 -0.0068
  146poe    c23 1749   4.613   1.260   2.970 -0.4957 -0.4270 -0.5369
  146poe    c23 1750   4.528   1.371   2.905  0.3028  0.5386  0.0391
  146poe     o2 1751   4.477   1.456   3.006 -0.0242  0.0791  0.2677
  146poe    c31 1752   4.357   1.521   2.968 -0.0630 -0.0392  0.1892
  147poe    c31 1753   2.689   2.261   0.098  0.1524  0.2557 -0.2182
  147poe     o2 1754   2.783   2.163   0.136 -0.0858  0.0937 -0.0497
  147poe    c23 1755   2.838   2.116   0.015 -0.0167  0.1984 -0.0580
  147poe    c23 1756   2.973   2.046   0.039  0.1808  0.5107 -0.2386
  147poe     o2 1757   2.954   1.976   0.161  0.3473  0.4951 -0.2213
  147poe    c23 1758   3.066   1.906   0.210  0.0002  0.4407  0.4962
  147poe    c23 1759   3.036   1.827   0.339 -0.4052 -0.1418  0.0479
  147poe     o2 1760   2.940   1.907   0.404 -0.3563  0.5194 -0.6835
  147poe    c23 1761   2.830   1.829   0.445  0.0592  0.4367  0.2918
  147poe    c23 1762   2.729   1.932   0.499 -0.6499  0.0620 -0.3145
  147poe     o2 1763   2.700   2.019   0.392  0.0058  0.5437 -0.1023
  147poe    c31 1764   2.611   2.114   0.445  0.0943  0.5310  0.0688
  148poe    c31 1765   2.933   3.089   2.110 -0.1862 -0.0345  0.0942
  148poe     o2 1766   2.828   3.123   2.023 -0.0684 -0.0845 -0.0706
  148poe    c23 1767   2.837   3.057   1.899 -0.2543  0.0736 -0.1702
  148poe    c23 1768   2.750   3.115   1.787 -0.1654 -0.2714 -0.4189
  148poe     o2 1769   2.624   3.133   1.848 -0.0782  0.1362 -0.3563
  148poe    c23 1770   2.537   3.218   1.778 -0.1536  0.2862 -0.0838
  148poe    c23 1771   2.432   3.274   1.876 -0.3095 -0.1383 -0.0035
  148poe     o2 1772   2.517   3.305   1.984  0.6503 -0.4684 -0.6462
  148poe    c23 1773   2.463   3.385   2.087 -0.1092 -0.8995 -0.6997
  148poe    c23 1774   2.584   3.386   2.182 -0.7615 -0.6534  0.1386
  148poe     o2 1775   2.653   3.263   2.181  0.5439  0.0557 -0.3817
  148poe    c31 1776   2.706   3.247   2.311  0.5305 -0.1189 -0.3971
  149poe    c31 1777   2.222   3.253   5.358 -0.8581  0.2805  0.3967
  149poe     o2 1778   2.174   3.141   5.286 -0.2833  0.0607  0.3456
  149poe    c23 1779   2.133   3.041   5.376 -0.0152 -0.2616  0.1070
  149poe    c23 1780   2.156   2.913   5.293  0.3329  0.1125 -0.3742
  149poe     o2 1781   2.089   2.916   5.169  0.1217  0.1537 -0.2596
  149poe    c23 1782   2.120   2.810   5.081  0.4782  0.0927 -0.0650
  149poe    c23 1783   2.096   2.862   4.938  0.2331 -0.2682 -0.1569
  149poe     o2 1784   2.135   2.997   4.940 -0.4635 -0.0627 -0.3241
  149poe    c23 1785   2.132   3.060   4.813 -0.2427  0.1183 -0.2405
  149poe    c23 1786   2.206   3.195   4.821  0.3921 -0.2136 -0.3739
  149poe     o2 1787   2.193   3.242   4.953  0.0090  0.4135 -0.6314
  149poe    c31 1788   2.268   3.361   4.970 -0.2073  0.4545  0.0663
  150poe    c31 1789   3.858   6.624   6.094 -0.2842 -0.3464  0.7417
  150poe     o2 1790   3.972   6.690   6.144  0.1489 -0.4273 -0.1234
  150poe    c23 1791   4.011   6.797   6.062 -0.8548  0.3766  0.4166
  150poe    c23 1792   4.121   6.869   6.143  0.1336 -0.4875 -0.1322
  150poe     o2 1793   4.193   6.772   6.217  0.5345  0.0946  0.2498
  150poe    c23 1794   4.305   6.828   6.282  0.6103  0.0891  0.1251
  150poe    c23 1795   4.411   6.716   6.274  0.5269  0.0224 -0.0650
  150poe     o2 1796   4.373   6.602   6.347 -0.0691 -0.1480 -0.6372
  150poe    c23 1797   4.485   6.538   6.403 -0.3522 -0.1140 -0.0241
  150poe    c23 1798   4.460   6.412   6.487 -0.5111  0.1620  0.3460
  150poe     o2 1799   4.401   6.306   6.415  0.2713 -0.0536  0.0130
  150poe    c31 1800   4.489   6.197   6.411  0.0230 -0.2464 -0.2489
  151poe    c31 1801   5.216   0.292   0.169 -0.4832  0.1260  0.6897
  151poe     o2 1802   5.123   0.270   0.066  0.1835 -0.1256  0.1309
  151poe    c23 1803   5.040   0.384   0.058  0.4264  0.0857  0.5601
  151poe    c23 1804   5.076   0.460  -0.071 -0.4805 -0.3389  0.0475
  151poe     o2 1805   5.103   0.356  -0.163  0.6079  0.3135 -0.3908
  151poe    c23 1806   5.176   0.399  -0.277 -0.3050  0.6257 -0.8669
  151poe    c23 1807   5.192   0.277  -0.370  0.5517  0.1375 -0.1013
  151poe     o2 1808   5.223   0.162  -0.295 -0.1757 -0.6125 -0.9152
  151poe    c23 1809   5.359   0.133  -0.271 -0.0970  0.3215 -0.1777
  151poe    c23 1810   5.355   0.012  -0.177 -0.5296  0.0097 -0.5979
  151poe     o2 1811   5.279   0.057  -0.067  0.4976  0.2492  0.0267
  151poe    c31 1812   5.253  -0.051   0.020  0.3849 -0.2484 -0.6155
  152poe    c31 1813   0.565   1.797   1.987  0.1996  0.5446  0.0925
  152poe     o2 1814   0.556   1.840   1.854 -0.0269 -0.4824 -0.2382
  152poe    c23 1815   0.431   1.810   1.796 -0.3205  0.0689  0.1027
  152poe    c23 1816   0.406   1.859   1.652 -0.3495  0.2661  0.1733
  152poe     o2 1817   0.525   1.822   1.586 -0.1615  0.6012  0.3239
  152poe    c23 1818   0.543   1.889   1.463  0.2355 -0.2302 -0.0791
  152poe    c23 1819   0.680   1.830   1.424  0.4517  0.3570 -0.2198
  152poe     o2 1820   0.761   1.842   1.538 -0.0031  0.2218  0.1219
  152poe    c23 1821   0.871   1.753   1.529 -0.1952  0.0407 -0.4726
  152poe    c23 1822   0.939   1.763   1.667 -0.2057 -0.2821 -0.4443
  152poe     o2 1823   0.840   1.779   1.766  0.0319 -0.7048 -0.1333
  152poe    c31 1824   0.894   1.765   1.896  0.1092  0.2752 -0.0516
  153poe    c31 1825   5.642   5.367   5.775  0.5721  0.5861  0.1006
  153poe     o2 1826   5.588   5.296   5.665 -0.0389  0.2867  0.5899
  153poe    c23 1827   5.499   5.193   5.705  0.3197 -0.0947  0.4135
  153poe    c23 1828   5.404   5.167   5.586  0.5400 -0.1425  0.2470
  153poe     o2 1829   5.486   5.176   5.472 -0.2680  0.6270 -0.2841
  153poe    c23 1830   5.407   5.202   5.357 -0.0960 -0.4901 -0.6626
  153poe    c23 1831   5.510   5.222   5.244 -0.0690 -0.1026 -0.5698
  153poe     o2 1832   5.615   5.296   5.303 -0.3414 -0.0915 -0.0902
  153poe    c23 1833   5.729   5.305   5.220 -0.0823  0.2458  0.3038
  153poe    c23 1834   5.845   5.323   5.320 -0.1361  0.4015  0.3392
  153poe     o2 1835   5.809   5.301   5.455 -0.2580 -0.7860  0.1271
  153poe    c31 1836   5.924   5.283   5.536  0.0113 -0.0793 -0.0913
  154poe    c31 1837   3.790   4.808   0.713 -0.0226 -0.1593  0.0739
  154poe     o2 1838   3.834   4.703   0.630  0.4155  0.1014 -0.0218
  154poe    c23 1839   3.970   4.726   0.598  0.3544  0.0160 -0.3437
  154poe    c23 1840   4.018   4.611   0.508 -0.0445 -0.2627 -0.2049
  154poe     o2 1841   3.914   4.581   0.418 -0.5169 -0.5262  0.4181
  154poe    c23 1842   3.923   4.450   0.368  0.0889 -0.1734 -0.4493
  154poe    c23 1843   3.788   4.416   0.301 -0.3428  0.2367  0.1985
  154poe     o2 1844   3.702   4.443   0.410  0.1744  0.4962  0.5481
  154poe    c23 1845   3.565   4.430   0.382  0.3500  0.4680 -0.3266
  154poe    c23 1846   3.510   4.461   0.522  0.1022 -0.1078 -0.2947
  154poe     o2 1847   3.570   4.573   0.585  0.1790 -0.1679 -0.2606
  154poe    c31 1848   3.477   4.649   0.659  0.5063 -0.2201  0.2092
  155poe    c31 1849   3.154   6.053   5.242  0.1642 -0.0954  0.1737
  155poe     o2 1850   3.056   6.155   5.245  0.1419 -0.1200  0.2669
  155poe    c23 1851   2.951   6.116   5.158 -0.1120  0.5360  0.2764
  155poe    c23 1852   2.823   6.189   5.201 -0.5229  0.0524 -0.1248
  155poe     o2 1853   2.843   6.325   5.172 -0.4524  0.1068  0.1732
  155poe    c23 1854   2.739   6.412   5.212 -0.8979 -0.0860 -0.5504
  155poe    c23 1855   2.786   6.559   5.215 -0.2266 -0.2980 -0.4065
  155poe     o2 1856   2.908   6.539   5.282 -0.2905  0.3240 -0.0994
  155poe    c23 1857   2.975   6.651   5.335 -0.3603 -0.0731  0.8450
  155poe    c23 1858   3.093   6.576   5.400 -0.0014  0.1099  0.4106
  155poe     o2 1859   3.147   6.490   5.302 -0.5974 -0.0174  0.1898
  155poe    c31 1860   3.261   6.421   5.348 -0.3400  0.0529 -0.3390
  156poe    c31 1861   1.669   1.967   5.861 -0.0370 -0.6024  0.1276
  156poe     o2 1862   1.642   2.063   5.762  0.6773 -0.2673  0.2554
  156poe    c23 1863   1.502   2.065   5.746  0.7082 -0.2120 -0.0075
  156poe    c23 1864   1.467   2.186   5.657  0.1671 -0.1451  0.2899
  156poe     o2 1865   1.531   2.169   5.532 -0.0514 -0.0099  0.1600
  156poe    c23 1866   1.539   2.285   5.453 -0.4465  0.3803  0.6840
  156poe    c23 1867   1.659   2.271   5.358 -0.4468  0.4382  0.6744
  156poe     o2 1868   1.763   2.218   5.438  0.0177  0.0685 -0.1549
  156poe    c23 1869   1.861   2.158   5.357  0.0906  0.3881 -0.3034
  156poe    c23 1870   1.953   2.075   5.449 -0.1690  0.3474 -0.0791
  156poe     o2 1871   1.876   2.042   5.562 -0.4569  0.4788 -0.2337
  156poe    c31 1872   1.970   2.041   5.668 -0.0813  0.5622 -0.5640
  157poe    c31 1873   0.280   4.396   0.251 -0.0678  0.0860  0.4121
  157poe     o2 1874   0.386   4.468   0.310 -0.0715  0.1961  0.2855
  157poe    c23 1875   0.343   4.537   0.425 -0.4934 -0.1480  0.3345
  157poe    c23 1876   0.464   4.603   0.494 -0.5576  0.2071  0.1045
  157poe     o2 1877   0.514   4.686   0.391  0.2459 -0.4479 -0.0368
  157poe    c23 1878   0.630   4.757   0.428  0.1458 -0.4387  0.2597
  157poe    c23 1879   0.712   4.769   0.299 -0.0333  0.0257  0.1910
  157poe     o2 1880   0.728   4.634   0.262  0.2122  0.0465  0.2163
  157poe    c23 1881   0.804   4.614   0.145 -0.0672  0.1752  0.0093
  157poe    c23 1882   0.785   4.464   0.116 -0.5717  0.2141  0.1426
  157poe     o2 1883   0.650   4.429   0.141 -0.5992  0.0615 -0.2230
  157poe    c31 1884   0.637   4.294   0.102  0.1391 -0.0038 -0.2697
  158poe    c31 1885   2.380   6.096   3.934 -0.0986 -0.4352 -0.0099
  158poe     o2 1886   2.265   6.025   3.893 -0.1261 -0.4113  0.0259
  158poe    c23 1887   2.166   6.042   3.992  0.1893  0.7125  0.1683
  158poe    c23 1888   2.037   5.981   3.932  0.3804  0.5246 -0.0554
  158poe     o2 1889   2.074   5.858   3.875 -0.2805  0.1907  0.2287
  158poe    c23 1890   1.967   5.792   3.813  0.0719 -0.4254  0.2674
  158poe    c23 1891   1.986   5.823   3.663  0.1954  0.2866  0.4282
  158poe     o2 1892   2.126   5.836   3.657  0.1347  0.7874 -0.0013
  158poe    c23 1893   2.177   5.823   3.527 -0.2862  0.3484 -0.1263
  158poe    c23 1894   2.330   5.818   3.543 -0.2640  0.1673 -0.3800
  158poe     o2 1895   2.362   5.912   3.644  0.0849 -0.4441  0.0886
  158poe    c31 1896   2.489   5.967   3.615 -0.0523 -0.1888 -0.0351
  159poe    c31 1897   0.320   4.014   5.805  0.4734 -0.4612  0.5225
  159poe     o2 1898   0.201   4.077   5.763  0.6307 -0.1337  0.5659
  159poe    c23 1899   0.167   4.150   5.880 -0.0935  0.0598  0.2440
  159poe    c23 1900   0.016   4.135   5.903 -0.1348 -0.2998 -0.2312
  159poe     o2 1901  -0.042   4.162   5.778  0.0281  0.1827 -0.2059
  159poe    c23 1902  -0.163   4.092   5.754  0.1508  0.0057 -0.3141
  159poe    c23 1903  -0.196   4.105   5.604  0.4609 -0.4889 -0.4253
  159poe     o2 1904  -0.078   4.035   5.569  0.5026 -0.6542  0.0432
  159poe    c23 1905  -0.067   4.035   5.429  0.3780 -0.5646  0.0329
  159poe    c23 1906   0.072   3.981   5.391  0.4233 -0.0038 -0.6269
  159poe     o2 1907   0.159   4.048   5.479  0.3916 -0.0255 -0.5799
  159poe    c31 1908   0.292   4.011   5.452  0.5122 -0.4398  0.5169
  160poe    c31 1909   1.467   0.361   6.414 -0.9013 -0.4202 -0.0652
  160poe     o2 1910   1.540   0.246   6.377 -0.2147 -0.0302  0.0505
  160poe    c23 1911   1.672   0.285   6.347 -0.1730 -0.2600 -0.0648
  160poe    c23 1912   1.733   0.206   6.230  0.4743  0.1424 -0.0031
  160poe     o2 1913   1.736   0.069   6.265  0.0731  0.3244  0.7438
  160poe    c23 1914   1.799  -0.012   6.169  0.0758  0.8109  0.3317
  160poe    c23 1915   1.835  -0.152   6.221 -0.2932  0.5071 -0.2236
  160poe     o2 1916   1.717  -0.191   6.289  0.2402  0.2714  0.5705
  160poe    c23 1917   1.727  -0.329   6.318  0.0815  0.2373  0.4597
  160poe    c23 1918   1.583  -0.369   6.355 -0.0029 -0.0161 -0.1213
  160poe     o2 1919   1.532  -0.293   6.463  0.1384 -0.4063  0.2207
  160poe    c31 1920   1.399  -0.336   6.479 -0.0152  0.0203  0.1058
  161poe    c31 1921   1.434   5.114   5.993  0.5626 -0.0836  0.6676
  161poe     o2 1922   1.394   5.131   6.127 -0.2565 -0.1274  0.4326
  161poe    c23 1923   1.489   5.214   6.189  0.1982 -0.5134  0.2552
  161poe    c23 1924   1.466   5.182   6.338 -0.0862  0.3390  0.3962
  161poe     o2 1925   1.448   5.045   6.365  0.1043  0.1691 -0.3194
  161poe    c23 1926   1.413   5.028   6.501 -0.4707  0.1121 -0.4730
  161poe    c23 1927   1.372   4.879   6.511  0.3755 -0.0922  0.0526
  161poe     o2 1928   1.299   4.859   6.392 -0.0690  0.6260  0.1981
  161poe    c23 1929   1.161   4.884   6.399 -0.2829 -0.5911  0.4216
  161poe    c23 1930   1.102   4.844   6.263  0.0063 -0.2339  0.1919
  161poe     o2 1931   1.188   4.927   6.188 -0.3086  0.2777  0.4004
  161poe    c31 1932   1.145   4.926   6.054  0.0693  0.4574  0.2759
  162poe    c31 1933   5.629   3.866   0.632  0.2307  0.0831 -0.2001
  162poe     o2 1934   5.649   3.984   0.706  0.1659 -0.2486  0.3493
  162poe    c23 1935   5.539   4.034   0.779  0.3469  0.4182  0.1717
  162poe    c23 1936   5.603   4.074   0.913 -0.0019  0.2202  0.3969
  162poe     o2 1937   5.724   4.137   0.879 -0.2460  0.7046  0.4136
  162poe    c23 1938   5.808   4.153   0.991  0.1041  0.4250  0.1954
  162poe    c23 1939   5.935   4.213   0.930 -0.0161  0.2184 -0.2630
  162poe     o2 1940   5.983   4.120   0.835 -0.1233 -0.1156  0.0071
  162poe    c23 1941   6.072   4.177   0.741 -0.1283  0.2278  0.2080
  162poe    c23 1942   6.069   4.054   0.648  0.4471  0.1786  0.2518
  162poe     o2 1943   5.934   4.033   0.614  0.5085 -0.2077  0.2436
  162poe    c31 1944   5.938   3.972   0.487  0.0339  0.4903 -0.1110
  163poe    c31 1945   1.685   4.852   3.558  0.0856 -0.3325  0.0830
  163poe     o2 1946   1.580   4.900   3.477  0.1315 -0.0256  0.2035
  163poe    c23 1947   1.630   4.933   3.350  0.1093  0.2769  0.2723
  163poe    c23 1948   1.539   5.038   3.283 -0.0528 -0.2084 -0.2783
  163poe     o2 1949   1.492   5.128   3.381  0.0907 -0.1889 -0.2267
  163poe    c23 1950   1.424   5.238   3.325  0.1267  0.1790  0.4388
  163poe    c23 1951   1.392   5.351   3.424  0.0640  0.3825  0.1852
  163poe     o2 1952   1.315   5.282   3.520 -0.2833  0.1599 -0.2452
  163poe    c23 1953   1.365   5.320   3.647  0.5659 -0.1224 -0.4845
  163poe    c23 1954   1.359   5.200   3.743 -0.0552  0.3153  0.0360
  163poe     o2 1955   1.463   5.110   3.710 -0.0733  0.4861 -0.4939
  163poe    c31 1956   1.545   5.083   3.821 -0.6262 -0.1506 -0.2313
  164poe    c31 1957   0.163   1.340   0.603 -0.5241  0.0100  0.5215
  164poe     o2 1958   0.245   1.225   0.595  0.1283  0.4979  0.1018
  164poe    c23 1959   0.379   1.254   0.629  0.3239  0.1724 -0.3784
  164poe    c23 1960   0.460   1.130   0.673 -0.2672 -0.0723  0.0404
  164poe     o2 1961   0.435   1.025   0.581  0.8046 -0.1365 -0.1935
  164poe    c23 1962   0.456   0.897   0.635  0.1504 -0.1914 -0.0605
  164poe    c23 1963   0.371   0.807   0.542 -0.2421  0.2081 -0.0914
  164poe     o2 1964   0.237   0.848   0.559 -0.3607 -0.1504 -0.1656
  164poe    c23 1965   0.151   0.784   0.468 -0.3479  0.2066 -0.4277
  164poe    c23 1966   0.022   0.867   0.454 -0.3614  0.2229 -0.2026
  164poe     o2 1967   0.053   1.004   0.465  0.2710  0.0494  0.2654
  164poe    c31 1968  -0.058   1.090   0.447 -0.1860 -0.3893  0.9356
  165poe    c31 1969   5.128   5.615   4.668 -0.0661  0.2979  0.4421
  165poe     o2 1970   5.220   5.558   4.578 -0.1749 -0.1157  0.5917
  165poe    c23 1971   5.319   5.483   4.644 -0.3334 -0.2670  0.6597
  165poe    c23 1972   5.397   5.405   4.535 -0.8748  0.4505 -0.2531
  165poe     o2 1973   5.443   5.497   4.439  0.0930  0.0701 -0.1655
  165poe    c23 1974   5.465   5.446   4.309 -0.4899 -0.2069 -0.1595
  165poe    c23 1975   5.428   5.550   4.201 -0.1011  0.5425  0.4187
  165poe     o2 1976   5.293   5.587   4.220 -0.2538  0.1976  0.0133
  165poe    c23 1977   5.242   5.650   4.104 -0.0563 -0.8065 -0.6277
  165poe    c23 1978   5.089   5.635   4.110 -0.1425  0.3043  0.1497
  165poe     o2 1979   5.040   5.679   4.235  0.9599  0.0583  0.6828
  165poe    c31 1980   5.011   5.817   4.228  0.5466 -0.0698 -0.3086
  166poe    c31 1981   3.444   3.536   3.798  0.2141 -0.0756 -0.5064
  166poe     o2 1982   3.423   3.410   3.739  0.1554 -0.0580 -0.5227
  166poe    c23 1983   3.445   3.403   3.600 -0.3181 -0.2484 -0.5932
  166poe    c23 1984   3.483   3.258   3.567  0.3610 -0.0588 -0.6659
  166poe     o2 1985   3.386   3.176   3.627  0.3920  0.1048 -0.3916
  166poe    c23 1986   3.422   3.040   3.613  0.3774 -0.0259  0.7059
  166poe    c23 1987   3.303   2.972   3.683 -0.1660 -0.0141 -0.1826
  166poe     o2 1988   3.288   3.036   3.808  0.0116  0.4147 -0.3781
  166poe    c23 1989   3.167   3.014   3.877  0.1324 -0.4836 -0.4405
  166poe    c23 1990   3.173   3.121   3.987  0.1806 -0.2303 -0.6859
  166poe     o2 1991   3.241   3.231   3.931  0.5419 -0.0418  0.1018
  166poe    c31 1992   3.207   3.338   4.015  0.1639 -0.1744  0.1181
  167poe    c31 1993   6.558   6.109   1.806 -0.1055 -0.3097  0.4781
  167poe     o2 1994   6.538   5.970   1.795 -0.3521 -0.1655 -1.0696
  167poe    c23 1995   6.399   5.952   1.810 -0.3398  0.6725  0.1228
  167poe    c23 1996   6.353   5.867   1.691 -0.0075 -0.3048  0.6787
  167poe     o2 1997   6.453   5.768   1.695  0.0908 -0.2520 -0.1421
  167poe    c23 1998   6.430   5.657   1.611 -0.5038 -0.1663 -0.1013
  167poe    c23 1999   6.543   5.561   1.654 -0.0311  0.2007 -0.5036
  167poe     o2 2000   6.662   5.633   1.674  0.1933 -0.2334 -0.2613
  167poe    c23 2001   6.759   5.575   1.759 -0.3485  0.2009  0.6642
  167poe    c23 2002   6.860   5.690   1.778  0.0351  0.1707 -1.0216
  167poe     o2 2003   6.800   5.815   1.807 -0.2038 -0.0635 -0.4910
  167poe    c31 2004   6.897   5.902   1.862 -0.1657 -0.0717 -0.5460
  168poe    c31 2005   1.694   0.717   0.606  0.2390 -0.2266  0.5280
  168poe     o2 2006   1.636   0.610   0.536  0.3790  0.0515 -0.0229
  168poe    c23 2007   1.552   0.540   0.626 -0.1920  0.6341 -0.0978
  168poe    c23 2008   1.457   0.469   0.529  0.3388 -0.3571  0.0928
  168poe     o2 2009   1.533   0.450   0.412  0.2907 -0.1961  0.0344
  168poe    c23 2010   1.457   0.372   0.322  0.2012  0.3194 -0.3422
  168poe    c23 2011   1.470   0.418   0.176 -0.2485 -0.2330 -0.5598
  168poe     o2 2012   1.602   0.453   0.142 -0.0988  0.1215  0.3618
  168poe    c23 2013   1.707   0.359   0.155 -0.5525 -0.4050  0.2445
  168poe    c23 2014   1.827   0.446   0.196 -0.6395 -0.1123 -0.1162
  168poe     o2 2015   1.807   0.505   0.322  0.0236  0.2697 -0.1857
  168poe    c31 2016   1.927   0.526   0.394 -0.3182 -0.2973  0.5523
  169poe    c31 2017   4.139   3.502   1.353 -0.4286 -0.0368  0.5173
  169poe     o2 2018   4.000   3.495   1.327 -0.3031  0.0289 -0.1957
  169poe    c23 2019   3.957   3.621   1.373 -0.0563  0.1977 -0.4220
  169poe    c23 2020   3.804   3.642   1.361 -0.1307 -0.2783 -0.3042
  169poe     o2 2021   3.746   3.681   1.239 -0.2168 -0.4520 -0.3192
  169poe    c23 2022   3.625   3.748   1.268  0.4392  0.4590  0.3985
  169poe    c23 2023   3.556   3.780   1.134  1.0213 -0.2069 -0.0674
  169poe     o2 2024   3.561   3.677   1.038 -0.1884 -0.1831 -0.1686
  169poe    c23 2025   3.529   3.732   0.911 -0.0381  0.6191  0.1342
  169poe    c23 2026   3.501   3.611   0.821  0.7272  0.1956  0.4480
  169poe     o2 2027   3.616   3.531   0.815  0.2101 -0.5379  0.1018
  169poe    c31 2028   3.604   3.440   0.708 -0.4716 -0.1630 -0.1437
  170poe    c31 2029   3.802   1.782   4.906  0.3223 -0.4606 -0.2762
  170poe     o2 2030   3.760   1.657   4.955  0.4161 -0.1576  0.5873
  170poe    c23 2031   3.872   1.573   4.961  0.4760 -0.0936  0.3630
  170poe    c23 2032   3.822   1.440   5.022  0.2966  0.0650  0.5623
  170poe     o2 2033   3.734   1.483   5.123 -0.4579  0.1483 -0.1214
  170poe    c23 2034   3.666   1.381   5.194 -0.4726  0.0312 -0.3017
  170poe    c23 2035   3.623   1.464   5.317 -0.0744 -0.3422  0.0903
  170poe     o2 2036   3.582   1.585   5.258 -0.0221 -0.5348 -0.3445
  170poe    c23 2037   3.615   1.683   5.354 -0.3460 -0.3256 -0.4443
  170poe    c23 2038   3.555   1.802   5.277  0.4861  0.2033 -0.2935
  170poe     o2 2039   3.584   1.790   5.140  0.1237  0.5804 -0.4047
  170poe    c31 2040   3.522   1.891   5.062  0.1870  0.3471 -0.7619
  171poe    c31 2041   3.631   0.767   4.341  0.1741  0.3457 -0.5780
  171poe     o2 2042   3.729   0.867   4.330  0.4743  0.0686 -0.4194
  171poe    c23 2043   3.857   0.815   4.302  0.4039 -0.2575 -0.1315
  171poe    c23 2044   3.935   0.920   4.222 -0.2059  0.1634 -0.1767
  171poe     o2 2045   3.905   1.045   4.280 -0.2097 -0.0069  0.1922
  171poe    c23 2046   3.960   1.151   4.203 -0.6712  0.2378  0.1936
  171poe    c23 2047   3.939   1.266   4.303 -0.1133  0.3897  0.1380
  171poe     o2 2048   3.811   1.237   4.352 -0.2094  0.3010 -0.1648
  171poe    c23 2049   3.785   1.275   4.485  0.6119  0.4549 -0.0453
  171poe    c23 2050   3.691   1.179   4.560  0.2914  0.0673 -0.9295
  171poe     o2 2051   3.750   1.057   4.522 -0.4444 -0.4330 -0.5012
  171poe    c31 2052   3.724   0.966   4.627 -0.4216  0.2752  0.1223
  172poe    c31 2053   0.126   2.899   0.381 -0.0208  0.4537 -0.4000
  172poe     o2 2054   0.216   2.866   0.485 -0.5981 -0.1764 -0.0892
  172poe    c23 2055   0.236   2.726   0.483  0.2267 -0.0678  0.3061
  172poe    c23 2056   0.306   2.700   0.618 -0.5866  0.0438  0.7556
  172poe     o2 2057   0.406   2.798   0.624  0.0160 -0.4639 -0.5091
  172poe    c23 2058   0.483   2.774   0.740  0.3869 -0.1326 -0.6833
  172poe    c23 2059   0.568   2.900   0.762 -0.0172 -0.0163  0.2773
  172poe     o2 2060   0.481   3.006   0.726  0.1159  0.0559  0.1665
  172poe    c23 2061   0.420   3.080   0.828 -0.0030  0.0620  0.0908
  172poe    c23 2062   0.293   3.144   0.768 -0.3182 -0.0672  0.6062
  172poe     o2 2063   0.226   3.053   0.685 -0.3792 -0.0017  0.5836
  172poe    c31 2064   0.096   3.049   0.741 -0.3160 -0.0657  0.7244
  173poe    c31 2065   1.646   0.278   4.857  0.1189  0.3336 -0.1292
  173poe     o2 2066   1.737   0.311   4.755  0.3124  0.3614  0.0510
  173poe    c23 2067   1.740   0.213   4.653  0.7126  0.0876  0.3230
  173poe    c23 2068   1.871   0.219   4.573  0.2759 -0.2110 -0.4209
  173poe     o2 2069   1.882   0.356   4.539 -0.0285  0.0324  0.4438
  173poe    c23 2070   2.016   0.380   4.505 -0.0546 -0.0780  0.2578
  173poe    c23 2071   2.038   0.532   4.524  0.3998 -0.1985  0.7512
  173poe     o2 2072   1.965   0.554   4.642 -0.1479  0.0873  0.3626
  173poe    c23 2073   1.989   0.681   4.700 -0.5685  0.5192 -0.3923
  173poe    c23 2074   1.894   0.677   4.821 -0.0736  0.0010 -0.0194
  173poe     o2 2075   1.764   0.634   4.787  0.0498 -0.1909 -0.2470
  173poe    c31 2076   1.648   0.698   4.834  0.1000 -0.3325  0.0680
  174poe    c31 2077   4.908   4.452   0.534  0.1556  0.0893  0.1513
  174poe     o2 2078   4.954   4.401   0.411 -0.2394  0.2187 -0.0531
  174poe    c23 2079   4.843   4.346   0.344  0.0688  0.1600 -0.5232
  174poe    c23 2080   4.889   4.273   0.216  0.1064  0.0228 -0.4324
  174poe     o2 2081   5.001   4.199   0.260 -0.1203 -0.2251 -0.2673
  174poe    c23 2082   5.080   4.153   0.152 -0.5399 -0.4341 -0.4889
  174poe    c23 2083   5.200   4.088   0.223 -0.1422  0.2820 -0.4925
  174poe     o2 2084   5.237   4.179   0.325  0.3459 -0.0049 -0.4098
  174poe    c23 2085   5.346   4.158   0.411  0.2644  0.6719 -0.1383
  174poe    c23 2086   5.357   4.283   0.501  0.2486  0.0302  0.7667
  174poe     o2 2087   5.233   4.349   0.500  0.0939 -0.2539  0.9644
  174poe    c31 2088   5.257   4.470   0.569  0.1892  0.3640 -0.1350
  175poe    c31 2089   0.710   4.389   5.317 -0.0005  0.1495  0.9531
  175poe     o2 2090   0.849   4.412   5.323  0.0622  0.0786 -0.0018
  175poe    c23 2091   0.919   4.312   5.252 -0.0151 -0.0097  0.0469
  175poe    c23 2092   1.068   4.325   5.286 -0.0303 -0.2877  0.2260
  175poe     o2 2093   1.105   4.457   5.251 -0.4284 -0.2212  0.0590
  175poe    c23 2094   1.219   4.498   5.323 -0.1931 -0.0776 -0.3922
  175poe    c23 2095   1.194   4.641   5.375  0.4757 -0.2029  0.2966
  175poe     o2 2096   1.075   4.632   5.451  0.0924  0.0196 -0.2686
  175poe    c23 2097   1.058   4.747   5.530  0.0824  0.1549 -0.4665
  175poe    c23 2098   0.913   4.736   5.581  0.2115 -0.2192 -0.1833
  175poe     o2 2099   0.820   4.688   5.487  0.1818 -0.6426  0.0568
  175poe    c31 2100   0.696   4.706   5.550  0.3528 -0.0205  0.2212
  176poe    c31 2101   2.807   1.399   1.185 -0.2325  0.7786 -0.0638
  176poe     o2 2102   2.679   1.452   1.210 -0.2880  0.7355 -0.2533
  176poe    c23 2103   2.587   1.362   1.268  0.0065  0.5661 -0.0475
  176poe    c23 2104   2.471   1.450   1.318 -0.8092 -0.4469 -0.1095
  176poe     o2 2105   2.515   1.583   1.336 -0.6112 -0.5286  0.0129
  176poe    c23 2106   2.463   1.632   1.457 -0.0250  0.2532 -0.0414
  176poe    c23 2107   2.536   1.765   1.484  0.1337  0.0953  0.3096
  176poe     o2 2108   2.670   1.735   1.450  0.0658  0.0395  0.0918
  176poe    c23 2109   2.752   1.849   1.439 -0.4292  0.4111  0.2101
  176poe    c23 2110   2.892   1.790   1.413 -0.2346  0.9071  0.1346
  176poe     o2 2111   2.872   1.706   1.301 -0.0791  0.2616  0.5911
  176poe    c31 2112   2.998   1.698   1.238 -0.6671 -0.1662 -0.5494
  177poe    c31 2113   0.345   0.771   4.481 -0.4860 -0.2914  0.3479
  177poe     o2 2114   0.391   0.643   4.518 -0.5165 -0.1532  0.8683
  177poe    c23 2115   0.521   0.621   4.468 -0.6395  0.0688  0.4504
  177poe    c23 2116   0.546   0.469   4.472  0.3911  0.2368  0.5728
  177poe     o2 2117   0.508   0.437   4.604  0.3864 -0.9186  0.2934
  177poe    c23 2118   0.578   0.326   4.657  0.5278 -1.2109 -0.4907
  177poe    c23 2119   0.533   0.292   4.800  0.3151 -0.2682 -0.3274
  177poe     o2 2120   0.420   0.208   4.806  0.2594 -0.1530  0.2611
  177poe    c23 2121   0.392   0.166   4.938 -0.0786  0.0268  0.2469
  177poe    c23 2122   0.274   0.067   4.948 -0.4301  0.3568 -0.5356
  177poe     o2 2123   0.316  -0.064   4.915 -0.3671  0.2398  0.0051
  177poe    c31 2124   0.218  -0.156   4.872 -0.0655 -0.2170  0.2814
  178poe    c31 2125   5.699   4.502   2.121  0.1064 -0.2722 -0.4179
  178poe     o2 2126   5.565   4.458   2.113 -0.1119  0.2416  0.3272
  178poe    c23 2127   5.538   4.372   2.222  0.0575  0.1152  0.2693
  178poe    c23 2128   5.391   4.328   2.214  0.0349  0.2688 -0.2146
  178poe     o2 2129   5.313   4.444   2.200 -0.4425 -0.0101  0.0940
  178poe    c23 2130   5.184   4.426   2.145 -0.2961  0.9017 -0.5721
  178poe    c23 2131   5.181   4.393   1.995 -0.2409 -0.5298 -0.2720
  178poe     o2 2132   5.275   4.483   1.942 -0.3821 -0.2038  0.0226
  178poe    c23 2133   5.298   4.469   1.803 -0.5773  0.0261 -0.0321
  178poe    c23 2134   5.395   4.581   1.761  0.0586 -0.3514  0.4264
  178poe     o2 2135   5.497   4.580   1.859  0.0151  0.4202  0.4869
  178poe    c31 2136   5.585   4.676   1.805  0.2100  0.0280  0.0979
  179poe    c31 2137   1.538   2.882   5.390 -0.2298 -0.0438 -0.0792
  179poe     o2 2138   1.497   2.826   5.513  0.3377 -0.2648  0.0145
  179poe    c23 2139   1.363   2.781   5.506  0.2266  0.0521  0.0995
  179poe    c23 2140   1.349   2.683   5.625 -0.1280  0.0146  0.0282
  179poe     o2 2141   1.408   2.746   5.736  0.0969 -0.2743  0.0741
  179poe    c23 2142   1.397   2.661   5.848  0.4562  0.0632  0.3714
  179poe    c23 2143   1.473   2.718   5.969 -0.0109  0.3801  0.5165
  179poe     o2 2144   1.606   2.746   5.933  0.1935 -0.8660  0.2597
  179poe    c23 2145   1.698   2.735   6.039 -0.1294 -0.7094  0.5603
  179poe    c23 2146   1.757   2.872   6.077 -0.0565 -0.5314 -0.1891
  179poe     o2 2147   1.681   2.970   6.143  0.0467 -0.2428 -0.4973
  179poe    c31 2148   1.734   3.100   6.163 -0.5515 -0.0224 -0.3271
  180poe    c31 2149   0.366   4.898   6.072  0.4217 -0.0629 -0.1134
  180poe     o2 2150   0.428   4.775   6.041  0.3393 -0.0993 -0.1367
  180poe    c23 2151   0.540   4.783   5.956  0.1764 -0.2826 -0.3680
  180poe    c23 2152   0.617   4.655   5.991 -0.1808 -0.5818 -0.6698
  180poe     o2 2153   0.528   4.546   5.983 -0.5891 -0.2619 -0.4601
  180poe    c23 2154   0.586   4.421   6.014  0.0346  0.0004 -0.5600
  180poe    c23 2155   0.475   4.327   6.066  0.0727  0.1987 -0.1134
  180poe     o2 2156   0.407   4.411   6.156  0.2573 -0.4077  0.5980
  180poe    c23 2157   0.301   4.358   6.233 -0.2499  0.0893  0.2484
  180poe    c23 2158   0.242   4.478   6.308  0.2872  0.0080  0.8036
  180poe     o2 2159   0.236   4.582   6.213  0.3161 -0.1923  0.5827
  180poe    c31 2160   0.160   4.684   6.273  0.3637  0.6671 -0.7688
  181poe    c31 2161   0.609   5.659   0.955  0.3271  0.0916 -0.0611
  181poe     o2 2162   0.663   5.541   1.011 -0.1117 -0.0793  0.0067
  181poe    c23 2163   0.664   5.436   0.916  0.3264 -0.0620 -0.0120
  181poe    c23 2164   0.684   5.294   0.972 -0.8791 -0.1396  0.2451
  181poe     o2 2165   0.575   5.262   1.057 -0.4624 -0.1372  0.7858
  181poe    c23 2166   0.581   5.305   1.191 -0.1999  0.4888  0.5738
  181poe    c23 2167   0.454   5.248   1.255 -0.2485  0.1294  0.1615
  181poe     o2 2168   0.432   5.110   1.233  0.4751 -0.0015  0.2271
  181poe    c23 2169   0.304   5.065   1.273  0.4023 -0.0089 -0.0118
  181poe    c23 2170   0.283   4.921   1.223 -0.0230  0.0536 -0.0129
  181poe     o2 2171   0.326   4.913   1.089  0.7464 -0.4774  0.2600
  181poe    c31 2172   0.276   4.793   1.034 -0.1511  0.3773 -0.8426
  182poe    c31 2173   6.088   4.305   4.065 -0.7985 -0.1250  0.0433
  182poe     o2 2174   6.037   4.202   4.146 -0.3848 -0.1264  0.3036
  182poe    c23 2175   6.019   4.080   4.077  0.4352 -0.1811  0.1715
  182poe    c23 2176   5.988   3.957   4.164 -0.2671 -0.0403  0.1245
  182poe     o2 2177   6.083   3.948   4.268  0.0803  0.2588 -0.1656
  182poe    c23 2178   6.044   3.876   4.383  0.6752 -0.1824 -0.2369
  182poe    c23 2179   6.137   3.914   4.500  0.4154 -0.2711 -0.0016
  182poe     o2 2180   6.162   4.052   4.499 -0.1995 -0.1591 -0.3273
  182poe    c23 2181   6.256   4.104   4.591 -0.3420  0.0952 -0.3224
  182poe    c23 2182   6.240   4.257   4.596  0.2920  0.1504  0.1527
  182poe     o2 2183   6.228   4.288   4.459  0.2475 -0.4758  0.0118
  182poe    c31 2184   6.243   4.428   4.446 -0.8139 -0.3281  0.3265
  183poe    c31 2185   4.632   3.170   2.351  0.2748 -0.2557  0.0856
  183poe     o2 2186   4.626   3.138   2.488 -0.0347 -0.0019  0.1340
  183poe    c23 2187   4.536   3.232   2.541 -0.3708  0.0434 -0.4981
  183poe    c23 2188   4.544   3.242   2.695  0.6180  0.1740 -0.5497
  183poe     o2 2189   4.579   3.110   2.727 -0.4031  0.0246  0.0122
  183poe    c23 2190   4.595   3.084   2.865 -0.0416 -0.3395 -0.0953
  183poe    c23 2191   4.630   2.935   2.881  0.5417 -0.1557  0.3737
  183poe     o2 2192   4.701   2.920   2.759 -0.3029  0.5883 -0.2212
  183poe    c23 2193   4.766   2.795   2.748 -0.0912  0.6996 -0.2312
  183poe    c23 2194   4.838   2.774   2.614 -0.1481  0.6049 -0.2466
  183poe     o2 2195   4.762   2.821   2.505 -0.0996  0.5437 -0.3070
  183poe    c31 2196   4.824   2.797   2.380 -0.0437  0.0353 -0.1828
  184poe    c31 2197   0.735   3.097   1.044  0.2880  0.2626 -0.0382
  184poe     o2 2198   0.724   3.115   1.184 -0.2194  0.4142 -0.0948
  184poe    c23 2199   0.644   3.009   1.230  0.2329  0.1526  0.0891
  184poe    c23 2200   0.659   3.019   1.383 -0.7077  0.0482  0.1932
  184poe     o2 2201   0.652   3.157   1.410  0.6417  0.2155 -0.2339
  184poe    c23 2202   0.652   3.201   1.544  0.5291  0.0607 -0.1832
  184poe    c23 2203   0.670   3.354   1.553 -0.5848  0.2246 -0.5901
  184poe     o2 2204   0.756   3.377   1.444  0.7233 -0.6726  0.2124
  184poe    c23 2205   0.777   3.516   1.430 -0.1007 -0.5016  0.5865
  184poe    c23 2206   0.843   3.541   1.293 -0.3369 -0.3348  0.5020
  184poe     o2 2207   0.811   3.435   1.206 -0.0138  0.1351 -0.1928
  184poe    c31 2208   0.861   3.453   1.075 -0.2973  0.2858 -0.2819
  185poe    c31 2209   1.310   3.013   5.837  0.2403  0.0560  0.1058
  185poe     o2 2210   1.427   3.018   5.758 -0.1701  0.8393 -0.4675
  185poe    c23 2211   1.526   3.088   5.830  0.2189 -0.1519 -0.0205
  185poe    c23 2212   1.655   3.089   5.747  0.2153 -0.3944 -0.0324
  185poe     o2 2213   1.670   2.957   5.700 -0.0861 -0.5806  0.3935
  185poe    c23 2214   1.803   2.936   5.658 -0.3272 -0.1177 -0.6260
  185poe    c23 2215   1.840   2.788   5.675 -0.1277  0.0073  0.0743
  185poe     o2 2216   1.753   2.699   5.608 -0.3093  0.2205  0.0274
  185poe    c23 2217   1.833   2.585   5.588 -0.2005  0.3941 -0.5575
  185poe    c23 2218   1.781   2.462   5.665  0.3876  0.3690 -0.1884
  185poe     o2 2219   1.775   2.482   5.804 -0.2745 -0.1417 -0.1409
  185poe    c31 2220   1.731   2.365   5.871 -0.0128 -0.5787 -0.7248
  186poe    c31 2221   0.430   5.986   3.277  0.3285  0.2009  0.3689
  186poe     o2 2222   0.487   5.957   3.402  0.7206 -0.0968  0.1230
  186poe    c23 2223   0.511   5.819   3.422 -0.3324 -0.2659  0.3015
  186poe    c23 2224   0.519   5.804   3.576  0.0289 -0.1962  0.2907
  186poe     o2 2225   0.606   5.910   3.609 -0.1948  0.0429  0.1169
  186poe    c23 2226   0.643   5.910   3.745 -0.0569  0.0149  0.0796
  186poe    c23 2227   0.754   6.017   3.747  0.0177 -0.0528 -0.3566
  186poe     o2 2228   0.704   6.114   3.658 -0.9599 -0.2441 -0.0252
  186poe    c23 2229   0.799   6.205   3.607 -0.7439 -0.6932 -0.4320
  186poe    c23 2230   0.732   6.269   3.484 -0.0820  0.0880 -0.3945
  186poe     o2 2231   0.700   6.164   3.395  0.2902 -0.3017 -0.0751
  186poe    c31 2232   0.753   6.181   3.266 -0.1411  0.5745 -0.1455
  187poe    c31 2233   2.042   3.972   1.094 -0.3118 -0.4119 -1.0963
  187poe     o2 2234   1.904   3.999   1.094 -0.2191  0.1156 -0.2975
  187poe    c23 2235   1.868   4.135   1.094 -0.1815  0.1257  0.1964
  187poe    c23 2236   1.719   4.167   1.116 -0.0919  0.3943  0.4206
  187poe     o2 2237   1.669   4.107   1.233 -0.1387 -0.4545 -0.0275
  187poe    c23 2238   1.533   4.138   1.251  0.0689  0.6563 -0.3270
  187poe    c23 2239   1.496   4.125   1.400  0.4119  0.1839 -0.2825
  187poe     o2 2240   1.572   4.017   1.450 -0.0328 -0.0001  0.0002
  187poe    c23 2241   1.502   3.942   1.548 -0.0207  0.6426  0.5041
  187poe    c23 2242   1.576   3.878   1.667  0.3134  0.1416  0.0322
  187poe     o2 2243   1.617   3.972   1.764 -0.0997  0.1326  0.2153
  187poe    c31 2244   1.715   3.923   1.853  0.5834 -0.2132 -0.7149
  188poe    c31 2245   3.729   1.109   6.540  0.1988 -0.3157 -0.3832
  188poe     o2 2246   3.769   1.196   6.437  0.0713 -0.0711 -0.2284
  188poe    c23 2247   3.734   1.142   6.311  0.1180 -0.4919 -0.0629
  188poe    c23 2248   3.784   1.234   6.199  0.0784 -0.2602  0.1065
  188poe     o2 2249   3.905   1.281   6.254  0.2718 -0.6599  0.0263
  188poe    c23 2250   3.981   1.347   6.155 -0.2198 -0.1389 -0.0035
  188poe    c23 2251   4.123   1.354   6.213 -0.3192 -0.0396  0.2307
  188poe     o2 2252   4.102   1.358   6.353 -0.3871  0.3766  0.2098
  188poe    c23 2253   4.206   1.287   6.417 -0.0314  0.3085 -0.4339
  188poe    c23 2254   4.163   1.258   6.562  0.2291  0.4099 -0.3361
  188poe     o2 2255   4.031   1.213   6.583  0.3621  0.2358  0.1326
  188poe    c31 2256   4.014   1.145   6.706 -0.6950 -0.1913 -0.2353
  189poe    c31 2257   5.402   6.480   3.297  0.0952  0.4282  0.1250
  189poe     o2 2258   5.327   6.428   3.405  0.4084 -0.0789  0.1022
  189poe    c23 2259   5.365   6.300   3.449  0.1131 -0.1742  0.0780
  189poe    c23 2260   5.267   6.247   3.555 -0.4372  0.1796 -0.2471
  189poe     o2 2261   5.244   6.339   3.660  0.0417  0.2171 -0.1732
  189poe    c23 2262   5.117   6.323   3.718  0.2085 -0.1943  0.0876
  189poe    c23 2263   5.056   6.463   3.741  0.2905 -0.1701  0.1616
  189poe     o2 2264   5.061   6.535   3.620 -0.6943  0.3594  0.4267
  189poe    c23 2265   5.025   6.671   3.634 -0.7219  0.3722  0.2361
  189poe    c23 2266   5.044   6.740   3.498 -0.1650 -0.1695  0.0320
  189poe     o2 2267   5.166   6.705   3.437 -0.3460 -0.0588 -0.4010
  189poe    c31 2268   5.172   6.781   3.319  0.0100  0.4259 -0.0800
  190poe    c31 2269   2.312   0.631   2.792 -0.1539  0.2254 -0.3952
  190poe     o2 2270   2.377   0.614   2.916 -0.5564 -0.4532 -0.2730
  190poe    c23 2271   2.393   0.478   2.949 -0.1331 -0.4250 -0.3467
  190poe    c23 2272   2.465   0.465   3.084 -0.2169 -0.1840 -0.2792
  190poe     o2 2273   2.573   0.556   3.089  0.0131 -0.4750  0.1428
  190poe    c23 2274   2.626   0.564   3.219 -0.3218  0.2682  0.2382
  190poe    c23 2275   2.730   0.676   3.206  0.3626 -0.4251 -0.3335
  190poe     o2 2276   2.660   0.787   3.155  0.3041 -0.1097  0.4189
  190poe    c23 2277   2.726   0.877   3.068 -0.0724 -0.2395  0.0012
  190poe    c23 2278   2.760   0.813   2.932 -0.7828  0.2125 -0.3966
  190poe     o2 2279   2.661   0.729   2.875 -0.6642 -0.0020 -0.2882
  190poe    c31 2280   2.713   0.676   2.755 -0.7783 -0.1272 -0.2821
  191poe    c31 2281   5.711   6.282   6.153  0.2437 -0.2355 -0.2553
  191poe     o2 2282   5.648   6.206   6.254  0.1577  0.0454 -0.0954
  191poe    c23 2283   5.525   6.264   6.292  0.1487  0.4093 -0.6654
  191poe    c23 2284   5.450   6.157   6.374  0.3897  0.4796 -0.3524
  191poe     o2 2285   5.541   6.090   6.458  0.2980 -0.6706 -1.1472
  191poe    c23 2286   5.485   5.976   6.519 -0.0644  0.0250 -0.1478
  191poe    c23 2287   5.531   5.850   6.444  0.0561 -0.1740  0.2549
  191poe     o2 2288   5.658   5.888   6.397 -0.5869  0.6646 -0.8649
  191poe    c23 2289   5.692   5.808   6.286 -0.2365  0.1894 -0.4202
  191poe    c23 2290   5.836   5.842   6.244 -0.1208  0.0822 -0.1113
  191poe     o2 2291   5.840   5.983   6.229 -0.3850  0.0854 -0.1441
  191poe    c31 2292   5.945   6.027   6.147 -0.0205 -0.5173 -0.0096
  192poe    c31 2293   3.332   1.073   4.681  0.0424  0.5131 -0.1754
  192poe     o2 2294   3.231   1.031   4.591  0.1155  0.4619 -0.2338
  192poe    c23 2295   3.286   0.922   4.521  0.0186  0.4722 -0.3265
  192poe    c23 2296   3.184   0.813   4.484  0.3383  0.1386 -0.2339
  192poe     o2 2297   3.073   0.889   4.443  0.0926 -0.1300 -0.0744
  192poe    c23 2298   2.955   0.811   4.441  0.1374 -0.2000  0.0889
  192poe    c23 2299   2.850   0.898   4.370 -0.3524 -0.3901  0.5765
  192poe     o2 2300   2.868   1.022   4.434 -0.0222 -0.1354 -0.0047
  192poe    c23 2301   2.827   1.131   4.355 -0.3606  0.2147  0.6489
  192poe    c23 2302   2.915   1.249   4.400 -0.4204  0.2441  0.6880
  192poe     o2 2303   3.046   1.206   4.429 -0.2615  0.0692 -0.2578
  192poe    c31 2304   3.130   1.316   4.458 -0.2119 -0.1150  0.3144
  193poe    c31 2305   2.705   4.338   5.659 -0.0147  0.5206 -0.6702
  193poe     o2 2306   2.656   4.207   5.646  0.0182  0.4504 -0.0812
  193poe    c23 2307   2.737   4.155   5.543 -0.3343 -0.0209 -0.1226
  193poe    c23 2308   2.670   4.023   5.499  0.2290 -0.2805 -0.2105
  193poe     o2 2309   2.627   3.973   5.624 -0.7702  0.1839 -0.3585
  193poe    c23 2310   2.524   3.878   5.606 -0.6730 -0.0633  0.3754
  193poe    c23 2311   2.480   3.835   5.748  0.2103 -0.4306  0.5435
  193poe     o2 2312   2.463   3.962   5.808 -0.2265 -0.0958 -0.2616
  193poe    c23 2313   2.440   3.945   5.946 -0.0584 -0.2168 -0.2473
  193poe    c23 2314   2.432   4.093   5.990 -0.1365 -0.3020  0.0264
  193poe     o2 2315   2.550   4.151   5.941 -0.3348 -0.0201 -0.1193
  193poe    c31 2316   2.553   4.274   6.009  0.1690 -0.1394  0.0784
  194poe    c31 2317   6.419   5.070   0.006 -0.7674  0.1926  0.1079
  194poe     o2 2318   6.455   5.004   0.125 -0.2816  0.2351 -0.0104
  194poe    c23 2319   6.540   4.897   0.091 -0.1979  0.3732 -0.2357
  194poe    c23 2320   6.602   4.858   0.226 -0.4284 -0.2714 -0.3118
  194poe     o2 2321   6.530   4.897   0.341 -0.2416 -0.5629 -0.0949
  194poe    c23 2322   6.583   4.831   0.454  0.2313  0.3074  0.1965
  194poe    c23 2323   6.478   4.844   0.567 -0.0785  0.2782 -0.0868
  194poe     o2 2324   6.387   4.941   0.521 -0.0400  0.2932 -0.1322
  194poe    c23 2325   6.340   5.042   0.608  0.3667  0.4545 -0.0972
  194poe    c23 2326   6.274   5.136   0.505 -0.1427  0.0353 -0.1562
  194poe     o2 2327   6.376   5.153   0.409 -0.3694  0.3255 -0.3478
  194poe    c31 2328   6.357   5.266   0.327 -0.6214  0.5757  0.0545
  195poe    c31 2329   4.045   1.706   0.387  0.0370  0.0223  0.2145
  195poe     o2 2330   4.168   1.761   0.344 -0.0450 -0.0664 -0.1353
  195poe    c23 2331   4.149   1.894   0.303  0.0566  0.0656  0.2411
  195poe    c23 2332   4.291   1.949   0.279 -0.0735  0.2021 -0.2365
  195poe     o2 2333   4.359   1.857   0.196 -0.0323 -0.0255  0.0474
  195poe    c23 2334   4.490   1.894   0.161 -0.1811  0.1652 -0.3098
  195poe    c23 2335   4.536   1.774   0.076  0.4131  0.2036 -0.0526
  195poe     o2 2336   4.505   1.662   0.156 -0.0837  0.6094  0.3299
  195poe    c23 2337   4.502   1.544   0.079  0.6721 -0.0186  1.2452
  195poe    c23 2338   4.415   1.439   0.151 -0.6955 -0.5084 -1.0114
  195poe     o2 2339   4.304   1.518   0.187  0.1232  0.0995  0.2618
  195poe    c31 2340   4.201   1.438   0.241  0.4431 -0.0126  0.7055
  196poe    c31 2341   0.706   2.286   1.226 -0.0375 -0.3124  0.3740
  196poe     o2 2342   0.650   2.391   1.301  0.0264  0.5456 -0.7509
  196poe    c23 2343   0.751   2.487   1.321  0.0056  0.5033 -0.4343
  196poe    c23 2344   0.671   2.604   1.381  0.2757  0.4285  0.0777
  196poe     o2 2345   0.589   2.553   1.484 -0.2429 -0.3867 -0.7136
  196poe    c23 2346   0.500   2.654   1.526  0.3895 -0.1409  0.0563
  196poe    c23 2347   0.384   2.577   1.592  0.8681 -0.4913  0.4947
  196poe     o2 2348   0.371   2.454   1.525  0.4273 -0.7295  1.0053
  196poe    c23 2349   0.298   2.353   1.591 -0.1499 -0.4377  0.8134
  196poe    c23 2350   0.262   2.250   1.483 -0.5363  0.1289  0.3935
  196poe     o2 2351   0.382   2.217   1.415 -0.6928 -0.3253  0.3344
  196poe    c31 2352   0.355   2.146   1.296  0.2585  0.1270 -0.1558
  197poe    c31 2353   1.915   2.109   2.082 -0.3522  0.3240 -0.2995
  197poe     o2 2354   1.804   2.120   2.168 -0.2623  0.2932 -0.1796
  197poe    c23 2355   1.697   2.193   2.113 -1.0150 -1.2529 -0.8193
  197poe    c23 2356   1.597   2.232   2.224  0.3581  0.7224 -0.2360
  197poe     o2 2357   1.576   2.106   2.281 -0.0554  0.8105 -0.1965
  197poe    c23 2358   1.520   2.121   2.410  0.1852 -0.1174  0.0236
  197poe    c23 2359   1.538   1.987   2.484  0.1268 -0.1144  0.0430
  197poe     o2 2360   1.677   1.964   2.478  0.1220 -0.0505 -0.3729
  197poe    c23 2361   1.734   1.844   2.526  0.2328 -0.0506 -0.5054
  197poe    c23 2362   1.885   1.856   2.499  0.2786  0.6569  0.0105
  197poe     o2 2363   1.897   1.905   2.368  0.3762 -0.0456 -0.2498
  197poe    c31 2364   2.026   1.866   2.327  0.4850 -0.1170  0.1563
  198poe    c31 2365   4.919   2.492   4.385 -0.8789 -0.2282  0.3615
  198poe     o2 2366   4.904   2.631   4.401  0.3622  0.0040 -0.3671
  198poe    c23 2367   5.033   2.688   4.396  0.2545  0.2651 -0.1971
  198poe    c23 2368   5.000   2.835   4.367  0.1065  0.3363  0.3197
  198poe     o2 2369   4.894   2.891   4.442  0.0412  0.1472  0.3713
  198poe    c23 2370   4.807   2.958   4.353 -0.2226 -0.4808  0.1514
  198poe    c23 2371   4.660   2.915   4.366 -0.3482  0.0323  0.4659
  198poe     o2 2372   4.663   2.779   4.402  0.2249 -0.0641  0.0754
  198poe    c23 2373   4.532   2.732   4.427  0.1791  0.1880  0.3194
  198poe    c23 2374   4.551   2.589   4.482  0.5933 -0.1291 -0.6214
  198poe     o2 2375   4.659   2.575   4.572  0.2721  0.0237 -0.2089
  198poe    c31 2376   4.650   2.450   4.636 -0.3999  0.0756 -0.1982
  199poe    c31 2377   5.739   1.053   0.059  0.0546  0.2761 -0.4391
  199poe     o2 2378   5.874   1.035   0.095 -0.2168  0.0674  0.5011
  199poe    c23 2379   5.881   0.913   0.165  0.2874 -0.0315  0.2783
  199poe    c23 2380   6.027   0.897   0.213  0.2815 -0.0592  0.2870
  199poe     o2 2381   6.066   1.018   0.275 -0.0309  0.2439 -0.1018
  199poe    c23 2382   6.203   1.036   0.302 -0.0366  0.0189  0.0814
  199poe    c23 2383   6.214   1.189   0.307  0.1862 -0.0091  0.5516
  199poe     o2 2384   6.141   1.236   0.195  0.0017 -0.2781  0.5581
  199poe    c23 2385   6.117   1.372   0.222  0.0493 -0.1019 -0.2639
  199poe    c23 2386   6.048   1.414   0.091 -0.2812  0.2536  0.0217
  199poe     o2 2387   5.957   1.312   0.055  0.3431 -0.1985 -0.2833
  199poe    c31 2388   5.907   1.355  -0.070  0.0743  0.3430  0.0101
  200poe    c31 2389   5.206   3.211   4.545 -0.1299 -0.1412 -0.3886
  200poe     o2 2390   5.336   3.210   4.491 -0.0132  0.5443 -0.1233
  200poe    c23 2391   5.324   3.194   4.352 -0.4365  0.3509 -0.0673
  200poe    c23 2392   5.472   3.189   4.309 -0.4232 -0.0485  0.0183
  200poe     o2 2393   5.537   3.302   4.365 -0.6169  0.1904 -0.2396
  200poe    c23 2394   5.675   3.314   4.341 -0.3765 -0.1123  0.9208
  200poe    c23 2395   5.749   3.349   4.471  0.5267  0.0364  0.3779
  200poe     o2 2396   5.679   3.289   4.578 -0.0065  0.2617  0.1612
  200poe    c23 2397   5.750   3.181   4.635  0.1873  0.5318  0.4349
  200poe    c23 2398   5.651   3.098   4.719 -0.0216  0.1652 -0.1682
  200poe     o2 2399   5.528   3.089   4.651 -0.0010 -0.7218 -0.0986
  200poe    c31 2400   5.428   3.008   4.708 -0.0911 -0.2236  0.4584
  201poe    c31 2401   1.906   1.850   0.127  0.3522 -0.5335 -0.3843
  201poe     o2 2402   1.991   1.949   0.075  0.2189 -0.0070  0.3867
  201poe    c23 2403   2.072   1.895  -0.027 -0.1543 -0.1145  0.1490
  201poe    c23 2404   2.137   2.000  -0.118  0.4716 -0.2811  0.3991
  201poe     o2 2405   2.180   2.101  -0.030 -0.2170  0.2239  0.1668
  201poe    c23 2406   2.227   2.217  -0.095 -0.2903  0.0494 -0.1985
  201poe    c23 2407   2.245   2.327   0.011 -0.0913  0.0137 -0.1940
  201poe     o2 2408   2.125   2.335   0.085  0.0983  0.5110  0.0643
  201poe    c23 2409   2.151   2.387   0.214  0.3305  0.1428  0.1672
  201poe    c23 2410   2.040   2.323   0.299  1.2310 -1.0472  0.4858
  201poe     o2 2411   2.025   2.188   0.261  0.0896 -0.7134 -0.2863
  201poe    c31 2412   1.950   2.126   0.362 -0.1459  0.1518  0.0832
  202poe    c31 2413   2.527   2.371   3.141 -0.4153  0.4502 -0.2937
  202poe     o2 2414   2.398   2.361   3.198 -0.2417 -0.0647  0.0253
  202poe    c23 2415   2.311   2.339   3.089  0.4771 -0.0744 -0.5555
  202poe    c23 2416   2.183   2.387   3.158  0.3781 -0.2712 -0.6028
  202poe     o2 2417   2.185   2.325   3.285 -0.3806  0.5877 -0.1579
  202poe    c23 2418   2.065   2.343   3.357 -0.5363  0.0362 -0.2785
  202poe    c23 2419   2.101   2.287   3.495  0.0889  0.0710 -0.4236
  202poe     o2 2420   2.224   2.343   3.532 -0.1003  0.2888 -0.1177
  202poe    c23 2421   2.293   2.279   3.638 -0.4250  0.3467  0.1280
  202poe    c23 2422   2.433   2.343   3.645 -0.1171 -0.3106  0.0164
  202poe     o2 2423   2.477   2.338   3.512  0.3478 -0.0074  0.1581
  202poe    c31 2424   2.616   2.360   3.500  0.2999  0.1544 -0.1198
  203poe    c31 2425   0.389   5.601   3.898  0.2433 -0.7448  0.5348
  203poe     o2 2426   0.299   5.678   3.975  0.1557  0.1594 -0.4408
  203poe    c23 2427   0.377   5.780   4.033  0.0388 -0.0593  0.1143
  203poe    c23 2428   0.289   5.875   4.116  0.0273 -0.3235  0.4068
  203poe     o2 2429   0.179   5.920   4.039  0.2938  0.0120  0.2186
  203poe    c23 2430   0.078   5.984   4.114  0.2004  0.4164 -0.2470
  203poe    c23 2431  -0.043   5.975   4.020  0.3098  0.2119 -0.3703
  203poe     o2 2432  -0.038   5.845   3.966 -0.5843 -0.1436  0.3578
  203poe    c23 2433  -0.121   5.837   3.853  0.0549  0.3515 -0.1614
  203poe    c23 2434  -0.073   5.711   3.777 -0.0148  0.2069  0.0326
  203poe     o2 2435   0.067   5.705   3.791 -0.0285  0.0112  0.0893
  203poe    c31 2436   0.130   5.673   3.669  0.1732  0.7248 -0.0028
  204poe    c31 2437   4.655   0.241   4.871 -0.4404  0.0674  0.0461
  204poe     o2 2438   4.643   0.325   4.758 -0.6713  0.4638  0.3621
  204poe    c23 2439   4.645   0.459   4.802 -0.0290  0.5618  0.0410
  204poe    c23 2440   4.708   0.549   4.694  0.4683 -0.2602 -0.3648
  204poe     o2 2441   4.643   0.493   4.582 -0.4593  0.0752 -0.0020
  204poe    c23 2442   4.688   0.568   4.471  0.6372 -0.2183  0.2347
  204poe    c23 2443   4.604   0.494   4.365 -0.0326  0.5916  0.1869
  204poe     o2 2444   4.624   0.356   4.387 -0.4438  0.6048  0.6819
  204poe    c23 2445   4.532   0.268   4.326  0.7004 -0.1605  0.0095
  204poe    c23 2446   4.544   0.128   4.388 -1.0193 -0.1578  0.4084
  204poe     o2 2447   4.545   0.160   4.525 -0.0874  0.2590  0.3194
  204poe    c31 2448   4.537   0.037   4.594 -0.1241 -0.1392 -0.3884
  205poe    c31 2449   6.195   1.582   6.116 -0.2324  0.0841 -0.2219
  205poe     o2 2450   6.192   1.615   6.253  0.3091  0.0867 -0.2065
  205poe    c23 2451   6.303   1.556   6.317 -0.0238 -0.2389  0.0834
  205poe    c23 2452   6.349   1.624   6.448  0.5022 -0.4427  0.0072
  205poe     o2 2453   6.365   1.758   6.406 -0.3194 -0.1654  0.5594
  205poe    c23 2454   6.387   1.861   6.500  0.4747  0.5612 -0.3996
  205poe    c23 2455   6.365   1.992   6.422  0.1684  0.1205 -1.0606
  205poe     o2 2456   6.239   1.975   6.362 -0.1236  0.0309 -0.4212
  205poe    c23 2457   6.213   2.084   6.276 -0.1610  0.3956  0.0438
  205poe    c23 2458   6.079   2.047   6.209 -0.2886  0.0577  0.4785
  205poe     o2 2459   6.076   1.910   6.177  0.1208  0.0784  0.3385
  205poe    c31 2460   5.977   1.888   6.079  0.4587  0.4847 -0.0966
  206poe    c31 2461   2.078   1.208   2.263  0.0894 -0.4578 -0.4332
  206poe     o2 2462   2.168   1.220   2.155  0.2865 -0.1665 -0.2347
  206poe    c23 2463   2.294   1.164   2.184  0.2260  0.0179  0.3963
  206poe    c23 2464   2.382   1.183   2.059 -0.3068  0.0683  0.0298
  206poe     o2 2465   2.411   1.317   2.026 -0.7380  0.0679 -0.3720
  206poe    c23 2466   2.302   1.375   1.959 -1.0965  0.0199  0.1703
  206poe    c23 2467   2.350   1.517   1.920 -0.2426 -0.2438  0.2472
  206poe     o2 2468   2.472   1.495   1.854 -0.2022 -0.1835  0.3024
  206poe    c23 2469   2.551   1.611   1.836  0.0975 -0.4683 -0.2557
  206poe    c23 2470   2.693   1.572   1.794  0.3758  0.2499  0.0002
  206poe     o2 2471   2.736   1.485   1.896 -0.1817  0.4321  0.3916
  206poe    c31 2472   2.876   1.471   1.889 -0.2245 -0.1989  0.7066
  207poe    c31 2473   2.961   4.983   0.690  0.1364  0.1915 -0.4612
  207poe     o2 2474   2.894   5.042   0.799  0.4520 -0.1869 -0.0585
  207poe    c23 2475   2.979   5.146   0.840  0.0703  0.2812 -0.4358
  207poe    c23 2476   2.892   5.239   0.927  0.4566 -0.0825  0.3485
  207poe     o2 2477   2.829   5.148   1.015 -0.5068 -0.3129 -0.5553
  207poe    c23 2478   2.743   5.207   1.109 -0.7856 -0.3610 -0.7813
  207poe    c23 2479   2.699   5.090   1.198 -0.2317  0.0047 -0.0187
  207poe     o2 2480   2.648   4.990   1.113 -0.2335 -0.1799  0.1969
  207poe    c23 2481   2.633   4.859   1.163  0.5696 -0.3411  0.0340
  207poe    c23 2482   2.584   4.789   1.035 -1.1112  0.6209  0.1211
  207poe     o2 2483   2.681   4.808   0.934 -0.5164 -0.2015  0.5267
  207poe    c31 2484   2.666   4.709   0.834 -0.3051  0.1937  0.1002
  208poe    c31 2485   3.400   0.724   2.326  0.7751 -0.6881 -0.5341
  208poe     o2 2486   3.410   0.605   2.252  0.1859 -0.7796 -0.4648
  208poe    c23 2487   3.276   0.591   2.208 -0.0709 -0.2540  0.1326
  208poe    c23 2488   3.269   0.540   2.063 -0.5175 -0.8638  0.3617
  208poe     o2 2489   3.372   0.445   2.046  0.1451 -0.0967 -0.0054
  208poe    c23 2490   3.384   0.393   1.916  0.0590  0.1384 -0.1088
  208poe    c23 2491   3.500   0.293   1.933 -0.4588 -0.3601  0.5677
  208poe     o2 2492   3.589   0.363   2.017  0.1848 -0.4420 -0.0383
  208poe    c23 2493   3.669   0.282   2.100 -0.1693 -0.5771  0.1716
  208poe    c23 2494   3.748   0.377   2.191  0.0221 -0.1810 -0.3997
  208poe     o2 2495   3.664   0.470   2.256  0.2467 -0.5438  0.4231
  208poe    c31 2496   3.755   0.554   2.324 -0.0332  0.3217 -0.2633
  209poe    c31 2497   0.007   4.318   5.189  0.5874 -0.2115  0.9326
  209poe     o2 2498   0.083   4.432   5.222  0.4585  0.3080 -0.4868
  209poe    c23 2499   0.195   4.435   5.135  0.3705  0.2297 -0.6041
  209poe    c23 2500   0.297   4.540   5.184  0.3676  0.1288 -0.3808
  209poe     o2 2501   0.219   4.653   5.216  0.1396 -0.0456 -0.3135
  209poe    c23 2502   0.301   4.763   5.250  0.1079 -0.4379  1.0838
  209poe    c23 2503   0.188   4.865   5.277  0.1454 -0.1085  0.0425
  209poe     o2 2504   0.080   4.805   5.345  0.1816 -0.0290  0.1706
  209poe    c23 2505  -0.044   4.863   5.313  0.1024 -0.4935 -0.3884
  209poe    c23 2506  -0.152   4.767   5.366 -0.3090  0.1032 -0.1264
  209poe     o2 2507  -0.106   4.634   5.354  0.0646  0.2047  0.1784
  209poe    c31 2508  -0.211   4.542   5.377  0.1518  0.0778  0.0710
  210poe    c31 2509   3.813   0.088   4.792 -0.2939  0.0631 -0.1836
  210poe     o2 2510   3.889   0.193   4.848  0.2075 -0.0807 -0.5853
  210poe    c23 2511   4.014   0.162   4.906  0.0749  0.0325 -0.2324
  210poe    c23 2512   4.067   0.287   4.978 -0.7090 -0.0410  0.4912
  210poe     o2 2513   4.024   0.400   4.906 -0.2534  0.0075  0.2883
  210poe    c23 2514   3.940   0.482   4.984  0.3556  0.4803  0.4574
  210poe    c23 2515   3.864   0.576   4.888  0.5236  0.1901  0.0400
  210poe     o2 2516   3.828   0.499   4.775 -0.4390  0.4966  0.1325
  210poe    c23 2517   3.828   0.563   4.649  0.1803 -0.1862 -0.2197
  210poe    c23 2518   3.786   0.463   4.540  0.3244 -0.1100 -0.3449
  210poe     o2 2519   3.865   0.351   4.574  0.2848  0.0593  0.3237
  210poe    c31 2520   3.879   0.274   4.456  0.5617  0.6689 -0.0464
  211poe    c31 2521   0.863   6.223   6.534  0.2006  0.3926 -0.1509
  211poe     o2 2522   0.936   6.173   6.644  0.2804  0.3382 -0.2279
  211poe    c23 2523   0.893   6.040   6.665  0.0546  0.5104  0.4405
  211poe    c23 2524   1.021   5.971   6.716 -0.2543 -0.3238  0.0993
  211poe     o2 2525   1.067   6.059   6.816  0.0978 -0.2253 -0.1461
  211poe    c23 2526   1.186   6.013   6.877  0.0128  0.0925  0.2613
  211poe    c23 2527   1.229   6.143   6.949 -0.3018  0.5386 -0.3473
  211poe     o2 2528   1.218   6.252   6.861 -0.1687  0.1670 -0.8288
  211poe    c23 2529   1.259   6.377   6.911 -0.5249  0.0964 -0.3547
  211poe    c23 2530   1.209   6.464   6.794 -0.7704  0.2767 -0.1172
  211poe     o2 2531   1.084   6.412   6.752 -0.2993 -0.9683 -0.0213
  211poe    c31 2532   1.033   6.499   6.653  0.0015 -0.4594  0.2631
  212poe    c31 2533   4.419   5.754   2.435 -0.4055  0.2681 -0.0488
  212poe     o2 2534   4.408   5.812   2.563 -0.0484 -0.2340  0.2096
  212poe    c23 2535   4.298   5.898   2.581  0.0968  0.0393 -0.2001
  212poe    c23 2536   4.275   5.935   2.729  0.2407 -0.1918 -0.1200
  212poe     o2 2537   4.391   5.992   2.786  0.1635  0.2283 -0.3784
  212poe    c23 2538   4.346   6.090   2.876  0.3321 -0.1509  0.1258
  212poe    c23 2539   4.471   6.164   2.928  0.2107 -0.1272  0.3859
  212poe     o2 2540   4.566   6.064   2.959  0.6774  0.1248 -0.1970
  212poe    c23 2541   4.680   6.122   3.019  0.2247  0.5319  0.2828
  212poe    c23 2542   4.773   6.006   3.056  0.0441  0.1327 -0.4840
  212poe     o2 2543   4.786   5.912   2.951 -0.0578  0.2024 -0.5584
  212poe    c31 2544   4.896   5.829   2.979 -0.2852 -0.0731 -0.4706
  213poe    c31 2545   3.700   6.083   2.229  0.5643  0.1584  0.0154
  213poe     o2 2546   3.661   5.964   2.294  0.1754  0.3534  0.1438
  213poe    c23 2547   3.678   6.000   2.430 -0.6037  0.2811  0.2640
  213poe    c23 2548   3.688   5.871   2.512 -0.5619  0.1873  0.1110
  213poe     o2 2549   3.595   5.782   2.455  0.1491 -0.1805 -0.5061
  213poe    c23 2550   3.595   5.652   2.509  0.5994  0.0427  0.0386
  213poe    c23 2551   3.526   5.561   2.405 -0.1922  0.4932  0.1615
  213poe     o2 2552   3.542   5.620   2.279 -0.3830 -0.1682 -0.1775
  213poe    c23 2553   3.479   5.572   2.162  0.3164 -0.1873 -0.5521
  213poe    c23 2554   3.546   5.642   2.043 -0.5641  0.1426 -0.8573
  213poe     o2 2555   3.572   5.777   2.077  0.2663 -0.3137  0.3717
  213poe    c31 2556   3.635   5.837   1.966  0.0101 -0.3998  0.1794
  214poe    c31 2557   0.962   0.950   1.281 -0.2832  0.1483 -0.2116
  214poe     o2 2558   0.985   1.064   1.362 -0.1224  0.0905 -0.1755
  214poe    c23 2559   1.067   1.026   1.470 -0.5192 -0.1113  0.0560
  214poe    c23 2560   1.108   1.152   1.549  0.0318 -0.2883  0.0536
  214poe     o2 2561   1.149   1.244   1.451  0.9295 -0.3780  0.3329
  214poe    c23 2562   1.174   1.375   1.497 -0.3017 -0.0190  0.0231
  214poe    c23 2563   1.140   1.477   1.387 -0.3697  0.0862  0.1416
  214poe     o2 2564   1.020   1.424   1.336 -0.5893  0.4462  0.2760
  214poe    c23 2565   0.949   1.502   1.243  0.0965 -0.1196 -0.7413
  214poe    c23 2566   0.822   1.418   1.223 -0.0918  0.0424 -0.2516
  214poe     o2 2567   0.872   1.286   1.217 -0.7163 -0.1991 -0.2641
  214poe    c31 2568   0.770   1.202   1.168  0.2773 -0.9186 -1.1302
  215poe    c31 2569   1.156   5.428   1.787 -0.3304  0.0706  0.4154
  215poe     o2 2570   1.119   5.484   1.663 -0.4462 -0.2036  0.3258
  215poe    c23 2571   1.041   5.598   1.693  0.0177  0.1619  0.1565
  215poe    c23 2572   1.058   5.684   1.566  0.6611  0.0501  0.1606
  215poe     o2 2573   1.025   5.615   1.448 -0.0632  0.7397 -0.0505
  215poe    c23 2574   0.889   5.618   1.410 -0.0069  0.1088 -0.3162
  215poe    c23 2575   0.868   5.490   1.327 -0.6007  0.1845 -0.2889
  215poe     o2 2576   0.933   5.393   1.406 -0.1495  0.3944 -0.3954
  215poe    c23 2577   0.951   5.271   1.339 -0.3847  0.0866  0.0963
  215poe    c23 2578   0.997   5.180   1.454 -0.0917  0.4020  0.2304
  215poe     o2 2579   1.110   5.245   1.507  0.3026  0.7675 -1.0188
  215poe    c31 2580   1.209   5.153   1.549 -0.7702 -0.2625 -0.6960
  216poe    c31 2581   5.653   2.966   2.751  1.0225 -0.1074  0.3289
  216poe     o2 2582   5.621   2.837   2.799 -0.0186 -0.1078 -0.3255
  216poe    c23 2583   5.667   2.746   2.702 -0.1973 -0.5405 -0.0082
  216poe    c23 2584   5.647   2.600   2.746  0.0371 -0.5564  0.0444
  216poe     o2 2585   5.679   2.600   2.884  0.1821 -0.2609  0.0127
  216poe    c23 2586   5.638   2.488   2.960 -0.2609 -0.1289 -0.0277
  216poe    c23 2587   5.668   2.541   3.101 -0.7480 -0.2474  0.1222
  216poe     o2 2588   5.612   2.669   3.112 -0.6285 -0.2317  0.5674
  216poe    c23 2589   5.586   2.725   3.240  0.0441  0.0119  0.6027
  216poe    c23 2590   5.586   2.877   3.216 -0.0473 -0.0165  0.4158
  216poe     o2 2591   5.560   2.903   3.080  0.1268  0.3169  0.4455
  216poe    c31 2592   5.479   3.018   3.070  0.4543  0.5234  0.1170
  217poe    c31 2593   2.965   2.646   5.981 -0.3832 -0.0764 -0.1354
  217poe     o2 2594   3.047   2.613   5.871 -0.1567 -0.1063  0.0420
  217poe    c23 2595   2.963   2.623   5.759  0.4565 -0.0167 -0.4161
  217poe    c23 2596   3.051   2.593   5.636  0.5254 -0.1054 -0.3455
  217poe     o2 2597   3.171   2.661   5.662  0.1462  0.4272  0.0470
  217poe    c23 2598   3.266   2.641   5.559 -0.3765 -0.2461 -0.3108
  217poe    c23 2599   3.406   2.687   5.604 -0.3179 -0.6465 -0.0793
  217poe     o2 2600   3.426   2.657   5.741  0.0556  0.1190  0.0407
  217poe    c23 2601   3.562   2.657   5.777 -0.1750 -0.0648  0.9323
  217poe    c23 2602   3.657   2.538   5.756 -0.2007  0.0059  0.3914
  217poe     o2 2603   3.696   2.533   5.621 -0.0443  0.5804  0.4160
  217poe    c31 2604   3.789   2.429   5.601 -0.7870 -0.0420  0.1821
  218poe    c31 2605   3.305   5.526   5.426  0.0912  0.0027  0.3313
  218poe     o2 2606   3.361   5.582   5.309 -0.5683  0.2048  0.1044
  218poe    c23 2607   3.409   5.480   5.224 -0.0151  0.2002  0.4131
  218poe    c23 2608   3.462   5.564   5.107 -0.2092  0.2181  0.3375
  218poe     o2 2609   3.391   5.628   5.003 -0.0155 -0.1241 -0.0033
  218poe    c23 2610   3.459   5.737   4.944 -0.2768  0.0388 -0.0026
  218poe    c23 2611   3.383   5.795   4.824  0.1884  0.0456 -0.2948
  218poe     o2 2612   3.327   5.692   4.745 -0.3881 -0.2359  0.4692
  218poe    c23 2613   3.263   5.739   4.629  0.1296 -0.1569  0.2109
  218poe    c23 2614   3.253   5.619   4.534 -0.4327  0.0789 -0.0337
  218poe     o2 2615   3.207   5.508   4.607  0.3580 -0.2622 -0.0415
  218poe    c31 2616   3.152   5.407   4.525  0.4726 -0.0940 -0.3268
  219poe    c31 2617   1.935   1.859   3.500 -0.3301  0.1164 -0.0324
  219poe     o2 2618   2.030   1.773   3.443 -0.4619 -0.0786  0.0415
  219poe    c23 2619   2.093   1.705   3.548  0.1738  0.1641 -0.1783
  219poe    c23 2620   2.208   1.620   3.490  0.0889  0.2551 -0.4764
  219poe     o2 2621   2.150   1.556   3.379 -0.2405 -0.3242  0.0282
  219poe    c23 2622   2.235   1.458   3.325 -0.1066  0.0390 -0.4276
  219poe    c23 2623   2.147   1.418   3.205  0.1140  0.3630 -0.6970
  219poe     o2 2624   2.112   1.539   3.141  0.1313  0.5219 -0.4078
  219poe    c23 2625   2.004   1.512   3.054  0.0903  0.5317 -0.3598
  219poe    c23 2626   1.949   1.654   3.032  0.6109  0.7955  0.0170
  219poe     o2 2627   1.925   1.719   3.155 -0.6014 -0.2508  0.3557
  219poe    c31 2628   1.876   1.848   3.128 -0.9390 -0.4560 -0.0236
  220poe    c31 2629   6.659   5.102   3.323 -0.0043  0.5287  0.2386
  220poe     o2 2630   6.745   5.112   3.212 -0.6933 -0.4887 -0.4027
  220poe    c23 2631   6.838   5.006   3.221  0.4421  0.5134 -0.1364
  220poe    c23 2632   6.899   4.984   3.081  0.1263  0.1085 -0.2120
  220poe     o2 2633   6.941   5.104   3.020  0.3242  0.0592 -0.1745
  220poe    c23 2634   6.903   5.082   2.886  0.1103 -0.0834 -0.0906
  220poe    c23 2635   6.863   5.219   2.828 -0.3273 -0.1731 -0.0061
  220poe     o2 2636   6.797   5.276   2.939 -0.2735 -0.3551  0.1197
  220poe    c23 2637   6.720   5.385   2.893  0.2550 -0.0759 -0.0999
  220poe    c23 2638   6.608   5.387   2.998  0.1060  0.0769 -0.2613
  220poe     o2 2639   6.655   5.401   3.130 -0.1503 -0.2250 -0.1378
  220poe    c31 2640   6.562   5.471   3.209 -0.0724 -0.0227 -0.2259
  221poe    c31 2641   1.009   1.428   0.657 -0.1645 -0.0199 -0.2775
  221poe     o2 2642   1.109   1.401   0.752 -0.5767 -0.5087  0.0183
  221poe    c23 2643   1.115   1.507   0.845  0.5849 -0.5269 -0.0192
  221poe    c23 2644   1.254   1.517   0.910  0.2128 -0.1926  0.7311
  221poe     o2 2645   1.345   1.489   0.806 -0.1661  0.1357  0.3074
  221poe    c23 2646   1.477   1.465   0.849 -0.2137 -0.0634  0.3406
  221poe    c23 2647   1.538   1.367   0.746 -0.3698  0.1268  0.0681
  221poe     o2 2648   1.433   1.278   0.714  0.0119 -0.1860 -0.3127
  221poe    c23 2649   1.465   1.214   0.593  0.0102 -0.6030 -0.0967
  221poe    c23 2650   1.357   1.107   0.566 -0.0541 -0.5648  0.0124
  221poe     o2 2651   1.240   1.182   0.592  0.1710 -0.2002 -0.0151
  221poe    c31 2652   1.131   1.106   0.547 -0.0203  0.2052 -0.2430
  222poe    c31 2653   4.924   2.072   6.344 -0.8557  0.6768 -0.0496
  222poe     o2 2654   4.817   2.010   6.276 -0.1587 -0.7970  0.1487
  222poe    c23 2655   4.809   2.071   6.149  0.3214 -0.2384  0.3798
  222poe    c23 2656   4.671   2.043   6.086  0.4907 -0.3264  0.0483
  222poe     o2 2657   4.664   1.903   6.076 -0.1164 -0.3412  0.6150
  222poe    c23 2658   4.537   1.851   6.041  0.1140 -0.4367 -0.1067
  222poe    c23 2659   4.533   1.705   6.090 -0.8091 -0.2909  0.2662
  222poe     o2 2660   4.593   1.712   6.217 -0.3324  0.2687  0.0125
  222poe    c23 2661   4.604   1.598   6.298  0.1561  0.2650 -0.0571
  222poe    c23 2662   4.642   1.651   6.438  0.3656  0.0406 -0.0294
  222poe     o2 2663   4.748   1.743   6.421  0.4123  0.0272  0.1917
  222poe    c31 2664   4.825   1.769   6.537  0.4246  0.3374  0.1148
  223poe    c31 2665   2.176   5.821   6.355  0.6107  0.0467  0.2106
  223poe     o2 2666   2.153   5.748   6.236 -0.2405 -0.2759  0.5641
  223poe    c23 2667   2.090   5.624   6.258 -0.4582 -0.2096  0.3101
  223poe    c23 2668   2.128   5.544   6.132  0.6736  0.8410 -0.0322
  223poe     o2 2669   2.101   5.612   6.011  0.0649  0.7704  0.0630
  223poe    c23 2670   2.148   5.537   5.902 -0.1741  0.0962  0.4178
  223poe    c23 2671   2.101   5.589   5.765 -0.2860 -0.2198  0.3348
  223poe     o2 2672   2.131   5.727   5.764 -0.0188 -0.2769 -0.4095
  223poe    c23 2673   2.091   5.795   5.647  0.4279 -0.4790 -0.6841
  223poe    c23 2674   2.198   5.894   5.599  0.6100 -0.3174  0.0519
  223poe     o2 2675   2.324   5.861   5.547  0.2125 -0.5211 -0.7904
  223poe    c31 2676   2.317   5.846   5.407 -0.2460  0.2179 -0.8464
  224poe    c31 2677   0.538   0.951   3.259 -0.6354 -0.2013 -0.3245
  224poe     o2 2678   0.662   0.990   3.204 -0.5916 -0.2273 -0.2448
  224poe    c23 2679   0.758   0.891   3.234 -0.2009  0.2059 -0.0521
  224poe    c23 2680   0.890   0.918   3.160  0.0968  0.3553  0.5309
  224poe     o2 2681   0.980   1.022   3.191  0.1258  0.4742  0.0645
  224poe    c23 2682   0.930   1.150   3.163 -0.3383  0.2762 -0.0194
  224poe    c23 2683   1.042   1.231   3.095  0.1816 -0.6316 -0.2546
  224poe     o2 2684   1.160   1.186   3.157  0.0096 -0.0663  0.5014
  224poe    c23 2685   1.278   1.217   3.085 -0.2553 -0.2586 -0.0178
  224poe    c23 2686   1.387   1.179   3.187  0.1791 -0.6052 -0.6063
  224poe     o2 2687   1.354   1.055   3.245 -0.0887 -0.2477  0.0244
  224poe    c31 2688   1.466   0.997   3.309 -0.3009 -0.1296  0.4969
  225poe    c31 2689   5.095   4.991   4.031  0.1407 -0.5531 -0.5536
  225poe     o2 2690   5.094   4.882   4.120 -0.4445 -0.0964  0.0096
  225poe    c23 2691   4.968   4.818   4.124 -0.1795 -0.6440 -0.2228
  225poe    c23 2692   4.989   4.711   4.232 -0.1016 -0.0056  0.4034
  225poe     o2 2693   5.053   4.769   4.344  0.1094  0.3842  0.0820
  225poe    c23 2694   5.087   4.665   4.434  0.1310  0.1143 -0.2359
  225poe    c23 2695   5.160   4.715   4.560 -0.1027  0.7579 -0.3484
  225poe     o2 2696   5.292   4.744   4.519  0.2408  0.1596  0.3050
  225poe    c23 2697   5.337   4.871   4.557 -0.2016  0.4316 -0.0568
  225poe    c23 2698   5.405   4.934   4.434  0.3736 -0.1073 -0.0198
  225poe     o2 2699   5.316   4.952   4.326 -0.3235  0.2836  0.6153
  225poe    c31 2700   5.316   5.088   4.288  0.1191 -0.0551 -0.6286
  226poe    c31 2701   3.484   4.506   6.612  0.5688  0.2277  0.2949
  226poe     o2 2702   3.548   4.384   6.583 -0.0804 -0.0722  0.1069
  226poe    c23 2703   3.688   4.402   6.587 -0.0946  0.1472 -0.3330
  226poe    c23 2704   3.752   4.273   6.532 -0.7402 -0.4246  0.2368
  226poe     o2 2705   3.679   4.222   6.424 -0.5509 -0.4298  0.1105
  226poe    c23 2706   3.736   4.099   6.385  0.0925 -0.0335 -0.2213
  226poe    c23 2707   3.666   4.059   6.254 -0.1245 -0.2008 -0.0549
  226poe     o2 2708   3.533   4.071   6.298 -0.0676 -0.1040  0.0892
  226poe    c23 2709   3.453   4.091   6.183 -0.2128 -0.2687  0.1598
  226poe    c23 2710   3.400   4.236   6.183  0.5220  0.0070 -0.1155
  226poe     o2 2711   3.367   4.280   6.313  0.9238  0.2680 -0.0998
  226poe    c31 2712   3.289   4.397   6.294 -0.1756 -0.3518  0.4935
  227poe    c31 2713   0.119   2.012   5.571 -0.1474  0.2981 -0.3122
  227poe     o2 2714   0.148   2.074   5.694 -0.2442 -0.4183  0.0806
  227poe    c23 2715   0.246   2.014   5.776  0.6086  0.1519 -0.4972
  227poe    c23 2716   0.283   2.124   5.878  0.3678 -0.3073  0.0951
  227poe     o2 2717   0.170   2.161   5.954  0.5449  0.1272  0.1503
  227poe    c23 2718   0.185   2.281   6.026 -0.0174 -0.1464  0.7368
  227poe    c23 2719   0.043   2.325   6.065 -0.1130 -0.2075  0.4634
  227poe     o2 2720  -0.051   2.303   5.962  0.0269 -0.2821  0.3518
  227poe    c23 2721  -0.187   2.302   5.997 -0.0968  0.2953 -0.1065
  227poe    c23 2722  -0.249   2.295   5.856  0.1700  0.0338 -0.2100
  227poe     o2 2723  -0.176   2.214   5.766  0.2240 -0.0085 -0.1283
  227poe    c31 2724  -0.243   2.208   5.643  0.0199  0.3751 -0.0353
  228poe    c31 2725   5.637   5.494   3.188 -0.0829 -0.9961  0.1348
  228poe     o2 2726   5.537   5.590   3.163  0.2501 -0.4269  0.9247
  228poe    c23 2727   5.586   5.721   3.176 -0.5343 -0.0969  0.6442
  228poe    c23 2728   5.465   5.812   3.151 -0.2805 -0.0232 -0.3335
  228poe     o2 2729   5.361   5.768   3.235 -0.4366 -0.2028 -0.6157
  228poe    c23 2730   5.315   5.892   3.286  0.7084 -0.1296  0.2724
  228poe    c23 2731   5.265   5.889   3.432 -0.1158 -0.3784 -0.0113
  228poe     o2 2732   5.381   5.861   3.508  0.0867  0.7268  0.0998
  228poe    c23 2733   5.342   5.831   3.640  0.3146  0.0226  0.0098
  228poe    c23 2734   5.472   5.798   3.716  0.1880  0.0762  0.2500
  228poe     o2 2735   5.548   5.902   3.772  0.0867  0.0436  0.4483
  228poe    c31 2736   5.492   5.974   3.880  0.1285  0.8203 -0.0400
  229poe    c31 2737   3.333   5.742   3.990 -0.5313  0.6472  0.2463
  229poe     o2 2738   3.339   5.757   3.850  0.1073  0.4621  0.2494
  229poe    c23 2739   3.215   5.801   3.797  0.0472  0.3065  0.2602
  229poe    c23 2740   3.240   5.830   3.648  0.4979 -0.7845  0.1101
  229poe     o2 2741   3.356   5.909   3.651  0.2992 -0.4836 -0.0529
  229poe    c23 2742   3.321   6.046   3.657  0.4319 -0.4297 -0.4171
  229poe    c23 2743   3.445   6.123   3.706 -0.2961  0.2618  0.3741
  229poe     o2 2744   3.503   6.032   3.797  0.3333  0.0824 -0.1942
  229poe    c23 2745   3.629   6.065   3.851  0.0588  0.0464  0.4821
  229poe    c23 2746   3.673   5.962   3.957 -0.3078 -0.2138  0.3836
  229poe     o2 2747   3.654   5.832   3.906  0.3545 -0.0636 -0.2794
  229poe    c31 2748   3.696   5.731   3.995 -0.6390 -0.1604  0.0971
  230poe    c31 2749   1.108   1.337   4.747 -0.6326 -0.5182  0.3052
  230poe     o2 2750   1.021   1.447   4.727  0.1050  0.0001 -0.0991
  230poe    c23 2751   0.980   1.488   4.856 -0.1553  0.1119 -0.2174
  230poe    c23 2752   0.843   1.557   4.846 -0.3314 -0.2673 -0.4335
  230poe     o2 2753   0.856   1.640   4.734  0.0585  0.6538  0.2810
  230poe    c23 2754   0.730   1.661   4.674  0.2502 -0.6167 -0.6145
  230poe    c23 2755   0.767   1.744   4.549 -0.6955  0.6274 -0.0939
  230poe     o2 2756   0.859   1.651   4.495 -0.4175  0.4766  0.6202
  230poe    c23 2757   0.922   1.694   4.377  0.1681 -0.0760  0.7244
  230poe    c23 2758   0.996   1.570   4.325 -0.1117 -0.1030  0.3820
  230poe     o2 2759   1.064   1.524   4.440 -0.2603 -0.2290  0.4195
  230poe    c31 2760   1.182   1.450   4.417 -0.1350  0.1309 -0.1197
  231poe    c31 2761   4.351   0.160   5.866  0.6191  0.4354 -0.2986
  231poe     o2 2762   4.358   0.034   5.929  0.5729  0.5182 -0.1256
  231poe    c23 2763   4.277  -0.056   5.857  0.8136  0.2836 -0.1051
  231poe    c23 2764   4.275  -0.192   5.930 -0.5988  0.1654 -0.3488
  231poe     o2 2765   4.197  -0.211   6.046 -0.2360 -0.3972 -0.1942
  231poe    c23 2766   4.239  -0.318   6.127 -0.2876 -0.0726  0.2681
  231poe    c23 2767   4.137  -0.332   6.242 -0.7828  0.2097 -0.1295
  231poe     o2 2768   4.140  -0.217   6.323  0.2728  0.1930 -0.1243
  231poe    c23 2769   4.086  -0.230   6.453  0.5000 -0.4394 -0.0897
  231poe    c23 2770   4.093  -0.090   6.516 -0.5084 -0.0342 -0.8539
  231poe     o2 2771   4.047   0.005   6.422 -0.7088  0.6830 -0.0442
  231poe    c31 2772   3.992   0.117   6.487  0.0083  0.6945  0.5523
  232poe    c31 2773   4.276   4.421   0.878 -0.1739 -0.1457  0.0782
  232poe     o2 2774   4.271   4.283   0.848 -0.1184 -0.1014 -0.1360
  232poe    c23 2775   4.239   4.224   0.972 -0.2607  0.4040  0.0728
  232poe    c23 2776   4.228   4.073   0.943 -0.2505  0.4954 -0.4042
  232poe     o2 2777   4.202   4.053   0.806  0.1686  0.6360 -0.5062
  232poe    c23 2778   4.256   3.932   0.757  0.6360  0.6742 -0.0914
  232poe    c23 2779   4.210   3.952   0.611  0.5027 -0.3152 -0.1900
  232poe     o2 2780   4.261   4.077   0.571 -0.0100 -0.0546 -0.0402
  232poe    c23 2781   4.217   4.131   0.448 -0.1071 -0.2126 -0.0752
  232poe    c23 2782   4.304   4.257   0.434  0.3266 -0.4439  0.4747
  232poe     o2 2783   4.303   4.324   0.559  1.0422  0.3350  0.0709
  232poe    c31 2784   4.428   4.386   0.578  1.1853  0.0876 -0.0537
  233poe    c31 2785   3.041   2.836   0.685 -0.1733  0.4873 -0.4060
  233poe     o2 2786   2.930   2.905   0.633 -0.3963  0.3664 -0.0921
  233poe    c23 2787   2.932   2.893   0.492 -0.2117 -0.0483 -0.0552
  233poe    c23 2788   2.811   2.944   0.412 -0.0029  0.4935 -0.0320
  233poe     o2 2789   2.786   3.075   0.459  0.1644  0.7080 -0.5329
  233poe    c23 2790   2.658   3.116   0.419 -0.2961 -0.2453 -0.0818
  233poe    c23 2791   2.630   3.216   0.533  0.0450 -0.4541  0.1870
  233poe     o2 2792   2.688   3.155   0.645 -0.2978 -0.3703  0.4133
  233poe    c23 2793   2.636   3.226   0.756  0.1883  0.4942  0.1001
  233poe    c23 2794   2.679   3.142   0.878  0.4784  0.3777 -0.0780
  233poe     o2 2795   2.801   3.084   0.840  0.0676 -0.5383 -0.0242
  233poe    c31 2796   2.873   3.061   0.959 -0.5500  0.2819  0.5175
  234poe    c31 2797   1.069   0.455   0.471 -0.3501  0.5792 -0.2393
  234poe     o2 2798   0.991   0.391   0.372 -0.1311 -0.0327 -0.0246
  234poe    c23 2799   1.018   0.254   0.353 -0.5746 -0.1351  0.0720
  234poe    c23 2800   0.879   0.192   0.331 -0.5642 -0.1030 -0.0814
  234poe     o2 2801   0.827   0.281   0.235  0.0508  0.4842  0.1224
  234poe    c23 2802   0.686   0.271   0.239  0.0911 -0.4072 -0.4579
  234poe    c23 2803   0.645   0.407   0.182  0.0841 -0.0709  0.3311
  234poe     o2 2804   0.714   0.500   0.262  0.0366  0.2560  0.0011
  234poe    c23 2805   0.685   0.633   0.226  0.3997  0.3320 -0.0218
  234poe    c23 2806   0.800   0.718   0.282  0.3155  0.3957  0.0549
  234poe     o2 2807   0.922   0.647   0.281 -0.2031 -0.4989 -0.1417
  234poe    c31 2808   1.027   0.740   0.288 -0.0622 -0.6433 -0.3562
  235poe    c31 2809   5.475   1.085   5.976  0.0693 -0.0653 -0.0472
  235poe     o2 2810   5.482   1.212   6.036 -0.1230 -0.1469  0.1526
  235poe    c23 2811   5.560   1.294   5.951  0.0795 -0.3502  0.1388
  235poe    c23 2812   5.559   1.432   6.020 -0.1656 -0.3134  0.0635
  235poe     o2 2813   5.601   1.395   6.150  0.2186 -0.4295 -0.0921
  235poe    c23 2814   5.567   1.505   6.233  0.1470 -0.4560 -0.0852
  235poe    c23 2815   5.555   1.461   6.380  0.2834  0.2012  0.1231
  235poe     o2 2816   5.533   1.322   6.378 -0.8319  0.3659  0.2057
  235poe    c23 2817   5.486   1.265   6.498  0.2608  0.0382  0.4881
  235poe    c23 2818   5.486   1.112   6.473  0.0433  0.0370  0.4912
  235poe     o2 2819   5.472   1.084   6.336  0.2512 -0.0344  0.4839
  235poe    c31 2820   5.473   0.945   6.315  0.3962  0.0177  0.1354
  236poe    c31 2821   3.252   3.275   4.673 -0.1508 -0.2415  0.0090
  236poe     o2 2822   3.368   3.240   4.602 -0.0924 -0.0953  0.0310
  236poe    c23 2823   3.332   3.200   4.472 -0.2528  0.3114 -0.0499
  236poe    c23 2824   3.457   3.148   4.398 -0.1041  0.7076 -0.0789
  236poe     o2 2825   3.548   3.253   4.423  0.3090  0.3580 -0.1052
  236poe    c23 2826   3.672   3.219   4.366  0.2262  0.4025 -0.3123
  236poe    c23 2827   3.775   3.307   4.440 -0.3117  0.4827  0.3575
  236poe     o2 2828   3.747   3.279   4.575  0.0028 -0.3150  0.2637
  236poe    c23 2829   3.821   3.351   4.671 -0.3300  0.1553  0.1684
  236poe    c23 2830   3.753   3.306   4.802 -0.2781  0.5026  0.3161
  236poe     o2 2831   3.616   3.303   4.770 -0.1868 -0.4387 -0.0090
  236poe    c31 2832   3.561   3.342   4.894  0.6616 -0.4732  0.3852
  237poe    c31 2833   1.434   2.990   1.085  0.1504  0.2298  0.2360
  237poe     o2 2834   1.511   2.996   0.967 -0.1585  0.0408  0.0246
  237poe    c23 2835   1.638   3.056   0.976 -0.1555  0.0078  0.2128
  237poe    c23 2836   1.735   3.043   0.857 -0.3447  0.7253 -0.0240
  237poe     o2 2837   1.666   3.078   0.739 -0.3668  0.1908 -0.1710
  237poe    c23 2838   1.712   2.990   0.639  0.0307  0.0924  0.0977
  237poe    c23 2839   1.587   2.927   0.576  0.1939  0.3340 -0.4770
  237poe     o2 2840   1.488   2.911   0.676  0.6274 -0.5394 -0.1775
  237poe    c23 2841   1.381   2.837   0.623 -0.0829  0.5023 -0.2279
  237poe    c23 2842   1.290   2.816   0.746  0.1819  0.3068 -0.0636
  237poe     o2 2843   1.297   2.947   0.797  0.1491  0.1616  0.3135
  237poe    c31 2844   1.175   2.977   0.861  0.1665  0.6788  0.1127
  238poe    c31 2845   4.371   5.417   4.288  0.1719 -0.4904 -0.1470
  238poe     o2 2846   4.290   5.430   4.173  0.4457 -0.8543 -0.3845
  238poe    c23 2847   4.159   5.380   4.190  0.0799 -0.0309 -0.7416
  238poe    c23 2848   4.066   5.428   4.078 -0.4857  0.5345 -0.0392
  238poe     o2 2849   4.152   5.468   3.973 -0.4147  0.3240 -0.0612
  238poe    c23 2850   4.086   5.540   3.871 -0.7539  0.0544 -0.0325
  238poe    c23 2851   4.185   5.561   3.756  0.0809 -0.6003  0.5538
  238poe     o2 2852   4.310   5.594   3.812  0.1961 -0.1783  0.0559
  238poe    c23 2853   4.416   5.533   3.741  0.4592  0.5988 -0.2369
  238poe    c23 2854   4.533   5.531   3.841 -0.2256  1.1778  0.5936
  238poe     o2 2855   4.499   5.511   3.976 -0.1201 -0.0118  0.4474
  238poe    c31 2856   4.622   5.490   4.040  0.1158 -0.4396 -0.1365
  239poe    c31 2857   2.310   4.373   2.295 -1.2159  0.2700 -0.3342
  239poe     o2 2858   2.309   4.512   2.319  0.1483  0.2450 -0.0241
  239poe    c23 2859   2.329   4.582   2.198  0.0292 -0.1811 -0.2949
  239poe    c23 2860   2.345   4.730   2.236  0.1367 -0.3183  0.1986
  239poe     o2 2861   2.269   4.756   2.352 -0.1838  0.4525 -0.1749
  239poe    c23 2862   2.249   4.894   2.372 -0.0018  0.4753 -0.1488
  239poe    c23 2863   2.135   4.893   2.476  0.0392  0.0419 -0.1073
  239poe     o2 2864   2.164   4.799   2.577 -0.0060 -0.0477 -0.1765
  239poe    c23 2865   2.045   4.748   2.633 -0.2736 -0.0417 -0.7295
  239poe    c23 2866   2.070   4.605   2.685 -0.0038  0.0758 -0.5344
  239poe     o2 2867   2.151   4.538   2.591 -0.2181  0.0396 -0.6926
  239poe    c31 2868   2.151   4.401   2.627  0.8436  0.2039 -0.0272
  240poe    c31 2869   3.316   2.183   1.141  0.0693 -0.1479  0.7542
  240poe     o2 2870   3.255   2.121   1.030 -0.2772  0.4671  0.5978
  240poe    c23 2871   3.130   2.069   1.070 -0.0818 -0.5004  0.0011
  240poe    c23 2872   3.074   1.991   0.950  0.1412 -0.0904 -0.3721
  240poe     o2 2873   3.179   1.915   0.895  0.2284 -0.1273 -0.1548
  240poe    c23 2874   3.127   1.864   0.775  0.0058 -0.5407  0.1121
  240poe    c23 2875   3.253   1.838   0.691 -0.0684  0.0139 -0.1814
  240poe     o2 2876   3.337   1.951   0.696  0.2264 -0.2189  0.2633
  240poe    c23 2877   3.472   1.920   0.671  0.1653 -0.4390  0.2023
  240poe    c23 2878   3.537   2.057   0.700 -0.5598  0.0679 -0.5035
  240poe     o2 2879   3.487   2.101   0.824  0.3054 -0.4064  0.0253
  240poe    c31 2880   3.570   2.201   0.880  0.1527 -0.2277 -0.0675
  241poe    c31 2881   3.297   4.049   0.704  0.0228  0.7929  0.0711
  241poe     o2 2882   3.167   4.103   0.715 -0.2985  0.0303  0.0581
  241poe    c23 2883   3.077   4.015   0.652  0.2585 -0.5635  0.0737
  241poe    c23 2884   2.948   3.998   0.735 -0.0382 -0.1005 -0.2837
  241poe     o2 2885   2.902   4.129   0.759 -0.0768 -0.0515 -0.6153
  241poe    c23 2886   2.818   4.128   0.872  0.4022  0.3476 -0.2498
  241poe    c23 2887   2.845   4.263   0.942 -0.3007  0.2817  0.1578
  241poe     o2 2888   2.985   4.275   0.951 -0.2778 -0.0221  0.2245
  241poe    c23 2889   3.031   4.385   1.027  0.5310 -0.2713  0.1045
  241poe    c23 2890   3.185   4.387   1.026  0.5248  0.1602 -0.2057
  241poe     o2 2891   3.225   4.345   0.897 -0.5189 -0.1134 -0.4529
  241poe    c31 2892   3.358   4.383   0.872 -0.5067  0.1210 -0.0504
  242poe    c31 2893   2.354   3.231   0.106 -0.3274 -0.3291 -0.1719
  242poe     o2 2894   2.397   3.210  -0.027 -0.0963 -0.0842 -0.1374
  242poe    c23 2895   2.537   3.226  -0.027 -0.1237  0.1748  0.2955
  242poe    c23 2896   2.556   3.190  -0.176 -0.5804 -0.3349  0.3582
  242poe     o2 2897   2.461   3.263  -0.250  0.2029  0.0871 -0.2509
  242poe    c23 2898   2.458   3.234  -0.388 -0.3955  0.3409 -0.2975
  242poe    c23 2899   2.332   3.308  -0.436 -0.6942  0.0850  0.0842
  242poe     o2 2900   2.230   3.305  -0.339 -0.4975  0.2648  0.2972
  242poe    c23 2901   2.121   3.391  -0.361 -0.2633  0.3810 -0.4136
  242poe    c23 2902   2.041   3.377  -0.230 -0.0686  0.3207 -0.3001
  242poe     o2 2903   2.142   3.358  -0.134 -0.6233 -0.1970  0.1900
  242poe    c31 2904   2.066   3.386  -0.019 -0.1599 -0.5303  0.5812
  243poe    c31 2905   0.680   5.375   2.802  0.0012  0.1322 -0.4946
  243poe     o2 2906   0.696   5.453   2.919  0.1067  0.1875 -0.5448
  243poe    c23 2907   0.670   5.585   2.878 -0.1737  0.2573 -0.1525
  243poe    c23 2908   0.721   5.685   2.984  0.5512  0.1406 -0.3875
  243poe     o2 2909   0.846   5.630   3.021  0.4047 -0.1684 -0.3435
  243poe    c23 2910   0.904   5.713   3.119  0.3699 -0.5081 -0.0320
  243poe    c23 2911   1.010   5.626   3.188  0.1366 -0.2766  0.6269
  243poe     o2 2912   0.936   5.506   3.195 -0.4059  0.0374  0.2886
  243poe    c23 2913   1.004   5.397   3.253  0.0861 -0.0623 -0.4559
  243poe    c23 2914   0.903   5.282   3.244  0.3853 -0.4010  0.3675
  243poe     o2 2915   0.868   5.277   3.107  1.0156 -0.1024  0.1940
  243poe    c31 2916   0.795   5.160   3.077 -0.0391  0.4420  0.5774
  244poe    c31 2917   2.078   0.278   6.294 -0.4333  0.1885  0.2703
  244poe     o2 2918   2.187   0.303   6.380 -0.1552  0.0192 -0.0289
  244poe    c23 2919   2.207   0.185   6.454 -0.1890  0.1905  0.2546
  244poe    c23 2920   2.290   0.210   6.581 -0.2564  0.4376  0.2497
  244poe     o2 2921   2.412   0.273   6.548  0.1825 -0.1898  0.6510
  244poe    c23 2922   2.513   0.196   6.488  0.1710  0.1218  0.2292
  244poe    c23 2923   2.581   0.280   6.378 -0.5728  0.6266  0.1501
  244poe     o2 2924   2.475   0.347   6.314 -0.6301 -0.1928 -0.6201
  244poe    c23 2925   2.521   0.424   6.205  0.1755  0.6103  0.2726
  244poe    c23 2926   2.399   0.462   6.120  0.1347  0.6831  0.3648
  244poe     o2 2927   2.290   0.505   6.199 -0.0642  0.2267  0.3417
  244poe    c31 2928   2.219   0.606   6.131 -0.1498  0.0056  0.1001
  245poe    c31 2929   6.492   0.141   4.212 -0.1890  0.0737 -0.6883
  245poe     o2 2930   6.418   0.088   4.104 -0.0822 -0.3490 -0.5577
  245poe    c23 2931   6.279   0.106   4.119 -0.0047 -0.1097 -0.0952
  245poe    c23 2932   6.228  -0.037   4.147 -0.1291 -0.1464 -0.5129
  245poe     o2 2933   6.295  -0.122   4.057 -0.0877 -0.3296 -0.3099
  245poe    c23 2934   6.302  -0.252   4.110  0.0070 -0.2943 -0.2356
  245poe    c23 2935   6.400  -0.312   4.007  0.1278 -0.1389 -0.2103
  245poe     o2 2936   6.500  -0.213   4.001  0.1805 -0.1212  0.7000
  245poe    c23 2937   6.586  -0.252   3.895 -0.1654  0.3178  0.2491
  245poe    c23 2938   6.697  -0.146   3.891  0.4138 -0.2878  0.0815
  245poe     o2 2939   6.633  -0.021   3.894 -0.2411 -0.5886 -0.8984
  245poe    c31 2940   6.714   0.090   3.863 -0.0909 -0.3121  0.4057
  246poe    c31 2941   0.851   0.697   4.079  0.3147  0.0613  0.6728
  246poe     o2 2942   0.970   0.644   4.025  0.1986  0.0660  0.4094
  246poe    c23 2943   0.963   0.506   4.050  0.0064 -0.0976 -0.5341
  246poe    c23 2944   1.076   0.431   3.977  0.5514 -0.1170  0.3215
  246poe     o2 2945   1.200   0.489   4.011  0.0907  0.6686  0.6746
  246poe    c23 2946   1.293   0.432   3.922 -0.4759  0.0489  0.4701
  246poe    c23 2947   1.424   0.502   3.961 -0.0113 -0.6234  0.1364
  246poe     o2 2948   1.385   0.638   3.953  0.1209 -0.5712  0.3550
  246poe    c23 2949   1.470   0.721   4.028 -0.0883 -0.2210  0.2099
  246poe    c23 2950   1.385   0.847   4.052  0.2833 -0.0618  0.6970
  246poe     o2 2951   1.252   0.808   4.078  0.1208  0.0096 -0.0205
  246poe    c31 2952   1.177   0.926   4.099 -0.1190 -0.0529 -0.5171
  247poe    c31 2953   5.066   0.773   0.875  0.4221 -0.3250  0.2516
  247poe     o2 2954   4.997   0.658   0.831  0.0774 -0.0782  0.1463
  247poe    c23 2955   4.878   0.700   0.768  0.0613 -0.1708  0.1145
  247poe    c23 2956   4.825   0.564   0.719 -0.2789  0.0198 -0.0512
  247poe     o2 2957   4.839   0.475   0.828 -0.4279  0.2395  0.1491
  247poe    c23 2958   4.793   0.345   0.799 -0.3047  0.2062  0.1024
  247poe    c23 2959   4.833   0.265   0.924 -0.0883 -0.3103 -0.2932
  247poe     o2 2960   4.968   0.299   0.951 -0.0394 -0.3524 -0.4852
  247poe    c23 2961   4.996   0.247   1.079 -0.5288 -0.0571 -0.2547
  247poe    c23 2962   5.082   0.357   1.142 -0.8531 -0.0477  0.1732
  247poe     o2 2963   5.059   0.485   1.086 -0.5180  0.1946  0.5755
  247poe    c31 2964   5.149   0.569   1.154  0.2244 -0.4632  0.4176
  248poe    c31 2965   1.652   0.850   1.761 -0.7712 -1.0524  0.1994
  248poe     o2 2966   1.753   0.834   1.858 -0.3428 -0.0299 -0.0683
  248poe    c23 2967   1.751   0.942   1.949 -0.0711 -0.1769  0.1136
  248poe    c23 2968   1.850   0.907   2.062 -0.0388 -0.0734  0.1182
  248poe     o2 2969   1.968   0.868   1.996 -0.0613 -0.0911  0.0879
  248poe    c23 2970   2.072   0.832   2.085  0.1362 -0.6554 -0.3677
  248poe    c23 2971   2.186   0.776   1.997  0.5229 -0.4363 -0.0110
  248poe     o2 2972   2.143   0.711   1.879 -0.4718  0.2881 -0.0606
  248poe    c23 2973   2.227   0.755   1.775 -0.2571  0.0828  0.0231
  248poe    c23 2974   2.138   0.734   1.651  0.3745  0.4367 -0.4993
  248poe     o2 2975   2.018   0.806   1.673  0.6255  0.4617  0.8471
  248poe    c31 2976   2.027   0.940   1.630 -0.0742  0.2097 -0.1100
  249poe    c31 2977   4.777   1.796   2.213 -0.0759  0.2659 -0.0438
  249poe     o2 2978   4.850   1.841   2.325  0.2098 -0.5752  0.1151
  249poe    c23 2979   4.796   1.783   2.441 -0.5696  0.7785  0.4582
  249poe    c23 2980   4.889   1.794   2.564 -0.0888  0.1655  0.1592
  249poe     o2 2981   4.921   1.931   2.575  0.2479  0.1075 -0.0976
  249poe    c23 2982   4.964   1.961   2.706  0.0340 -0.0233  0.0037
  249poe    c23 2983   4.940   2.110   2.738  0.3701  0.0434 -0.0439
  249poe     o2 2984   4.979   2.174   2.618 -0.0366  0.0205 -0.1914
  249poe    c23 2985   4.958   2.313   2.625  0.6419  0.1323 -0.2826
  249poe    c23 2986   5.011   2.372   2.493  0.6140  0.2311 -0.2499
  249poe     o2 2987   4.995   2.279   2.388  0.4344 -0.0215  0.0010
  249poe    c31 2988   4.957   2.357   2.277  0.2768  0.8223  0.6379
  250poe    c31 2989   6.636   3.936   3.695 -0.1197 -0.1485 -0.4709
  250poe     o2 2990   6.513   3.868   3.707 -0.0535 -0.2374 -0.2930
  250poe    c23 2991   6.414   3.926   3.625 -0.1988  0.2280  0.2094
  250poe    c23 2992   6.269   3.879   3.649 -0.0904 -0.1802  0.0694
  250poe     o2 2993   6.261   3.743   3.611 -0.0043 -0.0716 -0.3447
  250poe    c23 2994   6.211   3.655   3.709  0.5242  0.1492  0.1309
  250poe    c23 2995   6.277   3.652   3.848  0.1482  0.2436  0.3131
  250poe     o2 2996   6.413   3.622   3.830 -0.1093 -0.5395 -0.3844
  250poe    c23 2997   6.476   3.594   3.953 -0.2700 -0.3736 -0.2645
  250poe    c23 2998   6.620   3.548   3.926 -0.0529  0.1255  0.0267
  250poe     o2 2999   6.659   3.644   3.830  0.6986 -0.2519 -0.0580
  250poe    c31 3000   6.799   3.634   3.833  0.6932 -0.5149 -0.5513
  251poe    c31 3001   1.275   3.313   5.650 -0.3745 -0.1411 -0.6040
  251poe     o2 3002   1.184   3.413   5.611 -0.0783  0.1229 -0.6230
  251poe    c23 3003   1.258   3.518   5.552  0.1649  0.3619  0.0991
  251poe    c23 3004   1.172   3.640   5.589  0.0409  0.3706 -0.2147
  251poe     o2 3005   1.039   3.628   5.544 -0.0344  0.0857  0.0860
  251poe    c23 3006   0.960   3.681   5.648 -0.0376  0.4477 -0.0996
  251poe    c23 3007   0.828   3.603   5.650  0.4462 -0.3908 -0.1963
  251poe     o2 3008   0.877   3.471   5.641  0.7515 -0.3387  0.6290
  251poe    c23 3009   0.779   3.370   5.647  0.1375  0.1966 -0.1614
  251poe    c23 3010   0.845   3.231   5.650 -0.2423  0.0231  0.1848
  251poe     o2 3011   0.939   3.229   5.545  0.0621  0.0292  0.4562
  251poe    c31 3012   0.991   3.098   5.536 -0.4389 -0.1751  0.4807
  252poe    c31 3013   4.368   3.843   4.558  0.2917 -0.4269  0.9352
  252poe     o2 3014   4.273   3.856   4.661 -0.3116 -0.3375  0.3732
  252poe    c23 3015   4.146   3.861   4.599 -0.0434 -0.2012 -0.1748
  252poe    c23 3016   4.039   3.827   4.705  0.0320  0.1938  0.0285
  252poe     o2 3017   4.069   3.917   4.810 -0.3613  0.3719 -0.0100
  252poe    c23 3018   3.978   3.896   4.915 -0.6835  0.1478 -0.3283
  252poe    c23 3019   4.050   3.977   5.025 -0.4259  0.4145 -0.6894
  252poe     o2 3020   4.189   3.960   5.016 -0.3698  0.1296  0.5487
  252poe    c23 3021   4.254   4.076   5.063  0.5120 -0.1389  0.0137
  252poe    c23 3022   4.392   4.074   4.995  0.5312  0.2058  0.0423
  252poe     o2 3023   4.370   4.058   4.857 -0.1515  0.3038  0.1400
  252poe    c31 3024   4.468   4.120   4.778 -0.2228 -0.4112 -0.5245
  253poe    c31 3025   6.402   4.846   5.755  0.0759  0.3020  0.1408
  253poe     o2 3026   6.300   4.765   5.808 -0.3030  0.6545 -0.0358
  253poe    c23 3027   6.325   4.627   5.790  0.0336  0.6828  0.1978
  253poe    c23 3028   6.201   4.543   5.826  0.1287  0.3967 -0.1347
  253poe     o2 3029   6.144   4.610   5.937  0.0450  0.3054 -0.1221
  253poe    c23 3030   6.042   4.530   5.991  0.9158 -0.7353  0.0254
  253poe    c23 3031   5.987   4.627   6.097 -0.4506 -0.0961 -1.2284
  253poe     o2 3032   6.006   4.761   6.058  0.8630  0.1234  0.0686
  253poe    c23 3033   5.970   4.852   6.159  0.2444  0.2911 -0.2963
  253poe    c23 3034   6.020   4.984   6.098  0.5654  0.3376  0.0648
  253poe     o2 3035   6.128   4.970   6.008  0.3921  0.2096 -0.1245
  253poe    c31 3036   6.156   5.104   5.974 -0.8694  0.3563 -0.6013
  254poe    c31 3037   4.647   2.146   3.125  0.5712  0.4518 -0.0982
  254poe     o2 3038   4.586   2.273   3.122 -0.0330  0.1801  0.3666
  254poe    c23 3039   4.544   2.308   2.992 -0.5912 -0.6767  0.3105
  254poe    c23 3040   4.525   2.460   2.976  0.3237 -0.5513  0.3578
  254poe     o2 3041   4.453   2.490   3.094 -0.0153 -0.1799  0.0557
  254poe    c23 3042   4.425   2.628   3.105  0.5284 -0.0853  0.2684
  254poe    c23 3043   4.341   2.642   3.233  0.2813 -0.4880  0.1527
  254poe     o2 3044   4.394   2.563   3.336  0.1387 -0.3039  0.3679
  254poe    c23 3045   4.494   2.627   3.412 -0.2275  0.4450  0.2231
  254poe    c23 3046   4.576   2.522   3.489 -0.3892  0.0835 -0.0948
  254poe     o2 3047   4.621   2.434   3.389  0.3130  0.6521 -0.2849
  254poe    c31 3048   4.713   2.344   3.446 -0.7541 -0.0331  0.3812
  255poe    c31 3049   5.433   0.882   5.548 -0.2768 -0.0562  0.1236
  255poe     o2 3050   5.386   0.913   5.419 -0.1341  0.4158  0.1809
  255poe    c23 3051   5.466   1.002   5.345  0.3277  0.4789  0.7501
  255poe    c23 3052   5.372   1.054   5.235  0.4811  0.2183  0.4959
  255poe     o2 3053   5.311   0.941   5.175  0.1704  0.5439  0.1944
  255poe    c23 3054   5.220   0.975   5.073  0.3489  0.1659 -0.0927
  255poe    c23 3055   5.138   0.848   5.041  0.2753  0.1065  0.3275
  255poe     o2 3056   5.089   0.813   5.169 -0.0182  0.1228  0.2199
  255poe    c23 3057   5.008   0.698   5.178  0.4177 -0.1987  0.1058
  255poe    c23 3058   4.995   0.704   5.331 -0.1913  0.4310  0.0385
  255poe     o2 3059   5.113   0.719   5.407  0.2369 -0.5566 -0.4148
  255poe    c31 3060   5.075   0.711   5.542  0.9242  0.1914 -0.1650
  256poe    c31 3061   6.460   5.275   5.044  0.8076  0.3892 -0.5547
  256poe     o2 3062   6.442   5.312   4.909  0.3934  0.4006 -0.4979
  256poe    c23 3063   6.553   5.385   4.860  0.3676  0.7361 -0.0676
  256poe    c23 3064   6.534   5.358   4.709 -0.3188  0.0214  0.1403
  256poe     o2 3065   6.403   5.391   4.670 -0.2698  0.0586  0.0082
  256poe    c23 3066   6.379   5.384   4.531  0.1760 -0.2800 -0.0525
  256poe    c23 3067   6.282   5.265   4.514  0.1387 -0.3109  0.3642
  256poe     o2 3068   6.196   5.264   4.626 -0.4717  0.5188 -0.0833
  256poe    c23 3069   6.149   5.132   4.644  0.6655  0.0839 -0.1938
  256poe    c23 3070   6.076   5.139   4.779 -0.0476 -0.3362 -0.5478
  256poe     o2 3071   6.174   5.195   4.864 -0.6735  0.2487 -0.2099
  256poe    c31 3072   6.142   5.149   4.994 -0.9354  0.0467 -0.3446
  257poe    c31 3073   1.500   0.981   2.553 -0.6028  0.0589  0.1328
  257poe     o2 3074   1.530   0.902   2.666  0.4039 -0.0476 -0.1987
  257poe    c23 3075   1.597   0.982   2.761 -0.0332 -0.0991  0.1546
  257poe    c23 3076   1.653   0.885   2.865 -0.1783 -0.2632  0.0803
  257poe     o2 3077   1.685   0.765   2.797 -0.3874 -0.2301 -0.0736
  257poe    c23 3078   1.711   0.656   2.881 -0.3894 -0.4444 -0.3508
  257poe    c23 3079   1.719   0.537   2.784  0.1180  0.0175 -0.8811
  257poe     o2 3080   1.599   0.546   2.709 -0.5236  0.1506  0.1482
  257poe    c23 3081   1.587   0.434   2.625 -0.7617  0.1141  0.2300
  257poe    c23 3082   1.481   0.474   2.521 -0.1832  0.2103 -0.3338
  257poe     o2 3083   1.482   0.614   2.509 -0.5930  0.2817  0.4333
  257poe    c31 3084   1.427   0.644   2.383 -0.1242 -0.4015  0.0640
  258poe    c31 3085   3.746   0.574   2.835 -0.3188  0.7449  0.1953
  258poe     o2 3086   3.660   0.681   2.868 -0.1088  0.6259  1.1681
  258poe    c23 3087   3.541   0.686   2.792  0.2965 -0.2828  0.4509
  258poe    c23 3088   3.443   0.788   2.853  0.0387 -0.4313  0.2813
  258poe     o2 3089   3.510   0.910   2.869  0.2020 -0.5019  0.1366
  258poe    c23 3090   3.432   1.001   2.943  0.2324  0.0588 -0.5163
  258poe    c23 3091   3.544   1.095   2.990  0.1552 -0.0790 -0.0566
  258poe     o2 3092   3.651   1.011   3.025  0.3334  0.1361 -0.0822
  258poe    c23 3093   3.748   1.062   3.114  0.1715  0.2654  0.0203
  258poe    c23 3094   3.805   0.937   3.184 -0.2060  0.4299  0.6325
  258poe     o2 3095   3.833   0.840   3.086  0.2359  0.3839  0.8022
  258poe    c31 3096   3.888   0.725   3.148 -0.0645 -0.3684 -0.3097
  259poe    c31 3097   4.724   4.254   1.605 -0.2477 -0.0454 -0.0668
  259poe     o2 3098   4.659   4.131   1.581 -0.1466 -0.1132  0.0091
  259poe    c23 3099   4.706   4.084   1.457 -0.5151 -0.2956 -0.0609
  259poe    c23 3100   4.676   3.935   1.435  0.5353 -0.5124 -0.0574
  259poe     o2 3101   4.574   3.914   1.530  0.3893  0.0379 -0.0917
  259poe    c23 3102   4.541   3.782   1.566 -0.2758  0.4634  0.9061
  259poe    c23 3103   4.414   3.799   1.651 -0.6674 -0.3918  0.5003
  259poe     o2 3104   4.453   3.895   1.746 -0.2433 -0.2052  0.1400
  259poe    c23 3105   4.348   3.929   1.834 -0.1269 -0.1721  0.2672
  259poe    c23 3106   4.404   4.035   1.930  0.6126 -0.3940  0.0914
  259poe     o2 3107   4.454   4.133   1.842 -0.0012 -0.3315 -0.1949
  259poe    c31 3108   4.512   4.230   1.927 -0.1200 -0.2330 -0.2259
  260poe    c31 3109   1.274   4.482   1.605 -0.2371  0.0420 -0.1422
  260poe     o2 3110   1.365   4.536   1.698 -0.0367 -0.0932 -0.2591
  260poe    c23 3111   1.402   4.668   1.665  0.2725 -0.2045 -0.3654
  260poe    c23 3112   1.510   4.719   1.761 -0.2090 -0.0232  0.0851
  260poe     o2 3113   1.470   4.683   1.891  0.3467  0.3447  0.3637
  260poe    c23 3114   1.575   4.684   1.986  0.5222 -0.1296  0.1747
  260poe    c23 3115   1.531   4.591   2.100  0.2236  0.1198  0.2637
  260poe     o2 3116   1.431   4.505   2.051  0.3825  0.1716 -0.1551
  260poe    c23 3117   1.409   4.387   2.126  0.1473 -0.0741 -0.6093
  260poe    c23 3118   1.321   4.279   2.061  0.0328 -0.3639  0.0220
  260poe     o2 3119   1.312   4.313   1.924 -0.2949  0.1442  0.1652
  260poe    c31 3120   1.289   4.198   1.845  0.3465  0.3008 -0.2602
  261poe    c31 3121   3.763   1.963   0.035 -0.1013 -0.1351  0.1215
  261poe     o2 3122   3.755   2.101   0.066 -0.3916  0.0284 -0.6658
  261poe    c23 3123   3.886   2.147   0.091 -0.5483 -0.0188  0.2634
  261poe    c23 3124   3.890   2.270   0.184 -1.4990 -0.1251  0.4513
  261poe     o2 3125   3.781   2.341   0.128 -0.8778 -0.0046 -0.6231
  261poe    c23 3126   3.759   2.453   0.211  0.0534 -0.0839 -0.2497
  261poe    c23 3127   3.629   2.415   0.285  0.0005  0.1816 -0.2082
  261poe     o2 3128   3.548   2.346   0.193  0.2919 -0.1889 -0.1874
  261poe    c23 3129   3.473   2.236   0.238  0.1465 -0.2287 -0.5231
  261poe    c23 3130   3.392   2.176   0.122 -0.2212 -0.0846 -0.3433
  261poe     o2 3131   3.501   2.127   0.047 -0.1343  0.1052 -0.3409
  261poe    c31 3132   3.452   2.095  -0.081 -0.3736 -0.1021 -0.1964
  262poe    c31 3133   3.712   1.443   0.719 -0.0335 -0.5264  0.3476
  262poe     o2 3134   3.779   1.508   0.824  0.0483  0.0501 -0.0604
  262poe    c23 3135   3.853   1.621   0.783 -0.0460  0.2172  0.2251
  262poe    c23 3136   3.903   1.704   0.903 -0.0523  0.5857 -0.0236
  262poe     o2 3137   3.937   1.610   1.003 -0.0751  0.1599 -0.4136
  262poe    c23 3138   4.007   1.670   1.109 -0.4862 -0.0858  0.0020
  262poe    c23 3139   3.980   1.564   1.217 -0.1619  0.2731  0.4428
  262poe     o2 3140   3.864   1.493   1.180  0.2381 -0.3127  0.3033
  262poe    c23 3141   3.877   1.360   1.228  0.1648 -0.4743 -0.1201
  262poe    c23 3142   3.772   1.272   1.159 -0.3201  0.1096 -0.1419
  262poe     o2 3143   3.742   1.310   1.027 -0.7328  0.4429  0.0439
  262poe    c31 3144   3.711   1.194   0.953 -0.2935  0.1048  0.3853
  263poe    c31 3145   5.003   2.780   3.523  0.2952  0.2342  0.0657
  263poe     o2 3146   5.119   2.710   3.562  0.0297 -0.2628 -0.0335
  263poe    c23 3147   5.116   2.581   3.506 -0.2262 -0.4180  0.3327
  263poe    c23 3148   5.245   2.510   3.554  0.1587  0.3365  0.4249
  263poe     o2 3149   5.242   2.530   3.693  0.1888  0.2460  0.4386
  263poe    c23 3150   5.360   2.477   3.748  0.2342  0.0395  0.1431
  263poe    c23 3151   5.337   2.512   3.896 -0.3845  0.5825 -0.0791
  263poe     o2 3152   5.281   2.642   3.886 -0.6935  0.4064 -0.6593
  263poe    c23 3153   5.268   2.713   4.006 -0.4305  0.0538 -0.4168
  263poe    c23 3154   5.234   2.853   3.950  0.6817  0.5966  0.2338
  263poe     o2 3155   5.158   2.842   3.832 -0.2975  0.1072  0.8971
  263poe    c31 3156   5.157   2.968   3.769  0.5612 -0.1791  0.2954
  264poe    c31 3157   1.737   5.635   5.302 -0.2661 -0.3371 -0.2356
  264poe     o2 3158   1.802   5.512   5.327  0.1916 -0.1123 -0.3033
  264poe    c23 3159   1.705   5.410   5.314 -0.3734  0.3897 -0.0896
  264poe    c23 3160   1.746   5.271   5.368  0.0738  0.6638  0.2877
  264poe     o2 3161   1.855   5.215   5.298 -0.2060  0.3997  0.0617
  264poe    c23 3162   1.963   5.202   5.386 -0.0212  0.2621 -0.1855
  264poe    c23 3163   2.045   5.083   5.330  0.6118  0.6727 -0.1430
  264poe     o2 3164   2.080   5.105   5.196  0.1748  0.4247 -0.2993
  264poe    c23 3165   2.155   5.007   5.128  0.1310  0.3961 -0.3053
  264poe    c23 3166   2.173   5.057   4.983  0.2531 -0.0675 -0.4524
  264poe     o2 3167   2.042   5.096   4.949  0.2659  0.1021 -0.3078
  264poe    c31 3168   2.020   5.119   4.812 -0.7860  0.2690 -0.1160
  265poe    c31 3169   0.101   0.805   4.046 -0.3223 -0.1811  0.0193
  265poe     o2 3170   0.184   0.703   3.995 -0.4801 -0.2418 -0.1140
  265poe    c23 3171   0.118   0.606   3.916 -0.4516 -0.6447  0.3578
  265poe    c23 3172   0.212   0.534   3.818 -0.0924 -0.1613  0.3488
  265poe     o2 3173   0.270   0.641   3.746 -0.3782 -0.3367 -0.1471
  265poe    c23 3174   0.395   0.597   3.696 -0.2533  0.3358 -0.4370
  265poe    c23 3175   0.502   0.707   3.691  0.0428  0.0407 -0.6356
  265poe     o2 3176   0.494   0.765   3.820  0.0025  0.1408 -0.6829
  265poe    c23 3177   0.556   0.892   3.825  0.8345 -0.2577 -0.6671
  265poe    c23 3178   0.574   0.917   3.976  0.0971 -0.4043 -0.5493
  265poe     o2 3179   0.454   0.880   4.038  0.2076 -0.3532 -0.3045
  265poe    c31 3180   0.439   0.920   4.173  0.3823 -0.6124 -0.2068
  266poe    c31 3181   1.512   5.744   2.844 -0.3085 -0.6849  0.4890
  266poe     o2 3182   1.590   5.800   2.947 -0.4104  0.1070  0.1338
  266poe    c23 3183   1.605   5.728   3.067  0.1098  0.0289  0.0270
  266poe    c23 3184   1.706   5.811   3.147  0.1901  0.0075 -0.0514
  266poe     o2 3185   1.662   5.944   3.153 -0.2887 -0.1507 -0.0263
  266poe    c23 3186   1.736   6.022   3.245  0.4017 -0.2474 -0.4938
  266poe    c23 3187   1.666   6.159   3.255  0.6676 -0.0834 -0.8859
  266poe     o2 3188   1.662   6.205   3.122 -0.3478 -0.1774 -0.8906
  266poe    c23 3189   1.558   6.300   3.113 -0.2360  0.0155 -0.1706
  266poe    c23 3190   1.541   6.318   2.961  0.1770  0.2827 -0.1869
  266poe     o2 3191   1.507   6.196   2.898  0.0053  0.3272 -0.1809
  266poe    c31 3192   1.476   6.228   2.764  0.5463 -0.2240 -0.4384
  267poe    c31 3193   2.146   2.448   1.727  0.1053 -0.1468 -0.5101
  267poe     o2 3194   2.159   2.555   1.636 -0.6250  0.1312 -0.2958
  267poe    c23 3195   2.210   2.659   1.715  0.4474 -0.2012 -0.5381
  267poe    c23 3196   2.142   2.790   1.670 -0.0141 -0.3217 -0.1923
  267poe     o2 3197   2.177   2.818   1.536 -0.0802 -0.1152 -0.1664
  267poe    c23 3198   2.093   2.919   1.485 -0.0708 -0.0148  0.0136
  267poe    c23 3199   2.058   2.868   1.344  0.2681 -0.1294 -0.0289
  267poe     o2 3200   2.011   2.736   1.359  0.1992 -0.0701  0.2733
  267poe    c23 3201   1.972   2.693   1.231 -0.0520  0.0266  0.3164
  267poe    c23 3202   1.988   2.540   1.225 -0.7183 -0.0528  0.4733
  267poe     o2 3203   2.080   2.496   1.323 -0.4754  0.0312  0.2847
  267poe    c31 3204   2.102   2.357   1.312 -0.1897  0.1215 -0.3335
  268poe    c31 3205   6.241   4.337   3.013 -0.7009 -0.4669 -0.3379
  268poe     o2 3206   6.157   4.451   3.017 -0.0480  0.0178 -0.2982
  268poe    c23 3207   6.225   4.546   2.938  0.2514 -0.1938 -0.2963
  268poe    c23 3208   6.115   4.627   2.868  0.2231 -0.1137 -0.1599
  268poe     o2 3209   6.011   4.535   2.846 -0.1324  0.2850 -0.1743
  268poe    c23 3210   5.906   4.577   2.762 -0.0831  0.1040 -0.3289
  268poe    c23 3211   5.815   4.454   2.780  0.1145 -0.0537 -0.4027
  268poe     o2 3212   5.826   4.400   2.909 -0.7307  0.2643 -0.1937
  268poe    c23 3213   5.769   4.272   2.924 -0.5131  0.1903  0.0154
  268poe    c23 3214   5.808   4.240   3.069 -0.0491 -0.1332 -0.1775
  268poe     o2 3215   5.945   4.263   3.094 -0.2211  0.2460  0.4318
  268poe    c31 3216   5.967   4.216   3.226 -0.0278  0.0821  0.3411
  269poe    c31 3217   5.316   0.148   5.053 -0.0938  0.2141 -0.3031
  269poe     o2 3218   5.204   0.176   5.135  0.3774  0.5150  0.2501
  269poe    c23 3219   5.105   0.239   5.057  0.3157 -0.0551 -0.1408
  269poe    c23 3220   4.988   0.277   5.149  0.3588 -0.1788 -0.0352
  269poe     o2 3221   5.064   0.330   5.255  0.2733 -0.6079  0.2437
  269poe    c23 3222   4.979   0.334   5.368  0.1497  0.1323  0.1332
  269poe    c23 3223   5.065   0.358   5.494  0.0161 -0.3980  0.3295
  269poe     o2 3224   5.164   0.257   5.485 -0.0161 -0.4198  0.2219
  269poe    c23 3225   5.264   0.266   5.583 -0.0510  0.3611  0.1909
  269poe    c23 3226   5.346   0.143   5.541 -0.3995  0.2554 -0.1784
  269poe     o2 3227   5.333   0.113   5.404 -0.0183 -0.0003 -0.1582
  269poe    c31 3228   5.404  -0.002   5.365 -0.2066  0.0024 -0.5150
  270poe    c31 3229   5.817   4.724   4.527  0.0491  0.2395 -0.2670
  270poe     o2 3230   5.866   4.652   4.638 -0.0123 -0.1505 -0.4893
  270poe    c23 3231   6.002   4.685   4.658 -0.0483 -0.4175  0.1966
  270poe    c23 3232   6.056   4.597   4.773 -0.2039 -0.2066  0.4331
  270poe     o2 3233   6.013   4.464   4.757 -0.4272 -0.0815 -0.0186
  270poe    c23 3234   6.028   4.374   4.864  0.2197  0.6276  0.4893
  270poe    c23 3235   5.910   4.407   4.958 -0.1033 -0.3736  0.4382
  270poe     o2 3236   5.796   4.413   4.875  0.0587  0.0757  0.2465
  270poe    c23 3237   5.690   4.467   4.949  0.1111  0.2117  0.2224
  270poe    c23 3238   5.577   4.481   4.845  0.5331 -0.1934 -0.2926
  270poe     o2 3239   5.627   4.509   4.716  0.2646  0.0514 -0.3447
  270poe    c31 3240   5.521   4.524   4.624  0.1834  0.5986 -0.1647
  271poe    c31 3241   2.529   5.099   2.174 -0.0213  0.5803  0.8325
  271poe     o2 3242   2.521   5.067   2.036 -0.1546  0.1997  0.9274
  271poe    c23 3243   2.459   5.169   1.960  0.3816 -0.4670 -0.4170
  271poe    c23 3244   2.495   5.181   1.811 -0.1013 -0.5817 -0.5450
  271poe     o2 3245   2.636   5.183   1.801 -0.0488 -0.3145  0.2069
  271poe    c23 3246   2.674   5.212   1.668  0.1054  0.5740  0.4399
  271poe    c23 3247   2.826   5.226   1.651  0.1374 -0.3228 -0.0253
  271poe     o2 3248   2.877   5.129   1.741 -0.1168 -0.0753  0.3871
  271poe    c23 3249   3.017   5.138   1.730 -0.1406 -0.3498 -0.1853
  271poe    c23 3250   3.082   5.057   1.845 -0.4495 -0.2805  0.0385
  271poe     o2 3251   3.031   5.116   1.962  0.5386  0.0739  0.2943
  271poe    c31 3252   3.071   5.045   2.077  0.1221  0.4440  0.6720
  272poe    c31 3253   5.124   6.155   2.387 -0.1417  0.1061  0.1945
  272poe     o2 3254   5.234   6.182   2.470  0.0229 -0.3961  0.1447
  272poe    c23 3255   5.239   6.322   2.488 -0.1375 -0.3762  0.0319
  272poe    c23 3256   5.328   6.369   2.605 -0.0079  0.5351 -0.4229
  272poe     o2 3257   5.448   6.294   2.596 -0.2748 -0.0183  0.5101
  272poe    c23 3258   5.513   6.281   2.721  0.1951 -0.3047  0.2373
  272poe    c23 3259   5.574   6.141   2.742  0.4689 -0.2244 -0.0223
  272poe     o2 3260   5.475   6.059   2.684  0.2887  0.2876 -0.4493
  272poe    c23 3261   5.500   5.921   2.698 -0.2561  0.2314  0.0235
  272poe    c23 3262   5.376   5.851   2.640 -0.0868 -0.0508 -0.0032
  272poe     o2 3263   5.359   5.920   2.518 -0.5727 -0.4082 -0.1390
  272poe    c31 3264   5.302   5.838   2.419 -0.4825 -0.2742 -0.3021
  273poe    c31 3265   3.012   3.825   6.324  0.2683  0.0429  0.4454
  273poe     o2 3266   2.899   3.787   6.399  0.0129  0.6894  0.3890
  273poe    c23 3267   2.781   3.811   6.326 -0.1315  0.4557  0.5425
  273poe    c23 3268   2.655   3.743   6.382 -0.3163  0.0922 -0.3023
  273poe     o2 3269   2.682   3.730   6.519  0.6617 -0.3369 -0.5272
  273poe    c23 3270   2.584   3.655   6.587  0.7980  0.0866  0.1484
  273poe    c23 3271   2.576   3.672   6.740 -0.0033  0.4618  0.0660
  273poe     o2 3272   2.700   3.623   6.785 -0.2064  0.0171  0.1577
  273poe    c23 3273   2.684   3.562   6.911  0.3465 -0.0347  0.2058
  273poe    c23 3274   2.809   3.476   6.938  0.5863  0.1650 -0.2493
  273poe     o2 3275   2.824   3.387   6.830 -0.1904 -0.0972 -0.1465
  273poe    c31 3276   2.912   3.279   6.854  0.2698  0.3742  0.3171
  274poe    c31 3277   5.367   5.786   1.115  0.0310 -0.0701  0.0358
  274poe     o2 3278   5.423   5.666   1.163  0.1625 -0.2223 -0.4953
  274poe    c23 3279   5.342   5.625   1.271 -0.1310  0.4211 -0.4687
  274poe    c23 3280   5.428   5.599   1.396 -0.5335  0.1756 -0.2415
  274poe     o2 3281   5.538   5.527   1.346 -0.1548  0.2531  0.4804
  274poe    c23 3282   5.661   5.581   1.390  0.2042  0.2104 -0.4535
  274poe    c23 3283   5.768   5.528   1.293  0.2787 -0.1181 -0.1953
  274poe     o2 3284   5.699   5.553   1.172  0.1842  0.0589 -0.1058
  274poe    c23 3285   5.774   5.494   1.068 -0.3332 -0.0356 -0.4296
  274poe    c23 3286   5.695   5.517   0.938 -0.5707  0.0464 -0.2716
  274poe     o2 3287   5.557   5.508   0.967 -0.3994 -0.4745  0.4005
  274poe    c31 3288   5.487   5.513   0.845  0.0222  0.1304  0.1788
  275poe    c31 3289   3.500   0.316   0.405  0.3493  0.3718 -0.5327
  275poe     o2 3290   3.538   0.352   0.274 -0.0463  0.4346 -0.6299
  275poe    c23 3291   3.469   0.272   0.181 -0.2297  0.4971 -0.5477
  275poe    c23 3292   3.488   0.331   0.040  0.2669  0.3252 -0.5538
  275poe     o2 3293   3.611   0.398   0.054  0.3161  0.1434 -0.0964
  275poe    c23 3294   3.646   0.481  -0.055  0.0450  0.6289  0.1839
  275poe    c23 3295   3.777   0.552  -0.019  0.4320 -0.0067  0.0475
  275poe     o2 3296   3.775   0.572   0.120  0.6552 -0.5592  0.1322
  275poe    c23 3297   3.905   0.586   0.171  0.4062  1.0821  0.3648
  275poe    c23 3298   3.881   0.592   0.323 -0.1230 -0.1735  0.3398
  275poe     o2 3299   3.782   0.496   0.351  0.1501 -0.5269  0.1039
  275poe    c31 3300   3.799   0.456   0.486 -0.0016  0.0722  0.3033
  276poe    c31 3301   0.159   0.038   3.463 -0.2771 -0.2247 -0.0874
  276poe     o2 3302   0.270  -0.019   3.397 -0.0128  0.1645  0.0228
  276poe    c23 3303   0.367  -0.037   3.498  0.1070 -0.3236 -0.1784
  276poe    c23 3304   0.487  -0.044   3.402  0.4227 -0.5982  0.2358
  276poe     o2 3305   0.450  -0.126   3.294  0.4918 -0.1202 -0.1542
  276poe    c23 3306   0.553  -0.152   3.201 -0.0184 -0.0270 -0.7515
  276poe    c23 3307   0.474  -0.210   3.082 -0.5279 -0.4999 -0.1846
  276poe     o2 3308   0.363  -0.124   3.069  0.2277  0.6686  0.8495
  276poe    c23 3309   0.266  -0.171   2.977  0.1385  0.1986  1.1812
  276poe    c23 3310   0.133  -0.102   3.011 -0.4163 -0.0921 -0.3457
  276poe     o2 3311   0.094  -0.130   3.143 -0.2655  0.1656 -0.2449
  276poe    c31 3312  -0.032  -0.074   3.172 -0.5336 -0.4284 -0.2479
  277poe    c31 3313   1.762   0.149   5.492  0.3025 -0.1606 -0.0793
  277poe     o2 3314   1.762   0.278   5.436 -0.1525  0.0563  0.4172
  277poe    c23 3315   1.672   0.282   5.328  0.0105  0.2296  0.2869
  277poe    c23 3316   1.698   0.398   5.230 -0.2776  0.1562  0.1224
  277poe     o2 3317   1.724   0.508   5.314  0.3452  0.2853 -0.2379
  277poe    c23 3318   1.780   0.615   5.241  0.4487  0.1296 -0.3871
  277poe    c23 3319   1.811   0.716   5.353 -0.0036  0.2261 -0.3490
  277poe     o2 3320   1.881   0.640   5.449 -0.0039  0.2448 -0.3339
  277poe    c23 3321   1.977   0.718   5.516  0.2154 -0.0775 -0.2700
  277poe    c23 3322   2.064   0.658   5.628 -0.2203 -0.3277 -0.0611
  277poe     o2 3323   2.160   0.562   5.590  0.3500  0.0134  0.4973
  277poe    c31 3324   2.252   0.529   5.692  0.6018 -0.0181  0.2631
  278poe    c31 3325   6.062   6.035   5.116  0.5749 -0.2101  0.4323
  278poe     o2 3326   6.020   6.016   5.250  0.3174  0.4215  0.4460
  278poe    c23 3327   5.896   5.949   5.249 -0.0304  1.0667 -0.0002
  278poe    c23 3328   5.865   5.923   5.397  0.8677 -0.4354 -0.0648
  278poe     o2 3329   5.881   6.052   5.451  0.0544 -0.3690  0.0378
  278poe    c23 3330   5.857   6.032   5.588 -0.1145  0.7533  0.1794
  278poe    c23 3331   5.879   6.171   5.650  0.2138  0.5885  0.4332
  278poe     o2 3332   5.995   6.213   5.582  0.1910 -0.1477 -0.0680
  278poe    c23 3333   6.115   6.184   5.650  0.1790 -0.3232 -0.1226
  278poe    c23 3334   6.241   6.207   5.565  0.3541  0.0904  0.2476
  278poe     o2 3335   6.221   6.163   5.433  0.1220 -0.1080  0.3490
  278poe    c31 3336   6.332   6.187   5.350 -0.3461  0.4136 -0.1344
  279poe    c31 3337   2.978   1.823   2.505 -0.2763 -0.4067  0.0684
  279poe     o2 3338   2.913   1.863   2.623 -0.4242 -0.0939 -0.1185
  279poe    c23 3339   2.801   1.778   2.639  0.1033 -0.8351 -0.3432
  279poe    c23 3340   2.746   1.797   2.781  0.3697  0.0091 -0.3494
  279poe     o2 3341   2.757   1.935   2.811  0.1355 -0.1710  0.5895
  279poe    c23 3342   2.736   1.972   2.945  0.1869 -0.0711  0.5697
  279poe    c23 3343   2.815   2.100   2.981  0.4230 -0.3015  0.8764
  279poe     o2 3344   2.934   2.086   2.907  0.0261 -0.6343  0.2878
  279poe    c23 3345   3.017   2.200   2.919 -0.2502 -0.4306  0.2991
  279poe    c23 3346   3.153   2.161   2.857 -0.4842 -0.3126 -0.2892
  279poe     o2 3347   3.122   2.104   2.732 -0.0117 -0.5913 -0.2805
  279poe    c31 3348   3.235   2.053   2.665  0.3129 -0.2214 -0.0160
  280poe    c31 3349   2.620   6.500   3.455 -0.1029 -0.3022  0.1350
  280poe     o2 3350   2.711   6.448   3.550  0.0385  0.5136  0.4533
  280poe    c23 3351   2.634   6.396   3.656  0.0564 -0.2886  0.0833
  280poe    c23 3352   2.720   6.394   3.784  0.3146  0.1504 -0.0792
  280poe     o2 3353   2.834   6.325   3.736  0.3810  0.3522 -0.2121
  280poe    c23 3354   2.933   6.338   3.836 -0.0148 -0.2628  0.2678
  280poe    c23 3355   3.062   6.365   3.756 -0.4670 -0.0952 -0.4163
  280poe     o2 3356   3.028   6.451   3.649 -0.6968  0.0798 -0.2058
  280poe    c23 3357   3.135   6.504   3.574  0.1107 -0.3050  0.6432
  280poe    c23 3358   3.081   6.633   3.509  0.1571 -0.5888  0.0372
  280poe     o2 3359   2.965   6.597   3.436 -0.0329  0.1284 -0.0168
  280poe    c31 3360   2.930   6.713   3.364  0.0058  0.0673 -0.1334
  281poe    c31 3361   0.955   3.927   5.267  0.0767  0.6127 -0.4495
  281poe     o2 3362   0.845   3.845   5.237  0.0633  0.2059  0.6668
  281poe    c23 3363   0.730   3.895   5.302 -0.2494  0.0590  0.2340
  281poe    c23 3364   0.635   3.777   5.279  0.2530 -0.2405 -0.3577
  281poe     o2 3365   0.641   3.717   5.152 -0.0784 -0.4475 -0.2793
  281poe    c23 3366   0.551   3.612   5.127 -0.3593 -0.2462 -0.1122
  281poe    c23 3367   0.585   3.582   4.980 -0.3572 -0.1412 -0.1332
  281poe     o2 3368   0.726   3.574   4.978 -0.3744 -0.4820 -0.1225
  281poe    c23 3369   0.777   3.582   4.847 -0.4099 -0.6497 -0.1461
  281poe    c23 3370   0.924   3.626   4.856 -0.7701  0.5525 -0.0483
  281poe     o2 3371   0.926   3.734   4.947  0.1663  0.1673  0.3981
  281poe    c31 3372   1.048   3.805   4.938  0.1205  0.1996  0.0363
  282poe    c31 3373   1.639   1.902   3.699  0.2284 -0.1836 -0.1692
  282poe     o2 3374   1.546   1.877   3.596  0.0986  0.0328 -0.1057
  282poe    c23 3375   1.540   1.982   3.502  0.1692  0.0051 -0.1412
  282poe    c23 3376   1.449   1.941   3.385 -0.5797  0.3154  0.3238
  282poe     o2 3377   1.324   1.904   3.439 -0.8117  0.0594 -0.3734
  282poe    c23 3378   1.245   1.830   3.350 -0.1430 -0.9100 -0.1841
  282poe    c23 3379   1.167   1.737   3.445 -0.6801  0.0806  0.3628
  282poe     o2 3380   1.261   1.675   3.529 -0.1049 -0.2887 -0.5339
  282poe    c23 3381   1.195   1.574   3.601 -0.1516  0.6102  0.7261
  282poe    c23 3382   1.321   1.514   3.665  0.0993 -0.0372 -0.3502
  282poe     o2 3383   1.385   1.621   3.731  0.0474  0.0300 -0.4093
  282poe    c31 3384   1.469   1.592   3.840  0.4538  0.3052 -0.6430
  283poe    c31 3385   1.061   4.262   3.832 -0.5134 -0.3276  0.2895
  283poe     o2 3386   1.161   4.295   3.738  0.2547 -0.3990  1.0701
  283poe    c23 3387   1.291   4.247   3.766  0.4508 -0.3772  0.2020
  283poe    c23 3388   1.381   4.281   3.645  0.9133 -0.3150  0.5635
  283poe     o2 3389   1.338   4.404   3.592  1.0947 -0.6864 -0.4719
  283poe    c23 3390   1.395   4.437   3.468  0.1620 -0.0390 -0.7352
  283poe    c23 3391   1.298   4.534   3.398 -0.4546  0.0075  0.1679
  283poe     o2 3392   1.174   4.468   3.414 -0.4440  0.0073  0.2465
  283poe    c23 3393   1.069   4.538   3.351 -0.3466 -0.0493  0.0220
  283poe    c23 3394   0.950   4.441   3.358 -0.7017  0.4029  0.3725
  283poe     o2 3395   0.973   4.383   3.485  0.1931 -0.7771 -0.2960
  283poe    c31 3396   0.877   4.284   3.514 -0.4573  0.0934  0.6124
  284poe    c31 3397   4.399   1.188   1.899  0.0904 -0.0494  0.1936
  284poe     o2 3398   4.335   1.064   1.877 -0.2955  0.0300  0.8408
  284poe    c23 3399   4.234   1.046   1.973 -0.5875 -0.1273  0.5072
  284poe    c23 3400   4.158   0.918   1.931 -0.2587 -0.3478  0.5778
  284poe     o2 3401   4.133   0.913   1.792 -0.2429 -0.4153  0.5775
  284poe    c23 3402   4.101   0.786   1.740 -0.1714 -0.2348  0.0879
  284poe    c23 3403   4.228   0.701   1.723 -0.2976 -0.3933 -0.0646
  284poe     o2 3404   4.325   0.779   1.657  0.0068 -0.0647  0.7484
  284poe    c23 3405   4.455   0.724   1.661  0.0898  0.0872  0.2645
  284poe    c23 3406   4.537   0.838   1.599  0.1995 -0.1012  0.0628
  284poe     o2 3407   4.490   0.959   1.653  0.2186 -0.1186  0.1179
  284poe    c31 3408   4.554   1.068   1.590  0.2756 -0.2927 -0.1259
  285poe    c31 3409   4.039   2.184   6.352 -0.1357 -0.8718  0.6318
  285poe     o2 3410   4.112   2.303   6.368 -0.6885 -0.4410  0.0076
  285poe    c23 3411   4.085   2.344   6.501 -0.0590  0.8064 -0.2311
  285poe    c23 3412   4.120   2.491   6.531  0.1668  0.7136 -0.0354
  285poe     o2 3413   4.105   2.553   6.406 -0.2244  0.2533 -0.2197
  285poe    c23 3414   4.116   2.694   6.410 -0.5532  0.2776 -0.0909
  285poe    c23 3415   4.105   2.735   6.262 -0.2534  0.4653 -0.0608
  285poe     o2 3416   4.189   2.645   6.194 -0.6331  0.0744 -0.0139
  285poe    c23 3417   4.156   2.639   6.057 -0.2396  0.1632 -0.1148
  285poe    c23 3418   4.243   2.526   5.999 -0.3711  0.1368 -0.2630
  285poe     o2 3419   4.213   2.422   6.089  0.6818  0.2821  0.2774
  285poe    c31 3420   4.250   2.298   6.034 -0.5066  0.2551 -0.5118
  286poe    c31 3421   0.495   4.655   1.948 -0.2430 -0.4023  0.3289
  286poe     o2 3422   0.599   4.643   1.853 -0.3403  0.5040  0.1025
  286poe    c23 3423   0.635   4.507   1.853  0.0542  0.6016 -0.7695
  286poe    c23 3424   0.779   4.479   1.806  0.1753 -0.1678  0.0339
  286poe     o2 3425   0.793   4.565   1.695  0.1696  0.1744  0.2950
  286poe    c23 3426   0.770   4.508   1.568  0.2365  0.0201  0.3521
  286poe    c23 3427   0.760   4.634   1.480  0.2265 -0.0701  0.2237
  286poe     o2 3428   0.665   4.720   1.539  0.8898  0.1400  1.0045
  286poe    c23 3429   0.671   4.843   1.472  0.1557 -0.0485  0.5769
  286poe    c23 3430   0.582   4.938   1.554  0.2457  0.4628  0.0904
  286poe     o2 3431   0.605   4.916   1.691  0.0803  0.6595  0.1496
  286poe    c31 3432   0.535   5.000   1.780  0.0768  0.3153  0.4738
  287poe    c31 3433   3.412   5.892   0.249 -0.3897 -0.0423 -0.3237
  287poe     o2 3434   3.499   6.002   0.236 -0.1235 -0.1858  0.2358
  287poe    c23 3435   3.637   5.972   0.238 -0.0851 -0.0048  1.2207
  287poe    c23 3436   3.729   6.095   0.233  0.3685 -0.3742 -0.1277
  287poe     o2 3437   3.677   6.179   0.132 -0.1306  0.1843  0.5796
  287poe    c23 3438   3.750   6.298   0.114  0.1861 -0.1127 -0.1553
  287poe    c23 3439   3.665   6.398   0.033 -0.2871 -0.2898  0.1155
  287poe     o2 3440   3.534   6.413   0.082 -0.3241  0.2924 -0.1500
  287poe    c23 3441   3.510   6.476   0.206 -0.3556  0.6283 -0.3250
  287poe    c23 3442   3.368   6.428   0.242  0.0797 -0.1227  0.4418
  287poe     o2 3443   3.379   6.287   0.242  0.2463 -0.1110  0.2698
  287poe    c31 3444   3.246   6.242   0.255  0.2956 -0.5591 -0.7140
  288poe    c31 3445   5.362   3.265   3.674  0.0335 -0.3263 -0.3443
  288poe     o2 3446   5.449   3.337   3.759 -0.5447 -0.2728  0.2148
  288poe    c23 3447   5.398   3.348   3.890  0.3002  0.1278  0.5197
  288poe    c23 3448   5.487   3.443   3.972  0.2176  0.8294 -0.1920
  288poe     o2 3449   5.618   3.422   3.923  0.0090  0.2880 -0.5281
  288poe    c23 3450   5.698   3.527   3.973  0.0381  0.4913 -0.9985
  288poe    c23 3451   5.832   3.516   3.897  0.6803 -0.2491  0.2103
  288poe     o2 3452   5.790   3.478   3.768  0.7250  0.1445  0.0796
  288poe    c23 3453   5.904   3.426   3.703  0.3251 -0.4578 -0.1463
  288poe    c23 3454   5.866   3.384   3.560  0.2660  0.4321 -0.3915
  288poe     o2 3455   5.749   3.306   3.575  0.3811  0.1997 -0.6871
  288poe    c31 3456   5.697   3.280   3.447 -0.2153 -0.6251 -0.2824
  289poe    c31 3457   1.955   3.900   3.249 -0.0343  0.4800  0.6565
  289poe     o2 3458   2.090   3.893   3.210 -0.3090 -0.3798 -0.1685
  289poe    c23 3459   2.162   4.014   3.215  0.2152 -0.7211  0.6138
  289poe    c23 3460   2.314   3.997   3.197  0.2051 -0.0888 -0.1355
  289poe     o2 3461   2.332   3.919   3.081 -0.0653  0.4621 -0.5512
  289poe    c23 3462   2.461   3.863   3.067 -0.1913  0.1342 -0.4225
  289poe    c23 3463   2.437   3.729   2.996 -0.2573 -0.0177 -0.1144
  289poe     o2 3464   2.322   3.674   3.057 -0.3819  0.0700 -0.2694
  289poe    c23 3465   2.294   3.549   2.998 -0.1604 -0.1617  0.1142
  289poe    c23 3466   2.161   3.500   3.058  0.1528 -0.3840  0.6373
  289poe     o2 3467   2.079   3.614   3.069 -0.3136 -0.6695  0.1777
  289poe    c31 3468   1.945   3.575   3.090 -0.3787 -0.0635  0.9499
  290poe    c31 3469   6.643   5.754   5.648  0.6974 -0.1328 -0.2844
  290poe     o2 3470   6.552   5.697   5.557  0.1791 -0.2086  0.2715
  290poe    c23 3471   6.517   5.797   5.464  0.0107 -0.0573  0.4963
  290poe    c23 3472   6.419   5.728   5.367 -0.0609  0.1894  0.3921
  290poe     o2 3473   6.328   5.656   5.448 -0.0912  0.1484  0.3220
  290poe    c23 3474   6.249   5.576   5.363 -0.3937  0.3208  0.4426
  290poe    c23 3475   6.221   5.448   5.444 -0.1557  0.2994  0.4930
  290poe     o2 3476   6.337   5.397   5.504  0.0638 -0.1807 -0.3208
  290poe    c23 3477   6.319   5.300   5.604 -0.3668  0.1742 -0.0553
  290poe    c23 3478   6.442   5.292   5.696  0.2017 -0.2302 -0.8394
  290poe     o2 3479   6.494   5.423   5.705  0.3672 -0.3599  0.2221
  290poe    c31 3480   6.594   5.438   5.804 -0.2291 -0.0504  0.7856
  291poe    c31 3481   5.444   3.515   2.414  0.0772  0.1167 -0.2082
  291poe     o2 3482   5.352   3.535   2.519  0.2483  0.0637 -0.0448
  291poe    c23 3483   5.326   3.671   2.543  0.3068  0.0943 -0.1532
  291poe    c23 3484   5.229   3.667   2.663  0.6221  0.3694  0.1129
  291poe     o2 3485   5.274   3.559   2.742 -0.6028 -0.3077 -0.0909
  291poe    c23 3486   5.223   3.549   2.873 -0.8710 -0.5817 -0.2136
  291poe    c23 3487   5.272   3.411   2.921 -0.4822 -0.1765  0.5960
  291poe     o2 3488   5.246   3.316   2.820  0.1022 -0.0546  0.3300
  291poe    c23 3489   5.250   3.181   2.859 -0.2837 -0.2133 -0.1661
  291poe    c23 3490   5.115   3.125   2.909 -0.3326  0.4657  0.4828
  291poe     o2 3491   5.058   3.210   3.006  0.0909  0.6649  0.5588
  291poe    c31 3492   4.979   3.149   3.106  0.2545  0.0652  0.3290
  292poe    c31 3493   3.150   1.218   0.961  0.6633 -0.5246 -0.1124
  292poe     o2 3494   3.123   1.141   0.846 -0.2560  0.3508 -0.5020
  292poe    c23 3495   3.223   1.159   0.748 -0.0989  0.2839 -0.3554
  292poe    c23 3496   3.231   1.041   0.649  0.3388 -0.0078  0.0200
  292poe     o2 3497   3.095   1.008   0.628  0.3020  0.1114  0.0712
  292poe    c23 3498   3.072   0.894   0.549 -0.0133  0.0819  0.2008
  292poe    c23 3499   2.929   0.847   0.581  0.1799 -0.5416  0.1540
  292poe     o2 3500   2.918   0.857   0.721  0.0613  0.6575  0.0688
  292poe    c23 3501   2.801   0.798   0.774  0.3566  0.1805  0.1928
  292poe    c23 3502   2.845   0.807   0.921  0.4859 -0.1440  0.1765
  292poe     o2 3503   2.911   0.930   0.942  0.4127 -0.0066 -0.3921
  292poe    c31 3504   2.939   0.934   1.080 -0.3229 -0.6072 -0.2194
  293poe    c31 3505   6.283   2.178   2.005 -0.5063 -0.0647  0.3310
  293poe     o2 3506   6.303   2.051   2.062 -0.5592 -0.3712 -0.3171
  293poe    c23 3507   6.247   2.016   2.187 -0.0672 -0.1410 -0.0313
  293poe    c23 3508   6.292   1.890   2.262  0.2770 -0.4719 -0.7862
  293poe     o2 3509   6.416   1.900   2.329 -0.2929 -0.1024  0.2244
  293poe    c23 3510   6.446   1.782   2.401  0.1505  0.0649  0.3122
  293poe    c23 3511   6.589   1.792   2.459  0.1172 -0.6491  0.5200
  293poe     o2 3512   6.674   1.799   2.346 -0.1123  0.1688  0.3897
  293poe    c23 3513   6.809   1.784   2.385  0.0834 -0.1244 -0.3846
  293poe    c23 3514   6.885   1.823   2.257  0.1061  0.6110 -0.1492
  293poe     o2 3515   6.827   1.944   2.213 -0.1378  0.3004 -0.6912
  293poe    c31 3516   6.927   2.017   2.144  0.1043  0.1929 -0.4557
  294poe    c31 3517   3.496   4.700   1.199 -0.1834 -0.3541  0.0193
  294poe     o2 3518   3.505   4.728   1.336 -0.5426  0.0865 -0.0460
  294poe    c23 3519   3.430   4.634   1.410  0.0283  0.1055  0.5742
  294poe    c23 3520   3.427   4.689   1.554 -0.4323  0.0210  0.5998
  294poe     o2 3521   3.436   4.829   1.542 -0.4797 -0.0485 -0.3743
  294poe    c23 3522   3.423   4.896   1.665  0.1828 -0.0289 -0.3116
  294poe    c23 3523   3.438   5.045   1.630 -0.1554 -0.0207 -0.4252
  294poe     o2 3524   3.538   5.039   1.530  0.3332 -0.3298  0.0784
  294poe    c23 3525   3.571   5.164   1.476 -0.7261 -0.1356 -0.1527
  294poe    c23 3526   3.652   5.142   1.347 -0.3360 -0.0012  0.0648
  294poe     o2 3527   3.615   5.017   1.293 -0.3987  0.0890 -0.1042
  294poe    c31 3528   3.635   5.015   1.153  0.4438  0.7365 -0.0006
  295poe    c31 3529   3.252   4.143   3.230 -0.1633 -0.2935  0.1481
  295poe     o2 3530   3.250   4.122   3.369 -0.4038 -0.5928  0.1003
  295poe    c23 3531   3.373   4.165   3.422 -0.4090 -0.2296 -0.1816
  295poe    c23 3532   3.347   4.206   3.568  0.5922 -0.5167  0.0834
  295poe     o2 3533   3.297   4.088   3.627 -0.3467 -0.2408 -0.1520
  295poe    c23 3534   3.252   4.102   3.760  0.9165  0.3518  0.2262
  295poe    c23 3535   3.217   3.960   3.808 -0.6152  0.5973 -0.1028
  295poe     o2 3536   3.139   3.912   3.702 -0.5537  0.0687  0.0881
  295poe    c23 3537   3.157   3.774   3.681 -0.3607  0.0984  0.0593
  295poe    c23 3538   3.121   3.736   3.536 -0.4481  0.4700 -0.0156
  295poe     o2 3539   3.182   3.830   3.450  0.3941  0.1432  0.2176
  295poe    c31 3540   3.249   3.754   3.352  0.0085  0.1391 -0.0475
  296poe    c31 3541   3.587   4.278   2.101 -0.2136  0.2808  0.2110
  296poe     o2 3542   3.456   4.238   2.069 -0.2137  0.0163  0.5363
  296poe    c23 3543   3.383   4.352   2.031 -0.1434 -0.2165 -0.3296
  296poe    c23 3544   3.234   4.313   2.019 -0.1120 -0.5409  0.2938
  296poe     o2 3545   3.237   4.194   1.944  0.3247 -0.6435  0.4719
  296poe    c23 3546   3.106   4.143   1.935 -0.0017  0.1586  0.5614
  296poe    c23 3547   3.119   3.992   1.905 -0.1842  0.1486  0.5347
  296poe     o2 3548   3.245   3.955   1.956  0.2572  0.5115 -0.2671
  296poe    c23 3549   3.285   3.822   1.931 -0.2826  0.2327  0.3160
  296poe    c23 3550   3.389   3.815   2.045  0.0090  0.0149  0.0401
  296poe     o2 3551   3.468   3.931   2.045  0.2510 -0.1504 -0.3182
  296poe    c31 3552   3.580   3.920   2.129  0.1345 -0.2686 -0.1786
  297poe    c31 3553   0.559   0.567   5.907  0.0484  0.1682 -0.4552
  297poe     o2 3554   0.486   0.647   5.817  0.0713  0.5948 -0.0986
  297poe    c23 3555   0.567   0.726   5.734  0.0373  0.4920 -0.2307
  297poe    c23 3556   0.476   0.794   5.631  0.2599  0.2638 -0.5812
  297poe     o2 3557   0.384   0.869   5.708 -0.0854 -0.3272 -0.4113
  297poe    c23 3558   0.274   0.936   5.651  0.0909 -0.0380 -0.4131
  297poe    c23 3559   0.154   0.920   5.745  0.4058 -0.1922 -0.0370
  297poe     o2 3560   0.158   0.782   5.773 -0.0361 -0.2105 -0.0490
  297poe    c23 3561   0.060   0.731   5.861  0.0283 -0.2337  0.0101
  297poe    c23 3562   0.086   0.579   5.872 -0.4317 -0.3160 -0.0224
  297poe     o2 3563   0.217   0.575   5.924 -0.2426 -0.0452 -0.4663
  297poe    c31 3564   0.223   0.521   6.054 -0.3825  0.3057 -0.3134
  298poe    c31 3565   6.376   3.055   4.165 -0.1342  0.4319  0.0907
  298poe     o2 3566   6.249   3.042   4.226 -0.0311  0.2594  0.2688
  298poe    c23 3567   6.149   3.040   4.127  0.0473  0.2027  0.1897
  298poe    c23 3568   6.011   3.045   4.195  0.0356  0.0877  0.1743
  298poe     o2 3569   6.007   2.952   4.301 -0.5050 -0.0244  0.0569
  298poe    c23 3570   5.930   2.977   4.417 -0.4473  0.2011  0.0479
  298poe    c23 3571   6.003   2.923   4.541  0.0459 -0.7700 -0.6486
  298poe     o2 3572   6.132   2.979   4.532 -0.1958 -0.1435 -0.2395
  298poe    c23 3573   6.210   2.938   4.642 -0.4402 -0.1622 -0.0740
  298poe    c23 3574   6.353   2.992   4.623 -0.3443 -0.3831  0.0212
  298poe     o2 3575   6.379   2.990   4.485  0.2778  0.1503  0.1270
  298poe    c31 3576   6.518   2.966   4.475  0.2278 -0.1072  0.0398
  299poe    c31 3577   1.556   5.748   3.778 -0.2175  0.1381 -0.4362
  299poe     o2 3578   1.522   5.884   3.767 -0.7091  0.0703  0.1824
  299poe    c23 3579   1.592   5.941   3.658 -0.5766  0.0246  0.2429
  299poe    c23 3580   1.513   6.065   3.612 -0.2704  0.0565 -0.2041
  299poe     o2 3581   1.458   6.118   3.731 -0.0811 -0.2477  0.0206
  299poe    c23 3582   1.346   6.198   3.700  0.0596  0.0305  0.2229
  299poe    c23 3583   1.305   6.245   3.841  0.6788 -0.1376  0.4645
  299poe     o2 3584   1.311   6.126   3.915  0.3162 -0.3127  0.2162
  299poe    c23 3585   1.184   6.079   3.954  0.1532 -0.3138 -0.3129
  299poe    c23 3586   1.223   5.954   4.035 -0.1690 -0.3498 -0.2115
  299poe     o2 3587   1.323   5.873   3.978 -0.3629 -0.2248 -0.7285
  299poe    c31 3588   1.317   5.739   4.021  0.0698 -0.1346 -0.3883
  300poe    c31 3589   0.938   3.654   0.339 -0.3693 -0.0349  0.5143
  300poe     o2 3590   0.969   3.518   0.359  0.6918  0.1815  0.3932
  300poe    c23 3591   1.006   3.468   0.232  0.4697 -0.2464  0.4948
  300poe    c23 3592   1.006   3.314   0.234  0.5188 -0.2668 -0.5293
  300poe     o2 3593   1.077   3.265   0.346 -0.5622 -0.0243  0.2839
  300poe    c23 3594   1.079   3.124   0.347 -1.1320 -0.0318  0.9425
  300poe    c23 3595   1.125   3.104   0.492  0.1700  0.0947  0.5615
  300poe     o2 3596   1.060   3.188   0.586 -0.3801 -0.1291  0.3829
  300poe    c23 3597   0.927   3.164   0.627 -0.5144 -0.3366 -0.1572
  300poe    c23 3598   0.891   3.290   0.708  0.4646  0.0193 -0.2554
  300poe     o2 3599   0.935   3.397   0.627 -0.2812  0.1812 -0.4528
  300poe    c31 3600   0.931   3.519   0.696 -0.0644 -0.0070 -0.1067
  301poe    c31 3601   4.456   3.179   5.120 -0.4573  0.2753 -0.1091
  301poe     o2 3602   4.534   3.069   5.158 -0.2070  0.3582 -0.3837
  301poe    c23 3603   4.663   3.103   5.205 -0.3834  0.7896 -0.2134
  301poe    c23 3604   4.716   2.976   5.274 -0.7327  0.5736 -0.3383
  301poe     o2 3605   4.674   2.863   5.201 -0.1116  0.4072 -0.4429
  301poe    c23 3606   4.719   2.741   5.257  0.3266  0.4511 -0.6982
  301poe    c23 3607   4.631   2.626   5.207 -0.2685  0.2957  0.6705
  301poe     o2 3608   4.529   2.694   5.137  0.2229  0.1487 -0.2022
  301poe    c23 3609   4.414   2.620   5.106  0.2853 -0.0497  0.0402
  301poe    c23 3610   4.349   2.711   5.000  0.2407  0.2064  0.2879
  301poe     o2 3611   4.372   2.848   5.025  0.6224  0.2144 -0.1002
  301poe    c31 3612   4.320   2.923   4.918 -0.2123 -0.1172  0.0641
  302poe    c31 3613   3.890   3.776   0.946 -0.3006 -0.1338 -0.0500
  302poe     o2 3614   3.867   3.655   1.015  0.0349 -0.1144  0.0986
  302poe    c23 3615   3.937   3.552   0.949  0.4135  0.2802 -0.1193
  302poe    c23 3616   3.905   3.420   1.021 -0.2091  0.4838 -0.0151
  302poe     o2 3617   3.766   3.429   1.042 -0.1725  0.5631  0.1947
  302poe    c23 3618   3.723   3.318   1.117 -0.0259  0.5069  0.1963
  302poe    c23 3619   3.570   3.303   1.116  0.1247 -1.2879  0.3702
  302poe     o2 3620   3.505   3.380   1.214  0.1417 -0.2618 -0.4034
  302poe    c23 3621   3.368   3.399   1.187 -0.0816 -0.5386  0.4951
  302poe    c23 3622   3.303   3.506   1.277 -0.3378 -0.3474  0.0831
  302poe     o2 3623   3.293   3.454   1.407 -0.1889  0.3999  0.4004
  302poe    c31 3624   3.179   3.506   1.471 -0.7963 -0.5777  0.1319
  303poe    c31 3625   6.355   3.786   6.225  0.7944  0.1520 -0.3568
  303poe     o2 3626   6.428   3.690   6.299 -0.0725 -0.0823  0.2140
  303poe    c23 3627   6.558   3.689   6.245 -0.1834 -0.6432 -0.0490
  303poe    c23 3628   6.636   3.566   6.295 -0.1130 -0.6105 -0.0788
  303poe     o2 3629   6.613   3.579   6.433  0.3325 -0.2566 -0.0343
  303poe    c23 3630   6.703   3.515   6.521  0.0196  0.0384  0.5040
  303poe    c23 3631   6.698   3.604   6.647  0.0084  0.5918  0.1191
  303poe     o2 3632   6.561   3.597   6.681  0.0856 -0.2655  0.2998
  303poe    c23 3633   6.506   3.704   6.755  0.0170  0.2443 -0.4728
  303poe    c23 3634   6.356   3.695   6.721 -0.0781 -0.0499  0.0129
  303poe     o2 3635   6.339   3.676   6.582 -0.3892 -0.0907  0.0570
  303poe    c31 3636   6.206   3.711   6.548 -0.4673 -0.4421 -0.0056
  304poe    c31 3637   4.620   5.165   0.305 -0.2563 -0.3506  0.1425
  304poe     o2 3638   4.739   5.137   0.375  0.0445  0.1563 -0.1602
  304poe    c23 3639   4.763   4.998   0.381 -0.0337  0.1621  0.3425
  304poe    c23 3640   4.791   4.943   0.522  0.0060  0.0235  0.2805
  304poe     o2 3641   4.871   5.046   0.578 -0.0684  0.5213 -0.5093
  304poe    c23 3642   5.010   5.022   0.570 -0.1355 -0.2202  0.3336
  304poe    c23 3643   5.076   5.153   0.617  0.0405 -0.2794  0.2512
  304poe     o2 3644   5.017   5.257   0.542  0.4298 -0.2632 -0.0328
  304poe    c23 3645   5.112   5.322   0.460  0.1320 -0.3927 -0.4875
  304poe    c23 3646   5.028   5.429   0.388  0.4569  0.1018 -0.1420
  304poe     o2 3647   4.917   5.355   0.342  0.5145  0.1043 -0.2875
  304poe    c31 3648   4.841   5.448   0.268  0.2248 -0.2909 -0.4913
  305poe    c31 3649   2.377   5.145   6.240  0.0075 -0.1924 -0.1755
  305poe     o2 3650   2.510   5.188   6.220 -0.2651  0.8714  0.2057
  305poe    c23 3651   2.572   5.135   6.106 -0.2646 -0.2551  0.7123
  305poe    c23 3652   2.726   5.126   6.110 -0.2093 -0.0589 -0.5399
  305poe     o2 3653   2.778   5.114   5.979  0.3125  0.6135 -0.3982
  305poe    c23 3654   2.791   5.238   5.912  0.6836  0.7203 -0.1303
  305poe    c23 3655   2.898   5.203   5.807  0.5944  0.2804 -0.0777
  305poe     o2 3656   2.870   5.075   5.755  0.4063  0.1601  0.3152
  305poe    c23 3657   2.966   5.018   5.669  0.1347  0.0061  0.1079
  305poe    c23 3658   2.933   4.870   5.643  0.3022  0.0232 -0.2083
  305poe     o2 3659   2.887   4.820   5.767 -0.0031 -0.2150 -0.4173
  305poe    c31 3660   2.882   4.681   5.743 -0.1795 -0.2947  0.0789
  306poe    c31 3661   3.497   2.189   5.495  0.1047  0.2610 -0.2768
  306poe     o2 3662   3.440   2.209   5.623  0.1804  0.2413 -0.2400
  306poe    c23 3663   3.317   2.275   5.600  0.1305  0.1538 -0.2242
  306poe    c23 3664   3.253   2.305   5.737  0.3460  0.7906 -0.2614
  306poe     o2 3665   3.301   2.401   5.828  0.7851 -0.0916  0.4426
  306poe    c23 3666   3.254   2.359   5.954  0.9980 -0.3167  0.4485
  306poe    c23 3667   3.288   2.454   6.070  0.6521  0.2325  0.1052
  306poe     o2 3668   3.256   2.584   6.026  0.2532  0.0217 -0.2338
  306poe    c23 3669   3.292   2.681   6.122 -0.0749  0.0524 -0.1411
  306poe    c23 3670   3.273   2.818   6.057 -0.4835  0.0744  0.0200
  306poe     o2 3671   3.253   2.797   5.918 -0.6519  0.3916 -0.0052
  306poe    c31 3672   3.242   2.919   5.848  0.0202 -0.0157 -0.8311
  307poe    c31 3673   5.234   3.440   5.480 -0.3690  0.0346 -0.0621
  307poe     o2 3674   5.240   3.466   5.618  0.8634  0.0368 -0.1091
  307poe    c23 3675   5.346   3.386   5.667  0.2899 -0.5392  0.2033
  307poe    c23 3676   5.355   3.412   5.818 -0.0834  0.0227  0.1325
  307poe     o2 3677   5.230   3.463   5.858 -0.1854  0.4730 -0.7351
  307poe    c23 3678   5.246   3.538   5.976 -0.0740 -0.0260 -0.4302
  307poe    c23 3679   5.115   3.617   5.987  0.1416  0.2597  0.1800
  307poe     o2 3680   5.104   3.682   5.862 -0.4699  0.0089  0.0957
  307poe    c23 3681   4.975   3.736   5.850 -0.1210  0.7782 -0.2855
  307poe    c23 3682   4.965   3.786   5.705  0.3521  0.5847 -0.3834
  307poe     o2 3683   5.014   3.679   5.627 -0.1101  0.0284  0.0815
  307poe    c31 3684   5.009   3.723   5.493  0.2397  0.2064  0.1253
  308poe    c31 3685   2.773   2.905   3.871  0.3176 -0.3882 -0.0854
  308poe     o2 3686   2.660   2.913   3.955  0.3406  0.3743 -0.1170
  308poe    c23 3687   2.541   2.910   3.879  0.4363  0.1092 -0.2607
  308poe    c23 3688   2.435   2.958   3.980 -0.0777 -0.3049 -0.5948
  308poe     o2 3689   2.468   2.894   4.101 -0.5786 -0.7002 -0.6660
  308poe    c23 3690   2.368   2.903   4.199 -0.0926  0.2769 -0.2507
  308poe    c23 3691   2.454   2.863   4.320 -0.3477  0.2674 -0.0705
  308poe     o2 3692   2.585   2.912   4.304  0.0443 -0.5552  0.5096
  308poe    c23 3693   2.680   2.886   4.404  0.0830  0.0338  0.6300
  308poe    c23 3694   2.815   2.926   4.341  0.0112  0.2508  0.6139
  308poe     o2 3695   2.806   2.879   4.209 -0.1885  0.3165  0.6027
  308poe    c31 3696   2.935   2.869   4.152 -0.6845 -0.1136 -0.4685
  309poe    c31 3697   4.899   1.042   5.866 -0.1060  0.3813 -0.2002
  309poe     o2 3698   4.811   0.954   5.932  0.3244 -0.3437 -0.5830
  309poe    c23 3699   4.708   0.913   5.845  0.0153  0.4115 -0.5761
  309poe    c23 3700   4.647   0.779   5.890 -0.0047  0.5142 -0.2937
  309poe     o2 3701   4.621   0.798   6.028 -0.1996 -0.0828 -0.2461
  309poe    c23 3702   4.607   0.675   6.095 -0.3816  0.2005  0.2423
  309poe    c23 3703   4.625   0.704   6.245 -0.0099  0.7438  0.0927
  309poe     o2 3704   4.742   0.782   6.231  0.4028  0.1289  0.0967
  309poe    c23 3705   4.815   0.779   6.351  0.1619 -0.6288  0.2301
  309poe    c23 3706   4.945   0.854   6.314  0.1719 -1.0811 -0.6911
  309poe     o2 3707   4.911   0.949   6.216  0.5171 -0.1693  0.0635
  309poe    c31 3708   5.011   1.047   6.201 -0.2245  0.6951  0.6414
  310poe    c31 3709   4.314   5.392   2.572  0.2151  0.0320 -0.1151
  310poe     o2 3710   4.245   5.269   2.558 -0.0864  0.1839  0.0110
  310poe    c23 3711   4.335   5.169   2.513 -0.2311  0.0973 -0.0862
  310poe    c23 3712   4.256   5.037   2.502 -0.3306  0.1186  0.3198
  310poe     o2 3713   4.143   5.057   2.420 -0.3158 -0.0162  0.2667
  310poe    c23 3714   4.038   4.969   2.451 -0.2918 -0.1964 -0.1481
  310poe    c23 3715   3.905   5.039   2.418 -0.2378  0.0695  0.1971
  310poe     o2 3716   3.892   5.145   2.511  0.0328  0.0465  0.2635
  310poe    c23 3717   3.790   5.231   2.466  0.4108  0.1402 -0.4239
  310poe    c23 3718   3.805   5.357   2.554 -0.1511 -0.4287  0.5040
  310poe     o2 3719   3.940   5.391   2.577 -0.0663 -0.0568 -0.4837
  310poe    c31 3720   3.923   5.493   2.674 -0.8499 -0.1689 -0.4973
  311poe    c31 3721   5.914   2.376   1.783 -0.0615 -0.6131  0.2844
  311poe     o2 3722   5.817   2.447   1.857  0.1866  0.0678 -0.0336
  311poe    c23 3723   5.834   2.582   1.819  0.4699 -0.1262 -0.6194
  311poe    c23 3724   5.766   2.674   1.922  0.3799 -0.1900 -0.6210
  311poe     o2 3725   5.634   2.636   1.950  0.5592 -0.1893  0.2453
  311poe    c23 3726   5.556   2.727   2.025  0.3338 -0.0150 -0.1989
  311poe    c23 3727   5.434   2.648   2.075  0.4277 -0.0936 -0.0949
  311poe     o2 3728   5.472   2.528   2.139 -0.1870 -0.2564 -0.0273
  311poe    c23 3729   5.392   2.412   2.134 -0.0525 -0.2992 -1.3820
  311poe    c23 3730   5.487   2.291   2.137 -0.5778 -0.6929 -0.5354
  311poe     o2 3731   5.592   2.310   2.045 -0.3477  0.0004 -0.1321
  311poe    c31 3732   5.684   2.207   2.072  0.0128  0.2993 -0.2140
  312poe    c31 3733   0.492   5.312   5.365  0.3073  0.1891  0.5098
  312poe     o2 3734   0.423   5.266   5.480 -0.2275  0.1617  0.1800
  312poe    c23 3735   0.484   5.139   5.493  0.1286  0.2769 -0.3201
  312poe    c23 3736   0.395   5.071   5.598  0.1074  0.4911 -0.1981
  312poe     o2 3737   0.373   5.153   5.711 -0.4460 -0.2080  0.2095
  312poe    c23 3738   0.269   5.139   5.806 -0.1891 -0.3853  0.4667
  312poe    c23 3739   0.270   5.264   5.897 -0.2024  0.1136 -0.2063
  312poe     o2 3740   0.277   5.373   5.808 -0.1334  0.2184 -0.0721
  312poe    c23 3741   0.335   5.485   5.871  0.0208  0.0102  0.1555
  312poe    c23 3742   0.396   5.569   5.757  0.6622  0.0066  0.4888
  312poe     o2 3743   0.462   5.478   5.672 -0.3912  0.1712 -0.5254
  312poe    c31 3744   0.590   5.519   5.631 -0.1733  0.4769  0.4349
  313poe    c31 3745   2.366   1.106   0.877  0.0242 -0.3414 -0.2385
  313poe     o2 3746   2.304   1.080   1.001  0.2259  0.2016 -0.0223
  313poe    c23 3747   2.400   1.024   1.087  0.1995  0.0978 -0.0596
  313poe    c23 3748   2.311   0.958   1.194  0.4056  0.0835  0.1055
  313poe     o2 3749   2.192   0.910   1.135  0.0623  0.1776  0.7161
  313poe    c23 3750   2.092   0.889   1.232 -0.0627 -0.2262  0.5000
  313poe    c23 3751   1.946   0.884   1.181 -0.0766  0.0447  0.5116
  313poe     o2 3752   1.935   0.970   1.070  0.9071  0.1437  0.4809
  313poe    c23 3753   1.896   1.104   1.089 -0.2530 -0.0963 -0.1413
  313poe    c23 3754   1.908   1.169   0.950 -0.1416  0.3517  0.0778
  313poe     o2 3755   2.043   1.156   0.910 -0.0246  0.0237  0.5710
  313poe    c31 3756   2.038   1.208   0.779 -0.4263  0.2580  0.6757
  314poe    c31 3757   3.555   4.706   4.707  0.3493  0.1331 -0.4118
  314poe     o2 3758   3.593   4.573   4.731  0.0578  0.0457 -0.4315
  314poe    c23 3759   3.720   4.550   4.674  0.2214 -0.2726  0.0488
  314poe    c23 3760   3.766   4.416   4.734 -0.6925 -0.4611  0.3390
  314poe     o2 3761   3.682   4.310   4.695 -0.5598 -0.3964 -0.1379
  314poe    c23 3762   3.700   4.191   4.769  0.4025 -0.0935  0.1190
  314poe    c23 3763   3.569   4.157   4.843  0.5971 -0.0441  0.4925
  314poe     o2 3764   3.497   4.271   4.882  0.3950 -0.1636  0.4722
  314poe    c23 3765   3.400   4.252   4.982 -0.0133 -0.1684  0.0763
  314poe    c23 3766   3.314   4.379   4.966 -0.0683 -0.1176  0.7468
  314poe     o2 3767   3.409   4.483   4.964 -0.2631  0.0504 -0.0964
  314poe    c31 3768   3.337   4.604   4.950 -0.8877 -0.3116 -0.0730
  315poe    c31 3769   2.662   0.557   5.761 -0.4402  0.3878  0.1243
  315poe     o2 3770   2.648   0.497   5.635 -0.0557 -0.1041  0.3131
  315poe    c23 3771   2.650   0.604   5.543 -0.4210 -0.4414 -0.0928
  315poe    c23 3772   2.610   0.554   5.403 -0.1893  0.2038 -0.3947
  315poe     o2 3773   2.670   0.426   5.393  0.6786  0.5824 -0.1355
  315poe    c23 3774   2.608   0.355   5.288  0.2666  0.5326  0.1394
  315poe    c23 3775   2.624   0.211   5.341 -1.0427  0.1944 -0.3507
  315poe     o2 3776   2.557   0.211   5.465  0.0351 -0.0790  0.2505
  315poe    c23 3777   2.522   0.095   5.537 -0.3529 -0.1331 -0.0189
  315poe    c23 3778   2.535   0.137   5.684 -0.6106  0.3254 -0.1239
  315poe     o2 3779   2.661   0.199   5.690 -0.0531 -0.7981  0.0270
  315poe    c31 3780   2.744   0.135   5.784  0.1384 -0.1441  0.3055
  316poe    c31 3781   5.708   1.841   0.399  0.0273  0.0004 -0.7121
  316poe     o2 3782   5.629   1.734   0.351 -0.2856 -0.1536  0.1234
  316poe    c23 3783   5.705   1.706   0.236 -0.0517  0.3991  0.1407
  316poe    c23 3784   5.613   1.634   0.136  0.2671 -0.2931  0.3428
  316poe     o2 3785   5.540   1.539   0.210  0.0271 -0.0444  0.4273
  316poe    c23 3786   5.417   1.515   0.146  0.4677  0.0381 -0.4574
  316poe    c23 3787   5.320   1.445   0.242  0.2701  0.5516 -0.2826
  316poe     o2 3788   5.326   1.515   0.365  0.0567 -0.1445  0.1297
  316poe    c23 3789   5.327   1.431   0.478 -0.2170  0.2994  0.4649
  316poe    c23 3790   5.356   1.521   0.599  0.0429  0.0582  0.5842
  316poe     o2 3791   5.470   1.595   0.558 -0.1047 -0.1393 -0.2050
  316poe    c31 3792   5.530   1.673   0.659 -0.9546 -0.0992  0.2775
  317poe    c31 3793   0.328   1.335   3.177 -0.3359  0.1665 -0.5333
  317poe     o2 3794   0.269   1.376   3.056 -0.5212  0.6029 -0.2999
  317poe    c23 3795   0.372   1.415   2.968 -0.2294 -0.3810 -0.4105
  317poe    c23 3796   0.332   1.387   2.822 -0.1372 -0.4929 -0.4140
  317poe     o2 3797   0.210   1.453   2.802  0.0367 -0.1765 -0.4353
  317poe    c23 3798   0.139   1.407   2.689  0.1330  0.3736 -0.7221
  317poe    c23 3799  -0.004   1.463   2.706 -0.1228 -0.4850  0.0025
  317poe     o2 3800  -0.022   1.428   2.841  0.4058  0.4535  0.3273
  317poe    c23 3801  -0.129   1.498   2.902  0.2859  0.3823  0.1984
  317poe    c23 3802  -0.133   1.443   3.046  0.0165 -0.2325 -0.0372
  317poe     o2 3803  -0.001   1.432   3.094  0.1123 -0.6170 -0.3875
  317poe    c31 3804  -0.019   1.399   3.230 -0.2717 -0.5249 -0.4125
  318poe    c31 3805   3.667   0.524   1.437  0.0242 -0.0149  0.5751
  318poe     o2 3806   3.806   0.530   1.412 -0.1512  0.2595 -0.3744
  318poe    c23 3807   3.838   0.583   1.286  0.0929 -0.3935 -0.5894
  318poe    c23 3808   3.987   0.620   1.278  0.0134  0.1859  0.5049
  318poe     o2 3809   4.038   0.499   1.329 -0.1886 -0.1670 -0.1286
  318poe    c23 3810   4.167   0.511   1.385 -0.5025 -0.1249  0.5943
  318poe    c23 3811   4.208   0.376   1.446  0.7193  0.1612  0.4323
  318poe     o2 3812   4.091   0.333   1.513  0.3244  0.2681 -0.1765
  318poe    c23 3813   4.115   0.278   1.641 -0.2702  0.7427  0.1452
  318poe    c23 3814   3.973   0.280   1.702 -0.4610 -0.3283 -0.2440
  318poe     o2 3815   3.915   0.397   1.650 -0.1536 -0.0686 -0.0098
  318poe    c31 3816   3.814   0.445   1.735  0.3011  1.1380 -0.1300
  319poe    c31 3817   3.943   4.566   2.749 -0.2660  0.1654  0.5564
  319poe     o2 3818   3.834   4.513   2.676  0.0668  0.3221 -0.0633
  319poe    c23 3819   3.749   4.622   2.646 -0.0322  0.2877  0.0932
  319poe    c23 3820   3.644   4.594   2.538  0.3133  0.4223 -0.2802
  319poe     o2 3821   3.602   4.463   2.572 -0.4266  0.7274  0.0054
  319poe    c23 3822   3.511   4.401   2.485 -0.4514 -0.0954  0.6119
  319poe    c23 3823   3.514   4.251   2.521  0.3239 -0.1516  0.3275
  319poe     o2 3824   3.653   4.227   2.531  0.3998  0.2447  0.2404
  319poe    c23 3825   3.686   4.092   2.553 -0.2033 -0.0060 -0.3445
  319poe    c23 3826   3.836   4.081   2.585 -0.4275  0.3379  0.8766
  319poe     o2 3827   3.882   4.196   2.653 -0.1773  0.8118 -0.0788
  319poe    c31 3828   3.981   4.154   2.744 -0.2576  0.4848 -0.1405
  320poe    c31 3829   5.220   2.095   2.965  0.1651 -0.4001 -0.1663
  320poe     o2 3830   5.219   2.037   3.094 -0.4610  0.4358  0.2135
  320poe    c23 3831   5.202   2.133   3.195  0.1093  0.2633  0.4734
  320poe    c23 3832   5.121   2.076   3.313 -0.1830  0.0208  0.1557
  320poe     o2 3833   5.198   1.966   3.358  0.1487  0.2488  0.1490
  320poe    c23 3834   5.129   1.883   3.449 -0.1286  0.5177  0.1846
  320poe    c23 3835   5.216   1.756   3.453  0.3391  0.8321  0.0224
  320poe     o2 3836   5.249   1.720   3.321 -0.2253  0.1662  0.0608
  320poe    c23 3837   5.344   1.618   3.296  0.0615  0.4188  0.1168
  320poe    c23 3838   5.329   1.598   3.144  0.0653  0.0308  0.1679
  320poe     o2 3839   5.328   1.725   3.083  0.4925 -0.2277 -0.3846
  320poe    c31 3840   5.353   1.730   2.944 -0.2789 -0.0656 -0.5205
  321poe    c31 3841   6.012   0.843   4.772 -0.3557 -0.1497 -0.1613
  321poe     o2 3842   6.039   0.979   4.795  0.0169 -0.1903 -0.3465
  321poe    c23 3843   6.085   1.034   4.673  0.8267  0.0824  0.0778
  321poe    c23 3844   6.155   1.167   4.709  0.1912  0.4510 -0.0345
  321poe     o2 3845   6.080   1.225   4.813 -0.3924 -0.1545 -0.1085
  321poe    c23 3846   5.982   1.319   4.777 -0.4434 -0.1757 -0.0241
  321poe    c23 3847   5.896   1.336   4.904  0.1584  0.1126  0.3484
  321poe     o2 3848   5.888   1.211   4.969  0.2922 -0.1092 -0.0649
  321poe    c23 3849   5.847   1.229   5.102 -0.3221  0.1468 -0.2872
  321poe    c23 3850   5.857   1.091   5.170  0.2669  0.1815 -0.3021
  321poe     o2 3851   5.946   1.012   5.094  0.1695  0.3103 -0.5544
  321poe    c31 3852   5.979   0.890   5.158 -0.5950  0.5440  0.3055
  322poe    c31 3853   1.780   6.330   0.567 -0.4796  0.4065 -0.1598
  322poe     o2 3854   1.811   6.467   0.582  0.2850  0.2461 -0.2581
  322poe    c23 3855   1.755   6.537   0.473  0.0622 -0.1384 -0.3930
  322poe    c23 3856   1.817   6.676   0.493 -0.2090 -0.0292 -0.2976
  322poe     o2 3857   1.805   6.706   0.630  0.5353  0.2111 -0.2788
  322poe    c23 3858   1.854   6.832   0.670  0.3097  0.1606  0.1626
  322poe    c23 3859   1.816   6.862   0.816  0.0727 -0.0181  0.1387
  322poe     o2 3860   1.851   6.753   0.897  0.2307  0.1974  0.3629
  322poe    c23 3861   1.745   6.720   0.984  0.0448 -0.4196 -0.0913
  322poe    c23 3862   1.754   6.569   1.015 -0.0156 -0.4204 -0.0769
  322poe     o2 3863   1.738   6.492   0.897 -0.1275 -0.2419 -0.1788
  322poe    c31 3864   1.739   6.360   0.947  0.1050 -0.3424 -0.4496
  323poe    c31 3865   4.498   0.705   3.451 -0.0418 -1.0811  0.0573
  323poe     o2 3866   4.501   0.634   3.573  0.2590 -0.3963  0.4498
  323poe    c23 3867   4.488   0.498   3.541  0.6535 -0.1623 -0.7455
  323poe    c23 3868   4.507   0.421   3.673 -0.1550  0.4212 -0.2773
  323poe     o2 3869   4.429   0.495   3.764 -0.2460  0.0100 -0.0171
  323poe    c23 3870   4.485   0.482   3.893  0.3492 -0.1246 -0.2822
  323poe    c23 3871   4.438   0.607   3.971 -0.1302 -0.5753  0.1604
  323poe     o2 3872   4.463   0.727   3.901 -0.0094 -0.4073  0.4888
  323poe    c23 3873   4.450   0.847   3.973 -0.6618  0.2165 -0.6575
  323poe    c23 3874   4.502   0.954   3.874  0.7778 -0.3791 -0.5590
  323poe     o2 3875   4.434   0.927   3.754  0.0268 -0.0887 -0.2067
  323poe    c31 3876   4.438   1.040   3.669  0.6428  0.0808  0.0420
  324poe    c31 3877   6.648   1.916   1.129 -0.1817 -0.4458 -0.8114
  324poe     o2 3878   6.724   1.814   1.190  0.3608  0.6202  0.3335
  324poe    c23 3879   6.759   1.846   1.323  0.2387  0.8208  0.3183
  324poe    c23 3880   6.809   1.720   1.395  0.0912  0.4250 -0.2601
  324poe     o2 3881   6.912   1.652   1.327  0.0623  0.4172 -0.2959
  324poe    c23 3882   6.926   1.522   1.378 -0.8849  0.4377  0.0358
  324poe    c23 3883   6.888   1.428   1.262  0.0095  0.3089 -0.1627
  324poe     o2 3884   6.806   1.505   1.176  0.2826  0.4123 -0.3331
  324poe    c23 3885   6.773   1.428   1.062 -0.4554 -0.0768  0.1962
  324poe    c23 3886   6.689   1.518   0.970  0.1292 -0.0908 -0.3604
  324poe     o2 3887   6.752   1.643   0.963  0.1485 -0.0858 -0.1121
  324poe    c31 3888   6.705   1.721   0.854 -0.0709 -0.2708 -0.1509
  325poe    c31 3889   4.430   0.867   4.642  0.2259  0.2100 -0.3145
  325poe     o2 3890   4.412   1.006   4.632  0.1323  0.2075 -0.1788
  325poe    c23 3891   4.311   1.023   4.534 -0.2837 -0.5517  0.1086
  325poe    c23 3892   4.375   1.126   4.440 -0.4629 -0.2226  0.3438
  325poe     o2 3893   4.424   1.227   4.525  0.4396  0.0915 -0.5148
  325poe    c23 3894   4.491   1.334   4.462  0.0801  0.4840 -0.2453
  325poe    c23 3895   4.543   1.428   4.573  0.1673  0.4275 -0.2374
  325poe     o2 3896   4.593   1.330   4.661 -0.1724  0.1273 -0.3741
  325poe    c23 3897   4.622   1.384   4.788 -0.8172 -0.2113 -0.0763
  325poe    c23 3898   4.682   1.264   4.865  0.2813  0.2602 -0.1762
  325poe     o2 3899   4.598   1.154   4.841  0.4787  0.0711 -0.0023
  325poe    c31 3900   4.626   1.033   4.908 -0.1223  0.2160  0.5198
  326poe    c31 3901   1.912   5.603   0.181 -0.3778  0.5359 -0.1605
  326poe     o2 3902   1.772   5.600   0.200 -0.3544  0.3721 -0.0032
  326poe    c23 3903   1.728   5.473   0.244  0.0680  0.0473 -0.4974
  326poe    c23 3904   1.575   5.490   0.241  0.0585  0.0059 -0.2109
  326poe     o2 3905   1.533   5.556   0.124 -0.4467  0.0785  0.0065
  326poe    c23 3906   1.393   5.575   0.117 -0.5469 -0.6060  0.0085
  326poe    c23 3907   1.349   5.639  -0.016  0.0122 -0.0690  0.0776
  326poe     o2 3908   1.429   5.749  -0.053 -0.0070 -0.0030  0.2305
  326poe    c23 3909   1.355   5.810  -0.157 -0.5812 -0.1154  0.5696
  326poe    c23 3910   1.435   5.921  -0.228 -0.4235 -0.4707  0.1873
  326poe     o2 3911   1.361   6.019  -0.298 -0.1153 -0.5182 -0.2067
  326poe    c31 3912   1.302   5.977  -0.418 -0.3038 -0.2906 -0.1942
  327poe    c31 3913   1.594   2.063   4.482  0.0477  0.3214 -0.3022
  327poe     o2 3914   1.703   1.992   4.536 -0.5027 -0.1313  0.2301
  327poe    c23 3915   1.795   1.955   4.436 -0.4223  0.3394  0.1310
  327poe    c23 3916   1.902   1.863   4.496 -0.2415  0.2408 -0.3383
  327poe     o2 3917   1.943   1.913   4.621 -0.5698  0.0999 -0.1741
  327poe    c23 3918   2.019   1.816   4.689 -0.3622  0.3773 -0.0113
  327poe    c23 3919   1.987   1.845   4.837  0.0078 -0.0331  0.1492
  327poe     o2 3920   1.847   1.852   4.850 -0.0242 -0.0027 -0.2157
  327poe    c23 3921   1.807   1.860   4.984 -0.1325  0.0170 -0.2489
  327poe    c23 3922   1.657   1.893   4.987 -0.1052  0.1250 -0.0212
  327poe     o2 3923   1.631   1.975   4.875 -0.1045 -0.2445 -0.2946
  327poe    c31 3924   1.501   2.029   4.865  0.1819  0.4868 -0.1304
  328poe    c31 3925   2.522   1.404   2.870  0.1192  0.2192  0.0353
  328poe     o2 3926   2.506   1.300   2.777  0.3257 -0.1294  0.3851
  328poe    c23 3927   2.634   1.241   2.771 -0.2176 -1.3430  0.4102
  328poe    c23 3928   2.610   1.131   2.666 -0.2008 -0.2107 -0.8033
  328poe     o2 3929   2.481   1.078   2.688 -0.2541  0.2742  0.0728
  328poe    c23 3930   2.444   1.008   2.572  0.3346 -0.4363  0.3108
  328poe    c23 3931   2.293   0.978   2.579  0.2540 -0.2093 -0.3570
  328poe     o2 3932   2.249   1.111   2.598 -0.5881 -0.5771  0.3671
  328poe    c23 3933   2.112   1.131   2.624 -0.5985  0.3361 -0.3364
  328poe    c23 3934   2.083   1.275   2.669 -0.0276  0.4660 -0.3753
  328poe     o2 3935   2.190   1.307   2.755 -0.2756 -0.4883  0.3127
  328poe    c31 3936   2.187   1.448   2.762 -0.2611 -0.4297 -0.6559
  329poe    c31 3937   4.786   5.763   5.746 -0.1187 -0.5201 -0.3598
  329poe     o2 3938   4.795   5.764   5.887 -0.2083 -0.6495 -0.3534
  329poe    c23 3939   4.886   5.862   5.931 -0.0279 -0.9037 -0.1576
  329poe    c23 3940   4.926   5.843   6.079  0.9031 -0.2044 -0.3034
  329poe     o2 3941   4.804   5.796   6.132  0.7545  0.7018  0.1624
  329poe    c23 3942   4.799   5.750   6.265 -0.2723  0.0290 -0.0984
  329poe    c23 3943   4.665   5.674   6.273  0.0612 -0.5490 -0.0204
  329poe     o2 3944   4.625   5.623   6.148  0.1137  0.2133 -0.3513
  329poe    c23 3945   4.502   5.554   6.150  0.2520 -0.0320 -0.2158
  329poe    c23 3946   4.477   5.516   6.003 -0.2005 -0.0318 -0.1417
  329poe     o2 3947   4.540   5.612   5.920  0.1186 -0.1041  0.0134
  329poe    c31 3948   4.501   5.582   5.788 -0.5332 -0.5051  0.2869
  330poe    c31 3949   0.717   3.793   4.237  0.6455 -0.2788  0.2961
  330poe     o2 3950   0.577   3.785   4.256  0.5264 -0.2671 -0.5131
  330poe    c23 3951   0.510   3.885   4.183 -0.1568 -0.2739  0.0885
  330poe    c23 3952   0.366   3.891   4.236 -0.1571 -0.2903  0.0893
  330poe     o2 3953   0.332   3.955   4.357 -0.3795 -0.2302 -0.0050
  330poe    c23 3954   0.359   3.880   4.474 -0.6394 -0.0090  0.1972
  330poe    c23 3955   0.324   3.960   4.601 -0.3121  0.0153  0.2729
  330poe     o2 3956   0.207   4.029   4.563 -0.4162 -0.3989 -0.1709
  330poe    c23 3957   0.155   4.124   4.654 -0.1637 -0.4332  0.0096
  330poe    c23 3958   0.038   4.203   4.593  0.4065  0.4578  0.0427
  330poe     o2 3959   0.077   4.234   4.462  0.4131  0.3181  0.0112
  330poe    c31 3960   0.019   4.347   4.401 -0.2449 -0.2025 -0.3429
  331poe    c31 3961   6.017   1.638   5.186  0.7470  0.4125 -0.4726
  331poe     o2 3962   5.992   1.744   5.276 -0.1775 -0.0318 -0.2009
  331poe    c23 3963   5.871   1.797   5.225 -0.2181 -0.0005 -0.0723
  331poe    c23 3964   5.807   1.891   5.328 -0.0174  0.2997 -0.2185
  331poe     o2 3965   5.900   1.899   5.434  0.7491  0.3594 -0.8933
  331poe    c23 3966   5.861   1.982   5.541  0.4433  0.0293 -0.7483
  331poe    c23 3967   5.954   1.950   5.659 -0.2421  0.2991 -0.1250
  331poe     o2 3968   6.087   1.954   5.611  0.0406 -0.5246  0.5595
  331poe    c23 3969   6.187   1.880   5.677  0.4775 -0.1189  0.3589
  331poe    c23 3970   6.167   1.731   5.645  0.4500  0.0367 -0.3627
  331poe     o2 3971   6.173   1.695   5.509 -0.2642 -0.3787 -0.2905
  331poe    c31 3972   6.220   1.565   5.480  0.5035 -0.2515  0.3486
  332poe    c31 3973   4.360   4.281   2.664 -0.5431 -0.1784  0.3054
  332poe     o2 3974   4.400   4.409   2.621 -0.1841 -0.2512  0.4147
  332poe    c23 3975   4.343   4.504   2.708  0.3134 -0.2165  0.7047
  332poe    c23 3976   4.413   4.641   2.704 -0.2394  0.0535  0.2523
  332poe     o2 3977   4.427   4.684   2.570  0.5936  0.0824  0.3459
  332poe    c23 3978   4.562   4.706   2.536  0.3556  0.3206 -0.4523
  332poe    c23 3979   4.603   4.639   2.403  0.2926  0.1134 -0.3667
  332poe     o2 3980   4.608   4.499   2.418 -0.1045  0.1347  0.0078
  332poe    c23 3981   4.657   4.437   2.301 -0.0708  0.5305 -0.1879
  332poe    c23 3982   4.638   4.285   2.309  0.0275  0.5587  0.7133
  332poe     o2 3983   4.513   4.266   2.370 -0.2340  0.2104  0.0892
  332poe    c31 3984   4.475   4.131   2.377  0.1268  0.0893 -0.2772
  333poe    c31 3985   4.606   2.512   0.634 -0.2155 -0.1107  0.1705
  333poe     o2 3986   4.702   2.609   0.669  0.0947 -0.3631  0.0251
  333poe    c23 3987   4.658   2.684   0.780  0.0372  0.0237 -0.2573
  333poe    c23 3988   4.777   2.755   0.846 -0.1888  0.1460  0.0181
  333poe     o2 3989   4.877   2.794   0.754 -0.6339  0.8179 -0.1842
  333poe    c23 3990   5.004   2.801   0.814 -0.2833  0.6662 -0.8893
  333poe    c23 3991   5.107   2.774   0.704  0.0345  0.3051 -0.5057
  333poe     o2 3992   5.062   2.659   0.635  0.0283 -0.0702  0.1205
  333poe    c23 3993   5.125   2.639   0.511  0.0928 -0.2525  0.1819
  333poe    c23 3994   5.049   2.524   0.442  0.2613 -0.1992 -0.0949
  333poe     o2 3995   4.910   2.543   0.455  0.3007 -0.0511  0.1246
  333poe    c31 3996   4.849   2.430   0.395  0.1001 -0.0062  0.2430
  334poe    c31 3997   5.905   4.320   5.662  0.2521 -0.0360 -0.0593
  334poe     o2 3998   5.794   4.406   5.663  0.2618 -0.0272  0.1474
  334poe    c23 3999   5.730   4.386   5.787  0.0906 -0.9811 -0.0891
  334poe    c23 4000   5.585   4.438   5.789  0.3731 -0.1862 -0.0069
  334poe     o2 4001   5.607   4.562   5.726  0.0217  0.0922  0.4071
  334poe    c23 4002   5.487   4.631   5.700  0.2005  0.3292  0.1954
  334poe    c23 4003   5.516   4.734   5.589 -0.5452  0.2287 -0.0995
  334poe     o2 4004   5.596   4.653   5.505 -0.0777  0.1506  0.4169
  334poe    c23 4005   5.639   4.719   5.389 -0.0958 -0.4163  0.0849
  334poe    c23 4006   5.703   4.605   5.308 -0.1192 -0.1927 -0.2542
  334poe     o2 4007   5.799   4.556   5.399  0.1357  0.2787 -0.2679
  334poe    c31 4008   5.915   4.501   5.339  0.2230  0.5462 -0.3436
  335poe    c31 4009   0.537   2.768   3.577 -0.2747  0.0510 -0.3200
  335poe     o2 4010   0.646   2.849   3.614 -0.0620 -0.2581 -0.2672
  335poe    c23 4011   0.671   2.964   3.537 -0.4200  0.4227  0.6123
  335poe    c23 4012   0.794   3.038   3.591  0.2708 -0.4306  0.2216
  335poe     o2 4013   0.789   3.030   3.731  0.4281 -0.0696  0.2501
  335poe    c23 4014   0.900   3.085   3.799  0.2031  0.0995  0.4808
  335poe    c23 4015   0.866   3.060   3.947  0.4227  0.1956  0.5476
  335poe     o2 4016   0.820   2.927   3.949  0.0596  0.3091 -0.1035
  335poe    c23 4017   0.772   2.881   4.073  0.2847 -0.1195 -0.1731
  335poe    c23 4018   0.706   2.743   4.052  0.0319 -0.0092 -0.1081
  335poe     o2 4019   0.641   2.754   3.927 -0.2604  0.3208  0.0685
  335poe    c31 4020   0.563   2.637   3.916  0.0425  0.1085  0.1439
  336poe    c31 4021   3.088   5.481   3.652  0.5707  0.0551  0.3851
  336poe     o2 4022   3.002   5.548   3.563  0.4536 -0.0833  0.3941
  336poe    c23 4023   2.891   5.595   3.635 -0.0827 -0.5520 -0.1157
  336poe    c23 4024   2.789   5.647   3.533  0.5414 -0.1638 -0.5449
  336poe     o2 4025   2.762   5.528   3.463 -0.0651 -0.2403 -0.1885
  336poe    c23 4026   2.693   5.526   3.339 -0.5459 -0.0292  0.0731
  336poe    c23 4027   2.763   5.602   3.226 -0.3365 -0.1970  0.0898
  336poe     o2 4028   2.901   5.576   3.237 -0.2712  0.0699 -0.0842
  336poe    c23 4029   2.980   5.654   3.150  0.2291 -0.2194  0.1042
  336poe    c23 4030   3.119   5.590   3.169  0.4146  0.2147  0.2316
  336poe     o2 4031   3.146   5.545   3.300 -0.2734  0.1889  0.3700
  336poe    c31 4032   3.283   5.528   3.330 -0.0752 -0.0263 -0.6215
  337poe    c31 4033   6.020   1.309   5.735 -0.0987  0.4192 -0.0516
  337poe     o2 4034   6.143   1.242   5.747  0.1473  0.7268 -0.7684
  337poe    c23 4035   6.224   1.308   5.842 -0.3187  0.6592 -0.3217
  337poe    c23 4036   6.371   1.290   5.799 -0.3784  0.1962 -0.3398
  337poe     o2 4037   6.388   1.155   5.762  0.6620  0.1842  0.1578
  337poe    c23 4038   6.465   1.085   5.857  0.3002 -0.2066  0.1660
  337poe    c23 4039   6.374   0.977   5.918 -0.1820  0.3643  0.4716
  337poe     o2 4040   6.284   0.934   5.818  0.3089  0.1636  0.1105
  337poe    c23 4041   6.174   0.870   5.880  0.4120 -0.6745 -0.5474
  337poe    c23 4042   6.071   0.847   5.768  0.0330  0.3059 -0.4124
  337poe     o2 4043   6.065   0.950   5.672  0.5954  0.4440 -0.3008
  337poe    c31 4044   5.954   0.955   5.585 -0.1556 -0.5232  0.5737
  338poe    c31 4045   0.142   6.451   6.177  0.2194 -0.4919 -0.3358
  338poe     o2 4046   0.053   6.430   6.284  0.0263 -0.1618 -0.4311
  338poe    c23 4047   0.098   6.344   6.387  0.0532  0.2294 -0.1129
  338poe    c23 4048  -0.014   6.314   6.487  0.1267  0.3050 -0.0073
  338poe     o2 4049  -0.086   6.435   6.504 -0.4369 -0.0282  0.0023
  338poe    c23 4050  -0.172   6.453   6.614 -0.4776  0.0661 -0.0457
  338poe    c23 4051  -0.193   6.604   6.639 -0.0402  0.0972  0.1463
  338poe     o2 4052  -0.226   6.660   6.514  0.2776 -0.1122 -0.0342
  338poe    c23 4053  -0.182   6.793   6.499 -0.2646  0.0422 -0.2640
  338poe    c23 4054  -0.189   6.814   6.347  0.3783  0.3049 -0.2612
  338poe     o2 4055  -0.119   6.707   6.287 -0.4269 -0.2356 -0.2525
  338poe    c31 4056  -0.102   6.731   6.149  0.1133  0.1245 -0.1273
  339poe    c31 4057   2.687   1.449   4.622  0.2219 -0.2795  0.8956
  339poe     o2 4058   2.763   1.560   4.665 -0.1227  0.3031  0.0250
  339poe    c23 4059   2.902   1.539   4.674 -0.0628  0.0527 -1.3146
  339poe    c23 4060   2.950   1.671   4.737 -0.0664 -0.5358 -0.0527
  339poe     o2 4061   2.900   1.765   4.645  0.5042  0.0213  0.1980
  339poe    c23 4062   2.959   1.891   4.670  0.0677  0.2348  0.1792
  339poe    c23 4063   2.850   1.996   4.646  0.0990  0.2755  0.2155
  339poe     o2 4064   2.734   1.924   4.680  0.0829  0.0632 -0.2834
  339poe    c23 4065   2.616   2.002   4.678  0.1267  0.1328 -0.1578
  339poe    c23 4066   2.510   1.896   4.715  0.3705  0.1688  0.6627
  339poe     o2 4067   2.543   1.765   4.676 -0.4993  0.1683 -0.1106
  339poe    c31 4068   2.437   1.681   4.717 -0.4331  0.4098  0.5693
  340poe    c31 4069   4.835   0.056   5.904  0.1319  0.3466 -0.2521
  340poe     o2 4070   4.933  -0.044   5.891 -0.0273  0.1368  0.1461
  340poe    c23 4071   5.067  -0.000   5.888  0.1480 -0.4143 -0.2737
  340poe    c23 4072   5.116  -0.005   6.034  0.1856  0.2884 -0.2603
  340poe     o2 4073   5.087  -0.130   6.092  0.8103  0.1927 -0.1536
  340poe    c23 4074   5.014  -0.118   6.212  0.5958 -0.1968 -0.2442
  340poe    c23 4075   4.931  -0.247   6.226  0.1096  0.1294 -0.0863
  340poe     o2 4076   4.862  -0.258   6.103  0.6147  0.4060 -0.3976
  340poe    c23 4077   4.782  -0.373   6.090  0.4842  0.4169  0.2642
  340poe    c23 4078   4.697  -0.331   5.968  0.3021 -0.0711  0.2187
  340poe     o2 4079   4.788  -0.283   5.871  0.2304 -0.7800 -0.2006
  340poe    c31 4080   4.720  -0.267   5.749  0.0240  0.3598  0.0539
  341poe    c31 4081   1.752   6.104   2.067 -0.1635 -0.1623 -0.1923
  341poe     o2 4082   1.814   6.034   1.962  0.1928 -0.6993  0.3711
  341poe    c23 4083   1.863   6.133   1.874 -0.5311 -0.2395  0.4803
  341poe    c23 4084   1.888   6.069   1.737 -0.0404 -0.1952  0.5449
  341poe     o2 4085   1.950   5.944   1.756  0.1066 -0.2335 -0.1435
  341poe    c23 4086   1.920   5.854   1.652  0.4820 -0.4656 -0.0566
  341poe    c23 4087   1.968   5.718   1.703  0.2397 -0.7989 -0.7005
  341poe     o2 4088   1.914   5.674   1.826  0.4369  0.2599 -0.2270
  341poe    c23 4089   2.004   5.609   1.913  0.0658  0.2280  0.1350
  341poe    c23 4090   2.080   5.709   2.002  0.4921  0.3445 -0.3556
  341poe     o2 4091   1.994   5.809   2.051  0.0872 -0.1730  0.0014
  341poe    c31 4092   2.067   5.903   2.126  0.0511 -0.1021 -0.0511
  342poe    c31 4093   4.045   0.319   3.607 -0.6001  1.3648 -0.5883
  342poe     o2 4094   3.930   0.328   3.688  0.1048 -0.2566  0.6523
  342poe    c23 4095   3.811   0.332   3.611  0.1798 -0.0593  0.5451
  342poe    c23 4096   3.694   0.395   3.688 -0.0488  0.1400  0.0362
  342poe     o2 4097   3.707   0.331   3.813  0.3717  0.1751  0.0101
  342poe    c23 4098   3.601   0.351   3.905  0.0867 -0.2522 -0.2232
  342poe    c23 4099   3.643   0.265   4.026  0.3926 -0.0277 -0.1678
  342poe     o2 4100   3.783   0.285   4.027  0.5046 -0.7497 -0.5275
  342poe    c23 4101   3.831   0.159   4.068  0.2353 -0.6690  0.0537
  342poe    c23 4102   3.985   0.171   4.062  0.1819 -0.0392 -0.0840
  342poe     o2 4103   4.014   0.214   3.931 -0.3823 -0.1045 -0.2350
  342poe    c31 4104   4.152   0.214   3.904 -0.3622  0.0046 -0.1342
  343poe    c31 4105   2.356   0.742   5.105  0.2570 -0.0550 -0.1295
  343poe     o2 4106   2.392   0.875   5.077  0.1281  0.0568  0.2260
  343poe    c23 4107   2.360   0.959   5.186 -0.3466  0.0641  0.0818
  343poe    c23 4108   2.400   1.105   5.159  0.0959 -0.0279  0.2277
  343poe     o2 4109   2.376   1.121   5.021  0.4447  0.4568  0.2203
  343poe    c23 4110   2.406   1.250   4.973  0.3923  0.1495 -0.6486
  343poe    c23 4111   2.346   1.238   4.831 -0.2046 -0.5162 -0.3511
  343poe     o2 4112   2.370   1.108   4.783  0.1724 -0.5796  0.0015
  343poe    c23 4113   2.262   1.068   4.701  0.1660  0.3337 -0.4448
  343poe    c23 4114   2.303   0.925   4.663  0.0391  0.0276  0.5558
  343poe     o2 4115   2.355   0.860   4.777  0.6260  0.4866  0.5514
  343poe    c31 4116   2.411   0.736   4.741  0.4634  0.3822  0.6552
  344poe    c31 4117   1.250   5.255   2.111  0.7077 -0.6210 -0.2076
  344poe     o2 4118   1.264   5.213   2.245 -0.1856 -0.4175 -0.0432
  344poe    c23 4119   1.207   5.086   2.270 -0.1256 -0.4386 -0.0114
  344poe    c23 4120   1.243   5.046   2.413  0.0552 -1.0144 -0.2187
  344poe     o2 4121   1.379   5.076   2.440 -0.3304  0.5733  0.0278
  344poe    c23 4122   1.405   5.095   2.577 -0.5204  0.1915  0.1193
  344poe    c23 4123   1.541   5.167   2.571 -0.2050 -0.3698  0.4920
  344poe     o2 4124   1.508   5.279   2.492  0.1308 -0.5349  0.1160
  344poe    c23 4125   1.601   5.385   2.495 -0.7296  0.2160  0.4504
  344poe    c23 4126   1.545   5.501   2.410 -0.1190 -0.0516 -0.3294
  344poe     o2 4127   1.470   5.456   2.300 -0.1867 -0.4315 -0.1264
  344poe    c31 4128   1.430   5.570   2.227 -0.0621 -0.0813  0.3498
  345poe    c31 4129   1.006   1.120   2.558  0.3255 -0.1442 -0.3119
  345poe     o2 4130   0.918   1.189   2.472 -0.3792  0.2335  0.6809
  345poe    c23 4131   0.878   1.098   2.371  0.2195  0.2540  0.4176
  345poe    c23 4132   0.819   1.184   2.258  0.5468  0.4248  0.3736
  345poe     o2 4133   0.920   1.271   2.213  0.7708  0.0008  0.0465
  345poe    c23 4134   0.873   1.367   2.121 -0.0232 -0.4124  0.0189
  345poe    c23 4135   0.983   1.471   2.097 -0.1863 -0.2204  0.0969
  345poe     o2 4136   1.030   1.496   2.228 -0.0506  0.1535 -0.0216
  345poe    c23 4137   1.166   1.532   2.222  0.0840 -0.3031  0.2183
  345poe    c23 4138   1.230   1.517   2.361 -0.1855 -0.4813  0.3237
  345poe     o2 4139   1.181   1.398   2.418 -0.0059 -0.5458  0.3434
  345poe    c31 4140   1.261   1.362   2.528 -0.3339 -0.2214  0.6891
  346poe    c31 4141   6.397   0.301   4.730  0.0480 -0.1722 -0.6325
  346poe     o2 4142   6.295   0.246   4.810  0.2788  0.0319 -0.1909
  346poe    c23 4143   6.335   0.173   4.924  0.6173 -0.0174 -0.3401
  346poe    c23 4144   6.221   0.085   4.979  0.3411  0.3660 -0.2972
  346poe     o2 4145   6.114   0.176   4.991  0.1527  0.0761  0.2397
  346poe    c23 4146   5.998   0.113   5.042 -0.0105  0.1680 -0.0173
  346poe    c23 4147   5.892   0.221   5.014 -0.2818 -0.0976 -0.0132
  346poe     o2 4148   5.914   0.257   4.880  0.3460  0.2584  0.1841
  346poe    c23 4149   5.838   0.369   4.838 -0.2646 -0.1748  0.1205
  346poe    c23 4150   5.904   0.398   4.702  0.0595  0.3093  0.3796
  346poe     o2 4151   6.039   0.423   4.735  0.0795  0.3557  0.2644
  346poe    c31 4152   6.073   0.533   4.653 -0.9896  0.2123 -0.3859
  347poe    c31 4153   4.440   1.055   5.626 -0.5179 -0.2076 -0.2890
  347poe     o2 4154   4.463   1.188   5.585  0.0069 -0.1178  0.2809
  347poe    c23 4155   4.459   1.264   5.704  0.2699  0.1178  0.1384
  347poe    c23 4156   4.491   1.412   5.675 -0.1024  0.2293  0.2914
  347poe     o2 4157   4.484   1.426   5.535 -0.4202 -0.1300  0.2697
  347poe    c23 4158   4.444   1.552   5.487  0.0094 -0.0983 -0.0087
  347poe    c23 4159   4.402   1.531   5.340  0.2013  0.1248 -0.0978
  347poe     o2 4160   4.475   1.417   5.298  0.2015  0.1745 -0.2295
  347poe    c23 4161   4.410   1.364   5.184 -0.5867 -0.0499  0.3168
  347poe    c23 4162   4.471   1.223   5.178  0.1939  0.3077 -0.3666
  347poe     o2 4163   4.425   1.156   5.293  0.6070 -0.1174 -0.4435
  347poe    c31 4164   4.446   1.017   5.285 -0.1847 -0.2090 -1.0030
  348poe    c31 4165   5.561   2.576   6.457 -0.0002  0.2284  0.4036
  348poe     o2 4166   5.646   2.467   6.483 -0.1583  0.0468  0.1537
  348poe    c23 4167   5.755   2.455   6.394  0.0113 -0.0318  0.3713
  348poe    c23 4168   5.871   2.376   6.457  0.3350 -0.1339 -0.3380
  348poe     o2 4169   5.863   2.388   6.598 -0.1602 -0.2134 -0.3585
  348poe    c23 4170   5.965   2.317   6.665 -0.0958  0.4610  0.2716
  348poe    c23 4171   5.919   2.286   6.809  0.2494 -0.3806  0.2068
  348poe     o2 4172   5.779   2.294   6.817  0.2618  0.0047  0.0825
  348poe    c23 4173   5.715   2.168   6.828  0.3029  0.0125  0.4254
  348poe    c23 4174   5.574   2.193   6.772  0.3307  0.3621  0.5054
  348poe     o2 4175   5.579   2.264   6.650  0.1501 -0.4040  0.0420
  348poe    c31 4176   5.458   2.245   6.581  0.3761 -0.1475 -0.4302
  349poe    c31 4177   2.679   5.021   4.413 -0.1203 -0.6441  0.2692
  349poe     o2 4178   2.678   5.035   4.273  0.3976  0.5530  0.3744
  349poe    c23 4179   2.567   5.117   4.241  0.0568 -0.2415 -0.5325
  349poe    c23 4180   2.524   5.095   4.095 -0.2078  0.4294 -0.5596
  349poe     o2 4181   2.650   5.086   4.032  0.0683  0.2453  0.0146
  349poe    c23 4182   2.642   5.032   3.902  0.0125 -0.0422  0.1361
  349poe    c23 4183   2.788   5.031   3.851 -0.1331  0.1312 -0.2867
  349poe     o2 4184   2.862   4.952   3.941 -0.4951 -0.3713 -0.4178
  349poe    c23 4185   2.999   4.962   3.910 -0.4353  0.2967  0.0188
  349poe    c23 4186   3.058   4.925   4.047  0.3411  0.1654 -0.3420
  349poe     o2 4187   2.979   4.951   4.162  0.4180 -0.3804 -0.1623
  349poe    c31 4188   3.043   4.927   4.285 -0.2353 -0.2985  0.1933
  350poe    c31 4189   3.308   1.230   1.523 -0.4601  0.3148  0.1952
  350poe     o2 4190   3.427   1.184   1.583 -0.1802  0.3838 -0.2997
  350poe    c23 4191   3.508   1.127   1.483 -0.2204 -0.3048  0.0518
  350poe    c23 4192   3.625   1.076   1.569 -0.0500 -0.0480 -0.0262
  350poe     o2 4193   3.669   1.187   1.644  0.0142 -0.6379  0.8334
  350poe    c23 4194   3.774   1.163   1.734  0.7362  0.1490  0.2197
  350poe    c23 4195   3.778   1.295   1.813 -0.7724  0.2492  0.1535
  350poe     o2 4196   3.649   1.310   1.867 -0.7688 -0.2338  0.2989
  350poe    c23 4197   3.617   1.446   1.886  0.0610  0.0031  0.0388
  350poe    c23 4198   3.466   1.444   1.916 -0.1058  0.3721 -0.7629
  350poe     o2 4199   3.403   1.367   1.817  0.1324  0.0208 -0.6420
  350poe    c31 4200   3.263   1.374   1.823  0.1608  0.3444 -0.3843
  351poe    c31 4201   4.241   1.821   4.249  0.4010 -0.1691  0.1941
  351poe     o2 4202   4.144   1.878   4.333 -0.2423 -0.2298 -0.4993
  351poe    c23 4203   4.026   1.801   4.329 -0.4084 -0.0008 -0.1434
  351poe    c23 4204   3.953   1.825   4.462 -0.3872 -0.0128 -0.1288
  351poe     o2 4205   3.928   1.963   4.479  0.0257  0.0805 -0.2601
  351poe    c23 4206   3.911   1.993   4.615  0.6796 -0.0704 -0.1461
  351poe    c23 4207   4.040   2.033   4.689  0.3190  0.7596  0.0459
  351poe     o2 4208   4.106   2.106   4.588  0.3012 -0.1908 -0.6654
  351poe    c23 4209   4.201   2.199   4.635  0.2337 -0.4178 -0.0708
  351poe    c23 4210   4.234   2.271   4.503 -0.1312 -0.2280 -0.0574
  351poe     o2 4211   4.239   2.178   4.397  0.3924 -0.4197  0.1337
  351poe    c31 4212   4.334   2.229   4.305  0.1801 -0.1901  0.0406
  352poe    c31 4213   5.194   3.593   0.443 -0.6569  0.2021  0.0083
  352poe     o2 4214   5.251   3.465   0.423  0.0582  0.5186  0.0206
  352poe    c23 4215   5.284   3.413   0.550  0.1584 -0.3042 -0.3359
  352poe    c23 4216   5.304   3.261   0.546 -0.0236 -0.3281 -0.3318
  352poe     o2 4217   5.389   3.250   0.435  0.1924  0.6689 -0.2702
  352poe    c23 4218   5.398   3.113   0.403  0.3276  0.5551  0.2533
  352poe    c23 4219   5.459   3.114   0.262 -0.1351 -0.5042  0.0340
  352poe     o2 4220   5.367   3.199   0.197  0.2345  0.0351  0.1984
  352poe    c23 4221   5.398   3.214   0.060 -0.6561  0.2289  0.0119
  352poe    c23 4222   5.310   3.331   0.013 -0.4552  0.1630 -0.5402
  352poe     o2 4223   5.321   3.425   0.118 -0.2743 -0.3416 -0.1046
  352poe    c31 4224   5.252   3.543   0.084 -0.0956 -0.2338 -0.0944
  353poe    c31 4225   1.749   3.994   5.443  0.6298  0.3831 -0.1353
  353poe     o2 4226   1.798   3.870   5.489 -0.2728  0.3007  0.6280
  353poe    c23 4227   1.701   3.781   5.541 -0.2761  0.2592  0.5496
  353poe    c23 4228   1.744   3.634   5.559  0.2983  0.3777  0.1699
  353poe     o2 4229   1.863   3.645   5.634  0.3373  0.2607  0.1256
  353poe    c23 4230   1.926   3.520   5.639 -0.0821  0.0129 -0.5909
  353poe    c23 4231   2.070   3.554   5.681 -0.0658 -0.4233 -0.2840
  353poe     o2 4232   2.107   3.670   5.610  0.0491 -0.2550  0.0487
  353poe    c23 4233   2.192   3.642   5.501 -0.0708  0.7063 -0.3024
  353poe    c23 4234   2.186   3.778   5.429  0.0660  0.6365 -0.4471
  353poe     o2 4235   2.052   3.815   5.403 -0.2784 -0.0857  0.2589
  353poe    c31 4236   2.039   3.918   5.308 -0.1163 -0.3266 -0.0234
  354poe    c31 4237   0.900   0.179   5.995 -0.2170  0.0714  0.2068
  354poe     o2 4238   0.871   0.089   6.100 -0.0816 -0.5277 -0.2646
  354poe    c23 4239   0.900   0.145   6.226 -0.1245 -0.3496 -0.3327
  354poe    c23 4240   0.885   0.029   6.327  0.4036  0.2371  0.4322
  354poe     o2 4241   0.760  -0.030   6.298  0.7842 -0.2112 -0.3198
  354poe    c23 4242   0.721  -0.134   6.385  0.4175  0.0307 -0.1947
  354poe    c23 4243   0.648  -0.220   6.280  0.3444 -0.2857  0.1126
  354poe     o2 4244   0.716  -0.220   6.156  0.5551  0.6580  0.2134
  354poe    c23 4245   0.623  -0.251   6.054  0.3093  0.3089  0.5404
  354poe    c23 4246   0.707  -0.254   5.925 -0.2164 -0.1436  0.2028
  354poe     o2 4247   0.765  -0.126   5.916 -0.0591 -0.2229  0.0845
  354poe    c31 4248   0.822  -0.102   5.789 -0.6958  0.2047 -0.1270
  355poe    c31 4249   2.874   2.760   1.607  0.1570 -0.4218 -0.4455
  355poe     o2 4250   2.788   2.650   1.625 -0.3800  0.1287  0.3713
  355poe    c23 4251   2.698   2.688   1.728 -0.0304 -0.0250  0.7373
  355poe    c23 4252   2.626   2.556   1.761 -0.5187 -0.0690 -0.4265
  355poe     o2 4253   2.637   2.466   1.653  0.3080  0.2540 -0.6185
  355poe    c23 4254   2.637   2.330   1.690  0.3732  0.3284 -0.3381
  355poe    c23 4255   2.681   2.262   1.559  0.2522  0.0777 -0.2503
  355poe     o2 4256   2.760   2.363   1.500  0.4750  0.1679  0.2061
  355poe    c23 4257   2.803   2.323   1.372  0.0668 -0.0385  0.1326
  355poe    c23 4258   2.895   2.436   1.322 -0.1634 -0.0248 -0.2564
  355poe     o2 4259   2.830   2.558   1.348  0.1077  0.0513  0.0588
  355poe    c31 4260   2.900   2.666   1.290  0.2793  0.0604  0.2807
  356poe    c31 4261   1.754   2.345   4.269  0.1953  0.8738  0.1207
  356poe     o2 4262   1.785   2.436   4.166  0.4234  0.0973 -0.5125
  356poe    c23 4263   1.665   2.458   4.095 -0.0120 -0.0109  0.1873
  356poe    c23 4264   1.688   2.547   3.972 -0.1036 -0.4164 -0.1252
  356poe     o2 4265   1.811   2.502   3.921  0.2209  0.1769  0.1217
  356poe    c23 4266   1.870   2.580   3.819 -0.1942 -0.3961 -0.5658
  356poe    c23 4267   2.014   2.526   3.816 -0.0575 -0.0535 -0.1883
  356poe     o2 4268   2.052   2.509   3.951 -0.4590  0.8383  0.0401
  356poe    c23 4269   2.190   2.511   3.980 -0.4666  0.2476  0.1218
  356poe    c23 4270   2.185   2.573   4.121  0.4098 -0.0081  0.2724
  356poe     o2 4271   2.072   2.514   4.180 -0.2767  0.6637 -0.3330
  356poe    c31 4272   2.063   2.573   4.308  0.3490  0.1038 -0.0204
  357poe    c31 4273   6.100   5.392   2.965 -0.0339  0.1115 -0.1482
  357poe     o2 4274   6.117   5.416   2.827  0.5146 -0.3151 -0.1600
  357poe    c23 4275   6.234   5.492   2.812  0.3288 -0.0242 -0.1403
  357poe    c23 4276   6.249   5.519   2.661 -0.0999  0.0688 -0.1678
  357poe     o2 4277   6.200   5.403   2.598  0.6091 -0.1895 -0.2572
  357poe    c23 4278   6.173   5.418   2.460  0.5234 -0.4153 -0.2661
  357poe    c23 4279   6.071   5.307   2.432 -0.2679  0.2696 -0.1273
  357poe     o2 4280   6.004   5.283   2.554 -0.4938  0.6096 -0.1825
  357poe    c23 4281   5.904   5.183   2.546  0.0916 -0.0197  0.2645
  357poe    c23 4282   5.817   5.212   2.669 -0.2478  0.4917 -0.0932
  357poe     o2 4283   5.898   5.229   2.783  0.2855 -0.3377 -0.3438
  357poe    c31 4284   5.848   5.167   2.900 -0.1623 -0.2922 -0.5106
  358poe    c31 4285   3.523   3.591   1.662  0.7502  0.2044 -0.4613
  358poe     o2 4286   3.505   3.469   1.593  0.6898  0.1254 -0.3073
  358poe    c23 4287   3.631   3.406   1.583  0.2855 -0.7513  0.0926
  358poe    c23 4288   3.614   3.290   1.483  0.0571 -0.4553 -0.2101
  358poe     o2 4289   3.487   3.233   1.508 -0.4665  0.3344 -0.9620
  358poe    c23 4290   3.461   3.120   1.427  0.2269 -0.4369 -0.1410
  358poe    c23 4291   3.329   3.056   1.473 -0.0766  0.0098 -0.3755
  358poe     o2 4292   3.220   3.140   1.445 -0.2221  0.0070  0.1628
  358poe    c23 4293   3.109   3.057   1.469 -0.0647 -0.1531  0.3342
  358poe    c23 4294   2.974   3.116   1.422  0.1215 -0.0667 -0.0929
  358poe     o2 4295   2.946   3.156   1.290  0.3342 -0.3960 -0.2402
  358poe    c31 4296   3.026   3.265   1.250 -0.0072  0.1904  0.6387
  359poe    c31 4297   4.146   5.564   3.315 -0.1345 -0.0523  0.9633
  359poe     o2 4298   4.027   5.496   3.282 -0.3432  0.6103  0.3245
  359poe    c23 4299   3.952   5.590   3.208 -0.0619  0.4415 -0.1768
  359poe    c23 4300   3.826   5.517   3.158  0.2929 -0.0464 -0.3686
  359poe     o2 4301   3.845   5.378   3.173  0.1029 -0.0920 -0.5448
  359poe    c23 4302   3.722   5.311   3.188 -0.1349  0.4448 -0.0495
  359poe    c23 4303   3.769   5.165   3.198  0.1674  0.5617  0.2547
  359poe     o2 4304   3.856   5.155   3.308 -0.0887  0.4067  0.4431
  359poe    c23 4305   3.956   5.060   3.278 -0.4131  0.0102  0.6117
  359poe    c23 4306   4.077   5.108   3.359 -0.3402  0.2661  0.3541
  359poe     o2 4307   4.102   5.247   3.361  0.6830  0.1056 -0.2281
  359poe    c31 4308   4.215   5.271   3.442  0.1428  0.7217  0.3504
  360poe    c31 4309   3.266   3.140   6.383 -0.0043  0.1215 -0.0841
  360poe     o2 4310   3.326   3.058   6.481  0.0196 -0.0826 -0.2686
  360poe    c23 4311   3.369   2.939   6.420 -0.1961 -0.2979 -0.0026
  360poe    c23 4312   3.415   2.833   6.523  0.4117  0.2248  0.2681
  360poe     o2 4313   3.322   2.836   6.628 -0.1420  0.0031 -0.2124
  360poe    c23 4314   3.357   2.743   6.729 -0.5057  0.0164 -0.0711
  360poe    c23 4315   3.245   2.718   6.832 -0.2101 -0.2105  0.1957
  360poe     o2 4316   3.200   2.835   6.895 -0.2505 -0.1433  0.0420
  360poe    c23 4317   3.287   2.912   6.975 -0.1594 -0.1499 -0.0501
  360poe    c23 4318   3.256   3.055   6.927  1.0939  0.0509 -0.2928
  360poe     o2 4319   3.278   3.077   6.790 -0.5904 -0.1764 -0.6232
  360poe    c31 4320   3.283   3.213   6.753 -0.1090  0.1036  0.4353
  361poe    c31 4321   0.410   5.956   5.347  0.1626 -0.1214 -0.2319
  361poe     o2 4322   0.516   6.025   5.285  0.4616 -0.1374  0.2569
  361poe    c23 4323   0.643   5.987   5.335  0.4782  0.0121  0.3291
  361poe    c23 4324   0.740   6.077   5.257  0.2896 -0.2318 -0.1943
  361poe     o2 4325   0.739   6.066   5.116 -0.2719 -0.3369 -0.1850
  361poe    c23 4326   0.810   5.954   5.069 -0.1864 -0.3961  0.0799
  361poe    c23 4327   0.765   5.919   4.926  0.2090 -0.6737  0.0191
  361poe     o2 4328   0.796   6.041   4.861 -0.3383 -0.4567  0.1523
  361poe    c23 4329   0.801   6.036   4.720  0.8509  0.1571  0.1609
  361poe    c23 4330   0.804   6.184   4.676 -0.0389 -0.0522 -0.6351
  361poe     o2 4331   0.701   6.235   4.757  0.1036 -0.8121  0.0436
  361poe    c31 4332   0.649   6.355   4.703  0.2155 -0.9666 -0.4125
  362poe    c31 4333   2.970   5.457   0.211  0.2708  0.1941  0.3095
  362poe     o2 4334   2.940   5.532   0.096 -0.1319 -0.2869  0.0989
  362poe    c23 4335   2.911   5.667   0.127 -0.2597 -0.2368 -0.2270
  362poe    c23 4336   2.916   5.766   0.010  0.2653  0.1152  0.0864
  362poe     o2 4337   2.818   5.726  -0.083  0.3126  0.4009 -0.0882
  362poe    c23 4338   2.790   5.828  -0.176 -0.0867  0.0696 -0.3327
  362poe    c23 4339   2.693   5.781  -0.287 -0.6706  0.0613  0.1794
  362poe     o2 4340   2.670   5.644  -0.262  0.4451 -0.2489 -0.4249
  362poe    c23 4341   2.567   5.587  -0.339 -0.1021  0.1642 -0.0130
  362poe    c23 4342   2.564   5.435  -0.310 -0.4016  0.1979  0.1319
  362poe     o2 4343   2.603   5.412  -0.176 -0.1659  0.0604  0.0401
  362poe    c31 4344   2.602   5.276  -0.142 -0.0124  0.0585  0.0370
  363poe    c31 4345   3.955   3.036   2.317 -0.0407 -0.0257 -0.1929
  363poe     o2 4346   3.853   2.938   2.315 -0.1831  0.1151  0.1966
  363poe    c23 4347   3.879   2.847   2.419  0.4457 -0.1697 -0.2073
  363poe    c23 4348   3.803   2.717   2.385  0.0308  0.0036  0.0498
  363poe     o2 4349   3.680   2.747   2.323  0.3818  0.4488 -0.4402
  363poe    c23 4350   3.568   2.744   2.409  0.3068  0.0322 -0.5504
  363poe    c23 4351   3.449   2.813   2.341 -0.3078 -0.4409  0.0317
  363poe     o2 4352   3.517   2.930   2.301 -0.6418 -0.1075  0.4213
  363poe    c23 4353   3.436   3.019   2.227  0.0009 -0.0650 -0.2498
  363poe    c23 4354   3.528   3.136   2.188  0.7436 -0.5082  0.1381
  363poe     o2 4355   3.643   3.085   2.125  0.5230 -0.2701 -0.4723
  363poe    c31 4356   3.725   3.194   2.089  0.1169  0.2680  0.1976
  364poe    c31 4357   0.665   4.938   4.012 -0.2620  0.3984 -0.3117
  364poe     o2 4358   0.612   4.818   3.960  0.0701  0.0360  0.1815
  364poe    c23 4359   0.585   4.833   3.823 -0.6497  0.0359  0.3184
  364poe    c23 4360   0.517   4.704   3.771 -0.6221  0.0830  0.1639
  364poe     o2 4361   0.580   4.594   3.833 -0.5028  0.3533  0.5255
  364poe    c23 4362   0.576   4.479   3.753  0.1118  0.4167  0.3974
  364poe    c23 4363   0.640   4.372   3.843  0.3310 -0.0881 -0.3462
  364poe     o2 4364   0.763   4.421   3.892 -0.0354  0.5720 -0.0809
  364poe    c23 4365   0.794   4.402   4.028  0.5309 -0.0033 -0.2820
  364poe    c23 4366   0.892   4.511   4.074  0.5108  0.2380 -0.8058
  364poe     o2 4367   0.820   4.632   4.072 -0.1033 -0.1001  0.2255
  364poe    c31 4368   0.897   4.736   4.128  0.4736 -0.0566 -0.6247
  365poe    c31 4369   3.830   4.887   5.197 -0.7380 -0.5412  0.9045
  365poe     o2 4370   3.836   5.026   5.219  0.5321 -0.4911  0.3219
  365poe    c23 4371   3.760   5.051   5.336  0.6401 -0.7087  0.4397
  365poe    c23 4372   3.784   5.198   5.377 -0.2827 -0.2326 -0.6526
  365poe     o2 4373   3.788   5.274   5.259  0.0665 -0.0504 -0.5249
  365poe    c23 4374   3.819   5.409   5.286  0.0997 -0.0731 -0.4513
  365poe    c23 4375   3.861   5.468   5.150  0.0927  0.1071 -0.3762
  365poe     o2 4376   3.933   5.368   5.080 -0.0756 -0.1060 -0.2456
  365poe    c23 4377   3.964   5.408   4.949 -1.0916  0.2603 -0.3857
  365poe    c23 4378   4.014   5.275   4.888  0.0869  0.3176  0.4092
  365poe     o2 4379   3.952   5.161   4.943 -0.1623  0.0424 -0.4299
  365poe    c31 4380   3.979   5.046   4.866 -0.0517 -0.2854  0.1027
  366poe    c31 4381   1.528   3.689   2.911 -0.2525 -0.4532  0.6097
  366poe     o2 4382   1.487   3.660   2.779 -0.2969  0.2040  0.4762
  366poe    c23 4383   1.498   3.520   2.763  0.1198  0.2386  0.4380
  366poe    c23 4384   1.427   3.479   2.633  0.5683  0.4277  0.1289
  366poe     o2 4385   1.493   3.561   2.540  0.1989  0.3089 -0.2405
  366poe    c23 4386   1.425   3.532   2.420 -0.0523 -0.4468  0.0760
  366poe    c23 4387   1.499   3.595   2.300  0.0800 -0.1345  0.3196
  366poe     o2 4388   1.517   3.727   2.345 -0.0587  0.0786 -0.2436
  366poe    c23 4389   1.567   3.814   2.245  0.2568  0.3216  0.1215
  366poe    c23 4390   1.541   3.962   2.277 -0.1091  0.3241 -0.1817
  366poe     o2 4391   1.611   4.006   2.391 -0.3216  0.0413  0.0614
  366poe    c31 4392   1.567   4.130   2.442 -0.3949  0.0125  0.0682
  367poe    c31 4393   3.988   1.310   3.801  0.2304  0.4186 -0.2547
  367poe     o2 4394   3.864   1.278   3.742  0.3572 -0.0402 -0.2795
  367poe    c23 4395   3.843   1.139   3.733  0.2451 -0.0523  0.1433
  367poe    c23 4396   3.731   1.106   3.633  0.2314  0.0006  0.1414
  367poe     o2 4397   3.620   1.191   3.651  0.1996 -0.0420  0.1460
  367poe    c23 4398   3.507   1.150   3.576  0.0811  0.1635  0.2100
  367poe    c23 4399   3.392   1.236   3.631 -0.5071  0.0728 -0.8582
  367poe     o2 4400   3.455   1.356   3.668  0.0413 -0.5188  0.1684
  367poe    c23 4401   3.399   1.408   3.787 -0.1357 -0.1371 -0.0783
  367poe    c23 4402   3.497   1.518   3.831 -0.1462 -0.0761 -0.2074
  367poe     o2 4403   3.624   1.457   3.819 -0.6736 -1.2379 -0.0286
  367poe    c31 4404   3.699   1.521   3.919  0.0502 -0.5377 -0.9946
  368poe    c31 4405   3.279   1.696   3.315  0.4038 -0.4522  0.4989
  368poe     o2 4406   3.150   1.651   3.284  0.3074 -0.4519  0.8925
  368poe    c23 4407   3.060   1.709   3.376 -0.2245  0.4141 -0.1486
  368poe    c23 4408   2.920   1.719   3.311 -0.5012  0.2819  0.4220
  368poe     o2 4409   2.893   1.588   3.268  0.7386  0.2290 -0.2384
  368poe    c23 4410   2.769   1.587   3.201  0.3576  0.2885  0.4596
  368poe    c23 4411   2.767   1.444   3.145 -0.2083  0.4359  0.0992
  368poe     o2 4412   2.892   1.426   3.081 -0.4691  0.3443 -0.3859
  368poe    c23 4413   2.928   1.290   3.075  0.3830  0.5727 -0.5178
  368poe    c23 4414   3.022   1.258   3.193 -0.1964  0.7633 -0.0020
  368poe     o2 4415   3.100   1.372   3.221  0.0049  0.5771  0.1947
  368poe    c31 4416   3.220   1.325   3.278 -0.3066  0.0559  0.4248
  369poe    c31 4417   6.630   2.796   6.262 -0.4109  0.0263 -0.3749
  369poe     o2 4418   6.666   2.890   6.163  0.3650 -0.1825 -0.2939
  369poe    c23 4419   6.717   3.014   6.208 -0.1430  0.0161 -0.2568
  369poe    c23 4420   6.759   3.114   6.100  0.1158  0.1183 -0.0629
  369poe     o2 4421   6.863   3.071   6.015  0.4777 -0.0007  0.4367
  369poe    c23 4422   6.909   3.168   5.923 -0.6170 -0.0315 -0.1602
  369poe    c23 4423   7.059   3.146   5.894 -0.5152  0.0842  0.2789
  369poe     o2 4424   7.083   3.009   5.872  0.0773  0.2765 -0.2752
  369poe    c23 4425   7.218   2.991   5.834  0.1347  0.0322  0.0420
  369poe    c23 4426   7.265   2.845   5.846 -0.4414 -0.1482  0.1373
  369poe     o2 4427   7.226   2.776   5.729 -0.3106 -0.2455  0.1512
  369poe    c31 4428   7.333   2.747   5.642 -0.0750  0.0801  0.3318
  370poe    c31 4429   0.573   4.089   3.187  0.3665  0.4370 -0.1100
  370poe     o2 4430   0.687   4.043   3.117  0.2460  0.2347 -0.1744
  370poe    c23 4431   0.692   4.106   2.991  0.3556  0.2253 -0.1747
  370poe    c23 4432   0.823   4.064   2.921  0.3532 -0.1120  0.0208
  370poe     o2 4433   0.811   3.924   2.937 -0.2306 -0.0569  0.0975
  370poe    c23 4434   0.925   3.850   2.900 -0.4525 -0.5412  0.3835
  370poe    c23 4435   0.908   3.705   2.950  0.3422 -0.7183  0.1595
  370poe     o2 4436   0.849   3.728   3.076  0.4333 -0.3107  0.1292
  370poe    c23 4437   0.860   3.614   3.158  0.0887 -0.3073  0.1802
  370poe    c23 4438   0.825   3.674   3.296 -0.0232 -0.0764  0.0524
  370poe     o2 4439   0.745   3.788   3.273  0.2180  0.1062  0.1164
  370poe    c31 4440   0.733   3.859   3.394 -0.3831  0.1965  0.0104
  371poe    c31 4441   2.126   1.056   3.458  0.1897 -0.4206  0.8282
  371poe     o2 4442   2.041   0.944   3.447 -0.3611  0.0724 -0.0236
  371poe    c23 4443   1.906   0.984   3.447 -0.1610  0.7589 -0.2965
  371poe    c23 4444   1.803   0.874   3.477  0.2456  0.3770 -0.2842
  371poe     o2 4445   1.824   0.761   3.395 -0.1701 -0.1849  0.3690
  371poe    c23 4446   1.732   0.655   3.401 -0.0330 -0.3226  0.0675
  371poe    c23 4447   1.793   0.527   3.343  0.2361 -0.3624  0.4348
  371poe     o2 4448   1.932   0.535   3.362  0.1575  0.5894  0.6434
  371poe    c23 4449   1.996   0.488   3.245 -0.2883  0.2615  0.5311
  371poe    c23 4450   2.145   0.522   3.264 -0.2031 -0.1206  0.5581
  371poe     o2 4451   2.151   0.652   3.317  0.3089 -0.0929  0.4371
  371poe    c31 4452   2.286   0.694   3.321  0.2374  0.1467  0.3686
  372poe    c31 4453   2.495   1.588   5.901  0.1742 -0.2235  1.3786
  372poe     o2 4454   2.403   1.505   5.968 -0.3067 -0.5068  0.3784
  372poe    c23 4455   2.467   1.431   6.070  0.3391  0.1472  0.4557
  372poe    c23 4456   2.357   1.369   6.158  0.5262 -0.2269  0.4260
  372poe     o2 4457   2.269   1.312   6.065  0.3693 -0.1470  0.5259
  372poe    c23 4458   2.151   1.255   6.117 -0.1121 -0.0507 -0.4282
  372poe    c23 4459   2.051   1.202   6.012 -0.4780 -0.2205  0.0006
  372poe     o2 4460   2.036   1.323   5.941 -0.6853 -0.0504  0.3309
  372poe    c23 4461   2.000   1.306   5.805 -0.4841  0.0167  0.2694
  372poe    c23 4462   2.062   1.429   5.737 -0.5655 -0.1336 -0.0773
  372poe     o2 4463   2.193   1.451   5.784 -0.6897  0.1823  0.1273
  372poe    c31 4464   2.276   1.440   5.671 -0.6385 -0.0995  0.1905
  373poe    c31 4465   3.138   2.289   3.891 -0.5497 -0.2713 -0.1152
  373poe     o2 4466   3.149   2.148   3.885  0.2561 -0.2069 -0.2384
  373poe    c23 4467   3.284   2.107   3.892  0.2348 -0.2071  0.1548
  373poe    c23 4468   3.282   1.957   3.926 -0.1106 -0.3473 -0.4770
  373poe     o2 4469   3.217   1.878   3.829  0.1904 -0.5591 -0.5057
  373poe    c23 4470   3.172   1.753   3.878  0.0378 -0.2960  0.0343
  373poe    c23 4471   3.037   1.732   3.808 -0.0545 -0.3821  0.2390
  373poe     o2 4472   2.955   1.846   3.820  0.2433 -0.1586  0.1386
  373poe    c23 4473   2.840   1.843   3.739  0.5262  0.3594 -0.2895
  373poe    c23 4474   2.781   1.985   3.757  0.5535  0.2842  0.4150
  373poe     o2 4475   2.894   2.065   3.731  0.4957  0.2340 -0.0052
  373poe    c31 4476   2.874   2.154   3.624 -0.0543 -0.0091 -0.1090
  374poe    c31 4477   1.455   2.062   2.988 -0.0473 -0.5343 -0.3287
  374poe     o2 4478   1.491   2.177   2.916 -0.6717 -0.0701  0.0888
  374poe    c23 4479   1.590   2.156   2.817  0.5594  0.2863  1.2101
  374poe    c23 4480   1.622   2.298   2.765 -0.0635 -0.1687 -0.4646
  374poe     o2 4481   1.506   2.377   2.754 -0.1896 -0.1596  0.8217
  374poe    c23 4482   1.537   2.512   2.733 -0.5080 -0.1872  0.1219
  374poe    c23 4483   1.413   2.583   2.791 -0.3267  0.0421  0.2365
  374poe     o2 4484   1.362   2.496   2.889 -0.2614  0.1688  0.3821
  374poe    c23 4485   1.238   2.536   2.942 -0.2847  0.2202  0.2871
  374poe    c23 4486   1.191   2.426   3.038 -0.1981 -0.1054 -0.0435
  374poe     o2 4487   1.197   2.300   2.973 -0.2828 -0.1228 -0.0182
  374poe    c31 4488   1.125   2.197   3.036 -0.4899  0.0617  0.0471
  375poe    c31 4489   3.950   6.015   5.723  0.3306 -0.2758  0.1375
  375poe     o2 4490   3.868   5.938   5.638  0.8281 -0.2255 -0.3962
  375poe    c23 4491   3.855   5.811   5.698  0.4499  0.1341  0.3022
  375poe    c23 4492   3.764   5.719   5.614  0.2441  0.1910  0.4630
  375poe     o2 4493   3.658   5.808   5.587  0.0515 -0.1075  0.2275
  375poe    c23 4494   3.571   5.760   5.487 -0.2267 -0.0123  0.4236
  375poe    c23 4495   3.497   5.879   5.423  0.1088 -0.1522 -0.2260
  375poe     o2 4496   3.582   5.991   5.425  0.4784 -0.4279 -0.2574
  375poe    c23 4497   3.599   6.042   5.295  0.3912  0.0888 -0.0692
  375poe    c23 4498   3.686   6.166   5.319 -0.7426  0.7337  0.8072
  375poe     o2 4499   3.778   6.124   5.418  0.2423 -0.1346 -0.4338
  375poe    c31 4500   3.884   6.216   5.432 -0.1230  0.2415 -0.0944
  376poe    c31 4501   5.298   0.446   4.657 -0.2078  0.0633 -0.4777
  376poe     o2 4502   5.233   0.498   4.543 -0.7425  0.0867 -0.1639
  376poe    c23 4503   5.125   0.578   4.585 -0.6397  0.1054  0.0703
  376poe    c23 4504   5.078   0.665   4.467  0.4360  0.1012 -0.3736
  376poe     o2 4505   5.088   0.592   4.346 -0.2238  0.4526 -0.6515
  376poe    c23 4506   5.125   0.656   4.226  0.1590  0.2177 -0.6618
  376poe    c23 4507   5.274   0.634   4.197  0.2558 -0.1927  0.1065
  376poe     o2 4508   5.288   0.497   4.228  0.1334 -0.2918 -0.2674
  376poe    c23 4509   5.426   0.469   4.226  0.1781 -0.0697 -0.3867
  376poe    c23 4510   5.426   0.319   4.263 -0.3705  0.0728  0.2028
  376poe     o2 4511   5.355   0.300   4.383 -0.2121 -0.3895  0.2226
  376poe    c31 4512   5.381   0.176   4.445  0.2002 -0.6517 -0.4637
  377poe    c31 4513   1.362   5.382   4.665 -0.4201 -0.2038 -0.6058
  377poe     o2 4514   1.389   5.250   4.706 -0.8298  0.2127  1.0611
  377poe    c23 4515   1.332   5.163   4.610 -0.0803  0.4629  0.3843
  377poe    c23 4516   1.365   5.017   4.644  0.1559  0.4494  0.1008
  377poe     o2 4517   1.340   4.990   4.780 -0.1124 -0.0977 -0.0498
  377poe    c23 4518   1.207   4.953   4.805  0.1166 -0.7080  0.2969
  377poe    c23 4519   1.181   5.010   4.945 -0.3964 -0.0870 -0.0418
  377poe     o2 4520   1.235   5.140   4.953  0.3581 -0.3810 -0.3338
  377poe    c23 4521   1.216   5.203   5.077  0.3236 -0.1860 -0.4382
  377poe    c23 4522   1.288   5.339   5.063 -0.2087  0.1085 -0.3521
  377poe     o2 4523   1.407   5.324   4.989  0.1460 -0.0259  0.2390
  377poe    c31 4524   1.491   5.436   4.994  0.3023 -0.1297 -0.0328
  378poe    c31 4525   0.214   6.077   0.316 -0.0852 -0.4144 -0.5053
  378poe     o2 4526   0.223   5.950   0.254  0.0529 -0.7421  0.1750
  378poe    c23 4527   0.357   5.926   0.216  0.2669 -0.0617  0.4838
  378poe    c23 4528   0.360   5.788   0.149  0.2553  0.2654 -0.2041
  378poe     o2 4529   0.290   5.704   0.239  0.2100  0.4031 -0.1112
  378poe    c23 4530   0.304   5.567   0.212 -0.1365  0.3350  0.0396
  378poe    c23 4531   0.225   5.490   0.319  0.1854 -0.1878 -0.0899
  378poe     o2 4532   0.101   5.556   0.335  0.1877 -0.1528 -0.2220
  378poe    c23 4533   0.051   5.553   0.466  0.1464 -0.3694 -0.2434
  378poe    c23 4534  -0.054   5.663   0.489  0.2927 -0.2363 -0.2074
  378poe     o2 4535   0.002   5.784   0.443  0.0077  0.0337  0.1430
  378poe    c31 4536  -0.069   5.904   0.463  0.2900  0.1311  0.5740
  379poe    c31 4537   2.470   6.382   6.625 -0.4908  0.1076 -0.7243
  379poe     o2 4538   2.342   6.322   6.635 -0.4077  0.0787  0.2559
  379poe    c23 4539   2.282   6.332   6.508 -0.4505  0.0591  0.2747
  379poe    c23 4540   2.147   6.259   6.499 -0.4877  0.0737  0.6874
  379poe     o2 4541   2.152   6.151   6.589  0.1849 -0.1889  0.3400
  379poe    c23 4542   2.017   6.125   6.621 -0.0443  0.4985 -0.0357
  379poe    c23 4543   2.029   6.060   6.761 -0.0028  0.4937 -0.0416
  379poe     o2 4544   2.137   6.130   6.819 -0.1210  0.1247  0.6272
  379poe    c23 4545   2.146   6.103   6.957 -0.2582  0.3170  0.6740
  379poe    c23 4546   2.230   6.205   7.037  0.1461  0.6847 -0.2059
  379poe     o2 4547   2.311   6.244   6.928  0.0946  0.3737 -0.3556
  379poe    c31 4548   2.415   6.322   6.982  0.1023 -0.1759  0.4427
  380poe    c31 4549   4.119   5.260   0.433  0.1678 -0.4658 -0.0609
  380poe     o2 4550   4.051   5.383   0.445  0.1571 -0.4714 -0.0599
  380poe    c23 4551   3.963   5.413   0.338  0.3221 -0.0173 -0.0705
  380poe    c23 4552   3.973   5.562   0.303  0.9159 -0.0314  0.0159
  380poe     o2 4553   3.982   5.618   0.432 -0.2013 -0.3154  0.2265
  380poe    c23 4554   4.098   5.696   0.452 -0.4665  0.0584  0.3336
  380poe    c23 4555   4.120   5.704   0.604  0.5239  0.0567  0.1959
  380poe     o2 4556   4.128   5.575   0.662 -0.7749 -0.0238  0.2184
  380poe    c23 4557   4.130   5.585   0.803  0.0716  0.1053  0.2023
  380poe    c23 4558   4.169   5.445   0.852  0.1883  0.0911  0.0701
  380poe     o2 4559   4.080   5.368   0.775 -0.5168  0.5768  0.3876
  380poe    c31 4560   4.099   5.229   0.790  0.1401  0.6420  0.2119
  381poe    c31 4561   2.045   5.178   0.418  0.4400  0.3182 -0.1084
  381poe     o2 4562   2.094   5.096   0.313  0.5595 -0.5751  0.6354
  381poe    c23 4563   2.225   5.139   0.284  0.1574  0.4569  0.3349
  381poe    c23 4564   2.311   5.020   0.239 -0.3322  0.0769  0.3860
  381poe     o2 4565   2.218   4.928   0.187 -0.0244 -0.2565  0.4184
  381poe    c23 4566   2.246   4.911   0.050  0.0313 -0.4083  0.4495
  381poe    c23 4567   2.124   4.863  -0.031  0.2046 -0.2670  0.0999
  381poe     o2 4568   2.021   4.951   0.011  0.3367 -0.0879  0.0473
  381poe    c23 4569   1.890   4.909  -0.017  0.2913  0.1245 -0.0604
  381poe    c23 4570   1.799   4.993   0.075  0.1557  0.2410 -0.2990
  381poe     o2 4571   1.858   4.999   0.203 -0.4045  0.4270 -0.0488
  381poe    c31 4572   1.768   5.045   0.301  0.1711  0.4661  0.4613
  382poe    c31 4573   1.173   5.437   6.018  0.1437  0.4785  0.3920
  382poe     o2 4574   1.145   5.543   5.929  0.0557 -0.0230 -0.1817
  382poe    c23 4575   1.098   5.647   6.011  0.3664 -0.2652  0.3112
  382poe    c23 4576   1.135   5.766   5.920  0.3970 -0.6131 -0.1313
  382poe     o2 4577   1.081   5.733   5.793  0.0425 -0.1040 -0.1152
  382poe    c23 4578   0.982   5.823   5.749  0.0267 -0.1301 -0.1330
  382poe    c23 4579   0.951   5.810   5.598  0.0153 -0.0093 -0.1406
  382poe     o2 4580   0.901   5.689   5.547 -0.1274  0.2294 -0.5730
  382poe    c23 4581   0.920   5.662   5.410 -0.5405  0.4528 -0.6746
  382poe    c23 4582   0.863   5.527   5.363 -0.3815  0.0327  0.3179
  382poe     o2 4583   0.735   5.529   5.303  0.0018 -0.2156 -0.5238
  382poe    c31 4584   0.733   5.569   5.168  0.3722 -0.3235 -0.5631
  383poe    c31 4585   4.104   1.283   0.732 -0.0086 -0.0532 -0.0138
  383poe     o2 4586   4.035   1.170   0.684  0.4610 -0.2638 -0.2047
  383poe    c23 4587   3.971   1.208   0.565 -0.2978  0.5791  0.4594
  383poe    c23 4588   3.835   1.138   0.548 -0.1687  0.4643 -0.1174
  383poe     o2 4589   3.863   1.000   0.562 -0.4714  0.4132 -0.0079
  383poe    c23 4590   3.747   0.921   0.572  0.0399 -0.3658 -0.1627
  383poe    c23 4591   3.794   0.795   0.646  0.2910  0.1867  0.6324
  383poe     o2 4592   3.877   0.850   0.746  0.5369  0.4702  0.2748
  383poe    c23 4593   3.930   0.750   0.831 -0.0479 -0.1149 -0.0384
  383poe    c23 4594   4.036   0.825   0.914  0.2008 -0.4120 -0.0866
  383poe     o2 4595   4.099   0.926   0.838  0.1100  0.1150  0.5291
  383poe    c31 4596   4.238   0.933   0.863  0.2098 -1.1653  0.4372
  384poe    c31 4597   6.529   4.528   6.564  0.2248  0.4246 -0.0591
  384poe     o2 4598   6.396   4.500   6.527  0.4356 -0.0214 -0.4888
  384poe    c23 4599   6.353   4.601   6.439 -0.1716  0.0840 -0.0792
  384poe    c23 4600   6.204   4.624   6.469 -0.0762  0.1913  0.3309
  384poe     o2 4601   6.141   4.498   6.457  0.3243 -0.0208  0.4349
  384poe    c23 4602   6.016   4.475   6.519 -0.0121  0.4652 -0.0482
  384poe    c23 4603   6.037   4.413   6.658  0.3163  0.3497 -0.1471
  384poe     o2 4604   6.132   4.311   6.635  0.1132  0.1538 -0.1295
  384poe    c23 4605   6.161   4.237   6.751 -0.7661 -0.2420 -0.1537
  384poe    c23 4606   6.294   4.167   6.719 -0.4236  0.4067 -0.1731
  384poe     o2 4607   6.381   4.241   6.637 -0.5263  0.2290 -0.4437
  384poe    c31 4608   6.499   4.163   6.634 -0.6556  0.0385 -0.6401
  385poe    c31 4609   6.160   0.179   2.297 -0.1550  0.6206  0.0013
  385poe     o2 4610   6.080   0.088   2.369 -0.5252  0.7545 -0.2362
  385poe    c23 4611   5.975   0.048   2.285  0.1098 -0.3150 -0.5364
  385poe    c23 4612   5.861  -0.007   2.373  0.2167 -0.0555 -0.2368
  385poe     o2 4613   5.911  -0.085   2.480 -0.3760  0.1126  0.1652
  385poe    c23 4614   5.814  -0.184   2.507  0.2034 -0.3667  0.4910
  385poe    c23 4615   5.854  -0.293   2.609  0.1790 -0.3502  0.5180
  385poe     o2 4616   5.926  -0.401   2.554  0.9436  0.4669 -0.1081
  385poe    c23 4617   5.954  -0.502   2.648 -0.1902 -0.2052 -0.4810
  385poe    c23 4618   6.086  -0.569   2.604  0.1617  0.4727 -0.4651
  385poe     o2 4619   6.087  -0.595   2.465  0.0443  0.1543 -0.4063
  385poe    c31 4620   6.217  -0.645   2.442  0.0690  0.3689 -0.7327
  386poe    c31 4621   0.073   5.434   2.406  0.1769  0.3853  0.4440
  386poe     o2 4622   0.083   5.297   2.372  0.3342  0.5827 -0.3199
  386poe    c23 4623  -0.000   5.224   2.459  0.5172  0.0643 -0.5774
  386poe    c23 4624   0.030   5.078   2.419  0.6711 -0.0441 -0.0797
  386poe     o2 4625   0.041   5.065   2.279  0.0232  0.2215 -0.1608
  386poe    c23 4626   0.078   4.933   2.244 -0.5236  0.1550 -0.4909
  386poe    c23 4627   0.181   4.944   2.130 -0.3579 -0.1311 -0.3695
  386poe     o2 4628   0.177   5.079   2.088  0.2954  0.0183  0.0333
  386poe    c23 4629   0.284   5.105   2.000  0.0841 -0.6171 -0.4274
  386poe    c23 4630   0.278   5.258   1.982 -0.4149 -0.4894  0.7104
  386poe     o2 4631   0.268   5.329   2.103 -0.4688  0.5720  0.1009
  386poe    c31 4632   0.302   5.465   2.092  0.3705  0.3673  0.0620
  387poe    c31 4633   2.996   5.965   1.694  0.0511  0.1464 -0.3127
  387poe     o2 4634   2.889   6.055   1.675 -0.0795  0.1051  0.2022
  387poe    c23 4635   2.936   6.188   1.684 -0.1520  0.1354  0.1392
  387poe    c23 4636   2.821   6.274   1.630 -0.3277 -0.4942 -0.5013
  387poe     o2 4637   2.709   6.216   1.694 -0.4394  0.0611 -0.1779
  387poe    c23 4638   2.602   6.294   1.645 -0.4006  0.2939  0.1112
  387poe    c23 4639   2.460   6.254   1.689 -0.2602  0.1841  0.4736
  387poe     o2 4640   2.442   6.118   1.657 -0.3213  0.3871 -0.3738
  387poe    c23 4641   2.318   6.057   1.684  0.0798  0.1523  1.0311
  387poe    c23 4642   2.215   6.091   1.574  0.1795 -0.6876  0.6723
  387poe     o2 4643   2.257   6.044   1.448 -0.4175  0.8049 -0.1057
  387poe    c31 4644   2.175   6.097   1.346 -0.2352  0.6095 -0.3566
  388poe    c31 4645   1.952   1.611   1.919 -0.0928 -0.2422 -0.0976
  388poe     o2 4646   1.855   1.630   1.819  0.0515  0.2866 -0.1393
  388poe    c23 4647   1.904   1.742   1.748  0.2023  0.2332 -0.1210
  388poe    c23 4648   1.824   1.747   1.616 -0.0758 -1.0681 -0.0145
  388poe     o2 4649   1.695   1.703   1.651 -0.3558 -0.0847  0.2344
  388poe    c23 4650   1.610   1.714   1.538  0.1009 -0.5091 -0.1556
  388poe    c23 4651   1.472   1.661   1.581 -0.0034 -0.2947 -0.2274
  388poe     o2 4652   1.500   1.556   1.670 -0.0145 -0.0321  0.0870
  388poe    c23 4653   1.402   1.534   1.769  0.3553  0.3366  0.5439
  388poe    c23 4654   1.462   1.434   1.869 -0.0662 -0.2504  0.2189
  388poe     o2 4655   1.594   1.471   1.904  0.0154 -0.2738 -0.0601
  388poe    c31 4656   1.661   1.374   1.981 -0.1843 -0.4757 -0.1389
  389poe    c31 4657   4.515   1.656   4.997 -0.0339 -0.5018 -0.7017
  389poe     o2 4658   4.457   1.785   4.995  0.3592 -0.3142 -0.1495
  389poe    c23 4659   4.322   1.784   5.035  0.4299  0.3295  0.1291
  389poe    c23 4660   4.293   1.925   5.088 -0.0988  0.1144  0.4315
  389poe     o2 4661   4.340   2.023   4.997  0.2156 -0.5257 -0.1057
  389poe    c23 4662   4.317   2.150   5.054  0.2808 -0.4461 -0.2563
  389poe    c23 4663   4.370   2.259   4.959  0.2238 -0.2617 -0.0786
  389poe     o2 4664   4.498   2.215   4.917  0.0163 -0.3299 -0.6580
  389poe    c23 4665   4.607   2.258   4.996 -0.4462 -0.1341 -0.1149
  389poe    c23 4666   4.657   2.145   5.088 -0.4646 -0.0256  0.0286
  389poe     o2 4667   4.650   2.014   5.036  0.5341  0.0177 -0.2339
  389poe    c31 4668   4.699   1.928   5.136 -0.4947  0.2976  0.5251
  390poe    c31 4669   4.038   1.883   6.082 -0.1931  0.1397 -0.3888
  390poe     o2 4670   3.900   1.907   6.090 -0.3496 -0.7503 -0.3583
  390poe    c23 4671   3.859   1.860   6.216  0.2756  0.2596  0.2257
  390poe    c23 4672   3.709   1.895   6.225  0.2206  0.0055  0.2935
  390poe     o2 4673   3.654   1.871   6.098  0.4442  0.1441  0.1695
  390poe    c23 4674   3.514   1.888   6.100  0.3397 -0.5118 -0.6068
  390poe    c23 4675   3.474   1.902   5.952 -0.3491  0.5798 -0.3288
  390poe     o2 4676   3.576   1.983   5.899  0.2682 -0.5783 -0.9444
  390poe    c23 4677   3.585   1.980   5.758 -0.3196 -0.3549 -0.9891
  390poe    c23 4678   3.727   2.022   5.719 -0.0632 -0.2745  0.0077
  390poe     o2 4679   3.827   1.963   5.800 -0.0315  0.1420  0.2761
  390poe    c31 4680   3.953   2.008   5.757  0.0099 -0.2594 -0.0327
  391poe    c31 4681   6.386   2.120   0.584 -0.0485 -0.6600  0.6984
  391poe     o2 4682   6.259   2.179   0.568 -0.0416 -0.7782  0.2018
  391poe    c23 4683   6.184   2.113   0.468 -0.1735 -0.4604  0.0904
  391poe    c23 4684   6.043   2.174   0.458  0.1913  0.3068 -0.4727
  391poe     o2 4685   6.052   2.309   0.498  0.2002  0.1630  0.0121
  391poe    c23 4686   5.929   2.376   0.521  0.2351  0.2201  0.0352
  391poe    c23 4687   5.975   2.521   0.545 -0.1582  0.2528  0.6152
  391poe     o2 4688   6.102   2.518   0.605  0.0501  0.4550  0.1912
  391poe    c23 4689   6.183   2.633   0.599  0.3012  0.2475 -0.4242
  391poe    c23 4690   6.315   2.585   0.534  0.2574  0.0899 -0.3960
  391poe     o2 4691   6.341   2.473   0.615 -0.4698  0.3316  0.1826
  391poe    c31 4692   6.480   2.452   0.606 -0.5234  0.1242 -0.1646
  392poe    c31 4693   3.165   3.964   5.454 -0.0525 -0.4094 -0.3917
  392poe     o2 4694   3.249   3.852   5.473  0.2836 -0.1097 -0.1085
  392poe    c23 4695   3.168   3.736   5.474  0.2450 -0.0799  0.2943
  392poe    c23 4696   3.280   3.630   5.466  0.0776 -0.2393  0.0717
  392poe     o2 4697   3.365   3.651   5.577  0.2009  0.6493 -0.1824
  392poe    c23 4698   3.456   3.544   5.566 -0.2893  0.0685  1.1657
  392poe    c23 4699   3.578   3.554   5.660  0.6223 -0.2050  0.0372
  392poe     o2 4700   3.641   3.679   5.660 -0.1988  0.2161  0.4332
  392poe    c23 4701   3.629   3.742   5.786  0.2218  0.5239  0.3210
  392poe    c23 4702   3.584   3.887   5.758  0.6035  0.5256 -0.3140
  392poe     o2 4703   3.451   3.893   5.711  0.4598  0.1194  0.0395
  392poe    c31 4704   3.353   3.888   5.812  0.5337 -0.0245  0.1051
  393poe    c31 4705   2.059   0.410   4.122  0.4294 -0.3213 -0.5201
  393poe     o2 4706   2.118   0.295   4.065  0.2755 -0.4763 -0.3668
  393poe    c23 4707   2.257   0.316   4.053  0.2878 -0.2168  0.1757
  393poe    c23 4708   2.308   0.206   3.958 -0.2208 -0.0890 -0.2541
  393poe     o2 4709   2.228   0.092   3.975  0.0777 -0.2499  0.0726
  393poe    c23 4710   2.226   0.015   3.857  0.4205  0.0993 -0.1639
  393poe    c23 4711   2.114  -0.084   3.893  0.4575  0.4862  1.0913
  393poe     o2 4712   2.003  -0.004   3.927  0.1413  0.3835  0.3376
  393poe    c23 4713   1.899  -0.078   3.987 -0.2688  0.1715 -0.6244
  393poe    c23 4714   1.805   0.023   4.055  0.0617 -0.0198  0.1211
  393poe     o2 4715   1.883   0.112   4.131  0.3204 -0.4116  0.3171
  393poe    c31 4716   1.803   0.203   4.203 -0.1762 -0.3517 -0.3096
  394poe    c31 4717   4.123   1.642   1.882  0.4408  0.1755 -0.3207
  394poe     o2 4718   4.183   1.622   2.008 -0.2558 -0.1136 -0.0296
  394poe    c23 4719   4.264   1.506   2.008 -0.1565 -0.0465 -0.2990
  394poe    c23 4720   4.367   1.528   2.120 -0.1834  0.2711 -0.3350
  394poe     o2 4721   4.314   1.511   2.250  0.2227 -0.4252 -0.2543
  394poe    c23 4722   4.412   1.511   2.351 -0.2711  0.1670  0.2286
  394poe    c23 4723   4.357   1.438   2.475 -0.3144 -0.5817 -0.2306
  394poe     o2 4724   4.223   1.476   2.494 -0.1506 -0.2029  0.1752
  394poe    c23 4725   4.161   1.404   2.598  0.1938 -0.6382  0.0834
  394poe    c23 4726   4.090   1.494   2.701  0.1859 -0.1903 -0.3101
  394poe     o2 4727   3.994   1.579   2.642  0.2897 -0.1447 -0.4125
  394poe    c31 4728   3.923   1.663   2.730  0.2120 -0.0545 -0.5603
  395poe    c31 4729   6.319   1.038   3.902 -0.5289  0.0634  0.5011
  395poe     o2 4730   6.316   0.898   3.916  0.0764  0.0015  0.0203
  395poe    c23 4731   6.437   0.847   3.864  0.1344 -0.1572  0.3085
  395poe    c23 4732   6.412   0.696   3.843 -0.0670 -0.1240  0.3048
  395poe     o2 4733   6.317   0.672   3.944  0.2371 -0.1185  0.5940
  395poe    c23 4734   6.279   0.537   3.950 -0.2860 -0.0471 -0.8386
  395poe    c23 4735   6.173   0.528   4.062 -0.3639  0.2334 -0.8908
  395poe     o2 4736   6.101   0.650   4.062 -0.3991  0.2205 -0.1551
  395poe    c23 4737   6.017   0.669   4.173  0.0408  0.2297  0.1760
  395poe    c23 4738   5.981   0.818   4.184 -0.5457  0.1226 -0.2951
  395poe     o2 4739   6.087   0.895   4.131 -0.1003 -0.2842 -0.0012
  395poe    c31 4740   6.033   1.025   4.130  0.4225 -0.0543  0.6417
  396poe    c31 4741   5.695   5.502   4.733 -0.1885  0.3305 -0.0552
  396poe     o2 4742   5.797   5.550   4.648 -0.0023  0.0352  0.0008
  396poe    c23 4743   5.854   5.446   4.571  0.2285  0.4149 -0.3467
  396poe    c23 4744   5.945   5.511   4.466  0.1183  0.4594 -0.4145
  396poe     o2 4745   6.029   5.613   4.517  0.5206 -0.2297  0.3097
  396poe    c23 4746   6.070   5.695   4.410 -0.2576 -0.3205 -0.0657
  396poe    c23 4747   5.963   5.805   4.398  0.2147  0.1598  0.0911
  396poe     o2 4748   5.939   5.843   4.531 -0.6292 -0.3660  0.0965
  396poe    c23 4749   5.823   5.922   4.544 -0.1840  0.3157 -0.0185
  396poe    c23 4750   5.798   5.934   4.696 -0.0264 -0.1356  0.0438
  396poe     o2 4751   5.795   5.806   4.754 -0.2157 -0.0918  0.1307
  396poe    c31 4752   5.769   5.823   4.892  0.0411 -0.5175  0.2345
  397poe    c31 4753   4.612   2.927   5.868 -0.1298 -0.2434  0.3016
  397poe     o2 4754   4.688   2.999   5.962 -0.0142  0.0700 -0.0319
  397poe    c23 4755   4.777   2.912   6.028 -0.1569 -0.0993 -0.0615
  397poe    c23 4756   4.887   3.007   6.080 -0.2640 -0.0062 -0.0039
  397poe     o2 4757   4.836   3.118   6.149 -0.0788 -0.0055  0.1327
  397poe    c23 4758   4.930   3.221   6.171 -0.2894  0.2028  0.0670
  397poe    c23 4759   4.842   3.333   6.228 -0.3068 -0.0456  0.5308
  397poe     o2 4760   4.754   3.359   6.121  0.4312  0.1299 -0.0478
  397poe    c23 4761   4.636   3.411   6.178  0.4135  0.5257 -0.4466
  397poe    c23 4762   4.529   3.419   6.067 -0.0654  0.4213  0.0007
  397poe     o2 4763   4.504   3.285   6.031  0.0733  0.5858 -0.7379
  397poe    c31 4764   4.407   3.261   5.931 -0.1807 -1.0437 -0.1309
  398poe    c31 4765   2.753   3.667   3.407 -0.3018 -0.0845  0.6987
  398poe     o2 4766   2.708   3.534   3.389  0.4639 -0.2288 -0.1987
  398poe    c23 4767   2.644   3.524   3.264  0.2115 -0.1116 -0.0792
  398poe    c23 4768   2.621   3.372   3.245  0.1681 -0.1601  0.3510
  398poe     o2 4769   2.597   3.324   3.375 -0.0866  0.0621  0.3882
  398poe    c23 4770   2.586   3.183   3.381 -0.0398  0.0369 -0.0539
  398poe    c23 4771   2.542   3.165   3.528  0.4094 -0.0473  0.0717
  398poe     o2 4772   2.624   3.257   3.595  0.3791  0.1936 -0.2208
  398poe    c23 4773   2.552   3.299   3.708  0.4088 -0.2888 -0.0201
  398poe    c23 4774   2.644   3.399   3.781 -0.3720  0.2840  0.1970
  398poe     o2 4775   2.675   3.505   3.694  0.1991 -0.2111 -0.2066
  398poe    c31 4776   2.749   3.606   3.759 -0.3568 -0.1542  0.3381
  399poe    c31 4777   3.804   3.197   5.482  0.3830  0.3002 -0.2561
  399poe     o2 4778   3.857   3.145   5.363  0.0184 -0.0677 -0.2593
  399poe    c23 4779   3.874   3.260   5.284 -0.7004  0.3133  0.1393
  399poe    c23 4780   3.948   3.212   5.158 -0.5253  0.5494  0.1517
  399poe     o2 4781   3.893   3.087   5.124 -0.2577  0.2130  0.9234
  399poe    c23 4782   3.945   3.024   5.008 -1.1855  0.4882  0.3445
  399poe    c23 4783   3.904   2.877   5.026 -0.1652  0.2137  0.4618
  399poe     o2 4784   3.949   2.844   5.156 -0.0094 -0.3178  0.2780
  399poe    c23 4785   3.876   2.738   5.212  0.2233 -0.6437 -0.0281
  399poe    c23 4786   3.881   2.748   5.366 -0.1721  0.1894 -0.0622
  399poe     o2 4787   3.844   2.877   5.407 -0.4770  0.3459 -0.8013
  399poe    c31 4788   3.800   2.864   5.541  0.1602  0.7203 -0.5462
  400poe    c31 4789   6.153   2.421   2.739 -0.1523 -0.3369  0.3435
  400poe     o2 4790   6.242   2.498   2.817  0.1228 -0.3461  0.0372
  400poe    c23 4791   6.300   2.605   2.746  0.3569 -0.5086 -0.0195
  400poe    c23 4792   6.445   2.630   2.789  0.4201 -0.0415 -0.4893
  400poe     o2 4793   6.454   2.609   2.928  0.1111 -0.0902 -0.4757
  400poe    c23 4794   6.578   2.564   2.978 -0.0137  0.3555  0.2596
  400poe    c23 4795   6.565   2.469   3.099 -0.1188  0.4201  0.2987
  400poe     o2 4796   6.460   2.382   3.062  0.6357 -0.2325 -0.3340
  400poe    c23 4797   6.416   2.310   3.175  0.4320  0.1651 -0.1575
  400poe    c23 4798   6.284   2.238   3.143  0.5389 -0.1105  0.0168
  400poe     o2 4799   6.206   2.333   3.073  0.4988 -0.1157  0.0540
  400poe    c31 4800   6.082   2.273   3.044  0.2334  0.7189 -0.6049
  401poe    c31 4801   5.096   4.878   5.481  0.0953 -0.4001  0.5950
  401poe     o2 4802   5.187   4.770   5.477  0.6054  0.0569 -0.3461
  401poe    c23 4803   5.118   4.648   5.485  0.6606  0.0522  0.0487
  401poe    c23 4804   5.214   4.531   5.457  1.1750  0.4101  0.3021
  401poe     o2 4805   5.217   4.479   5.326 -0.2846  0.2505  0.3097
  401poe    c23 4806   5.296   4.561   5.242  0.1416 -0.2311  0.2325
  401poe    c23 4807   5.236   4.549   5.101  0.7129  0.0660 -0.0366
  401poe     o2 4808   5.240   4.410   5.079  0.1346 -0.0440  0.5553
  401poe    c23 4809   5.177   4.369   4.960  0.5468  0.6067  0.1129
  401poe    c23 4810   5.232   4.226   4.950  0.0470  0.4131  0.1235
  401poe     o2 4811   5.226   4.187   5.086  0.2369  0.3741  0.1213
  401poe    c31 4812   5.231   4.046   5.077  0.2171  0.3170  0.9387
  402poe    c31 4813   1.115   2.579   4.844 -0.1958  0.0144 -0.0663
  402poe     o2 4814   1.164   2.490   4.746 -0.0893 -0.0441  0.0403
  402poe    c23 4815   1.305   2.479   4.749 -0.0159  0.6196 -0.5686
  402poe    c23 4816   1.348   2.383   4.637 -0.7167  0.2682 -0.5414
  402poe     o2 4817   1.243   2.289   4.629 -0.6489  0.1248  0.1888
  402poe    c23 4818   1.244   2.223   4.504 -0.0370  0.5242 -0.0195
  402poe    c23 4819   1.105   2.158   4.506  0.0221  0.4080  0.6861
  402poe     o2 4820   1.005   2.253   4.533  0.2345  0.7639  0.2417
  402poe    c23 4821   0.886   2.183   4.561  0.6987 -0.0261  0.2660
  402poe    c23 4822   0.794   2.274   4.646 -0.1747 -0.7835  0.1529
  402poe     o2 4823   0.889   2.342   4.725 -0.3362  0.1645 -0.4617
  402poe    c31 4824   0.825   2.413   4.829  0.4048  0.5064 -0.2302
  403poe    c31 4825   6.351   6.638   5.676  0.5060  0.3561  0.0756
  403poe     o2 4826   6.218   6.655   5.719  0.2016 -0.4570 -0.5089
  403poe    c23 4827   6.179   6.557   5.812 -0.0091  0.3569  0.2783
  403poe    c23 4828   6.036   6.521   5.768  0.2953 -0.3377 -0.1645
  403poe     o2 4829   5.979   6.649   5.751  0.1651 -0.2798  0.6732
  403poe    c23 4830   5.838   6.649   5.751  0.1640 -0.1838  0.3239
  403poe    c23 4831   5.800   6.716   5.618  0.4540 -0.4798  0.0901
  403poe     o2 4832   5.894   6.820   5.603  0.2234 -0.2530  0.2182
  403poe    c23 4833   5.874   6.890   5.483  0.2980 -0.4901  0.0671
  403poe    c23 4834   6.012   6.945   5.445  0.0012 -0.4650 -1.0193
  403poe     o2 4835   6.108   6.849   5.483  0.0296  0.0974  0.3755
  403poe    c31 4836   6.233   6.913   5.470  0.0506  0.0330  0.2672
  404poe    c31 4837   1.430   4.087   4.689  0.5585 -0.4169 -0.3310
  404poe     o2 4838   1.436   4.228   4.686 -0.3070 -0.3802 -0.6503
  404poe    c23 4839   1.565   4.258   4.636  0.0517 -0.1324  0.4050
  404poe    c23 4840   1.645   4.357   4.722  0.0890  0.2129 -0.0262
  404poe     o2 4841   1.585   4.483   4.741 -0.2078  0.0863 -0.1248
  404poe    c23 4842   1.570   4.510   4.878  0.0043  0.1709 -0.1186
  404poe    c23 4843   1.426   4.551   4.914 -0.0434 -0.4851  0.4643
  404poe     o2 4844   1.334   4.456   4.867  0.0229 -0.0588 -0.5413
  404poe    c23 4845   1.210   4.478   4.930  0.2122 -0.0824 -0.1599
  404poe    c23 4846   1.120   4.359   4.894 -0.0105  0.0711 -0.1135
  404poe     o2 4847   1.149   4.313   4.764 -0.3771 -0.0866 -0.1424
  404poe    c31 4848   1.056   4.233   4.695 -0.0449 -0.7184  0.1317
  405poe    c31 4849   2.939   0.553   4.021 -0.6099 -0.0297 -0.1421
  405poe     o2 4850   3.006   0.429   4.025 -0.0996  0.2370 -0.2831
  405poe    c23 4851   2.950   0.353   4.130  0.5202  0.0458 -0.0848
  405poe    c23 4852   3.026   0.222   4.155  0.7678  0.1847 -0.1080
  405poe     o2 4853   3.044   0.156   4.032  0.2354  0.3318 -0.2673
  405poe    c23 4854   3.161   0.078   4.039 -0.4218 -0.6307  0.1629
  405poe    c23 4855   3.219   0.062   3.897 -0.2773  0.1812  0.1297
  405poe     o2 4856   3.222   0.200   3.868  0.2177  0.1452  0.0092
  405poe    c23 4857   3.269   0.221   3.736 -0.6387  0.1157 -0.3084
  405poe    c23 4858   3.266   0.375   3.739 -0.2358  0.1283 -0.4405
  405poe     o2 4859   3.136   0.411   3.779  0.0989  0.3753  0.4547
  405poe    c31 4860   3.117   0.535   3.715 -0.2934  0.5297  0.8611
  406poe    c31 4861   1.909   2.613   2.972  0.2109  0.5264 -0.5793
  406poe     o2 4862   1.974   2.708   3.054  0.5029 -0.5282  0.4310
  406poe    c23 4863   1.906   2.713   3.177 -0.0093 -0.2101  0.1356
  406poe    c23 4864   1.908   2.860   3.222  0.3176 -0.4687  0.9814
  406poe     o2 4865   2.040   2.905   3.200 -0.0019 -0.1208 -0.3219
  406poe    c23 4866   2.058   3.039   3.241  0.1185 -0.2033 -0.1009
  406poe    c23 4867   2.188   3.092   3.177  0.0396  0.2556  0.1179
  406poe     o2 4868   2.187   3.083   3.036  0.0484 -0.7170  0.1744
  406poe    c23 4869   2.317   3.059   2.988  0.3016  0.1505  0.4113
  406poe    c23 4870   2.300   2.949   2.882 -0.2075  0.2232  0.4189
  406poe     o2 4871   2.244   2.832   2.937 -0.1057  0.2411  0.5600
  406poe    c31 4872   2.285   2.728   2.851 -0.1828  0.3565  0.3826
  407poe    c31 4873   2.633   6.597   2.290  0.1283 -0.5542 -0.0685
  407poe     o2 4874   2.766   6.644   2.303  0.0940 -0.5253  0.1778
  407poe    c23 4875   2.854   6.539   2.337 -0.2414 -0.9523 -0.2546
  407poe    c23 4876   2.988   6.608   2.368 -0.3630 -0.6357 -0.4337
  407poe     o2 4877   3.014   6.712   2.275  0.4220 -1.1067 -0.7513
  407poe    c23 4878   3.134   6.784   2.288 -0.1768 -0.1735 -0.2861
  407poe    c23 4879   3.125   6.910   2.200 -0.1343  0.2658  0.3262
  407poe     o2 4880   2.995   6.963   2.192 -0.1453  0.2286  0.2466
  407poe    c23 4881   2.957   7.019   2.316 -0.5121  0.3308  0.0890
  407poe    c23 4882   2.807   7.054   2.306 -0.5719  0.0272 -0.1089
  407poe     o2 4883   2.738   6.933   2.289  0.0768 -0.3708  0.0249
  407poe    c31 4884   2.600   6.956   2.270  0.0501 -0.4824  0.0840
  408poe    c31 4885   1.635   5.756   4.689 -0.3241  0.3174  0.2436
  408poe     o2 4886   1.701   5.878   4.664 -0.1439  0.1636 -0.0435
  408poe    c23 4887   1.768   5.928   4.778  0.5457 -0.1404 -0.3114
  408poe    c23 4888   1.812   6.070   4.740  1.1485 -0.1168  0.4518
  408poe     o2 4889   1.866   6.070   4.609 -0.1442  0.1148 -0.0980
  408poe    c23 4890   1.978   6.153   4.589 -0.0712  0.0943  0.2133
  408poe    c23 4891   2.045   6.122   4.453  0.2773  0.2357  0.3519
  408poe     o2 4892   2.015   5.987   4.430  0.2525  0.3188 -0.1062
  408poe    c23 4893   2.063   5.944   4.304 -0.0973 -0.2168 -0.0642
  408poe    c23 4894   2.018   5.798   4.289  0.2340 -0.3183 -0.0721
  408poe     o2 4895   1.902   5.784   4.367  0.2012 -0.5846 -0.1675
  408poe    c31 4896   1.835   5.668   4.322 -0.1711 -0.2236 -0.5509
  409poe    c31 4897   1.332   0.634   1.685 -0.4686 -0.0464 -0.0133
  409poe     o2 4898   1.358   0.614   1.548  0.6786  0.1832  0.1583
  409poe    c23 4899   1.325   0.733   1.479  0.4935  0.1293  0.1530
  409poe    c23 4900   1.377   0.702   1.337  0.0792  0.4389 -0.0688
  409poe     o2 4901   1.364   0.564   1.314 -0.5670  0.5135 -0.1620
  409poe    c23 4902   1.422   0.520   1.194  0.1750  0.0622  0.3529
  409poe    c23 4903   1.413   0.366   1.191 -0.6342  0.1055  0.3134
  409poe     o2 4904   1.454   0.338   1.323  0.0012  0.3456  0.1714
  409poe    c23 4905   1.407   0.207   1.346  0.1437  0.2197 -0.2550
  409poe    c23 4906   1.421   0.192   1.498  0.0032  0.7809 -0.1844
  409poe     o2 4907   1.377   0.309   1.563  0.5106  0.8131  0.1087
  409poe    c31 4908   1.385   0.286   1.702  0.3895  0.1560  0.0141
  410poe    c31 4909   0.643   2.900   4.983  0.2695 -0.1200 -0.3114
  410poe     o2 4910   0.509   2.941   5.003  0.2026 -0.5596  0.1835
  410poe    c23 4911   0.511   3.077   5.039 -0.1069 -0.4892 -0.0592
  410poe    c23 4912   0.369   3.127   5.071 -0.0634 -0.1367 -0.4114
  410poe     o2 4913   0.296   3.027   5.140 -0.0054  0.2014  0.1433
  410poe    c23 4914   0.167   3.079   5.164 -0.2645 -0.4707  0.2087
  410poe    c23 4915   0.069   2.975   5.222 -0.6669 -0.0021  0.3712
  410poe     o2 4916   0.104   2.847   5.174  0.0261  0.2448  0.2111
  410poe    c23 4917   0.018   2.755   5.236  0.3636  0.0634  0.4156
  410poe    c23 4918   0.026   2.613   5.177 -0.1094  0.3345 -0.3177
  410poe     o2 4919  -0.027   2.596   5.047 -0.2984 -0.7702 -0.1041
  410poe    c31 4920   0.008   2.466   5.004 -0.3191 -0.8629  0.1567
  411poe    c31 4921   3.463   2.417   4.185 -0.3161 -0.1630  0.0201
  411poe     o2 4922   3.507   2.350   4.302  0.4772  0.4150  0.0650
  411poe    c23 4923   3.393   2.277   4.343  0.4718  0.2326 -0.2666
  411poe    c23 4924   3.437   2.177   4.451 -0.5080 -0.1515 -0.2144
  411poe     o2 4925   3.508   2.263   4.538 -0.1577 -0.1237 -0.5273
  411poe    c23 4926   3.599   2.191   4.618 -0.0251 -0.0160 -0.5799
  411poe    c23 4927   3.710   2.281   4.674 -0.2398 -0.2794  0.2886
  411poe     o2 4928   3.754   2.352   4.559  0.0173 -0.8443  0.0338
  411poe    c23 4929   3.842   2.456   4.594 -0.3690 -0.4059 -0.3005
  411poe    c23 4930   3.865   2.538   4.466 -0.0614  0.3399  0.2221
  411poe     o2 4931   3.739   2.550   4.404  0.0108 -0.1926 -0.0361
  411poe    c31 4932   3.746   2.628   4.286  0.1831 -0.1875 -0.0236
  412poe    c31 4933   2.477   4.463   0.069  0.0706 -0.1886 -0.0341
  412poe     o2 4934   2.557   4.550   0.146  0.1651  0.0754 -0.4285
  412poe    c23 4935   2.482   4.644   0.219  0.1364 -0.1474 -0.1679
  412poe    c23 4936   2.567   4.731   0.313 -0.1151  0.3357 -0.3816
  412poe     o2 4937   2.688   4.766   0.249  0.2004 -0.4694 -0.2401
  412poe    c23 4938   2.794   4.788   0.339 -0.0497 -0.4043  0.0417
  412poe    c23 4939   2.928   4.771   0.264  0.0606 -0.2050  0.1919
  412poe     o2 4940   2.907   4.651   0.194 -0.2328  0.2811 -0.5627
  412poe    c23 4941   3.030   4.602   0.146 -0.1770 -0.3349  0.1892
  412poe    c23 4942   3.002   4.457   0.101  0.2183 -0.3891  0.1146
  412poe     o2 4943   2.893   4.468   0.013  0.8128 -0.1048 -0.5900
  412poe    c31 4944   2.868   4.353  -0.065 -0.0916 -0.5231  0.3006
  413poe    c31 4945   6.362   3.097   5.895 -0.1242  0.3630  0.1362
  413poe     o2 4946   6.320   3.024   5.783 -0.0965 -0.1225  0.4402
  413poe    c23 4947   6.290   3.114   5.678 -0.1796  0.0045  0.5735
  413poe    c23 4948   6.225   3.027   5.569  0.8809 -0.6421  0.4445
  413poe     o2 4949   6.097   2.980   5.605  0.4532  0.2083  0.0501
  413poe    c23 4950   6.047   2.882   5.517  0.3511  0.2225  0.0922
  413poe    c23 4951   5.896   2.855   5.527  0.3525  0.0858 -0.2414
  413poe     o2 4952   5.862   2.846   5.663 -0.1856 -0.6694 -0.4195
  413poe    c23 4953   5.728   2.811   5.689  0.0993 -1.0456  0.6203
  413poe    c23 4954   5.704   2.806   5.841 -0.2232 -0.6132  0.5840
  413poe     o2 4955   5.788   2.910   5.886 -0.4324 -0.3324  0.3348
  413poe    c31 4956   5.763   2.925   6.024  0.7145  0.3523  0.4806
  414poe    c31 4957   0.064   4.620   3.224  0.8433 -0.4001 -0.0279
  414poe     o2 4958  -0.037   4.570   3.309 -0.0362  0.7135 -0.3932
  414poe    c23 4959  -0.150   4.549   3.228 -0.1323 -0.6374  0.0674
  414poe    c23 4960  -0.284   4.561   3.303  0.1775 -0.1795  0.5564
  414poe     o2 4961  -0.258   4.482   3.417  0.3797  0.1943  0.7709
  414poe    c23 4962  -0.356   4.457   3.515 -0.6947  0.0904 -0.2998
  414poe    c23 4963  -0.292   4.371   3.626  0.1887  0.4639 -0.5114
  414poe     o2 4964  -0.166   4.428   3.653  0.1524  0.1266  0.3887
  414poe    c23 4965  -0.074   4.335   3.705  0.1061 -0.2568 -0.2094
  414poe    c23 4966   0.062   4.387   3.654 -0.1039  0.3359 -0.1699
  414poe     o2 4967   0.051   4.417   3.516 -0.6574 -0.5279 -0.3217
  414poe    c31 4968   0.182   4.384   3.476 -0.3664 -0.0699  0.2412
  415poe    c31 4969   4.084   6.122   2.057 -0.2527  0.8163 -1.0121
  415poe     o2 4970   4.129   6.212   2.155  0.6946 -0.7036 -0.0056
  415poe    c23 4971   4.072   6.200   2.283 -0.3143  0.3770 -0.3398
  415poe    c23 4972   4.152   6.293   2.376 -0.0526  0.0421 -0.2287
  415poe     o2 4973   4.153   6.417   2.309 -0.3653 -0.0586 -0.4206
  415poe    c23 4974   4.214   6.527   2.372  0.5107 -0.6726 -0.1809
  415poe    c23 4975   4.200   6.645   2.274  0.4801 -0.2819  0.2842
  415poe     o2 4976   4.251   6.590   2.154  0.5740  0.6212 -0.0935
  415poe    c23 4977   4.238   6.669   2.038  0.1695  0.5864 -0.0696
  415poe    c23 4978   4.253   6.571   1.920 -0.5059  0.4791 -0.0741
  415poe     o2 4979   4.189   6.450   1.951 -0.0814  0.1918 -0.2977
  415poe    c31 4980   4.168   6.377   1.833 -0.1097  0.0215 -0.1883
  416poe    c31 4981   0.880   2.501   5.726  0.0830  0.1188 -0.0924
  416poe     o2 4982   0.932   2.390   5.656  0.2562 -0.1205  0.4180
  416poe    c23 4983   1.066   2.376   5.700  0.3439 -0.6515 -0.0091
  416poe    c23 4984   1.117   2.236   5.659 -0.5339 -0.8294 -0.5233
  416poe     o2 4985   1.070   2.217   5.527 -0.7074  0.3647 -0.6489
  416poe    c23 4986   1.094   2.085   5.483 -0.1235  0.3945 -0.4338
  416poe    c23 4987   1.016   2.077   5.351 -0.5106 -0.5047 -0.1592
  416poe     o2 4988   0.895   2.139   5.390 -0.1885  0.1946 -0.2503
  416poe    c23 4989   0.813   2.168   5.279  0.0310  0.7858 -0.2610
  416poe    c23 4990   0.689   2.243   5.331 -0.4256 -0.0693 -0.1049
  416poe     o2 4991   0.731   2.321   5.441  0.1873 -0.2739 -0.1884
  416poe    c31 4992   0.617   2.389   5.490  0.3978 -0.2361  0.2455
  417poe    c31 4993   0.098   1.440   6.250 -0.2242  0.3720  0.0167
  417poe     o2 4994   0.228   1.464   6.201  0.0935 -0.3609  0.4872
  417poe    c23 4995   0.216   1.526   6.075 -0.2409 -0.5692  0.4135
  417poe    c23 4996   0.351   1.505   6.003 -0.0760  0.4106  0.4204
  417poe     o2 4997   0.443   1.530   6.106  0.3369  0.7001 -0.0171
  417poe    c23 4998   0.565   1.472   6.065  0.2051  0.3559  0.0726
  417poe    c23 4999   0.649   1.476   6.195  0.2984  0.6793  0.0026
  417poe     o2 5000   0.563   1.419   6.290  0.6635 -0.3161 -0.2591
  417poe    c23 5001   0.600   1.475   6.414  0.1760 -0.0451 -0.2374
  417poe    c23 5002   0.495   1.411   6.507  0.1140 -0.4838 -0.6096
  417poe     o2 5003   0.370   1.444   6.450  0.0946  0.3365 -0.0926
  417poe    c31 5004   0.274   1.416   6.549 -0.1241  0.6062 -0.2255
  418poe    c31 5005   3.370   3.216   3.157  0.1185  0.7201 -0.0093
  418poe     o2 5006   3.373   3.080   3.121 -0.0195  0.7190 -0.0178
  418poe    c23 5007   3.244   3.043   3.078  0.0682  0.2189  0.1418
  418poe    c23 5008   3.242   2.895   3.035  0.4324  0.3492 -0.3293
  418poe     o2 5009   3.333   2.836   3.125 -0.6450 -0.3651  0.3118
  418poe    c23 5010   3.357   2.697   3.120 -0.2666 -0.2924  0.0312
  418poe    c23 5011   3.468   2.672   3.224 -0.1722 -0.3625 -0.0861
  418poe     o2 5012   3.576   2.752   3.185 -0.3264  0.1159  0.4600
  418poe    c23 5013   3.677   2.737   3.282  0.1364 -0.1832 -0.0585
  418poe    c23 5014   3.730   2.881   3.297 -0.4428 -0.0440  0.6762
  418poe     o2 5015   3.631   2.980   3.277 -0.3239 -0.0941 -0.1843
  418poe    c31 5016   3.671   3.111   3.309  0.5836 -0.2404 -0.7041
  419poe    c31 5017   6.469   0.780   3.452 -0.7512  0.3524 -0.2618
  419poe     o2 5018   6.527   0.701   3.351  0.1049  0.1804  0.3458
  419poe    c23 5019   6.667   0.701   3.367  0.0874 -0.1150  0.5153
  419poe    c23 5020   6.739   0.598   3.277  0.5982  0.6491  0.0311
  419poe     o2 5021   6.656   0.592   3.163  0.1917 -0.1468  0.3589
  419poe    c23 5022   6.683   0.471   3.097 -0.1195  0.0874 -0.2096
  419poe    c23 5023   6.578   0.466   2.985  0.0287 -0.2965 -0.3325
  419poe     o2 5024   6.449   0.512   3.018  0.2346  0.0488  0.0025
  419poe    c23 5025   6.363   0.412   3.069 -0.2860  0.2863 -0.4012
  419poe    c23 5026   6.247   0.488   3.135 -0.3211 -0.3945  0.3252
  419poe     o2 5027   6.309   0.586   3.215 -0.0525 -0.4051  0.1345
  419poe    c31 5028   6.204   0.669   3.262  0.0960 -0.0441 -0.1615
  420poe    c31 5029   4.011   6.270   3.769  0.4184 -0.7727  0.0429
  420poe     o2 5030   4.110   6.342   3.700 -0.2514  0.2816  0.1592
  420poe    c23 5031   4.072   6.364   3.566  0.0895 -0.1423 -0.0102
  420poe    c23 5032   4.158   6.481   3.512  0.2245 -0.3832 -0.3218
  420poe     o2 5033   4.289   6.435   3.534  0.2189 -0.1237  0.2695
  420poe    c23 5034   4.391   6.532   3.524 -0.2606  0.3457 -0.1193
  420poe    c23 5035   4.519   6.455   3.561 -0.4392 -0.1623 -0.5512
  420poe     o2 5036   4.489   6.372   3.671  0.0084 -0.2442 -0.4888
  420poe    c23 5037   4.561   6.252   3.660 -0.0060 -0.2913 -0.0990
  420poe    c23 5038   4.484   6.134   3.722 -0.1765  0.2423  0.7167
  420poe     o2 5039   4.348   6.143   3.684  0.0259  0.1898 -0.0440
  420poe    c31 5040   4.286   6.018   3.704 -0.1546  0.2629 -0.1496
  421poe    c31 5041   3.465   1.131   2.424 -0.6633  0.1379  0.3454
  421poe     o2 5042   3.528   1.233   2.498  0.9995 -0.2196 -0.5351
  421poe    c23 5043   3.587   1.186   2.617  0.1597  0.2694  0.0783
  421poe    c23 5044   3.645   1.315   2.677 -0.0650  0.4628 -0.1172
  421poe     o2 5045   3.540   1.408   2.665 -0.1851  0.3056 -0.2802
  421poe    c23 5046   3.573   1.544   2.684 -0.3802  0.3364 -0.1522
  421poe    c23 5047   3.586   1.603   2.543 -0.1215  0.2026 -0.1859
  421poe     o2 5048   3.465   1.556   2.488 -0.2575  0.0548  0.2384
  421poe    c23 5049   3.435   1.622   2.367 -0.2222  0.1524  0.2823
  421poe    c23 5050   3.304   1.554   2.323  0.0766 -0.4586  0.3228
  421poe     o2 5051   3.328   1.415   2.325  0.1732 -0.4399  0.4632
  421poe    c31 5052   3.221   1.357   2.254  0.8025 -0.3407 -0.5929
  422poe    c31 5053   0.849   5.709   2.204 -0.1027 -0.4700  0.2062
  422poe     o2 5054   0.968   5.778   2.231 -0.4990  0.3057  0.0060
  422poe    c23 5055   1.065   5.733   2.140 -0.4802  0.0299  0.1608
  422poe    c23 5056   1.186   5.828   2.154 -0.3645 -0.0863 -0.0396
  422poe     o2 5057   1.223   5.823   2.290 -0.1906 -0.0869 -0.0876
  422poe    c23 5058   1.299   5.933   2.338  0.0874 -0.1186 -0.4459
  422poe    c23 5059   1.241   5.948   2.480 -0.3400  0.1205 -0.6418
  422poe     o2 5060   1.106   5.910   2.491 -0.1619 -0.4421 -0.3247
  422poe    c23 5061   1.066   5.904   2.626  0.6046 -0.8194 -0.1061
  422poe    c23 5062   0.915   5.874   2.614  0.4299 -0.0005 -0.0342
  422poe     o2 5063   0.897   5.770   2.520 -0.3889  0.1265 -0.0283
  422poe    c31 5064   0.776   5.699   2.535 -0.0105 -0.5256 -0.0263
  423poe    c31 5065   0.077   3.929   2.414 -0.6384  0.0453 -0.1516
  423poe     o2 5066  -0.046   3.975   2.466 -0.3374  0.1068  0.5139
  423poe    c23 5067  -0.138   3.894   2.398  0.5778 -0.9905  0.5602
  423poe    c23 5068  -0.264   3.966   2.450  0.5225 -0.1677 -0.6888
  423poe     o2 5069  -0.244   4.105   2.463 -0.3003 -0.1071 -0.0460
  423poe    c23 5070  -0.330   4.174   2.552  0.1738  0.1295  0.2341
  423poe    c23 5071  -0.263   4.308   2.586  0.1215  0.2320 -0.0647
  423poe     o2 5072  -0.123   4.298   2.593  0.0941  0.1694  0.4746
  423poe    c23 5073  -0.046   4.335   2.705  0.2435 -0.0189  0.4360
  423poe    c23 5074   0.100   4.291   2.684  0.0271 -0.2895 -0.5332
  423poe     o2 5075   0.097   4.151   2.662  0.1793 -0.2982 -0.4977
  423poe    c31 5076   0.219   4.106   2.716  0.0066 -0.4621 -0.2371
  424poe    c31 5077   0.444   3.861   0.346  0.3457 -0.2643 -0.6047
  424poe     o2 5078   0.420   3.845   0.484  0.1087  0.0940 -0.6012
  424poe    c23 5079   0.503   3.738   0.526 -0.1777  0.3086  0.5512
  424poe    c23 5080   0.451   3.675   0.656 -0.5412 -0.4106  0.0601
  424poe     o2 5081   0.386   3.786   0.714 -0.3367  0.0750 -0.6228
  424poe    c23 5082   0.355   3.766   0.850 -0.8521 -0.3818 -0.8012
  424poe    c23 5083   0.237   3.861   0.878  0.0689  0.6527 -0.3316
  424poe     o2 5084   0.264   3.971   0.794  0.4711  0.2753 -0.7036
  424poe    c23 5085   0.148   4.051   0.796  0.7439  0.6559  0.1102
  424poe    c23 5086   0.183   4.138   0.674  0.0627 -0.0599 -0.6016
  424poe     o2 5087   0.222   4.057   0.566 -0.5446 -0.3014 -0.6431
  424poe    c31 5088   0.213   4.131   0.446 -0.3424  0.1170 -0.4013
  425poe    c31 5089   2.698   1.027   0.104  0.2848 -0.9783 -0.3506
  425poe     o2 5090   2.574   1.029   0.170  0.2785  0.2870 -0.3616
  425poe    c23 5091   2.564   0.918   0.257  0.5110  0.2790 -0.3457
  425poe    c23 5092   2.412   0.900   0.275  0.4909  0.5986 -0.2005
  425poe     o2 5093   2.355   1.028   0.290 -0.1073  0.3344 -0.2255
  425poe    c23 5094   2.222   1.024   0.337  0.1039  0.3379  0.3825
  425poe    c23 5095   2.163   1.166   0.344  0.2137  0.4122 -0.1450
  425poe     o2 5096   2.195   1.222   0.219 -0.1220  0.0595 -0.3882
  425poe    c23 5097   2.238   1.356   0.229  0.3971 -0.1408  0.1463
  425poe    c23 5098   2.325   1.387   0.106  0.1583  0.0105  0.0140
  425poe     o2 5099   2.427   1.293   0.081 -0.0394 -0.3015  0.3735
  425poe    c31 5100   2.507   1.338  -0.026  0.0615 -0.0529  0.5537
  426poe    c31 5101   3.663   4.731   5.575 -0.0505 -0.2999  0.1039
  426poe     o2 5102   3.608   4.602   5.562 -0.0877 -0.3005  0.2721
  426poe    c23 5103   3.685   4.523   5.474  0.0675 -0.1872  0.3051
  426poe    c23 5104   3.643   4.376   5.494 -0.5460 -0.0686 -0.0681
  426poe     o2 5105   3.508   4.381   5.534 -0.5594  0.1257 -0.1386
  426poe    c23 5106   3.474   4.264   5.604  0.0311  0.1137  0.1360
  426poe    c23 5107   3.342   4.254   5.683 -0.0158 -0.5774 -0.0155
  426poe     o2 5108   3.348   4.380   5.748 -0.2938 -0.5897  0.0354
  426poe    c23 5109   3.227   4.442   5.784  0.0075 -0.1648  0.3114
  426poe    c23 5110   3.257   4.584   5.837  0.3875 -0.2576  0.3513
  426poe     o2 5111   3.326   4.641   5.728  0.0533 -0.3752  0.0730
  426poe    c31 5112   3.307   4.780   5.712  0.4708 -0.4024 -0.7047
  427poe    c31 5113   0.074   3.735   3.402 -0.1459 -0.3000 -0.4113
  427poe     o2 5114   0.113   3.624   3.326  0.2719 -0.0689 -0.5380
  427poe    c23 5115   0.038   3.638   3.207 -0.3242  0.6390 -0.0842
  427poe    c23 5116   0.020   3.501   3.138 -0.2158  0.1566  0.8279
  427poe     o2 5117   0.148   3.442   3.140 -0.3836 -0.2376  0.0809
  427poe    c23 5118   0.137   3.303   3.119  0.3518 -0.3355  0.3394
  427poe    c23 5119   0.279   3.248   3.144  0.4130 -0.0610  0.6051
  427poe     o2 5120   0.325   3.327   3.252 -0.0232  0.3653  0.4817
  427poe    c23 5121   0.461   3.321   3.286  0.1396  0.2568 -0.1823
  427poe    c23 5122   0.478   3.389   3.423  0.0323 -0.1570  0.0375
  427poe     o2 5123   0.373   3.482   3.431 -0.0593 -0.2776  0.2338
  427poe    c31 5124   0.396   3.571   3.538  0.2703 -0.6983  0.5162
  428poe    c31 5125   0.520   4.238   1.575  0.3130  0.2365  0.2599
  428poe     o2 5126   0.517   4.253   1.435 -0.4608 -0.3934  0.1974
  428poe    c23 5127   0.446   4.369   1.396 -0.2593 -0.2790  0.1684
  428poe    c23 5128   0.453   4.386   1.243  0.1161  0.2210  0.2364
  428poe     o2 5129   0.467   4.256   1.190 -0.5424  0.2206  0.0555
  428poe    c23 5130   0.470   4.253   1.049 -0.2727 -0.0882  0.0662
  428poe    c23 5131   0.475   4.101   1.022 -0.6471 -0.1143  0.1395
  428poe     o2 5132   0.558   4.048   1.123  0.2220 -0.0252 -0.5161
  428poe    c23 5133   0.573   3.908   1.123 -0.8445 -0.1590  0.4502
  428poe    c23 5134   0.652   3.876   1.252  0.0218  0.6251  0.1236
  428poe     o2 5135   0.589   3.952   1.353  0.1106  0.0094  0.6445
  428poe    c31 5136   0.628   3.913   1.483  0.5357 -0.8700  0.2668
  429poe    c31 5137   6.413   0.675   4.786 -0.6715 -0.3079  0.1031
  429poe     o2 5138   6.463   0.706   4.913  0.2205 -0.1669 -0.2767
  429poe    c23 5139   6.573   0.794   4.902  0.2521 -0.1925 -0.1727
  429poe    c23 5140   6.658   0.806   5.030  0.1026  0.4400 -0.1340
  429poe     o2 5141   6.578   0.846   5.139  0.5189  0.7157  0.0754
  429poe    c23 5142   6.636   0.807   5.261  0.3600  0.5950  0.1135
  429poe    c23 5143   6.527   0.776   5.365 -0.0346  0.0974 -0.4459
  429poe     o2 5144   6.447   0.677   5.304  0.1039 -0.4734  0.2763
  429poe    c23 5145   6.316   0.671   5.355 -0.0933 -0.5671 -0.2384
  429poe    c23 5146   6.238   0.582   5.256 -0.2901 -0.2879 -0.3362
  429poe     o2 5147   6.258   0.619   5.121  0.1373  0.7998  0.0190
  429poe    c31 5148   6.170   0.548   5.037  0.0354 -0.3221  1.0487
  430poe    c31 5149   6.247   5.306   6.368 -0.3072 -0.3761  1.0058
  430poe     o2 5150   6.156   5.413   6.388  0.0986  0.3185 -0.6939
  430poe    c23 5151   6.054   5.373   6.476  0.7871  0.2910  0.1006
  430poe    c23 5152   5.970   5.491   6.530 -0.1234 -0.0868 -0.4715
  430poe     o2 5153   6.064   5.581   6.584  0.1474 -0.3093 -0.5690
  430poe    c23 5154   6.012   5.712   6.588  0.4374 -0.2054 -0.1877
  430poe    c23 5155   6.135   5.801   6.566  0.0259  0.3924 -0.1047
  430poe     o2 5156   6.190   5.778   6.438 -0.1977  0.2319 -0.1719
  430poe    c23 5157   6.288   5.873   6.402  0.1273 -0.1719 -0.3512
  430poe    c23 5158   6.339   5.846   6.259  0.5196  0.2298 -0.2902
  430poe     o2 5159   6.366   5.709   6.239  0.0328  0.0523  0.2277
  430poe    c31 5160   6.447   5.694   6.124 -0.4855 -0.5127 -0.0721
  431poe    c31 5161   5.199   1.607   5.654 -0.8261 -0.2245 -0.0526
  431poe     o2 5162   5.105   1.712   5.664  0.4023  0.8835  0.1287
  431poe    c23 5163   4.991   1.665   5.595  0.7486 -0.1914  0.2650
  431poe    c23 5164   4.886   1.777   5.585  0.1717 -0.7540  0.0125
  431poe     o2 5165   4.901   1.848   5.706  0.1476  0.0327 -0.4453
  431poe    c23 5166   4.813   1.959   5.701 -0.0629 -0.0977  0.2534
  431poe    c23 5167   4.888   2.062   5.787 -0.0526  0.0150  0.1094
  431poe     o2 5168   5.025   2.042   5.760 -0.1746 -0.0869 -0.4550
  431poe    c23 5169   5.097   2.135   5.837  0.1765 -0.4835 -0.2986
  431poe    c23 5170   5.239   2.074   5.843  0.2401 -0.2860  0.3459
  431poe     o2 5171   5.232   1.936   5.869  0.3800 -0.3887 -0.1504
  431poe    c31 5172   5.366   1.892   5.870  0.6980  0.5658 -0.3416
  432poe    c31 5173   6.252   1.264   4.269 -0.3793 -0.2361 -0.5180
  432poe     o2 5174   6.211   1.389   4.219  0.4405  0.3979  0.3620
  432poe    c23 5175   6.115   1.438   4.311 -0.6280 -0.3336 -0.3375
  432poe    c23 5176   6.083   1.587   4.292 -0.1116 -0.0326  1.0129
  432poe     o2 5177   6.206   1.632   4.241 -0.4010 -0.3828 -0.0277
  432poe    c23 5178   6.198   1.756   4.175 -0.0676 -0.0004  0.6365
  432poe    c23 5179   6.339   1.779   4.118 -0.3143  0.1437  0.0827
  432poe     o2 5180   6.386   1.666   4.048 -0.0959  0.9234 -1.0793
  432poe    c23 5181   6.519   1.681   4.004  0.2648  0.3218 -0.2406
  432poe    c23 5182   6.555   1.564   3.910 -0.5837  0.0246 -0.2019
  432poe     o2 5183   6.505   1.444   3.964  0.2251 -0.1346  0.1926
  432poe    c31 5184   6.528   1.339   3.872  0.6596  0.2182 -0.1025
  433poe    c31 5185   4.131   5.905   1.431 -0.0501 -0.2518 -0.1500
  433poe     o2 5186   4.062   5.833   1.531 -0.0892 -0.2936 -0.2076
  433poe    c23 5187   4.055   5.901   1.654  0.1649 -0.0101 -0.3470
  433poe    c23 5188   4.044   5.779   1.747  0.2341  0.0836 -0.2149
  433poe     o2 5189   3.964   5.688   1.674  0.0694  0.2580 -0.2530
  433poe    c23 5190   3.961   5.564   1.741 -0.2002  0.4362  0.0675
  433poe    c23 5191   3.830   5.505   1.685  0.2363 -0.1784 -0.3106
  433poe     o2 5192   3.825   5.534   1.547 -0.4427 -0.2441 -0.3010
  433poe    c23 5193   3.693   5.571   1.513 -0.4666 -0.3578 -0.3316
  433poe    c23 5194   3.710   5.657   1.386 -0.2567  0.1565  0.0434
  433poe     o2 5195   3.811   5.753   1.406 -0.4597  0.2578  0.6099
  433poe    c31 5196   3.773   5.868   1.335  0.1033 -0.0707 -0.2412
  434poe    c31 5197   4.355   4.369   4.376  0.3029 -0.2982 -0.4823
  434poe     o2 5198   4.273   4.419   4.479  0.3018 -0.4985 -0.3841
  434poe    c23 5199   4.144   4.365   4.470  0.1174 -0.2616  0.6775
  434poe    c23 5200   4.116   4.325   4.616 -0.1880  0.1628  0.7372
  434poe     o2 5201   4.161   4.439   4.687 -0.1482  0.4580  0.2433
  434poe    c23 5202   4.221   4.397   4.808  0.0263 -0.4942 -0.1682
  434poe    c23 5203   4.315   4.515   4.838 -0.0434 -0.3323 -0.5737
  434poe     o2 5204   4.377   4.565   4.722 -0.0834  0.0368 -0.4379
  434poe    c23 5205   4.450   4.682   4.749 -0.0337 -0.0944  0.0083
  434poe    c23 5206   4.488   4.726   4.606 -0.4786 -0.3914 -0.2035
  434poe     o2 5207   4.378   4.699   4.523 -0.3660 -0.3973 -0.3512
  434poe    c31 5208   4.406   4.762   4.400  0.0624  0.6523  0.2819
  435poe    c31 5209   5.106   4.668   5.868 -0.2256 -0.8187  0.1497
  435poe     o2 5210   5.055   4.696   5.996  0.0591  0.0340  0.0811
  435poe    c23 5211   5.000   4.825   6.014 -0.4598 -0.2377  0.4685
  435poe    c23 5212   4.962   4.833   6.163 -0.0245 -0.1395  0.5763
  435poe     o2 5213   4.895   4.715   6.201 -0.5645  0.0144  0.1226
  435poe    c23 5214   4.927   4.671   6.331 -0.1287 -0.0897 -0.0157
  435poe    c23 5215   5.048   4.576   6.327 -0.0626 -0.0253  0.3947
  435poe     o2 5216   5.000   4.481   6.235  0.3526  0.1943 -0.0505
  435poe    c23 5217   5.095   4.379   6.210  0.5432  0.4531 -0.3942
  435poe    c23 5218   5.069   4.306   6.077 -0.1296  0.0715 -0.0583
  435poe     o2 5219   5.015   4.394   5.982 -0.2244  0.1210  0.0413
  435poe    c31 5220   4.995   4.325   5.860  1.0903  0.4739 -0.3982
  436poe    c31 5221   4.235   2.682   0.398 -0.8655  0.8154 -0.0512
  436poe     o2 5222   4.340   2.775   0.413  0.2549 -0.4138 -0.1125
  436poe    c23 5223   4.343   2.817   0.548 -0.4853  0.2557 -0.2979
  436poe    c23 5224   4.344   2.971   0.552 -0.5104  0.2530 -0.2026
  436poe     o2 5225   4.442   3.016   0.462  0.0932  0.1164  0.3804
  436poe    c23 5226   4.414   3.148   0.422  0.0480 -0.0681 -0.2024
  436poe    c23 5227   4.503   3.177   0.299  0.3041 -0.0020 -0.0018
  436poe     o2 5228   4.497   3.071   0.206 -0.5024 -0.3274  0.4108
  436poe    c23 5229   4.402   3.088   0.103 -0.1869 -0.0733  0.1585
  436poe    c23 5230   4.405   2.949   0.036  0.3784  0.0714 -0.1176
  436poe     o2 5231   4.402   2.847   0.133  0.2172  0.0863 -0.1061
  436poe    c31 5232   4.425   2.726   0.064  0.2489  0.3826 -0.6182
  437poe    c31 5233   2.730   5.418   4.412 -0.4736  0.1700  0.0578
  437poe     o2 5234   2.655   5.537   4.400 -0.1412  0.4241  0.4705
  437poe    c23 5235   2.739   5.632   4.338  0.2851 -0.1315  0.1841
  437poe    c23 5236   2.647   5.755   4.327  0.1704 -0.2580 -0.3187
  437poe     o2 5237   2.566   5.767   4.442  0.0167  0.0803 -0.4629
  437poe    c23 5238   2.465   5.866   4.443  0.1426  0.2033  0.0077
  437poe    c23 5239   2.373   5.822   4.558 -0.0682  0.1812 -0.1703
  437poe     o2 5240   2.350   5.685   4.529  0.5118 -0.1321  0.8160
  437poe    c23 5241   2.257   5.615   4.609 -0.0340 -0.1692  0.1534
  437poe    c23 5242   2.274   5.467   4.573 -0.3047 -0.1160 -0.2024
  437poe     o2 5243   2.412   5.442   4.559 -0.2230  0.1371  0.1562
  437poe    c31 5244   2.436   5.304   4.578  0.3711  0.1218 -0.6585
  438poe    c31 5245   5.422   6.627   0.477 -0.5874  0.0548 -0.1761
  438poe     o2 5246   5.328   6.597   0.578 -0.2412 -0.1905  0.0760
  438poe    c23 5247   5.193   6.598   0.537 -0.1407 -0.6008 -0.2874
  438poe    c23 5248   5.117   6.529   0.652 -0.1692  0.3611  0.2918
  438poe     o2 5249   5.182   6.571   0.770  0.2502 -0.1921  0.2623
  438poe    c23 5250   5.125   6.517   0.887 -0.3670 -0.4758 -0.1588
  438poe    c23 5251   5.196   6.587   1.004 -0.0834 -0.7347 -0.1742
  438poe     o2 5252   5.330   6.587   0.961 -0.0441  0.0818 -0.0606
  438poe    c23 5253   5.401   6.689   1.029 -0.1609 -0.0614  0.2757
  438poe    c23 5254   5.530   6.722   0.953 -0.0766 -0.1315  0.3880
  438poe     o2 5255   5.496   6.732   0.816 -0.1181  0.5586  0.4460
  438poe    c31 5256   5.604   6.784   0.742  0.0091  0.2461  0.4125
  439poe    c31 5257   0.996   2.957   4.973 -1.3309  0.6032  0.2183
  439poe     o2 5258   1.053   3.055   4.890 -0.0970 -0.0732  0.2308
  439poe    c23 5259   0.956   3.117   4.808 -0.1108 -0.1496  0.1899
  439poe    c23 5260   1.018   3.249   4.760  0.2450 -0.1689  0.5944
  439poe     o2 5261   1.147   3.220   4.713  0.0208 -0.1345 -0.0449
  439poe    c23 5262   1.141   3.188   4.575  0.1940  0.0940 -0.1065
  439poe    c23 5263   1.269   3.107   4.549 -0.0020 -0.2665  0.0357
  439poe     o2 5264   1.278   3.023   4.662 -0.0495  0.1570  0.3615
  439poe    c23 5265   1.411   2.975   4.671  0.1205  0.5235 -0.1150
  439poe    c23 5266   1.418   2.905   4.808  0.2812  0.1960 -0.2902
  439poe     o2 5267   1.351   2.987   4.902  0.6802 -0.2133  0.3629
  439poe    c31 5268   1.384   2.946   5.032 -0.6001 -0.1860  0.7068
  440poe    c31 5269   6.102   3.469   5.951  0.6480  0.1370 -0.4658
  440poe     o2 5270   5.984   3.545   5.937  0.4893 -0.0176  0.0191
  440poe    c23 5271   5.904   3.532   6.052  0.0327  0.8451 -0.1929
  440poe    c23 5272   5.773   3.596   6.002 -0.2434 -0.0110 -0.5963
  440poe     o2 5273   5.806   3.700   5.912  0.2628 -0.0034 -0.4063
  440poe    c23 5274   5.693   3.756   5.848 -0.0301  0.2899  0.3622
  440poe    c23 5275   5.760   3.871   5.771 -0.5066 -0.2046 -0.8146
  440poe     o2 5276   5.888   3.830   5.730 -0.2131 -0.5445  0.4061
  440poe    c23 5277   5.973   3.938   5.702 -0.5124 -0.3536  0.2375
  440poe    c23 5278   6.106   3.874   5.658 -0.2349  0.1431  0.3408
  440poe     o2 5279   6.117   3.770   5.753  0.1174 -0.6601 -0.5621
  440poe    c31 5280   6.257   3.752   5.760  0.1100 -0.3160  0.7130
  441poe    c31 5281   1.231   0.004   5.621  0.0186 -0.2810 -0.1058
  441poe     o2 5282   1.330  -0.084   5.671 -0.3557 -0.3761  0.4674
  441poe    c23 5283   1.443  -0.014   5.718 -0.2143 -0.4156  0.1883
  441poe    c23 5284   1.523  -0.098   5.820 -0.0884  0.3456  0.7269
  441poe     o2 5285   1.526  -0.230   5.769  0.5174  0.6109  0.0607
  441poe    c23 5286   1.568  -0.331   5.858  0.0566  0.2297 -0.1495
  441poe    c23 5287   1.509  -0.458   5.793  0.0026  0.0917  0.1664
  441poe     o2 5288   1.373  -0.437   5.764 -0.0297 -0.4174 -0.0483
  441poe    c23 5289   1.308  -0.552   5.713 -0.4555  0.0002 -0.4624
  441poe    c23 5290   1.165  -0.508   5.679 -0.5984  0.0595  0.2015
  441poe     o2 5291   1.166  -0.396   5.594 -0.2533 -0.0796  0.0236
  441poe    c31 5292   1.073  -0.407   5.488 -0.3181 -0.0514  0.0780
  442poe    c31 5293   0.015   3.864   4.821 -0.2907  0.1173 -0.3335
  442poe     o2 5294   0.014   3.770   4.927 -0.4684  0.3223 -0.1538
  442poe    c23 5295   0.099   3.819   5.027 -0.1045 -0.4683 -0.0733
  442poe    c23 5296   0.138   3.709   5.128 -0.0187 -0.1825  0.2075
  442poe     o2 5297   0.013   3.649   5.153  0.1234 -0.2429  0.7935
  442poe    c23 5298   0.012   3.536   5.236 -0.4602 -0.3930  0.5851
  442poe    c23 5299  -0.129   3.476   5.223 -0.6623  0.1056  0.4515
  442poe     o2 5300  -0.179   3.511   5.096  0.4557 -0.4110 -0.1455
  442poe    c23 5301  -0.319   3.523   5.107  0.4732  0.0589 -0.4418
  442poe    c23 5302  -0.371   3.563   4.968 -0.2067 -0.2669 -0.2857
  442poe     o2 5303  -0.261   3.625   4.905 -0.1246 -0.5105 -0.3805
  442poe    c31 5304  -0.291   3.687   4.782 -1.0826 -0.0715  0.0661
  443poe    c31 5305   0.762   5.241   4.804 -1.0467  0.0022  0.1571
  443poe     o2 5306   0.733   5.371   4.756 -0.4246 -0.2586 -0.9520
  443poe    c23 5307   0.848   5.452   4.761 -0.7952  0.2121  0.1768
  443poe    c23 5308   0.827   5.583   4.683  0.0145  0.2183 -0.0404
  443poe     o2 5309   0.695   5.617   4.720  0.2028  0.0688  0.7885
  443poe    c23 5310   0.633   5.692   4.617  0.2407 -0.2115  0.5600
  443poe    c23 5311   0.489   5.720   4.664  0.0180 -0.0056 -0.2325
  443poe     o2 5312   0.449   5.592   4.707 -0.4118  0.0254 -0.5361
  443poe    c23 5313   0.345   5.603   4.803  0.1437  0.2836  0.0445
  443poe    c23 5314   0.315   5.461   4.854  0.6136  0.1958  0.0867
  443poe     o2 5315   0.431   5.384   4.829  0.6739  0.2638  0.1591
  443poe    c31 5316   0.405   5.256   4.882 -0.0818  0.0223 -0.7655
  444poe    c31 5317   2.291   3.442   4.197 -0.2078 -0.4777 -0.0095
  444poe     o2 5318   2.361   3.545   4.263 -0.4175 -0.5873  0.3932
  444poe    c23 5319   2.331   3.670   4.205  0.5161 -0.5694 -0.0715
  444poe    c23 5320   2.445   3.772   4.223 -0.0780  0.1182 -0.1711
  444poe     o2 5321   2.494   3.735   4.350  0.0739  0.2010 -0.2043
  444poe    c23 5322   2.587   3.827   4.403 -0.0005  0.0769  0.1468
  444poe    c23 5323   2.581   3.796   4.554 -0.0432 -0.4226  0.0467
  444poe     o2 5324   2.576   3.656   4.566  0.0253 -0.4117  0.2004
  444poe    c23 5325   2.509   3.617   4.684  0.1323  0.0930  0.4320
  444poe    c23 5326   2.478   3.470   4.651  0.5706  0.0741  0.0886
  444poe     o2 5327   2.421   3.455   4.523  0.2505  0.0970  0.2253
  444poe    c31 5328   2.399   3.318   4.496  0.1106  0.1505  0.0655
  445poe    c31 5329   2.896   0.812   5.957  0.4378  0.1182 -0.0300
  445poe     o2 5330   3.029   0.765   5.962  0.3456 -0.1204  0.1959
  445poe    c23 5331   3.076   0.753   5.830 -0.0582 -0.1471  0.0515
  445poe    c23 5332   3.211   0.681   5.846  0.2645  0.2653 -0.7397
  445poe     o2 5333   3.295   0.731   5.947 -0.3222 -0.2491  0.0104
  445poe    c23 5334   3.405   0.658   5.997 -0.0562  0.2831  0.2121
  445poe    c23 5335   3.424   0.699   6.145 -0.0036 -0.3167  0.3746
  445poe     o2 5336   3.294   0.688   6.199 -0.1494  0.1489  0.1228
  445poe    c23 5337   3.276   0.716   6.336 -0.1413 -1.2464  0.4180
  445poe    c23 5338   3.129   0.731   6.378 -0.1734  0.1157 -0.1435
  445poe     o2 5339   3.058   0.773   6.264 -0.3940  0.5689  0.1552
  445poe    c31 5340   2.925   0.812   6.292 -0.6043 -0.1178  0.1462
  446poe    c31 5341   1.380   4.306   0.022  0.9808  0.2944  0.1730
  446poe     o2 5342   1.263   4.293   0.099  0.5639  0.1793 -0.4701
  446poe    c23 5343   1.200   4.419   0.112  0.5314  0.0776  0.4402
  446poe    c23 5344   1.133   4.444   0.248  0.3088 -0.0910  0.3634
  446poe     o2 5345   1.036   4.344   0.270 -0.1720  0.3715  0.3503
  446poe    c23 5346   1.030   4.316   0.408  0.2101  0.3507  0.3629
  446poe    c23 5347   1.023   4.164   0.432 -0.1843  0.2623 -0.2781
  446poe     o2 5348   1.113   4.104   0.341  0.5047  0.2542  0.3958
  446poe    c23 5349   1.167   3.978   0.375  0.8027  0.1762 -0.3470
  446poe    c23 5350   1.312   3.966   0.325  0.8425 -0.0374 -0.1787
  446poe     o2 5351   1.323   4.024   0.197 -0.4624 -0.0300 -0.3037
  446poe    c31 5352   1.427   3.956   0.129 -0.4065 -0.4421  0.1824
  447poe    c31 5353   1.591   3.176   1.441  0.1099  0.0249  0.5681
  447poe     o2 5354   1.495   3.186   1.544 -0.3692  0.5156  0.0819
  447poe    c23 5355   1.466   3.056   1.589  0.4282  0.3784  0.2213
  447poe    c23 5356   1.380   3.058   1.716  0.2181  0.7215  0.0764
  447poe     o2 5357   1.294   3.169   1.706  0.0242  0.5616 -0.0599
  447poe    c23 5358   1.215   3.190   1.820  0.3586  0.9059  0.1130
  447poe    c23 5359   1.126   3.306   1.772  0.0441  0.5690 -0.1252
  447poe     o2 5360   1.207   3.402   1.706  0.2728  0.2668 -0.2858
  447poe    c23 5361   1.143   3.469   1.600 -0.2463  0.2713  0.0267
  447poe    c23 5362   1.244   3.530   1.501 -0.0560 -0.5521 -0.2868
  447poe     o2 5363   1.359   3.449   1.518  0.3299  0.0119 -0.1958
  447poe    c31 5364   1.456   3.502   1.431  0.5478 -0.7272 -0.4029
  448poe    c31 5365   1.391   2.475   6.541  0.2366 -0.2759  0.2000
  448poe     o2 5366   1.461   2.487   6.663  0.3095 -0.4065  0.1723
  448poe    c23 5367   1.449   2.616   6.720 -0.5548 -0.3286 -0.1636
  448poe    c23 5368   1.554   2.638   6.830  0.4395 -0.0115 -1.1588
  448poe     o2 5369   1.552   2.520   6.908  0.7664  0.5059 -0.3500
  448poe    c23 5370   1.637   2.524   7.021 -0.0336  0.1701  0.2676
  448poe    c23 5371   1.610   2.386   7.083 -0.4002  0.1377  0.0394
  448poe     o2 5372   1.596   2.300   6.972  0.5001  0.3644 -0.2521
  448poe    c23 5373   1.512   2.191   6.999  0.2442  0.6636  0.1562
  448poe    c23 5374   1.365   2.231   6.975 -0.1505 -0.3686  0.7667
  448poe     o2 5375   1.373   2.296   6.850 -0.0847 -0.3046  0.8039
  448poe    c31 5376   1.242   2.285   6.800  0.1287 -0.3893  0.2451
  449poe    c31 5377   3.295   0.771   5.060  0.4225  0.4390  0.2620
  449poe     o2 5378   3.204   0.671   5.021  0.2714  0.5766  0.2615
  449poe    c23 5379   3.114   0.716   4.923  0.1033  0.0630  0.1717
  449poe    c23 5380   3.047   0.590   4.866 -0.3214  0.4232 -0.1415
  449poe     o2 5381   3.007   0.501   4.968  0.5394 -0.0761 -0.2231
  449poe    c23 5382   2.936   0.389   4.919 -0.5926  0.5138  0.0113
  449poe    c23 5383   2.927   0.296   5.042  0.3720  0.0022 -0.2941
  449poe     o2 5384   3.055   0.277   5.099  0.1474 -0.2216  0.1418
  449poe    c23 5385   3.161   0.208   5.036  0.0190 -0.6099  0.3484
  449poe    c23 5386   3.289   0.257   5.106 -0.2230 -0.3230  0.5889
  449poe     o2 5387   3.292   0.398   5.109 -0.1127 -0.2958 -0.5657
  449poe    c31 5388   3.416   0.448   5.154 -0.3051 -0.1446 -0.2060
  450poe    c31 5389   6.106   4.720   3.805 -0.0780 -0.0709 -1.0042
  450poe     o2 5390   6.059   4.851   3.781 -0.0302  0.0904 -0.2384
  450poe    c23 5391   6.162   4.917   3.711 -0.0495  0.1090 -0.2487
  450poe    c23 5392   6.118   5.057   3.666  0.1802  0.3249  0.1835
  450poe     o2 5393   6.010   5.029   3.579  0.0022  0.0030  0.5068
  450poe    c23 5394   5.950   5.148   3.534  0.2455 -0.1965 -0.3605
  450poe    c23 5395   5.806   5.120   3.487  0.1183 -0.1351 -0.0104
  450poe     o2 5396   5.745   5.058   3.598 -0.4240  0.6131  0.1157
  450poe    c23 5397   5.710   5.135   3.711 -0.0772  0.2298  0.4862
  450poe    c23 5398   5.686   5.043   3.832 -0.4613 -0.5470 -0.1634
  450poe     o2 5399   5.761   4.925   3.815  0.2608 -0.1046 -0.1189
  450poe    c31 5400   5.760   4.837   3.925  0.7092  0.0822  0.0374
  451poe    c31 5401   4.179   4.388   5.740 -0.0335 -0.4900  0.0174
  451poe     o2 5402   4.305   4.327   5.745 -0.1264 -0.6951 -0.1372
  451poe    c23 5403   4.405   4.375   5.657  0.1612 -0.1137  0.4970
  451poe    c23 5404   4.510   4.264   5.643  0.2513  0.0289  0.0078
  451poe     o2 5405   4.516   4.205   5.772 -0.4396 -0.3148 -0.1108
  451poe    c23 5406   4.594   4.089   5.790 -0.1284 -0.1093 -0.1244
  451poe    c23 5407   4.602   4.072   5.943  0.2021  0.8438 -0.0297
  451poe     o2 5408   4.471   4.078   5.994  0.0756  0.0402 -0.2502
  451poe    c23 5409   4.453   4.091   6.133  0.3556 -0.3426 -0.1797
  451poe    c23 5410   4.313   4.148   6.158  0.3560 -0.3468 -0.1680
  451poe     o2 5411   4.304   4.262   6.076  0.5429  0.2315  0.6063
  451poe    c31 5412   4.201   4.349   6.119  0.1903  0.1805 -0.1268
  452poe    c31 5413   2.656   2.005   6.018 -0.1840  0.2488  0.2396
  452poe     o2 5414   2.732   2.011   5.900 -0.2430  0.1230  0.1960
  452poe    c23 5415   2.863   2.046   5.940 -0.1056 -0.0559 -0.0875
  452poe    c23 5416   2.952   2.032   5.816  0.0278 -0.1659  0.0211
  452poe     o2 5417   2.903   2.104   5.705 -0.1629 -0.3711 -0.0273
  452poe    c23 5418   2.960   2.061   5.584 -0.2036 -0.1145 -0.1390
  452poe    c23 5419   2.857   2.082   5.472 -0.0518  0.2922 -0.2039
  452poe     o2 5420   2.744   2.024   5.534 -0.0845  0.0611 -0.4780
  452poe    c23 5421   2.626   2.067   5.470 -0.3099  0.1088 -0.0320
  452poe    c23 5422   2.520   1.988   5.549  0.0434 -0.1529  0.1832
  452poe     o2 5423   2.530   2.050   5.675  0.1225 -0.1195  0.1600
  452poe    c31 5424   2.427   2.004   5.759 -0.1611  0.2593  0.0221
  453poe    c31 5425   5.697   1.752   2.801  0.4180 -0.9690 -0.5383
  453poe     o2 5426   5.642   1.779   2.674 -0.2597 -0.2311 -0.0967
  453poe    c23 5427   5.609   1.654   2.619 -0.4218 -0.4351  0.4527
  453poe    c23 5428   5.581   1.673   2.469 -0.1286 -0.9594  0.3286
  453poe     o2 5429   5.678   1.771   2.440 -0.6353 -0.5958 -0.1468
  453poe    c23 5430   5.702   1.787   2.301 -0.2407  0.1728  0.0008
  453poe    c23 5431   5.836   1.861   2.302 -0.0031 -0.2534  0.2768
  453poe     o2 5432   5.828   1.950   2.411 -0.1244  0.4044 -0.2636
  453poe    c23 5433   5.944   2.024   2.443  0.0191 -0.1143  0.4214
  453poe    c23 5434   5.912   2.110   2.566  0.0507 -0.1315  0.4416
  453poe     o2 5435   5.848   2.032   2.666  0.6089 -0.2104  0.7403
  453poe    c31 5436   5.808   2.105   2.779  0.5180  0.1519  0.4768
  454poe    c31 5437   5.759   5.881   4.088 -0.1629 -0.0535 -0.4679
  454poe     o2 5438   5.744   5.828   3.959  0.7798 -0.2592 -0.4994
  454poe    c23 5439   5.737   5.687   3.963  0.4409 -0.2177  0.5066
  454poe    c23 5440   5.812   5.635   3.840  0.4826  0.3163  0.3040
  454poe     o2 5441   5.765   5.704   3.726 -0.4696 -0.5869  0.1381
  454poe    c23 5442   5.833   5.660   3.611 -0.2234  0.0716  0.0254
  454poe    c23 5443   5.776   5.755   3.504 -0.6232  0.0254  0.1932
  454poe     o2 5444   5.767   5.884   3.562  0.7692  0.5416 -0.6791
  454poe    c23 5445   5.687   5.964   3.477 -0.1496 -0.0651 -0.4030
  454poe    c23 5446   5.708   6.113   3.509  0.0148 -0.1861  0.0733
  454poe     o2 5447   5.627   6.161   3.613  0.5548  0.0276  0.4007
  454poe    c31 5448   5.654   6.298   3.632 -0.7015  0.3833 -0.2413
  455poe    c31 5449   3.230   3.557   2.833 -0.1057  0.1285  0.3356
  455poe     o2 5450   3.111   3.628   2.806  0.1916  0.3382 -0.4389
  455poe    c23 5451   3.068   3.691   2.925  0.3498  0.3084 -0.3648
  455poe    c23 5452   2.917   3.719   2.911  0.2018 -0.2332  0.1048
  455poe     o2 5453   2.904   3.774   2.782 -0.1760  0.2482  0.3459
  455poe    c23 5454   2.768   3.790   2.747 -0.0997 -0.0321 -0.0872
  455poe    c23 5455   2.782   3.783   2.594 -0.0944 -0.0180 -0.0870
  455poe     o2 5456   2.855   3.674   2.543 -0.0320  0.0534 -0.1497
  455poe    c23 5457   2.896   3.690   2.408  0.1247  0.0048 -0.1082
  455poe    c23 5458   3.010   3.592   2.376  0.5684  0.2666  0.6274
  455poe     o2 5459   3.087   3.555   2.488  0.2239 -0.8137  0.5237
  455poe    c31 5460   3.193   3.478   2.435  0.1798 -0.0806 -0.6613
  456poe    c31 5461   2.256   0.249   0.974 -0.0773  0.2283  0.1482
  456poe     o2 5462   2.250   0.149   1.074 -0.1453 -0.1805 -0.2637
  456poe    c23 5463   2.115   0.130   1.110  0.0785 -0.3147  0.5128
  456poe    c23 5464   2.111  -0.004   1.187 -0.2019 -0.8104 -0.3519
  456poe     o2 5465   2.207  -0.002   1.291 -0.2773  0.3459 -0.2868
  456poe    c23 5466   2.222  -0.133   1.340 -0.2106  0.2920 -0.4486
  456poe    c23 5467   2.363  -0.134   1.402 -0.5959 -0.2793  0.4409
  456poe     o2 5468   2.446  -0.073   1.306 -0.5869 -0.1252  0.5471
  456poe    c23 5469   2.578  -0.046   1.348 -0.3318  0.2451 -0.4630
  456poe    c23 5470   2.650   0.024   1.232 -0.5940  0.6157 -0.4055
  456poe     o2 5471   2.562   0.108   1.162 -0.7299  0.8322  0.0208
  456poe    c31 5472   2.639   0.147   1.050  0.0839 -0.1072  0.2380
  457poe    c31 5473   3.600   5.722   2.955  0.2836 -0.0450 -0.1103
  457poe     o2 5474   3.549   5.853   2.961 -0.2380 -0.2503  0.0127
  457poe    c23 5475   3.450   5.850   2.862 -0.3523 -0.2405  0.1260
  457poe    c23 5476   3.364   5.977   2.847  0.0298  0.0119  0.0939
  457poe     o2 5477   3.464   6.075   2.868  0.2389 -0.1782 -0.0034
  457poe    c23 5478   3.409   6.205   2.873 -0.1471 -0.3190 -0.4916
  457poe    c23 5479   3.524   6.300   2.912  0.0078 -0.5180 -0.4629
  457poe     o2 5480   3.591   6.257   3.028 -0.4242 -0.0368 -0.0285
  457poe    c23 5481   3.519   6.279   3.147 -0.1172 -0.5117  0.2509
  457poe    c23 5482   3.579   6.186   3.254  0.9528 -0.1344 -0.0156
  457poe     o2 5483   3.584   6.061   3.190  0.5446 -0.3402  0.3508
  457poe    c31 5484   3.617   5.959   3.281  0.1888 -0.3019  0.5218
  458poe    c31 5485   1.964   1.482   4.904  0.0578 -0.0365  0.1450
  458poe     o2 5486   1.832   1.445   4.938 -0.1756  1.0089  0.3954
  458poe    c23 5487   1.819   1.455   5.078  0.7968 -0.4574  0.6073
  458poe    c23 5488   1.674   1.459   5.130  0.4087 -0.5450 -0.4358
  458poe     o2 5489   1.611   1.365   5.047 -0.5544 -0.0808 -0.2383
  458poe    c23 5490   1.477   1.345   5.087 -0.2314 -0.4613  0.6757
  458poe    c23 5491   1.417   1.224   5.012 -0.1188 -0.1148  0.0164
  458poe     o2 5492   1.449   1.231   4.875 -0.5891  0.5389 -0.0674
  458poe    c23 5493   1.510   1.117   4.818 -0.0466  0.5005  0.5800
  458poe    c23 5494   1.608   1.160   4.708  0.0085 -0.1716  0.3613
  458poe     o2 5495   1.711   1.252   4.738 -0.2819  0.4019 -0.3788
  458poe    c31 5496   1.806   1.245   4.633  0.2065 -0.3811  0.1030
  459poe    c31 5497   1.857   1.650   4.097 -0.1656  0.6993 -0.3138
  459poe     o2 5498   1.960   1.568   4.044 -0.3777 -0.0432  0.3914
  459poe    c23 5499   2.040   1.658   3.971 -0.2284 -0.0281  0.5731
  459poe    c23 5500   2.165   1.580   3.924 -0.2167  0.0696  0.4408
  459poe     o2 5501   2.119   1.450   3.896 -0.3649  0.1641  0.2400
  459poe    c23 5502   2.227   1.360   3.903 -0.5678 -0.1066 -0.0849
  459poe    c23 5503   2.168   1.218   3.893 -0.0879 -0.2764 -0.5506
  459poe     o2 5504   2.037   1.232   3.944  0.1023 -0.2778 -0.0588
  459poe    c23 5505   2.015   1.133   4.042  0.1030  0.2358  0.4689
  459poe    c23 5506   1.869   1.159   4.084 -0.1392 -0.2448 -0.0670
  459poe     o2 5507   1.854   1.299   4.079 -0.1325 -0.2565 -0.5120
  459poe    c31 5508   1.724   1.325   4.127  0.1277  0.1949 -0.0390
  460poe    c31 5509   4.559   0.252   0.335 -0.4147  0.3747  0.6415
  460poe     o2 5510   4.493   0.370   0.295  0.0888  0.4557  0.0236
  460poe    c23 5511   4.360   0.333   0.264  0.1174  0.3531  0.0248
  460poe    c23 5512   4.279   0.447   0.199 -0.2976  0.0976  0.0904
  460poe     o2 5513   4.374   0.526   0.130  0.2253 -0.0285  0.6497
  460poe    c23 5514   4.318   0.635   0.060  0.5850  0.2129  0.7376
  460poe    c23 5515   4.438   0.718   0.013  0.3275  0.3262  0.2773
  460poe     o2 5516   4.534   0.697   0.114  0.1987  0.4904  0.4346
  460poe    c23 5517   4.665   0.748   0.098  0.2897  0.2588  0.4436
  460poe    c23 5518   4.747   0.698   0.219 -0.1643 -0.2507  0.5475
  460poe     o2 5519   4.728   0.559   0.234 -0.2667 -0.2593  0.3512
  460poe    c31 5520   4.823   0.495   0.317 -0.3181 -0.3107  0.3704
  461poe    c31 5521   5.520   2.316   1.238 -0.0477  0.0120  0.8500
  461poe     o2 5522   5.617   2.402   1.183 -0.1897 -0.2971  0.1042
  461poe    c23 5523   5.707   2.434   1.286 -0.3655 -0.6279  0.3620
  461poe    c23 5524   5.786   2.558   1.241 -0.2538 -0.6878  0.3931
  461poe     o2 5525   5.807   2.535   1.104  0.4021 -0.1882  0.4029
  461poe    c23 5526   5.882   2.636   1.041 -0.0220  0.1123  0.3796
  461poe    c23 5527   5.861   2.628   0.889 -0.1334 -0.4456  0.4240
  461poe     o2 5528   5.722   2.620   0.871 -0.0976  0.4287 -0.3039
  461poe    c23 5529   5.642   2.735   0.889 -0.1139  0.3803 -0.0637
  461poe    c23 5530   5.498   2.687   0.915 -0.0646  0.2280 -0.0685
  461poe     o2 5531   5.486   2.577   1.002  0.3042  0.4411  0.2554
  461poe    c31 5532   5.350   2.542   1.019  0.3600  0.0567 -0.0612
  462poe    c31 5533   5.425   2.092   3.690  1.3251  0.3867 -0.1458
  462poe     o2 5534   5.471   1.966   3.734 -0.5504 -0.2551  0.0586
  462poe    c23 5535   5.526   1.906   3.619  0.1398 -0.1672  0.3354
  462poe    c23 5536   5.654   1.823   3.639  0.3350 -0.1023 -0.6147
  462poe     o2 5537   5.768   1.905   3.635  0.0397  0.3384 -0.0624
  462poe    c23 5538   5.885   1.828   3.619  0.1715  0.4302  0.4183
  462poe    c23 5539   5.988   1.901   3.532  0.3823 -0.4575 -0.0939
  462poe     o2 5540   5.990   2.033   3.581 -0.6597 -0.3201 -0.4037
  462poe    c23 5541   6.086   2.107   3.509  0.3773 -0.4357  0.8291
  462poe    c23 5542   6.087   2.237   3.592 -0.2381 -0.1902  0.4639
  462poe     o2 5543   5.957   2.283   3.620 -0.0669  0.6240 -0.0751
  462poe    c31 5544   5.945   2.423   3.636  0.0468  0.5901  0.3036
  463poe    c31 5545   6.581   3.225   0.315  0.2355  0.0087  0.0754
  463poe     o2 5546   6.465   3.260   0.386  0.0682 -0.5596  0.0861
  463poe    c23 5547   6.365   3.320   0.308  0.2903 -0.1846  0.0834
  463poe    c23 5548   6.233   3.318   0.387  0.0820  0.2948 -0.2506
  463poe     o2 5549   6.245   3.410   0.493 -0.1775  0.3175 -0.2402
  463poe    c23 5550   6.119   3.450   0.543  0.0034  0.3785  0.1716
  463poe    c23 5551   6.133   3.536   0.670  0.3798  0.1112  0.3102
  463poe     o2 5552   6.228   3.464   0.747 -0.1449 -0.2301  0.6428
  463poe    c23 5553   6.219   3.493   0.885  0.2353  0.4007  0.5377
  463poe    c23 5554   6.322   3.401   0.953 -0.0495 -0.2071  0.1548
  463poe     o2 5555   6.440   3.419   0.879 -0.0814  0.6629  0.3041
  463poe    c31 5556   6.543   3.365   0.959  0.2935  0.1435 -0.5137
  464poe    c31 5557   1.211   3.034   2.686  0.0862 -0.3098 -0.3895
  464poe     o2 5558   1.094   2.967   2.646 -0.4047  0.3283 -0.0395
  464poe    c23 5559   1.100   2.835   2.696  0.4651  0.2347 -0.3840
  464poe    c23 5560   0.953   2.791   2.705  0.5108  0.0606 -0.4846
  464poe     o2 5561   0.883   2.851   2.598  0.2623  0.1442 -0.2750
  464poe    c23 5562   0.757   2.788   2.598  0.0419  0.5377  1.1451
  464poe    c23 5563   0.674   2.863   2.492  0.5583  0.3324  0.5900
  464poe     o2 5564   0.683   3.001   2.518  0.4588  0.4168  0.1829
  464poe    c23 5565   0.613   3.081   2.426  0.3452 -0.1783 -0.2516
  464poe    c23 5566   0.579   3.228   2.459 -0.0827 -0.2786 -0.2369
  464poe     o2 5567   0.460   3.239   2.535 -0.3540 -0.6265 -0.6077
  464poe    c31 5568   0.351   3.283   2.457 -0.1150 -0.2988 -0.7582
  465poe    c31 5569   1.240   6.431   1.078  0.2324  0.8487  0.4688
  465poe     o2 5570   1.290   6.342   1.174 -0.6188 -0.2072 -0.0390
  465poe    c23 5571   1.305   6.406   1.299 -0.0012 -0.1633 -0.1317
  465poe    c23 5572   1.348   6.300   1.402 -0.6609 -0.0263  0.2904
  465poe     o2 5573   1.280   6.189   1.350  0.2945 -0.3029 -0.3987
  465poe    c23 5574   1.321   6.071   1.417 -0.1892 -0.3076 -0.1015
  465poe    c23 5575   1.308   5.948   1.326 -0.4202 -0.2484 -0.1497
  465poe     o2 5576   1.318   5.997   1.194  0.1456  0.5137  0.1680
  465poe    c23 5577   1.336   5.897   1.096 -0.4666  0.1377  0.4338
  465poe    c23 5578   1.378   5.981   0.974 -0.0814 -0.0858  0.4112
  465poe     o2 5579   1.322   6.110   0.970  0.2623  0.0556  0.0436
  465poe    c31 5580   1.392   6.193   0.881 -0.0562  0.0759 -0.1879
  466poe    c31 5581   4.985   1.946   1.948 -0.2851 -0.4281 -0.5187
  466poe     o2 5582   5.035   1.907   1.822  0.3889  0.7282 -0.6141
  466poe    c23 5583   5.082   1.776   1.844 -0.0524  0.6089 -0.3835
  466poe    c23 5584   5.209   1.756   1.760  0.2142 -0.3647  0.2354
  466poe     o2 5585   5.167   1.799   1.633 -0.0431 -0.2867  0.3465
  466poe    c23 5586   5.259   1.774   1.529 -0.6707 -0.4888 -0.1664
  466poe    c23 5587   5.190   1.845   1.410  0.3839  0.2203 -0.3677
  466poe     o2 5588   5.145   1.964   1.469  0.2027  0.2560 -0.5784
  466poe    c23 5589   5.098   2.064   1.381 -0.1798  0.3328 -0.2907
  466poe    c23 5590   5.079   2.174   1.488 -0.5409 -0.1036  0.0984
  466poe     o2 5591   5.001   2.126   1.595 -0.7873 -0.1765 -0.1129
  466poe    c31 5592   4.966   2.215   1.699  0.1011 -0.6497  0.6028
  467poe    c31 5593   4.301   2.421   2.419 -0.0376  0.4797 -0.2205
  467poe     o2 5594   4.285   2.327   2.316 -0.6049  0.5416 -0.1892
  467poe    c23 5595   4.187   2.226   2.326 -0.2370  0.1676 -0.3316
  467poe    c23 5596   4.148   2.160   2.192  0.1538  0.4283 -0.5754
  467poe     o2 5597   4.267   2.105   2.140  0.1005 -0.1480 -0.0936
  467poe    c23 5598   4.248   2.043   2.015  0.3620  0.1850 -0.3010
  467poe    c23 5599   4.392   2.022   1.965  0.5788 -0.3425  0.5194
  467poe     o2 5600   4.453   2.143   2.001  0.4863 -0.0370 -0.3183
  467poe    c23 5601   4.587   2.149   1.956  0.4980  0.2180 -0.2544
  467poe    c23 5602   4.610   2.297   1.989  0.6944  0.1221  0.0440
  467poe     o2 5603   4.557   2.323   2.117 -0.2764 -0.0056 -0.3261
  467poe    c31 5604   4.586   2.458   2.148  0.0183 -0.1657  0.0947
  468poe    c31 5605   0.873   0.623   6.061  0.2375  0.3055  0.3002
  468poe     o2 5606   0.789   0.637   6.173 -0.5083  0.3494 -0.2581
  468poe    c23 5607   0.743   0.507   6.202 -0.5907  0.4232 -0.0532
  468poe    c23 5608   0.638   0.495   6.314 -0.4826  0.0215  0.0074
  468poe     o2 5609   0.668   0.609   6.392  0.1593 -0.2891  0.2167
  468poe    c23 5610   0.584   0.631   6.503  0.6415 -0.4194  0.6142
  468poe    c23 5611   0.646   0.760   6.558  0.2967 -0.0988  0.2500
  468poe     o2 5612   0.678   0.842   6.447 -0.0481 -0.1303  0.1243
  468poe    c23 5613   0.723   0.972   6.478 -0.8944  0.2425 -0.1852
  468poe    c23 5614   0.790   1.025   6.350 -0.2954 -0.2390 -0.0759
  468poe     o2 5615   0.852   0.922   6.276  0.1872  0.0541 -0.0896
  468poe    c31 5616   0.952   0.973   6.191  0.0547  0.5477  0.0464
  469poe    c31 5617   5.602   3.789   4.227  0.3270  0.1209 -0.1262
  469poe     o2 5618   5.482   3.857   4.257  0.5089  0.4078 -0.0434
  469poe    c23 5619   5.471   3.977   4.184 -0.1849  0.1106 -0.4314
  469poe    c23 5620   5.329   4.029   4.209  0.0027  0.4864 -0.1454
  469poe     o2 5621   5.323   4.043   4.350 -0.3226  0.1861 -0.1279
  469poe    c23 5622   5.197   4.079   4.403 -0.0085  0.9953  0.0934
  469poe    c23 5623   5.195   4.048   4.553 -0.3685  0.2689 -0.0527
  469poe     o2 5624   5.243   3.917   4.571 -0.3692  0.2260 -0.3609
  469poe    c23 5625   5.151   3.810   4.558 -0.0927 -0.0820  0.1817
  469poe    c23 5626   5.222   3.675   4.537  0.4657  0.2587 -0.1550
  469poe     o2 5627   5.328   3.708   4.450  0.4575 -0.0504 -0.2856
  469poe    c31 5628   5.404   3.594   4.419  0.6578 -0.1790  0.6559
  470poe    c31 5629   2.282   4.153   0.762  0.6412 -0.3506  0.1875
  470poe     o2 5630   2.307   4.029   0.702  0.1611 -0.3844  0.0524
  470poe    c23 5631   2.376   3.941   0.788  0.1817 -0.5206 -0.1025
  470poe    c23 5632   2.395   3.805   0.718  0.3093 -0.4738 -0.1585
  470poe     o2 5633   2.409   3.824   0.579 -0.4489  0.1342 -0.1590
  470poe    c23 5634   2.541   3.821   0.529 -0.3258  0.3334  0.1493
  470poe    c23 5635   2.528   3.895   0.394 -0.0434 -0.1989 -0.1728
  470poe     o2 5636   2.440   4.002   0.414 -0.1561 -0.1806 -0.7594
  470poe    c23 5637   2.408   4.076   0.298 -1.0000 -0.3801 -0.6594
  470poe    c23 5638   2.314   4.186   0.350 -0.2109 -0.0865  0.1580
  470poe     o2 5639   2.225   4.113   0.432 -0.4586 -0.1781 -0.1887
  470poe    c31 5640   2.113   4.195   0.457 -0.2156  0.2096 -0.3578
  471poe    c31 5641   5.976   6.511   3.572  0.1370 -0.4459 -0.3327
  471poe     o2 5642   5.924   6.615   3.652  0.1701 -0.4463 -0.3095
  471poe    c23 5643   5.911   6.575   3.786 -0.2379  0.4119 -0.0866
  471poe    c23 5644   5.888   6.706   3.864  0.0807 -0.1132  0.9128
  471poe     o2 5645   6.002   6.786   3.844 -0.1971  0.0165 -0.2480
  471poe    c23 5646   5.981   6.918   3.888  0.3578  0.0212  0.0184
  471poe    c23 5647   5.904   6.999   3.782  0.0677 -0.3027 -0.0217
  471poe     o2 5648   5.968   6.963   3.662  0.3844 -0.1916  0.1119
  471poe    c23 5649   5.906   7.027   3.553  0.0482 -0.0408  0.3902
  471poe    c23 5650   5.973   6.975   3.424 -0.0707  0.5446  0.0837
  471poe     o2 5651   5.990   6.836   3.441  0.1695  0.5270 -0.3137
  471poe    c31 5652   6.082   6.796   3.341  0.4798 -0.0809  0.2031
  472poe    c31 5653   6.474   3.947   0.942 -0.7282  0.2693  0.0597
  472poe     o2 5654   6.491   3.930   1.081 -0.2080  0.6137  0.0421
  472poe    c23 5655   6.592   3.836   1.107 -0.1965  0.6830  0.2469
  472poe    c23 5656   6.564   3.793   1.252 -0.5271 -0.0586 -0.0333
  472poe     o2 5657   6.528   3.909   1.323 -0.1964 -0.1336  0.2610
  472poe    c23 5658   6.489   3.872   1.453  0.1475 -0.4845  0.2650
  472poe    c23 5659   6.397   3.986   1.501 -0.3209 -0.4708 -0.6588
  472poe     o2 5660   6.322   4.015   1.385 -0.3798  0.3459 -0.4202
  472poe    c23 5661   6.230   4.121   1.402 -0.1208  0.4766  0.1930
  472poe    c23 5662   6.189   4.160   1.259 -0.1964  0.1605  0.1276
  472poe     o2 5663   6.300   4.166   1.172  0.0867  0.2361  0.4925
  472poe    c31 5664   6.279   4.225   1.046 -1.2832 -0.1702  0.5097
  473poe    c31 5665   6.500   2.352   1.410  0.6375  0.0837  0.1066
  473poe     o2 5666   6.475   2.403   1.281  0.2745 -0.4558 -0.0372
  473poe    c23 5667   6.438   2.296   1.197  0.3552 -0.4087 -0.1330
  473poe    c23 5668   6.343   2.354   1.091  0.1178  0.2231  0.4193
  473poe     o2 5669   6.404   2.472   1.043 -0.0093  0.2170  0.2370
  473poe    c23 5670   6.307   2.569   1.012 -0.0764 -0.0015 -0.2366
  473poe    c23 5671   6.376   2.705   1.036 -0.1089 -0.0288  0.0121
  473poe     o2 5672   6.476   2.693   1.134  0.2395 -0.5661 -0.3996
  473poe    c23 5673   6.550   2.813   1.146 -0.4661 -0.1387 -0.2537
  473poe    c23 5674   6.602   2.790   1.290 -0.6303 -0.0538 -0.1801
  473poe     o2 5675   6.656   2.661   1.312 -0.5424  0.0429  0.1712
  473poe    c31 5676   6.721   2.682   1.435 -0.0293  0.1352 -0.1095
  474poe    c31 5677   4.721   1.999   1.075  0.0613 -0.5824  0.1123
  474poe     o2 5678   4.803   1.956   0.969  0.3446  0.4806 -0.1098
  474poe    c23 5679   4.913   1.891   1.029  0.0794  0.5027  0.4037
  474poe    c23 5680   5.000   1.817   0.926 -0.2421  0.4983  0.1325
  474poe     o2 5681   5.022   1.915   0.828 -0.3176  0.0668 -0.3164
  474poe    c23 5682   5.048   1.847   0.707  0.5118 -0.0200 -0.0950
  474poe    c23 5683   4.952   1.901   0.598 -0.2462 -0.9278  0.1051
  474poe     o2 5684   4.826   1.915   0.659 -0.1818  0.1533  0.0160
  474poe    c23 5685   4.717   1.922   0.570  0.1168  0.1297 -0.3524
  474poe    c23 5686   4.591   1.988   0.630  0.2729  0.4369 -0.3567
  474poe     o2 5687   4.635   2.093   0.712  0.1833  0.2663 -0.0885
  474poe    c31 5688   4.519   2.153   0.766  0.3351  0.0481  0.4935
  475poe    c31 5689   6.072   4.907   1.973 -0.1416  0.3872 -0.1182
  475poe     o2 5690   6.041   4.981   1.857 -0.7093 -0.1079 -0.2877
  475poe    c23 5691   5.913   4.938   1.816 -0.7958 -0.1381  0.0121
  475poe    c23 5692   5.845   5.027   1.710 -0.0895  0.1409 -0.2155
  475poe     o2 5693   5.812   5.156   1.756  0.1173  0.2709 -0.4316
  475poe    c23 5694   5.734   5.229   1.664 -0.0174  0.2878 -0.3058
  475poe    c23 5695   5.623   5.310   1.733  0.0852 -0.1918  0.4354
  475poe     o2 5696   5.675   5.421   1.802  0.6832 -0.0959 -0.1475
  475poe    c23 5697   5.581   5.526   1.813  0.4580 -0.3264  0.1655
  475poe    c23 5698   5.650   5.656   1.858  0.3593 -0.1939 -0.0642
  475poe     o2 5699   5.727   5.625   1.972  0.1298  0.0858  0.1679
  475poe    c31 5700   5.766   5.746   2.034  0.4975  0.1081 -0.1019
  476poe    c31 5701   0.998   3.640   2.406  0.4748  0.9328  0.4186
  476poe     o2 5702   0.874   3.704   2.389  0.0203 -0.0427 -0.0200
  476poe    c23 5703   0.815   3.725   2.516 -0.4735 -0.3943 -0.1849
  476poe    c23 5704   0.687   3.806   2.492 -0.1843  0.1447  0.0592
  476poe     o2 5705   0.731   3.916   2.414  0.0756  0.0093  0.0144
  476poe    c23 5706   0.624   3.982   2.350 -0.1337 -0.8429 -0.5368
  476poe    c23 5707   0.689   4.057   2.232 -0.6440  0.0867 -0.2397
  476poe     o2 5708   0.805   3.986   2.193 -0.4965  0.5755 -0.6999
  476poe    c23 5709   0.901   4.047   2.110  0.2790  0.2224 -0.0743
  476poe    c23 5710   0.987   3.935   2.049  0.1873 -0.1930  0.5562
  476poe     o2 5711   1.008   3.825   2.135  0.1342 -0.2900  0.4439
  476poe    c31 5712   1.099   3.748   2.059  0.0864 -0.1435  0.2375
  477poe    c31 5713   6.178   1.384   0.678  0.0315 -0.3173 -0.1138
  477poe     o2 5714   6.161   1.303   0.791 -0.2869 -0.3956 -0.2146
  477poe    c23 5715   6.262   1.205   0.800 -0.2515 -0.3377  0.0471
  477poe    c23 5716   6.266   1.146   0.942  0.1853 -0.3820  0.0176
  477poe     o2 5717   6.129   1.133   0.972  0.1833 -0.1907  0.0869
  477poe    c23 5718   6.098   1.097   1.105  0.0783 -0.4936 -0.0194
  477poe    c23 5719   5.948   1.129   1.122  0.1006 -0.2059 -0.3322
  477poe     o2 5720   5.938   1.254   1.059 -0.0206 -0.0497 -0.0050
  477poe    c23 5721   5.812   1.317   1.068 -0.2211 -0.4454 -0.0255
  477poe    c23 5722   5.820   1.456   1.002  0.3558 -0.3625  0.2115
  477poe     o2 5723   5.913   1.435   0.897  0.2298  0.1308  0.0013
  477poe    c31 5724   5.901   1.543   0.807  0.3879  0.4110  0.3128
  478poe    c31 5725   2.609   5.193   5.141 -0.7050 -0.0985  0.1454
  478poe     o2 5726   2.644   5.057   5.147 -0.1417  0.0463  0.2530
  478poe    c23 5727   2.578   4.983   5.248  0.3857  0.0461  0.5992
  478poe    c23 5728   2.654   4.850   5.265  0.4237  0.0186  0.2346
  478poe     o2 5729   2.667   4.775   5.146 -0.0533 -0.0956  0.2526
  478poe    c23 5730   2.765   4.676   5.163 -0.1565 -0.2348  0.0302
  478poe    c23 5731   2.851   4.684   5.035 -0.2238  0.5993  0.0327
  478poe     o2 5732   2.855   4.823   5.013 -0.0162  0.6459  0.3642
  478poe    c23 5733   2.934   4.845   4.898  0.0931 -0.2268  0.2676
  478poe    c23 5734   2.897   4.989   4.861  0.0420 -0.2209  0.3402
  478poe     o2 5735   2.758   5.007   4.880  0.0607 -0.2014  0.4593
  478poe    c31 5736   2.730   5.128   4.813 -0.1687 -0.3886  0.2129
  479poe    c31 5737   6.509   0.766   1.189 -0.0159  0.3038  0.0645
  479poe     o2 5738   6.447   0.745   1.064 -0.5023  0.4623  0.2763
  479poe    c23 5739   6.310   0.718   1.080 -0.3722 -0.1100  0.4394
  479poe    c23 5740   6.240   0.732   0.943 -0.5357 -0.1371  0.5196
  479poe     o2 5741   6.328   0.663   0.857 -0.0650  0.2092  0.7150
  479poe    c23 5742   6.289   0.654   0.721 -0.0196  0.1493  0.7057
  479poe    c23 5743   6.391   0.567   0.646 -0.5396  0.1848 -0.0567
  479poe     o2 5744   6.524   0.605   0.677 -0.5877  0.2161  0.1132
  479poe    c23 5745   6.601   0.490   0.703 -0.4382  0.3581  0.3083
  479poe    c23 5746   6.722   0.529   0.789  0.0800 -0.4534 -0.0343
  479poe     o2 5747   6.680   0.596   0.906  0.1876 -0.3183 -0.0724
  479poe    c31 5748   6.787   0.583   0.997  0.3825 -0.0980 -0.2666
  480poe    c31 5749   6.145   2.650   6.490 -0.0132 -0.1537 -0.6309
  480poe     o2 5750   6.084   2.777   6.489  0.3418  0.0300  0.1644
  480poe    c23 5751   5.977   2.768   6.398 -0.6460  0.2842  1.2863
  480poe    c23 5752   5.951   2.909   6.343 -0.3631 -0.1077  0.1140
  480poe     o2 5753   5.953   2.987   6.461 -0.7492  0.2660 -0.1202
  480poe    c23 5754   5.881   3.108   6.466 -0.0312  0.7045 -0.2383
  480poe    c23 5755   5.888   3.149   6.614  0.1917 -0.0119 -0.0465
  480poe     o2 5756   5.996   3.075   6.667  0.2995  0.1516 -0.0360
  480poe    c23 5757   6.020   3.107   6.801 -0.0444  0.0186  0.0610
  480poe    c23 5758   6.075   2.980   6.869 -0.6638 -0.2373  0.0890
  480poe     o2 5759   6.156   2.911   6.775 -0.2094  0.2500  0.1159
  480poe    c31 5760   6.223   2.810   6.846  0.1000  0.5546  0.2612
  481poe    c31 5761   2.285   0.269   0.412 -0.2995 -0.2675 -0.3721
  481poe     o2 5762   2.402   0.329   0.361  0.0439 -0.1912  0.4858
  481poe    c23 5763   2.358   0.418   0.261  0.5751 -0.4205  0.0454
  481poe    c23 5764   2.483   0.496   0.216  0.2214  0.0734 -0.0894
  481poe     o2 5765   2.564   0.511   0.330 -0.5545 -0.1181  0.4958
  481poe    c23 5766   2.689   0.574   0.309 -0.7102  0.0440  0.0549
  481poe    c23 5767   2.738   0.565   0.454 -0.1636 -0.1457 -0.1403
  481poe     o2 5768   2.719   0.431   0.494 -0.4851 -0.0260  0.1131
  481poe    c23 5769   2.772   0.412   0.623  0.5879  0.2865 -0.2706
  481poe    c23 5770   2.715   0.272   0.650  0.2008  0.3524 -0.7448
  481poe     o2 5771   2.579   0.272   0.611 -0.0058  0.0130 -0.0407
  481poe    c31 5772   2.519   0.151   0.653  0.2232 -0.1411 -0.1555
  482poe    c31 5773   1.396   0.962   5.796  0.4597  0.1514  0.0255
  482poe     o2 5774   1.404   0.883   5.680  0.0065  0.0138  0.0859
  482poe    c23 5775   1.493   0.937   5.584  0.5189 -0.5664  0.2241
  482poe    c23 5776   1.427   0.880   5.458 -0.4574  0.0224  0.4507
  482poe     o2 5777   1.438   0.740   5.478 -0.3071  0.0163  0.3349
  482poe    c23 5778   1.383   0.649   5.385 -0.0794  0.1144  0.1026
  482poe    c23 5779   1.265   0.570   5.446  0.5328 -0.3765  0.6738
  482poe     o2 5780   1.287   0.557   5.584  0.1415 -0.7846  0.7008
  482poe    c23 5781   1.164   0.536   5.648 -0.1984 -0.0998  0.2852
  482poe    c23 5782   1.190   0.516   5.799 -0.2224 -0.0459  0.2961
  482poe     o2 5783   1.272   0.620   5.848  0.0430 -0.2676  0.3222
  482poe    c31 5784   1.282   0.612   5.989  0.2047  0.5793  0.3587
  483poe    c31 5785   5.679   3.307   5.224  0.5996 -0.0966  0.2706
  483poe     o2 5786   5.772   3.404   5.181  0.1178  0.0952 -0.3602
  483poe    c23 5787   5.868   3.336   5.102  0.0271  0.1555 -0.5230
  483poe    c23 5788   5.932   3.448   5.018  0.1763  0.4982  0.0410
  483poe     o2 5789   5.939   3.558   5.106  0.0191  0.1936  0.4382
  483poe    c23 5790   5.957   3.673   5.027 -0.2944 -0.0620 -0.0094
  483poe    c23 5791   5.903   3.794   5.106  0.2116  0.3858 -0.3391
  483poe     o2 5792   5.796   3.737   5.179  0.7105  0.1784  0.2373
  483poe    c23 5793   5.716   3.827   5.253 -0.3244 -0.4320 -0.1165
  483poe    c23 5794   5.596   3.745   5.305 -0.4380 -0.0489  0.2256
  483poe     o2 5795   5.651   3.625   5.354 -0.2966 -0.0614  0.0390
  483poe    c31 5796   5.587   3.602   5.477 -0.0665  1.2750  0.4178
  484poe    c31 5797   3.954   0.019   2.865  0.1018  0.5183 -0.5151
  484poe     o2 5798   3.992   0.142   2.922 -0.0503  0.1228  0.4597
  484poe    c23 5799   3.884   0.201   2.991 -0.3038  0.5499 -0.2902
  484poe    c23 5800   3.955   0.291   3.095  0.0802  0.3052 -0.3365
  484poe     o2 5801   4.066   0.361   3.044 -0.0085  0.5891 -0.1386
  484poe    c23 5802   4.152   0.426   3.136  0.2449  0.1196 -0.0418
  484poe    c23 5803   4.257   0.496   3.048  0.5169 -0.1319  0.0787
  484poe     o2 5804   4.280   0.397   2.950 -0.0753 -0.3849  0.1908
  484poe    c23 5805   4.350   0.451   2.840  0.0526 -0.5898  0.1701
  484poe    c23 5806   4.318   0.357   2.722  0.1962 -0.1189 -0.2453
  484poe     o2 5807   4.184   0.318   2.741  0.1379  0.1423 -0.1053
  484poe    c31 5808   4.149   0.242   2.627  0.3091 -0.5248  0.2792
  485poe    c31 5809   3.060   0.786   1.644  0.7924  0.0230 -0.2215
  485poe     o2 5810   2.957   0.836   1.727  0.6033 -0.1121 -0.3723
  485poe    c23 5811   3.010   0.877   1.851 -0.6329  0.6956 -0.0938
  485poe    c23 5812   2.946   0.774   1.947 -0.2383  0.9596  0.4571
  485poe     o2 5813   2.810   0.764   1.912 -0.1227  0.5248  0.1171
  485poe    c23 5814   2.729   0.708   2.014 -0.2869  0.1516 -0.2160
  485poe    c23 5815   2.587   0.746   1.970 -0.2882  0.2843 -0.0993
  485poe     o2 5816   2.568   0.748   1.830  0.2303 -0.2339 -0.1792
  485poe    c23 5817   2.571   0.620   1.770  0.1623 -0.2938 -0.0550
  485poe    c23 5818   2.597   0.641   1.620  0.0808  0.3653  0.0185
  485poe     o2 5819   2.729   0.690   1.620  0.4090 -0.5042  0.1563
  485poe    c31 5820   2.803   0.636   1.513  0.8480  0.4516 -0.0320
  486poe    c31 5821   5.700   3.480   1.418  0.0198 -0.0581  0.4526
  486poe     o2 5822   5.578   3.537   1.379  0.1589  0.0079  0.1075
  486poe    c23 5823   5.566   3.666   1.435  0.0046  0.0736 -0.0711
  486poe    c23 5824   5.440   3.735   1.380 -0.2769 -0.5844 -0.2589
  486poe     o2 5825   5.420   3.691   1.248 -0.0638 -0.2673 -0.3962
  486poe    c23 5826   5.316   3.753   1.175  0.2073  0.3765 -0.2456
  486poe    c23 5827   5.344   3.717   1.028 -0.1631  0.1346 -0.2569
  486poe     o2 5828   5.376   3.580   1.024 -0.0119  0.1653 -0.0884
  486poe    c23 5829   5.454   3.560   0.908  0.1470 -0.3020  0.0951
  486poe    c23 5830   5.595   3.538   0.966  0.0605 -0.4041  0.2669
  486poe     o2 5831   5.592   3.471   1.090  0.3049  0.0722  0.5326
  486poe    c31 5832   5.692   3.373   1.096  0.2299 -0.0626 -0.3581
  487poe    c31 5833   6.016   1.434   1.569 -0.7720 -0.3769 -0.3450
  487poe     o2 5834   5.987   1.554   1.501 -0.0035 -0.0832 -0.1605
  487poe    c23 5835   5.850   1.548   1.469 -0.0372 -0.3126  0.0225
  487poe    c23 5836   5.774   1.681   1.452  0.2698 -0.0610  0.6162
  487poe     o2 5837   5.861   1.744   1.362  0.4840 -0.1887  0.7324
  487poe    c23 5838   5.824   1.879   1.342  0.5292 -0.1599  0.8415
  487poe    c23 5839   5.956   1.945   1.299  0.1286  0.4097  0.4722
  487poe     o2 5840   6.058   1.912   1.391  0.5671  0.0484 -0.1310
  487poe    c23 5841   6.040   1.980   1.513 -0.0031 -0.1767 -0.0864
  487poe    c23 5842   6.133   1.917   1.619  0.1766 -0.4433 -0.4012
  487poe     o2 5843   6.111   1.778   1.604  0.5589 -0.5181 -0.2787
  487poe    c31 5844   6.136   1.717   1.729  0.2079 -0.5982 -0.2451
  488poe    c31 5845   6.049   4.788   0.647 -0.5018  0.0412 -0.3300
  488poe     o2 5846   6.027   4.740   0.778  0.5553  0.4914  0.0229
  488poe    c23 5847   6.112   4.633   0.812  0.4610  0.3473 -0.1907
  488poe    c23 5848   6.108   4.596   0.962  0.2306  0.2933 -0.2097
  488poe     o2 5849   5.970   4.583   0.985  0.2349  0.8010  0.1063
  488poe    c23 5850   5.951   4.562   1.123  0.3999  0.0048  0.0102
  488poe    c23 5851   5.798   4.571   1.141  0.2692 -0.5319 -0.7674
  488poe     o2 5852   5.753   4.680   1.065 -0.0206  0.0028  0.1517
  488poe    c23 5853   5.733   4.802   1.133  0.3211  0.2164 -0.1220
  488poe    c23 5854   5.715   4.902   1.017 -0.4165  0.3104  0.0670
  488poe     o2 5855   5.815   4.907   0.918 -0.2519  0.4891  0.2402
  488poe    c31 5856   5.795   5.028   0.848  0.0213 -0.0209 -0.7333
  489poe    c31 5857   5.630   5.852   5.897 -0.0255 -0.5728 -0.0494
  489poe     o2 5858   5.533   5.821   5.995 -0.5757  0.8545 -0.1225
  489poe    c23 5859   5.415   5.763   5.943 -0.5556  0.2216  0.5267
  489poe    c23 5860   5.294   5.769   6.039 -0.5769  0.3676  0.4919
  489poe     o2 5861   5.296   5.687   6.153  0.0765 -0.0072  0.2183
  489poe    c23 5862   5.225   5.743   6.261  0.7216 -0.0230  0.6618
  489poe    c23 5863   5.214   5.642   6.376  0.4022 -0.3460  0.3493
  489poe     o2 5864   5.117   5.541   6.360  0.1325 -0.0119 -0.1233
  489poe    c23 5865   5.062   5.474   6.471  0.3340  0.0654  0.0233
  489poe    c23 5866   4.959   5.373   6.417  0.1426  0.3242 -0.0915
  489poe     o2 5867   5.016   5.287   6.321  0.1665 -0.0806  0.2820
  489poe    c31 5868   5.003   5.155   6.367 -0.0492 -0.1544  0.0112
  490poe    c31 5869   6.053   1.381   3.126  0.4962 -0.0755 -0.1102
  490poe     o2 5870   5.987   1.260   3.155 -0.1959  0.3548  0.1410
  490poe    c23 5871   6.078   1.153   3.141 -0.3474  0.2385  0.0516
  490poe    c23 5872   6.004   1.028   3.194  0.1613 -0.1472 -0.1363
  490poe     o2 5873   5.917   1.068   3.297  0.3743 -0.1116  0.0296
  490poe    c23 5874   5.831   0.964   3.337 -0.0244  0.1883 -0.0416
  490poe    c23 5875   5.713   1.031   3.411 -0.1824 -0.0447 -0.0828
  490poe     o2 5876   5.700   1.165   3.368 -0.1368 -0.1266 -0.3522
  490poe    c23 5877   5.654   1.245   3.474  0.8447  0.1373 -0.1092
  490poe    c23 5878   5.757   1.359   3.483  0.7442  0.2563 -0.4539
  490poe     o2 5879   5.789   1.396   3.351  0.3028 -0.0588 -0.6520
  490poe    c31 5880   5.835   1.527   3.373 -0.3105  0.0245  0.1692
  491poe    c31 5881   6.312   1.549   4.835 -0.2163 -0.0984  0.2540
  491poe     o2 5882   6.414   1.626   4.892  0.0869 -0.2994 -0.0160
  491poe    c23 5883   6.503   1.528   4.942  0.2770 -0.0481  0.1420
  491poe    c23 5884   6.624   1.586   5.018 -0.2668  0.3703  0.6990
  491poe     o2 5885   6.644   1.709   4.954 -0.4595 -0.2078 -0.4952
  491poe    c23 5886   6.762   1.768   5.004 -0.4390 -0.3551 -0.3700
  491poe    c23 5887   6.782   1.894   4.917  0.0263 -0.4457 -0.3964
  491poe     o2 5888   6.650   1.942   4.921  0.2823  0.2383 -0.0803
  491poe    c23 5889   6.637   2.050   4.831 -0.1863  0.3370  0.0992
  491poe    c23 5890   6.486   2.067   4.806 -0.1860  0.3644  0.1154
  491poe     o2 5891   6.428   1.938   4.798 -0.0133  0.2760  0.2752
  491poe    c31 5892   6.288   1.947   4.789 -0.0042 -0.0147 -0.1688
  492poe    c31 5893   0.561   6.038   1.359  0.0541  0.0446 -0.4698
  492poe     o2 5894   0.508   6.120   1.257 -0.0083  0.1231 -0.3743
  492poe    c23 5895   0.457   6.050   1.146 -0.7567  0.0024  0.0381
  492poe    c23 5896   0.439   6.151   1.032 -0.3743  0.2795  0.2185
  492poe     o2 5897   0.397   6.267   1.100 -0.5107  0.2140  0.2478
  492poe    c23 5898   0.347   6.363   1.010  0.1321 -0.0626 -0.4161
  492poe    c23 5899   0.331   6.484   1.103 -0.3991 -0.8323  0.5180
  492poe     o2 5900   0.432   6.480   1.200 -0.1405 -0.0271  0.2883
  492poe    c23 5901   0.406   6.565   1.310 -1.0280 -0.2758  0.2727
  492poe    c23 5902   0.515   6.523   1.410 -0.0116 -0.0861 -0.7422
  492poe     o2 5903   0.527   6.384   1.430  0.1508  0.0407  0.0701
  492poe    c31 5904   0.623   6.362   1.531  0.2312 -0.4676 -0.1142
  493poe    c31 5905   2.219   5.116   3.725  0.3041 -0.0004 -0.6178
  493poe     o2 5906   2.244   5.186   3.604  0.2925  0.1614 -0.5276
  493poe    c23 5907   2.301   5.311   3.634  0.6664 -0.0743 -0.2454
  493poe    c23 5908   2.374   5.353   3.505  0.2278 -0.2859 -0.5665
  493poe     o2 5909   2.281   5.323   3.404 -0.4266  0.5836 -0.2317
  493poe    c23 5910   2.305   5.387   3.281  0.1420  0.7443 -0.0399
  493poe    c23 5911   2.197   5.317   3.197  0.1649  0.0059  0.5407
  493poe     o2 5912   2.190   5.187   3.252 -0.4616 -0.0167  0.4165
  493poe    c23 5913   2.109   5.102   3.173 -0.3795 -0.2931  0.6275
  493poe    c23 5914   2.138   4.964   3.235  0.1412 -0.3837  0.1917
  493poe     o2 5915   2.116   4.975   3.374  0.0387 -0.2196  0.1639
  493poe    c31 5916   2.135   4.846   3.428  0.0641  0.1741  1.1099
  494poe    c31 5917   2.581   6.084   1.351  0.1746  0.1061 -0.0975
  494poe     o2 5918   2.700   6.037   1.411 -0.2676  0.1264  0.8189
  494poe    c23 5919   2.706   5.899   1.438 -0.2087 -0.0324  0.0242
  494poe    c23 5920   2.618   5.851   1.554 -0.1199 -0.4531 -0.0808
  494poe     o2 5921   2.671   5.901   1.675 -0.2301 -0.2232 -0.1279
  494poe    c23 5922   2.647   5.802   1.772 -0.2309 -0.2333 -0.1379
  494poe    c23 5923   2.593   5.878   1.895 -0.1333  0.3390 -0.4484
  494poe     o2 5924   2.686   5.984   1.904 -0.2338  0.4187 -0.3369
  494poe    c23 5925   2.668   6.068   2.016 -0.3246 -0.3814  0.2590
  494poe    c23 5926   2.794   6.149   2.049 -0.4146  0.0626 -0.4571
  494poe     o2 5927   2.806   6.264   1.969 -0.5584  0.4559  0.0749
  494poe    c31 5928   2.897   6.363   2.012 -0.1820  0.1734 -0.0610
  495poe    c31 5929   2.384   4.544   1.825  0.0662 -0.1811  0.1759
  495poe     o2 5930   2.501   4.487   1.770  0.1835  0.0983  0.1356
  495poe    c23 5931   2.489   4.349   1.796 -0.3433  0.2019  0.4587
  495poe    c23 5932   2.633   4.301   1.767 -0.4322  0.1158  0.1651
  495poe     o2 5933   2.672   4.337   1.636  0.1030 -0.4824  0.1533
  495poe    c23 5934   2.787   4.271   1.590  0.0712 -0.1524 -0.4058
  495poe    c23 5935   2.815   4.354   1.463 -0.2776  0.4051 -0.1219
  495poe     o2 5936   2.790   4.490   1.491 -0.4300  0.3952 -0.2062
  495poe    c23 5937   2.816   4.578   1.385 -0.0847 -0.1776 -0.6048
  495poe    c23 5938   2.782   4.716   1.445 -0.0458 -0.5809  0.3543
  495poe     o2 5939   2.663   4.709   1.520 -0.1625  0.1306  0.2425
  495poe    c31 5940   2.634   4.834   1.579 -0.7198 -0.1064  0.4854
  496poe    c31 5941   2.015   4.314   4.214  0.0671  0.3727 -0.1480
  496poe     o2 5942   2.110   4.291   4.315  0.2248  0.3185 -0.3072
  496poe    c23 5943   2.115   4.410   4.390  0.4816 -0.0498  0.2674
  496poe    c23 5944   2.234   4.409   4.488  0.3214  0.0815  0.4642
  496poe     o2 5945   2.343   4.380   4.403  0.1688  0.8977 -0.0214
  496poe    c23 5946   2.464   4.384   4.475  0.2636 -0.3001 -0.0908
  496poe    c23 5947   2.574   4.331   4.381  0.3380  0.2311 -0.3057
  496poe     o2 5948   2.532   4.212   4.318 -0.1469 -0.0231  0.4819
  496poe    c23 5949   2.604   4.188   4.199 -0.2119  0.1679  0.4030
  496poe    c23 5950   2.515   4.110   4.101  0.3485  0.2336 -0.1594
  496poe     o2 5951   2.384   4.159   4.110  0.0918 -0.4808  0.1020
  496poe    c31 5952   2.305   4.092   4.014  0.1239  0.3726 -0.5454
  497poe    c31 5953   3.279   5.814   6.172  0.0866 -0.0170 -0.1337
  497poe     o2 5954   3.233   5.836   6.041 -0.3049 -0.8822 -0.1433
  497poe    c23 5955   3.131   5.931   6.061 -0.2155 -0.8539  0.1789
  497poe    c23 5956   3.069   5.955   5.923 -0.2092 -0.1601  0.2928
  497poe     o2 5957   3.158   5.928   5.817 -0.5147  0.7125 -0.1946
  497poe    c23 5958   3.090   5.870   5.708  0.2610  0.0942 -0.3600
  497poe    c23 5959   3.104   5.717   5.701  0.1786  0.0899 -0.4309
  497poe     o2 5960   3.236   5.688   5.742  0.1082  0.2088 -0.1135
  497poe    c23 5961   3.245   5.576   5.828 -0.0815  0.0466 -0.3040
  497poe    c23 5962   3.393   5.565   5.866  0.0384 -0.0732 -0.7997
  497poe     o2 5963   3.433   5.686   5.925 -0.5342 -0.3914  0.2724
  497poe    c31 5964   3.559   5.659   5.983  0.1195  0.5970 -0.6286
  498poe    c31 5965   1.844   5.047   6.157  0.0284  0.0451  0.3361
  498poe     o2 5966   1.929   4.952   6.097 -0.2328 -0.0432  0.0999
  498poe    c23 5967   2.003   4.884   6.197 -0.1733 -0.3328 -0.1395
  498poe    c23 5968   2.046   4.746   6.145  0.2051 -0.2029 -0.1713
  498poe     o2 5969   2.086   4.771   6.012  0.7409 -0.3342 -0.0380
  498poe    c23 5970   2.114   4.646   5.952  0.8464 -0.6969  0.7511
  498poe    c23 5971   1.994   4.610   5.863  0.3907 -0.3882  1.2344
  498poe     o2 5972   1.958   4.732   5.802 -0.3815 -1.0091  0.4163
  498poe    c23 5973   1.845   4.739   5.718 -0.1162 -0.2491  0.1165
  498poe    c23 5974   1.822   4.889   5.691 -0.0278 -0.1649  0.5106
  498poe     o2 5975   1.853   4.959   5.810  0.0875 -0.0208  0.3966
  498poe    c31 5976   1.773   5.074   5.802 -0.0398 -0.1097  0.3834
  499poe    c31 5977   0.812   0.762   0.999  0.0087 -0.5734 -0.3665
  499poe     o2 5978   0.758   0.692   1.109 -0.6136 -0.1783 -0.4136
  499poe    c23 5979   0.650   0.766   1.163 -0.1205  0.0163  0.3231
  499poe    c23 5980   0.579   0.680   1.269 -0.1720  0.1823  0.4235
  499poe     o2 5981   0.552   0.557   1.204 -0.1506  0.4869 -0.1651
  499poe    c23 5982   0.523   0.459   1.300 -0.2017  0.2360 -0.4359
  499poe    c23 5983   0.563   0.326   1.232  0.3895  0.0951  0.1770
  499poe     o2 5984   0.686   0.359   1.171  0.0246  0.6278 -0.2753
  499poe    c23 5985   0.753   0.245   1.122 -0.0826  0.0226  0.9467
  499poe    c23 5986   0.891   0.312   1.104 -0.1953  0.1535  0.5419
  499poe     o2 5987   0.878   0.441   1.051 -0.2637 -0.2598 -0.4632
  499poe    c31 5988   1.002   0.504   1.026 -0.0407 -0.1687  0.7920
  500poe    c31 5989   5.848   0.635   0.428 -0.1095 -0.3482 -0.0064
  500poe     o2 5990   5.744   0.706   0.492  0.3337  0.5196 -0.2341
  500poe    c23 5991   5.619   0.672   0.437  0.5113 -0.5933  0.0193
  500poe    c23 5992   5.513   0.780   0.464  0.5405 -0.5594 -0.0022
  500poe     o2 5993   5.501   0.799   0.603 -0.4049 -0.8060 -0.0393
  500poe    c23 5994   5.424   0.914   0.634  0.1817 -0.3583 -0.2148
  500poe    c23 5995   5.401   0.927   0.785 -0.1072 -0.5538 -0.2417
  500poe     o2 5996   5.532   0.914   0.836 -0.2083 -1.3501 -0.1664
  500poe    c23 5997   5.539   0.928   0.976  0.1385  0.2921 -0.3267
  500poe    c23 5998   5.691   0.908   0.993  0.1336  0.1687 -0.4180
  500poe     o2 5999   5.728   0.794   0.920 -0.1029 -0.0896 -0.1341
  500poe    c31 6000   5.856   0.755   0.965  0.0031  0.0286 -0.3361
  501poe    c31 6001   5.366   2.866   6.613 -0.2620  0.4958  0.1662
  501poe     o2 6002   5.274   2.760   6.623 -0.4893  0.7135  0.4119
  501poe    c23 6003   5.303   2.679   6.735 -0.4002 -0.2701 -0.3036
  501poe    c23 6004   5.236   2.542   6.714  0.2033 -0.5153 -0.6512
  501poe     o2 6005   5.108   2.562   6.659 -0.3097 -0.4045  0.5586
  501poe    c23 6006   5.054   2.447   6.599  0.1184 -0.0550 -0.5130
  501poe    c23 6007   4.927   2.489   6.523 -0.1012  0.1060 -0.0610
  501poe     o2 6008   4.951   2.615   6.466  0.3659  0.0881  0.0967
  501poe    c23 6009   4.841   2.693   6.508  0.0473 -0.3784  0.1310
  501poe    c23 6010   4.878   2.841   6.485  0.0729 -0.4362 -0.2092
  501poe     o2 6011   5.007   2.856   6.540 -0.0306  0.1361 -0.1208
  501poe    c31 6012   5.044   2.991   6.557 -0.1493  0.2112 -0.4503
  502poe    c31 6013   3.410   2.378   4.921  0.5419  0.1343 -0.8155
  502poe     o2 6014   3.344   2.499   4.948  0.6043 -0.0818  0.3630
  502poe    c23 6015   3.421   2.585   5.028  0.1330  0.1002  0.6258
  502poe    c23 6016   3.335   2.705   5.073 -0.9003 -0.6193  0.5978
  502poe     o2 6017   3.273   2.750   4.955 -0.2257  0.3946  0.6184
  502poe    c23 6018   3.170   2.838   4.994  0.3003  1.0323  0.5697
  502poe    c23 6019   3.043   2.805   4.913  0.4097  0.0741  0.7808
  502poe     o2 6020   3.039   2.666   4.890  0.0274  0.2168 -0.0569
  502poe    c23 6021   2.934   2.628   4.805 -0.1640 -0.0046  0.2769
  502poe    c23 6022   2.960   2.480   4.771  0.0643  0.1693 -0.3186
  502poe     o2 6023   3.095   2.477   4.729  0.1452  0.3272 -0.0779
  502poe    c31 6024   3.129   2.343   4.701  0.1486  0.2403  0.3392
  503poe    c31 6025   2.306   1.472   0.981 -0.0478  0.4754  1.0401
  503poe     o2 6026   2.287   1.566   0.877  0.1391 -0.5618  0.0426
  503poe    c23 6027   2.393   1.549   0.785 -0.6504 -0.2380 -0.9446
  503poe    c23 6028   2.343   1.625   0.661  0.0702  0.4762 -0.8049
  503poe     o2 6029   2.290   1.748   0.706  0.4973  0.3799 -0.0270
  503poe    c23 6030   2.216   1.820   0.611 -0.2805 -0.1335  0.1814
  503poe    c23 6031   2.179   1.947   0.690  0.2236 -0.4529  0.9362
  503poe     o2 6032   2.119   1.899   0.808 -0.3526 -0.1403  0.7724
  503poe    c23 6033   2.126   1.989   0.917 -0.4273  0.2414  0.4661
  503poe    c23 6034   2.093   1.907   1.043 -0.4997 -0.2892  0.1065
  503poe     o2 6035   2.153   1.779   1.038  0.0084 -0.0395 -0.2143
  503poe    c31 6036   2.144   1.718   1.165  0.5006 -0.1649 -0.2385
  504poe    c31 6037   3.761   2.389   3.718 -0.1189 -0.3700 -0.6605
  504poe     o2 6038   3.751   2.254   3.678 -0.2760 -0.5277 -0.0961
  504poe    c23 6039   3.618   2.237   3.637 -0.3040 -0.5504  0.0031
  504poe    c23 6040   3.612   2.118   3.539  0.3250 -0.2937 -0.3472
  504poe     o2 6041   3.698   2.020   3.594 -0.3645 -0.4078  0.5311
  504poe    c23 6042   3.708   1.900   3.521  0.2238  0.1819 -0.3626
  504poe    c23 6043   3.817   1.825   3.599 -0.7462 -0.1517  0.6932
  504poe     o2 6044   3.910   1.930   3.617 -0.1877 -0.5377  0.0790
  504poe    c23 6045   4.035   1.894   3.669 -0.2364 -0.0943  0.5064
  504poe    c23 6046   4.112   2.027   3.675 -0.0168 -0.1939 -0.0615
  504poe     o2 6047   4.026   2.123   3.733  0.0642  0.1630 -0.5254
  504poe    c31 6048   4.101   2.241   3.753  0.3280 -0.1141  0.1258
  505poe    c31 6049   2.575   6.221   2.825  0.2180  0.1224 -0.2527
  505poe     o2 6050   2.659   6.112   2.855  0.2681  0.1306 -0.3609
  505poe    c23 6051   2.779   6.150   2.919 -0.4228  0.0201  1.0483
  505poe    c23 6052   2.851   6.023   2.970 -0.6659 -0.3477  0.4877
  505poe     o2 6053   2.852   5.930   2.864 -0.0840  0.7628 -0.5047
  505poe    c23 6054   2.960   5.943   2.774  0.3922 -0.0454 -0.0571
  505poe    c23 6055   2.914   5.870   2.647 -0.1128  0.3307 -0.0931
  505poe     o2 6056   2.791   5.937   2.633 -0.0534  0.4095 -0.2394
  505poe    c23 6057   2.731   5.886   2.516  0.2775  0.1265 -0.2856
  505poe    c23 6058   2.596   5.959   2.513  0.2586  0.1341  0.6004
  505poe     o2 6059   2.543   5.953   2.644 -0.2927 -0.2941  0.3609
  505poe    c31 6060   2.408   5.991   2.634 -0.1699 -0.0629 -0.4934
  506poe    c31 6061   1.517   1.383   5.970 -0.2874 -0.3308  0.2026
  506poe     o2 6062   1.454   1.507   5.950  0.3922  0.0262  0.2538
  506poe    c23 6063   1.530   1.620   5.988  0.5086  0.0695 -0.1058
  506poe    c23 6064   1.437   1.732   6.039 -0.3361 -0.4611 -0.4615
  506poe     o2 6065   1.330   1.746   5.948 -0.2730 -0.5582 -0.5503
  506poe    c23 6066   1.224   1.830   5.988  0.2420 -0.0579 -0.2044
  506poe    c23 6067   1.110   1.794   5.891  0.3360 -0.4854 -0.1583
  506poe     o2 6068   1.123   1.655   5.866  0.5260 -0.5079  0.0663
  506poe    c23 6069   1.068   1.628   5.739 -0.1122 -0.5028  0.3394
  506poe    c23 6070   1.082   1.476   5.722 -0.1823 -0.4491 -0.2094
  506poe     o2 6071   1.213   1.449   5.766 -0.2590 -0.2768  0.1257
  506poe    c31 6072   1.259   1.322   5.726  0.2177 -0.0351 -0.1037
  507poe    c31 6073   1.906   0.032   3.363 -0.0267  0.9658 -0.4991
  507poe     o2 6074   2.042   0.014   3.331 -0.0336  0.2490 -0.1446
  507poe    c23 6075   2.115   0.116   3.396 -0.1761  0.0522  0.3251
  507poe    c23 6076   2.266   0.088   3.391 -0.2294 -0.1082 -0.4495
  507poe     o2 6077   2.280   0.059   3.254  0.0198  0.1167 -0.4724
  507poe    c23 6078   2.413   0.034   3.212  0.2378 -0.0936  0.3313
  507poe    c23 6079   2.403  -0.049   3.083 -0.8373  0.1348  0.2578
  507poe     o2 6080   2.298  -0.141   3.101 -1.0702  0.3527  0.0394
  507poe    c23 6081   2.271  -0.216   2.985  0.0239  0.1527 -0.1001
  507poe    c23 6082   2.150  -0.309   3.008 -0.1443  0.1941 -0.8156
  507poe     o2 6083   2.056  -0.239   3.087 -0.2195 -0.3157 -0.4482
  507poe    c31 6084   1.939  -0.316   3.102 -0.2849 -0.2923 -0.8251
  508poe    c31 6085   3.048   1.599   5.996  0.1425  0.9131  0.2501
  508poe     o2 6086   3.155   1.523   5.946 -0.5030  0.3479 -0.2924
  508poe    c23 6087   3.280   1.578   5.982 -0.3351 -0.1669 -0.0883
  508poe    c23 6088   3.378   1.463   5.953 -0.1339  0.0548 -0.2875
  508poe     o2 6089   3.328   1.390   5.843 -0.0273 -0.3616 -0.0630
  508poe    c23 6090   3.414   1.295   5.785  0.3456 -0.0688  0.0130
  508poe    c23 6091   3.336   1.268   5.655 -0.2661  0.3817  0.2803
  508poe     o2 6092   3.198   1.260   5.682 -0.2517 -0.0729  0.2272
  508poe    c23 6093   3.147   1.136   5.725 -0.3198 -0.0541  0.2017
  508poe    c23 6094   2.999   1.163   5.761 -0.4469 -0.0469 -0.3189
  508poe     o2 6095   2.996   1.281   5.838  0.2782 -0.0258 -0.3107
  508poe    c31 6096   2.871   1.275   5.903  0.1489 -0.0216 -0.5570
  509poe    c31 6097   5.921   3.886   2.981 -0.2730  0.1147  0.4661
  509poe     o2 6098   6.020   3.796   2.936 -0.5048  0.0938 -0.0106
  509poe    c23 6099   5.997   3.816   2.798  0.4765  0.2923 -0.1595
  509poe    c23 6100   6.105   3.744   2.716  0.3157 -0.1827  0.0441
  509poe     o2 6101   6.154   3.643   2.801  0.7752  0.5926  0.7132
  509poe    c23 6102   6.279   3.588   2.764  0.2018 -0.3516  0.1183
  509poe    c23 6103   6.299   3.488   2.880 -0.5399 -0.6362  0.0064
  509poe     o2 6104   6.268   3.567   2.993 -0.1287  0.1744 -0.4349
  509poe    c23 6105   6.287   3.504   3.117 -0.6320 -0.2532 -0.5649
  509poe    c23 6106   6.242   3.599   3.230  0.1489 -0.2740 -0.2229
  509poe     o2 6107   6.125   3.668   3.188  0.2313  0.0383  0.0578
  509poe    c31 6108   6.065   3.742   3.292 -0.0464  0.1360 -0.1735
  510poe    c31 6109   5.416   3.790   6.402  0.2019  0.0362 -0.0595
  510poe     o2 6110   5.447   3.919   6.450  0.3395 -0.0718  0.1405
  510poe    c23 6111   5.336   3.949   6.532  0.5869 -0.2809  0.5594
  510poe    c23 6112   5.321   4.101   6.551  0.3661 -0.1865 -0.3322
  510poe     o2 6113   5.433   4.144   6.625 -0.3328  0.7688  0.1846
  510poe    c23 6114   5.490   4.265   6.579 -0.1528  0.5276 -0.2299
  510poe    c23 6115   5.641   4.244   6.604 -0.1251  0.2539 -0.6215
  510poe     o2 6116   5.672   4.125   6.535  0.6545 -0.0489  0.2406
  510poe    c23 6117   5.801   4.092   6.582  0.7005 -0.0482  0.1153
  510poe    c23 6118   5.864   3.991   6.484  0.2905  0.2109 -0.4169
  510poe     o2 6119   5.756   3.921   6.426  0.0203  0.0198  0.3133
  510poe    c31 6120   5.793   3.818   6.337 -0.3034 -0.0337  0.2410
  511poe    c31 6121   0.673   1.998   0.420 -0.3849  0.1544  0.1385
  511poe     o2 6122   0.596   1.956   0.530 -0.0245  0.1489  0.3927
  511poe    c23 6123   0.482   2.038   0.544 -0.1773  0.0691 -0.3443
  511poe    c23 6124   0.341   1.980   0.520 -0.0824 -0.4340  0.3025
  511poe     o2 6125   0.346   1.851   0.463  0.4532 -0.1536 -0.3042
  511poe    c23 6126   0.223   1.837   0.394 -0.0285 -0.3512  0.5754
  511poe    c23 6127   0.249   1.728   0.289  0.0138  0.3947 -0.2043
  511poe     o2 6128   0.350   1.642   0.339 -0.1158  0.1636 -0.3382
  511poe    c23 6129   0.425   1.575   0.242 -0.0313 -0.0911 -0.0983
  511poe    c23 6130   0.569   1.550   0.293  0.1382  0.5700 -0.2462
  511poe     o2 6131   0.618   1.666   0.357  0.4300  0.2968  0.0263
  511poe    c31 6132   0.749   1.632   0.396  0.2384  0.1551  0.5521
  512poe    c31 6133   4.869   0.967   3.703  0.0548 -0.1839  0.1644
  512poe     o2 6134   4.960   0.977   3.595 -0.1812  0.1087 -0.0109
  512poe    c23 6135   4.977   1.109   3.550 -0.2876  0.1604  0.0989
  512poe    c23 6136   5.020   1.085   3.404  0.0511 -0.3334  0.2758
  512poe     o2 6137   5.115   0.982   3.413  0.2621 -0.1700 -0.0830
  512poe    c23 6138   5.248   1.027   3.394 -0.0288  0.5318 -0.5190
  512poe    c23 6139   5.339   0.917   3.336  0.1773  0.4045  0.0386
  512poe     o2 6140   5.382   0.812   3.420 -0.2502  0.1972  0.0036
  512poe    c23 6141   5.407   0.690   3.353 -0.7044 -0.1406  0.4445
  512poe    c23 6142   5.486   0.595   3.445 -0.0196  0.0087  0.0156
  512poe     o2 6143   5.410   0.529   3.543  0.5833 -0.2051  0.3458
  512poe    c31 6144   5.337   0.426   3.481  0.0670  0.1442  0.3655
  513poe    c31 6145   1.301   3.682   3.724 -0.0369  0.3351 -0.4943
  513poe     o2 6146   1.246   3.762   3.826 -0.6446 -0.9303  0.2037
  513poe    c23 6147   1.109   3.778   3.794 -0.4735 -0.2098 -0.1988
  513poe    c23 6148   1.026   3.828   3.912 -0.2014 -0.3018  0.0335
  513poe     o2 6149   1.111   3.926   3.968 -0.0961 -0.2309 -0.2521
  513poe    c23 6150   1.070   3.950   4.101  0.0103  0.5698 -0.3562
  513poe    c23 6151   1.186   4.028   4.166 -0.3289  0.0439  0.8999
  513poe     o2 6152   1.296   3.948   4.130 -0.1143  0.8663 -0.3339
  513poe    c23 6153   1.428   3.996   4.144  0.2282 -0.1591  0.0778
  513poe    c23 6154   1.532   3.905   4.077  0.0811 -0.1972 -0.0973
  513poe     o2 6155   1.480   3.842   3.961 -0.0631 -0.0437 -0.1161
  513poe    c31 6156   1.558   3.731   3.924  0.2581  0.2982 -0.4738
  514poe    c31 6157   3.728   0.428   5.820  0.6806 -0.8396  0.8912
  514poe     o2 6158   3.640   0.319   5.835  0.4983 -0.8565 -0.2268
  514poe    c23 6159   3.649   0.246   5.956 -0.2413 -0.3775  0.1308
  514poe    c23 6160   3.537   0.141   5.956 -0.2434 -0.3755  0.8590
  514poe     o2 6161   3.548   0.064   5.838  0.2103  0.2311  0.5031
  514poe    c23 6162   3.435  -0.016   5.816  0.5242 -0.0897  0.0519
  514poe    c23 6163   3.439  -0.063   5.669  0.0077 -0.4056  0.1366
  514poe     o2 6164   3.490   0.050   5.603 -0.1101 -0.3874  0.0757
  514poe    c23 6165   3.401   0.110   5.512  0.3839  0.1222 -0.0832
  514poe    c23 6166   3.453   0.252   5.486 -0.3061  0.3938 -0.0056
  514poe     o2 6167   3.486   0.315   5.609  0.2338  0.1147 -0.0026
  514poe    c31 6168   3.460   0.453   5.592 -0.0257  0.0537 -0.1069
  515poe    c31 6169   2.508   2.707   6.011  0.3429  0.3602 -0.0524
  515poe     o2 6170   2.381   2.666   6.056  0.4089  0.2060 -0.0070
  515poe    c23 6171   2.301   2.753   5.980 -0.0411 -0.1347  0.0675
  515poe    c23 6172   2.154   2.726   6.016 -0.1487  0.4029  0.0401
  515poe     o2 6173   2.147   2.586   6.011 -0.1544  0.3721  0.7995
  515poe    c23 6174   2.025   2.525   6.049  0.1132 -0.5353  0.2523
  515poe    c23 6175   2.069   2.379   6.064  0.2397 -0.5223  0.0250
  515poe     o2 6176   2.194   2.376   6.130  0.3798 -0.1934 -0.2239
  515poe    c23 6177   2.249   2.249   6.104  0.2675 -0.2740 -0.0712
  515poe    c23 6178   2.390   2.244   6.165  0.4282 -0.6339 -0.4626
  515poe     o2 6179   2.445   2.373   6.158 -0.1522 -0.3133  0.5730
  515poe    c31 6180   2.585   2.365   6.178  0.0184 -0.2993 -0.5251
  516poe    c31 6181   5.193   2.280   4.492  0.3457  0.2345 -0.0159
  516poe     o2 6182   5.249   2.256   4.619 -0.0760 -0.1344  0.0999
  516poe    c23 6183   5.138   2.228   4.702 -0.3346  0.7562  0.0641
  516poe    c23 6184   5.188   2.255   4.845  0.3559  1.0022 -0.2222
  516poe     o2 6185   5.310   2.192   4.878 -0.5080 -0.4053  0.3569
  516poe    c23 6186   5.380   2.248   4.987 -0.2316 -0.0644  0.0080
  516poe    c23 6187   5.526   2.206   4.961 -0.4077 -0.3493 -0.5228
  516poe     o2 6188   5.539   2.217   4.821  0.0539 -0.0993 -0.4634
  516poe    c23 6189   5.665   2.175   4.775  0.2242 -1.0551  0.8119
  516poe    c23 6190   5.636   2.088   4.651 -0.2661  0.0715  0.1187
  516poe     o2 6191   5.519   2.138   4.589  0.3636  0.5775 -0.6695
  516poe    c31 6192   5.491   2.051   4.481 -0.5639  0.3455 -0.2512
  517poe    c31 6193   4.630   0.196   2.447  0.1272 -0.3425  0.1608
  517poe     o2 6194   4.674   0.124   2.560  0.2188 -0.5944 -0.0354
  517poe    c23 6195   4.704  -0.009   2.523  0.3555 -0.6562  0.2996
  517poe    c23 6196   4.732  -0.086   2.654  0.4123 -0.6542  0.2886
  517poe     o2 6197   4.820  -0.009   2.733 -0.0467  0.3122 -0.1159
  517poe    c23 6198   4.825  -0.067   2.861  0.0855  0.0509 -0.2383
  517poe    c23 6199   4.867   0.051   2.950  0.4175 -0.2804  0.0517
  517poe     o2 6200   4.780   0.151   2.902 -0.0680 -0.4038  0.6661
  517poe    c23 6201   4.805   0.276   2.963 -0.0841 -0.0316 -0.0713
  517poe    c23 6202   4.729   0.388   2.891  0.2107 -0.0832 -0.4605
  517poe     o2 6203   4.721   0.352   2.755  0.3437 -0.5194 -0.3530
  517poe    c31 6204   4.697   0.470   2.682 -0.6286 -0.3576  0.2101
  518poe    c31 6205   6.403   6.234   1.226 -0.0932  0.0537 -0.2164
  518poe     o2 6206   6.376   6.108   1.169 -0.0523 -0.0855  0.0719
  518poe    c23 6207   6.236   6.086   1.171 -0.0169 -0.3149  0.1482
  518poe    c23 6208   6.196   5.943   1.211  0.0112 -0.3297  0.1232
  518poe     o2 6209   6.291   5.857   1.151 -0.4218 -0.2063 -0.7489
  518poe    c23 6210   6.280   5.719   1.176 -0.5136 -0.1920 -0.7110
  518poe    c23 6211   6.388   5.651   1.090 -0.2255 -0.2052 -0.3380
  518poe     o2 6212   6.508   5.724   1.104 -0.4218  0.0505  0.0492
  518poe    c23 6213   6.563   5.740   0.975 -0.0567 -0.0757  0.1889
  518poe    c23 6214   6.657   5.862   0.971 -0.2338  0.0608  0.2136
  518poe     o2 6215   6.606   5.971   1.046 -0.5515  0.3153 -0.3637
  518poe    c31 6216   6.671   6.089   1.006 -0.5142  0.2651 -0.4504
  519poe    c31 6217   5.619   5.089   6.574 -0.7249  0.4812  0.2208
  519poe     o2 6218   5.605   4.961   6.631 -0.6249  0.2652 -0.2335
  519poe    c23 6219   5.529   4.874   6.551 -0.1384 -0.4570  0.0845
  519poe    c23 6220   5.540   4.738   6.623 -0.2758 -0.4202  0.1772
  519poe     o2 6221   5.540   4.751   6.763  0.3140 -0.3205  0.1705
  519poe    c23 6222   5.560   4.635   6.841 -0.4642 -0.4652  0.1682
  519poe    c23 6223   5.531   4.696   6.980 -0.2831  0.3945 -0.1648
  519poe     o2 6224   5.615   4.809   6.988  0.1380  0.0750  0.0015
  519poe    c23 6225   5.584   4.879   7.107  0.8881 -0.4319  0.4989
  519poe    c23 6226   5.644   5.015   7.067  0.0054 -0.0767  0.3616
  519poe     o2 6227   5.591   5.044   6.939 -0.5569  0.0462  0.6241
  519poe    c31 6228   5.632   5.178   6.926  0.3321 -0.2968 -0.1642
  520poe    c31 6229   0.293   3.476   4.156  0.0889 -0.0776  0.1180
  520poe     o2 6230   0.272   3.364   4.239 -0.4319  0.2308  0.4075
  520poe    c23 6231   0.134   3.337   4.253 -0.2341 -0.9853  0.1213
  520poe    c23 6232   0.129   3.224   4.357 -0.3243 -0.4616  0.6905
  520poe     o2 6233   0.227   3.124   4.339 -0.2935 -0.3194  0.0464
  520poe    c23 6234   0.247   3.039   4.450 -0.3199 -0.1747  0.1629
  520poe    c23 6235   0.373   2.964   4.401 -0.5377 -0.1951 -0.3717
  520poe     o2 6236   0.453   3.068   4.349 -0.0506 -0.3797  0.0052
  520poe    c23 6237   0.565   3.101   4.427 -0.0660 -0.6182  0.1299
  520poe    c23 6238   0.625   3.227   4.360 -0.6527 -0.4690 -0.1146
  520poe     o2 6239   0.526   3.325   4.339  0.4182  0.7574  0.4657
  520poe    c31 6240   0.591   3.450   4.335  1.3837  0.2425 -0.3305
  521poe    c31 6241   1.011   4.306   1.004 -0.3531  0.5569  0.3418
  521poe     o2 6242   1.075   4.393   0.913  0.1952 -0.2405 -0.0491
  521poe    c23 6243   0.990   4.409   0.802 -0.0110  0.1860  0.1677
  521poe    c23 6244   0.992   4.555   0.753  0.2024  0.1184 -0.0265
  521poe     o2 6245   1.131   4.583   0.754  0.1765  0.2380  0.4239
  521poe    c23 6246   1.163   4.715   0.717  0.2348 -0.0161 -0.4592
  521poe    c23 6247   1.291   4.746   0.797  0.0128 -0.7980  0.2122
  521poe     o2 6248   1.270   4.686   0.923 -0.0587 -0.6500  0.2697
  521poe    c23 6249   1.373   4.709   1.016  0.3779 -0.3335 -0.2856
  521poe    c23 6250   1.333   4.643   1.149  0.0078  0.4185 -0.0189
  521poe     o2 6251   1.289   4.512   1.120 -0.7129  0.7100 -0.2542
  521poe    c31 6252   1.250   4.433   1.230  0.2611  0.7135  0.1045
  522poe    c31 6253   1.785   2.087   1.348  0.8805  0.6043 -0.8238
  522poe     o2 6254   1.706   2.202   1.362  0.0614 -0.0401  0.0194
  522poe    c23 6255   1.675   2.243   1.230 -0.0228 -0.3302 -0.0501
  522poe    c23 6256   1.523   2.265   1.211  0.0900  0.1833 -0.3628
  522poe     o2 6257   1.486   2.341   1.323  0.0455 -0.2704 -0.0688
  522poe    c23 6258   1.347   2.351   1.346  0.0200  0.3819 -0.4781
  522poe    c23 6259   1.322   2.384   1.494  0.0542 -0.3054 -0.3137
  522poe     o2 6260   1.414   2.296   1.556  0.0252  0.1158  0.3359
  522poe    c23 6261   1.424   2.331   1.693 -0.1387 -0.0201  0.3835
  522poe    c23 6262   1.543   2.247   1.742  0.3645  0.5009  0.0612
  522poe     o2 6263   1.649   2.257   1.649  0.5133 -0.1534  0.1543
  522poe    c31 6264   1.771   2.201   1.694  0.2289 -0.6183  0.3473
  523poe    c31 6265   2.154   0.506   0.011 -0.2085 -0.4071  0.5158
  523poe     o2 6266   2.072   0.517  -0.103 -0.0322 -0.3596  0.3923
  523poe    c23 6267   2.040   0.654  -0.104 -0.8156 -0.5391  0.0488
  523poe    c23 6268   1.974   0.687  -0.240 -0.0629  0.0909 -0.1691
  523poe     o2 6269   1.891   0.801  -0.234 -0.0368  0.0877  0.3835
  523poe    c23 6270   1.821   0.803  -0.357 -0.1077  0.0214  0.4226
  523poe    c23 6271   1.727   0.925  -0.347  0.0392  0.1855 -0.1980
  523poe     o2 6272   1.791   1.039  -0.295 -0.0215  0.0077  0.2701
  523poe    c23 6273   1.709   1.153  -0.285 -0.1372 -0.0280 -0.2334
  523poe    c23 6274   1.800   1.257  -0.218 -0.0301 -0.4660  0.3112
  523poe     o2 6275   1.864   1.186  -0.115 -0.0224 -0.5051  0.2791
  523poe    c31 6276   1.919   1.273  -0.018  0.6560 -1.2691  0.5900
  524poe    c31 6277   2.842   4.744   6.076  0.0878 -0.1174 -0.5169
  524poe     o2 6278   2.903   4.855   6.015 -0.1007  0.2553 -0.0408
  524poe    c23 6279   3.032   4.874   6.068  0.1917 -0.2882 -0.5470
  524poe    c23 6280   3.098   5.013   6.073  0.3955 -0.4102  0.3648
  524poe     o2 6281   3.145   5.041   5.943  0.4863 -0.7319  0.3280
  524poe    c23 6282   3.229   5.154   5.939  0.0827 -0.4488 -0.1081
  524poe    c23 6283   3.333   5.148   5.826  0.2276 -0.0864  0.0035
  524poe     o2 6284   3.268   5.135   5.701  0.1084  0.0549  0.0505
  524poe    c23 6285   3.358   5.128   5.593  0.3670 -0.1995  0.2776
  524poe    c23 6286   3.283   5.109   5.459 -0.7746 -0.3529  0.9306
  524poe     o2 6287   3.306   4.976   5.420  0.2375  0.0990 -0.0420
  524poe    c31 6288   3.239   4.923   5.308  0.2669  0.8358 -0.4097
  525poe    c31 6289   3.883   5.025   3.706 -0.2807  0.1833  0.2795
  525poe     o2 6290   3.871   4.900   3.641  0.1404  0.2440  0.0782
  525poe    c23 6291   3.975   4.813   3.679 -0.1863  0.0131  0.4671
  525poe    c23 6292   4.009   4.725   3.557  0.0590  0.2294  0.3777
  525poe     o2 6293   3.881   4.674   3.529  0.3484 -0.1314 -0.3216
  525poe    c23 6294   3.872   4.649   3.391  0.2032  0.2677 -0.3868
  525poe    c23 6295   3.723   4.657   3.354  0.1709 -0.1010 -0.3407
  525poe     o2 6296   3.676   4.776   3.412  0.5170 -0.1798  0.1080
  525poe    c23 6297   3.536   4.789   3.395  0.5829 -0.2897 -0.5317
  525poe    c23 6298   3.500   4.900   3.495 -0.0359 -0.6127 -0.3964
  525poe     o2 6299   3.553   4.862   3.621  0.2022 -0.0783 -0.3360
  525poe    c31 6300   3.522   4.951   3.726  0.9337 -0.5061  0.2450
  526poe    c31 6301   2.488   6.030   0.650  0.2747  0.1079 -0.1568
  526poe     o2 6302   2.515   5.935   0.750 -0.1764 -0.4757 -0.5873
  526poe    c23 6303   2.397   5.860   0.770 -0.8949  0.8321  0.2010
  526poe    c23 6304   2.431   5.743   0.865 -0.7745  0.6690 -0.0404
  526poe     o2 6305   2.520   5.793   0.962  0.6551 -0.2719 -0.8412
  526poe    c23 6306   2.600   5.690   1.014  0.4503 -0.0120  0.0007
  526poe    c23 6307   2.718   5.756   1.088  0.3616  0.1330  0.0123
  526poe     o2 6308   2.753   5.869   1.012 -0.1635 -0.0081 -0.4460
  526poe    c23 6309   2.792   5.973   1.099  0.4705 -0.3933 -0.2651
  526poe    c23 6310   2.845   6.079   1.000 -0.3034 -0.0383 -0.3081
  526poe     o2 6311   2.754   6.087   0.893 -0.0134 -0.1777 -0.5698
  526poe    c31 6312   2.789   6.196   0.811 -0.3336  0.2423 -0.1514
  527poe    c31 6313   0.688   1.404   3.432  0.2282  0.2153 -0.0824
  527poe     o2 6314   0.710   1.361   3.564  0.3835 -0.2628 -0.2615
  527poe    c23 6315   0.699   1.220   3.561 -0.0697 -0.2251 -0.3508
  527poe    c23 6316   0.752   1.140   3.681 -1.4191 -0.0529  0.3780
  527poe     o2 6317   0.696   1.199   3.797 -0.5563  0.1752  0.6847
  527poe    c23 6318   0.794   1.237   3.890  0.3225 -0.5730  0.0921
  527poe    c23 6319   0.744   1.365   3.961  0.0150 -0.2991 -0.6126
  527poe     o2 6320   0.748   1.455   3.852  0.0146  0.3823 -0.0520
  527poe    c23 6321   0.755   1.589   3.895  0.1236  0.3557  0.0145
  527poe    c23 6322   0.686   1.681   3.793 -0.4955  0.1452  0.2381
  527poe     o2 6323   0.595   1.613   3.709  0.3728 -0.0968 -0.5188
  527poe    c31 6324   0.547   1.690   3.601  0.5495  0.5557 -0.1349
  528poe    c31 6325   4.243   5.122   6.171  0.1391  0.6041 -0.1134
  528poe     o2 6326   4.270   5.073   6.042  0.4270  0.0490  0.1588
  528poe    c23 6327   4.404   5.105   6.013  0.3481 -0.0203 -0.2914
  528poe    c23 6328   4.426   5.088   5.861  0.0334  0.1464 -0.3547
  528poe     o2 6329   4.300   5.108   5.799 -0.0974 -0.1151 -0.1772
  528poe    c23 6330   4.294   5.092   5.659  0.3851 -0.3727 -0.1720
  528poe    c23 6331   4.148   5.046   5.640  0.2835 -0.2235  0.2383
  528poe     o2 6332   4.109   4.980   5.758 -0.1312 -0.2273  0.0991
  528poe    c23 6333   3.981   4.922   5.745 -0.1236 -0.1105 -0.5052
  528poe    c23 6334   3.959   4.866   5.887 -0.0506  0.2522 -0.3514
  528poe     o2 6335   4.011   4.962   5.977  0.5147 -0.2594 -0.1249
  528poe    c31 6336   3.953   4.928   6.102  0.5476  0.1320 -0.0029
  529poe    c31 6337   0.255   3.663   1.753 -0.6898 -1.0093 -0.1374
  529poe     o2 6338   0.195   3.626   1.875 -0.1833 -0.2439  0.3557
  529poe    c23 6339   0.186   3.746   1.949  0.2525 -0.0478  0.0965
  529poe    c23 6340   0.148   3.701   2.091  0.0220  0.1086  0.0847
  529poe     o2 6341   0.066   3.586   2.096  0.0210  0.1187  0.2916
  529poe    c23 6342   0.107   3.500   2.200 -0.0307 -0.2165  0.0364
  529poe    c23 6343   0.063   3.359   2.155 -0.2416  0.0446 -0.5792
  529poe     o2 6344   0.087   3.351   2.017  0.0474  0.2658 -0.5433
  529poe    c23 6345   0.035   3.233   1.959 -0.2049 -0.1119  0.4361
  529poe    c23 6346   0.078   3.246   1.812 -0.4862  0.0988  0.3694
  529poe     o2 6347   0.085   3.382   1.776 -0.5382 -0.0277 -0.1220
  529poe    c31 6348   0.083   3.386   1.635 -0.0560  0.4446 -0.1158
  530poe    c31 6349   0.023   5.807   3.146 -0.4583 -0.2621  0.4764
  530poe     o2 6350  -0.073   5.859   3.235 -0.1911  0.6641  0.2409
  530poe    c23 6351  -0.046   5.845   3.373  0.4802  0.1422  0.0631
  530poe    c23 6352  -0.120   5.959   3.445  0.3023 -0.1278  0.3099
  530poe     o2 6353  -0.256   5.927   3.424  0.3183 -0.0323  0.0555
  530poe    c23 6354  -0.347   6.032   3.442 -0.2478 -0.4427 -0.3935
  530poe    c23 6355  -0.364   6.114   3.312 -0.4397  0.1953  0.0267
  530poe     o2 6356  -0.314   6.039   3.204 -0.0391 -0.0420  0.3743
  530poe    c23 6357  -0.309   6.120   3.089 -0.2165 -0.5301  0.0187
  530poe    c23 6358  -0.310   6.030   2.964 -0.8315 -0.2817 -0.1583
  530poe     o2 6359  -0.261   5.912   3.023 -0.4908 -0.2451 -0.3645
  530poe    c31 6360  -0.281   5.819   2.919 -0.1892 -0.4063 -0.2807
  531poe    c31 6361   3.538   5.420   1.094  0.3187  0.5116  0.2018
  531poe     o2 6362   3.576   5.522   1.005  0.1056  0.3444 -0.0824
  531poe    c23 6363   3.711   5.555   1.031  0.1712 -0.0356  0.0604
  531poe    c23 6364   3.760   5.688   0.971  0.1885  0.0278  0.2149
  531poe     o2 6365   3.704   5.699   0.842  0.3717 -0.2036  0.1147
  531poe    c23 6366   3.685   5.836   0.816 -0.2295 -0.3235 -0.0964
  531poe    c23 6367   3.550   5.850   0.744 -0.1693 -0.3265 -0.2098
  531poe     o2 6368   3.470   5.760   0.817 -0.0251  0.1859  0.5844
  531poe    c23 6369   3.339   5.756   0.765  0.3751 -0.1062 -0.4117
  531poe    c23 6370   3.251   5.657   0.843  0.3180  0.2147 -0.0660
  531poe     o2 6371   3.336   5.548   0.869  0.2868  0.1125 -0.3836
  531poe    c31 6372   3.251   5.435   0.876  0.3434  0.0886 -0.0700
  532poe    c31 6373   6.522   0.113   1.519 -0.5827  0.1589  0.2611
  532poe     o2 6374   6.574   0.118   1.650 -0.3699  0.2210  0.1755
  532poe    c23 6375   6.687   0.034   1.654 -0.5689 -0.0497  0.1259
  532poe    c23 6376   6.687  -0.060   1.776 -0.5371 -0.6019 -0.2928
  532poe     o2 6377   6.691   0.028   1.887 -0.0822 -0.4835 -0.4026
  532poe    c23 6378   6.636  -0.029   2.003 -0.4820 -0.1554 -0.4259
  532poe    c23 6379   6.564   0.086   2.076  0.4547  0.1947 -0.0289
  532poe     o2 6380   6.505   0.162   1.973  0.3440  0.1346 -0.0108
  532poe    c23 6381   6.440   0.278   2.020 -0.1398  0.0117 -0.3781
  532poe    c23 6382   6.338   0.312   1.909 -0.3358  0.9462  0.0800
  532poe     o2 6383   6.403   0.317   1.785 -0.0413 -0.0886  0.1867
  532poe    c31 6384   6.313   0.356   1.683 -0.2693  0.1855  0.4942
  533poe    c31 6385   3.833   3.382   6.246  0.2574 -0.0115  0.4816
  533poe     o2 6386   3.885   3.294   6.148 -0.0740 -0.1939  0.4683
  533poe    c23 6387   3.938   3.372   6.043  0.2044  0.0053  0.7546
  533poe    c23 6388   4.039   3.284   5.968 -0.0628 -0.1071  0.5240
  533poe     o2 6389   3.988   3.152   5.966 -0.3548  0.0061  0.5188
  533poe    c23 6390   4.079   3.052   5.927 -0.6166 -0.0404  0.0195
  533poe    c23 6391   3.988   2.927   5.936 -0.4327 -0.1752  0.0207
  533poe     o2 6392   3.910   2.957   6.049 -0.0139 -0.1517  0.3039
  533poe    c23 6393   3.787   2.890   6.063 -0.1714  0.1358  0.3058
  533poe    c23 6394   3.739   2.912   6.207 -0.4272  0.1547  0.2190
  533poe     o2 6395   3.761   3.046   6.244 -0.3213  0.3118 -0.4029
  533poe    c31 6396   3.732   3.064   6.381  0.2442 -0.5562 -0.1610
  534poe    c31 6397   4.309   0.115   1.180  0.0347  0.0672 -0.2915
  534poe     o2 6398   4.327   0.123   1.040  0.2936 -0.0805 -0.2684
  534poe    c23 6399   4.368   0.257   1.025  0.3130 -0.0726 -0.1476
  534poe    c23 6400   4.407   0.274   0.877 -0.0705  0.3996 -0.1980
  534poe     o2 6401   4.291   0.223   0.815  0.0007  0.6673 -0.5557
  534poe    c23 6402   4.302   0.227   0.674  0.3700  0.3783 -0.5370
  534poe    c23 6403   4.250   0.090   0.626  0.4087  0.0972  0.1983
  534poe     o2 6404   4.293  -0.015   0.710  0.3202  0.0340  0.1648
  534poe    c23 6405   4.211  -0.129   0.701  0.5785 -0.1870  0.6160
  534poe    c23 6406   4.243  -0.215   0.825  0.5564 -0.0083  0.7460
  534poe     o2 6407   4.228  -0.130   0.936 -0.2489 -0.1730  0.7658
  534poe    c31 6408   4.245  -0.219   1.044  0.5797 -0.0034  0.7766
  535poe    c31 6409   1.812   3.478   4.125  0.0956  0.1909  0.1363
  535poe     o2 6410   1.761   3.359   4.071 -0.2932  0.3381  0.1775
  535poe    c23 6411   1.659   3.310   4.155  0.1760 -0.1303  0.4840
  535poe    c23 6412   1.581   3.204   4.074  0.2312  0.3904 -0.2606
  535poe     o2 6413   1.686   3.140   4.006 -0.0101 -0.2871 -0.0103
  535poe    c23 6414   1.648   3.027   3.931 -0.5332  0.2311 -0.5303
  535poe    c23 6415   1.771   2.964   3.865 -0.1196  0.2364  0.2328
  535poe     o2 6416   1.841   3.076   3.817  0.0546  0.1027  0.1712
  535poe    c23 6417   1.979   3.059   3.844  0.1535  0.0103 -0.3856
  535poe    c23 6418   2.038   3.199   3.825  0.1404  0.0809  0.0682
  535poe     o2 6419   1.967   3.296   3.898 -0.1634  0.0970 -0.2437
  535poe    c31 6420   1.999   3.423   3.845  0.3979  0.2173  0.3779
  536poe    c31 6421   5.559   0.138   2.583  0.4485  0.0024  0.3888
  536poe     o2 6422   5.508   0.261   2.629  0.1632  0.2137 -0.4798
  536poe    c23 6423   5.533   0.363   2.535  1.0436  0.0707 -0.4050
  536poe    c23 6424   5.500   0.490   2.616 -0.3792 -0.2406 -0.4659
  536poe     o2 6425   5.394   0.457   2.702 -0.1385  0.7403  0.2210
  536poe    c23 6426   5.360   0.568   2.783  0.1865  0.6513  0.4806
  536poe    c23 6427   5.258   0.519   2.887 -0.0194 -0.5545 -0.2721
  536poe     o2 6428   5.315   0.397   2.929  0.3434 -0.1980  0.2710
  536poe    c23 6429   5.217   0.314   2.988 -0.3040  0.0155 -0.4923
  536poe    c23 6430   5.288   0.177   2.998 -0.1146  0.1482 -0.0069
  536poe     o2 6431   5.351   0.143   2.877 -0.2094 -0.0015 -0.0137
  536poe    c31 6432   5.363   0.002   2.874  0.5029  0.0460  0.5140
  537poe    c31 6433   4.960   3.151   1.634  0.1839  0.3024 -0.0083
  537poe     o2 6434   4.984   3.033   1.560 -0.9647 -0.4146  0.7125
  537poe    c23 6435   4.882   3.013   1.465 -0.6672  0.3078  0.2327
  537poe    c23 6436   4.936   2.921   1.355  0.6776  0.9628  0.3225
  537poe     o2 6437   5.020   2.824   1.414  0.1431  0.1669 -0.1970
  537poe    c23 6438   5.088   2.769   1.303 -0.1254 -0.2570 -0.1547
  537poe    c23 6439   5.220   2.720   1.366  0.0596  0.3114 -0.0891
  537poe     o2 6440   5.255   2.830   1.447  0.2607  0.2481 -0.0898
  537poe    c23 6441   5.371   2.813   1.525 -0.2902 -0.2914  0.6260
  537poe    c23 6442   5.392   2.936   1.616 -0.2200 -0.0718  0.3157
  537poe     o2 6443   5.271   2.958   1.685 -0.2827  0.2774  0.0913
  537poe    c31 6444   5.295   3.056   1.784 -0.6137  0.4936 -0.0416
  538poe    c31 6445   0.686   0.092   4.317  0.8866 -0.2344  0.8556
  538poe     o2 6446   0.744   0.038   4.201 -0.2669  0.2156  0.0468
  538poe    c23 6447   0.873   0.095   4.200 -0.1590 -0.0354 -0.1347
  538poe    c23 6448   0.954   0.014   4.095 -0.5112 -0.1391 -0.3275
  538poe     o2 6449   0.868  -0.013   3.987  0.1772 -0.5822 -0.7647
  538poe    c23 6450   0.909  -0.123   3.908  0.0503 -1.0203 -0.2277
  538poe    c23 6451   0.785  -0.154   3.821 -0.3846  0.2327 -0.0721
  538poe     o2 6452   0.695  -0.185   3.925 -0.0222  0.1548  0.2220
  538poe    c23 6453   0.568  -0.211   3.869  0.0463  0.2269  0.0315
  538poe    c23 6454   0.461  -0.202   3.980  0.0524  0.3373  0.0283
  538poe     o2 6455   0.499  -0.096   4.065  0.0255  0.0141  0.4418
  538poe    c31 6456   0.380  -0.038   4.113 -0.4437 -0.0093 -0.6706
  539poe    c31 6457   0.211   0.669   6.666  0.1702 -0.0699 -0.3452
  539poe     o2 6458   0.119   0.658   6.559 -0.1001  0.4872 -0.1745
  539poe    c23 6459   0.108   0.525   6.512  0.1383  0.4347 -0.0863
  539poe    c23 6460   0.030   0.547   6.381 -0.4199  0.7082  0.2895
  539poe     o2 6461  -0.090   0.612   6.417 -0.4316  0.5186  0.5912
  539poe    c23 6462  -0.170   0.618   6.301  0.1034  0.8169  0.2341
  539poe    c23 6463  -0.278   0.718   6.347 -0.5274  0.1416  0.2313
  539poe     o2 6464  -0.187   0.813   6.395  0.2482 -0.2633 -0.4147
  539poe    c23 6465  -0.243   0.913   6.477  0.4736 -0.5447  0.0866
  539poe    c23 6466  -0.127   0.994   6.538  0.2177  0.0264 -0.1756
  539poe     o2 6467  -0.043   0.912   6.616  0.2850  0.3441  0.0863
  539poe    c31 6468   0.042   0.981   6.705  0.9042  0.0699 -0.2881
  540poe    c31 6469   3.202   6.538   3.034  0.3738 -0.2254 -0.5009
  540poe     o2 6470   3.203   6.628   2.926  0.6715 -0.4964 -0.7258
  540poe    c23 6471   3.142   6.581   2.808 -0.4864 -0.2016 -0.2565
  540poe    c23 6472   3.137   6.682   2.692  0.0195  0.1309  0.0071
  540poe     o2 6473   3.124   6.806   2.759  0.9171  0.0865  0.2743
  540poe    c23 6474   3.097   6.921   2.682 -0.3599 -0.4534 -0.1165
  540poe    c23 6475   3.068   7.033   2.783  0.2510 -0.3377 -0.0629
  540poe     o2 6476   3.169   7.017   2.881 -0.3090 -0.2744  0.5335
  540poe    c23 6477   3.142   7.088   3.000 -0.3299 -0.0528  0.3974
  540poe    c23 6478   3.250   7.023   3.088 -0.4695 -0.1689  0.4849
  540poe     o2 6479   3.237   6.883   3.083  0.1127 -0.2099  0.0143
  540poe    c31 6480   3.284   6.845   3.210 -0.2604 -0.1851  0.1616
  541lim     li 6481   0.569   4.660   4.596  0.7646  0.5644 -0.7234
  542lim     li 6482   0.727   3.856   3.093 -1.0023 -0.8467 -1.4491
  543lim     li 6483   0.515   1.614   5.375  1.0022  0.2134  0.6995
  544lim     li 6484   3.793   1.495   1.015 -0.8259 -0.0130 -0.3332
  545lim     li 6485   2.566   5.690   5.111  0.3943  0.4351 -0.1643
  546lim     li 6486   5.366   4.083   3.084  0.6088 -0.3299 -1.1512
  547lim     li 6487   0.763   1.883   2.588 -0.6857  0.1706 -0.7173
  548lim     li 6488   0.645   4.637   3.992 -0.7108  0.9415 -0.5509
  549lim     li 6489   2.846   3.757   6.561 -0.3621 -0.5018 -0.5205
  550lim     li 6490   2.098   5.377   2.562 -0.4452 -0.2508 -0.5002
  551lim     li 6491   5.206   0.222   5.308  0.8885 -0.3831 -0.0421
  552lim     li 6492   1.021   6.238   0.120  0.0437 -1.4081  0.5780
  553lim     li 6493   0.124   5.242   3.110 -0.0182  0.0707  0.5191
  554lim     li 6494   1.370   2.303   2.853 -0.5642 -0.6831 -0.5819
  555lim     li 6495   1.529   3.728   2.550 -0.5041 -0.4314 -0.4920
  556lim     li 6496   4.724   6.018   1.080  1.5302  0.3011 -0.2982
  557lim     li 6497   5.581   6.338   1.418 -0.2270 -0.1217 -1.5299
  558lim     li 6498   1.941   5.189   5.118  0.9544  0.5507  0.2320
  559lim     li 6499   5.227   4.717   2.687 -0.5945  0.3873 -0.4381
  560lim     li 6500   0.567   4.537   0.244  1.0501 -0.2335 -0.9020
  561lim     li 6501   5.073   1.853   5.781  0.1846  0.6109 -0.0083
  562lim     li 6502   6.437   0.689   5.092  0.1243 -0.0478 -0.2773
  563lim     li 6503   0.901   2.277   5.517 -0.8762 -0.1686  0.4076
  564lim     li 6504   2.267   4.621   2.455  0.5429  0.8411  0.5140
  565lim     li 6505   5.919   5.704   4.651  0.1767  0.9305  0.2323
  566lim     li 6506   3.738   4.361   2.644  0.2314 -1.6672  0.0288
  567lim     li 6507   0.372   3.203   4.265  0.3795 -0.0722  0.4264
  568lim     li 6508   3.704   2.924   2.227 -0.9986 -0.7103 -1.1893
  569lim     li 6509   4.740   1.846   6.273 -0.0323 -0.6794 -0.5351
  570lim     li 6510   1.021   3.398   5.543 -0.4342 -0.1548  0.2594
  571lim     li 6511   5.196   4.875   3.447 -0.2922  0.8912 -0.9409
  572lim     li 6512   0.880   2.182   6.421  0.1834  0.5720  0.2724
  573lim     li 6513   4.789   3.630   4.902  0.1903  0.3222 -1.1608
  574lim     li 6514   4.672   5.816   1.894  0.4215  0.2357 -0.4500
  575lim     li 6515   2.710   2.091   5.714 -0.2718 -1.2537 -0.4235
  576lim     li 6516   3.724   4.611   0.495  0.2325  1.3563  0.8208
  577lim     li 6517   6.049   1.734   1.442 -0.5382  0.7164 -0.4294
  578lim     li 6518   2.033   0.156   3.998  1.2527 -0.2624  0.5092
  579lim     li 6519   2.824   4.440   2.575 -0.2026 -0.3354 -0.7172
  580lim     li 6520   0.716   2.858   3.805  0.8713 -0.4547  1.3064
  581lim     li 6521   4.653   0.313   4.576  1.8299  0.0285 -0.1839
  582lim     li 6522   5.215   0.443   4.378 -0.9411 -0.2473 -0.7961
  583lim     li 6523   5.594   4.013   6.432  0.8052  0.7230  0.3576
  584lim     li 6524   0.464   6.312   1.262 -0.8571  0.6526 -1.7494
  585lim     li 6525   5.019   0.483   0.916 -0.3905 -0.2440  0.8736
  586lim     li 6526   1.198   4.531   0.937 -0.3145  0.8510 -0.5781
  587lim     li 6527   3.351   3.235   3.793 -0.6058  0.2034  0.8472
  588lim     li 6528   1.916   5.812   0.975  0.1104 -0.9260  0.7035
  589lim     li 6529   4.840   1.216   1.169 -0.0916 -0.1706 -0.2495
  590lim     li 6530   3.622   2.403   4.449 -1.0697  0.9824 -0.1989
  591lim     li 6531   3.578   0.190   5.711 -0.1673 -0.0656 -0.6283
  592lim     li 6532   3.644   1.622   5.097  0.8124  1.1230  0.2726
  593lim     li 6533   2.372   2.626   0.718  0.9681  1.1243 -0.2525
  594lim     li 6534   5.385   3.880   4.429 -0.1776  0.1450  0.2831
  595lim     li 6535   3.659   0.480   0.203  0.2421  0.5043 -0.5232
  596lim     li 6536   1.540   2.855   5.689  0.0515 -0.1684  0.9267
  597lim     li 6537   1.273   6.162   1.169  0.2809 -0.8953  0.3411
  598lim     li 6538   1.219   0.668   3.983  1.3372 -0.1613  0.8431
  599lim     li 6539   2.305   3.972   0.520 -0.2146 -0.6652  0.4387
  600lim     li 6540   5.343   3.364   0.285 -0.1386  1.0890 -0.1498
  601lim     li 6541   4.681   4.329   3.209 -0.3541 -0.8820 -0.8800
  602lim     li 6542   6.590   6.544   6.358  0.5287  0.3362  0.6320
  603lim     li 6543   0.064   3.498   1.923  0.1966  0.0908  0.1014
  604lim     li 6544   4.020   5.471   0.597  0.0775 -0.1562 -0.4717
  605lim     li 6545   6.277   2.967   3.463 -0.1045  0.5110  0.6578
  606lim     li 6546   3.509   0.501   2.155  0.9077 -1.2617 -1.0241
  607lim     li 6547   3.577   5.796   2.259 -0.0993  0.2344 -1.2346
  608lim     li 6548   0.562   5.456   4.719 -0.3382 -1.7738  0.6313
  609lim     li 6549   4.860   6.585   1.909 -0.8090  0.4901 -0.1291
  610lim     li 6550   2.338   2.372   3.397 -0.4400  0.0121  0.0567
  611lim     li 6551   3.766   1.895   5.947  0.3697 -0.4431 -1.3148
  612lim     li 6552   4.215   2.360   1.316 -0.2537 -0.0650 -0.4159
  613lim     li 6553   2.697   1.625   1.301 -0.0692 -0.4311  1.4847
  614lim     li 6554   1.095   0.186   3.233  0.5410  0.4150 -0.6331
  615lim     li 6555   6.512   1.811   4.904  0.1602  0.4225  0.7833
  616lim     li 6556   3.528   4.894   1.390 -0.4127  0.0856 -0.4932
  617lim     li 6557   5.461   1.647   0.388 -0.0877  0.5616  0.4716
  618lim     li 6558   6.271   6.626   0.708 -0.8981  0.1264 -0.2754
  619lim     li 6559   5.771   3.878   1.795 -0.2830  0.7520  0.1342
  620lim     li 6560   3.733   4.780   3.603  0.5933 -0.5095  0.4188
  621lim     li 6561   3.940   1.281   6.424  0.6084 -0.3396  0.0972
  622lim     li 6562   1.993   0.715   3.400  0.3411  0.3136 -0.0775
  623lim     li 6563   0.987   1.581   4.595 -0.4400 -0.8520 -0.0131
  624lim     li 6564   5.874   4.713   0.884 -1.0393 -0.5710  0.1963
  625lim     li 6565   2.757   4.993   0.929  0.2585  0.1985  0.2694
  626lim     li 6566   4.194   2.458   6.283 -0.2190 -0.7787  0.1011
  627lim     li 6567   1.022   1.238   1.317 -0.2500  0.1862  1.2146
  628lim     li 6568   4.004   0.975   0.698  0.9328 -0.4110  0.1335
  629lim     li 6569   5.818   4.465   4.700 -0.2771 -0.2839 -0.9902
  630lim     li 6570   1.968   4.293   3.738  0.5882  0.1261  0.3213
  631lim     li 6571   4.178   5.988   4.654 -0.0961 -1.3540 -0.6673
  632lim     li 6572   3.421   1.378   2.526 -1.2632  0.5184  0.1585
  633lim     li 6573   0.681   1.848   1.706 -0.0513 -0.1239 -0.5491
  634lim     li 6574   1.082   5.440   1.495 -0.9563  1.3891  0.6259
  635lim     li 6575   2.768   0.811   1.758  0.2091 -0.3478  0.4357
  636lim     li 6576   1.384   0.446   1.447 -0.5154  0.2628 -0.0481
  637lim     li 6577   3.776   4.323   1.303  0.6193 -0.4929  0.0879
  638lim     li 6578   2.645   3.165   2.034  0.4284  0.3625 -0.2325
  639lim     li 6579   3.804   2.183   2.959 -0.3114 -0.8993 -0.4238
  640lim     li 6580   3.157   1.460   6.598  0.3607  0.6259  0.5481
  641lim     li 6581   1.360   3.158   3.268  0.4982 -0.4002 -0.5521
  642lim     li 6582   6.249   5.617   6.355 -0.4739  0.7883  0.3139
  643lim     li 6583   4.694   6.131   4.333  0.5699  1.2373 -0.7534
  644lim     li 6584   1.902   0.986   6.515 -0.2103  0.0146 -0.3388
  645lim     li 6585   1.390   5.170   4.875 -0.0210 -1.1135 -0.6258
  646lim     li 6586   3.863   2.097   3.667 -0.5878 -0.3104 -1.5759
  647lim     li 6587   4.831   1.242   0.358  0.4731  0.0597 -0.8486
  648lim     li 6588   1.676   1.583   1.803  1.2767 -0.0574  0.0312
  649lim     li 6589   1.937   4.760   0.862 -0.1951  0.3197 -1.0214
  650lim     li 6590   0.346   3.947   0.640  0.6014 -0.1948 -0.1661
  651lim     li 6591   0.358   0.424   2.013 -0.5614  0.2570  0.3198
  652lim     li 6592   0.888   0.464   0.245  0.0061  0.2385 -0.4910
  653lim     li 6593   5.180   2.685   3.741 -0.2140  0.1277 -0.3464
  654lim     li 6594   6.611   4.154   2.510  0.4592  0.6873 -0.1056
  655lim     li 6595   2.898   3.227   5.673  0.0644  0.3989  0.1809
  656lim     li 6596   3.937   0.416   1.451  0.1944  0.2344  1.3845
  657lim     li 6597   1.591   6.035   2.991 -0.3952  0.1230 -0.3124
  658lim     li 6598   4.780   2.699   4.512 -0.0394  1.1747  0.5473
  659lim     li 6599   6.434   6.173   4.620 -0.3128  1.1867 -0.5963
  660lim     li 6600   1.340   6.413   5.700  0.7400  0.7289  0.2602
  661lim     li 6601   0.141   2.538   2.281  0.9675 -0.6100  0.3312
  662lim     li 6602   5.114   2.899   1.559 -0.6245  0.4424  0.3697
  663lim     li 6603   5.057   0.835   3.505 -0.6076 -0.0374 -0.6465
  664lim     li 6604   6.286   5.317   4.790 -0.1307 -0.8519  0.5423
  665lim     li 6605   4.588   5.912   2.871  0.4152 -1.2646 -0.2588
  666lim     li 6606   6.013   2.441   4.145  0.9423  0.3142  0.5479
  667lim     li 6607   4.145   5.064   5.906 -0.3433 -1.0086 -0.0065
  668lim     li 6608   4.676   5.713   6.000  0.5519 -0.4538  0.2143
  669lim     li 6609   4.959   3.670   1.943  0.7274  0.8325  0.4292
  670lim     li 6610   0.139   5.203   2.207  0.8467  0.6329 -0.3936
  671lim     li 6611   1.694   2.060   5.546 -0.0120  0.0472 -0.0575
  672lim     li 6612   4.504   6.221   0.307  0.5292 -0.9419 -1.0695
  673lim     li 6613   5.050   4.548   1.167  1.1700 -0.6624 -0.6061
  674lim     li 6614   5.647   3.364   3.750  0.4919  0.2956  0.1027
  675lim     li 6615   4.046   5.238   2.544  0.7535  0.4785 -0.2298
  676lim     li 6616   3.948   0.365   4.750  1.1018  1.0585 -0.9671
  677lim     li 6617   0.245   2.470   6.604  1.5173  0.5843  0.1193
  678lim     li 6618   4.940   6.466   5.942  0.3808  0.3802  0.8374
  679lim     li 6619   0.440   3.263   2.724  0.1838 -0.1653 -0.0038
  680lim     li 6620   2.962   2.005   2.750  0.2568  0.5791  0.9806
  681lim     li 6621   1.059   3.375   0.495 -0.9011  0.0578  0.2291
  682lim     li 6622   3.724   3.597   1.092  0.2317  0.0038 -0.2570
  683lim     li 6623   3.227   2.635   5.851  1.0864 -0.2010 -0.3939
  684lim     li 6624   1.988   4.149   6.412 -0.2983 -0.0799 -0.5324
  685lim     li 6625   1.358   4.976   6.228  1.1777  0.3689  0.2577
  686lim     li 6626   1.522   2.383   0.131 -0.0990  0.0905 -0.0360
  687lim     li 6627   4.271   3.735   5.517 -0.1460 -0.8264 -0.6737
  688lim     li 6628   3.894   5.740   6.475  0.2384 -1.1279 -1.5675
  689lim     li 6629   2.126   3.096   5.092  0.7221 -1.6091  0.0771
  690lim     li 6630   0.208   2.388   4.263  0.4312  1.0301  1.2308
  691lim     li 6631   3.202   0.149   2.913 -0.0113 -0.2380 -1.3188
  692lim     li 6632   5.117   3.550   5.732  0.5806  0.0074 -0.8372
  693lim     li 6633   3.488   6.179   0.151  0.7584  0.2230  0.8342
  694lim     li 6634   0.682   4.742   1.739 -0.4326 -0.4044 -0.0651
  695lim     li 6635   1.362   4.490   1.883 -0.9600 -0.3323  1.2883
  696lim     li 6636   0.785   6.599   6.089  0.0098 -0.4812  1.1110
  697lim     li 6637   4.742   3.386   0.935 -1.0391  0.0882 -0.0245
  698lim     li 6638   1.275   1.553   5.907  0.2042  0.5432  0.1361
  699lim     li 6639   4.607   1.817   3.910 -0.6349 -0.6702  0.9099
  700lim     li 6640   4.680   3.168   6.045  0.7204 -0.7301 -0.2558
  701lim     li 6641   2.649   2.861   4.138 -0.0446  0.1249  0.3050
  702lim     li 6642   2.676   5.952   2.773 -1.2753  1.0337 -0.5480
  703lim     li 6643   2.129   5.776   6.047 -0.7702 -0.3008 -1.1753
  704lim     li 6644   5.096   2.698   6.534  0.6516  0.5206 -0.6434
  705lim     li 6645   0.926   0.470   2.244 -0.7134 -1.0053  0.2685
  706lim     li 6646   0.143   5.777   0.300 -0.4713  0.2359 -0.4310
  707lim     li 6647   4.465   4.421   2.457 -0.0306 -0.4678  0.4635
  708lim     li 6648   3.155   1.380   5.812  0.2243  0.8483  0.2158
  709lim     li 6649   1.273   3.863   3.970 -0.5180  0.4299  0.5441
  710lim     li 6650   6.541   3.687   3.704  0.6910 -0.0684 -0.8598
  711lim     li 6651   6.012   0.110   3.615 -0.9721 -0.5155  0.3666
  712lim     li 6652   3.007   3.638   2.662  0.4756  0.3275 -0.2424
  713lim     li 6653   4.783   0.176   2.717  0.7059 -1.3019  0.8555
  714lim     li 6654   1.456   3.042   0.801  1.0135  0.1517  0.6299
  715lim     li 6655   0.208   1.037   0.556 -0.1034 -0.2981 -0.8906
  716lim     li 6656   1.762   1.951   4.724 -1.1401  0.0764 -0.8273
  717lim     li 6657   0.121   5.743   3.956  0.3553  0.5298 -0.0008
  718lim     li 6658   0.905   4.581   5.371 -0.4006 -0.8585  1.0308
  719lim     li 6659   5.350   3.410   2.652 -0.3763 -0.2591 -0.9822
  720lim     li 6660   5.163   1.232   2.586 -0.2610  0.3631  0.2480
  721lim     li 6661   5.815   4.054   0.740  1.0106  0.7482 -0.0293
  722lim     li 6662   1.305   1.462   0.050  0.4637  0.6687  0.8030
  723lim     li 6663   4.501   1.408   3.175 -0.6610 -0.2470  1.1698
  724lim     li 6664   6.373   4.477   2.011  0.4906 -1.4185  0.0149
  725lim     li 6665   2.321   2.502   6.140 -0.0242  0.5848  0.1776
  726lim     li 6666   6.188   2.356   0.605 -0.6031  0.2087 -0.3032
  727lim     li 6667   4.112   2.048   4.413  0.3896 -0.6261  0.6442
  728lim     li 6668   6.168   0.829   2.543  0.6156 -0.0394  0.7227
  729lim     li 6669   1.853   5.846   1.930  0.6858  0.2672 -0.5851
  730lim     li 6670   2.345   4.258   4.277 -0.0478  1.0460 -0.7808
  731lim     li 6671   5.979   4.429   2.992  0.5296  0.2801 -0.3096
  732lim     li 6672   1.064   5.554   5.763 -0.3142 -0.3119  1.3020
  733lim     li 6673   6.640   5.830   1.711  0.2856  0.0559  0.0170
  734lim     li 6674   3.928   3.000   5.285  0.4443  1.3436 -0.3034
  735lim     li 6675   2.170   3.784   3.090 -0.2764 -0.7139 -0.2147
  736lim     li 6676   1.932   2.440   4.061  0.4532  0.3350 -1.0184
  737lim     li 6677   5.394   6.102   2.537  0.1110  0.4462  0.2305
  738lim     li 6678   2.748   0.958   3.793 -0.3068 -1.0414 -0.8955
  739lim     li 6679   6.227   2.967   4.381  0.0817 -0.2133  0.3344
  740lim     li 6680   0.433   5.060   1.055  0.9231  0.7978 -0.5847
  741lim     li 6681   1.183   5.332   0.715 -0.3159  0.7131 -0.5521
  742lim     li 6682   4.841   5.232   0.492  0.4166 -0.3525  0.3052
  743lim     li 6683   0.762   6.316   0.700 -0.7316 -1.4329  0.4027
  744lim     li 6684   2.047   1.670   3.287 -0.4513  0.2997  0.0115
  745lim     li 6685   5.439   1.901   3.899 -0.0242 -0.1310  0.2052
  746lim     li 6686   0.001   2.165   5.837  0.6301  0.4543 -0.0206
  747lim     li 6687   2.015   0.181   1.882 -0.0158  1.2123 -1.6059
  748lim     li 6688   1.048   5.784   2.395  0.3481 -1.1734 -0.1605
  749lim     li 6689   6.034   1.289   0.915 -0.0921 -0.7862  0.6818
  750lim     li 6690   5.907   0.270   6.421 -0.5623 -0.4255  0.7566
  751lim     li 6691   3.784   3.653   0.174 -0.2382  0.4905  0.3966
  752lim     li 6692   3.028   2.014   3.849 -0.7863 -0.1189 -0.0004
  753lim     li 6693   4.243   3.905   4.852  0.4387  1.4012  0.7552
  754lim     li 6694   0.347   0.523   4.648  0.4251  0.5610 -0.4188
  755lim     li 6695   4.484   2.395   3.240 -0.5829  0.8781  0.5191
  756lim     li 6696   0.052   4.609   5.291  0.8991 -0.6067 -0.7129
  757lim     li 6697   5.172   2.601   5.526  1.0284 -1.2412 -0.3093
  758lim     li 6698   1.024   1.350   2.349  0.1121  0.0894  0.3756
  759lim     li 6699   2.852   3.079   0.649 -0.2739 -0.0327  0.4566
  760lim     li 6700   6.114   3.662   3.007  0.7255  0.4632 -0.1123
  761lim     li 6701   5.840   2.095   3.651  0.1131  0.5321 -0.2267
  762lim     li 6702   3.359   3.365   1.543 -1.5744 -0.8825  0.1985
  763lim     li 6703   6.145   4.122   4.343 -1.2423 -0.2541  0.0666
  764lim     li 6704   5.452   0.571   3.713 -0.2236 -0.0593  0.4312
  765lim     li 6705   0.070   4.098   5.646  0.1836 -0.2792  0.1009
  766lim     li 6706   1.641   6.622   6.369  0.7520 -0.4955 -0.1844
  767lim     li 6707   5.726   4.547   5.576 -0.0461 -0.5841  1.6395
  768lim     li 6708   1.970   4.898   5.918  0.3828 -0.7128  0.7076
  769lim     li 6709   4.292   0.965   1.719 -0.8539  0.1939 -0.9769
  770lim     li 6710   3.953   5.691   1.501  0.5461 -0.0111  0.1765
  771lim     li 6711   5.698   6.065   6.360 -0.2980  0.4544 -0.9219
  772lim     li 6712   3.266   5.521   4.791 -0.3298  0.2067 -0.1785
  773lim     li 6713   4.785   0.919   6.106 -0.1997  0.9551 -0.6263
  774lim     li 6714   3.557   3.285   4.604 -0.4845 -0.2573 -0.0635
  775lim     li 6715   3.208   2.588   4.862 -0.1281  0.5634  1.0739
  776lim     li 6716   1.392   1.769   3.612 -0.9595 -0.2333  0.4504
  777lim     li 6717   1.951   2.765   0.032 -1.3210  0.5262 -0.3689
  778lim     li 6718   6.208   1.083   5.692  0.9682  0.2876  1.2094
  779lim     li 6719   5.867   4.929   3.663  0.8685  0.9174  0.0990
  780lim     li 6720   2.660   4.541   1.601 -0.0687 -0.3751 -0.1494
  781lim     li 6721   5.149   0.182   6.581  0.2581  0.0292 -0.1714
  782lim     li 6722   4.937   4.567   6.087 -0.1942 -0.5555 -0.0487
  783lim     li 6723   1.241   4.074   5.936 -0.4482 -0.5936 -0.9446
  784lim     li 6724   1.823   0.456   5.458 -0.2735 -0.3641  1.1587
  785lim     li 6725   4.942   2.083   2.459 -0.3409 -0.8205 -0.0252
  786lim     li 6726   0.353   0.881   2.603 -0.8473  0.1523  1.0312
  787lim     li 6727   5.253   0.811   5.297  0.5625  0.3007  1.8586
  788lim     li 6728   1.934   4.891   4.395 -0.0054  0.0055  0.2833
  789lim     li 6729   1.385   6.386   4.507  0.6408 -0.0858 -0.5899
  790lim     li 6730   4.156   1.542   2.329  0.3590  0.4300  1.2232
  791lim     li 6731   1.221   3.098   4.830  0.4472 -0.3529  0.5369
  792lim     li 6732   2.029   4.952   0.217 -0.6136 -0.0028 -0.6746
  793lim     li 6733   3.509   1.233   1.748  1.1628 -0.2605  1.2005
  794lim     li 6734   1.502   4.471   2.796 -0.0434 -0.5645 -0.4120
  795lim     li 6735   5.467   3.522   1.218 -0.4144  0.2260 -0.3364
  796lim     li 6736   5.132   5.399   6.225  0.6714  0.7512  0.4772
  797lim     li 6737   0.257   3.501   3.274  0.4246  0.1470 -1.0742
  798lim     li 6738   0.985   6.341   1.945  0.5509 -0.2675 -0.2294
  799lim     li 6739   3.609   6.331   4.388  0.0108 -0.2435  0.7728
  800lim     li 6740   3.408   3.829   5.544 -0.7116  0.0271 -0.0629
  801lim     li 6741   4.374   2.846   3.907 -0.2743 -0.2551 -0.2437
  802lim     li 6742   1.535   0.724   2.683 -0.4330 -0.8294 -0.7290
  803lim     li 6743   2.567   1.389   1.970 -0.3049  0.6262  1.1574
  804lim     li 6744   2.115   3.780   2.376  0.4159  0.0081  0.0262
  805lim     li 6745   4.880   2.657   0.600  0.0618  0.4275 -0.5193
  806lim     li 6746   5.002   3.780   3.781  1.4539 -0.1882 -0.1141
  807lim     li 6747   3.461   4.524   5.654 -0.9838  0.6095 -0.5108
  808lim     li 6748   1.218   2.989   6.486 -0.1675 -0.7955  0.2481
  809lim     li 6749   0.379   4.590   6.092 -0.3894 -2.1220  0.9513
  810lim     li 6750   6.095   0.249   4.804 -0.6060 -0.4958 -0.8341
  811lim     li 6751   6.079   6.641   2.504  0.8701 -0.2434 -0.2826
  812lim     li 6752   0.353   0.726   3.935 -0.3679 -0.5495  0.4079
  813lim     li 6753   4.325   5.466   4.011 -0.4369 -0.6230  0.4783
  814lim     li 6754   0.942   3.033   2.569 -0.4766  1.0739  0.1315
  815lim     li 6755   4.026   4.732   1.783  1.1775 -0.8113 -0.0052
  816lim     li 6756   2.433   1.130   0.174 -0.5841 -0.7370  0.4439
  817lim     li 6757   5.951   1.250   2.074  0.3144 -0.2224  0.4749
  818lim     li 6758   0.279   2.920   5.967  0.4890  0.4591 -0.0381
  819lim     li 6759   1.174   4.166   0.197  0.1773 -0.7609 -0.0806
  820lim     li 6760   6.321   1.520   4.137 -0.8045  0.1601  0.4743
  821lim     li 6761   0.856   3.825   2.257 -0.3222 -0.2273  0.2194
  822lim     li 6762   3.738   1.063   4.348 -1.3467  0.5953 -0.5687
  823lim     li 6763   4.516   1.988   4.919 -0.4840  0.7100 -0.4394
  824lim     li 6764   0.989   0.917   5.053  0.0961 -1.8603  0.4644
  825lim     li 6765   6.437   4.036   1.208  1.3320  0.3443 -1.9131
  826lim     li 6766   6.063   1.827   5.418  1.0315  0.5450  0.4910
  827lim     li 6767   6.647   0.732   6.528  1.1911 -0.0117  1.1265
  828lim     li 6768   3.001   6.405   5.219  0.5579 -0.0481 -0.1261
  829lim     li 6769   1.409   5.235   2.343  0.4603 -0.4484 -0.7861
  830lim     li 6770   0.592   6.059   3.507 -0.4129  0.2466 -0.4597
  831lim     li 6771   1.796   6.569   0.740  0.7644 -0.5173 -0.8622
  832lim     li 6772   2.750   5.566   6.539 -0.1592  1.4204  0.7824
  833lim     li 6773   4.531   5.136   3.162  0.1487 -0.8090  0.3195
  834lim     li 6774   5.632   0.800   0.739 -0.8841 -0.8221 -0.5990
  835lim     li 6775   3.689   1.351   3.702  0.3418  0.8390  1.5228
  836lim     li 6776   2.723   6.050   1.739 -0.0378 -0.1129  0.5918
  837lim     li 6777   6.466   4.985   1.377  0.5255  0.5577 -0.5568
  838lim     li 6778   2.821   0.119   2.228 -0.3421 -0.1925  0.4359
  839lim     li 6779   2.239   5.892   3.785 -0.2116 -0.6145  0.0089
  840lim     li 6780   1.973   1.390   3.973  0.2186  0.0965 -0.5828
  841lim     li 6781   1.790   0.495   4.681 -0.9326  1.3291 -0.2567
  842lim     li 6782   3.694   0.857   2.952 -1.2484  0.1291  0.2297
  843lim     li 6783   5.159   6.178   5.180 -0.0103  0.0137  1.1775
  844lim     li 6784   6.422   5.880   3.206 -0.1557 -0.1463  0.1248
  845lim     li 6785   0.857   5.447   3.032 -0.3139  0.3827  0.8956
  846lim     li 6786   2.182   5.168   3.433 -0.6448 -0.5383  0.1381
  847lim     li 6787   2.480   5.908   5.593  1.3239  0.6507 -0.2911
  848lim     li 6788   6.455   3.618   6.475  0.5545  0.0614  0.4112
  849lim     li 6789   5.809   3.575   5.233  0.1615  1.0909 -0.8383
  850lim     li 6790   2.523   0.706   2.989 -0.5925 -1.1292 -0.2236
  851lim     li 6791   1.725   4.015   1.362  1.1088 -1.7831 -0.8689
  852lim     li 6792   1.799   3.251   3.939 -1.2882  0.0049  0.0067
  853lim     li 6793   3.068   0.297   3.891  0.1833 -0.2582  0.1575
  854lim     li 6794   3.345   6.350   0.962 -0.1050  0.4381  0.9468
  855lim     li 6795   5.529   5.526   1.143 -0.6237  0.4693 -0.3188
  856lim     li 6796   2.039   2.148   0.085 -0.4899 -0.1296 -1.0372
  857lim     li 6797   6.102   3.125   1.432  0.5720  0.4940  0.0623
  858lim     li 6798   1.044   2.400   4.644 -0.1311 -0.2872 -0.6011
  859lim     li 6799   5.771   5.461   1.931 -0.1774  0.0632  0.1868
  860lim     li 6800   1.975   6.296   5.256 -0.4881 -0.9168  0.0844
  861lim     li 6801   3.308   5.046   6.511 -0.5533  1.2469 -0.1399
  862lim     li 6802   4.434   0.681   3.725  0.5915  0.2096  0.0161
  863lim     li 6803   0.148   1.674   1.127 -0.1141 -0.6903 -0.4643
  864lim     li 6804   3.901   3.112   6.121 -0.6106  1.0825 -0.4939
  865lim     li 6805   0.105   1.374   2.965  0.1226  0.0781  0.7203
  866lim     li 6806   1.315   4.360   4.728 -0.1159 -0.2238 -0.3737
  867lim     li 6807   4.724   3.658   2.827 -1.3047  0.5629 -0.0737
  868lim     li 6808   3.647   2.233   0.056 -0.4918 -0.0882 -1.0795
  869lim     li 6809   4.060   3.921   3.371  0.0967 -0.5707 -0.0760
  870lim     li 6810   1.165   1.022   3.250 -0.6859 -0.3813 -0.4793
  871lim     li 6811   5.502   3.245   4.561  0.7332 -0.0690 -0.1343
  872lim     li 6812   0.443   5.091   0.011 -0.4432 -1.1248  0.6211
  873lim     li 6813   6.579   4.531   3.473  0.7257  0.4299  0.6716
  874lim     li 6814   0.235   1.419   4.388 -0.6659  1.0209 -0.3010
  875lim     li 6815   2.352   1.211   2.726  0.3237  0.3074  0.5550
  876lim     li 6816   1.575   2.295   1.476  0.8188  0.4425 -0.0362
  877lim     li 6817   6.089   5.779   0.539  0.4130 -0.1363  0.1559
  878lim     li 6818   5.525   1.235   6.223  0.0725  0.1299  0.4343
  879lim     li 6819   4.841   2.011   0.813 -0.7005 -0.2559  1.1567
  880lim     li 6820   4.414   2.214   2.167 -1.0549 -0.4917  0.3387
  881lim     li 6821   6.023   6.142   5.402 -0.0445 -0.2126  1.5781
  882lim     li 6822   4.226   4.197   0.708  0.5302  0.2542  0.3085
  883lim     li 6823   5.367   6.597   0.768  0.3362 -1.1822 -0.2867
  884lim     li 6824   2.264   6.185   0.061 -0.2442  0.4587  0.9937
  885lim     li 6825   2.601   4.090   5.779 -0.2537  0.3702 -0.5971
  886lim     li 6826   5.809   0.439   1.516 -0.6963 -0.4274 -0.1174
  887lim     li 6827   4.333   4.761   0.002  0.8218  0.2609 -0.6400
  888lim     li 6828   0.353   5.334   5.634 -1.0475  0.5872 -1.5276
  889lim     li 6829   2.421   0.963   4.905 -0.3126  0.1867 -0.9066
  890lim     li 6830   3.040   3.627   4.944  0.4400 -0.6833 -0.3998
  891lim     li 6831   5.266   1.868   3.185  0.8012 -0.3477 -0.6094
  892lim     li 6832   2.107   2.845   3.045 -0.8158  0.1466 -0.8412
  893lim     li 6833   2.287   3.244   6.513 -0.3163  0.4717 -0.0004
  894lim     li 6834   2.667   3.409   3.521  0.3553 -0.9832  0.5643
  895lim     li 6835   5.630   5.306   5.467  1.4703  0.0274 -0.1638
  896lim     li 6836   2.966   5.496   3.396  0.9414 -0.0267 -0.1407
  897lim     li 6837   2.050   6.648   2.581  0.5969  0.6974 -0.4970
  898lim     li 6838   6.195   0.799   4.009  0.8385 -0.7480  0.9107
  899lim     li 6839   1.962   3.787   5.558  0.0055  0.3354 -0.0353
  900lim     li 6840   3.383   4.086   1.995  0.0490 -0.3439 -0.4631
  901lim     li 6841   0.313   2.117   3.371  0.9989 -0.4642  0.3298
  902lim     li 6842   6.442   6.624   3.974 -0.3164  0.0533 -0.4663
  903lim     li 6843   6.057   0.102   5.654  0.6720  0.1613 -1.4834
  904lim     li 6844   3.688   2.784   0.803  0.2926  1.0940 -1.5527
  905lim     li 6845   0.969   5.375   3.992  0.6070  0.5639  0.3708
  906lim     li 6846   6.461   5.947   1.144 -0.0614 -0.9231 -0.2151
  907lim     li 6847   3.507   4.432   4.814 -0.3285  0.2144 -0.1820
  908lim     li 6848   0.714   6.173   4.967  0.1746 -0.0743 -0.7246
  909lim     li 6849   2.890   6.444   3.545 -0.0430  0.5081 -0.3515
  910lim     li 6850   4.509   2.878   5.134 -1.2388 -0.2017 -0.2327
  911lim     li 6851   2.666   5.941   0.859  0.8236  0.6606 -0.4822
  912lim     li 6852   2.199   1.725   0.879  0.9279 -0.1617  0.7478
  913lim     li 6853   5.950   6.072   2.362 -0.1629 -1.0559 -0.1338
  914lim     li 6854   1.379   0.704   5.663 -0.2372  0.8358  0.4828
  915lim     li 6855   2.707   6.434   4.495 -0.0344  1.1196 -0.2133
  916lim     li 6856   0.955   2.661   1.960 -0.1147  0.5543 -0.1128
  917lim     li 6857   6.526   2.524   1.167 -0.4457 -0.2902 -0.1898
  918lim     li 6858   1.769   2.030   2.321  0.7364  0.0909  0.4246
  919lim     li 6859   6.135   2.989   2.264  0.3521 -0.5748  0.4660
  920lim     li 6860   4.492   1.275   5.423 -0.4076 -0.2486  0.1684
  921lim     li 6861   0.488   1.739   0.450 -0.0749 -0.9907  0.1187
  922lim     li 6862   5.952   3.667   5.811  0.0364  0.2236 -0.2305
  923lim     li 6863   4.559   5.651   4.927  0.8793  0.8405 -0.1565
  924lim     li 6864   0.389   1.506   6.268 -0.1314  0.8803 -0.1937
  925lim     li 6865   6.516   0.687   0.900 -0.1479 -0.0531 -0.3074
  926lim     li 6866   6.363   3.411   0.638 -0.7428  1.3598 -0.3031
  927lim     li 6867   3.148   0.753   6.108 -0.3898 -0.2367  0.9936
  928lim     li 6868   3.289   2.153   1.984 -0.6330 -0.4869 -0.6721
  929lim     li 6869   2.319   6.287   5.925  0.1687 -0.1399 -0.0121
  930lim     li 6870   3.900   3.467   2.680  0.6631 -0.9441  0.9286
  931lim     li 6871   5.213   4.286   5.231 -0.3682 -0.9035 -0.2775
  932lim     li 6872   2.769   5.133   1.899 -0.5791  0.3910  0.9091
  933lim     li 6873   5.258   6.037   0.379 -0.3045 -0.6909  0.3011
  934lim     li 6874   4.313   1.682   0.236  0.7140 -0.4312  0.3959
  935lim     li 6875   4.259   4.575   4.582 -0.0614  0.3511  0.0756
  936lim     li 6876   4.640   3.001   2.606 -0.1788 -0.1572  0.3551
  937lim     li 6877   1.652   0.578   0.358  0.2932  0.6476 -0.4098
  938lim     li 6878   0.159   6.560   5.536  0.5709  0.5847  0.0170
  939lim     li 6879   2.810   4.963   5.878  0.3366  1.1458 -1.0455
  940lim     li 6880   1.457   5.037   3.547 -0.4831 -0.0318  0.4575
  941lim     li 6881   1.947   2.972   2.316 -0.6053  1.4326 -0.0551
  942lim     li 6882   3.889   5.189   5.114 -0.3830 -0.4463  0.3431
  943lim     li 6883   2.520   5.581   4.518  0.3066  0.7241 -0.1912
  944lim     li 6884   2.811   5.045   4.126 -0.1121  0.1389  0.9426
  945lim     li 6885   4.159   0.272   2.925  0.5420  0.2189 -0.0079
  946lim     li 6886   3.244   2.986   6.627  0.1293 -0.8068 -1.1656
  947lim     li 6887   5.213   5.603   4.405 -0.7971 -0.3060  1.0787
  948lim     li 6888   5.397   0.300   2.785 -0.1210  0.0414 -1.1939
  949lim     li 6889   2.893   4.649   3.352 -0.6446  0.7602  0.0167
  950lim     li 6890   1.359   3.310   1.623  0.1027  0.5619 -0.0766
  951lim     li 6891   6.282   4.366   6.543 -0.7190  1.5301  0.2967
  952lim     li 6892   3.289   5.806   5.876  0.2326  0.3923 -0.8399
  953lim     li 6893   0.255   1.140   1.704  0.3549  0.5874  0.2428
  954lim     li 6894   3.039   1.052   4.497 -0.5931 -0.8472 -0.2989
  955lim     li 6895   4.473   6.536   5.219  0.3482  0.1822  0.1052
  956lim     li 6896   5.594   6.473   4.330  0.3149  0.1078  0.3226
  957lim     li 6897   4.387   4.224   5.898 -0.2225  0.1329  0.2907
  958lim     li 6898   3.508   5.591   0.855 -0.5231  0.4155  1.2196
  959lim     li 6899   1.792   3.516   4.816  0.0979  0.0795 -0.3097
  960lim     li 6900   2.838   2.044   0.278 -0.6977 -0.3298 -0.7262
  961lim     li 6901   3.488   2.931   3.145  0.1144  0.8989 -0.5462
  962lim     li 6902   6.598   5.185   4.094 -0.3414 -0.3038  0.7299
  963lim     li 6903   1.123   2.270   3.860  0.7866  0.5055  0.0549
  964lim     li 6904   2.720   1.726   4.608 -0.2915 -0.3344 -0.3964
  965lim     li 6905   2.494   3.570   4.415  0.8193 -0.6267 -0.0789
  966lim     li 6906   3.499   2.576   1.789 -0.4697 -0.0480 -0.1381
  967lim     li 6907   2.996   1.004   0.793  0.3674  0.2377 -0.2571
  968lim     li 6908   1.802   3.598   0.502  0.7075  0.6822  0.9542
  969lim     li 6909   1.035   2.192   0.943 -0.5362  0.5435  1.0279
  970lim     li 6910   0.341   6.123   2.370 -0.4698  0.5500 -0.4764
  971lim     li 6911   0.743   3.272   1.283 -0.4057  0.4702  0.7003
  972lim     li 6912   4.120   6.631   6.271  0.2779 -0.1360  0.8895
  973lim     li 6913   5.427   4.542   2.019  0.8189  0.4191 -0.2706
  974lim     li 6914   0.323   0.739   5.850 -0.0784  0.5824  0.6001
  975lim     li 6915   4.208   6.395   2.122  0.0307 -1.3197  0.9018
  976lim     li 6916   6.643   1.952   2.226  0.4854 -0.3662  0.2061
  977lim     li 6917   6.183   1.808   6.309  0.0872  0.0274 -0.2209
  978lim     li 6918   2.341   2.209   5.004  0.7572  0.9097 -0.3352
  979lim     li 6919   2.371   0.083   1.221  0.2582  1.2212 -0.8783
  980lim     li 6920   3.449   4.317   4.244 -1.4006  1.2230 -0.3132
  981lim     li 6921   4.590   4.515   3.791 -0.1369 -0.2844 -0.2157
  982lim     li 6922   1.106   0.153   5.068 -0.1508 -0.3755 -0.9347
  983lim     li 6923   2.076   5.074   1.621 -0.1711 -0.1470  0.6013
  984lim     li 6924   3.160   0.507   5.068  0.8837  0.2086 -0.9685
  985lim     li 6925   2.132   1.016   1.007 -1.2062 -0.0631 -0.3925
  986lim     li 6926   2.531   5.584   0.423 -0.3745  0.3546 -0.8005
  987lim     li 6927   5.363   5.598   3.244 -0.7949  0.5675  0.2799
  988lim     li 6928   0.509   4.112   1.291 -0.9665 -0.2336  0.2538
  989lim     li 6929   5.256   1.553   5.008 -0.3615  0.9576  0.2487
  990lim     li 6930   5.415   2.256   4.706 -0.7878 -0.0502  1.0718
  991lim     li 6931   3.041   1.528   3.177 -0.0368 -0.2080 -0.3523
  992lim     li 6932   3.983   0.912   5.638  0.1550 -0.4275  0.0734
  993lim     li 6933   5.061   1.958   1.644 -1.0437  0.1750 -0.3029
  994lim     li 6934   3.179   4.001   3.506 -0.5213  0.9622  0.8294
  995lim     li 6935   2.651   2.171   2.271 -0.5343 -0.1152 -0.2389
  996lim     li 6936   3.725   5.998   5.546 -0.5327 -0.3543 -0.5637
  997lim     li 6937   1.152   4.405   3.587  1.5125  0.1199  1.0099
  998lim     li 6938   2.729   2.540   1.507  0.1359 -0.2959  0.4426
  999lim     li 6939   4.519   4.039   1.657  0.4163 -0.7992  0.5264
 1000lim     li 6940   5.592   4.912   0.152  0.5697 -0.2334 -0.7321
 1001lim     li 6941   2.938   1.443   5.297 -0.4532 -0.5399  0.9054
 1002lim     li 6942   5.439   1.391   4.241  0.0298 -0.7691  0.5460
 1003lim     li 6943   4.301   6.349   3.691 -1.5248  0.4680 -0.0936
 1004lim     li 6944   2.704   4.917   5.025  0.1268  0.1963  0.3701
 1005lim     li 6945   0.763   0.746   6.326 -0.6859  0.1302 -0.2584
 1006lim     li 6946   4.544   0.522   0.210 -0.3301  0.3421  0.1514
 1007lim     li 6947   0.480   5.771   6.236  0.0971 -0.8344 -0.2734
 1008lim     li 6948   5.838   1.237   3.247 -0.2156 -0.0232  0.7756
 1009lim     li 6949   4.246   0.047   0.898 -0.1338  0.2965 -1.5791
 1010lim     li 6950   5.224   6.551   3.522 -1.1862  0.0514  1.0115
 1011lim     li 6951   2.732   4.595   0.150  0.2653  0.2748  1.7115
 1012lim     li 6952   6.081   2.935   6.582  0.1858 -0.0602  0.9014
 1013lim     li 6953   4.819   5.173   2.176 -0.2471 -0.4848  0.0516
 1014lim     li 6954   2.126   2.617   1.452 -1.2893  0.0830  0.4964
 1015lim     li 6955   0.222   4.094   4.393  0.2957 -0.7538  0.3014
 1016lim     li 6956   5.676   2.459   1.024 -0.9987 -1.2847 -0.6067
 1017lim     li 6957   2.213   4.358   5.217  0.1002 -0.4560 -0.7348
 1018lim     li 6958   2.614   3.656   1.341  0.3519  0.2627 -0.6552
 1019lim     li 6959   4.431   2.956   1.708  0.7938 -0.7474  0.1367
 1020lim     li 6960   0.277   6.542   3.240 -0.1139 -1.1645  0.2716
 1021lim     li 6961   1.699   1.351   4.886 -0.4095 -0.0143  0.5722
 1022lim     li 6962   5.976   2.943   5.764 -0.1527 -0.2996 -0.1787
 1023lim     li 6963   5.049   0.858   1.853 -0.4902  0.8876  0.2931
 1024lim     li 6964   0.514   2.366   1.423 -0.2417  0.6658 -1.0065
 1025lim     li 6965   0.656   4.751   2.582  0.0056 -0.2241  0.4276
 1026lim     li 6966   6.452   5.535   5.564  0.5236 -0.8312  0.3726
 1027lim     li 6967   1.830   5.921   4.506 -0.3595  0.2779 -0.1544
 1028lim     li 6968   4.534   5.145   1.293 -0.3937 -0.7250 -0.0437
 1029lim     li 6969   0.809   3.728   5.082 -0.2998  0.3426 -0.0162
 1030lim     li 6970   5.717   1.890   2.558 -1.3793 -0.5483 -1.2316
 1031lim     li 6971   6.386   4.978   0.340  0.9683  0.2337 -1.0311
 1032lim     li 6972   0.714   0.518   1.097 -0.5923 -0.5479  0.2269
 1033lim     li 6973   3.011   5.198   2.715  0.2109 -0.4179 -0.5193
 1034lim     li 6974   4.444   2.909   0.306  0.6953  0.3544  0.6003
 1035lim     li 6975   3.485   4.211   6.420 -0.0843 -0.0933 -0.0766
 1036lim     li 6976   5.649   2.769   2.975  0.7399 -0.3113 -0.0387
 1037lim     li 6977   6.027   1.120   4.948 -0.6369 -0.0722  1.2041
 1038lim     li 6978   3.069   4.239   0.803 -0.4905  1.1659 -0.2337
 1039lim     li 6979   1.414   5.998   3.848  0.3704  1.1593  0.1528
 1040lim     li 6980   6.311   2.460   2.984  0.9384 -0.2222 -0.0538
 1041lim     li 6981   2.324   0.421   6.362 -0.5500 -0.4711  0.2879
 1042lim     li 6982   3.138   6.521   6.270 -0.4261  0.4113 -0.5788
 1043lim     li 6983   0.673   3.496   6.281 -1.5746  0.4930  0.6823
 1044lim     li 6984   6.540   0.194   1.805  0.2462  1.0240 -0.1788
 1045lim     li 6985   2.656   0.336   5.556  0.5380 -0.5110 -0.0719
 1046lim     li 6986   2.141   6.595   3.203  1.2323  0.0859 -0.5251
 1047lim     li 6987   3.256   0.343   1.067 -1.5817  0.5546  0.2423
 1048lim     li 6988   0.298   2.862   5.121 -0.2151 -0.2983  0.2672
 1049lim     li 6989   3.594   6.039   3.003 -0.2247  0.5935  0.5792
 1050lim     li 6990   6.075   5.293   2.716  0.5931  0.3186 -0.5654
 1051lim     li 6991   4.609   3.748   0.026 -1.3139  0.6159  0.4797
 1052lim     li 6992   1.664   5.684   0.069  1.6157  0.2062 -0.2348
 1053lim     li 6993   2.464   2.089   4.329  0.3209 -0.0247  0.1215
 1054lim     li 6994   3.475   5.843   3.781  0.2699  0.5340 -0.2229
 1055lim     li 6995   3.872   0.317   3.864  0.9668 -0.1171 -0.6621
 1056lim     li 6996   4.171   3.534   4.051  1.9554 -1.1031  1.1106
 1057lim     li 6997   5.692   2.408   6.656 -0.3771  0.3243 -0.1616
 1058lim     li 6998   0.692   6.616   4.053  0.2322  0.5436  0.2009
 1059lim     li 6999   3.590   1.848   1.531 -1.0704 -0.2510  0.3657
 1060lim     li 7000   6.575   3.625   4.987 -0.2263 -0.3351 -0.5558
 1061lim     li 7001   5.740   5.881   3.754 -0.1929 -0.4678 -0.0723
 1062lim     li 7002   0.621   1.436   3.720 -0.2839  0.0927  0.7400
 1063lim     li 7003   5.206   4.845   4.273 -0.7409  0.5450  0.4835
 1064lim     li 7004   3.416   6.345   1.770  0.5716  0.2248  0.5865
 1065lim     li 7005   6.109   2.478   5.162 -0.0890  0.1052 -0.2753
 1066lim     li 7006   0.336   2.958   0.575 -0.0422 -1.0237 -0.9101
 1067lim     li 7007   5.627   2.453   1.944  0.1175  0.6062 -0.2777
 1068lim     li 7008   6.155   4.797   5.944  0.2335  0.2129  0.6215
 1069lim     li 7009   1.935   0.766   1.843  0.3659  0.5733 -0.4411
 1070lim     li 7010   2.213   1.458   5.961  0.0124  0.0309  1.8241
 1071lim     li 7011   2.846   2.710   2.850  0.7218 -0.1255  0.4753
 1072lim     li 7012   4.713   5.014   5.267 -0.6867 -0.0880  0.1230
 1073lim     li 7013   3.316   2.057   0.850 -0.3857  0.8639 -0.2345
 1074lim     li 7014   2.565   0.348   0.443  0.1116  0.4935 -0.4032
 1075lim     li 7015   3.942   5.327   3.321  0.2831 -0.5021  0.4312
 1076lim     li 7016   5.976   1.170   0.170  0.2824 -0.1603 -0.1061
 1077lim     li 7017   4.506   1.159   4.675 -0.4487  0.3398 -0.5107
 1078lim     li 7018   6.472   0.632   3.155 -0.4710  0.3650  0.2706
 1079lim     li 7019   5.095   4.277   0.395  0.1384 -0.1792 -1.1041
 1080lim     li 7020   1.262   1.315   0.711 -0.8883 -0.2936 -1.3200
 1081ntf    cn1 7021   5.773   3.461   2.611  0.0105 -0.1594 -0.5109
 1081ntf    sn2 7022   5.670   3.506   2.754  0.2705 -0.0561 -0.3562
 1081ntf    nn3 7023   5.750   3.438   2.870  0.1268 -0.2295 -0.3589
 1081ntf    sn2 7024   5.805   3.498   3.005  0.0921 -0.2059 -0.3549
 1081ntf    cn1 7025   5.791   3.344   3.100  0.0409 -0.0275 -0.0738
 1081ntf    fn4 7026   5.888   3.526   2.616 -0.3318  0.4130  0.1286
 1081ntf    fn4 7027   5.808   3.333   2.614  0.5331 -0.0098  0.3019
 1081ntf    fn4 7028   5.711   3.492   2.499 -0.4161  0.1390 -0.1973
 1081ntf    on5 7029   5.673   3.650   2.748 -0.1157 -0.0362 -0.1054
 1081ntf    on5 7030   5.544   3.445   2.721  0.4231 -0.6503  0.1412
 1081ntf    on5 7031   5.947   3.525   3.001  0.0969 -0.0539  0.5830
 1081ntf    on5 7032   5.722   3.592   3.076  0.1362 -0.2685 -0.2206
 1081ntf    fn4 7033   5.840   3.352   3.223 -0.2708 -0.2984  0.0694
 1081ntf    fn4 7034   5.855   3.242   3.044  0.2907  0.1825 -0.1710
 1081ntf    fn4 7035   5.665   3.307   3.117  0.1691 -0.4841 -0.0923
 1082ntf    cn1 7036   3.013   1.394   2.677  0.0196  0.0676  0.4258
 1082ntf    sn2 7037   3.179   1.439   2.736  0.0591  0.2295  0.1895
 1082ntf    nn3 7038   3.162   1.595   2.749  0.2585  0.2813 -0.1422
 1082ntf    sn2 7039   3.131   1.677   2.880  0.1023  0.2507 -0.1596
 1082ntf    cn1 7040   3.303   1.726   2.907  0.1494  0.3291 -0.5981
 1082ntf    fn4 7041   3.020   1.368   2.548  0.5393  0.0642  0.4548
 1082ntf    fn4 7042   2.974   1.284   2.740  0.1806 -0.1218  0.1956
 1082ntf    fn4 7043   2.928   1.493   2.700  0.8348  0.9259 -0.2384
 1082ntf    on5 7044   3.194   1.364   2.858  0.1255 -0.0639  0.0007
 1082ntf    on5 7045   3.267   1.405   2.627 -0.7677 -0.2999 -0.3258
 1082ntf    on5 7046   3.062   1.802   2.857 -0.3697  0.0574  0.1779
 1082ntf    on5 7047   3.097   1.604   3.000 -0.4674 -0.1227 -0.5402
 1082ntf    fn4 7048   3.385   1.698   2.807 -0.1296 -0.1363 -0.6982
 1082ntf    fn4 7049   3.361   1.666   3.010 -0.3810 -0.3601 -0.6899
 1082ntf    fn4 7050   3.319   1.855   2.932  0.1044  0.1658  0.2864
 1083ntf    cn1 7051   5.484   4.955   6.031 -0.3051 -0.1487 -0.0482
 1083ntf    sn2 7052   5.348   5.074   6.039 -0.0920  0.0859  0.0779
 1083ntf    nn3 7053   5.428   5.209   6.054  0.7530 -0.3773 -0.2216
 1083ntf    sn2 7054   5.448   5.298   6.182 -0.2035  0.0862 -0.3884
 1083ntf    cn1 7055   5.565   5.418   6.111  0.2198 -0.2251 -0.2196
 1083ntf    fn4 7056   5.578   4.983   6.120 -0.4830 -0.0828  0.1182
 1083ntf    fn4 7057   5.450   4.830   6.060 -0.4499 -0.2217 -0.5265
 1083ntf    fn4 7058   5.544   4.951   5.913 -0.2518  0.2603 -0.0346
 1083ntf    on5 7059   5.275   5.051   5.917 -0.1526  0.6624 -0.0002
 1083ntf    on5 7060   5.272   5.051   6.160  0.0823  0.2997  0.2297
 1083ntf    on5 7061   5.324   5.365   6.215 -0.3727 -0.4293  0.0346
 1083ntf    on5 7062   5.520   5.236   6.290  0.0793  0.7867 -0.1696
 1083ntf    fn4 7063   5.620   5.504   6.194 -0.5815 -0.0011  0.0906
 1083ntf    fn4 7064   5.506   5.489   6.016 -0.0156 -0.5729 -0.3380
 1083ntf    fn4 7065   5.665   5.357   6.050  0.2444 -0.6848  0.2716
 1084ntf    cn1 7066   1.890   4.154   5.800 -0.1883 -0.2503  0.2641
 1084ntf    sn2 7067   2.034   4.071   5.726 -0.2910 -0.0909 -0.1136
 1084ntf    nn3 7068   2.061   4.184   5.620 -0.3703 -0.1183 -0.1637
 1084ntf    sn2 7069   2.194   4.209   5.540 -0.3178  0.1341  0.0023
 1084ntf    cn1 7070   2.290   4.321   5.646  0.1619  0.1172 -0.4118
 1084ntf    fn4 7071   1.781   4.146   5.725  0.0214 -0.2782 -0.0392
 1084ntf    fn4 7072   1.863   4.106   5.920  0.0189 -0.0326  0.3976
 1084ntf    fn4 7073   1.921   4.280   5.822 -0.0316 -0.2598  0.1033
 1084ntf    on5 7074   2.133   4.072   5.830  0.0940 -0.1885 -0.4739
 1084ntf    on5 7075   1.992   3.941   5.678 -0.3705  0.0707 -0.4907
 1084ntf    on5 7076   2.285   4.102   5.509  0.3966  0.6062  0.4274
 1084ntf    on5 7077   2.165   4.289   5.424 -0.2614  0.2349  0.0574
 1084ntf    fn4 7078   2.393   4.258   5.700  0.1832  0.4089 -0.1057
 1084ntf    fn4 7079   2.219   4.378   5.743  0.1015 -0.2349 -0.2457
 1084ntf    fn4 7080   2.348   4.420   5.580 -0.2600  0.4645 -0.2739
 1085ntf    cn1 7081   6.108   3.360   6.338  0.2702  0.1109 -0.1109
 1085ntf    sn2 7082   6.288   3.342   6.332  0.2402 -0.3623  0.3394
 1085ntf    nn3 7083   6.313   3.193   6.374 -0.2048 -0.4419  0.3235
 1085ntf    sn2 7084   6.334   3.147   6.523 -0.3567 -0.0516  0.4689
 1085ntf    cn1 7085   6.513   3.115   6.536 -0.3191 -0.1997 -0.3225
 1085ntf    fn4 7086   6.068   3.477   6.288 -0.1872 -0.0158 -0.0464
 1085ntf    fn4 7087   6.052   3.261   6.270  0.5301 -0.2294  0.1742
 1085ntf    fn4 7088   6.061   3.356   6.461  0.0603  0.4204 -0.1774
 1085ntf    on5 7089   6.318   3.359   6.192 -0.4339 -0.1201  0.2233
 1085ntf    on5 7090   6.334   3.452   6.414 -0.4819  0.0479  0.2005
 1085ntf    on5 7091   6.308   3.247   6.622  0.4499  0.4994  0.1374
 1085ntf    on5 7092   6.283   3.014   6.547  0.0507 -0.1788  0.6387
 1085ntf    fn4 7093   6.567   3.175   6.431  0.5672  0.0720  0.2845
 1085ntf    fn4 7094   6.549   2.989   6.528  0.7153  0.0462  0.2861
 1085ntf    fn4 7095   6.573   3.167   6.642 -0.2249  0.0876 -0.5145
 1086ntf    cn1 7096   4.067   5.691   2.299  0.3505 -0.0054 -0.1550
 1086ntf    sn2 7097   3.960   5.604   2.180  0.0312  0.1955 -0.0152
 1086ntf    nn3 7098   4.055   5.486   2.138 -0.6033 -0.2482 -0.2313
 1086ntf    sn2 7099   4.059   5.336   2.181 -0.2341 -0.1548  0.0633
 1086ntf    cn1 7100   4.231   5.302   2.131 -0.3100 -0.1867 -0.1710
 1086ntf    fn4 7101   4.190   5.720   2.262  0.2827  0.6866  0.1457
 1086ntf    fn4 7102   4.014   5.802   2.347  0.1786 -0.1309 -0.0537
 1086ntf    fn4 7103   4.072   5.602   2.396  0.2809 -0.4223 -0.5280
 1086ntf    on5 7104   3.838   5.582   2.254  0.1526  0.6188  0.3129
 1086ntf    on5 7105   3.948   5.706   2.079 -0.2054 -0.1675 -0.3582
 1086ntf    on5 7106   4.070   5.317   2.324 -0.6413 -0.3211  0.0740
 1086ntf    on5 7107   3.979   5.244   2.105  0.2314 -0.1853 -0.3922
 1086ntf    fn4 7108   4.312   5.378   2.202 -0.1450  0.0404 -0.5936
 1086ntf    fn4 7109   4.263   5.330   2.005  0.3271 -0.0361  0.0220
 1086ntf    fn4 7110   4.268   5.176   2.145 -0.3444 -0.1719  0.0528
 1087ntf    cn1 7111   0.658   2.214   5.870  0.6439  0.0370 -0.1204
 1087ntf    sn2 7112   0.743   2.073   5.794 -0.1348 -0.3524 -0.2846
 1087ntf    nn3 7113   0.635   1.964   5.764 -0.2474 -0.3477  0.1058
 1087ntf    sn2 7114   0.648   1.847   5.661  0.1722 -0.0580 -0.1736
 1087ntf    cn1 7115   0.617   1.708   5.775  0.0708  0.5060  0.4902
 1087ntf    fn4 7116   0.564   2.174   5.954  0.1253  0.5447 -0.4453
 1087ntf    fn4 7117   0.741   2.292   5.939  0.4554  0.2018 -0.0774
 1087ntf    fn4 7118   0.601   2.295   5.782 -0.3041 -0.5921 -0.0993
 1087ntf    on5 7119   0.803   2.140   5.680 -0.2736  0.0892 -0.1010
 1087ntf    on5 7120   0.825   2.020   5.900 -0.3615  0.3802  0.2684
 1087ntf    on5 7121   0.544   1.833   5.562  0.3528  0.2777 -0.4148
 1087ntf    on5 7122   0.780   1.817   5.610  0.2514 -0.3029  0.1736
 1087ntf    fn4 7123   0.491   1.705   5.812 -0.0443 -0.0574  0.0621
 1087ntf    fn4 7124   0.677   1.728   5.891  0.1701  0.5634  0.4297
 1087ntf    fn4 7125   0.643   1.585   5.735 -0.0526  0.4595  0.5540
 1088ntf    cn1 7126   5.256   3.584   5.106 -0.0515 -0.2677 -0.3254
 1088ntf    sn2 7127   5.218   3.521   4.940 -0.1953  0.0408 -0.4102
 1088ntf    nn3 7128   5.358   3.549   4.875  0.1451 -0.1466  0.2325
 1088ntf    sn2 7129   5.465   3.440   4.841 -0.0846 -0.2440 -0.1901
 1088ntf    cn1 7130   5.607   3.553   4.841 -0.0433 -0.2926  0.2703
 1088ntf    fn4 7131   5.350   3.517   5.171 -0.1147 -0.2172 -0.1815
 1088ntf    fn4 7132   5.295   3.710   5.105 -0.0949 -0.2544 -0.3360
 1088ntf    fn4 7133   5.148   3.571   5.182  0.0171 -0.3115 -0.2344
 1088ntf    on5 7134   5.184   3.382   4.962 -0.1518  0.0414 -0.3398
 1088ntf    on5 7135   5.110   3.604   4.893 -0.0568  0.3938 -0.1109
 1088ntf    on5 7136   5.495   3.349   4.949 -0.5931 -0.3285 -0.1180
 1088ntf    on5 7137   5.445   3.372   4.716 -0.0452 -0.0220 -0.3171
 1088ntf    fn4 7138   5.711   3.503   4.775  0.2956  0.7558 -0.0180
 1088ntf    fn4 7139   5.644   3.585   4.964 -0.1659  0.4040  0.1287
 1088ntf    fn4 7140   5.583   3.664   4.773  0.1704 -0.1030  0.4994
 1089ntf    cn1 7141   5.938   1.065   1.478 -0.1404  0.0978 -0.4161
 1089ntf    sn2 7142   5.820   0.926   1.476  0.1326 -0.1422 -0.0352
 1089ntf    nn3 7143   5.909   0.816   1.543 -0.1031 -0.1972  0.1893
 1089ntf    sn2 7144   6.004   0.720   1.463  0.0079 -0.1004  0.2049
 1089ntf    cn1 7145   6.151   0.723   1.570  0.0888  0.0926  0.0890
 1089ntf    fn4 7146   5.995   1.091   1.594 -0.4958 -0.0582 -0.2032
 1089ntf    fn4 7147   6.042   1.047   1.399 -0.1055 -0.0427 -0.3399
 1089ntf    fn4 7148   5.875   1.176   1.443 -0.0623  0.1210 -0.4803
 1089ntf    on5 7149   5.709   0.966   1.560  0.1575 -0.1074 -0.0190
 1089ntf    on5 7150   5.786   0.914   1.336 -0.4214 -0.0468  0.0895
 1089ntf    on5 7151   5.965   0.581   1.473  0.2784 -0.2832 -1.1329
 1089ntf    on5 7152   6.054   0.768   1.336 -0.0703  0.5677  0.4220
 1089ntf    fn4 7153   6.198   0.845   1.590 -0.1842  0.2672 -0.3251
 1089ntf    fn4 7154   6.246   0.643   1.525  0.0121 -0.1584  0.3675
 1089ntf    fn4 7155   6.130   0.680   1.693  0.0260  0.1851  0.1103
 1090ntf    cn1 7156   5.805   0.919   6.263 -0.0715  0.2262 -0.2430
 1090ntf    sn2 7157   5.841   1.079   6.184 -0.0275  0.1901 -0.2964
 1090ntf    nn3 7158   5.963   1.119   6.274 -0.1561 -0.5107  0.2022
 1090ntf    sn2 7159   6.118   1.099   6.254 -0.1153 -0.3694  0.3776
 1090ntf    cn1 7160   6.188   1.186   6.397  0.2914  0.1672 -0.1444
 1090ntf    fn4 7161   5.706   0.848   6.210 -0.2379  0.8715 -0.8010
 1090ntf    fn4 7162   5.908   0.837   6.255 -0.1010  0.1483  0.1504
 1090ntf    fn4 7163   5.788   0.923   6.394 -0.2160 -0.3444 -0.2400
 1090ntf    on5 7164   5.872   1.043   6.048  0.5792 -0.3160 -0.0301
 1090ntf    on5 7165   5.725   1.160   6.213 -0.7608 -1.0805  0.4352
 1090ntf    on5 7166   6.156   0.961   6.276  0.8926 -0.0904  0.4154
 1090ntf    on5 7167   6.170   1.172   6.141 -0.0918 -0.3794  0.3817
 1090ntf    fn4 7168   6.176   1.116   6.509 -0.1985 -0.4023 -0.5463
 1090ntf    fn4 7169   6.133   1.305   6.418  0.0172  0.0358 -0.1161
 1090ntf    fn4 7170   6.316   1.218   6.391  0.3589 -0.0602  0.0552
 1091ntf    cn1 7171   5.081   5.499   5.652 -0.0607  0.1802 -0.4846
 1091ntf    sn2 7172   4.948   5.379   5.681  0.1390  0.1049  0.1430
 1091ntf    nn3 7173   4.981   5.330   5.826 -0.0149 -0.1829  0.0819
 1091ntf    sn2 7174   4.917   5.382   5.959 -0.0690  0.3761 -0.1629
 1091ntf    cn1 7175   4.855   5.224   6.023  0.3992  0.3371  0.2027
 1091ntf    fn4 7176   5.198   5.439   5.661 -0.0646  0.3109  0.5855
 1091ntf    fn4 7177   5.089   5.565   5.538  0.2044 -0.1082 -0.6302
 1091ntf    fn4 7178   5.079   5.598   5.741 -0.8566 -0.4093  0.1686
 1091ntf    on5 7179   4.824   5.451   5.665 -0.0740 -0.1617  0.5601
 1091ntf    on5 7180   4.977   5.283   5.577  0.7412  0.1918  0.2296
 1091ntf    on5 7181   5.013   5.425   6.059  0.1885 -0.0370 -0.2316
 1091ntf    on5 7182   4.799   5.465   5.955 -0.3315  0.0565  0.6804
 1091ntf    fn4 7183   4.952   5.150   6.075  0.4679  0.0512 -0.3316
 1091ntf    fn4 7184   4.792   5.156   5.929  0.4685  0.0286  0.3758
 1091ntf    fn4 7185   4.769   5.239   6.123  0.1642 -0.3981  0.1189
 1092ntf    cn1 7186   4.143   4.870   2.859  0.1419  0.0447 -0.0884
 1092ntf    sn2 7187   4.053   5.027   2.882  0.1948  0.0290  0.2280
 1092ntf    nn3 7188   4.140   5.102   2.989  0.3815  0.1592 -0.0160
 1092ntf    sn2 7189   4.267   5.191   2.963  0.3101  0.2619 -0.0147
 1092ntf    cn1 7190   4.196   5.356   2.934  0.1851  0.2518  0.2291
 1092ntf    fn4 7191   4.273   4.891   2.851  0.1825 -0.0617  0.2556
 1092ntf    fn4 7192   4.134   4.782   2.957  0.1988 -0.1871 -0.2913
 1092ntf    fn4 7193   4.109   4.799   2.753  0.3786  0.2652 -0.3113
 1092ntf    on5 7194   4.047   5.095   2.756 -0.2393  0.3668  0.4280
 1092ntf    on5 7195   3.928   4.990   2.945 -0.0777  0.4334 -0.0767
 1092ntf    on5 7196   4.354   5.198   3.079  0.6037  0.3754 -0.2395
 1092ntf    on5 7197   4.335   5.161   2.839 -0.2208 -0.5914 -0.1055
 1092ntf    fn4 7198   4.295   5.439   2.906  0.2343  0.1868  0.2099
 1092ntf    fn4 7199   4.126   5.398   3.038  0.0943  0.0947  0.2307
 1092ntf    fn4 7200   4.114   5.347   2.832  0.3560  0.1420  0.1010
 1093ntf    cn1 7201   1.551   2.648   3.533 -0.2939 -0.2143 -0.0791
 1093ntf    sn2 7202   1.702   2.568   3.470 -0.0781  0.1135  0.0219
 1093ntf    nn3 7203   1.653   2.552   3.322  0.7615  0.5704 -0.3057
 1093ntf    sn2 7204   1.649   2.427   3.228  0.0493  0.1671  0.2582
 1093ntf    cn1 7205   1.494   2.344   3.274  0.0263 -0.1509 -0.3738
 1093ntf    fn4 7206   1.542   2.632   3.664  0.7661 -0.2077  0.0056
 1093ntf    fn4 7207   1.564   2.779   3.521 -0.2001 -0.1965  0.2111
 1093ntf    fn4 7208   1.440   2.600   3.477 -0.3560 -0.3357  0.1469
 1093ntf    on5 7209   1.811   2.660   3.487  0.5469 -0.5476 -0.3513
 1093ntf    on5 7210   1.705   2.445   3.546 -0.1861  0.0676 -0.0486
 1093ntf    on5 7211   1.617   2.456   3.090  0.1505 -0.4211  0.1064
 1093ntf    on5 7212   1.749   2.326   3.255 -0.5526 -0.3612  0.5523
 1093ntf    fn4 7213   1.472   2.237   3.199  0.2853 -0.6331  0.2284
 1093ntf    fn4 7214   1.396   2.433   3.268  0.3858  0.2886  0.0871
 1093ntf    fn4 7215   1.494   2.310   3.402  0.6621 -0.0159 -0.3346
 1094ntf    cn1 7216   2.023   2.891   0.397  0.1617  0.1239 -0.4094
 1094ntf    sn2 7217   2.106   2.741   0.336  0.0111 -0.1452  0.0452
 1094ntf    nn3 7218   2.255   2.784   0.312 -0.0865  0.2201  0.0899
 1094ntf    sn2 7219   2.378   2.766   0.408 -0.1425  0.0786  0.1350
 1094ntf    cn1 7220   2.500   2.670   0.313  0.0313  0.2924  0.1408
 1094ntf    fn4 7221   2.093   2.958   0.488 -0.1173 -0.0852 -0.0401
 1094ntf    fn4 7222   2.008   2.982   0.302 -0.2338 -0.2098 -0.6660
 1094ntf    fn4 7223   1.907   2.856   0.448  0.0241  0.2593 -0.6264
 1094ntf    on5 7224   2.079   2.649   0.444  0.2383 -0.1853  0.0665
 1094ntf    on5 7225   2.037   2.721   0.211 -0.4920  0.4123  0.2263
 1094ntf    on5 7226   2.440   2.893   0.434 -0.1477 -0.0393  0.7347
 1094ntf    on5 7227   2.362   2.680   0.523  0.0241  0.3505  0.3638
 1094ntf    fn4 7228   2.508   2.545   0.356 -0.0935  0.0986 -0.3863
 1094ntf    fn4 7229   2.620   2.723   0.323  0.1770 -0.0278  0.0994
 1094ntf    fn4 7230   2.468   2.665   0.184 -0.6106  0.2848  0.2944
 1095ntf    cn1 7231   2.404   3.408   5.767  0.5702  0.0683  0.0083
 1095ntf    sn2 7232   2.411   3.236   5.825  0.0721 -0.0154 -0.1795
 1095ntf    nn3 7233   2.264   3.226   5.881  0.1148 -0.2107 -0.1020
 1095ntf    sn2 7234   2.136   3.157   5.824 -0.1330  0.0917  0.0877
 1095ntf    cn1 7235   2.016   3.241   5.932 -0.1530  0.2587 -0.0654
 1095ntf    fn4 7236   2.523   3.440   5.719  0.5121 -0.0123 -0.1907
 1095ntf    fn4 7237   2.321   3.419   5.664  0.2809  0.0689  0.2405
 1095ntf    fn4 7238   2.374   3.505   5.852 -0.0760 -0.2196  0.1111
 1095ntf    on5 7239   2.433   3.161   5.704 -0.3595  0.4839 -0.5763
 1095ntf    on5 7240   2.513   3.233   5.926 -0.0706  0.3302 -0.0224
 1095ntf    on5 7241   2.097   3.186   5.689 -0.1805 -0.2381  0.0291
 1095ntf    on5 7242   2.130   3.019   5.865 -0.3577  0.1584  0.2827
 1095ntf    fn4 7243   1.889   3.214   5.904 -0.1211  0.5921 -0.5451
 1095ntf    fn4 7244   2.018   3.372   5.909  0.0477  0.2343 -0.1869
 1095ntf    fn4 7245   2.050   3.220   6.058 -0.1636 -0.2180 -0.1409
 1096ntf    cn1 7246   5.462   0.981   2.819 -0.1043 -0.1193 -0.3857
 1096ntf    sn2 7247   5.530   1.131   2.741  0.1305  0.0201  0.0821
 1096ntf    nn3 7248   5.629   1.192   2.847 -0.0022 -0.3973  0.4538
 1096ntf    sn2 7249   5.602   1.269   2.981  0.1045  0.0513  0.2209
 1096ntf    cn1 7250   5.614   1.439   2.919  0.0543 -0.0581 -0.0921
 1096ntf    fn4 7251   5.393   0.903   2.738 -0.4655  0.1794 -0.3654
 1096ntf    fn4 7252   5.558   0.912   2.880  0.0496  0.1318 -0.3388
 1096ntf    fn4 7253   5.374   1.016   2.911 -0.2711  0.3285 -0.7167
 1096ntf    on5 7254   5.600   1.081   2.625  0.0110  0.5780 -0.2305
 1096ntf    on5 7255   5.419   1.218   2.714  0.4711  0.4345  0.0024
 1096ntf    on5 7256   5.464   1.258   3.023 -0.2936  0.4334 -0.9382
 1096ntf    on5 7257   5.700   1.262   3.086  0.2363 -0.1853  0.0823
 1096ntf    fn4 7258   5.603   1.533   3.012 -0.3702 -0.3370  0.1429
 1096ntf    fn4 7259   5.511   1.463   2.840  0.1972 -0.6784 -0.4719
 1096ntf    fn4 7260   5.724   1.467   2.851 -0.2404  0.1423 -0.4926
 1097ntf    cn1 7261   6.440   1.153   5.048 -0.5061  0.0537 -0.4008
 1097ntf    sn2 7262   6.308   1.046   5.112 -0.2085 -0.0628  0.0256
 1097ntf    nn3 7263   6.344   1.051   5.265 -0.5248 -0.5290  0.1195
 1097ntf    sn2 7264   6.318   1.168   5.367 -0.1623 -0.1112 -0.2606
 1097ntf    cn1 7265   6.480   1.250   5.383 -0.3013  0.1300 -0.0764
 1097ntf    fn4 7266   6.422   1.282   5.069 -0.4427  0.0457 -0.2933
 1097ntf    fn4 7267   6.556   1.119   5.103 -0.7906 -0.1182  0.1024
 1097ntf    fn4 7268   6.457   1.132   4.919  0.1075 -0.4908 -0.2424
 1097ntf    on5 7269   6.190   1.118   5.068 -0.2945  0.0972  0.5064
 1097ntf    on5 7270   6.332   0.918   5.052 -0.6676  0.1039 -0.5266
 1097ntf    on5 7271   6.236   1.274   5.315  0.0580  0.0317 -0.3203
 1097ntf    on5 7272   6.284   1.119   5.499  0.1675  0.2407 -0.0423
 1097ntf    fn4 7273   6.569   1.163   5.427  0.1553  0.2957 -0.6551
 1097ntf    fn4 7274   6.474   1.354   5.464 -0.3068  0.3505 -0.3596
 1097ntf    fn4 7275   6.525   1.300   5.269 -0.4667 -0.1225 -0.2553
 1098ntf    cn1 7276   6.145   5.861   5.733 -0.2814 -0.1616  0.2047
 1098ntf    sn2 7277   6.140   5.686   5.782 -0.2373 -0.3028 -0.2880
 1098ntf    nn3 7278   6.125   5.709   5.937 -0.1501  0.2295 -0.3557
 1098ntf    sn2 7279   6.045   5.616   6.036  0.3516  0.3897  0.2041
 1098ntf    cn1 7280   6.109   5.452   5.989  0.0649  0.2442  0.3216
 1098ntf    fn4 7281   6.258   5.921   5.764  0.0539 -0.4452 -0.4438
 1098ntf    fn4 7282   6.120   5.880   5.605 -0.6077  0.1431  0.3128
 1098ntf    fn4 7283   6.050   5.927   5.797 -0.4074 -0.1039 -0.0411
 1098ntf    on5 7284   6.022   5.635   5.716 -0.5626  0.1184 -0.0376
 1098ntf    on5 7285   6.269   5.635   5.744 -0.0880 -0.0668 -0.1054
 1098ntf    on5 7286   6.091   5.638   6.171  0.7369  0.7293  0.0206
 1098ntf    on5 7287   5.903   5.597   6.022  0.5066 -0.6102 -0.0725
 1098ntf    fn4 7288   6.240   5.452   6.007  0.0979  0.7110  0.1058
 1098ntf    fn4 7289   6.078   5.396   5.873 -0.3172  0.6598  0.2186
 1098ntf    fn4 7290   6.058   5.362   6.072  0.2503 -0.5235 -0.3834
 1099ntf    cn1 7291   3.821   5.769   3.589 -0.1885  0.1124 -0.2316
 1099ntf    sn2 7292   3.682   5.652   3.581 -0.1606  0.0449  0.2499
 1099ntf    nn3 7293   3.730   5.541   3.681  0.5333  0.1767  0.0751
 1099ntf    sn2 7294   3.784   5.398   3.644 -0.0023 -0.0831  0.2761
 1099ntf    cn1 7295   3.632   5.304   3.610  0.0661 -0.0914 -0.0119
 1099ntf    fn4 7296   3.938   5.713   3.565 -0.4204 -0.3918 -0.1832
 1099ntf    fn4 7297   3.806   5.867   3.501 -0.0923  0.0276 -0.3435
 1099ntf    fn4 7298   3.837   5.838   3.701  0.0943 -0.1397 -0.1155
 1099ntf    on5 7299   3.580   5.737   3.637  0.0689  0.0442  0.6749
 1099ntf    on5 7300   3.672   5.612   3.443 -0.0516  0.1071  0.2235
 1099ntf    on5 7301   3.853   5.386   3.518 -0.3545 -0.4774  0.1195
 1099ntf    on5 7302   3.852   5.336   3.755 -0.2131 -0.3878  0.2354
 1099ntf    fn4 7303   3.550   5.373   3.533  0.0660 -0.5804 -0.4530
 1099ntf    fn4 7304   3.566   5.267   3.718  0.3761  0.1385  0.2612
 1099ntf    fn4 7305   3.656   5.190   3.546  0.5032  0.0750 -0.1473
 1100ntf    cn1 7306   6.460   0.364   5.955  0.3211 -0.1099 -0.2007
 1100ntf    sn2 7307   6.346   0.478   5.871  0.2185 -0.1382 -0.1005
 1100ntf    nn3 7308   6.209   0.435   5.933 -0.2000  0.2549 -0.7450
 1100ntf    sn2 7309   6.096   0.336   5.885 -0.2096 -0.0962 -0.0168
 1100ntf    cn1 7310   5.984   0.454   5.804  0.0295 -0.1043 -0.3625
 1100ntf    fn4 7311   6.588   0.375   5.921  0.4586 -0.6812  0.1141
 1100ntf    fn4 7312   6.451   0.367   6.087  0.4641 -0.6945 -0.1761
 1100ntf    fn4 7313   6.425   0.240   5.924  0.3583 -0.1499 -0.0837
 1100ntf    on5 7314   6.391   0.605   5.922  0.0623 -0.1441  0.0520
 1100ntf    on5 7315   6.372   0.448   5.732  0.3521 -0.0989 -0.0840
 1100ntf    on5 7316   6.125   0.247   5.775 -0.2096 -0.5368  0.3369
 1100ntf    on5 7317   6.019   0.278   5.991 -0.0828 -0.3174 -0.0452
 1100ntf    fn4 7318   5.898   0.391   5.725 -0.4685 -0.2181  0.2663
 1100ntf    fn4 7319   6.052   0.544   5.736 -0.0931  0.1469 -0.1524
 1100ntf    fn4 7320   5.906   0.525   5.884 -0.0443 -0.2603 -0.2940
 1101ntf    cn1 7321   1.979   6.134   2.763 -0.0210 -0.3124 -0.1767
 1101ntf    sn2 7322   1.843   6.013   2.772 -0.1379 -0.1653  0.0684
 1101ntf    nn3 7323   1.774   6.053   2.637  0.0760 -0.1336 -0.0328
 1101ntf    sn2 7324   1.769   5.986   2.495  0.1608  0.3664 -0.2762
 1101ntf    cn1 7325   1.644   6.082   2.404 -0.4350 -0.0421  0.0994
 1101ntf    fn4 7326   1.941   6.260   2.765  0.0496 -0.2917 -0.1603
 1101ntf    fn4 7327   2.064   6.123   2.864  0.2519  0.3656 -0.3308
 1101ntf    fn4 7328   2.051   6.111   2.655 -0.1174  0.1884 -0.3467
 1101ntf    on5 7329   1.908   5.884   2.781  0.5490  0.1536 -0.2211
 1101ntf    on5 7330   1.760   6.058   2.881 -0.0135 -0.2262  0.1885
 1101ntf    on5 7331   1.896   6.002   2.430  0.2132  0.0472 -0.2576
 1101ntf    on5 7332   1.706   5.856   2.504 -0.2679  0.6034  0.2478
 1101ntf    fn4 7333   1.529   6.100   2.468 -0.4016 -0.0699  0.1683
 1101ntf    fn4 7334   1.601   6.028   2.292 -0.0392 -0.2590  0.0498
 1101ntf    fn4 7335   1.687   6.204   2.374  0.6499 -0.4318  0.0227
 1102ntf    cn1 7336   1.245   1.775   4.888  0.2722  0.0584  0.0289
 1102ntf    sn2 7337   1.283   1.741   4.714 -0.3330 -0.2382 -0.0517
 1102ntf    nn3 7338   1.372   1.612   4.713 -0.1278 -0.0990  0.0819
 1102ntf    sn2 7339   1.529   1.603   4.705 -0.1107  0.2276  0.0338
 1102ntf    cn1 7340   1.555   1.548   4.533  0.2653 -0.0620  0.1845
 1102ntf    fn4 7341   1.355   1.784   4.961  0.0015 -0.2759  0.4816
 1102ntf    fn4 7342   1.177   1.888   4.904  0.2094 -0.0250  0.3524
 1102ntf    fn4 7343   1.175   1.679   4.947 -0.2756  0.3676 -0.1108
 1102ntf    on5 7344   1.156   1.703   4.657 -0.3839 -0.0202 -0.0867
 1102ntf    on5 7345   1.342   1.862   4.660  0.0334 -0.4276 -0.0810
 1102ntf    on5 7346   1.603   1.726   4.719 -0.0556  0.1408  0.4930
 1102ntf    on5 7347   1.575   1.488   4.778 -0.2890  0.3451  0.3317
 1102ntf    fn4 7348   1.682   1.548   4.495  0.0882  0.0294 -0.4085
 1102ntf    fn4 7349   1.502   1.632   4.446 -0.0432 -0.8917 -0.4379
 1102ntf    fn4 7350   1.519   1.423   4.506  0.0710  0.0062  0.1325
 1103ntf    cn1 7351   6.158   0.600   2.146 -0.3113 -0.0405 -0.2857
 1103ntf    sn2 7352   6.039   0.691   2.249  0.0122  0.0732 -0.0114
 1103ntf    nn3 7353   5.988   0.568   2.332 -0.1841  0.0822 -0.1188
 1103ntf    sn2 7354   5.887   0.453   2.294 -0.2748  0.2257 -0.3165
 1103ntf    cn1 7355   5.720   0.521   2.276 -0.1750  0.4672 -0.3361
 1103ntf    fn4 7356   6.105   0.532   2.046 -0.5170 -0.9010  0.3955
 1103ntf    fn4 7357   6.248   0.683   2.095  0.0070  0.0406  0.4050
 1103ntf    fn4 7358   6.223   0.516   2.225 -0.3946  0.0088 -0.1657
 1103ntf    on5 7359   6.107   0.781   2.339  0.0360  0.0724 -0.0286
 1103ntf    on5 7360   5.941   0.736   2.153 -0.0394 -0.0666 -0.0253
 1103ntf    on5 7361   5.911   0.385   2.169 -0.0026 -0.0450 -0.1196
 1103ntf    on5 7362   5.872   0.364   2.407  0.2433  0.0237 -0.4021
 1103ntf    fn4 7363   5.712   0.595   2.167  0.1612 -0.1988 -0.8232
 1103ntf    fn4 7364   5.671   0.581   2.384 -0.0197 -0.4093  0.2343
 1103ntf    fn4 7365   5.632   0.425   2.254  0.4946 -0.2230 -0.0472
 1104ntf    cn1 7366   1.306   1.067   3.643 -0.0884 -0.0019  0.0903
 1104ntf    sn2 7367   1.140   1.048   3.574  0.0700  0.0012 -0.2935
 1104ntf    nn3 7368   1.077   0.940   3.669  0.1215  0.3336  0.1220
 1104ntf    sn2 7369   1.110   0.786   3.670 -0.4706  0.2007 -0.0100
 1104ntf    cn1 7370   0.943   0.723   3.634 -0.3856 -0.1767  0.2557
 1104ntf    fn4 7371   1.304   1.086   3.774 -0.2126  0.2517  0.0534
 1104ntf    fn4 7372   1.381   0.960   3.623 -0.0223  0.0948 -0.1853
 1104ntf    fn4 7373   1.370   1.170   3.590 -0.7728  0.1503 -0.4444
 1104ntf    on5 7374   1.085   1.180   3.593  0.1327 -0.0623  0.3422
 1104ntf    on5 7375   1.164   1.010   3.437  0.8926 -0.6722  0.0293
 1104ntf    on5 7376   1.190   0.729   3.564 -0.0044  0.7174  0.0547
 1104ntf    on5 7377   1.136   0.732   3.801 -0.1109  0.4113  0.0082
 1104ntf    fn4 7378   0.943   0.593   3.612 -0.2519 -0.1299 -0.0255
 1104ntf    fn4 7379   0.890   0.780   3.528 -0.4024 -0.1214  0.2938
 1104ntf    fn4 7380   0.860   0.734   3.737  0.0746  0.5935  0.5599
 1105ntf    cn1 7381   6.061   5.374   4.105 -0.1764 -0.3594 -0.3119
 1105ntf    sn2 7382   5.950   5.238   4.056 -0.3264 -0.2306 -0.3313
 1105ntf    nn3 7383   5.968   5.119   4.156  0.1617 -0.1080 -0.2707
 1105ntf    sn2 7384   5.914   5.093   4.301  0.6311  0.1277 -0.0547
 1105ntf    cn1 7385   5.776   4.979   4.270  0.2207  0.6350 -0.1160
 1105ntf    fn4 7386   6.077   5.378   4.236  0.3746 -0.0019 -0.3910
 1105ntf    fn4 7387   6.180   5.358   4.051  0.1860 -0.0372  0.3803
 1105ntf    fn4 7388   6.020   5.496   4.075  0.3175  0.0247  0.5749
 1105ntf    on5 7389   5.817   5.293   4.054  0.1175  0.8632 -0.5970
 1105ntf    on5 7390   5.994   5.195   3.925 -0.0047  0.4381 -0.4454
 1105ntf    on5 7391   6.011   5.017   4.376 -0.1207 -0.5342  0.2531
 1105ntf    on5 7392   5.847   5.200   4.371  0.4754 -0.0185  0.0186
 1105ntf    fn4 7393   5.711   5.003   4.158  0.2044 -0.2816 -0.3130
 1105ntf    fn4 7394   5.687   4.985   4.368  0.0817 -0.0025 -0.2007
 1105ntf    fn4 7395   5.813   4.852   4.268 -0.4712  0.4183  0.5132
 1106ntf    cn1 7396   4.758   0.329   1.487  0.4040  0.0058  0.2918
 1106ntf    sn2 7397   4.595   0.362   1.414  0.4312 -0.0589  0.2018
 1106ntf    nn3 7398   4.644   0.429   1.281  0.5195  0.0087  0.2684
 1106ntf    sn2 7399   4.693   0.577   1.262  0.1548  0.1279  0.2610
 1106ntf    cn1 7400   4.539   0.640   1.190  0.4045  0.1165 -0.2873
 1106ntf    fn4 7401   4.841   0.248   1.424  0.2810 -0.1179  0.2874
 1106ntf    fn4 7402   4.829   0.440   1.502  0.5251 -0.1015  0.5175
 1106ntf    fn4 7403   4.754   0.291   1.614  0.4174 -0.1196  0.2548
 1106ntf    on5 7404   4.538   0.232   1.388  0.5357 -0.0322 -0.1611
 1106ntf    on5 7405   4.520   0.442   1.508  0.5124  0.6082 -0.2961
 1106ntf    on5 7406   4.712   0.654   1.382  0.5449  0.6894 -0.1560
 1106ntf    on5 7407   4.792   0.595   1.158  0.0654  0.1510  0.1799
 1106ntf    fn4 7408   4.552   0.766   1.151  0.6800  0.1969  0.0638
 1106ntf    fn4 7409   4.437   0.640   1.274  0.7263 -0.0025  0.1010
 1106ntf    fn4 7410   4.503   0.572   1.082  0.6995  0.0853 -0.3651
 1107ntf    cn1 7411   4.410   1.086   6.090  0.2836 -0.0783 -0.1265
 1107ntf    sn2 7412   4.552   1.175   6.160  0.3438  0.0105 -0.3592
 1107ntf    nn3 7413   4.497   1.175   6.307  0.5132 -0.5489 -0.2901
 1107ntf    sn2 7414   4.576   1.176   6.443 -0.1898 -0.0035  0.1229
 1107ntf    cn1 7415   4.522   1.023   6.524 -0.4904  0.0270 -0.0179
 1107ntf    fn4 7416   4.377   0.976   6.156  0.6138 -0.0014  0.1637
 1107ntf    fn4 7417   4.300   1.161   6.096  0.2730 -0.1117  0.1072
 1107ntf    fn4 7418   4.424   1.046   5.965  0.5408 -0.0998 -0.0918
 1107ntf    on5 7419   4.654   1.074   6.141  0.3803 -0.0777  0.2662
 1107ntf    on5 7420   4.551   1.301   6.092  0.1806  0.3694  0.2999
 1107ntf    on5 7421   4.720   1.181   6.435 -0.2397  0.2513 -0.7296
 1107ntf    on5 7422   4.513   1.271   6.532  0.0189  0.4692 -0.2310
 1107ntf    fn4 7423   4.608   0.991   6.619  0.6724  0.3981 -0.9364
 1107ntf    fn4 7424   4.502   0.922   6.441 -0.1966  0.0918 -0.1697
 1107ntf    fn4 7425   4.401   1.029   6.578 -0.2680 -0.5802  0.5649
 1108ntf    cn1 7426   3.964   2.338   4.092 -0.0451 -0.2638 -0.1834
 1108ntf    sn2 7427   3.894   2.207   4.196 -0.0260  0.0950  0.2827
 1108ntf    nn3 7428   3.885   2.097   4.084  0.5048  0.5019 -0.1607
 1108ntf    sn2 7429   3.762   2.056   3.995  0.4208  0.1634  0.1125
 1108ntf    cn1 7430   3.733   1.883   4.043 -0.1159  0.2084 -0.0451
 1108ntf    fn4 7431   3.926   2.348   3.965 -0.2360  0.3154 -0.0822
 1108ntf    fn4 7432   3.927   2.449   4.152  0.0827 -0.3777  0.1090
 1108ntf    fn4 7433   4.096   2.341   4.098 -0.0500 -0.2407 -0.0904
 1108ntf    on5 7434   4.002   2.179   4.288 -0.3901 -0.2959  0.5943
 1108ntf    on5 7435   3.770   2.259   4.248 -0.3855 -0.5076  0.0504
 1108ntf    on5 7436   3.640   2.128   4.019 -0.2012 -0.7132 -0.3561
 1108ntf    on5 7437   3.797   2.043   3.856 -0.0367 -0.6026  0.0642
 1108ntf    fn4 7438   3.634   1.824   3.978  0.3234 -0.4108 -0.1653
 1108ntf    fn4 7439   3.706   1.871   4.172  0.3116 -0.0135  0.0261
 1108ntf    fn4 7440   3.845   1.815   4.022 -0.0032  0.3358  0.1294
 1109ntf    cn1 7441   1.092   4.809   0.292 -0.0146 -0.1961  0.4535
 1109ntf    sn2 7442   1.120   4.989   0.297 -0.1602 -0.1601  0.0017
 1109ntf    nn3 7443   1.210   5.008   0.424 -0.2578  0.1488  0.0247
 1109ntf    sn2 7444   1.366   5.026   0.412 -0.2188 -0.1017  0.1437
 1109ntf    cn1 7445   1.372   5.208   0.421 -0.4334 -0.0696 -0.3531
 1109ntf    fn4 7446   1.199   4.732   0.309  0.1086 -0.2074 -0.3447
 1109ntf    fn4 7447   0.994   4.776   0.374 -0.4195  0.2442  0.1509
 1109ntf    fn4 7448   1.049   4.765   0.176 -0.0476 -0.2060  0.4695
 1109ntf    on5 7449   1.170   5.007   0.163 -0.4737  0.3567 -0.0455
 1109ntf    on5 7450   0.990   5.043   0.328  0.0221 -0.0816  0.6526
 1109ntf    on5 7451   1.435   4.978   0.529  0.2016 -0.0543 -0.0866
 1109ntf    on5 7452   1.431   4.991   0.289  0.1417 -0.0894  0.3306
 1109ntf    fn4 7453   1.335   5.272   0.311 -0.1725  0.4414 -0.1468
 1109ntf    fn4 7454   1.495   5.251   0.440 -0.1896 -0.2621 -1.3935
 1109ntf    fn4 7455   1.305   5.249   0.527 -0.1232 -0.7002  0.0916
 1110ntf    cn1 7456   3.977   4.772   4.093 -0.0802  0.1107 -0.0596
 1110ntf    sn2 7457   4.073   4.654   4.192 -0.2135 -0.1442 -0.2333
 1110ntf    nn3 7458   4.103   4.749   4.313 -0.2895 -0.4185  0.0009
 1110ntf    sn2 7459   4.033   4.762   4.453 -0.1924 -0.0298  0.0136
 1110ntf    cn1 7460   4.030   4.942   4.482  0.4891 -0.0028 -0.0721
 1110ntf    fn4 7461   3.854   4.778   4.141  0.2486  0.5009  0.7568
 1110ntf    fn4 7462   4.030   4.892   4.105  0.1921 -0.0362  0.2304
 1110ntf    fn4 7463   3.963   4.745   3.964 -0.0939  0.5572 -0.1515
 1110ntf    on5 7464   3.986   4.541   4.215  0.0810 -0.3241  0.0142
 1110ntf    on5 7465   4.191   4.621   4.115 -0.0187 -0.7883  0.3243
 1110ntf    on5 7466   3.895   4.720   4.449 -0.2346  0.1713 -0.6979
 1110ntf    on5 7467   4.105   4.703   4.563  0.5644  0.6706 -0.0933
 1110ntf    fn4 7468   3.998   5.009   4.373 -0.1685 -0.5740 -0.2340
 1110ntf    fn4 7469   4.154   4.964   4.525  0.3685  0.2570  0.1466
 1110ntf    fn4 7470   3.950   4.986   4.578 -0.0550  0.1457 -0.5892
 1111ntf    cn1 7471   4.874   1.690   2.985  0.3871  0.1495 -0.2064
 1111ntf    sn2 7472   4.908   1.749   3.154  0.0813 -0.0919 -0.0591
 1111ntf    nn3 7473   4.940   1.616   3.232  0.1486  0.0544  0.1632
 1111ntf    sn2 7474   4.832   1.510   3.274  0.3142  0.0588  0.6013
 1111ntf    cn1 7475   4.917   1.370   3.195 -0.0294  0.2513 -0.1183
 1111ntf    fn4 7476   4.813   1.781   2.910 -0.0766  0.2482  0.2823
 1111ntf    fn4 7477   4.987   1.649   2.929  0.4122 -0.0276 -0.0275
 1111ntf    fn4 7478   4.798   1.582   2.986  0.3332  0.1874  0.5756
 1111ntf    on5 7479   5.025   1.825   3.120 -0.3347  0.4238 -0.3423
 1111ntf    on5 7480   4.790   1.826   3.184  0.2638  0.1055  0.1533
 1111ntf    on5 7481   4.840   1.476   3.414  0.4632 -0.0610  0.5633
 1111ntf    on5 7482   4.703   1.517   3.211  0.3966 -0.3533  0.3805
 1111ntf    fn4 7483   5.039   1.354   3.242  0.0318 -0.0385 -0.3712
 1111ntf    fn4 7484   4.922   1.380   3.063  0.9469  0.1044 -0.0985
 1111ntf    fn4 7485   4.849   1.259   3.221  0.4452 -0.0535 -0.1682
 1112ntf    cn1 7486   1.117   2.777   3.692 -0.1453 -0.0255 -0.1134
 1112ntf    sn2 7487   0.985   2.653   3.701 -0.0767 -0.1315 -0.5129
 1112ntf    nn3 7488   0.997   2.575   3.565  0.0247  0.0303 -0.5969
 1112ntf    sn2 7489   0.912   2.598   3.435 -0.2894 -0.0478 -0.4067
 1112ntf    cn1 7490   1.006   2.513   3.305  0.2371 -0.0588 -0.0232
 1112ntf    fn4 7491   1.235   2.718   3.706 -0.1126  0.0529 -0.0580
 1112ntf    fn4 7492   1.115   2.851   3.582  0.3212  0.1570 -0.0024
 1112ntf    fn4 7493   1.106   2.869   3.786 -0.3973 -0.3917  0.2171
 1112ntf    on5 7494   1.030   2.577   3.815 -1.0351 -0.3277 -0.2500
 1112ntf    on5 7495   0.873   2.740   3.728  0.3402  0.2805 -0.1088
 1112ntf    on5 7496   0.786   2.527   3.444 -0.0378 -0.5775 -0.9938
 1112ntf    on5 7497   0.903   2.733   3.384  0.2344 -0.1135 -0.6778
 1112ntf    fn4 7498   1.071   2.401   3.333 -0.5842 -0.3330  0.8541
 1112ntf    fn4 7499   1.098   2.598   3.264  0.3834 -0.2190 -0.0266
 1112ntf    fn4 7500   0.931   2.472   3.204 -0.4504 -0.3045  0.5739
 1113ntf    cn1 7501   2.656   4.906   6.564  0.0769  0.2566  0.1031
 1113ntf    sn2 7502   2.697   4.736   6.514 -0.1519  0.1955  0.1214
 1113ntf    nn3 7503   2.558   4.683   6.464 -0.2557  0.5270  0.0574
 1113ntf    sn2 7504   2.495   4.714   6.324 -0.2426 -0.2646 -0.1246
 1113ntf    cn1 7505   2.536   4.575   6.213 -0.0204 -0.3552  0.0720
 1113ntf    fn4 7506   2.571   4.967   6.483 -0.2424  0.0276  0.2647
 1113ntf    fn4 7507   2.603   4.914   6.685  0.1532 -0.0591  0.1582
 1113ntf    fn4 7508   2.763   4.984   6.573 -0.0151  0.3925  0.0161
 1113ntf    on5 7509   2.810   4.737   6.424 -0.1732 -0.0142  0.0927
 1113ntf    on5 7510   2.721   4.678   6.644 -0.3258 -0.3660 -0.0965
 1113ntf    on5 7511   2.350   4.715   6.324 -0.2429  0.0256 -0.7282
 1113ntf    on5 7512   2.553   4.824   6.252 -0.5040  0.3078  0.5246
 1113ntf    fn4 7513   2.481   4.592   6.094 -0.1188  0.1055  0.1795
 1113ntf    fn4 7514   2.495   4.458   6.259 -0.0575 -0.1676  0.5325
 1113ntf    fn4 7515   2.668   4.572   6.207  0.0177  0.0470  0.5881
 1114ntf    cn1 7516   2.622   4.694   4.678  0.1069  0.2990 -0.0923
 1114ntf    sn2 7517   2.499   4.786   4.776  0.3228  0.0585  0.4135
 1114ntf    nn3 7518   2.384   4.680   4.777 -0.3355  0.7596  0.1535
 1114ntf    sn2 7519   2.293   4.632   4.895 -0.2203  0.1061 -0.0200
 1114ntf    cn1 7520   2.383   4.485   4.955 -0.0746  0.0937 -0.2685
 1114ntf    fn4 7521   2.717   4.779   4.646  0.0909  0.0878 -0.7073
 1114ntf    fn4 7522   2.679   4.593   4.742 -0.3665  0.2641  0.2865
 1114ntf    fn4 7523   2.577   4.644   4.564  0.2882  0.0625 -0.0621
 1114ntf    on5 7524   2.553   4.825   4.904  0.3237 -0.0402  0.4438
 1114ntf    on5 7525   2.471   4.893   4.683  0.2658 -0.1637  0.1755
 1114ntf    on5 7526   2.281   4.721   5.008  0.3023 -0.3869  0.4291
 1114ntf    on5 7527   2.169   4.571   4.852 -0.0877 -0.2006  0.0331
 1114ntf    fn4 7528   2.487   4.531   5.023 -0.2253  0.2351 -0.1317
 1114ntf    fn4 7529   2.432   4.402   4.865  0.0845 -0.4360  0.3004
 1114ntf    fn4 7530   2.305   4.411   5.032 -0.2614  0.6310  0.0662
 1115ntf    cn1 7531   0.259   2.938   1.737 -0.0292 -0.0787 -0.2809
 1115ntf    sn2 7532   0.251   2.806   1.862 -0.1429 -0.0364 -0.2431
 1115ntf    nn3 7533   0.195   2.886   1.985 -0.0120 -0.0865 -0.1503
 1115ntf    sn2 7534   0.187   2.852   2.138  0.3633  0.1474 -0.0791
 1115ntf    cn1 7535   0.336   2.941   2.193  0.3441  0.4436 -0.5002
 1115ntf    fn4 7536   0.289   3.054   1.791  0.2356  0.0558 -0.7139
 1115ntf    fn4 7537   0.353   2.920   1.646  0.2110  0.1026 -0.0695
 1115ntf    fn4 7538   0.143   2.947   1.674 -0.4271  0.2043  0.4838
 1115ntf    on5 7539   0.156   2.708   1.814 -0.2545 -0.0334 -0.0284
 1115ntf    on5 7540   0.391   2.778   1.881 -0.2498 -0.1401  0.4122
 1115ntf    on5 7541   0.080   2.911   2.214  0.0235 -0.4188 -0.1106
 1115ntf    on5 7542   0.219   2.715   2.168 -0.0753 -0.0002 -0.2752
 1115ntf    fn4 7543   0.344   3.068   2.156 -0.0483  0.5390 -0.2674
 1115ntf    fn4 7544   0.445   2.878   2.153  0.1161 -0.4753  0.2900
 1115ntf    fn4 7545   0.355   2.936   2.324 -0.1129  0.0708 -0.4426
 1116ntf    cn1 7546   4.806   4.302   4.780  0.1251 -0.0324 -0.0932
 1116ntf    sn2 7547   4.843   4.341   4.606  0.0029 -0.0711 -0.1289
 1116ntf    nn3 7548   4.735   4.260   4.527 -0.1503  0.0949 -0.0919
 1116ntf    sn2 7549   4.748   4.120   4.457 -0.3532 -0.0434  0.1466
 1116ntf    cn1 7550   4.821   4.174   4.300 -0.5212  0.0269  0.0926
 1116ntf    fn4 7551   4.881   4.362   4.870  0.0740 -0.1671  0.0412
 1116ntf    fn4 7552   4.678   4.326   4.805  0.1703  0.1138 -0.0085
 1116ntf    fn4 7553   4.826   4.172   4.797  0.0924 -0.0346 -0.0683
 1116ntf    on5 7554   4.817   4.481   4.584  0.3599  0.0194  0.0192
 1116ntf    on5 7555   4.978   4.300   4.579  0.1124  0.0121  0.2811
 1116ntf    on5 7556   4.843   4.031   4.521 -0.1021 -0.1193 -0.3246
 1116ntf    on5 7557   4.626   4.062   4.407 -0.1703 -0.7749  0.5186
 1116ntf    fn4 7558   4.944   4.220   4.313 -0.5314  0.1078 -0.0863
 1116ntf    fn4 7559   4.753   4.270   4.240 -0.2724 -0.1775 -0.5348
 1116ntf    fn4 7560   4.830   4.079   4.208 -0.2320  0.3142 -0.1805
 1117ntf    cn1 7561   1.011   1.254   5.316 -0.0008 -0.0931  0.2873
 1117ntf    sn2 7562   1.081   1.087   5.331  0.0552 -0.1309 -0.3655
 1117ntf    nn3 7563   0.978   1.017   5.427  0.3872  0.0359  0.1156
 1117ntf    sn2 7564   0.987   0.897   5.528  0.1095 -0.0354  0.0577
 1117ntf    cn1 7565   0.955   0.982   5.686 -0.1061  0.1054 -0.0615
 1117ntf    fn4 7566   1.067   1.323   5.218 -0.6117  0.0830  0.0628
 1117ntf    fn4 7567   0.881   1.264   5.294 -0.0314 -0.2654  0.3865
 1117ntf    fn4 7568   1.028   1.321   5.429 -0.1194  0.6374 -0.1269
 1117ntf    on5 7569   1.076   1.027   5.200  0.1413  0.2624 -0.5502
 1117ntf    on5 7570   1.210   1.115   5.390 -0.2003  0.3202 -0.0167
 1117ntf    on5 7571   0.875   0.808   5.514  0.1543 -0.0424 -0.2582
 1117ntf    on5 7572   1.120   0.842   5.542 -0.0775 -0.4867  0.0730
 1117ntf    fn4 7573   1.049   1.071   5.713  0.0772 -0.3040  0.6653
 1117ntf    fn4 7574   0.962   0.898   5.788  0.6299  0.3423  0.0938
 1117ntf    fn4 7575   0.840   1.047   5.696 -0.2141 -0.0478 -0.2912
 1118ntf    cn1 7576   4.488   6.137   2.259 -0.0086 -0.2202  0.2616
 1118ntf    sn2 7577   4.484   6.211   2.093 -0.1097 -0.0242  0.3518
 1118ntf    nn3 7578   4.624   6.280   2.084 -0.0064 -0.2701  0.0720
 1118ntf    sn2 7579   4.676   6.411   2.153  0.1663 -0.2497 -0.0974
 1118ntf    cn1 7580   4.807   6.361   2.269  0.1338 -0.3248 -0.0933
 1118ntf    fn4 7581   4.391   6.046   2.258 -0.0786 -0.1470 -0.6175
 1118ntf    fn4 7582   4.604   6.081   2.289  0.0146 -0.0453  0.5043
 1118ntf    fn4 7583   4.465   6.225   2.355  0.4280 -0.1063  0.2628
 1118ntf    on5 7584   4.460   6.093   2.013 -0.4863  0.0608  0.3364
 1118ntf    on5 7585   4.381   6.312   2.101 -0.0236  0.1747 -0.8791
 1118ntf    on5 7586   4.760   6.493   2.069  0.1490 -0.2801 -0.1450
 1118ntf    on5 7587   4.578   6.473   2.238  0.1286 -0.4706  0.0217
 1118ntf    fn4 7588   4.909   6.304   2.205  0.3368  0.2791 -0.3188
 1118ntf    fn4 7589   4.785   6.276   2.368  0.5151  0.0819  0.3462
 1118ntf    fn4 7590   4.856   6.471   2.323 -0.0503 -0.4012  0.2299
 1119ntf    cn1 7591   5.178   2.043   4.206  0.3493 -0.0858 -0.2232
 1119ntf    sn2 7592   5.222   2.110   4.043 -0.5196  0.1334 -0.3736
 1119ntf    nn3 7593   5.091   2.169   3.980 -0.0836  1.1291 -0.3635
 1119ntf    sn2 7594   5.001   2.111   3.865  0.0100 -0.1175  0.1800
 1119ntf    cn1 7595   4.915   2.258   3.800  0.3958  0.1084  0.1734
 1119ntf    fn4 7596   5.101   1.937   4.191  0.3362 -0.2463  0.8818
 1119ntf    fn4 7597   5.285   2.005   4.273 -0.0048  0.0918  0.4501
 1119ntf    fn4 7598   5.114   2.125   4.288  0.1122 -0.0574 -0.4346
 1119ntf    on5 7599   5.309   2.219   4.080 -0.1564 -0.3227  0.1387
 1119ntf    on5 7600   5.285   2.000   3.975  0.1408 -0.0569  0.5239
 1119ntf    on5 7601   5.069   2.053   3.752 -0.1258 -0.2380  0.1594
 1119ntf    on5 7602   4.890   2.036   3.918 -0.1557  0.0412  0.0607
 1119ntf    fn4 7603   4.819   2.238   3.712  0.3600 -0.3816  0.3214
 1119ntf    fn4 7604   4.996   2.334   3.729  0.0015  0.3576 -0.0073
 1119ntf    fn4 7605   4.857   2.335   3.891 -0.2038 -0.2563  0.1071
 1120ntf    cn1 7606   5.728   5.683   2.431  0.0505 -0.4338  0.0160
 1120ntf    sn2 7607   5.886   5.767   2.463 -0.1420 -0.0331 -0.0839
 1120ntf    nn3 7608   5.875   5.834   2.605  0.7761  0.3588 -0.1916
 1120ntf    sn2 7609   5.915   5.763   2.739 -0.0921 -0.2443 -0.2462
 1120ntf    cn1 7610   5.793   5.829   2.856  0.4206 -0.0281  0.1721
 1120ntf    fn4 7611   5.702   5.586   2.517 -0.1627 -0.2861  0.1173
 1120ntf    fn4 7612   5.621   5.760   2.429  0.2738 -0.1216  0.1030
 1120ntf    fn4 7613   5.713   5.633   2.309  0.0578  0.1324 -0.2186
 1120ntf    on5 7614   5.995   5.673   2.453 -0.4763 -0.5288  0.8697
 1120ntf    on5 7615   5.884   5.870   2.362  0.1359  0.6852  0.6301
 1120ntf    on5 7616   5.900   5.620   2.745 -0.1407 -0.2245  0.1519
 1120ntf    on5 7617   6.037   5.826   2.784 -0.7599  0.7091  0.2828
 1120ntf    fn4 7618   5.680   5.760   2.869  0.1010  0.2281 -1.0821
 1120ntf    fn4 7619   5.764   5.955   2.825  0.4080 -0.2633 -0.7953
 1120ntf    fn4 7620   5.841   5.826   2.979 -0.7919  0.2529  0.6734
 1121ntf    cn1 7621   5.170   1.045   4.583 -0.3893 -0.3727 -0.0004
 1121ntf    sn2 7622   5.020   1.039   4.686 -0.3572 -0.2465  0.0544
 1121ntf    nn3 7623   4.921   1.099   4.581 -0.7387  0.0108  0.5597
 1121ntf    sn2 7624   4.806   1.019   4.510 -0.1911 -0.0854 -0.2295
 1121ntf    cn1 7625   4.824   1.088   4.343 -0.1748  0.1304 -0.1385
 1121ntf    fn4 7626   5.182   1.162   4.522 -0.0432 -0.2993  0.2087
 1121ntf    fn4 7627   5.281   1.025   4.652 -0.3560 -0.0881  0.0300
 1121ntf    fn4 7628   5.176   0.954   4.487  0.0355 -0.1101 -0.2268
 1121ntf    on5 7629   5.003   0.900   4.722 -0.1301 -0.3328 -0.1660
 1121ntf    on5 7630   5.046   1.131   4.795 -0.2706 -0.1704 -0.0306
 1121ntf    on5 7631   4.823   0.877   4.493 -0.3301 -0.0852 -0.3729
 1121ntf    on5 7632   4.677   1.065   4.557  0.1430  0.2089  0.4167
 1121ntf    fn4 7633   4.932   1.042   4.282 -0.1383  0.1722 -0.1058
 1121ntf    fn4 7634   4.828   1.220   4.332 -0.2270  0.1332 -0.1241
 1121ntf    fn4 7635   4.729   1.045   4.261  0.0369  0.1087 -0.3736
 1122ntf    cn1 7636   3.147   0.669   2.591  0.2565  0.0994 -0.3007
 1122ntf    sn2 7637   3.133   0.849   2.617  0.0217  0.0014  0.2473
 1122ntf    nn3 7638   2.997   0.861   2.539 -0.1134 -0.5901  0.3850
 1122ntf    sn2 7639   2.952   0.826   2.392  0.2464  0.4152  0.0317
 1122ntf    cn1 7640   2.838   0.959   2.343  0.0652  0.4557  0.5491
 1122ntf    fn4 7641   3.253   0.619   2.651 -0.1991 -0.1834  0.2696
 1122ntf    fn4 7642   3.040   0.601   2.628  0.2237  0.2830 -0.0581
 1122ntf    fn4 7643   3.159   0.634   2.464  0.1741 -0.2219 -0.2204
 1122ntf    on5 7644   3.131   0.859   2.761 -0.4335  0.1334  0.2350
 1122ntf    on5 7645   3.247   0.902   2.547  0.0391 -0.2073  0.1132
 1122ntf    on5 7646   3.052   0.827   2.289  0.4822 -0.3490  0.2467
 1122ntf    on5 7647   2.868   0.710   2.391 -0.1072  0.6692  0.0165
 1122ntf    fn4 7648   2.912   1.046   2.277 -0.2235  0.5255  0.3102
 1122ntf    fn4 7649   2.771   1.013   2.443 -0.1970  0.2370  0.4957
 1122ntf    fn4 7650   2.740   0.916   2.264  0.7778  0.4442 -0.3397
 1123ntf    cn1 7651   0.372   0.280   2.906  0.2922 -0.1393  0.1635
 1123ntf    sn2 7652   0.360   0.257   3.086  0.0195 -0.3171  0.1229
 1123ntf    nn3 7653   0.370   0.404   3.140  0.4634 -0.6687  1.0154
 1123ntf    sn2 7654   0.495   0.493   3.174  0.1251  0.1366  0.1950
 1123ntf    cn1 7655   0.508   0.447   3.349  0.2317 -0.1154  0.1209
 1123ntf    fn4 7656   0.296   0.382   2.867  0.1105 -0.3613 -0.0643
 1123ntf    fn4 7657   0.495   0.320   2.877  0.0679  0.8323  0.4998
 1123ntf    fn4 7658   0.334   0.179   2.829 -0.0354  0.3476 -0.3283
 1123ntf    on5 7659   0.230   0.200   3.111 -0.0614 -0.1922 -0.0084
 1123ntf    on5 7660   0.474   0.176   3.122 -0.0566 -0.1506  0.7447
 1123ntf    on5 7661   0.625   0.454   3.125 -0.0942 -0.2961 -0.0572
 1123ntf    on5 7662   0.468   0.634   3.179 -0.7244 -0.0090 -0.1401
 1123ntf    fn4 7663   0.509   0.315   3.360  0.1144 -0.1205  0.0688
 1123ntf    fn4 7664   0.409   0.496   3.421 -0.3458  0.3487 -0.9784
 1123ntf    fn4 7665   0.622   0.486   3.404  0.3221 -0.3224  0.0823
 1124ntf    cn1 7666   0.923   5.123   4.486 -0.0549  0.2378  0.1530
 1124ntf    sn2 7667   0.810   5.119   4.344 -0.0297  0.1230  0.1370
 1124ntf    nn3 7668   0.720   5.240   4.388 -0.2164  0.0767 -0.1188
 1124ntf    sn2 7669   0.574   5.253   4.444 -0.1098  0.2507  0.1203
 1124ntf    cn1 7670   0.469   5.269   4.296 -0.1789 -0.3861  0.0986
 1124ntf    fn4 7671   1.014   5.028   4.475  0.1211  0.4457 -0.1929
 1124ntf    fn4 7672   0.982   5.240   4.502 -0.2353  0.3373  0.0999
 1124ntf    fn4 7673   0.861   5.098   4.600  0.4682 -1.0105  0.1815
 1124ntf    on5 7674   0.889   5.155   4.229 -0.0576  0.3435  0.1863
 1124ntf    on5 7675   0.750   4.987   4.344  0.3015 -0.0292 -0.5045
 1124ntf    on5 7676   0.528   5.136   4.515  0.4603 -0.1828 -0.2180
 1124ntf    on5 7677   0.560   5.374   4.520 -0.2693  0.5465 -0.3721
 1124ntf    fn4 7678   0.493   5.177   4.204 -0.0403  0.0226 -0.2729
 1124ntf    fn4 7679   0.482   5.388   4.241 -0.1566 -0.3804  0.1172
 1124ntf    fn4 7680   0.340   5.264   4.329 -0.3302  0.9113 -0.2487
 1125ntf    cn1 7681   5.791   1.911   6.486 -0.1134  0.0296  0.0207
 1125ntf    sn2 7682   5.907   1.775   6.519 -0.1373  0.0116  0.0317
 1125ntf    nn3 7683   5.920   1.796   6.674  0.0113 -0.1583  0.0430
 1125ntf    sn2 7684   6.014   1.893   6.753  0.0875 -0.2515  0.0672
 1125ntf    cn1 7685   6.144   1.772   6.791  0.1183 -0.1981  0.1316
 1125ntf    fn4 7686   5.838   2.028   6.523 -0.5243  0.2964 -0.2946
 1125ntf    fn4 7687   5.762   1.918   6.357  0.1320 -0.0557 -0.0392
 1125ntf    fn4 7688   5.676   1.888   6.548 -0.1157 -0.1523 -0.0494
 1125ntf    on5 7689   5.839   1.651   6.489 -0.0415 -0.1647  0.5332
 1125ntf    on5 7690   6.021   1.808   6.437 -0.1955 -0.4618 -0.2463
 1125ntf    on5 7691   6.086   1.990   6.675 -0.4352 -0.1117 -0.2456
 1125ntf    on5 7692   5.966   1.948   6.877  0.1785  0.1516 -0.0749
 1125ntf    fn4 7693   6.247   1.817   6.862  0.0267  0.4688 -0.1434
 1125ntf    fn4 7694   6.195   1.717   6.682 -0.1964 -0.1327 -0.0486
 1125ntf    fn4 7695   6.087   1.672   6.856 -0.6032 -0.3247 -0.6860
 1126ntf    cn1 7696   3.825   2.502   4.986 -0.3077 -0.2873 -0.2275
 1126ntf    sn2 7697   3.983   2.416   5.010 -0.2808 -0.1666  0.0395
 1126ntf    nn3 7698   3.929   2.304   5.105 -0.1504 -0.2163  0.0554
 1126ntf    sn2 7699   3.869   2.160   5.085 -0.2565 -0.1965  0.2284
 1126ntf    cn1 7700   3.895   2.088   5.249  0.0482  0.2427  0.3766
 1126ntf    fn4 7701   3.839   2.619   4.925 -0.4736 -0.4374 -0.5549
 1126ntf    fn4 7702   3.738   2.442   4.907 -0.1551  0.1738 -0.7583
 1126ntf    fn4 7703   3.766   2.537   5.100  0.3513 -0.3584  0.1391
 1126ntf    on5 7704   4.033   2.367   4.883 -0.0252  0.8381 -0.2549
 1126ntf    on5 7705   4.060   2.513   5.082  0.1156 -0.3784 -0.0945
 1126ntf    on5 7706   3.725   2.158   5.074 -0.2887  0.3141  0.4984
 1126ntf    on5 7707   3.947   2.076   4.999  0.0774 -0.2202  0.5542
 1126ntf    fn4 7708   3.825   2.151   5.342  0.0561  0.2053  0.4082
 1126ntf    fn4 7709   4.021   2.083   5.287  0.0073 -0.1961  0.4622
 1126ntf    fn4 7710   3.860   1.961   5.262 -0.1570  0.2617  0.0165
 1127ntf    cn1 7711   6.120   3.418   5.515 -0.0893  0.3190  0.1392
 1127ntf    sn2 7712   5.946   3.466   5.534 -0.1068  0.2829  0.0779
 1127ntf    nn3 7713   5.887   3.321   5.557  0.1109  0.2511  0.4444
 1127ntf    sn2 7714   5.828   3.246   5.682  0.1689 -0.1881  0.2103
 1127ntf    cn1 7715   5.684   3.169   5.604  0.2372 -0.0098 -0.0965
 1127ntf    fn4 7716   6.201   3.522   5.506  0.3266  0.0062  0.2586
 1127ntf    fn4 7717   6.164   3.352   5.621 -0.2725 -0.2714 -0.1468
 1127ntf    fn4 7718   6.140   3.345   5.406 -0.1950 -0.0681  0.3772
 1127ntf    on5 7719   5.927   3.555   5.646  0.4661 -0.0619  0.4587
 1127ntf    on5 7720   5.917   3.507   5.399 -0.5894 -0.2902 -0.0000
 1127ntf    on5 7721   5.900   3.133   5.733 -0.2514 -0.4856  0.1411
 1127ntf    on5 7722   5.767   3.330   5.782  0.2844  0.1911 -0.0335
 1127ntf    fn4 7723   5.599   3.266   5.572 -0.1971 -0.3475  0.0111
 1127ntf    fn4 7724   5.621   3.083   5.682  0.0122  0.2912  0.0560
 1127ntf    fn4 7725   5.718   3.110   5.490 -0.3135 -0.2623 -0.1346
 1128ntf    cn1 7726   3.777   2.187   2.499  0.0366 -0.3189 -0.2630
 1128ntf    sn2 7727   3.651   2.147   2.623  0.0221 -0.0504 -0.1909
 1128ntf    nn3 7728   3.529   2.239   2.587  0.0745  0.0440 -0.1275
 1128ntf    sn2 7729   3.536   2.394   2.610  0.0768 -0.0243  0.3370
 1128ntf    cn1 7730   3.439   2.388   2.764 -0.1246 -0.2302  0.2025
 1128ntf    fn4 7731   3.752   2.144   2.377 -0.0389  0.2550 -0.4530
 1128ntf    fn4 7732   3.798   2.315   2.473  0.1069 -0.3305 -0.2656
 1128ntf    fn4 7733   3.895   2.139   2.538  0.0158 -0.1859 -0.0374
 1128ntf    on5 7734   3.621   2.008   2.599  0.9698 -0.2537 -0.2543
 1128ntf    on5 7735   3.718   2.178   2.747 -0.5196  0.1197  0.0608
 1128ntf    on5 7736   3.658   2.460   2.649  0.2232  0.1829 -0.4629
 1128ntf    on5 7737   3.451   2.471   2.522  0.1510 -0.5063 -0.1606
 1128ntf    fn4 7738   3.315   2.359   2.730 -0.1422 -0.0536  0.1157
 1128ntf    fn4 7739   3.437   2.495   2.842  0.3359  0.0035 -0.0984
 1128ntf    fn4 7740   3.479   2.282   2.834 -0.1225 -0.4365 -0.1091
 1129ntf    cn1 7741   1.901   4.534   0.342  0.0679  0.3563 -0.0955
 1129ntf    sn2 7742   2.058   4.625   0.336  0.0881  0.3251 -0.0484
 1129ntf    nn3 7743   2.116   4.592   0.478  0.1807  0.4055 -0.0673
 1129ntf    sn2 7744   2.154   4.689   0.595 -0.0500  0.0554  0.3033
 1129ntf    cn1 7745   2.288   4.587   0.661 -0.0465 -0.1493 -0.0177
 1129ntf    fn4 7746   1.847   4.536   0.222 -0.0450 -0.7433 -0.0763
 1129ntf    fn4 7747   1.907   4.408   0.383  0.3037  0.4544  0.1793
 1129ntf    fn4 7748   1.810   4.596   0.416 -0.2032 -0.1286 -0.0134
 1129ntf    on5 7749   2.133   4.559   0.232 -0.1414 -0.3733  0.2210
 1129ntf    on5 7750   2.010   4.758   0.307  0.3795  0.3120 -0.6137
 1129ntf    on5 7751   2.226   4.800   0.536  0.1555 -0.4558 -0.4160
 1129ntf    on5 7752   2.061   4.709   0.704  0.4670 -0.4939  0.8438
 1129ntf    fn4 7753   2.390   4.583   0.577 -0.1848 -0.1215 -0.1883
 1129ntf    fn4 7754   2.251   4.461   0.682 -0.0996 -0.0816  0.2984
 1129ntf    fn4 7755   2.333   4.633   0.776 -0.2029  0.8506 -0.3496
 1130ntf    cn1 7756   5.767   0.674   2.957 -0.3841 -0.0861  0.2571
 1130ntf    sn2 7757   5.888   0.546   3.003  0.2475  0.2802 -0.3598
 1130ntf    nn3 7758   5.821   0.421   2.936 -0.5427  0.5103 -0.0128
 1130ntf    sn2 7759   5.697   0.342   2.991 -0.1179 -0.1268  0.0390
 1130ntf    cn1 7760   5.766   0.176   3.021  0.2464  0.0177  0.0112
 1130ntf    fn4 7761   5.661   0.653   3.032 -0.2462 -0.7484  0.2692
 1130ntf    fn4 7762   5.813   0.792   2.995 -0.1948 -0.1045  0.0894
 1130ntf    fn4 7763   5.725   0.692   2.833 -0.0671 -0.7628  0.0458
 1130ntf    on5 7764   6.006   0.586   2.930  0.7112  0.6568  0.5878
 1130ntf    on5 7765   5.900   0.560   3.146 -0.3390 -0.3819 -0.2402
 1130ntf    on5 7766   5.648   0.386   3.119 -0.4293 -0.4404  0.0299
 1130ntf    on5 7767   5.592   0.317   2.895 -0.1007 -0.0566  0.0023
 1130ntf    fn4 7768   5.812   0.115   2.913  0.1453 -0.3442  0.1699
 1130ntf    fn4 7769   5.683   0.092   3.081  0.2734  0.2320  0.3544
 1130ntf    fn4 7770   5.874   0.185   3.097 -0.1016  0.2453  0.4840
 1131ntf    cn1 7771   3.642   1.932   2.172 -0.0700 -0.0697  0.2607
 1131ntf    sn2 7772   3.542   1.873   2.032  0.2976 -0.1238  0.0210
 1131ntf    nn3 7773   3.638   1.912   1.915  0.0781  0.2828 -0.0270
 1131ntf    sn2 7774   3.732   1.818   1.831 -0.0601 -0.1465  0.2954
 1131ntf    cn1 7775   3.874   1.932   1.819 -0.1804 -0.0059  0.2006
 1131ntf    fn4 7776   3.765   1.885   2.175  0.0566  0.2348 -0.2040
 1131ntf    fn4 7777   3.663   2.063   2.170  0.0603 -0.0840  0.6101
 1131ntf    fn4 7778   3.589   1.890   2.286  0.0516 -0.2665  0.2450
 1131ntf    on5 7779   3.527   1.734   2.066  0.2351 -0.0653  0.2396
 1131ntf    on5 7780   3.423   1.954   2.035  0.2386 -0.1767 -0.6902
 1131ntf    on5 7781   3.786   1.699   1.893 -0.0710 -0.2428  0.1198
 1131ntf    on5 7782   3.689   1.815   1.693 -0.0848 -0.0845  0.3017
 1131ntf    fn4 7783   3.837   2.052   1.776  0.3770  0.0479 -0.1280
 1131ntf    fn4 7784   3.981   1.889   1.756 -0.0706  0.1431  0.2854
 1131ntf    fn4 7785   3.919   1.955   1.942 -0.0514 -0.3227  0.2124
 1132ntf    cn1 7786   2.935   6.227   6.558  0.3929 -0.0888  0.0395
 1132ntf    sn2 7787   3.076   6.219   6.442  0.1638 -0.0053 -0.2464
 1132ntf    nn3 7788   3.177   6.174   6.554  0.1209  0.1612 -0.1400
 1132ntf    sn2 7789   3.320   6.111   6.543  0.1420  0.1429  0.2187
 1132ntf    cn1 7790   3.270   5.937   6.563 -0.3115  0.2555  0.0711
 1132ntf    fn4 7791   2.965   6.277   6.677  0.6675 -0.9368  0.3364
 1132ntf    fn4 7792   2.840   6.305   6.511  0.4234 -0.2434 -0.2851
 1132ntf    fn4 7793   2.878   6.108   6.570 -0.2393  0.1771 -0.3252
 1132ntf    on5 7794   3.029   6.120   6.348  0.9995 -0.1992 -0.4651
 1132ntf    on5 7795   3.101   6.350   6.387 -0.1809 -0.0369 -0.4775
 1132ntf    on5 7796   3.381   6.116   6.413  0.2155 -0.0871  0.2446
 1132ntf    on5 7797   3.407   6.136   6.655  0.6234 -0.0601 -0.1041
 1132ntf    fn4 7798   3.143   5.925   6.527 -0.2517 -0.3092  0.0519
 1132ntf    fn4 7799   3.269   5.877   6.681  0.1358 -0.1044 -0.1102
 1132ntf    fn4 7800   3.339   5.860   6.481 -0.0934  0.2987  0.2143
 1133ntf    cn1 7801   1.011   3.285   2.196  0.0010  0.1870  0.0211
 1133ntf    sn2 7802   1.110   3.200   2.323  0.0986 -0.1290 -0.2654
 1133ntf    nn3 7803   1.165   3.088   2.227 -0.2117 -0.3515 -0.1859
 1133ntf    sn2 7804   1.157   2.931   2.231 -0.0954 -0.3532  0.0086
 1133ntf    cn1 7805   1.325   2.889   2.286 -0.0846  0.3964  0.5730
 1133ntf    fn4 7806   0.968   3.407   2.222 -0.2096  0.2104 -0.4278
 1133ntf    fn4 7807   1.074   3.301   2.081  0.0165  0.3213  0.0484
 1133ntf    fn4 7808   0.911   3.207   2.157  0.3879 -0.3316  0.0539
 1133ntf    on5 7809   1.200   3.305   2.362 -0.0436 -0.0987 -0.0171
 1133ntf    on5 7810   1.010   3.159   2.419 -0.2746  0.4313 -0.4082
 1133ntf    on5 7811   1.075   2.874   2.335  0.1030  0.2683  0.5157
 1133ntf    on5 7812   1.150   2.880   2.097 -0.0653  0.4358 -0.3015
 1133ntf    fn4 7813   1.405   2.994   2.273  0.1791  0.0867 -0.4325
 1133ntf    fn4 7814   1.384   2.793   2.215 -0.3643  0.5154  0.1749
 1133ntf    fn4 7815   1.329   2.855   2.413  0.0649 -0.0960  0.4419
 1134ntf    cn1 7816   2.204   6.443   0.605  0.0067 -0.1725  0.2096
 1134ntf    sn2 7817   2.164   6.540   0.753 -0.1286  0.0054  0.0565
 1134ntf    nn3 7818   2.222   6.434   0.853 -0.1255 -0.1872 -0.1496
 1134ntf    sn2 7819   2.344   6.437   0.951 -0.0383  0.1466 -0.2685
 1134ntf    cn1 7820   2.475   6.422   0.826  0.0982 -0.2695 -0.0763
 1134ntf    fn4 7821   2.118   6.465   0.507  0.1985 -0.2426  0.0243
 1134ntf    fn4 7822   2.324   6.463   0.554 -0.3020  0.2995 -0.3408
 1134ntf    fn4 7823   2.188   6.314   0.627 -0.3529 -0.1308  0.1983
 1134ntf    on5 7824   2.235   6.665   0.744 -0.1190 -0.0231 -0.2811
 1134ntf    on5 7825   2.020   6.541   0.761 -0.1432 -0.5424 -0.1283
 1134ntf    on5 7826   2.371   6.564   1.014 -0.2185  0.1009 -0.0999
 1134ntf    on5 7827   2.355   6.317   1.031  0.2946  0.2125 -0.2107
 1134ntf    fn4 7828   2.597   6.441   0.873  0.0483 -0.1657  0.0094
 1134ntf    fn4 7829   2.473   6.507   0.725  0.2872  0.1139  0.2427
 1134ntf    fn4 7830   2.480   6.302   0.770 -0.7824 -0.0997 -0.5249
 1135ntf    cn1 7831   0.736   4.532   2.847 -0.3413 -0.2746  0.1446
 1135ntf    sn2 7832   0.660   4.548   3.011 -0.1372 -0.0928  0.2217
 1135ntf    nn3 7833   0.514   4.591   2.972 -0.1249 -0.1005  0.1677
 1135ntf    sn2 7834   0.392   4.493   2.963 -0.1196 -0.0882 -0.0241
 1135ntf    cn1 7835   0.365   4.454   3.138 -0.0290 -0.4102 -0.0820
 1135ntf    fn4 7836   0.868   4.542   2.852 -0.3157 -0.3002 -0.3918
 1135ntf    fn4 7837   0.691   4.427   2.780  0.4447 -0.2022 -0.5114
 1135ntf    fn4 7838   0.696   4.630   2.768 -0.3308 -0.5240 -0.1738
 1135ntf    on5 7839   0.678   4.418   3.072  0.4777 -0.2649 -0.3213
 1135ntf    on5 7840   0.739   4.657   3.062  0.3616 -0.1127 -0.4936
 1135ntf    on5 7841   0.273   4.569   2.933 -0.1306 -0.1512 -0.1415
 1135ntf    on5 7842   0.407   4.366   2.897  0.4376  0.0833 -0.2315
 1135ntf    fn4 7843   0.274   4.359   3.144 -0.1066 -0.2982  0.5319
 1135ntf    fn4 7844   0.322   4.553   3.214  0.1511  0.1298 -0.6751
 1135ntf    fn4 7845   0.477   4.400   3.185  0.0206 -0.3382 -0.1178
 1136ntf    cn1 7846   0.792   3.377   2.798 -0.0875 -0.1036  0.1873
 1136ntf    sn2 7847   0.769   3.198   2.811 -0.0895 -0.1200 -0.0483
 1136ntf    nn3 7848   0.808   3.168   2.960 -0.6755 -0.4390  0.0440
 1136ntf    sn2 7849   0.743   3.078   3.071 -0.1940 -0.1807  0.5391
 1136ntf    cn1 7850   0.818   2.915   3.042  0.0658 -0.0082  0.2328
 1136ntf    fn4 7851   0.737   3.457   2.888 -0.3647 -0.1632  0.0705
 1136ntf    fn4 7852   0.921   3.407   2.792 -0.0912  0.0273  0.6743
 1136ntf    fn4 7853   0.743   3.429   2.686  0.1422  0.1408  0.1971
 1136ntf    on5 7854   0.629   3.188   2.777 -0.1617 -0.0046  0.2143
 1136ntf    on5 7855   0.871   3.145   2.723  0.1721 -0.4704  0.4612
 1136ntf    on5 7856   0.787   3.118   3.203 -0.3268  0.5128  0.3777
 1136ntf    on5 7857   0.602   3.058   3.047 -0.1134  0.4031 -0.4807
 1136ntf    fn4 7858   0.942   2.929   2.999  0.0286 -0.2724  0.0331
 1136ntf    fn4 7859   0.752   2.851   2.947  0.0949  0.2322  0.0501
 1136ntf    fn4 7860   0.822   2.841   3.152  0.3198  0.1665  0.3425
 1137ntf    cn1 7861   5.325   5.488   5.066  0.0237 -0.2431  0.0690
 1137ntf    sn2 7862   5.308   5.630   5.179 -0.1547 -0.1839 -0.0330
 1137ntf    nn3 7863   5.381   5.575   5.307  0.3099  0.0297 -0.2051
 1137ntf    sn2 7864   5.513   5.620   5.379  0.3579 -0.3630 -0.0433
 1137ntf    cn1 7865   5.445   5.722   5.513  0.1174  0.0838 -0.5018
 1137ntf    fn4 7866   5.264   5.511   4.951 -0.0031  0.3152  0.1919
 1137ntf    fn4 7867   5.451   5.468   5.031  0.0295  0.1257 -0.1245
 1137ntf    fn4 7868   5.279   5.375   5.117  0.1022 -0.1758  0.2910
 1137ntf    on5 7869   5.371   5.734   5.101  0.2865 -0.2387  0.2482
 1137ntf    on5 7870   5.166   5.642   5.203 -0.2895  0.7488 -1.2406
 1137ntf    on5 7871   5.570   5.509   5.450  0.3612  0.0686  0.6335
 1137ntf    on5 7872   5.605   5.707   5.311 -0.6058  0.6025 -0.1453
 1137ntf    fn4 7873   5.545   5.745   5.597 -0.1803 -0.7866  0.1139
 1137ntf    fn4 7874   5.359   5.646   5.579 -0.2507  0.7202 -0.2421
 1137ntf    fn4 7875   5.385   5.835   5.479 -0.0157  0.1095 -0.1867
 1138ntf    cn1 7876   4.023   0.210   5.646  0.4254  0.0565 -0.1234
 1138ntf    sn2 7877   3.892   0.087   5.626  0.0435  0.4095  0.1963
 1138ntf    nn3 7878   3.939   0.018   5.493 -0.3738 -0.2401  0.3776
 1138ntf    sn2 7879   3.922   0.075   5.347  0.1036 -0.4090  0.2562
 1138ntf    cn1 7880   3.942  -0.085   5.263  0.1507 -0.3426  0.1411
 1138ntf    fn4 7881   4.145   0.160   5.658  0.5137  0.2109 -0.3711
 1138ntf    fn4 7882   4.024   0.311   5.560  0.4088  0.1773  0.0183
 1138ntf    fn4 7883   4.004   0.273   5.761  0.2996  0.1768 -0.2099
 1138ntf    on5 7884   3.909  -0.004   5.737 -0.7952  0.1073  0.0889
 1138ntf    on5 7885   3.771   0.165   5.624 -0.1400  0.1213 -0.0239
 1138ntf    on5 7886   3.786   0.112   5.317  0.4404  0.8303  0.2318
 1138ntf    on5 7887   4.030   0.159   5.301  0.2056 -0.5366  0.2607
 1138ntf    fn4 7888   3.834  -0.161   5.273  0.3382 -0.6382 -0.0410
 1138ntf    fn4 7889   4.044  -0.145   5.323  0.2945 -0.3142 -0.0747
 1138ntf    fn4 7890   3.974  -0.074   5.135  0.0188  0.4464  0.1732
 1139ntf    cn1 7891   0.366   0.182   6.521  0.1909 -0.0874 -0.1058
 1139ntf    sn2 7892   0.293   0.136   6.362  0.5516 -0.2325 -0.2314
 1139ntf    nn3 7893   0.408   0.069   6.279  1.1208 -0.0924  0.4398
 1139ntf    sn2 7894   0.472   0.125   6.147 -0.1888  0.2575 -0.0687
 1139ntf    cn1 7895   0.340   0.095   6.025 -0.0093  0.0890 -0.2242
 1139ntf    fn4 7896   0.435   0.085   6.578 -0.1651  0.0675  0.5962
 1139ntf    fn4 7897   0.460   0.275   6.507  0.1127  0.0475  0.2383
 1139ntf    fn4 7898   0.283   0.226   6.614  0.3116 -0.5786  0.2384
 1139ntf    on5 7899   0.188   0.044   6.398  0.4125  0.1908  0.4711
 1139ntf    on5 7900   0.238   0.260   6.312  0.0085 -0.5211 -0.3620
 1139ntf    on5 7901   0.486   0.268   6.144  0.2294  0.2437  0.7271
 1139ntf    on5 7902   0.582   0.051   6.090 -0.0847  0.2740  0.1117
 1139ntf    fn4 7903   0.316  -0.031   5.994  0.2865 -0.0150 -0.0356
 1139ntf    fn4 7904   0.374   0.166   5.918  0.6167  0.1583  0.0127
 1139ntf    fn4 7905   0.231   0.151   6.074  0.1810  0.2382  0.0378
 1140ntf    cn1 7906   0.012   3.344   3.520 -0.2068  0.2565  0.2769
 1140ntf    sn2 7907  -0.159   3.398   3.547 -0.2340  0.4355 -0.2362
 1140ntf    nn3 7908  -0.197   3.309   3.670 -0.4090  0.3720 -0.3361
 1140ntf    sn2 7909  -0.325   3.220   3.690 -0.0293 -0.0888  0.0879
 1140ntf    cn1 7910  -0.307   3.158   3.860 -0.1864  0.2986  0.2458
 1140ntf    fn4 7911   0.058   3.386   3.402  0.0014  0.0092  0.2687
 1140ntf    fn4 7912   0.087   3.391   3.618 -0.1174  0.5960  0.0490
 1140ntf    fn4 7913   0.031   3.213   3.515  0.1156  0.3095  0.0744
 1140ntf    on5 7914  -0.141   3.535   3.589  0.3893 -0.0596  1.1642
 1140ntf    on5 7915  -0.230   3.371   3.424  0.3069 -0.2534 -0.4018
 1140ntf    on5 7916  -0.452   3.289   3.694 -0.0298 -0.0487 -0.5048
 1140ntf    on5 7917  -0.322   3.096   3.616 -0.6701  0.2872 -0.5826
 1140ntf    fn4 7918  -0.296   3.251   3.954  0.5295 -0.1222  0.5852
 1140ntf    fn4 7919  -0.212   3.068   3.879  0.2653  0.6449 -0.3255
 1140ntf    fn4 7920  -0.423   3.098   3.880 -0.1569  0.2264  0.2029
 1141ntf    cn1 7921   5.076   4.456   3.515  0.1333  0.2872 -0.0827
 1141ntf    sn2 7922   4.997   4.592   3.425 -0.1707  0.1876  0.0341
 1141ntf    nn3 7923   4.866   4.599   3.512 -0.0041 -0.8096  0.3745
 1141ntf    sn2 7924   4.720   4.555   3.474 -0.0653 -0.1615 -0.1586
 1141ntf    cn1 7925   4.653   4.696   3.382 -0.2020 -0.1306 -0.0115
 1141ntf    fn4 7926   5.186   4.417   3.451 -0.0542 -0.2704 -0.0749
 1141ntf    fn4 7927   5.092   4.484   3.643  0.1980  0.0172 -0.0293
 1141ntf    fn4 7928   4.992   4.354   3.521  0.0818  0.3221 -0.2060
 1141ntf    on5 7929   5.085   4.704   3.446  0.2912 -0.0934 -0.3667
 1141ntf    on5 7930   4.980   4.553   3.287  0.0265  0.0067  0.0600
 1141ntf    on5 7931   4.706   4.447   3.379 -0.9516 -0.0340 -0.1748
 1141ntf    on5 7932   4.640   4.528   3.590 -0.1310  0.2606 -0.1027
 1141ntf    fn4 7933   4.570   4.660   3.285 -0.3430 -0.5344  0.2577
 1141ntf    fn4 7934   4.748   4.760   3.315 -0.1346  0.5131  0.6799
 1141ntf    fn4 7935   4.595   4.781   3.465 -0.1977 -0.1624  0.0240
 1142ntf    cn1 7936   2.053   1.459   1.458 -0.2127 -0.1524 -0.4707
 1142ntf    sn2 7937   2.041   1.298   1.542 -0.3026  0.1447  0.0955
 1142ntf    nn3 7938   1.890   1.263   1.520 -0.1007 -0.6881  0.0174
 1142ntf    sn2 7939   1.764   1.276   1.612  0.2598  0.4152  0.3645
 1142ntf    cn1 7940   1.627   1.266   1.492 -0.0485 -0.1152  0.7577
 1142ntf    fn4 7941   2.021   1.441   1.331  0.4748  0.6253 -0.7659
 1142ntf    fn4 7942   1.981   1.558   1.510 -0.0045 -0.0008 -0.4683
 1142ntf    fn4 7943   2.178   1.501   1.471 -0.2643 -0.0335 -0.3463
 1142ntf    on5 7944   2.134   1.207   1.480 -0.8097 -0.2214 -0.1321
 1142ntf    on5 7945   2.080   1.329   1.677 -0.2257  0.5917 -0.0275
 1142ntf    on5 7946   1.743   1.164   1.700  0.4425  0.3152  0.2804
 1142ntf    on5 7947   1.738   1.408   1.664 -0.6043  0.6160 -0.5375
 1142ntf    fn4 7948   1.623   1.381   1.427 -0.2444 -0.4635  0.1522
 1142ntf    fn4 7949   1.509   1.241   1.547 -0.1699 -0.4148  0.3664
 1142ntf    fn4 7950   1.645   1.179   1.394  0.5211  0.3263  0.4651
 1143ntf    cn1 7951   6.172   5.198   0.834  0.0821  0.4876  0.0075
 1143ntf    sn2 7952   6.154   5.292   0.989  0.5146  0.1437  0.2699
 1143ntf    nn3 7953   6.065   5.204   1.085 -0.0049  0.2608 -0.0967
 1143ntf    sn2 7954   6.108   5.101   1.196  0.2081  0.2834 -0.1574
 1143ntf    cn1 7955   5.982   5.142   1.320  0.3416 -0.2520  0.1547
 1143ntf    fn4 7956   6.222   5.281   0.744  0.0727  0.1636 -0.2974
 1143ntf    fn4 7957   6.252   5.094   0.853  0.1953  0.6137  0.2309
 1143ntf    fn4 7958   6.058   5.149   0.789  0.1986  0.1298  0.0987
 1143ntf    on5 7959   6.290   5.304   1.034  0.2995  0.2364  0.9134
 1143ntf    on5 7960   6.077   5.406   0.946 -0.3353 -0.2877  0.6216
 1143ntf    on5 7961   6.082   4.965   1.158 -0.8029  0.4393 -0.0412
 1143ntf    on5 7962   6.231   5.130   1.265  0.1839 -0.3921  0.1748
 1143ntf    fn4 7963   5.861   5.150   1.269  0.4381 -0.8565 -0.1820
 1143ntf    fn4 7964   5.994   5.259   1.380  0.0463  0.1160 -0.5032
 1143ntf    fn4 7965   5.979   5.048   1.413  0.2813 -0.3924  0.0110
 1144ntf    cn1 7966   4.179   3.772   6.206  0.1197 -0.0345 -0.2317
 1144ntf    sn2 7967   4.269   3.744   6.051 -0.0365  0.1718 -0.3612
 1144ntf    nn3 7968   4.240   3.884   5.985 -0.1202  0.1372 -0.3994
 1144ntf    sn2 7969   4.221   3.924   5.835 -0.2695  0.4236 -0.3045
 1144ntf    cn1 7970   4.039   3.927   5.832 -0.2943 -0.0975  0.4145
 1144ntf    fn4 7971   4.246   3.855   6.284  0.2462 -0.4125  0.0592
 1144ntf    fn4 7972   4.064   3.835   6.186  0.3483  0.4542 -0.0346
 1144ntf    fn4 7973   4.154   3.658   6.268 -0.1208  0.2241  0.1472
 1144ntf    on5 7974   4.403   3.722   6.100 -0.1735 -0.1170 -0.1127
 1144ntf    on5 7975   4.189   3.637   5.996  0.3149 -0.1750 -0.2004
 1144ntf    on5 7976   4.253   4.063   5.814  0.1484  0.3027 -0.4719
 1144ntf    on5 7977   4.248   3.830   5.729  0.4778 -0.3575  0.5657
 1144ntf    fn4 7978   3.973   4.002   5.920  0.1441  0.0713  0.6011
 1144ntf    fn4 7979   3.995   3.803   5.844 -0.2421 -0.1737 -0.1756
 1144ntf    fn4 7980   3.992   3.962   5.714  1.0279  0.1737 -0.0494
 1145ntf    cn1 7981   1.803   4.390   3.328  0.0630 -0.1142 -0.1721
 1145ntf    sn2 7982   1.906   4.481   3.446 -0.1013 -0.0048 -0.1117
 1145ntf    nn3 7983   2.019   4.537   3.351 -0.1607  0.1145 -0.1115
 1145ntf    sn2 7984   2.150   4.458   3.318 -0.0641  0.2490 -0.0471
 1145ntf    cn1 7985   2.159   4.481   3.137  0.4676 -0.0313 -0.0584
 1145ntf    fn4 7986   1.732   4.472   3.252  0.3537 -0.0436 -0.3646
 1145ntf    fn4 7987   1.877   4.319   3.245  0.3433  0.5405 -0.4885
 1145ntf    fn4 7988   1.712   4.313   3.386  0.0506  0.1950  0.2213
 1145ntf    on5 7989   1.810   4.573   3.501 -0.1587  0.1168 -0.4149
 1145ntf    on5 7990   1.944   4.386   3.548  0.3804  0.3526  0.0473
 1145ntf    on5 7991   2.272   4.527   3.355  0.0122 -0.1620  0.4705
 1145ntf    on5 7992   2.147   4.316   3.337 -0.2646  0.3172  0.4473
 1145ntf    fn4 7993   2.147   4.611   3.114  0.0069 -0.0976 -0.1891
 1145ntf    fn4 7994   2.063   4.417   3.074  0.0813  0.4524  0.0305
 1145ntf    fn4 7995   2.275   4.447   3.084  0.2823 -0.2916 -0.2951
 1146ntf    cn1 7996   0.939   4.000   6.515 -0.6662 -0.7611  0.3413
 1146ntf    sn2 7997   1.037   3.936   6.654  0.1096  0.2497  0.2686
 1146ntf    nn3 7998   1.168   3.884   6.584 -0.1096 -0.1966  0.1876
 1146ntf    sn2 7999   1.192   3.733   6.548  0.3402 -0.1595  0.3232
 1146ntf    cn1 8000   1.357   3.744   6.474  0.2258  0.4581  0.1533
 1146ntf    fn4 8001   0.940   3.922   6.407  0.2177 -0.1494 -0.0995
 1146ntf    fn4 8002   0.814   4.037   6.537 -0.4431  0.2211 -0.0073
 1146ntf    fn4 8003   0.993   4.114   6.475 -0.6762 -0.8870 -0.0450
 1146ntf    on5 8004   1.052   4.056   6.732 -0.5076  0.4862  0.0345
 1146ntf    on5 8005   0.946   3.836   6.704 -0.2247  0.6024  0.3711
 1146ntf    on5 8006   1.208   3.642   6.659 -0.0984 -0.5647  0.0607
 1146ntf    on5 8007   1.112   3.691   6.435  0.0342 -0.5422  0.6763
 1146ntf    fn4 8008   1.443   3.789   6.564  0.0273  0.5203  0.3118
 1146ntf    fn4 8009   1.355   3.835   6.379  0.7067  0.3323  0.0189
 1146ntf    fn4 8010   1.394   3.628   6.420  0.1754  0.5617 -0.1065
 1147ntf    cn1 8011   3.622   3.877   3.419 -0.2743 -0.0020  0.1935
 1147ntf    sn2 8012   3.740   3.762   3.496  0.2393  0.3575 -0.0520
 1147ntf    nn3 8013   3.674   3.630   3.442 -0.4111  0.6600 -0.0008
 1147ntf    sn2 8014   3.734   3.543   3.326 -0.3249  0.4163  0.2267
 1147ntf    cn1 8015   3.865   3.455   3.417  0.0073  0.3220 -0.3382
 1147ntf    fn4 8016   3.497   3.842   3.442 -0.4153  0.3251 -0.0723
 1147ntf    fn4 8017   3.639   4.003   3.456 -0.1554  0.0787 -0.1335
 1147ntf    fn4 8018   3.637   3.873   3.288  0.4904 -0.5436  0.2899
 1147ntf    on5 8019   3.867   3.804   3.442  0.3276  0.3196  0.1257
 1147ntf    on5 8020   3.716   3.782   3.636  0.4676  0.0290  0.0362
 1147ntf    on5 8021   3.643   3.437   3.290 -0.1827  0.3911 -0.0619
 1147ntf    on5 8022   3.807   3.611   3.222 -0.0816 -0.8428 -0.4506
 1147ntf    fn4 8023   3.819   3.428   3.538  0.3525 -0.6865 -0.4191
 1147ntf    fn4 8024   3.978   3.523   3.420 -0.1563  0.5795  0.0882
 1147ntf    fn4 8025   3.895   3.342   3.356 -0.0362  0.2717 -0.2678
 1148ntf    cn1 8026   6.500   6.293   0.503 -0.1729 -0.2938  0.1179
 1148ntf    sn2 8027   6.350   6.269   0.603 -0.1681  0.1142  0.2245
 1148ntf    nn3 8028   6.408   6.170   0.711 -0.1388  0.1722  0.2618
 1148ntf    sn2 8029   6.325   6.046   0.759 -0.0842  0.0918  0.1494
 1148ntf    cn1 8030   6.172   6.130   0.810 -0.0043  0.4429 -0.1901
 1148ntf    fn4 8031   6.577   6.381   0.565  0.2613 -0.5374 -0.0745
 1148ntf    fn4 8032   6.572   6.184   0.479  0.2697  0.0112  0.0487
 1148ntf    fn4 8033   6.475   6.335   0.380  0.3272  0.3876  0.2457
 1148ntf    on5 8034   6.315   6.398   0.655  0.5656  0.1169  0.7261
 1148ntf    on5 8035   6.265   6.204   0.506 -0.2857  0.5156  0.0570
 1148ntf    on5 8036   6.278   5.957   0.656  0.1377  0.1560 -0.0074
 1148ntf    on5 8037   6.373   5.988   0.882  0.0112 -0.2985 -0.0701
 1148ntf    fn4 8038   6.097   6.036   0.865 -0.0970  0.3057 -0.5443
 1148ntf    fn4 8039   6.100   6.187   0.714 -0.3634 -0.2575 -0.3422
 1148ntf    fn4 8040   6.187   6.220   0.906 -0.6528  0.1084  0.2293
 1149ntf    cn1 8041   2.459   4.697   5.732 -0.0162  0.0135  0.0428
 1149ntf    sn2 8042   2.498   4.874   5.729 -0.0231  0.0138 -0.0143
 1149ntf    nn3 8043   2.367   4.933   5.793 -0.3342 -0.6162 -0.0661
 1149ntf    sn2 8044   2.243   4.996   5.721 -0.2283 -0.0958  0.1978
 1149ntf    cn1 8045   2.312   5.163   5.709  0.1056 -0.1855  0.8354
 1149ntf    fn4 8046   2.548   4.628   5.663 -0.4084 -0.2987 -0.1598
 1149ntf    fn4 8047   2.454   4.655   5.857  0.2410  0.0990  0.0808
 1149ntf    fn4 8048   2.345   4.667   5.670  0.2059 -0.4117 -0.1677
 1149ntf    on5 8049   2.610   4.890   5.818 -0.1303 -0.2883  0.1754
 1149ntf    on5 8050   2.532   4.903   5.592  0.6277 -0.0784  0.1260
 1149ntf    on5 8051   2.212   4.966   5.583  0.1298  0.3330  0.0222
 1149ntf    on5 8052   2.129   5.015   5.807 -0.3938  0.2576 -0.0981
 1149ntf    fn4 8053   2.420   5.165   5.632 -0.0836  0.9098  0.5683
 1149ntf    fn4 8054   2.341   5.222   5.824  0.0707  0.2815  0.6094
 1149ntf    fn4 8055   2.236   5.250   5.643  0.1372 -0.4430  0.4527
 1150ntf    cn1 8056   5.451   6.444   5.692 -0.1007 -0.3294  0.0814
 1150ntf    sn2 8057   5.457   6.339   5.840  0.1472 -0.0633  0.2614
 1150ntf    nn3 8058   5.309   6.354   5.891 -0.1188  0.0409 -0.5301
 1150ntf    sn2 8059   5.198   6.245   5.910  0.0641 -0.0521  0.0070
 1150ntf    cn1 8060   5.226   6.185   6.080  0.3762 -0.1458 -0.0770
 1150ntf    fn4 8061   5.381   6.386   5.596  0.0492 -0.3313 -0.0270
 1150ntf    fn4 8062   5.395   6.559   5.727 -0.2382 -0.2965 -0.2400
 1150ntf    fn4 8063   5.568   6.474   5.639 -0.0464 -0.4696  0.1229
 1150ntf    on5 8064   5.494   6.213   5.780  0.4422  0.4668 -0.6921
 1150ntf    on5 8065   5.552   6.416   5.916  0.0522  0.3565 -0.0376
 1150ntf    on5 8066   5.071   6.312   5.919  0.3429  0.5364 -0.4568
 1150ntf    on5 8067   5.203   6.131   5.821  0.4536 -0.0573  0.0348
 1150ntf    fn4 8068   5.199   6.270   6.177 -0.3840 -0.3323 -0.1164
 1150ntf    fn4 8069   5.351   6.147   6.102  0.2443 -0.7575 -0.3534
 1150ntf    fn4 8070   5.148   6.082   6.107  0.1251  0.0884  0.0984
 1151ntf    cn1 8071   0.156   5.096   1.598 -0.0719 -0.1009 -0.1205
 1151ntf    sn2 8072   0.046   4.951   1.593 -0.1263 -0.0742  0.2455
 1151ntf    nn3 8073   0.160   4.844   1.576 -0.0528  0.0393  0.0149
 1151ntf    sn2 8074   0.163   4.693   1.532  0.2759  0.0003  0.1654
 1151ntf    cn1 8075   0.248   4.614   1.672 -0.0526 -0.3882  0.1444
 1151ntf    fn4 8076   0.280   5.061   1.568  0.1876  0.3720  0.3796
 1151ntf    fn4 8077   0.121   5.190   1.512 -0.4175 -0.2713 -0.1705
 1151ntf    fn4 8078   0.156   5.149   1.719 -0.5927 -0.5222  0.0685
 1151ntf    on5 8079  -0.011   4.971   1.724 -0.0065  0.3034  0.2427
 1151ntf    on5 8080  -0.029   4.964   1.471  0.2268  0.4073  0.0769
 1151ntf    on5 8081   0.038   4.623   1.522  0.3154 -0.1021  0.3801
 1151ntf    on5 8082   0.257   4.676   1.423  0.0528 -0.2507  0.0115
 1151ntf    fn4 8083   0.369   4.662   1.696 -0.2040 -0.0008  0.1356
 1151ntf    fn4 8084   0.267   4.484   1.657  0.0214 -0.3037 -0.5563
 1151ntf    fn4 8085   0.178   4.611   1.784 -0.5621  0.2606 -0.1517
 1152ntf    cn1 8086   3.476   3.246   2.746  0.2730 -0.2986  0.2773
 1152ntf    sn2 8087   3.611   3.179   2.644  0.2324 -0.2843  0.2156
 1152ntf    nn3 8088   3.669   3.070   2.740  1.0290  0.2984  0.4040
 1152ntf    sn2 8089   3.584   2.958   2.810  0.4674  0.1970 -0.4250
 1152ntf    cn1 8090   3.711   2.827   2.811  0.1431 -0.1189 -0.0447
 1152ntf    fn4 8091   3.525   3.286   2.863 -0.5037 -0.5120  0.6798
 1152ntf    fn4 8092   3.421   3.351   2.688  0.0840 -0.6417 -0.1622
 1152ntf    fn4 8093   3.375   3.163   2.767 -0.0576  0.0882  0.2263
 1152ntf    on5 8094   3.525   3.136   2.536  0.2288 -0.5788  0.3374
 1152ntf    on5 8095   3.700   3.289   2.616  0.0317 -0.1744 -0.0006
 1152ntf    on5 8096   3.565   2.978   2.952 -0.2573 -0.3674 -0.4400
 1152ntf    on5 8097   3.477   2.896   2.735 -0.3311  0.5793  0.3831
 1152ntf    fn4 8098   3.745   2.795   2.687  0.0108  0.2071 -0.1687
 1152ntf    fn4 8099   3.666   2.716   2.867  0.1285  0.0413  0.2637
 1152ntf    fn4 8100   3.821   2.866   2.873  0.2808 -0.3357 -0.1539
 1153ntf    cn1 8101   4.010   2.152   0.792 -0.1536 -0.0368  0.1295
 1153ntf    sn2 8102   3.978   2.129   0.615  0.1052  0.1620  0.0559
 1153ntf    nn3 8103   4.119   2.171   0.560  0.1917 -0.0156  0.1421
 1153ntf    sn2 8104   4.174   2.317   0.549  0.0971  0.0113  0.0284
 1153ntf    cn1 8105   4.300   2.308   0.418  0.1630  0.6166  0.0452
 1153ntf    fn4 8106   4.020   2.278   0.829  0.0285  0.0858 -0.3340
 1153ntf    fn4 8107   3.902   2.105   0.852  0.1487 -0.5250  0.2996
 1153ntf    fn4 8108   4.116   2.085   0.837  0.2699  0.2070 -0.4954
 1153ntf    on5 8109   3.960   1.987   0.597 -0.3760  0.1916  0.3095
 1153ntf    on5 8110   3.866   2.215   0.588  0.1504  0.1249 -0.2533
 1153ntf    on5 8111   4.073   2.404   0.493 -0.0947 -0.5564 -0.5179
 1153ntf    on5 8112   4.256   2.365   0.658  0.2954  0.3367 -0.2589
 1153ntf    fn4 8113   4.362   2.425   0.419 -0.1733  0.7965  0.2662
 1153ntf    fn4 8114   4.262   2.291   0.293  0.4605 -0.1000  0.0478
 1153ntf    fn4 8115   4.393   2.218   0.444  0.0838  0.4703 -0.1804
 1154ntf    cn1 8116   4.877   3.671   4.166 -0.1285 -0.0550 -0.1631
 1154ntf    sn2 8117   4.968   3.565   4.049  0.0026  0.0091 -0.1186
 1154ntf    nn3 8118   4.875   3.438   4.053  0.2156 -0.1372  0.1708
 1154ntf    sn2 8119   4.874   3.320   4.156  0.2004 -0.1825  0.1195
 1154ntf    cn1 8120   4.981   3.206   4.064  0.0870  0.0983 -0.3639
 1154ntf    fn4 8121   4.851   3.598   4.273  0.7963  0.1408  0.2019
 1154ntf    fn4 8122   4.953   3.768   4.212  0.3707 -0.3013 -0.4657
 1154ntf    fn4 8123   4.768   3.733   4.121  0.1262  0.5994  0.1053
 1154ntf    on5 8124   4.963   3.631   3.921  0.2653 -0.3347 -0.3059
 1154ntf    on5 8125   5.098   3.566   4.111 -0.3154  0.4292  0.5574
 1154ntf    on5 8126   4.941   3.345   4.281 -0.5656 -0.3292  0.5655
 1154ntf    on5 8127   4.746   3.253   4.164 -0.0380  0.2981  0.4131
 1154ntf    fn4 8128   5.093   3.261   4.019  0.2857  0.0364  0.0443
 1154ntf    fn4 8129   4.928   3.148   3.958  0.0869 -0.0845 -0.2638
 1154ntf    fn4 8130   5.019   3.106   4.142 -0.7148 -0.4148 -0.6286
 1155ntf    cn1 8131   4.564   6.088   4.849  0.1792 -0.2997  0.0757
 1155ntf    sn2 8132   4.492   5.947   4.759 -0.0358  0.0929 -0.3697
 1155ntf    nn3 8133   4.569   5.933   4.623  0.1482 -0.4768 -0.2061
 1155ntf    sn2 8134   4.725   5.931   4.601  0.2514  0.1845  0.4188
 1155ntf    cn1 8135   4.744   5.776   4.507 -0.2533  0.3805 -0.0161
 1155ntf    fn4 8136   4.519   6.105   4.972 -0.0308 -0.2755 -0.0047
 1155ntf    fn4 8137   4.696   6.083   4.857  0.2143  0.2726 -0.1348
 1155ntf    fn4 8138   4.532   6.203   4.792 -0.5487 -0.1438  0.7841
 1155ntf    on5 8139   4.514   5.831   4.841  0.3431  0.3908 -0.0461
 1155ntf    on5 8140   4.352   5.980   4.744 -0.1703 -0.2830  0.0424
 1155ntf    on5 8141   4.763   6.031   4.505  0.3437 -0.1324  0.1224
 1155ntf    on5 8142   4.805   5.905   4.718  0.7087  0.1898  0.1106
 1155ntf    fn4 8143   4.637   5.700   4.523 -0.0639  0.1290  0.0579
 1155ntf    fn4 8144   4.858   5.718   4.543 -0.1023  0.4338 -0.4028
 1155ntf    fn4 8145   4.744   5.810   4.379  0.3838 -0.2174 -0.1781
 1156ntf    cn1 8146   4.076   0.879   3.612 -0.3077 -0.1748 -0.0100
 1156ntf    sn2 8147   4.104   0.702   3.640 -0.3296 -0.2259 -0.3080
 1156ntf    nn3 8148   3.978   0.664   3.726 -0.0178 -0.2005  0.1590
 1156ntf    sn2 8149   3.970   0.638   3.881  0.1846 -0.0696  0.1936
 1156ntf    cn1 8150   3.798   0.690   3.911  0.2457  0.2014  0.0746
 1156ntf    fn4 8151   3.968   0.896   3.538 -0.2474  0.0113 -0.0558
 1156ntf    fn4 8152   4.051   0.944   3.724  0.2544  0.4024 -0.2124
 1156ntf    fn4 8153   4.184   0.938   3.562 -0.2716 -0.2055  0.0322
 1156ntf    on5 8154   4.096   0.647   3.507 -0.0137  0.0820 -0.4550
 1156ntf    on5 8155   4.235   0.701   3.700 -0.6737 -0.1577  0.4488
 1156ntf    on5 8156   3.967   0.498   3.918 -0.2726 -0.3172 -0.7370
 1156ntf    on5 8157   4.046   0.732   3.959 -0.0161  0.5517 -0.3505
 1156ntf    fn4 8158   3.765   0.690   4.039  0.0084 -0.7940  0.0247
 1156ntf    fn4 8159   3.705   0.622   3.847  0.1994  0.2899  0.0471
 1156ntf    fn4 8160   3.782   0.816   3.874  0.0148  0.2912  0.4781
 1157ntf    cn1 8161   4.930   5.515   3.444 -0.4121 -0.1482  0.0629
 1157ntf    sn2 8162   4.895   5.691   3.415  0.1471 -0.1086 -0.3916
 1157ntf    nn3 8163   4.945   5.758   3.548 -0.5480  0.1854 -0.2751
 1157ntf    sn2 8164   4.868   5.801   3.678 -0.2178  0.2387 -0.0959
 1157ntf    cn1 8165   5.014   5.834   3.781  0.0786 -0.7236 -0.1972
 1157ntf    fn4 8166   5.059   5.489   3.459 -0.3772  0.2230  0.4136
 1157ntf    fn4 8167   4.860   5.468   3.546 -0.3987  0.5722  0.4113
 1157ntf    fn4 8168   4.896   5.442   3.339 -0.0787  0.0724 -0.2006
 1157ntf    on5 8169   4.973   5.723   3.298  0.2398 -0.2399 -0.3673
 1157ntf    on5 8170   4.752   5.688   3.394  0.1085  0.3425 -0.2015
 1157ntf    on5 8171   4.800   5.928   3.676 -0.6223  0.0324  0.3744
 1157ntf    on5 8172   4.800   5.687   3.734 -0.0573  0.0674 -0.2486
 1157ntf    fn4 8173   4.979   5.871   3.903 -0.0737 -0.4869 -0.3125
 1157ntf    fn4 8174   5.094   5.930   3.739 -0.1782 -0.2612  0.3481
 1157ntf    fn4 8175   5.097   5.731   3.780  0.8196 -0.1336 -0.0136
 1158ntf    cn1 8176   1.637   2.583   1.993  0.1482  0.0624  0.1351
 1158ntf    sn2 8177   1.746   2.660   1.870  0.1376  0.0247  0.1019
 1158ntf    nn3 8178   1.670   2.612   1.741  0.1073  0.7922 -0.1708
 1158ntf    sn2 8179   1.726   2.605   1.595 -0.0801  0.0348 -0.2102
 1158ntf    cn1 8180   1.641   2.747   1.520  0.1748  0.2461 -0.1013
 1158ntf    fn4 8181   1.668   2.606   2.120  0.2793  0.2688  0.0652
 1158ntf    fn4 8182   1.508   2.609   1.979  0.1885 -0.0114 -0.3982
 1158ntf    fn4 8183   1.643   2.451   1.987 -0.4645  0.0543 -0.4281
 1158ntf    on5 8184   1.730   2.802   1.892 -0.6582  0.0475 -0.5698
 1158ntf    on5 8185   1.874   2.604   1.906  0.0123 -0.8269 -0.7585
 1158ntf    on5 8186   1.865   2.640   1.579 -0.1120  0.4787  0.4385
 1158ntf    on5 8187   1.679   2.500   1.508 -0.2735 -0.3894  0.4035
 1158ntf    fn4 8188   1.703   2.789   1.411  0.1503 -0.0510 -0.2304
 1158ntf    fn4 8189   1.636   2.846   1.608  0.1591 -0.2753  0.4906
 1158ntf    fn4 8190   1.516   2.720   1.485  0.1780 -0.0815  0.1390
 1159ntf    cn1 8191   5.553   4.499   0.878  0.1881 -0.0049  0.3064
 1159ntf    sn2 8192   5.595   4.587   0.724 -0.2778 -0.1168  0.1109
 1159ntf    nn3 8193   5.627   4.464   0.632 -0.2005 -0.1929  0.2381
 1159ntf    sn2 8194   5.760   4.384   0.612  0.0321  0.3137 -0.2622
 1159ntf    cn1 8195   5.805   4.428   0.441 -0.1566 -0.3281 -0.4813
 1159ntf    fn4 8196   5.460   4.408   0.851  0.4944 -0.2435  0.0421
 1159ntf    fn4 8197   5.657   4.435   0.928 -0.0711 -0.2008  0.6041
 1159ntf    fn4 8198   5.505   4.580   0.971  0.5251  0.2120  0.2905
 1159ntf    on5 8199   5.474   4.659   0.693  0.1271  0.4075 -0.2522
 1159ntf    on5 8200   5.713   4.659   0.765  0.1479 -0.5156 -0.4114
 1159ntf    on5 8201   5.879   4.423   0.684 -0.0490  0.2723 -0.1057
 1159ntf    on5 8202   5.739   4.242   0.606  0.0085  0.2849  0.4780
 1159ntf    fn4 8203   5.826   4.559   0.442  0.2239 -0.3906  0.2368
 1159ntf    fn4 8204   5.711   4.406   0.351 -0.3599 -0.0426 -0.3419
 1159ntf    fn4 8205   5.913   4.367   0.395  0.1314 -0.4393  0.3274
 1160ntf    cn1 8206   3.788   4.987   0.248  0.3164 -0.0056  0.1662
 1160ntf    sn2 8207   3.680   4.843   0.226  0.3677  0.0540 -0.5223
 1160ntf    nn3 8208   3.548   4.923   0.203  0.0470 -0.2105  0.3564
 1160ntf    sn2 8209   3.405   4.862   0.181  0.1555 -0.1867 -0.4346
 1160ntf    cn1 8210   3.319   4.966   0.303  0.5525  0.2660 -0.5392
 1160ntf    fn4 8211   3.771   5.043   0.367  0.3549 -0.2500  0.2864
 1160ntf    fn4 8212   3.917   4.956   0.242  0.4284  0.4736 -0.0090
 1160ntf    fn4 8213   3.780   5.078   0.152  0.0800 -0.6150 -0.3926
 1160ntf    on5 8214   3.734   4.784   0.106 -0.7002 -0.3946 -0.7908
 1160ntf    on5 8215   3.685   4.768   0.350 -0.1855  0.3258 -0.3348
 1160ntf    on5 8216   3.356   4.900   0.051 -0.1908  0.1912 -0.1954
 1160ntf    on5 8217   3.389   4.726   0.228 -0.0024  0.0345  0.1670
 1160ntf    fn4 8218   3.328   5.095   0.278  0.5648  0.3277 -0.2248
 1160ntf    fn4 8219   3.353   4.944   0.429 -0.5435  0.2928 -0.2258
 1160ntf    fn4 8220   3.190   4.935   0.301  0.5843  0.0995 -0.0480
 1161ntf    cn1 8221   2.410   0.042   6.084 -0.2712 -0.1687 -0.3117
 1161ntf    sn2 8222   2.282  -0.086   6.071 -0.4456 -0.0366  0.0999
 1161ntf    nn3 8223   2.165  -0.009   5.999 -0.0544  0.2487 -0.2337
 1161ntf    sn2 8224   2.162   0.055   5.856 -0.0362  0.5755 -0.0893
 1161ntf    cn1 8225   1.999  -0.010   5.811  0.1398  0.3675 -0.4317
 1161ntf    fn4 8226   2.520  -0.002   6.143 -0.2941 -0.0327 -0.1658
 1161ntf    fn4 8227   2.449   0.083   5.964  0.1778  0.3685  0.0149
 1161ntf    fn4 8228   2.375   0.154   6.145  0.1087  0.1558 -0.6816
 1161ntf    on5 8229   2.336  -0.198   5.998 -0.1820  0.4616 -0.4758
 1161ntf    on5 8230   2.258  -0.116   6.210  0.4391 -0.9367  0.0695
 1161ntf    on5 8231   2.153   0.198   5.857 -0.7110  0.5324  0.2001
 1161ntf    on5 8232   2.255  -0.011   5.767  0.5916  0.4710  0.6271
 1161ntf    fn4 8233   1.899   0.009   5.896  0.3156  0.3453 -0.2207
 1161ntf    fn4 8234   1.999  -0.142   5.800 -0.3388  0.3014  0.3002
 1161ntf    fn4 8235   1.967   0.031   5.689 -0.0300  0.2148 -0.4387
 1162ntf    cn1 8236   4.222   4.660   2.192 -0.5453  0.0564 -0.1172
 1162ntf    sn2 8237   4.232   4.481   2.216 -0.1876  0.0630 -0.2033
 1162ntf    nn3 8238   4.081   4.459   2.254 -0.1122  0.7372  0.5023
 1162ntf    sn2 8239   4.030   4.351   2.356 -0.2176  0.3620  0.0562
 1162ntf    cn1 8240   3.980   4.217   2.244  0.3050  0.0887  0.1485
 1162ntf    fn4 8241   4.150   4.723   2.284  0.0455 -0.2503  0.5606
 1162ntf    fn4 8242   4.343   4.713   2.195 -0.5049 -0.0337 -0.1542
 1162ntf    fn4 8243   4.173   4.693   2.073 -0.5278  0.1151 -0.1083
 1162ntf    on5 8244   4.278   4.433   2.088 -0.3424  0.2017 -0.3117
 1162ntf    on5 8245   4.317   4.464   2.331 -0.1060  0.4006 -0.2135
 1162ntf    on5 8246   4.127   4.292   2.445  0.0108  0.1139 -0.3565
 1162ntf    on5 8247   3.906   4.385   2.421 -0.0597  0.1408  0.4804
 1162ntf    fn4 8248   3.923   4.120   2.313  0.8800  0.0742  0.6065
 1162ntf    fn4 8249   4.079   4.163   2.175  0.3355  0.3833 -0.0395
 1162ntf    fn4 8250   3.895   4.257   2.151  0.0568  0.1718  0.4104
 1163ntf    cn1 8251   5.175   6.200   3.008 -0.0410 -0.4775 -0.0429
 1163ntf    sn2 8252   5.050   6.327   2.971  0.2897  0.0041  0.4734
 1163ntf    nn3 8253   4.943   6.304   3.083  0.0086 -0.8504  0.0387
 1163ntf    sn2 8254   4.928   6.388   3.214 -0.0735 -0.0940 -0.4464
 1163ntf    cn1 8255   4.903   6.257   3.337 -0.1482  0.3385  0.0051
 1163ntf    fn4 8256   5.248   6.224   3.116  0.0800 -0.1609 -0.1925
 1163ntf    fn4 8257   5.124   6.079   3.022 -0.4987 -0.2634  0.1472
 1163ntf    fn4 8258   5.256   6.180   2.905 -0.3652  0.0558 -0.4073
 1163ntf    on5 8259   5.124   6.451   2.979  0.1248  0.1644 -0.4051
 1163ntf    on5 8260   4.997   6.283   2.844  0.3774 -0.3427  0.5568
 1163ntf    on5 8261   5.041   6.454   3.275 -0.0151 -0.4105 -0.2093
 1163ntf    on5 8262   4.794   6.442   3.227  0.1476  0.3067  0.2752
 1163ntf    fn4 8263   4.995   6.161   3.341 -0.2591  0.2432  0.4024
 1163ntf    fn4 8264   4.791   6.194   3.304 -0.1416  0.4335 -0.1940
 1163ntf    fn4 8265   4.885   6.297   3.462 -0.5482  0.1666  0.0052
 1164ntf    cn1 8266   2.479   3.014   1.497 -0.1489  0.1338 -0.0501
 1164ntf    sn2 8267   2.537   2.937   1.343 -0.2973  0.0571 -0.0676
 1164ntf    nn3 8268   2.430   2.823   1.326 -0.2758 -0.0379  0.4283
 1164ntf    sn2 8269   2.449   2.670   1.353  0.0800 -0.0926 -0.1216
 1164ntf    cn1 8270   2.491   2.609   1.186 -0.0951 -0.3587 -0.0700
 1164ntf    fn4 8271   2.479   2.931   1.600  0.1940  0.3588  0.1309
 1164ntf    fn4 8272   2.560   3.111   1.535 -0.3029  0.0947  0.3896
 1164ntf    fn4 8273   2.355   3.060   1.488 -0.3069 -0.3738 -0.5130
 1164ntf    on5 8274   2.530   3.043   1.246  0.2518 -0.3553 -0.5641
 1164ntf    on5 8275   2.663   2.882   1.385 -0.3054  0.0143 -0.0989
 1164ntf    on5 8276   2.561   2.629   1.434  0.0378 -0.2498 -0.1420
 1164ntf    on5 8277   2.320   2.615   1.389  0.1762  0.0140  0.3817
 1164ntf    fn4 8278   2.501   2.479   1.168 -0.0709 -0.3533 -0.0961
 1164ntf    fn4 8279   2.602   2.669   1.148  0.4249 -0.9690  0.4675
 1164ntf    fn4 8280   2.399   2.641   1.096  0.4578  0.4487 -0.3597
 1165ntf    cn1 8281   0.275   0.901   1.199 -0.0063 -0.0894 -0.1378
 1165ntf    sn2 8282   0.268   0.956   1.026  0.2945  0.0210 -0.1149
 1165ntf    nn3 8283   0.125   0.911   0.980  0.5572 -0.4158 -0.5133
 1165ntf    sn2 8284   0.050   0.948   0.847 -0.1692  0.1094  0.0320
 1165ntf    cn1 8285  -0.049   1.088   0.906 -0.0729  0.1241  0.1606
 1165ntf    fn4 8286   0.196   0.973   1.277 -0.1802 -0.0872 -0.3145
 1165ntf    fn4 8287   0.238   0.774   1.206  0.4660 -0.2057  0.3137
 1165ntf    fn4 8288   0.397   0.907   1.251  0.1020  0.3731 -0.4423
 1165ntf    on5 8289   0.290   1.099   1.032 -0.0631  0.0773 -0.1003
 1165ntf    on5 8290   0.362   0.871   0.958  0.3848 -0.0155  0.0541
 1165ntf    on5 8291   0.130   1.014   0.746  0.0126  0.2726  0.2829
 1165ntf    on5 8292  -0.056   0.859   0.808 -0.0952 -0.2591  0.6585
 1165ntf    fn4 8293   0.028   1.195   0.916 -0.3729  0.3621 -0.0094
 1165ntf    fn4 8294  -0.108   1.066   1.022  0.3608  0.1773  0.3890
 1165ntf    fn4 8295  -0.140   1.119   0.814  0.1424 -0.1011 -0.1273
 1166ntf    cn1 8296   2.468   1.105   1.699  0.2429 -0.0293  0.3140
 1166ntf    sn2 8297   2.642   1.141   1.741  0.2749  0.1400  0.0402
 1166ntf    nn3 8298   2.692   1.215   1.612  0.3147  0.6479  0.3447
 1166ntf    sn2 8299   2.836   1.224   1.552  0.1686  0.0734 -0.1043
 1166ntf    cn1 8300   2.844   1.089   1.430 -0.1081 -0.1272  0.1006
 1166ntf    fn4 8301   2.390   1.209   1.674  0.2738  0.0094  0.3784
 1166ntf    fn4 8302   2.464   1.041   1.583 -0.3782  0.4990  0.0410
 1166ntf    fn4 8303   2.402   1.038   1.792 -0.4231 -0.2186 -0.2900
 1166ntf    on5 8304   2.629   1.221   1.860  0.5678 -0.0619  0.2082
 1166ntf    on5 8305   2.693   1.008   1.760  0.1397  0.1430  0.4235
 1166ntf    on5 8306   2.852   1.342   1.470  0.7158 -0.0022 -0.1087
 1166ntf    on5 8307   2.938   1.204   1.651  0.3146  0.1474 -0.2383
 1166ntf    fn4 8308   2.796   0.980   1.488 -0.1796  0.0169  0.3167
 1166ntf    fn4 8309   2.961   1.060   1.376  0.0652 -0.3947  0.6061
 1166ntf    fn4 8310   2.762   1.123   1.332 -0.5430 -0.0546  0.4846
 1167ntf    cn1 8311   4.888   5.519   1.634  0.1628 -0.2326  0.3313
 1167ntf    sn2 8312   4.914   5.660   1.746  0.2261 -0.1243  0.1810
 1167ntf    nn3 8313   4.982   5.766   1.652 -0.0514  0.1883  0.3283
 1167ntf    sn2 8314   5.136   5.795   1.635 -0.0501  0.0057  0.0176
 1167ntf    cn1 8315   5.132   5.945   1.737 -0.1819  0.0958 -0.1208
 1167ntf    fn4 8316   4.813   5.549   1.529  0.6139 -0.1685  0.0245
 1167ntf    fn4 8317   5.003   5.473   1.589  0.0979 -0.2826  0.2161
 1167ntf    fn4 8318   4.824   5.420   1.694 -0.5589  0.0293  0.0076
 1167ntf    on5 8319   4.778   5.700   1.773  0.1327 -0.1083 -0.3147
 1167ntf    on5 8320   4.993   5.608   1.855  0.7867  0.0623 -0.1302
 1167ntf    on5 8321   5.233   5.707   1.696  0.0410 -0.1645 -0.3681
 1167ntf    on5 8322   5.154   5.849   1.503  0.0638  0.0910  0.0686
 1167ntf    fn4 8323   5.085   5.919   1.858  0.1047 -0.0398 -0.0384
 1167ntf    fn4 8324   5.057   6.044   1.689 -0.0188  0.2272 -0.1060
 1167ntf    fn4 8325   5.252   5.999   1.753 -0.1531 -0.0516  0.1596
 1168ntf    cn1 8326   6.006   4.285   1.937 -0.1376  0.2775  0.1672
 1168ntf    sn2 8327   6.042   4.454   1.880 -0.0370  0.1062 -0.2794
 1168ntf    nn3 8328   6.041   4.444   1.723  0.4197 -0.6618 -0.2360
 1168ntf    sn2 8329   5.929   4.367   1.645 -0.2388  0.1968 -0.1552
 1168ntf    cn1 8330   5.947   4.438   1.479 -0.1141  0.0584 -0.2011
 1168ntf    fn4 8331   6.047   4.267   2.061 -0.0764  0.2977  0.1499
 1168ntf    fn4 8332   5.877   4.255   1.930 -0.1201  0.2514 -0.0634
 1168ntf    fn4 8333   6.071   4.196   1.864 -0.4096  0.1300  0.1031
 1168ntf    on5 8334   5.939   4.534   1.942 -0.3607 -0.5040 -0.0183
 1168ntf    on5 8335   6.176   4.465   1.931 -0.2695 -0.2871  0.4251
 1168ntf    on5 8336   5.967   4.230   1.620  0.3734  0.2685  0.3600
 1168ntf    on5 8337   5.794   4.401   1.682 -0.1559  0.3245  0.0292
 1168ntf    fn4 8338   6.056   4.401   1.413  0.1760 -0.1735  0.4036
 1168ntf    fn4 8339   5.942   4.569   1.469 -0.7986  0.0349 -0.2181
 1168ntf    fn4 8340   5.851   4.398   1.397 -0.1048  0.1526 -0.2572
 1169ntf    cn1 8341   4.613   4.649   1.937  0.1675 -0.0321  0.0009
 1169ntf    sn2 8342   4.786   4.622   1.890  0.0700 -0.5627 -0.0602
 1169ntf    nn3 8343   4.843   4.752   1.958 -1.1526  0.0012 -0.0941
 1169ntf    sn2 8344   4.891   4.883   1.887 -0.3396 -0.3183 -0.1407
 1169ntf    cn1 8345   5.066   4.838   1.866 -0.1832  0.2562 -0.0845
 1169ntf    fn4 8346   4.601   4.659   2.069 -0.0648 -0.7368  0.0384
 1169ntf    fn4 8347   4.560   4.758   1.885 -0.2077 -0.3528 -0.2906
 1169ntf    fn4 8348   4.532   4.552   1.898  0.3097 -0.1580  0.0183
 1169ntf    on5 8349   4.823   4.506   1.968  0.1073 -0.5611 -0.0751
 1169ntf    on5 8350   4.789   4.611   1.747 -0.1987  0.6453 -0.1709
 1169ntf    on5 8351   4.839   4.916   1.757 -0.0933  0.2919 -0.0864
 1169ntf    on5 8352   4.900   4.989   1.984 -0.1046 -0.2727 -0.2114
 1169ntf    fn4 8353   5.142   4.946   1.857  0.7982 -0.3770  0.3967
 1169ntf    fn4 8354   5.090   4.764   1.758 -1.0453  0.4356 -0.4032
 1169ntf    fn4 8355   5.112   4.769   1.969  0.1488  0.0949 -0.3363
 1170ntf    cn1 8356   5.217   1.720   6.355 -0.2971  0.0954 -0.2708
 1170ntf    sn2 8357   5.153   1.564   6.289 -0.0207 -0.1466  0.0294
 1170ntf    nn3 8358   5.133   1.601   6.138 -0.1857 -0.4362 -0.0218
 1170ntf    sn2 8359   5.010   1.671   6.069  0.0183 -0.1779 -0.1273
 1170ntf    cn1 8360   4.911   1.521   6.040 -0.0530 -0.1047 -0.2631
 1170ntf    fn4 8361   5.132   1.813   6.312 -0.4124 -0.2271 -0.7466
 1170ntf    fn4 8362   5.214   1.725   6.487 -0.4817 -0.0593 -0.2694
 1170ntf    fn4 8363   5.339   1.750   6.313 -0.2676 -0.4781 -0.6014
 1170ntf    on5 8364   5.260   1.468   6.300  0.0560 -0.0439  0.1871
 1170ntf    on5 8365   5.028   1.539   6.356 -0.3097 -0.3382 -0.5717
 1170ntf    on5 8366   4.922   1.748   6.153  0.6857 -0.2034  0.6004
 1170ntf    on5 8367   5.035   1.724   5.938  0.0861 -0.3962 -0.2037
 1170ntf    fn4 8368   4.808   1.547   5.960 -0.3411 -0.0598  0.1205
 1170ntf    fn4 8369   4.861   1.471   6.152  0.3727 -0.0332 -0.0394
 1170ntf    fn4 8370   4.982   1.426   5.981 -0.0903 -0.2849 -0.0182
 1171ntf    cn1 8371   0.043   6.635   2.650 -0.1343  0.0267  0.2562
 1171ntf    sn2 8372   0.007   6.711   2.489  0.0081  0.3864  0.3921
 1171ntf    nn3 8373  -0.114   6.799   2.534 -0.2155  0.0143  0.5180
 1171ntf    sn2 8374  -0.156   6.943   2.489 -0.0383 -0.2663 -0.5765
 1171ntf    cn1 8375  -0.056   7.030   2.613 -0.3574 -0.6555 -0.0451
 1171ntf    fn4 8376   0.076   6.727   2.740 -0.2610  0.0716  0.2574
 1171ntf    fn4 8377  -0.055   6.561   2.699 -0.3518 -0.2269 -0.5431
 1171ntf    fn4 8378   0.155   6.565   2.641  0.0276  0.2511  0.4813
 1171ntf    on5 8379   0.129   6.785   2.465 -0.0865  0.4715  0.1658
 1171ntf    on5 8380  -0.028   6.597   2.407  0.0715 -0.0068  0.9065
 1171ntf    on5 8381  -0.112   6.996   2.362  0.1630  0.4626 -0.2061
 1171ntf    on5 8382  -0.296   6.966   2.517  0.0977 -0.2324  0.0976
 1171ntf    fn4 8383   0.074   7.016   2.597 -0.1947  0.4800  0.2220
 1171ntf    fn4 8384  -0.083   6.987   2.736 -0.0059  0.3315  0.3864
 1171ntf    fn4 8385  -0.080   7.160   2.614  0.3042 -0.5303 -0.4474
 1172ntf    cn1 8386   3.442   1.374   4.819  0.2778  0.1240 -0.2116
 1172ntf    sn2 8387   3.441   1.554   4.842 -0.0305  0.1397 -0.3411
 1172ntf    nn3 8388   3.557   1.600   4.747  0.2646 -0.0072 -0.0524
 1172ntf    sn2 8389   3.540   1.632   4.594  0.3665 -0.1338 -0.0903
 1172ntf    cn1 8390   3.478   1.802   4.601 -0.0810 -0.2941 -0.1349
 1172ntf    fn4 8391   3.561   1.316   4.829  0.0625 -0.2442  0.2749
 1172ntf    fn4 8392   3.365   1.319   4.911  0.6123 -0.0886 -0.0565
 1172ntf    fn4 8393   3.403   1.330   4.700  0.1157 -0.9594  0.2249
 1172ntf    on5 8394   3.309   1.605   4.815 -0.3999 -0.3788  0.4335
 1172ntf    on5 8395   3.483   1.571   4.979  0.4010 -0.6288 -0.3713
 1172ntf    on5 8396   3.668   1.649   4.530  0.1561  0.0293 -0.4662
 1172ntf    on5 8397   3.436   1.555   4.531  0.1664 -0.0752  0.1639
 1172ntf    fn4 8398   3.376   1.815   4.684  0.0463  0.2907 -0.0637
 1172ntf    fn4 8399   3.435   1.858   4.489  0.0803  0.1896  0.0427
 1172ntf    fn4 8400   3.565   1.892   4.645 -0.6101  0.0945  0.1348
 1173ntf    cn1 8401   5.401   3.118   0.937 -0.1718 -0.0545  0.0193
 1173ntf    sn2 8402   5.341   3.023   1.080  0.2430  0.0571  0.2705
 1173ntf    nn3 8403   5.291   3.142   1.169 -0.3869  0.0293 -0.0402
 1173ntf    sn2 8404   5.350   3.221   1.291  0.0862 -0.1996 -0.1180
 1173ntf    cn1 8405   5.225   3.199   1.421  0.1578  0.0443 -0.0066
 1173ntf    fn4 8406   5.309   3.201   0.890 -0.1022  0.5244  0.8844
 1173ntf    fn4 8407   5.502   3.195   0.973  0.3500 -0.5425 -0.3880
 1173ntf    fn4 8408   5.442   3.039   0.839  0.4769  0.2729  0.0255
 1173ntf    on5 8409   5.234   2.946   1.022  0.8037 -0.7422  0.2805
 1173ntf    on5 8410   5.460   2.954   1.123  0.4742  0.0148 -0.4320
 1173ntf    on5 8411   5.466   3.164   1.355  0.5039  0.0010 -0.6883
 1173ntf    on5 8412   5.347   3.364   1.276 -0.0875 -0.2031 -0.1231
 1173ntf    fn4 8413   5.271   3.247   1.535  0.5279  0.1766 -0.2121
 1173ntf    fn4 8414   5.186   3.073   1.437 -0.4198  0.1890 -0.2383
 1173ntf    fn4 8415   5.112   3.263   1.396  0.5801  0.8246  0.0857
 1174ntf    cn1 8416   4.642   1.534   1.699  0.0695  0.1795  0.1881
 1174ntf    sn2 8417   4.601   1.697   1.768 -0.1153  0.1628  0.1193
 1174ntf    nn3 8418   4.641   1.777   1.639  0.3455 -0.0648  0.1157
 1174ntf    sn2 8419   4.722   1.907   1.607  0.0807  0.1913  0.4739
 1174ntf    cn1 8420   4.640   1.984   1.465 -0.2179 -0.1872  0.4403
 1174ntf    fn4 8421   4.763   1.529   1.645 -0.0011  0.2552  0.0199
 1174ntf    fn4 8422   4.632   1.439   1.790  0.6428  0.3100  0.3915
 1174ntf    fn4 8423   4.558   1.500   1.603  0.2689 -0.0473  0.0914
 1174ntf    on5 8424   4.460   1.689   1.796 -0.0987 -0.1879  0.1100
 1174ntf    on5 8425   4.680   1.718   1.887  0.1306  0.2601 -0.0590
 1174ntf    on5 8426   4.702   2.006   1.710 -0.5352  0.5278  0.0357
 1174ntf    on5 8427   4.858   1.883   1.564 -0.1758 -0.7002  0.1433
 1174ntf    fn4 8428   4.713   2.074   1.402 -0.1222 -0.5733 -0.0090
 1174ntf    fn4 8429   4.530   2.046   1.504 -0.2153  0.1630 -0.0928
 1174ntf    fn4 8430   4.619   1.900   1.365 -0.2301 -0.3159  0.5509
 1175ntf    cn1 8431   0.477   2.008   4.636  0.4273 -0.0870 -0.2580
 1175ntf    sn2 8432   0.511   1.981   4.812 -0.2293  0.1869 -0.0838
 1175ntf    nn3 8433   0.407   2.075   4.882 -0.4633 -0.2210  0.1202
 1175ntf    sn2 8434   0.403   2.230   4.904 -0.1388 -0.1589 -0.2579
 1175ntf    cn1 8435   0.473   2.241   5.071 -0.2116 -0.4486 -0.2082
 1175ntf    fn4 8436   0.362   1.950   4.606 -0.1206  0.4742  0.6987
 1175ntf    fn4 8437   0.469   2.138   4.611 -0.1813  0.0017  0.3462
 1175ntf    fn4 8438   0.568   1.957   4.555 -0.1505 -0.2115 -0.8386
 1175ntf    on5 8439   0.485   1.840   4.829  0.0877  0.0909 -0.3815
 1175ntf    on5 8440   0.649   2.021   4.826 -0.1968  0.1313 -0.2433
 1175ntf    on5 8441   0.492   2.310   4.822 -0.6268  0.8091  0.1474
 1175ntf    on5 8442   0.267   2.277   4.910  0.0900  0.4165  0.6222
 1175ntf    fn4 8443   0.391   2.203   5.168 -0.2623  0.0810 -0.0386
 1175ntf    fn4 8444   0.510   2.366   5.095 -0.1876 -0.5769  0.4469
 1175ntf    fn4 8445   0.580   2.164   5.079  0.0832 -0.0082  0.1019
 1176ntf    cn1 8446   4.128   0.398   2.019  0.0841  0.0186  0.1207
 1176ntf    sn2 8447   4.297   0.403   2.086  0.0619  0.1034  0.1703
 1176ntf    nn3 8448   4.318   0.559   2.095  0.3858  0.1025 -0.5374
 1176ntf    sn2 8449   4.453   0.637   2.076  0.3327  0.3423  0.0454
 1176ntf    cn1 8450   4.482   0.693   2.247  0.1714 -0.2123  0.2564
 1176ntf    fn4 8451   4.045   0.466   2.097  0.2866 -0.6704  0.9560
 1176ntf    fn4 8452   4.116   0.452   1.899  0.2287 -0.1741  0.0199
 1176ntf    fn4 8453   4.072   0.278   2.013  0.0770  0.0383 -0.2256
 1176ntf    on5 8454   4.286   0.335   2.213 -0.1859  0.1859  0.1947
 1176ntf    on5 8455   4.361   0.341   1.974  0.3688 -0.1015  0.4565
 1176ntf    on5 8456   4.569   0.560   2.037 -0.2399 -0.4193 -0.1779
 1176ntf    on5 8457   4.430   0.759   2.003 -0.0661  0.1245 -0.1981
 1176ntf    fn4 8458   4.594   0.762   2.253  0.0364 -0.0135  0.4612
 1176ntf    fn4 8459   4.491   0.589   2.329 -0.0453 -0.3808  0.0707
 1176ntf    fn4 8460   4.388   0.768   2.300 -0.0299 -0.2156 -0.0872
 1177ntf    cn1 8461   2.013   1.075   5.004 -0.2160 -0.0802 -0.0439
 1177ntf    sn2 8462   1.851   1.083   5.084  0.0254  0.2592  0.4149
 1177ntf    nn3 8463   1.887   1.186   5.197  0.0002  0.3731  0.3190
 1177ntf    sn2 8464   1.920   1.146   5.345  0.1875  0.0974  0.2045
 1177ntf    cn1 8465   1.815   1.268   5.431 -0.0186  0.1166 -0.0734
 1177ntf    fn4 8466   2.007   0.992   4.901  0.2072 -0.1287 -0.0345
 1177ntf    fn4 8467   2.048   1.194   4.957 -0.3496 -0.0097  0.0352
 1177ntf    fn4 8468   2.104   1.034   5.090  0.2984  0.4405 -0.3268
 1177ntf    on5 8469   1.776   1.158   4.986  0.8103 -0.0639 -0.4419
 1177ntf    on5 8470   1.814   0.945   5.105 -0.4399  0.3154 -0.0160
 1177ntf    on5 8471   1.873   1.016   5.383  0.3095 -0.1364 -0.4352
 1177ntf    on5 8472   2.056   1.183   5.378  0.2991  0.4217 -0.5863
 1177ntf    fn4 8473   1.806   1.236   5.559 -0.0078 -0.4276 -0.2048
 1177ntf    fn4 8474   1.687   1.278   5.401  0.0752  0.2339 -0.4375
 1177ntf    fn4 8475   1.857   1.393   5.425  0.0757  0.0708 -0.3844
 1178ntf    cn1 8476   0.329   1.139   0.279  0.2928 -0.5593  0.6469
 1178ntf    sn2 8477   0.453   1.052   0.179  0.1763  0.0374 -0.0252
 1178ntf    nn3 8478   0.593   1.074   0.246  0.2277 -0.4042  0.0130
 1178ntf    sn2 8479   0.715   1.165   0.206 -0.3162  0.0599 -0.6128
 1178ntf    cn1 8480   0.764   1.224   0.371  0.1178 -0.5585 -0.5141
 1178ntf    fn4 8481   0.288   1.057   0.374 -0.7302 -0.4628  0.3022
 1178ntf    fn4 8482   0.370   1.252   0.336 -0.5896  0.1870 -0.1578
 1178ntf    fn4 8483   0.228   1.173   0.201  0.6594  0.2794  0.5239
 1178ntf    on5 8484   0.409   0.915   0.179  0.0402  0.0812  0.0068
 1178ntf    on5 8485   0.440   1.120   0.052 -0.0846 -0.1153 -0.0803
 1178ntf    on5 8486   0.832   1.089   0.168 -0.2540 -0.5940  0.8127
 1178ntf    on5 8487   0.682   1.289   0.141  0.0048  0.4613 -0.0175
 1178ntf    fn4 8488   0.852   1.322   0.361 -0.4979  0.0928  0.2321
 1178ntf    fn4 8489   0.817   1.140   0.458 -0.3061 -0.3107 -0.0100
 1178ntf    fn4 8490   0.668   1.289   0.435  0.4735 -0.1617 -0.3821
 1179ntf    cn1 8491   0.151   0.545   5.490 -0.0917  0.0056  0.0787
 1179ntf    sn2 8492   0.174   0.470   5.327  0.0727  0.3503 -0.0580
 1179ntf    nn3 8493   0.032   0.491   5.263 -0.0408 -0.2102  0.0020
 1179ntf    sn2 8494  -0.054   0.396   5.172 -0.1221 -0.1337 -0.0005
 1179ntf    cn1 8495  -0.150   0.301   5.294  0.2996 -0.2671  0.2264
 1179ntf    fn4 8496   0.043   0.492   5.546 -0.0600 -0.0954  0.0449
 1179ntf    fn4 8497   0.256   0.529   5.570 -0.1764  0.1083  0.2108
 1179ntf    fn4 8498   0.136   0.676   5.487 -0.0233  0.0328  0.7552
 1179ntf    on5 8499   0.276   0.553   5.267  0.4268  0.1725  0.2968
 1179ntf    on5 8500   0.208   0.334   5.363 -0.7915  0.0775 -0.2382
 1179ntf    on5 8501  -0.148   0.482   5.104 -0.4549 -0.8464 -0.4484
 1179ntf    on5 8502   0.015   0.303   5.088 -0.4279 -0.4169  0.0600
 1179ntf    fn4 8503  -0.249   0.229   5.244  0.4057 -0.0048 -0.3636
 1179ntf    fn4 8504  -0.222   0.376   5.376 -0.5481 -0.1309 -0.6306
 1179ntf    fn4 8505  -0.080   0.219   5.372 -0.1374 -0.4944  0.3833
 1180ntf    cn1 8506   2.980   2.352   2.494 -0.1655 -0.0937 -0.2242
 1180ntf    sn2 8507   2.833   2.263   2.554 -0.1646  0.1979  0.2130
 1180ntf    nn3 8508   2.791   2.348   2.679  0.4633  0.4145  0.2823
 1180ntf    sn2 8509   2.685   2.462   2.698  0.0289  0.0473  0.0803
 1180ntf    cn1 8510   2.526   2.379   2.731  0.1738 -0.5476 -0.6892
 1180ntf    fn4 8511   2.964   2.483   2.500  0.6733  0.0129 -0.2304
 1180ntf    fn4 8512   3.086   2.329   2.568 -0.0251  0.5295 -0.2226
 1180ntf    fn4 8513   3.011   2.312   2.372  0.4372  0.4666 -0.2593
 1180ntf    on5 8514   2.742   2.266   2.443  0.1106  0.1179 -0.0155
 1180ntf    on5 8515   2.882   2.133   2.592 -0.4966 -0.0990 -0.3629
 1180ntf    on5 8516   2.720   2.537   2.816 -0.4319  0.2823  0.0705
 1180ntf    on5 8517   2.658   2.531   2.574 -0.3196 -0.7525 -0.2944
 1180ntf    fn4 8518   2.531   2.253   2.772  0.0123 -0.5533 -0.6880
 1180ntf    fn4 8519   2.454   2.379   2.620 -0.2120  0.3605 -0.4507
 1180ntf    fn4 8520   2.455   2.445   2.821  0.0836 -0.4774 -0.8112
 1181ntf    cn1 8521   3.091   2.639   4.389 -0.3935  0.0767  0.0589
 1181ntf    sn2 8522   3.198   2.778   4.437  0.1915 -0.1604 -0.5368
 1181ntf    nn3 8523   3.342   2.721   4.461  0.1930  0.1081  0.1354
 1181ntf    sn2 8524   3.401   2.651   4.589 -0.0954 -0.2809  0.0578
 1181ntf    cn1 8525   3.517   2.784   4.633 -0.0819 -0.3873  0.3412
 1181ntf    fn4 8526   3.140   2.586   4.278 -0.0280 -0.2281  0.3639
 1181ntf    fn4 8527   3.085   2.537   4.473 -0.1741  0.1637  0.1828
 1181ntf    fn4 8528   2.965   2.664   4.361 -0.5458 -0.3823  0.3261
 1181ntf    on5 8529   3.201   2.857   4.316  0.0409 -0.0999 -0.5021
 1181ntf    on5 8530   3.138   2.836   4.555 -0.0351 -0.3594 -0.5529
 1181ntf    on5 8531   3.315   2.640   4.704  0.4246  0.2746  0.5029
 1181ntf    on5 8532   3.494   2.545   4.559 -0.2050 -0.4136  0.1853
 1181ntf    fn4 8533   3.451   2.897   4.642 -0.2267 -0.4123 -0.3837
 1181ntf    fn4 8534   3.610   2.805   4.542 -0.6082  0.1198 -0.0834
 1181ntf    fn4 8535   3.577   2.759   4.748  0.1127  0.6066  0.4621
 1182ntf    cn1 8536   5.270   4.113   5.653 -0.1893  0.3393  0.0492
 1182ntf    sn2 8537   5.383   4.007   5.557  0.0823  0.2588  0.4551
 1182ntf    nn3 8538   5.492   4.117   5.534 -0.1496  0.4057  0.0524
 1182ntf    sn2 8539   5.499   4.228   5.423  0.0009  0.0211 -0.3253
 1182ntf    cn1 8540   5.612   4.167   5.294  0.2293  0.2718 -0.2434
 1182ntf    fn4 8541   5.162   4.048   5.693  0.1303 -0.5085 -0.4221
 1182ntf    fn4 8542   5.317   4.157   5.768 -0.2369  0.1599  0.1393
 1182ntf    fn4 8543   5.232   4.222   5.588 -0.0467  0.3053 -0.0953
 1182ntf    on5 8544   5.427   3.919   5.662  0.3371 -0.0520  0.0916
 1182ntf    on5 8545   5.310   3.951   5.446  0.1988  0.2287  0.3942
 1182ntf    on5 8546   5.381   4.236   5.341 -0.1757  0.1056 -0.0657
 1182ntf    on5 8547   5.558   4.355   5.457  0.4356 -0.0721 -0.7164
 1182ntf    fn4 8548   5.566   4.054   5.246  0.1671  0.0927  0.2307
 1182ntf    fn4 8549   5.731   4.142   5.346  0.2306  0.4501 -0.1588
 1182ntf    fn4 8550   5.624   4.250   5.191  0.3615  0.4965 -0.0485
 1183ntf    cn1 8551   0.412   0.384   4.163 -0.0193  0.1404  0.0904
 1183ntf    sn2 8552   0.520   0.458   4.037  0.0608 -0.1841 -0.0350
 1183ntf    nn3 8553   0.499   0.367   3.911 -0.4539 -0.0886 -0.0208
 1183ntf    sn2 8554   0.560   0.228   3.872 -0.2389  0.0069 -0.0271
 1183ntf    cn1 8555   0.691   0.284   3.760 -0.4090  0.2020 -0.1270
 1183ntf    fn4 8556   0.459   0.277   4.225  0.3173  0.2604  0.0410
 1183ntf    fn4 8557   0.378   0.475   4.252 -0.3637 -0.0510  0.1584
 1183ntf    fn4 8558   0.299   0.349   4.102  0.3129 -0.6850 -0.0765
 1183ntf    on5 8559   0.446   0.581   4.027 -0.3017 -0.4196 -0.2584
 1183ntf    on5 8560   0.644   0.472   4.109  0.1117  0.0252 -0.1613
 1183ntf    on5 8561   0.621   0.155   3.981 -0.1933 -0.0677 -0.1029
 1183ntf    on5 8562   0.472   0.151   3.788  0.3174 -0.6506 -0.0252
 1183ntf    fn4 8563   0.634   0.340   3.654 -1.0632 -0.2686 -0.0299
 1183ntf    fn4 8564   0.763   0.185   3.709  0.4361  0.4312  0.5893
 1183ntf    fn4 8565   0.779   0.370   3.809 -0.5808  0.3467 -0.0719
 1184ntf    cn1 8566   0.733   5.026   2.223 -0.0096  0.1403  0.5092
 1184ntf    sn2 8567   0.618   4.965   2.349 -0.1266 -0.0107  0.3289
 1184ntf    nn3 8568   0.596   5.089   2.443  0.0690  0.1579  0.1536
 1184ntf    sn2 8569   0.472   5.184   2.451  0.0405  0.1357 -0.0068
 1184ntf    cn1 8570   0.537   5.348   2.405 -0.0123  0.0912 -0.2373
 1184ntf    fn4 8571   0.748   4.943   2.121 -0.5297  0.0573  0.4970
 1184ntf    fn4 8572   0.671   5.135   2.179 -0.4115 -0.0885  0.5078
 1184ntf    fn4 8573   0.854   5.059   2.267  0.4302 -0.6588 -0.0665
 1184ntf    on5 8574   0.504   4.910   2.279  0.1810 -0.2435  0.0077
 1184ntf    on5 8575   0.692   4.864   2.421  0.4552  0.0055 -0.2384
 1184ntf    on5 8576   0.368   5.157   2.355  0.0418 -0.1707  0.0768
 1184ntf    on5 8577   0.429   5.198   2.588  0.3117  0.1274  0.0802
 1184ntf    fn4 8578   0.652   5.376   2.464 -0.2397  0.2266  0.1423
 1184ntf    fn4 8579   0.454   5.441   2.449  0.5124  0.5228 -0.1500
 1184ntf    fn4 8580   0.558   5.364   2.275  0.0607 -0.0515 -0.2435
 1185ntf    cn1 8581   6.634   3.579   5.798  0.1575  0.0122  0.3971
 1185ntf    sn2 8582   6.809   3.599   5.845  0.1812  0.2950  0.1946
 1185ntf    nn3 8583   6.877   3.526   5.724  0.4227  0.0638  0.4672
 1185ntf    sn2 8584   6.885   3.565   5.572  0.0063  0.1780  0.4724
 1185ntf    cn1 8585   7.042   3.657   5.565 -0.1121  0.3354 -0.2688
 1185ntf    fn4 8586   6.556   3.620   5.897 -0.1478  0.3316  0.0266
 1185ntf    fn4 8587   6.596   3.653   5.695  0.0078 -0.3528  0.1904
 1185ntf    fn4 8588   6.598   3.453   5.785 -0.0851  0.1480 -0.2911
 1185ntf    on5 8589   6.849   3.737   5.836  0.7864  0.1401  0.4554
 1185ntf    on5 8590   6.832   3.522   5.965  0.1144 -0.2634 -0.1473
 1185ntf    on5 8591   6.907   3.455   5.481  0.5758  0.2717  0.4883
 1185ntf    on5 8592   6.786   3.657   5.523  0.0477 -0.3562 -0.6499
 1185ntf    fn4 8593   7.103   3.649   5.448  0.6853  0.1604  0.1529
 1185ntf    fn4 8594   7.129   3.603   5.649  0.1371  0.7230 -0.2748
 1185ntf    fn4 8595   7.023   3.782   5.604 -0.2762 -0.0234  0.8271
 1186ntf    cn1 8596   3.216   3.153   1.877 -0.0087 -0.1266  0.0940
 1186ntf    sn2 8597   3.265   3.328   1.870 -0.1542 -0.0757  0.3476
 1186ntf    nn3 8598   3.136   3.389   1.937 -0.3920 -0.1422 -0.0469
 1186ntf    sn2 8599   3.023   3.464   1.858 -0.2610  0.1337  0.0267
 1186ntf    cn1 8600   2.919   3.521   1.995 -0.0093 -0.5584  0.5139
 1186ntf    fn4 8601   3.307   3.067   1.835  0.1739  0.0652  0.0968
 1186ntf    fn4 8602   3.196   3.112   2.001 -0.8174 -0.0927 -0.0164
 1186ntf    fn4 8603   3.104   3.131   1.810 -0.0571  0.7314 -0.1203
 1186ntf    on5 8604   3.379   3.334   1.958  0.3489 -1.0612 -0.2271
 1186ntf    on5 8605   3.278   3.341   1.727 -0.2031 -0.2664  0.3259
 1186ntf    on5 8606   3.061   3.592   1.803 -0.2461  0.1515  0.0786
 1186ntf    on5 8607   2.934   3.384   1.777  0.3038 -0.6939  0.2039
 1186ntf    fn4 8608   2.982   3.601   2.080  0.0075  0.3819 -0.3659
 1186ntf    fn4 8609   2.874   3.419   2.065  0.3443 -0.8092  0.3778
 1186ntf    fn4 8610   2.812   3.584   1.950  0.5467 -0.0341 -0.1069
 1187ntf    cn1 8611   3.981   0.361   0.961  0.2273 -0.3148  0.2186
 1187ntf    sn2 8612   3.939   0.189   1.002 -0.1601 -0.2747  0.0009
 1187ntf    nn3 8613   3.959   0.189   1.158 -0.3216 -0.0616  0.0216
 1187ntf    sn2 8614   3.860   0.140   1.270 -0.0501  0.0132  0.2962
 1187ntf    cn1 8615   3.969   0.012   1.340  0.0462 -0.0997 -0.0530
 1187ntf    fn4 8616   3.895   0.445   1.015  0.1734 -0.1217 -0.1575
 1187ntf    fn4 8617   4.102   0.404   0.994  0.1590  0.1107 -0.0721
 1187ntf    fn4 8618   3.969   0.379   0.830 -0.0004 -0.0419  0.2757
 1187ntf    on5 8619   3.803   0.169   0.959 -0.1542  0.1833 -0.2411
 1187ntf    on5 8620   4.041   0.116   0.931  0.7435  0.1160  0.8545
 1187ntf    on5 8621   3.844   0.246   1.366  0.3222  0.1001  0.2633
 1187ntf    on5 8622   3.748   0.058   1.230  0.2337 -0.4506  0.4415
 1187ntf    fn4 8623   4.084   0.058   1.388 -0.0252 -0.0265  0.0487
 1187ntf    fn4 8624   4.008  -0.083   1.258 -1.0779 -0.2513 -0.4218
 1187ntf    fn4 8625   3.907  -0.046   1.441  0.2519 -0.2201  0.0047
 1188ntf    cn1 8626   2.916   4.274   5.001 -0.2611 -0.0198  0.1453
 1188ntf    sn2 8627   2.987   4.263   5.168 -0.3866  0.1382  0.2088
 1188ntf    nn3 8628   3.033   4.411   5.196  0.2932  0.0026 -0.1674
 1188ntf    sn2 8629   3.076   4.470   5.335  0.2460 -0.0431 -0.1329
 1188ntf    cn1 8630   3.256   4.446   5.344  0.2603  0.1186  0.0176
 1188ntf    fn4 8631   2.808   4.348   4.985 -0.3005 -0.1332 -0.1148
 1188ntf    fn4 8632   3.003   4.330   4.919 -0.2034  0.3763  0.4724
 1188ntf    fn4 8633   2.878   4.158   4.949 -0.2619  0.0173  0.0624
 1188ntf    on5 8634   2.879   4.204   5.243 -0.1469 -0.3007  0.2112
 1188ntf    on5 8635   3.097   4.170   5.165 -0.2853  0.2614  0.0581
 1188ntf    on5 8636   3.052   4.612   5.325  0.3651 -0.0635 -0.7685
 1188ntf    on5 8637   3.025   4.399   5.449 -0.3418  0.2804 -0.1927
 1188ntf    fn4 8638   3.332   4.490   5.245  0.2231  0.1816  0.0175
 1188ntf    fn4 8639   3.294   4.321   5.365 -0.2842 -0.0864 -0.2005
 1188ntf    fn4 8640   3.291   4.505   5.458 -0.0857  0.0742  0.1472
 1189ntf    cn1 8641   1.265   3.697   0.684 -0.3962 -0.1331  0.2552
 1189ntf    sn2 8642   1.336   3.552   0.601 -0.0732  0.1347  0.0588
 1189ntf    nn3 8643   1.417   3.482   0.716  0.7065 -0.4637 -0.8355
 1189ntf    sn2 8644   1.370   3.362   0.805  0.3952  0.2493 -0.0134
 1189ntf    cn1 8645   1.468   3.397   0.954  0.1091  0.5168  0.1115
 1189ntf    fn4 8646   1.250   3.794   0.595  0.3060 -0.1944  0.0631
 1189ntf    fn4 8647   1.149   3.675   0.743 -0.2520 -0.0571  0.5688
 1189ntf    fn4 8648   1.353   3.755   0.764  0.3018 -0.4378 -0.2773
 1189ntf    on5 8649   1.226   3.474   0.551 -0.2014  0.2384  0.1772
 1189ntf    on5 8650   1.420   3.616   0.503 -0.1533 -0.2048 -0.2357
 1189ntf    on5 8651   1.233   3.363   0.850  0.3771  0.3743 -0.0725
 1189ntf    on5 8652   1.427   3.237   0.760 -0.0039  0.0864 -0.0742
 1189ntf    fn4 8653   1.597   3.403   0.929  0.1713  0.1173  0.3209
 1189ntf    fn4 8654   1.451   3.300   1.042 -0.2294  0.4328 -0.0422
 1189ntf    fn4 8655   1.437   3.513   1.009 -0.7724  0.4063 -0.1255
 1190ntf    cn1 8656   6.617   1.707   5.692 -0.3304  0.1372 -0.1463
 1190ntf    sn2 8657   6.567   1.648   5.856 -0.1228  0.0695 -0.1080
 1190ntf    nn3 8658   6.640   1.756   5.944  0.4361 -0.2985 -0.1113
 1190ntf    sn2 8659   6.582   1.882   6.017  0.2834 -0.2609 -0.2951
 1190ntf    cn1 8660   6.684   1.878   6.167 -0.2661  0.0967  0.0934
 1190ntf    fn4 8661   6.577   1.633   5.590  0.2228  0.4708 -0.6119
 1190ntf    fn4 8662   6.578   1.830   5.662 -0.4747  0.1822  0.2216
 1190ntf    fn4 8663   6.749   1.715   5.695 -0.2878 -0.4860 -0.2519
 1190ntf    on5 8664   6.424   1.659   5.851 -0.1071  0.4179  0.1810
 1190ntf    on5 8665   6.633   1.519   5.863  0.2566  0.2747  0.1709
 1190ntf    on5 8666   6.615   2.003   5.947 -0.1366  0.3513  0.5480
 1190ntf    on5 8667   6.448   1.873   6.069  0.0215  0.6986 -0.7790
 1190ntf    fn4 8668   6.676   1.981   6.250  0.1946 -0.1783  0.4845
 1190ntf    fn4 8669   6.812   1.868   6.131 -0.0871  0.6621  0.5646
 1190ntf    fn4 8670   6.650   1.773   6.241 -0.7558  0.1426 -0.0664
 1191ntf    cn1 8671   6.483   0.921   2.166  0.2681  0.0870  0.1257
 1191ntf    sn2 8672   6.594   1.044   2.090  0.1577  0.0701 -0.0629
 1191ntf    nn3 8673   6.634   1.118   2.222  0.0880 -0.2053  0.1134
 1191ntf    sn2 8674   6.577   1.254   2.277  0.1877  0.0792 -0.4744
 1191ntf    cn1 8675   6.654   1.376   2.167  0.6863 -0.1905 -0.4328
 1191ntf    fn4 8676   6.394   0.987   2.237  0.0699 -0.0714  0.0254
 1191ntf    fn4 8677   6.418   0.851   2.074 -0.0888  0.7878 -0.1605
 1191ntf    fn4 8678   6.544   0.835   2.246 -0.0356  0.1660  0.4428
 1191ntf    on5 8679   6.702   0.972   2.028 -0.1262 -0.6806  0.3028
 1191ntf    on5 8680   6.504   1.113   2.000  0.0762  0.1688  0.0929
 1191ntf    on5 8681   6.435   1.267   2.260  0.1121 -0.0809  0.0106
 1191ntf    on5 8682   6.624   1.286   2.409  0.0848  0.0959 -0.4419
 1191ntf    fn4 8683   6.625   1.362   2.039  0.8005 -0.5225 -0.4209
 1191ntf    fn4 8684   6.786   1.375   2.165  0.7022 -0.3184  0.3251
 1191ntf    fn4 8685   6.610   1.500   2.185  0.6051 -0.2855  0.0307
 1192ntf    cn1 8686   3.509   0.830   1.205  0.2981 -0.0866 -0.2772
 1192ntf    sn2 8687   3.551   0.762   1.042  0.1702 -0.3101 -0.2182
 1192ntf    nn3 8688   3.410   0.775   0.974  0.0862  0.0874  0.0297
 1192ntf    sn2 8689   3.315   0.668   0.909  0.1911  0.0692 -0.0932
 1192ntf    cn1 8690   3.401   0.640   0.751  0.0124  0.2246 -0.2193
 1192ntf    fn4 8691   3.492   0.961   1.212  0.1535 -0.1090 -0.2012
 1192ntf    fn4 8692   3.408   0.758   1.253  0.1004  0.1627 -0.3156
 1192ntf    fn4 8693   3.609   0.807   1.288  0.0543 -0.3723 -0.0551
 1192ntf    on5 8694   3.641   0.859   0.985  0.0179  0.0511  0.1455
 1192ntf    on5 8695   3.606   0.632   1.068  0.6970 -0.0807 -0.1735
 1192ntf    on5 8696   3.309   0.540   0.974 -0.4708 -0.2477 -0.7725
 1192ntf    on5 8697   3.190   0.723   0.861 -0.0150 -0.7349 -0.4991
 1192ntf    fn4 8698   3.392   0.742   0.667 -0.0707  0.3087 -0.1097
 1192ntf    fn4 8699   3.357   0.529   0.694  0.2539 -0.2303  0.4618
 1192ntf    fn4 8700   3.530   0.615   0.765  0.0488  0.3994 -0.2455
 1193ntf    cn1 8701   2.294   1.915   1.980  0.0302 -0.1155  0.3083
 1193ntf    sn2 8702   2.391   2.027   1.874 -0.0338 -0.1145  0.2499
 1193ntf    nn3 8703   2.272   2.070   1.782 -0.0173 -0.0688  0.2497
 1193ntf    sn2 8704   2.224   2.006   1.647 -0.1164  0.6640 -0.0716
 1193ntf    cn1 8705   2.047   2.045   1.663 -0.2802 -0.0328 -0.1219
 1193ntf    fn4 8706   2.366   1.813   2.023  0.3853 -0.0762 -0.1842
 1193ntf    fn4 8707   2.247   1.984   2.082  0.2273  0.0309  0.3005
 1193ntf    fn4 8708   2.190   1.863   1.916  0.0931  0.1130  0.0166
 1193ntf    on5 8709   2.437   2.131   1.964 -0.7688  0.2931  0.1628
 1193ntf    on5 8710   2.490   1.935   1.824 -0.1552 -0.1818  0.1367
 1193ntf    on5 8711   2.265   2.078   1.530  0.2187  0.1554 -0.2706
 1193ntf    on5 8712   2.210   1.862   1.647  0.1957  0.6336 -0.2668
 1193ntf    fn4 8713   1.979   1.988   1.565 -0.0891 -0.2652 -0.1214
 1193ntf    fn4 8714   2.039   2.177   1.665 -0.0753 -0.0238  0.2605
 1193ntf    fn4 8715   1.994   2.005   1.778 -0.2023 -0.1801 -0.1371
 1194ntf    cn1 8716   0.533   2.236   1.820 -0.3487 -0.3697 -0.0370
 1194ntf    sn2 8717   0.685   2.206   1.724 -0.2649 -0.0108 -0.0169
 1194ntf    nn3 8718   0.796   2.267   1.817 -0.2007 -0.1169 -0.0245
 1194ntf    sn2 8719   0.911   2.366   1.776  0.0256 -0.3386  0.0691
 1194ntf    cn1 8720   1.055   2.289   1.856  0.2125 -0.1728 -0.1081
 1194ntf    fn4 8721   0.477   2.356   1.812  0.0414 -0.1860 -0.0192
 1194ntf    fn4 8722   0.441   2.146   1.788 -0.3661 -0.6975  0.9021
 1194ntf    fn4 8723   0.564   2.212   1.946  0.1639 -0.2197 -0.1335
 1194ntf    on5 8724   0.702   2.063   1.715 -0.7973 -0.0528 -0.4531
 1194ntf    on5 8725   0.655   2.276   1.602 -0.5763  0.2449  0.2023
 1194ntf    on5 8726   0.947   2.379   1.637  0.1744 -0.8470  0.0598
 1194ntf    on5 8727   0.897   2.483   1.859 -0.2397 -0.3014 -0.0253
 1194ntf    fn4 8728   1.023   2.267   1.983 -0.2885  0.2911 -0.1480
 1194ntf    fn4 8729   1.158   2.372   1.860  0.1997 -0.1624  0.0249
 1194ntf    fn4 8730   1.090   2.178   1.793 -0.1237 -0.0817 -0.4584
 1195ntf    cn1 8731   5.552   4.576   4.206  0.1636  0.0406 -0.3893
 1195ntf    sn2 8732   5.395   4.614   4.123 -0.1021 -0.3322 -0.0593
 1195ntf    nn3 8733   5.339   4.468   4.105 -0.4874 -0.1952  0.0301
 1195ntf    sn2 8734   5.217   4.427   4.015 -0.5856  0.1631 -0.0009
 1195ntf    cn1 8735   5.300   4.360   3.868 -0.0245  0.3628  0.2209
 1195ntf    fn4 8736   5.536   4.566   4.337  0.4309 -0.0688 -0.3646
 1195ntf    fn4 8737   5.603   4.460   4.168  0.5114 -0.0736  0.3994
 1195ntf    fn4 8738   5.645   4.669   4.189 -0.3026  0.4639 -0.6300
 1195ntf    on5 8739   5.321   4.700   4.211 -0.4354 -0.0626 -0.5933
 1195ntf    on5 8740   5.425   4.678   3.997 -0.1374  0.0919  0.1492
 1195ntf    on5 8741   5.148   4.316   4.074 -0.5243 -0.2450 -0.6852
 1195ntf    on5 8742   5.131   4.530   3.962 -0.1833  0.2893 -0.4152
 1195ntf    fn4 8743   5.215   4.322   3.774  0.1715 -0.0408  0.2028
 1195ntf    fn4 8744   5.377   4.254   3.892  0.0494  0.2263 -0.5850
 1195ntf    fn4 8745   5.387   4.441   3.810 -0.0233  0.2817  0.1071
 1196ntf    cn1 8746   5.285   2.504   2.837 -0.3322  0.4833  0.0056
 1196ntf    sn2 8747   5.189   2.626   2.931 -0.4959  0.6434 -0.3651
 1196ntf    nn3 8748   5.118   2.536   3.038  0.1873  0.4847 -0.0375
 1196ntf    sn2 8749   4.972   2.478   3.046  0.4047 -0.0477  0.1673
 1196ntf    cn1 8750   4.881   2.593   3.153 -0.2267  0.0362 -0.4532
 1196ntf    fn4 8751   5.204   2.413   2.784  0.1031  0.2068 -0.1904
 1196ntf    fn4 8752   5.360   2.557   2.741  0.2117 -0.1939  0.0481
 1196ntf    fn4 8753   5.367   2.433   2.913 -0.3259 -0.3942 -0.7999
 1196ntf    on5 8754   5.291   2.705   2.997  0.0567 -0.1936 -0.2052
 1196ntf    on5 8755   5.100   2.699   2.844 -0.7031  0.4782 -0.2925
 1196ntf    on5 8756   4.906   2.480   2.918 -0.1493  0.3874  0.4538
 1196ntf    on5 8757   4.959   2.356   3.121  0.1484  0.1270  0.4075
 1196ntf    fn4 8758   4.755   2.561   3.178 -0.2422  0.5184  0.1188
 1196ntf    fn4 8759   4.878   2.712   3.096 -0.2990 -0.0029 -0.5324
 1196ntf    fn4 8760   4.940   2.610   3.270 -0.5153 -0.0001 -0.2995
 1197ntf    cn1 8761   1.370   4.176   0.768 -0.0556 -0.3234 -0.4600
 1197ntf    sn2 8762   1.437   4.345   0.771 -0.0561 -0.3294 -0.1618
 1197ntf    nn3 8763   1.435   4.390   0.621 -0.2261  0.5732  0.1022
 1197ntf    sn2 8764   1.469   4.304   0.494 -0.1875  0.4181  0.2173
 1197ntf    cn1 8765   1.559   4.438   0.412  0.2197  0.2932  0.4557
 1197ntf    fn4 8766   1.356   4.115   0.884  0.1755 -0.4398 -0.4909
 1197ntf    fn4 8767   1.252   4.174   0.709 -0.2614  0.3267 -0.0771
 1197ntf    fn4 8768   1.442   4.083   0.706  0.4345 -0.1518 -0.1561
 1197ntf    on5 8769   1.343   4.420   0.851  0.1872 -0.2898  0.0891
 1197ntf    on5 8770   1.566   4.316   0.829 -0.1667  0.2041  0.3640
 1197ntf    on5 8771   1.571   4.205   0.521 -0.3809  0.1582  0.0020
 1197ntf    on5 8772   1.358   4.272   0.407 -0.0600  0.0469  0.1875
 1197ntf    fn4 8773   1.639   4.401   0.312 -0.4370  0.2044 -0.0451
 1197ntf    fn4 8774   1.636   4.488   0.507  0.3583  0.7476  0.1109
 1197ntf    fn4 8775   1.477   4.535   0.373  0.0530 -0.3638 -0.8945
 1198ntf    cn1 8776   0.807   5.150   6.169 -0.2613 -0.1990 -0.1477
 1198ntf    sn2 8777   0.744   5.118   6.002 -0.0421  0.1091 -0.2882
 1198ntf    nn3 8778   0.796   5.244   5.923  0.4423 -0.0160 -0.1669
 1198ntf    sn2 8779   0.918   5.260   5.825  0.3003  0.3125 -0.2897
 1198ntf    cn1 8780   0.840   5.205   5.670  0.1139 -0.3463  0.0344
 1198ntf    fn4 8781   0.783   5.049   6.252  0.1068 -0.2797 -0.1378
 1198ntf    fn4 8782   0.935   5.180   6.180 -0.3135 -0.1562  0.3991
 1198ntf    fn4 8783   0.739   5.255   6.212 -0.3452 -0.1108 -0.5002
 1198ntf    on5 8784   0.801   4.997   5.948  0.1278 -0.1379  0.4378
 1198ntf    on5 8785   0.601   5.117   6.019 -0.0911 -0.4997 -0.7040
 1198ntf    on5 8786   0.927   5.401   5.795  0.2600  0.2437 -0.6241
 1198ntf    on5 8787   1.039   5.186   5.851  0.1314  0.0150 -0.3426
 1198ntf    fn4 8788   0.903   5.251   5.564 -0.2644  0.1453  0.0166
 1198ntf    fn4 8789   0.715   5.247   5.662  0.1191 -0.3139  0.1142
 1198ntf    fn4 8790   0.833   5.074   5.658 -0.1519 -0.3829  0.5412
 1199ntf    cn1 8791   6.576   0.347   3.570 -0.1668 -0.5922 -0.3911
 1199ntf    sn2 8792   6.402   0.295   3.575 -0.2758 -0.1874  0.1005
 1199ntf    nn3 8793   6.420   0.171   3.669  0.0611  0.0531  0.3553
 1199ntf    sn2 8794   6.343   0.035   3.672  0.4332 -0.1553  0.4344
 1199ntf    cn1 8795   6.443  -0.077   3.569  0.2939  0.1237 -0.0084
 1199ntf    fn4 8796   6.642   0.269   3.486  0.0848 -0.7040 -0.0939
 1199ntf    fn4 8797   6.597   0.470   3.528 -0.3515 -0.4520 -0.0756
 1199ntf    fn4 8798   6.628   0.339   3.692  0.0125 -0.0745 -0.4332
 1199ntf    on5 8799   6.342   0.412   3.636  0.4377  0.2705 -0.0569
 1199ntf    on5 8800   6.371   0.272   3.436 -0.3472  0.8330 -0.0655
 1199ntf    on5 8801   6.342  -0.024   3.803 -0.5387  0.1222  0.5573
 1199ntf    on5 8802   6.216   0.043   3.603  0.2421  0.1832  0.8220
 1199ntf    fn4 8803   6.536  -0.135   3.642  0.1256  0.1962  0.2649
 1199ntf    fn4 8804   6.498  -0.014   3.467 -0.1248 -0.2270 -0.4604
 1199ntf    fn4 8805   6.368  -0.175   3.519  0.1894  0.2275 -0.0541
 1200ntf    cn1 8806   3.221   5.181   1.266 -0.4419 -0.1282  0.1606
 1200ntf    sn2 8807   3.190   5.005   1.298 -0.1543 -0.2314 -0.1267
 1200ntf    nn3 8808   3.111   4.961   1.170  0.5048 -0.3047 -0.5156
 1200ntf    sn2 8809   3.097   4.816   1.111  0.2878 -0.4566 -0.0949
 1200ntf    cn1 8810   3.214   4.833   0.972  0.3212 -0.0167 -0.0146
 1200ntf    fn4 8811   3.303   5.239   1.352  0.2702 -0.9010  0.0104
 1200ntf    fn4 8812   3.263   5.210   1.144 -0.9763 -0.2108 -0.0439
 1200ntf    fn4 8813   3.105   5.244   1.276 -0.1620  0.3297  0.5710
 1200ntf    on5 8814   3.327   4.959   1.311 -0.1979 -0.2113  0.4175
 1200ntf    on5 8815   3.107   5.014   1.415 -0.0565 -0.1440 -0.0639
 1200ntf    on5 8816   3.150   4.707   1.190 -0.6463 -0.6623  0.2645
 1200ntf    on5 8817   2.969   4.807   1.046  0.1546  0.1390  0.0822
 1200ntf    fn4 8818   3.331   4.886   1.003  0.2136 -0.0184  0.4147
 1200ntf    fn4 8819   3.161   4.915   0.883 -0.2462 -0.3889 -0.0262
 1200ntf    fn4 8820   3.245   4.720   0.912 -0.4922 -0.2771  0.0368
 1201ntf    cn1 8821   6.023   5.556   5.024  0.0004  0.2003  0.4043
 1201ntf    sn2 8822   6.132   5.608   4.889 -0.0608 -0.3925  0.1197
 1201ntf    nn3 8823   6.224   5.711   4.966 -0.1714  0.4142 -0.8039
 1201ntf    sn2 8824   6.317   5.828   4.918  0.3150  0.4697  0.2634
 1201ntf    cn1 8825   6.471   5.731   4.915  0.1009  0.1394 -0.1694
 1201ntf    fn4 8826   5.956   5.659   5.073 -0.6648  0.0503 -0.1783
 1201ntf    fn4 8827   5.924   5.477   4.986  0.2283  0.3124 -0.4412
 1201ntf    fn4 8828   6.088   5.501   5.126  0.0773  0.4673  0.4986
 1201ntf    on5 8829   6.195   5.482   4.859  0.2623 -0.1326 -0.3020
 1201ntf    on5 8830   6.041   5.669   4.795  0.6640  0.5187 -0.0032
 1201ntf    on5 8831   6.286   5.881   4.788  0.1491 -0.3443 -0.0344
 1201ntf    on5 8832   6.337   5.922   5.026 -0.2581  0.4012  0.4323
 1201ntf    fn4 8833   6.481   5.650   5.020 -0.3980  0.5548  0.2088
 1201ntf    fn4 8834   6.580   5.804   4.925 -0.0668  0.3315  0.3268
 1201ntf    fn4 8835   6.483   5.652   4.809 -0.3637 -0.7931  0.4524
 1202ntf    cn1 8836   2.408   6.307   5.489 -0.4933 -0.1593  0.5825
 1202ntf    sn2 8837   2.478   6.241   5.643 -0.2422 -0.5527  0.3023
 1202ntf    nn3 8838   2.600   6.337   5.669 -0.0830 -0.7642  0.3351
 1202ntf    sn2 8839   2.751   6.305   5.641 -0.0477 -0.1025 -0.2413
 1202ntf    cn1 8840   2.816   6.473   5.665 -0.6070  0.0305  0.3725
 1202ntf    fn4 8841   2.355   6.426   5.510 -0.2293 -0.0440  0.5964
 1202ntf    fn4 8842   2.506   6.329   5.403 -0.6771  0.2549  0.4754
 1202ntf    fn4 8843   2.317   6.228   5.434 -0.3308 -0.3487  0.5852
 1202ntf    on5 8844   2.369   6.249   5.736 -0.6347  0.3521 -0.2275
 1202ntf    on5 8845   2.507   6.109   5.593  0.0934 -0.2598 -0.2927
 1202ntf    on5 8846   2.821   6.240   5.749 -0.2876 -0.1780 -0.1313
 1202ntf    on5 8847   2.782   6.290   5.501  0.3656 -0.0944 -0.1527
 1202ntf    fn4 8848   2.750   6.567   5.599 -1.1251 -0.3713  0.3125
 1202ntf    fn4 8849   2.944   6.487   5.635 -0.6853  0.1203  0.0722
 1202ntf    fn4 8850   2.802   6.505   5.793  0.1228  0.0502  0.4540
 1203ntf    cn1 8851   4.470   3.522   1.290  0.2075  0.0315 -0.0147
 1203ntf    sn2 8852   4.627   3.567   1.211  0.4413 -0.4884  0.1485
 1203ntf    nn3 8853   4.715   3.574   1.341 -0.2358  0.1176  0.5848
 1203ntf    sn2 8854   4.818   3.472   1.403 -0.2179 -0.1362  0.1476
 1203ntf    cn1 8855   4.970   3.550   1.342 -0.4576  0.0095 -0.2677
 1203ntf    fn4 8856   4.474   3.405   1.353 -0.6014 -0.1053 -0.2009
 1203ntf    fn4 8857   4.413   3.607   1.374  0.5437  0.3745 -0.1334
 1203ntf    fn4 8858   4.380   3.492   1.198  0.1373 -0.0816  0.0907
 1203ntf    on5 8859   4.651   3.458   1.120 -0.2115 -0.2301 -0.3401
 1203ntf    on5 8860   4.597   3.697   1.156  0.2704 -0.3554  0.5472
 1203ntf    on5 8861   4.831   3.483   1.547  0.3779  0.3600  0.0580
 1203ntf    on5 8862   4.820   3.338   1.350  0.1531 -0.0652 -0.0184
 1203ntf    fn4 8863   5.073   3.477   1.382 -0.4990 -0.3258 -0.7684
 1203ntf    fn4 8864   5.000   3.669   1.393  0.4282 -0.3162 -0.0009
 1203ntf    fn4 8865   4.972   3.559   1.210 -0.2194 -0.1472 -0.2759
 1204ntf    cn1 8866   2.423   2.002   3.417 -0.2346 -0.2152  0.2227
 1204ntf    sn2 8867   2.495   1.908   3.279 -0.0367 -0.0613  0.2204
 1204ntf    nn3 8868   2.405   1.951   3.158 -0.0864 -0.0430  0.2637
 1204ntf    sn2 8869   2.257   1.907   3.132 -0.0179 -0.1835  0.1073
 1204ntf    cn1 8870   2.285   1.809   2.982 -0.3325  0.1993 -0.2048
 1204ntf    fn4 8871   2.310   1.946   3.457 -0.4740 -0.1838 -0.4018
 1204ntf    fn4 8872   2.498   2.012   3.525  0.4432 -0.1867 -0.2435
 1204ntf    fn4 8873   2.385   2.123   3.379 -0.3326 -0.1267  0.5961
 1204ntf    on5 8874   2.627   1.965   3.269 -0.5182  0.9722 -0.4848
 1204ntf    on5 8875   2.490   1.769   3.317 -0.3380 -0.2216 -0.3896
 1204ntf    on5 8876   2.196   1.818   3.227  0.4030 -0.4886  0.0916
 1204ntf    on5 8877   2.176   2.016   3.083  0.3206 -0.1523 -0.3840
 1204ntf    fn4 8878   2.350   1.697   3.008 -0.5306  0.1506  0.0858
 1204ntf    fn4 8879   2.358   1.873   2.892 -0.1979  0.1749 -0.1138
 1204ntf    fn4 8880   2.171   1.777   2.921  0.0220 -0.0764 -0.7344
 1205ntf    cn1 8881   2.258   1.826   6.087 -0.0111  0.0978 -0.2563
 1205ntf    sn2 8882   2.090   1.755   6.086  0.0037  0.0568  0.1572
 1205ntf    nn3 8883   2.049   1.753   6.238 -0.2702 -0.0064  0.0820
 1205ntf    sn2 8884   1.924   1.677   6.295 -0.2425  0.0029  0.1550
 1205ntf    cn1 8885   1.817   1.821   6.319 -0.1659  0.0975 -0.0688
 1205ntf    fn4 8886   2.300   1.846   5.963  0.1749  0.2420 -0.1706
 1205ntf    fn4 8887   2.252   1.950   6.133 -0.2453 -0.1063  0.2733
 1205ntf    fn4 8888   2.341   1.751   6.157 -0.2943  0.2836  0.2863
 1205ntf    on5 8889   2.022   1.846   5.998 -0.2020 -0.0272  0.2296
 1205ntf    on5 8890   2.113   1.623   6.034 -0.6591 -0.3341  0.8384
 1205ntf    on5 8891   1.839   1.601   6.206  0.1236  0.0478 -0.2361
 1205ntf    on5 8892   1.936   1.621   6.427 -0.3326 -0.1679  0.0909
 1205ntf    fn4 8893   1.726   1.790   6.411 -0.1012 -0.1175 -0.0778
 1205ntf    fn4 8894   1.750   1.850   6.208 -0.2742  0.2411  0.0321
 1205ntf    fn4 8895   1.886   1.926   6.360  0.3821 -0.0887 -0.5152
 1206ntf    cn1 8896   5.992   2.964   2.851  0.2552  0.1298  0.4188
 1206ntf    sn2 8897   5.956   2.901   3.017 -0.5627 -0.3247  0.0741
 1206ntf    nn3 8898   6.056   2.780   3.018 -0.5264 -0.2964 -0.1313
 1206ntf    sn2 8899   6.131   2.714   3.138 -0.1643 -0.0064 -0.1960
 1206ntf    cn1 8900   6.004   2.593   3.186 -0.0689 -0.1481 -0.2996
 1206ntf    fn4 8901   6.113   3.014   2.832  0.1718  0.2142  0.0906
 1206ntf    fn4 8902   5.974   2.872   2.758  0.0157  0.2585  0.3384
 1206ntf    fn4 8903   5.905   3.058   2.819  0.3510  0.1041  0.0765
 1206ntf    on5 8904   5.989   3.015   3.099  0.0249 -0.0728 -0.5019
 1206ntf    on5 8905   5.820   2.853   3.011 -0.7617  0.2364  0.0366
 1206ntf    on5 8906   6.230   2.616   3.101 -0.0767 -0.0030  0.0288
 1206ntf    on5 8907   6.153   2.796   3.255  0.0565 -0.1275 -0.1513
 1206ntf    fn4 8908   6.060   2.498   3.260 -0.0195  0.3540  0.3095
 1206ntf    fn4 8909   5.946   2.532   3.083  0.1487 -0.2913 -0.3385
 1206ntf    fn4 8910   5.912   2.651   3.261  0.3222 -0.3650  0.3494
 1207ntf    cn1 8911   0.478   1.422   2.244 -0.3808  0.4214 -0.0652
 1207ntf    sn2 8912   0.521   1.534   2.381  0.1797  0.0758  0.0439
 1207ntf    nn3 8913   0.663   1.475   2.416  0.0961 -0.1717 -0.0303
 1207ntf    sn2 8914   0.766   1.542   2.514  0.1369  0.2492 -0.3588
 1207ntf    cn1 8915   0.727   1.469   2.676 -0.0068  0.7822 -0.1516
 1207ntf    fn4 8916   0.348   1.425   2.219 -0.4632  0.3410  0.3381
 1207ntf    fn4 8917   0.534   1.454   2.129  0.4082  0.0453  0.2086
 1207ntf    fn4 8918   0.513   1.296   2.264 -0.2402  0.4098 -0.3842
 1207ntf    on5 8919   0.516   1.663   2.317 -0.4304  0.1068  0.1570
 1207ntf    on5 8920   0.422   1.507   2.482 -0.3132 -0.1007 -0.4794
 1207ntf    on5 8921   0.896   1.486   2.485  0.3989  0.6152  0.0915
 1207ntf    on5 8922   0.749   1.683   2.539  0.1220  0.3081 -0.6968
 1207ntf    fn4 8923   0.716   1.337   2.675 -0.3990  0.8160 -0.5530
 1207ntf    fn4 8924   0.614   1.516   2.725 -0.0894 -0.2878  0.7192
 1207ntf    fn4 8925   0.818   1.491   2.770  0.4606 -0.0623 -0.3881
 1208ntf    cn1 8926   3.126   0.872   3.319  0.2470  0.2856  0.0099
 1208ntf    sn2 8927   3.185   0.702   3.290 -0.2648  0.1018  0.0403
 1208ntf    nn3 8928   3.305   0.691   3.390 -0.3179  0.5697  0.1595
 1208ntf    sn2 8929   3.456   0.731   3.369 -0.2044 -0.0192 -0.1783
 1208ntf    cn1 8930   3.529   0.566   3.341 -0.4030 -0.1299 -0.0470
 1208ntf    fn4 8931   3.049   0.901   3.216 -0.2888 -0.4639  0.1882
 1208ntf    fn4 8932   3.055   0.892   3.429  0.3420  0.0377  0.1173
 1208ntf    fn4 8933   3.230   0.954   3.318  0.1904  0.3571 -0.0824
 1208ntf    on5 8934   3.067   0.626   3.326 -0.4739  0.4956  0.1928
 1208ntf    on5 8935   3.224   0.699   3.151 -0.2082  0.7202  0.0398
 1208ntf    on5 8936   3.480   0.809   3.250 -0.1074 -0.0674 -0.1900
 1208ntf    on5 8937   3.521   0.774   3.490 -0.3733  0.0788 -0.1224
 1208ntf    fn4 8938   3.654   0.565   3.298 -0.3295  0.0659  0.1587
 1208ntf    fn4 8939   3.459   0.490   3.259 -0.2892 -0.1663 -0.1097
 1208ntf    fn4 8940   3.528   0.497   3.454 -0.5261 -0.3252 -0.1677
 1209ntf    cn1 8941   1.343   4.845   2.892 -0.1216  0.3894 -0.3644
 1209ntf    sn2 8942   1.485   4.760   2.968 -0.3902 -0.1348 -0.4436
 1209ntf    nn3 8943   1.591   4.875   2.946  0.1586 -0.5455  0.0257
 1209ntf    sn2 8944   1.715   4.892   2.853  0.2103  0.1056  0.2130
 1209ntf    cn1 8945   1.853   4.833   2.956  0.1203 -0.2241  0.1450
 1209ntf    fn4 8946   1.323   4.971   2.930 -0.0120  0.1679  0.4525
 1209ntf    fn4 8947   1.351   4.849   2.760  0.1247 -0.2065 -0.3698
 1209ntf    fn4 8948   1.227   4.785   2.911 -0.0540  0.4148  0.1590
 1209ntf    on5 8949   1.444   4.750   3.106  0.7117 -0.2829 -0.1135
 1209ntf    on5 8950   1.511   4.637   2.899 -0.1806 -0.3671  0.0426
 1209ntf    on5 8951   1.718   4.809   2.735  0.3304  0.7483 -0.2490
 1209ntf    on5 8952   1.756   5.029   2.831  0.7340 -0.2107 -0.9051
 1209ntf    fn4 8953   1.969   4.889   2.926  0.1245 -0.2705  0.0739
 1209ntf    fn4 8954   1.866   4.703   2.937  0.3308 -0.0674 -0.8189
 1209ntf    fn4 8955   1.833   4.862   3.084 -0.0197  0.0695  0.0593
 1210ntf    cn1 8956   4.527   2.388   5.569  0.0260  0.2105 -0.2447
 1210ntf    sn2 8957   4.542   2.245   5.458 -0.0452  0.0788 -0.0854
 1210ntf    nn3 8958   4.527   2.129   5.563 -0.2199  0.3219  0.1635
 1210ntf    sn2 8959   4.451   1.992   5.551 -0.1046  0.2725 -0.0089
 1210ntf    cn1 8960   4.274   2.030   5.567 -0.2301 -0.0989 -0.4745
 1210ntf    fn4 8961   4.635   2.394   5.645 -0.4788 -0.2746  0.5324
 1210ntf    fn4 8962   4.512   2.507   5.513 -0.5310  0.0836 -0.3711
 1210ntf    fn4 8963   4.426   2.383   5.655  0.0017 -0.0765 -0.2875
 1210ntf    on5 8964   4.435   2.262   5.363  0.1965 -0.0467 -0.3791
 1210ntf    on5 8965   4.675   2.257   5.404  0.3913 -0.0059  0.9402
 1210ntf    on5 8966   4.461   1.928   5.422 -0.1135  0.4381 -0.0917
 1210ntf    on5 8967   4.482   1.902   5.659 -0.5610  0.2785  0.1294
 1210ntf    fn4 8968   4.245   2.096   5.678  0.6001  0.2228 -0.4356
 1210ntf    fn4 8969   4.190   1.929   5.553 -0.0419 -0.3417  0.1535
 1210ntf    fn4 8970   4.236   2.113   5.470 -0.1702  0.5498  0.0465
 1211ntf    cn1 8971   5.721   3.962   4.716 -0.1231 -0.2540 -0.0841
 1211ntf    sn2 8972   5.620   4.055   4.597  0.1691  0.1128 -0.0465
 1211ntf    nn3 8973   5.720   4.097   4.483 -0.2918 -0.1961 -0.5698
 1211ntf    sn2 8974   5.812   4.223   4.466 -0.2194 -0.1154  0.3564
 1211ntf    cn1 8975   5.714   4.317   4.346  0.5024  0.2397  0.0394
 1211ntf    fn4 8976   5.778   3.856   4.662  0.0321 -0.1360 -0.1503
 1211ntf    fn4 8977   5.821   4.030   4.770 -0.5262  0.5354 -0.3172
 1211ntf    fn4 8978   5.651   3.917   4.820 -0.2463 -0.5798 -0.3060
 1211ntf    on5 8979   5.534   3.947   4.555  0.3329 -0.1576  0.3053
 1211ntf    on5 8980   5.566   4.162   4.677  0.2478  0.0641  0.0720
 1211ntf    on5 8981   5.819   4.308   4.582 -0.5642 -0.1888  0.4329
 1211ntf    on5 8982   5.937   4.193   4.400 -0.1571  0.2964  0.2877
 1211ntf    fn4 8983   5.598   4.358   4.395  0.2990 -0.3701  0.0729
 1211ntf    fn4 8984   5.684   4.249   4.236  0.8606 -0.2490  0.2386
 1211ntf    fn4 8985   5.784   4.420   4.301  0.1593  0.5125  0.1275
 1212ntf    cn1 8986   3.165   2.633   3.509 -0.0230 -0.0537  0.0768
 1212ntf    sn2 8987   3.236   2.466   3.510 -0.4651 -0.2431 -0.2662
 1212ntf    nn3 8988   3.249   2.445   3.355  0.5401 -0.1221 -0.1996
 1212ntf    sn2 8989   3.200   2.317   3.280  0.3570 -0.0281 -0.2401
 1212ntf    cn1 8990   3.267   2.174   3.370  0.3859  0.2918  0.2477
 1212ntf    fn4 8991   3.164   2.680   3.633 -0.0596  0.1263  0.0092
 1212ntf    fn4 8992   3.226   2.722   3.432 -0.0001 -0.1893 -0.0610
 1212ntf    fn4 8993   3.039   2.624   3.470 -0.1840 -0.3691  0.6639
 1212ntf    on5 8994   3.364   2.475   3.576 -0.4485  0.5423 -0.3933
 1212ntf    on5 8995   3.127   2.392   3.570 -0.0487 -0.2484  0.4880
 1212ntf    on5 8996   3.057   2.293   3.279  0.2918  0.2946  0.5569
 1212ntf    on5 8997   3.262   2.306   3.150  0.6172  0.1910 -0.1343
 1212ntf    fn4 8998   3.387   2.141   3.328  0.3222 -0.0038  0.2922
 1212ntf    fn4 8999   3.198   2.064   3.343  0.3206  0.5361 -0.6047
 1212ntf    fn4 9000   3.274   2.190   3.501  0.2397  0.4093  0.2428
 1213ntf    cn1 9001   1.283   5.824   4.728  0.2455  0.3592 -0.5664
 1213ntf    sn2 9002   1.224   5.769   4.891 -0.1415  0.3536 -0.7064
 1213ntf    nn3 9003   1.365   5.749   4.957 -0.1122  0.8108 -0.6268
 1213ntf    sn2 9004   1.446   5.853   5.043 -0.1226  0.0894  0.2758
 1213ntf    cn1 9005   1.359   5.842   5.202 -0.4152  0.1375  0.1195
 1213ntf    fn4 9006   1.354   5.728   4.672  0.4755 -0.0386  0.3860
 1213ntf    fn4 9007   1.184   5.852   4.644  0.2443  0.5175 -0.5127
 1213ntf    fn4 9008   1.358   5.932   4.738 -0.1003  0.5870 -0.3840
 1213ntf    on5 9009   1.137   5.867   4.951 -0.1664  0.0681 -0.2725
 1213ntf    on5 9010   1.163   5.642   4.859  0.2734 -0.1397  0.4084
 1213ntf    on5 9011   1.580   5.806   5.071  0.0162  0.5520  0.3847
 1213ntf    on5 9012   1.437   5.988   4.993  0.6677 -0.0573 -0.2812
 1213ntf    fn4 9013   1.391   5.939   5.286  0.4376 -0.1698  0.1561
 1213ntf    fn4 9014   1.388   5.728   5.263  0.3022  0.4874  0.4423
 1213ntf    fn4 9015   1.228   5.849   5.186 -0.4009  0.0337 -0.0531
 1214ntf    cn1 9016   1.832   3.128   0.080  0.1090 -0.1303 -0.4238
 1214ntf    sn2 9017   1.716   3.006   0.151  0.4440 -0.1014  0.1795
 1214ntf    nn3 9018   1.585   3.024   0.066  0.1293  0.2066  0.7207
 1214ntf    sn2 9019   1.434   3.020   0.109 -0.1333 -0.1690 -0.2207
 1214ntf    cn1 9020   1.419   3.197   0.148  0.2909 -0.1397 -0.1888
 1214ntf    fn4 9021   1.941   3.142   0.153 -0.4198  0.0691  0.3420
 1214ntf    fn4 9022   1.865   3.089  -0.042 -0.3338 -0.4516 -0.4437
 1214ntf    fn4 9023   1.773   3.245   0.064  0.5119  0.1875  0.3442
 1214ntf    on5 9024   1.792   2.888   0.119 -0.2593 -0.6568  0.5443
 1214ntf    on5 9025   1.708   3.046   0.290  0.0214  0.1396  0.0877
 1214ntf    on5 9026   1.341   3.014  -0.001 -0.5325 -0.5499  0.1346
 1214ntf    on5 9027   1.396   2.942   0.224  0.0966 -0.3781 -0.2852
 1214ntf    fn4 9028   1.293   3.229   0.172  0.3575 -0.2093  0.2609
 1214ntf    fn4 9029   1.463   3.270   0.047 -0.1083  0.1523 -0.1526
 1214ntf    fn4 9030   1.485   3.234   0.257 -0.1752 -0.9222  0.3629
 1215ntf    cn1 9031   0.490   1.063   6.043 -0.2925 -0.0278 -0.0876
 1215ntf    sn2 9032   0.439   0.904   6.115  0.0140 -0.0917 -0.0089
 1215ntf    nn3 9033   0.362   0.948   6.245  0.1972 -0.7502  0.3268
 1215ntf    sn2 9034   0.207   0.968   6.246  0.2589 -0.2127 -0.1406
 1215ntf    cn1 9035   0.186   1.117   6.347  0.1514 -0.3002 -0.0343
 1215ntf    fn4 9036   0.569   1.128   6.127 -0.4330 -0.4181  0.3444
 1215ntf    fn4 9037   0.561   1.046   5.932 -0.1126  0.2430 -0.0160
 1215ntf    fn4 9038   0.386   1.142   6.023 -0.2374  0.0236 -0.1750
 1215ntf    on5 9039   0.363   0.843   6.008 -0.3200  0.2637  0.0213
 1215ntf    on5 9040   0.568   0.848   6.146  0.0788  0.0136 -0.0888
 1215ntf    on5 9041   0.131   0.998   6.127  0.6720 -0.0937 -0.3739
 1215ntf    on5 9042   0.143   0.867   6.326 -0.2607  0.3196  0.1232
 1215ntf    fn4 9043   0.213   1.098   6.475  0.6882  0.7205  0.0145
 1215ntf    fn4 9044   0.065   1.169   6.331  0.2513 -0.2123 -0.4930
 1215ntf    fn4 9045   0.269   1.210   6.304 -0.2347 -0.2026 -0.5770
 1216ntf    cn1 9046   6.558   0.490   4.247 -0.0208 -0.0216  0.0750
 1216ntf    sn2 9047   6.600   0.586   4.396  0.2979 -0.2078  0.1069
 1216ntf    nn3 9048   6.566   0.729   4.342  0.1390 -0.0124  0.7163
 1216ntf    sn2 9049   6.441   0.820   4.371 -0.1696 -0.1407 -0.1955
 1216ntf    cn1 9050   6.515   0.935   4.490 -0.2331 -0.1700 -0.1282
 1216ntf    fn4 9051   6.574   0.556   4.134 -0.3679 -0.6037 -0.3178
 1216ntf    fn4 9052   6.632   0.381   4.235 -0.2033 -0.1218 -0.1374
 1216ntf    fn4 9053   6.434   0.446   4.247  0.1323 -0.4657  0.5824
 1216ntf    on5 9054   6.529   0.531   4.510 -0.2155  0.6025  0.1845
 1216ntf    on5 9055   6.743   0.576   4.408  0.3839  0.4094 -0.3758
 1216ntf    on5 9056   6.410   0.906   4.259  0.0709  0.5679  0.2786
 1216ntf    on5 9057   6.335   0.758   4.446  0.1210 -0.3330  0.0586
 1216ntf    fn4 9058   6.434   0.982   4.584 -0.1135 -0.6015  0.1969
 1216ntf    fn4 9059   6.580   1.034   4.431  0.0517 -0.0806  0.3338
 1216ntf    fn4 9060   6.605   0.875   4.567  0.0986 -0.2933 -0.6091
 1217ntf    cn1 9061   1.500   6.218   1.770  0.3069 -0.3287 -0.4228
 1217ntf    sn2 9062   1.400   6.075   1.819  0.0645 -0.0169 -0.0083
 1217ntf    nn3 9063   1.496   5.956   1.783 -0.3067 -0.2627 -0.1927
 1217ntf    sn2 9064   1.511   5.812   1.844 -0.0649 -0.2044 -0.1155
 1217ntf    cn1 9065   1.478   5.718   1.692 -0.1801  0.1327 -0.3016
 1217ntf    fn4 9066   1.430   6.315   1.714  0.0267 -0.2430  0.0742
 1217ntf    fn4 9067   1.551   6.279   1.875 -0.0819 -0.7075 -0.0127
 1217ntf    fn4 9068   1.608   6.190   1.699  0.3100 -0.0593 -0.5236
 1217ntf    on5 9069   1.368   6.089   1.959  1.1333 -0.1914  0.2585
 1217ntf    on5 9070   1.291   6.097   1.727 -0.3584 -0.0411  0.4818
 1217ntf    on5 9071   1.648   5.783   1.876 -0.2268 -0.2548  0.5422
 1217ntf    on5 9072   1.406   5.776   1.936  0.1179 -0.0237  0.1633
 1217ntf    fn4 9073   1.470   5.589   1.722  0.2889  0.1666 -0.0136
 1217ntf    fn4 9074   1.572   5.726   1.600  0.0581 -0.2814 -0.0971
 1217ntf    fn4 9075   1.361   5.748   1.639 -0.2485  0.3144 -0.0500
 1218ntf    cn1 9076   2.882   5.617   0.653  0.0449  0.0908 -0.1793
 1218ntf    sn2 9077   2.780   5.754   0.592  0.1590  0.1439 -0.2529
 1218ntf    nn3 9078   2.872   5.805   0.476  0.1485  0.0124 -0.3195
 1218ntf    sn2 9079   2.988   5.912   0.469  0.0504  0.1313 -0.1357
 1218ntf    cn1 9080   2.892   6.055   0.410 -0.0089  0.1283 -0.0477
 1218ntf    fn4 9081   2.889   5.514   0.570 -0.4546  0.1130 -0.2476
 1218ntf    fn4 9082   3.008   5.651   0.678  0.0818 -0.0215 -0.2104
 1218ntf    fn4 9083   2.841   5.569   0.769  0.7821  0.5014  0.2615
 1218ntf    on5 9084   2.661   5.687   0.546 -0.1781  0.4517  0.1599
 1218ntf    on5 9085   2.760   5.831   0.712  0.3097  0.0546 -0.1709
 1218ntf    on5 9086   3.036   5.945   0.601 -0.2136  0.2474 -0.0669
 1218ntf    on5 9087   3.081   5.882   0.363  0.2054 -0.2595  0.1076
 1218ntf    fn4 9088   2.766   6.056   0.448  0.2086  0.0268  0.6972
 1218ntf    fn4 9089   2.890   6.075   0.280 -0.1466  0.5702  0.0199
 1218ntf    fn4 9090   2.944   6.166   0.461 -0.5146  0.3133  0.0646
 1219ntf    cn1 9091   5.282   5.003   5.007  0.0980  0.0189  0.0197
 1219ntf    sn2 9092   5.433   4.902   5.016  0.1178  0.0355 -0.1280
 1219ntf    nn3 9093   5.539   5.011   4.974  0.3542 -0.1007  0.1116
 1219ntf    sn2 9094   5.682   4.983   4.915  0.2716  0.1169 -0.1951
 1219ntf    cn1 9095   5.643   4.961   4.739  0.2539 -0.3724 -0.1309
 1219ntf    fn4 9096   5.186   4.951   4.933 -0.2511  0.0711  0.4344
 1219ntf    fn4 9097   5.231   5.014   5.129  0.0891  0.0057  0.0177
 1219ntf    fn4 9098   5.312   5.127   4.973  0.4474  0.0963  0.5883
 1219ntf    on5 9099   5.450   4.871   5.155  0.0666  0.2645 -0.0696
 1219ntf    on5 9100   5.408   4.795   4.922 -0.8531  0.0883  0.0637
 1219ntf    on5 9101   5.770   5.097   4.920  0.3748  0.0278  0.0609
 1219ntf    on5 9102   5.739   4.857   4.955  0.0649  0.0021 -0.2593
 1219ntf    fn4 9103   5.751   4.976   4.664  0.1807  0.0346 -0.1580
 1219ntf    fn4 9104   5.562   5.057   4.698  0.5536  0.1341  0.4518
 1219ntf    fn4 9105   5.592   4.842   4.711 -0.2847 -0.0636 -0.4791
 1220ntf    cn1 9106   6.233   2.578   2.251  0.1079  0.0853  0.1404
 1220ntf    sn2 9107   6.069   2.657   2.257  0.0476 -0.0490  0.2628
 1220ntf    nn3 9108   6.014   2.597   2.391  0.0263  0.2441  0.3859
 1220ntf    sn2 9109   5.901   2.489   2.407  0.3002 -0.0998  0.0260
 1220ntf    cn1 9110   5.744   2.571   2.365  0.2490 -0.1038  0.2090
 1220ntf    fn4 9111   6.309   2.615   2.353 -0.1568 -0.4118  0.5234
 1220ntf    fn4 9112   6.215   2.447   2.254  0.0461  0.0998  0.5307
 1220ntf    fn4 9113   6.298   2.607   2.140 -0.4601  0.2029 -0.1669
 1220ntf    on5 9114   6.108   2.796   2.257  0.7770 -0.2497  0.0167
 1220ntf    on5 9115   6.017   2.604   2.133  0.0365 -0.7545  0.5629
 1220ntf    on5 9116   5.908   2.378   2.316  0.2367  0.3360 -0.5177
 1220ntf    on5 9117   5.887   2.460   2.548 -0.2587  0.2771  0.0552
 1220ntf    fn4 9118   5.715   2.675   2.442 -0.0621 -0.1071  0.0987
 1220ntf    fn4 9119   5.638   2.494   2.385  0.1069  0.1264  0.3455
 1220ntf    fn4 9120   5.740   2.616   2.241 -0.2792 -0.0369  0.2479
 1221ntf    cn1 9121   2.652   5.499   2.347  0.4600  0.3298  0.0512
 1221ntf    sn2 9122   2.628   5.564   2.179 -0.2883  0.0939  0.0625
 1221ntf    nn3 9123   2.773   5.549   2.122 -0.2480  0.1584  0.1468
 1221ntf    sn2 9124   2.830   5.457   2.009 -0.2688  0.1825  0.1167
 1221ntf    cn1 9125   3.006   5.462   2.053 -0.2649 -0.2699  0.1642
 1221ntf    fn4 9126   2.574   5.560   2.436  0.0858 -0.1435  0.0499
 1221ntf    fn4 9127   2.637   5.369   2.361  0.5757  0.2917 -0.1850
 1221ntf    fn4 9128   2.777   5.511   2.389  0.3163  0.5400  0.4357
 1221ntf    on5 9129   2.531   5.475   2.121 -0.1643 -0.4397  0.6679
 1221ntf    on5 9130   2.598   5.703   2.202 -0.0231  0.1461  0.0917
 1221ntf    on5 9131   2.794   5.317   2.016 -0.0203  0.1310  0.3640
 1221ntf    on5 9132   2.821   5.520   1.879  0.1433 -0.5409 -0.2729
 1221ntf    fn4 9133   3.026   5.401   2.168  0.1209 -0.1551  0.1600
 1221ntf    fn4 9134   3.056   5.584   2.064 -0.3750 -0.1729 -0.3719
 1221ntf    fn4 9135   3.075   5.395   1.962 -0.9121 -0.7347  0.0130
 1222ntf    cn1 9136   0.996   3.417   5.997 -0.1126 -0.0033 -0.1528
 1222ntf    sn2 9137   0.882   3.310   6.090  0.1194 -0.0328  0.0994
 1222ntf    nn3 9138   0.989   3.200   6.122  0.5146  0.2498 -0.2449
 1222ntf    sn2 9139   1.001   3.053   6.069  0.2502  0.1527 -0.0328
 1222ntf    cn1 9140   0.861   2.989   6.166  0.3117  0.0893  0.0139
 1222ntf    fn4 9141   1.078   3.483   6.078 -0.0609  0.0935 -0.2833
 1222ntf    fn4 9142   1.066   3.349   5.908  0.0334 -0.3481  0.2220
 1222ntf    fn4 9143   0.933   3.511   5.928  0.4112  0.1938 -0.3685
 1222ntf    on5 9144   0.841   3.392   6.201 -0.1270  0.4304 -0.3309
 1222ntf    on5 9145   0.778   3.273   5.997  0.1388 -0.3133  0.1870
 1222ntf    on5 9146   0.973   3.024   5.930  0.1156 -0.3340  0.0910
 1222ntf    on5 9147   1.114   2.985   6.127  0.3115  0.2605 -0.0277
 1222ntf    fn4 9148   0.850   3.037   6.289  0.1819 -0.1720  0.1038
 1222ntf    fn4 9149   0.849   2.857   6.169  0.1544  0.1055  0.0777
 1222ntf    fn4 9150   0.747   3.037   6.119  0.0366  0.0373  0.6166
 1223ntf    cn1 9151   4.544   4.349   6.555  0.2200 -0.4207  0.1382
 1223ntf    sn2 9152   4.442   4.388   6.701  0.1731 -0.0082 -0.0047
 1223ntf    nn3 9153   4.352   4.260   6.710  0.6188 -0.3400 -0.1972
 1223ntf    sn2 9154   4.195   4.250   6.706  0.5845 -0.0707  0.3296
 1223ntf    cn1 9155   4.180   4.164   6.546 -0.3303  0.4565  0.1203
 1223ntf    fn4 9156   4.607   4.447   6.493  0.0471 -0.0892  0.4832
 1223ntf    fn4 9157   4.639   4.262   6.584  0.2121 -0.4709  0.0163
 1223ntf    fn4 9158   4.470   4.290   6.462  0.4813 -0.2080 -0.2040
 1223ntf    on5 9159   4.537   4.394   6.809 -0.0842  0.8176  0.1811
 1223ntf    on5 9160   4.376   4.513   6.671  0.1422 -0.0895 -0.2787
 1223ntf    on5 9161   4.146   4.155   6.802 -0.7867  0.5527  0.2686
 1223ntf    on5 9162   4.124   4.376   6.698  0.0802 -0.3220  0.7898
 1223ntf    fn4 9163   4.175   4.032   6.561 -0.0030  0.4452  0.1373
 1223ntf    fn4 9164   4.283   4.195   6.470  0.0010 -0.3211  0.2417
 1223ntf    fn4 9165   4.078   4.201   6.472 -0.0564  0.7841 -0.0944
 1224ntf    cn1 9166   0.420   1.447   4.958  0.1637  0.2267 -0.1115
 1224ntf    sn2 9167   0.494   1.380   5.110 -0.1116  0.0999 -0.0323
 1224ntf    nn3 9168   0.413   1.246   5.114 -0.1489  0.1266  0.1317
 1224ntf    sn2 9169   0.258   1.224   5.126 -0.0773 -0.3750  0.1454
 1224ntf    cn1 9170   0.263   1.127   5.280  0.1260 -0.4041  0.1206
 1224ntf    fn4 9171   0.455   1.573   4.934  0.4777  0.0931 -0.3503
 1224ntf    fn4 9172   0.452   1.376   4.852  0.0339 -0.1562  0.1026
 1224ntf    fn4 9173   0.288   1.460   4.956  0.1586  0.1018 -0.7204
 1224ntf    on5 9174   0.635   1.358   5.086  0.0194  0.8587  0.0242
 1224ntf    on5 9175   0.472   1.476   5.215  0.2665  0.1261  0.0250
 1224ntf    on5 9176   0.176   1.334   5.169  0.3311  0.0595 -0.1874
 1224ntf    on5 9177   0.204   1.132   5.028  0.0812 -0.2712 -0.0381
 1224ntf    fn4 9178   0.330   1.013   5.277  0.3399 -0.2664 -0.3680
 1224ntf    fn4 9179   0.139   1.091   5.310 -0.0858 -0.1276 -0.4161
 1224ntf    fn4 9180   0.309   1.202   5.379  0.0610 -0.0885 -0.0872
 1225ntf    cn1 9181   2.635   1.783   6.439 -0.3590 -0.3832  0.2995
 1225ntf    sn2 9182   2.472   1.831   6.504 -0.2366  0.0666  0.2778
 1225ntf    nn3 9183   2.476   1.762   6.645  0.3760 -0.5234 -0.0193
 1225ntf    sn2 9184   2.512   1.840   6.776 -0.1676 -0.2446 -0.0334
 1225ntf    cn1 9185   2.419   1.732   6.889  0.1063 -0.4070  0.0383
 1225ntf    fn4 9186   2.666   1.831   6.320 -0.2971  0.2076  0.5524
 1225ntf    fn4 9187   2.727   1.822   6.526 -0.3803 -0.1569  0.2202
 1225ntf    fn4 9188   2.648   1.651   6.431 -0.1735 -0.3280 -0.3519
 1225ntf    on5 9189   2.471   1.975   6.505  0.2904  0.0856 -0.6551
 1225ntf    on5 9190   2.384   1.772   6.405 -0.2316  0.1275  0.2369
 1225ntf    on5 9191   2.653   1.825   6.803 -0.1349 -0.0340 -0.0911
 1225ntf    on5 9192   2.457   1.971   6.802 -0.0772 -0.1814 -0.1626
 1225ntf    fn4 9193   2.474   1.613   6.907 -0.5637 -0.6771  0.3326
 1225ntf    fn4 9194   2.298   1.701   6.845  0.0990 -0.6118  0.1977
 1225ntf    fn4 9195   2.417   1.791   7.008  0.4028 -0.1421 -0.0883
 1226ntf    cn1 9196   2.728   2.878   6.206  0.1266  0.1851 -0.0360
 1226ntf    sn2 9197   2.867   2.971   6.278  0.2685 -0.1977  0.1851
 1226ntf    nn3 9198   2.826   2.962   6.429 -0.3972  0.2581  0.0317
 1226ntf    sn2 9199   2.910   2.938   6.559 -0.2382  0.1034 -0.0993
 1226ntf    cn1 9200   2.883   2.759   6.574 -0.5355  0.1430 -0.1499
 1226ntf    fn4 9201   2.716   2.764   6.272 -0.2387  0.1814 -0.1059
 1226ntf    fn4 9202   2.613   2.941   6.226  0.0528  0.0075  0.1003
 1226ntf    fn4 9203   2.736   2.849   6.078 -0.0065 -0.1830  0.0393
 1226ntf    on5 9204   2.983   2.892   6.243 -0.3603 -0.7557 -0.6555
 1226ntf    on5 9205   2.846   3.099   6.215 -0.0388 -0.1882  0.3086
 1226ntf    on5 9206   3.053   2.954   6.551 -0.2692  0.4449  0.0118
 1226ntf    on5 9207   2.855   2.984   6.685  0.5837  0.2449  0.2108
 1226ntf    fn4 9208   2.765   2.741   6.631 -0.5962  0.2224 -0.2489
 1226ntf    fn4 9209   2.974   2.701   6.650  0.1119  0.4269 -0.7011
 1226ntf    fn4 9210   2.880   2.696   6.458 -0.0594  0.2191 -0.2031
 1227ntf    cn1 9211   3.106   6.019   4.123 -0.0342  0.1263 -0.1124
 1227ntf    sn2 9212   3.229   6.053   4.252 -0.0170 -0.1831 -0.0472
 1227ntf    nn3 9213   3.259   6.207   4.238  0.3297 -0.1894  0.5546
 1227ntf    sn2 9214   3.368   6.286   4.157 -0.1700  0.0508  0.1076
 1227ntf    cn1 9215   3.288   6.449   4.163 -0.3218 -0.0152 -0.0793
 1227ntf    fn4 9216   3.080   5.891   4.104  0.1903  0.0969 -0.2247
 1227ntf    fn4 9217   2.989   6.073   4.152 -0.1424 -0.1652  0.0030
 1227ntf    fn4 9218   3.143   6.062   4.003 -0.1102  0.2703 -0.0846
 1227ntf    on5 9219   3.158   6.025   4.375 -0.0052  0.4666  0.1126
 1227ntf    on5 9220   3.330   5.957   4.215  0.1806  0.1314 -0.3260
 1227ntf    on5 9221   3.487   6.309   4.234  0.2149  0.2841 -0.5508
 1227ntf    on5 9222   3.368   6.259   4.015  0.2909 -0.1038  0.1360
 1227ntf    fn4 9223   3.195   6.458   4.070  0.2043  0.2515 -0.5876
 1227ntf    fn4 9224   3.387   6.536   4.148 -0.6692  0.3178 -0.4502
 1227ntf    fn4 9225   3.228   6.471   4.279 -0.3818 -0.4271 -0.0298
 1228ntf    cn1 9226   3.176   5.952   3.187  0.2838 -0.3391 -0.1947
 1228ntf    sn2 9227   3.128   6.128   3.188 -0.2235 -0.4741 -0.2198
 1228ntf    nn3 9228   2.978   6.142   3.232 -0.1376  0.1072 -0.1037
 1228ntf    sn2 9229   2.924   6.144   3.379  0.1315  0.3436 -0.0070
 1228ntf    cn1 9230   2.748   6.107   3.357  0.1705  0.0523  0.1554
 1228ntf    fn4 9231   3.304   5.936   3.159  0.4072 -0.2386  0.3012
 1228ntf    fn4 9232   3.145   5.895   3.303  0.0097 -0.5239 -0.3567
 1228ntf    fn4 9233   3.110   5.882   3.097 -0.2214 -0.1620  0.0334
 1228ntf    on5 9234   3.214   6.178   3.293 -0.2107  0.1864 -0.5429
 1228ntf    on5 9235   3.148   6.179   3.055  0.0287  0.0813  0.0259
 1228ntf    on5 9236   2.964   6.032   3.462 -0.9181  0.3884  0.5752
 1228ntf    on5 9237   2.910   6.272   3.443  0.1430  0.1699  0.3510
 1228ntf    fn4 9238   2.720   5.989   3.305  0.0276  0.1839 -0.0660
 1228ntf    fn4 9239   2.699   6.192   3.268  0.5462 -0.1835 -0.2767
 1228ntf    fn4 9240   2.677   6.130   3.467 -0.2745 -0.3367 -0.0458
 1229ntf    cn1 9241   0.568   2.388   4.342  0.1576  0.5662 -0.1883
 1229ntf    sn2 9242   0.522   2.300   4.190 -0.0518 -0.0495  0.2247
 1229ntf    nn3 9243   0.543   2.149   4.224  0.3703  0.0233  0.2997
 1229ntf    sn2 9244   0.488   2.019   4.154 -0.0043  0.3636 -0.0439
 1229ntf    cn1 9245   0.644   1.927   4.140 -0.1404  0.1400 -0.1071
 1229ntf    fn4 9246   0.497   2.367   4.452  0.1098  0.3600 -0.2586
 1229ntf    fn4 9247   0.691   2.352   4.376 -0.2068 -0.5835 -0.0364
 1229ntf    fn4 9248   0.574   2.520   4.331 -0.0697  0.6109  0.2032
 1229ntf    on5 9249   0.384   2.339   4.177 -0.0081  0.0701  0.1066
 1229ntf    on5 9250   0.616   2.353   4.094 -0.3264 -1.0911 -0.6440
 1229ntf    on5 9251   0.393   1.947   4.235  0.0514  0.1088 -0.2050
 1229ntf    on5 9252   0.452   2.031   4.015  0.1816 -0.4306 -0.1668
 1229ntf    fn4 9253   0.618   1.810   4.086  0.8523 -0.0924 -0.1077
 1229ntf    fn4 9254   0.714   1.907   4.251  0.0701 -0.9447 -0.4324
 1229ntf    fn4 9255   0.721   1.991   4.053  0.3246 -0.2945 -0.0197
 1230ntf    cn1 9256   6.150   4.011   5.331  0.3093 -0.0758 -0.3260
 1230ntf    sn2 9257   6.156   4.162   5.230  0.6469  0.2508  0.1762
 1230ntf    nn3 9258   6.299   4.167   5.166  0.7077 -0.1438  0.2781
 1230ntf    sn2 9259   6.357   4.055   5.072 -0.2686 -0.4826  0.0697
 1230ntf    cn1 9260   6.369   4.154   4.920  0.3670  0.0568  0.4658
 1230ntf    fn4 9261   6.172   3.900   5.261 -0.1918 -0.6676  0.4394
 1230ntf    fn4 9262   6.247   4.029   5.419  0.0471  0.0487 -0.0637
 1230ntf    fn4 9263   6.032   4.003   5.389  0.4565  0.3248  0.0380
 1230ntf    on5 9264   6.042   4.136   5.146  0.5744  0.7485  0.1183
 1230ntf    on5 9265   6.139   4.261   5.334  0.1311 -0.1133  0.4429
 1230ntf    on5 9266   6.495   4.020   5.093 -0.2519 -0.0193  0.7911
 1230ntf    on5 9267   6.270   3.952   5.022 -0.8490  0.3675 -0.7160
 1230ntf    fn4 9268   6.250   4.198   4.882  0.5716  0.3246  0.1336
 1230ntf    fn4 9269   6.423   4.088   4.820  0.4291  0.7167  0.0578
 1230ntf    fn4 9270   6.447   4.258   4.942  0.7140 -0.2192  0.5427
 1231ntf    cn1 9271   2.645   5.982   0.161  0.1456 -0.0353 -0.3194
 1231ntf    sn2 9272   2.475   5.923   0.132 -0.0248  0.0937  0.4059
 1231ntf    nn3 9273   2.496   5.792   0.049  0.0929  0.2079  0.2546
 1231ntf    sn2 9274   2.511   5.642   0.091 -0.2326  0.1339  0.1077
 1231ntf    cn1 9275   2.359   5.575   0.016  0.2623 -0.3259 -0.4996
 1231ntf    fn4 9276   2.646   6.104   0.212 -0.4658 -0.1977  0.0802
 1231ntf    fn4 9277   2.720   5.908   0.241  0.2437  0.5146  0.0991
 1231ntf    fn4 9278   2.715   5.991   0.049 -0.0468  0.0733 -0.4298
 1231ntf    on5 9279   2.425   5.908   0.266 -0.2618 -0.2223  0.2803
 1231ntf    on5 9280   2.403   6.026   0.061 -0.4797 -0.1561  0.5090
 1231ntf    on5 9281   2.612   5.569   0.020  0.0404 -0.2025  0.8302
 1231ntf    on5 9282   2.506   5.606   0.231  0.3202 -1.0534 -0.1622
 1231ntf    fn4 9283   2.337   5.633  -0.101 -0.4438  0.1893 -0.1198
 1231ntf    fn4 9284   2.260   5.596   0.101  0.7538 -0.4217  0.1033
 1231ntf    fn4 9285   2.364   5.444  -0.000 -0.7076 -0.3875 -0.3653
 1232ntf    cn1 9286   0.269   6.057   6.017  0.4734 -0.0271  0.0680
 1232ntf    sn2 9287   0.390   5.940   5.947  0.2249 -0.0333 -0.3600
 1232ntf    nn3 9288   0.505   6.034   5.895  0.2784  0.1221  0.0332
 1232ntf    sn2 9289   0.653   5.993   5.862  0.2008 -0.1635  0.0353
 1232ntf    cn1 9290   0.668   6.084   5.705 -0.0958  0.0979  0.1562
 1232ntf    fn4 9291   0.327   6.125   6.114 -0.6600  0.4204  0.4459
 1232ntf    fn4 9292   0.232   6.142   5.922 -0.3445 -0.0617  0.3543
 1232ntf    fn4 9293   0.160   6.004   6.070  0.2306 -0.2638 -0.6494
 1232ntf    on5 9294   0.433   5.877   6.070  0.0586  1.0143  0.2525
 1232ntf    on5 9295   0.321   5.863   5.847 -0.0647 -0.4412  0.1484
 1232ntf    on5 9296   0.751   6.050   5.951  0.2202 -0.4973  0.2274
 1232ntf    on5 9297   0.674   5.854   5.830 -0.5584 -0.1285 -0.6671
 1232ntf    fn4 9298   0.779   6.051   5.641 -0.1529  0.2652 -0.0296
 1232ntf    fn4 9299   0.678   6.215   5.721 -0.5712  0.1161  0.3025
 1232ntf    fn4 9300   0.570   6.069   5.617  0.1991 -0.0133 -0.1533
 1233ntf    cn1 9301   6.105   4.641   0.322  0.4878  0.0837 -0.1633
 1233ntf    sn2 9302   6.174   4.743   0.187  0.3370  0.0846 -0.2397
 1233ntf    nn3 9303   6.038   4.778   0.117  0.3372  0.2113 -0.1767
 1233ntf    sn2 9304   5.950   4.905   0.145  0.2145  0.0670  0.0911
 1233ntf    cn1 9305   5.986   5.011   0.002 -0.0357 -0.1125 -0.1055
 1233ntf    fn4 9306   6.078   4.518   0.282 -0.0888 -0.0247  0.5589
 1233ntf    fn4 9307   6.187   4.622   0.424  0.1011  0.5071  0.2348
 1233ntf    fn4 9308   5.997   4.695   0.374  0.1901 -0.3530 -0.3277
 1233ntf    on5 9309   6.240   4.845   0.264 -0.2834  0.4278 -0.1525
 1233ntf    on5 9310   6.252   4.650   0.108  0.4228 -0.5083  0.5263
 1233ntf    on5 9311   5.809   4.878   0.128  0.2938 -0.1387 -0.2518
 1233ntf    on5 9312   5.974   4.989   0.259 -0.2304 -0.1047  0.3141
 1233ntf    fn4 9313   5.950   4.958  -0.114 -0.3690 -0.3930  0.1200
 1233ntf    fn4 9314   6.113   5.044  -0.009  0.0840 -0.5815 -0.1391
 1233ntf    fn4 9315   5.917   5.124   0.013 -0.0197 -0.1712  0.6706
 1234ntf    cn1 9316   3.109   5.866   2.305 -0.0048 -0.3821  0.5394
 1234ntf    sn2 9317   3.268   5.941   2.348 -0.0148  0.0907 -0.2362
 1234ntf    nn3 9318   3.243   6.092   2.312 -0.0267  0.1958  0.1969
 1234ntf    sn2 9319   3.160   6.192   2.400  0.0043  0.4687 -0.0816
 1234ntf    cn1 9320   3.283   6.232   2.528 -0.1711 -0.2138  0.3021
 1234ntf    fn4 9321   3.068   5.912   2.188  0.3649  0.1663  0.6236
 1234ntf    fn4 9322   3.119   5.735   2.284  0.1503 -0.2452 -0.2520
 1234ntf    fn4 9323   3.006   5.884   2.386  0.0015  0.1001  0.4403
 1234ntf    on5 9324   3.291   5.911   2.488  0.3171  0.3514 -0.2313
 1234ntf    on5 9325   3.375   5.887   2.268  0.1170 -0.2139  0.1460
 1234ntf    on5 9326   3.134   6.319   2.336 -0.5755  0.1686 -0.4486
 1234ntf    on5 9327   3.048   6.133   2.468  0.2407 -0.1548 -0.2280
 1234ntf    fn4 9328   3.330   6.127   2.595  0.3016 -0.2939 -0.1502
 1234ntf    fn4 9329   3.226   6.319   2.609  0.3854  0.5196 -0.0761
 1234ntf    fn4 9330   3.385   6.300   2.479  0.3298 -0.9469  0.3023
 1235ntf    cn1 9331   5.526   0.435   0.982 -0.2457 -0.1665  0.1112
 1235ntf    sn2 9332   5.473   0.532   0.838 -0.1288 -0.3207 -0.0350
 1235ntf    nn3 9333   5.420   0.416   0.746  0.5007 -0.3688 -0.3420
 1235ntf    sn2 9334   5.276   0.361   0.720  0.2052 -0.0408  0.5639
 1235ntf    cn1 9335   5.242   0.435   0.557  0.4032 -0.1916  0.4543
 1235ntf    fn4 9336   5.425   0.383   1.051 -0.7153  0.1687 -0.3118
 1235ntf    fn4 9337   5.620   0.349   0.946 -0.3343 -0.2645  0.1147
 1235ntf    fn4 9338   5.578   0.516   1.073  0.5127 -0.2325 -0.2614
 1235ntf    on5 9339   5.375   0.623   0.891 -0.3900 -0.7288  0.1828
 1235ntf    on5 9340   5.596   0.584   0.782 -0.3429  0.5134  0.2601
 1235ntf    on5 9341   5.272   0.220   0.693  0.6547 -0.0268  0.4240
 1235ntf    on5 9342   5.166   0.418   0.795 -0.0907 -0.3428  0.3623
 1235ntf    fn4 9343   5.330   0.403   0.463 -0.4212 -0.1250 -0.3578
 1235ntf    fn4 9344   5.237   0.567   0.567  0.1304 -0.1677  0.0409
 1235ntf    fn4 9345   5.124   0.405   0.504  0.4246 -0.5975  0.6290
 1236ntf    cn1 9346   5.131   2.279   0.792 -0.1482 -0.4255  0.2206
 1236ntf    sn2 9347   4.957   2.321   0.823 -0.0324  0.2707 -0.0691
 1236ntf    nn3 9348   4.964   2.358   0.975  0.3918  0.0508 -0.0340
 1236ntf    sn2 9349   4.880   2.454   1.066 -0.0087 -0.2504 -0.0845
 1236ntf    cn1 9350   4.905   2.373   1.227  0.0294 -0.6453 -0.2879
 1236ntf    fn4 9351   5.223   2.373   0.808  0.0624 -0.6418  0.3109
 1236ntf    fn4 9352   5.177   2.184   0.872  0.6095 -0.0387  0.2538
 1236ntf    fn4 9353   5.155   2.221   0.676  0.0128 -0.0451  0.0622
 1236ntf    on5 9354   4.923   2.422   0.726  0.2955  0.5840  0.1368
 1236ntf    on5 9355   4.891   2.196   0.799 -0.3166  0.4195 -0.0621
 1236ntf    on5 9356   4.938   2.585   1.085  0.4052 -0.4337 -0.0826
 1236ntf    on5 9357   4.737   2.448   1.051 -0.0299  0.0484 -0.0075
 1236ntf    fn4 9358   4.831   2.434   1.319  0.1941 -0.0765 -0.5253
 1236ntf    fn4 9359   5.025   2.377   1.283 -0.5602  0.0820  0.9893
 1236ntf    fn4 9360   4.856   2.250   1.230 -1.0244 -0.2476 -0.4603
 1237ntf    cn1 9361   3.987   5.700   4.432  0.2680 -0.0955 -0.2349
 1237ntf    sn2 9362   4.115   5.815   4.373  0.0178  0.2185 -0.1689
 1237ntf    nn3 9363   4.059   5.857   4.232 -0.2563  0.1995 -0.0660
 1237ntf    sn2 9364   4.128   5.860   4.091  0.3106 -0.6388  0.1913
 1237ntf    cn1 9365   4.172   6.036   4.085 -0.0774 -0.5461  0.0879
 1237ntf    fn4 9366   4.026   5.610   4.521 -0.3761  0.1075  0.2639
 1237ntf    fn4 9367   3.886   5.765   4.488  0.4533 -0.4477  0.5265
 1237ntf    fn4 9368   3.934   5.638   4.328 -0.3420 -0.8039  0.4807
 1237ntf    on5 9369   4.111   5.920   4.471 -0.8345  0.3248 -0.3049
 1237ntf    on5 9370   4.242   5.747   4.366 -0.1960 -0.1235 -0.9129
 1237ntf    on5 9371   4.257   5.799   4.069  0.5426  0.2406 -0.9712
 1237ntf    on5 9372   4.031   5.849   3.985  0.5003 -0.5490  0.0075
 1237ntf    fn4 9373   4.070   6.110   4.128  0.3934  0.2372 -0.1266
 1237ntf    fn4 9374   4.191   6.086   3.964  0.3533 -0.0968  0.3389
 1237ntf    fn4 9375   4.276   6.063   4.162  0.0084 -0.2733 -0.1219
 1238ntf    cn1 9376   5.864   2.393   5.942 -0.1639 -0.4751 -0.1941
 1238ntf    sn2 9377   6.012   2.451   6.030 -0.2391 -0.1476 -0.2820
 1238ntf    nn3 9378   6.017   2.602   5.988 -0.5084 -0.1896 -0.4684
 1238ntf    sn2 9379   6.127   2.681   5.908 -0.3736 -0.2450 -0.3387
 1238ntf    cn1 9380   6.256   2.695   6.035 -0.5049 -0.1527 -0.2142
 1238ntf    fn4 9381   5.852   2.262   5.947 -0.0283 -0.4996 -0.4807
 1238ntf    fn4 9382   5.750   2.447   5.982  0.0041  0.1365 -0.5269
 1238ntf    fn4 9383   5.872   2.429   5.814 -0.0753  0.5412  0.0861
 1238ntf    on5 9384   5.984   2.434   6.171 -0.0072  0.1454 -0.2013
 1238ntf    on5 9385   6.114   2.360   5.985 -0.0913  0.1193 -0.4900
 1238ntf    on5 9386   6.186   2.612   5.795  0.2189 -1.1172  0.4894
 1238ntf    on5 9387   6.075   2.814   5.886 -0.2970 -0.0679  0.5149
 1238ntf    fn4 9388   6.203   2.754   6.141 -0.5816 -0.4980 -0.0599
 1238ntf    fn4 9389   6.359   2.767   5.995 -0.3810 -0.3365 -0.2285
 1238ntf    fn4 9390   6.308   2.579   6.071  0.2424  0.0840 -0.5038
 1239ntf    cn1 9391   0.622   4.861   6.355 -0.2543 -0.0305  0.0273
 1239ntf    sn2 9392   0.552   4.708   6.423 -0.0317 -0.2620 -0.2653
 1239ntf    nn3 9393   0.440   4.758   6.522  0.3700  0.1402 -0.0113
 1239ntf    sn2 9394   0.426   4.755   6.678 -0.0646 -0.1326 -0.0552
 1239ntf    cn1 9395   0.246   4.733   6.693 -0.0921  0.3400  0.3266
 1239ntf    fn4 9396   0.678   4.830   6.240 -0.0605 -0.1952  0.1643
 1239ntf    fn4 9397   0.527   4.945   6.319 -0.4859 -0.1630  0.3199
 1239ntf    fn4 9398   0.714   4.924   6.427 -0.2761  0.4931 -0.4001
 1239ntf    on5 9399   0.504   4.642   6.304  0.5153 -0.0865 -0.5867
 1239ntf    on5 9400   0.660   4.649   6.498 -0.3982  0.0910  0.5640
 1239ntf    on5 9401   0.468   4.630   6.736  0.1085  0.1302  0.3885
 1239ntf    on5 9402   0.459   4.881   6.740  0.2420 -0.3071  0.1399
 1239ntf    fn4 9403   0.205   4.616   6.647 -0.5385  0.2904  0.8355
 1239ntf    fn4 9404   0.186   4.827   6.623 -0.1968  0.1655  0.1797
 1239ntf    fn4 9405   0.206   4.748   6.819 -1.0096  0.0947  0.0709
 1240ntf    cn1 9406   3.528   5.182   4.655 -0.3471 -0.1550 -0.1418
 1240ntf    sn2 9407   3.491   5.249   4.820  0.1699  0.1204 -0.1339
 1240ntf    nn3 9408   3.427   5.130   4.899 -0.4739  1.0890  0.8251
 1240ntf    sn2 9409   3.275   5.089   4.908 -0.1437 -0.3031  0.3016
 1240ntf    cn1 9410   3.225   5.192   5.049 -0.1440  0.3249 -0.1513
 1240ntf    fn4 9411   3.474   5.063   4.636 -0.4995 -0.1253  0.0982
 1240ntf    fn4 9412   3.481   5.263   4.562  0.7016  0.4145 -0.1862
 1240ntf    fn4 9413   3.658   5.169   4.636 -0.3286 -0.4139  0.1417
 1240ntf    on5 9414   3.621   5.281   4.872  0.2698  0.1066 -0.3730
 1240ntf    on5 9415   3.397   5.356   4.797 -0.0574  0.0780  0.5730
 1240ntf    on5 9416   3.194   5.130   4.796  0.2001 -0.3495  0.0341
 1240ntf    on5 9417   3.260   4.955   4.960  0.8451 -0.4739  0.1721
 1240ntf    fn4 9418   3.095   5.201   5.075 -0.1788 -0.1557 -0.1464
 1240ntf    fn4 9419   3.263   5.317   5.034 -0.0636  0.2833 -0.2994
 1240ntf    fn4 9420   3.278   5.158   5.166 -0.3798 -0.3472 -0.2328
 1241ntf    cn1 9421   3.326   1.611   1.414 -0.1139 -0.2441  0.4701
 1241ntf    sn2 9422   3.484   1.608   1.323 -0.2956 -0.3335  0.1568
 1241ntf    nn3 9423   3.424   1.669   1.191  0.9564  0.2813 -0.1429
 1241ntf    sn2 9424   3.471   1.665   1.042  0.4466  0.0722 -0.3026
 1241ntf    cn1 9425   3.337   1.562   0.975  0.4431  0.0630 -0.2815
 1241ntf    fn4 9426   3.279   1.734   1.403 -0.1153 -0.2578  0.3146
 1241ntf    fn4 9427   3.241   1.526   1.359  0.0352 -0.3133  0.3459
 1241ntf    fn4 9428   3.333   1.595   1.545  0.5945  0.6110  0.5480
 1241ntf    on5 9429   3.566   1.700   1.397 -0.2033 -0.3711  0.1009
 1241ntf    on5 9430   3.518   1.468   1.323 -0.2017 -0.3119 -0.2548
 1241ntf    on5 9431   3.459   1.791   0.973  0.0237 -0.1043 -0.5521
 1241ntf    on5 9432   3.597   1.596   1.028  0.7920  0.5788  0.2503
 1241ntf    fn4 9433   3.360   1.432   0.987 -0.8734 -0.1126  0.5383
 1241ntf    fn4 9434   3.311   1.582   0.847  0.4154 -0.0621 -0.2956
 1241ntf    fn4 9435   3.223   1.584   1.039  0.6457 -0.4923  0.2856
 1242ntf    cn1 9436   0.619   3.766   1.888 -0.0623  0.2043  0.0883
 1242ntf    sn2 9437   0.629   3.669   2.041 -0.1337 -0.0809 -0.0868
 1242ntf    nn3 9438   0.671   3.537   1.968 -0.5465  0.0998 -0.6543
 1242ntf    sn2 9439   0.649   3.388   2.012  0.0294  0.1810 -0.0793
 1242ntf    cn1 9440   0.498   3.338   1.923  0.2269  0.0664 -0.3529
 1242ntf    fn4 9441   0.738   3.781   1.832 -0.0199 -0.3777  0.0147
 1242ntf    fn4 9442   0.545   3.704   1.797  0.1376  0.0947 -0.0003
 1242ntf    fn4 9443   0.562   3.884   1.908  0.2910  0.5108 -0.6517
 1242ntf    on5 9444   0.724   3.745   2.118  0.3663  0.0877 -0.8579
 1242ntf    on5 9445   0.492   3.668   2.085  0.0327  0.5215  0.4779
 1242ntf    on5 9446   0.753   3.310   1.948 -0.2662 -0.2371 -0.0593
 1242ntf    on5 9447   0.630   3.364   2.152  1.0151 -0.4367 -0.0353
 1242ntf    fn4 9448   0.516   3.322   1.793  0.1400 -0.1379 -0.3413
 1242ntf    fn4 9449   0.402   3.424   1.948  0.1626 -0.1213  0.0611
 1242ntf    fn4 9450   0.453   3.218   1.957 -0.1175  0.2318 -0.2311
 1243ntf    cn1 9451   0.971   5.366   2.464 -0.0453 -0.0127  0.2629
 1243ntf    sn2 9452   1.108   5.465   2.531  0.1758 -0.2424  0.1534
 1243ntf    nn3 9453   1.083   5.480   2.685 -0.7665 -0.3624  0.0151
 1243ntf    sn2 9454   1.103   5.377   2.802  0.2961  0.0889  0.2366
 1243ntf    cn1 9455   1.218   5.469   2.908  0.2313  0.4224  0.0188
 1243ntf    fn4 9456   0.978   5.238   2.498  0.4605  0.0047  0.2376
 1243ntf    fn4 9457   0.859   5.419   2.509  0.0468  0.1388  0.3159
 1243ntf    fn4 9458   0.967   5.366   2.332  0.0724 -0.3154  0.2582
 1243ntf    on5 9459   1.224   5.391   2.486  0.0463 -0.0665 -0.4775
 1243ntf    on5 9460   1.088   5.590   2.462  0.0895 -0.5992 -0.4758
 1243ntf    on5 9461   0.991   5.372   2.891 -0.1777 -0.2038 -0.3644
 1243ntf    on5 9462   1.168   5.252   2.769 -0.6401 -0.3555  0.0544
 1243ntf    fn4 9463   1.258   5.399   3.013 -0.5130  0.1865  0.1505
 1243ntf    fn4 9464   1.157   5.577   2.954  0.2018  0.1227  0.6945
 1243ntf    fn4 9465   1.325   5.496   2.835  0.2359 -0.8382 -0.4559
 1244ntf    cn1 9466   0.263   2.442   5.575  0.2687 -0.1955 -0.1849
 1244ntf    sn2 9467   0.095   2.495   5.622  0.5214  0.1117  0.3843
 1244ntf    nn3 9468   0.137   2.610   5.719 -0.0849  0.1649  0.5842
 1244ntf    sn2 9469   0.094   2.761   5.723 -0.0525  0.1798  0.3630
 1244ntf    cn1 9470  -0.074   2.753   5.791 -0.2343  0.2226 -0.0785
 1244ntf    fn4 9471   0.349   2.538   5.545 -0.3644  0.3982 -0.1518
 1244ntf    fn4 9472   0.313   2.380   5.680 -0.4258  0.1608  0.3710
 1244ntf    fn4 9473   0.258   2.356   5.474  0.0569 -0.2207 -0.1537
 1244ntf    on5 9474   0.030   2.535   5.499  0.1079 -1.3816  0.1004
 1244ntf    on5 9475   0.046   2.376   5.688 -0.0477 -0.1928 -0.5626
 1244ntf    on5 9476   0.170   2.838   5.819 -0.1962  0.2981  0.3821
 1244ntf    on5 9477   0.079   2.825   5.595 -0.3999 -0.4063  0.1124
 1244ntf    fn4 9478  -0.159   2.697   5.706  0.2177  0.1895 -0.5109
 1244ntf    fn4 9479  -0.120   2.876   5.812 -0.1063  0.2118  0.2680
 1244ntf    fn4 9480  -0.078   2.692   5.908  0.1519  0.5559  0.1134
 1245ntf    cn1 9481   5.425   4.923   1.446  0.2255 -0.1246 -0.1683
 1245ntf    sn2 9482   5.466   5.086   1.377 -0.1072  0.1484  0.2740
 1245ntf    nn3 9483   5.395   5.075   1.237  0.1766 -0.2389  0.1564
 1245ntf    sn2 9484   5.414   5.169   1.113 -0.4132 -0.0332  0.2175
 1245ntf    cn1 9485   5.248   5.144   1.043 -0.2953  0.1504 -0.1313
 1245ntf    fn4 9486   5.468   4.824   1.368  0.1324 -0.2119 -0.1093
 1245ntf    fn4 9487   5.485   4.908   1.563  0.6156 -0.0897 -0.3634
 1245ntf    fn4 9488   5.296   4.912   1.470  0.2240  0.3805  0.0629
 1245ntf    on5 9489   5.406   5.185   1.463 -0.9538 -0.3029  0.2220
 1245ntf    on5 9490   5.609   5.079   1.361 -0.2025  0.4040 -0.7456
 1245ntf    on5 9491   5.424   5.311   1.141 -0.1234 -0.0818  0.3659
 1245ntf    on5 9492   5.500   5.111   1.013 -1.0722 -0.3303 -0.1824
 1245ntf    fn4 9493   5.215   5.223   0.942 -0.2567 -0.1440 -0.3775
 1245ntf    fn4 9494   5.155   5.161   1.136  0.2257  0.2606  0.3738
 1245ntf    fn4 9495   5.225   5.020   1.004 -0.3261 -0.0006  0.3550
 1246ntf    cn1 9496   4.063   5.818   5.195  0.0892 -0.0293 -0.5107
 1246ntf    sn2 9497   3.907   5.865   5.114 -0.1755  0.2737  0.1667
 1246ntf    nn3 9498   3.919   5.767   4.992  0.3901  0.0109  0.4315
 1246ntf    sn2 9499   3.941   5.807   4.842 -0.1368  0.5733  0.4992
 1246ntf    cn1 9500   3.782   5.876   4.786 -0.2875 -0.3618 -0.2672
 1246ntf    fn4 9501   4.167   5.868   5.130  0.2743  0.1171 -0.1019
 1246ntf    fn4 9502   4.077   5.867   5.317  0.6090 -0.0965 -0.5427
 1246ntf    fn4 9503   4.085   5.689   5.213  0.6252  0.0950 -0.2771
 1246ntf    on5 9504   3.815   5.809   5.210 -0.0772 -0.0717  0.0623
 1246ntf    on5 9505   3.909   6.008   5.094  0.1398  0.3139  0.4729
 1246ntf    on5 9506   4.040   5.903   4.801  0.4868 -0.3344 -0.1867
 1246ntf    on5 9507   3.948   5.679   4.774 -0.6621  0.9447 -0.2654
 1246ntf    fn4 9508   3.730   5.965   4.869  0.4066  0.2180 -0.4430
 1246ntf    fn4 9509   3.687   5.787   4.764 -0.3376 -0.2372 -0.5560
 1246ntf    fn4 9510   3.802   5.932   4.668 -0.4860  0.5392  0.1237
 1247ntf    cn1 9511   6.626   3.793   4.300 -0.2938 -0.1163  0.8901
 1247ntf    sn2 9512   6.591   3.971   4.318  0.2593  0.0747  0.1325
 1247ntf    nn3 9513   6.527   4.005   4.179 -0.1314  0.3433  0.3776
 1247ntf    sn2 9514   6.399   4.081   4.128 -0.1024 -0.0464 -0.2856
 1247ntf    cn1 9515   6.469   4.234   4.058 -0.1141  0.1494  0.1288
 1247ntf    fn4 9516   6.731   3.777   4.222 -0.7454  0.0448  0.2372
 1247ntf    fn4 9517   6.660   3.723   4.407 -0.4425 -0.6441  0.5933
 1247ntf    fn4 9518   6.533   3.720   4.241  0.1496  0.2799 -0.3397
 1247ntf    on5 9519   6.508   3.981   4.436  0.1608  0.3378  0.0412
 1247ntf    on5 9520   6.725   4.024   4.322  0.3181 -0.0547 -0.1252
 1247ntf    on5 9521   6.348   4.017   4.009  0.2034  0.1679 -0.5344
 1247ntf    on5 9522   6.311   4.136   4.228 -0.3391 -0.5001 -0.2444
 1247ntf    fn4 9523   6.557   4.207   3.963 -0.2816  0.0132  0.0141
 1247ntf    fn4 9524   6.527   4.313   4.147  0.3915  0.3790 -0.3942
 1247ntf    fn4 9525   6.373   4.305   4.002 -0.2055  0.1388  0.2686
 1248ntf    cn1 9526   1.463   1.107   2.180  0.1921  0.0838  0.1787
 1248ntf    sn2 9527   1.287   1.070   2.210  0.1859 -0.0496 -0.0156
 1248ntf    nn3 9528   1.256   1.004   2.072 -0.4113 -0.0950  0.1406
 1248ntf    sn2 9529   1.222   1.076   1.936 -0.1169 -0.0975  0.0644
 1248ntf    cn1 9530   1.043   1.041   1.934 -0.1819  0.2470 -0.2400
 1248ntf    fn4 9531   1.478   1.177   2.068  0.0309  0.2360  0.2521
 1248ntf    fn4 9532   1.506   1.189   2.274  0.0472  0.2787  0.0763
 1248ntf    fn4 9533   1.535   0.998   2.160 -0.0942  0.0404 -0.6701
 1248ntf    on5 9534   1.294   0.979   2.322 -0.0340  0.6227  0.5568
 1248ntf    on5 9535   1.224   1.197   2.234  0.3678  0.0744 -0.1918
 1248ntf    on5 9536   1.232   1.220   1.936  0.1213 -0.1134  0.3563
 1248ntf    on5 9537   1.257   1.004   1.817 -0.0248  0.3286 -0.1680
 1248ntf    fn4 9538   1.023   0.910   1.946  0.4514  0.1179 -0.5250
 1248ntf    fn4 9539   0.986   1.077   1.820 -0.3883  0.5095 -0.0534
 1248ntf    fn4 9540   0.986   1.103   2.036  0.0886  0.1141 -0.0064
 1249ntf    cn1 9541   5.860   2.684   0.197  0.0646 -0.0749  0.3235
 1249ntf    sn2 9542   5.680   2.658   0.205  0.0331  0.0869  0.1504
 1249ntf    nn3 9543   5.654   2.625   0.356  0.4159  0.8212  0.3790
 1249ntf    sn2 9544   5.530   2.646   0.450  0.1636  0.3456  0.1543
 1249ntf    cn1 9545   5.524   2.474   0.511  0.2578  0.1763 -0.3106
 1249ntf    fn4 9546   5.913   2.769   0.283 -0.0463  0.0284  0.2903
 1249ntf    fn4 9547   5.922   2.572   0.232  0.1307 -0.2416 -0.3005
 1249ntf    fn4 9548   5.910   2.718   0.079  0.6550 -0.2497  0.5226
 1249ntf    on5 9549   5.633   2.789   0.166 -0.5727 -0.2985 -0.4390
 1249ntf    on5 9550   5.665   2.552   0.108  0.3411  0.0383  0.1567
 1249ntf    on5 9551   5.555   2.731   0.563  0.0293  0.3444  0.1846
 1249ntf    on5 9552   5.405   2.661   0.380  0.1809  0.1148  0.0713
 1249ntf    fn4 9553   5.516   2.391   0.408  0.1254 -0.2873  0.0738
 1249ntf    fn4 9554   5.412   2.447   0.575  0.3949 -0.1713 -0.2161
 1249ntf    fn4 9555   5.633   2.449   0.581  0.2386  0.2075 -0.2692
 1250ntf    cn1 9556   1.142   2.665   4.339  0.2358  0.3671  0.0178
 1250ntf    sn2 9557   0.975   2.622   4.397  0.1541  0.0998 -0.4086
 1250ntf    nn3 9558   0.904   2.763   4.399  0.2106  0.1256 -0.2561
 1250ntf    sn2 9559   0.889   2.865   4.517  0.2052  0.4917 -0.5733
 1250ntf    cn1 9560   0.723   2.811   4.569  0.4535  0.3305  0.0627
 1250ntf    fn4 9561   1.217   2.558   4.317  0.3944  0.3536  0.6261
 1250ntf    fn4 9562   1.137   2.723   4.220 -0.0016  0.5454  0.1155
 1250ntf    fn4 9563   1.206   2.746   4.421  0.1770 -0.0132  0.4425
 1250ntf    on5 9564   0.929   2.534   4.292 -0.3210 -0.3037  0.1316
 1250ntf    on5 9565   1.002   2.567   4.527 -0.1253 -0.0852 -0.4288
 1250ntf    on5 9566   0.969   2.837   4.633 -0.2975  0.5242 -0.2121
 1250ntf    on5 9567   0.875   3.002   4.472 -0.1377  0.3805 -0.8147
 1250ntf    fn4 9568   0.667   2.888   4.661  0.5436  0.6307 -0.1294
 1250ntf    fn4 9569   0.723   2.686   4.611 -0.0547  0.1401 -0.4988
 1250ntf    fn4 9570   0.640   2.810   4.465  0.6030  0.0911 -0.0558
 1251ntf    cn1 9571   5.805   4.056   3.709  0.2817 -0.1357  0.0518
 1251ntf    sn2 9572   5.688   3.947   3.795 -0.1270  0.3168  0.0732
 1251ntf    nn3 9573   5.707   3.816   3.710 -0.3780  0.2303  0.1470
 1251ntf    sn2 9574   5.610   3.747   3.608  0.2068 -0.2374 -0.1019
 1251ntf    cn1 9575   5.730   3.725   3.474  0.3971 -0.2534  0.0713
 1251ntf    fn4 9576   5.809   4.177   3.762  0.2503 -0.1388  0.0630
 1251ntf    fn4 9577   5.931   4.015   3.711  0.2478 -0.2520 -0.1875
 1251ntf    fn4 9578   5.774   4.080   3.583  0.0307 -0.5913  0.0228
 1251ntf    on5 9579   5.746   3.924   3.925 -0.1816 -0.0986  0.0265
 1251ntf    on5 9580   5.560   4.012   3.793 -0.4611 -0.3274  0.0081
 1251ntf    on5 9581   5.569   3.615   3.648  0.4886 -0.2997 -0.0150
 1251ntf    on5 9582   5.518   3.839   3.545  0.4285  0.3200  0.3823
 1251ntf    fn4 9583   5.679   3.635   3.392  0.5113  0.0344 -0.3194
 1251ntf    fn4 9584   5.845   3.674   3.515  0.3088 -0.2865  0.2786
 1251ntf    fn4 9585   5.764   3.835   3.408 -0.1137 -0.1117  0.0441
 1252ntf    cn1 9586   5.511   1.788   4.839  0.1090  0.4458  0.3771
 1252ntf    sn2 9587   5.690   1.771   4.863  0.0956  0.0729  0.2313
 1252ntf    nn3 9588   5.742   1.793   4.717 -0.0368 -0.1978  0.1443
 1252ntf    sn2 9589   5.874   1.731   4.658 -0.1824 -0.1079 -0.2840
 1252ntf    cn1 9590   5.964   1.876   4.594 -0.1260 -0.2269 -0.4748
 1252ntf    fn4 9591   5.440   1.763   4.948  0.2788  0.1891  0.4306
 1252ntf    fn4 9592   5.469   1.903   4.790 -0.6132 -0.2986 -0.8193
 1252ntf    fn4 9593   5.480   1.696   4.749 -0.2807 -0.0900  1.0441
 1252ntf    on5 9594   5.722   1.883   4.949  0.1240  0.5694 -0.4180
 1252ntf    on5 9595   5.710   1.641   4.922 -0.2439  0.0952  0.4007
 1252ntf    on5 9596   5.962   1.682   4.762  0.2083  0.1785 -0.4770
 1252ntf    on5 9597   5.854   1.650   4.541 -0.4947  0.0234 -0.3207
 1252ntf    fn4 9598   6.088   1.845   4.560 -0.1858 -0.6174 -0.3452
 1252ntf    fn4 9599   5.980   1.962   4.693 -0.4404 -0.5485 -0.1401
 1252ntf    fn4 9600   5.908   1.919   4.483 -0.4937 -0.0783 -0.2345
 1253ntf    cn1 9601   5.201   4.013   1.445  0.1876  0.1627  0.0685
 1253ntf    sn2 9602   5.153   4.188   1.428 -0.2919  0.0004 -0.2592
 1253ntf    nn3 9603   5.292   4.242   1.378 -0.1164 -0.4054 -0.2130
 1253ntf    sn2 9604   5.324   4.332   1.253 -0.0586 -0.1770 -0.0345
 1253ntf    cn1 9605   5.453   4.433   1.332 -0.3633  0.2227 -0.0440
 1253ntf    fn4 9606   5.095   3.939   1.472  0.3467  0.0062  0.2648
 1253ntf    fn4 9607   5.237   3.967   1.326 -0.6583  0.3017 -0.2451
 1253ntf    fn4 9608   5.297   3.983   1.532 -0.0139 -0.3245  0.1238
 1253ntf    on5 9609   5.041   4.175   1.338 -0.3810  0.4894 -0.2202
 1253ntf    on5 9610   5.124   4.220   1.565 -0.7527 -0.0929 -0.3335
 1253ntf    on5 9611   5.383   4.261   1.143  0.4385  0.2564 -0.0505
 1253ntf    on5 9612   5.220   4.430   1.231  0.4367  0.2814 -0.3368
 1253ntf    fn4 9613   5.412   4.502   1.438 -0.0970 -0.0757  0.2571
 1253ntf    fn4 9614   5.519   4.506   1.244 -0.1097 -0.4019 -0.3797
 1253ntf    fn4 9615   5.547   4.357   1.386 -0.5391  0.1237  0.1264
 1254ntf    cn1 9616   4.948   1.964   4.523  0.3585  0.0152  0.1851
 1254ntf    sn2 9617   4.811   1.950   4.642  0.2008 -0.0436 -0.0032
 1254ntf    nn3 9618   4.683   1.942   4.551 -0.0752  0.3410  0.3512
 1254ntf    sn2 9619   4.531   1.941   4.588 -0.1198  0.1109  0.1639
 1254ntf    cn1 9620   4.500   1.763   4.564  0.2821  0.1657 -0.7845
 1254ntf    fn4 9621   4.943   1.876   4.425  0.2955  0.2081  0.0154
 1254ntf    fn4 9622   4.955   2.084   4.468  0.3127  0.0831  0.3272
 1254ntf    fn4 9623   5.065   1.945   4.583  0.2964 -0.1867  0.2448
 1254ntf    on5 9624   4.847   1.828   4.711  0.8120  0.0684 -0.1125
 1254ntf    on5 9625   4.820   2.074   4.715  0.1450 -0.0226 -0.0328
 1254ntf    on5 9626   4.497   1.975   4.724  0.4564 -0.0076  0.3391
 1254ntf    on5 9627   4.458   1.994   4.475  0.6441 -0.1840 -0.4743
 1254ntf    fn4 9628   4.372   1.732   4.578  0.2968  0.2252 -0.5087
 1254ntf    fn4 9629   4.567   1.691   4.652  0.1016  0.4497 -0.4097
 1254ntf    fn4 9630   4.530   1.720   4.442  0.1401 -0.8386 -0.4735
 1255ntf    cn1 9631   0.247   1.863   6.517  0.0227 -0.3832 -0.4034
 1255ntf    sn2 9632   0.400   1.846   6.420  0.0958 -0.2393 -0.3154
 1255ntf    nn3 9633   0.493   1.797   6.537 -0.3575  0.1344  0.2053
 1255ntf    sn2 9634   0.597   1.884   6.617  0.1527 -0.1841 -0.1104
 1255ntf    cn1 9635   0.729   1.760   6.629  0.4182  0.0959 -0.1196
 1255ntf    fn4 9636   0.199   1.752   6.570  0.6426 -0.5015 -0.0806
 1255ntf    fn4 9637   0.267   1.949   6.616  0.2064 -0.4975 -0.3422
 1255ntf    fn4 9638   0.147   1.922   6.454  0.2242  0.2684 -0.1345
 1255ntf    on5 9639   0.373   1.735   6.332  0.2186 -0.5174 -0.0046
 1255ntf    on5 9640   0.405   1.979   6.366 -0.1197 -0.0907  0.0251
 1255ntf    on5 9641   0.660   1.997   6.553 -0.2492 -0.0057 -0.1926
 1255ntf    on5 9642   0.559   1.902   6.755 -0.3810 -0.1922 -0.2525
 1255ntf    fn4 9643   0.773   1.715   6.513 -0.2247  0.3048 -0.4502
 1255ntf    fn4 9644   0.685   1.652   6.693  0.6389  0.1840  0.1851
 1255ntf    fn4 9645   0.837   1.799   6.695  0.3991 -0.0167 -0.0198
 1256ntf    cn1 9646   4.402   5.560   1.425  0.1664  0.0684 -0.1133
 1256ntf    sn2 9647   4.332   5.393   1.435  0.1620  0.0713 -0.0851
 1256ntf    nn3 9648   4.227   5.396   1.318  0.5602  1.0891 -0.4238
 1256ntf    sn2 9649   4.091   5.475   1.312 -0.1217 -0.0358 -0.0328
 1256ntf    cn1 9650   3.980   5.340   1.364  0.1833 -0.2974 -0.0531
 1256ntf    fn4 9651   4.329   5.656   1.479 -0.1115  0.0401 -0.4355
 1256ntf    fn4 9652   4.519   5.563   1.487  0.3920 -0.0830 -0.5258
 1256ntf    fn4 9653   4.428   5.585   1.297  0.0816  0.1331 -0.1177
 1256ntf    on5 9654   4.437   5.299   1.404  0.0206 -0.1938  0.2318
 1256ntf    on5 9655   4.283   5.395   1.571  0.0650 -0.6106 -0.1044
 1256ntf    on5 9656   4.071   5.581   1.408  0.0374  0.1087 -0.1584
 1256ntf    on5 9657   4.060   5.502   1.174  0.1505 -0.3829 -0.1670
 1256ntf    fn4 9658   4.006   5.293   1.485  0.4240  0.0502  0.0307
 1256ntf    fn4 9659   3.993   5.238   1.281 -0.2671 -0.2344 -0.2006
 1256ntf    fn4 9660   3.850   5.365   1.359  0.3550  0.7647  0.4080
 1257ntf    cn1 9661   0.989   2.722   5.290 -0.1596  0.4368  0.0985
 1257ntf    sn2 9662   0.993   2.550   5.233 -0.0453  0.3552  0.3522
 1257ntf    nn3 9663   1.138   2.552   5.172 -0.1315 -0.2402  0.1200
 1257ntf    sn2 9664   1.278   2.511   5.230  0.0213 -0.0596 -0.1204
 1257ntf    cn1 9665   1.288   2.341   5.166 -0.0207 -0.0832 -0.0645
 1257ntf    fn4 9666   0.867   2.767   5.317 -0.6207 -0.4130 -0.5173
 1257ntf    fn4 9667   1.069   2.750   5.392  0.1542 -0.3010  0.0592
 1257ntf    fn4 9668   1.019   2.808   5.194  0.1392 -0.3825 -0.5458
 1257ntf    on5 9669   0.986   2.469   5.352  0.3734 -0.4011 -0.1305
 1257ntf    on5 9670   0.884   2.533   5.140  0.5007 -0.0591 -0.2245
 1257ntf    on5 9671   1.380   2.574   5.149  0.0975  0.1878  0.1672
 1257ntf    on5 9672   1.292   2.504   5.373 -0.2437 -0.0137 -0.0912
 1257ntf    fn4 9673   1.297   2.352   5.035 -0.0327  0.1514 -0.0465
 1257ntf    fn4 9674   1.183   2.264   5.187 -0.0117 -0.1877 -0.4006
 1257ntf    fn4 9675   1.387   2.262   5.202  0.4395  0.5749  0.1294
 1258ntf    cn1 9676   3.145   2.046   4.991  0.2379 -0.3794 -0.1647
 1258ntf    sn2 9677   3.009   2.120   5.087  0.4416 -0.1385 -0.0597
 1258ntf    nn3 9678   3.094   2.202   5.190 -0.0196 -0.3272  0.4757
 1258ntf    sn2 9679   3.125   2.357   5.190  0.1857 -0.3653 -0.0114
 1258ntf    cn1 9680   3.001   2.405   5.315 -0.0929 -0.1104 -0.3823
 1258ntf    fn4 9681   3.222   2.145   4.947 -0.3754  0.1168 -0.1391
 1258ntf    fn4 9682   3.225   1.967   5.061 -0.1617 -0.1881  0.5202
 1258ntf    fn4 9683   3.108   1.974   4.887  0.4280 -0.7354  0.0094
 1258ntf    on5 9684   2.949   2.202   4.984  0.2691  0.1011  0.2314
 1258ntf    on5 9685   2.935   2.007   5.135 -0.2826  0.1214 -0.5430
 1258ntf    on5 9686   3.245   2.380   5.265  0.3220 -0.6446 -0.1397
 1258ntf    on5 9687   3.095   2.436   5.073  0.0011  0.0411  0.3072
 1258ntf    fn4 9688   3.022   2.526   5.364 -0.3463 -0.3381  0.2894
 1258ntf    fn4 9689   2.998   2.322   5.418  0.1783  0.4126  0.0491
 1258ntf    fn4 9690   2.879   2.395   5.265 -0.0818 -0.0459 -0.4244
 1259ntf    cn1 9691   5.666   3.042   4.018  0.3520 -0.4978 -0.0649
 1259ntf    sn2 9692   5.705   3.014   3.843 -0.1219 -0.0700 -0.2387
 1259ntf    nn3 9693   5.590   2.920   3.791 -0.0380 -0.5859  0.4997
 1259ntf    sn2 9694   5.594   2.808   3.682  0.0528 -0.3676  0.2787
 1259ntf    cn1 9695   5.651   2.664   3.777  0.1937 -0.2175  0.4222
 1259ntf    fn4 9696   5.539   3.071   4.040  0.3021 -0.8841  0.1765
 1259ntf    fn4 9697   5.696   2.932   4.086 -0.3604 -0.5809  0.1272
 1259ntf    fn4 9698   5.739   3.132   4.081 -0.1791 -0.0637 -0.0709
 1259ntf    on5 9699   5.686   3.148   3.791  0.5378  0.0488 -0.1800
 1259ntf    on5 9700   5.836   2.956   3.858 -0.0287  0.2359  0.1527
 1259ntf    on5 9701   5.461   2.772   3.639 -0.3092 -0.5319  1.5108
 1259ntf    on5 9702   5.693   2.833   3.580  0.2904  0.3772  0.6850
 1259ntf    fn4 9703   5.780   2.669   3.805  0.3193  0.4620 -0.2586
 1259ntf    fn4 9704   5.631   2.547   3.718 -0.0190  0.1390 -0.2274
 1259ntf    fn4 9705   5.594   2.654   3.896 -0.1666 -0.3385  0.2407
 1260ntf    cn1 9706   2.307   1.107   6.397 -0.2296  0.0268 -0.2619
 1260ntf    sn2 9707   2.250   0.986   6.520  0.3818 -0.0670 -0.0664
 1260ntf    nn3 9708   2.295   0.848   6.461 -0.1846 -0.2549 -0.0626
 1260ntf    sn2 9709   2.399   0.740   6.506  0.1176  0.0213 -0.0966
 1260ntf    cn1 9710   2.553   0.780   6.418  0.0112  0.4087 -0.1060
 1260ntf    fn4 9711   2.249   1.225   6.413  0.2885  0.1974  0.3703
 1260ntf    fn4 9712   2.438   1.124   6.396 -0.2197  0.0175  0.4230
 1260ntf    fn4 9713   2.277   1.062   6.276 -0.2555 -0.2444 -0.1551
 1260ntf    on5 9714   2.308   1.028   6.645  0.6397 -0.0149 -0.2032
 1260ntf    on5 9715   2.106   0.994   6.509  0.4528  0.3871 -0.7547
 1260ntf    on5 9716   2.430   0.738   6.647  0.1553 -0.2162 -0.1061
 1260ntf    on5 9717   2.383   0.608   6.449 -0.1164 -0.2334  0.5450
 1260ntf    fn4 9718   2.629   0.673   6.399 -0.6793 -0.0371 -0.4063
 1260ntf    fn4 9719   2.608   0.880   6.484 -0.0773  0.3811  0.0083
 1260ntf    fn4 9720   2.532   0.839   6.301  0.1932  0.2770 -0.2068
 1261ntf    cn1 9721   4.961   2.775   1.940  0.3250  0.3057 -0.1409
 1261ntf    sn2 9722   4.941   2.704   1.774 -0.1288 -0.1465  0.1024
 1261ntf    nn3 9723   4.807   2.764   1.717 -0.0579 -0.1356 -0.0533
 1261ntf    sn2 9724   4.663   2.703   1.729 -0.0976 -0.0178  0.0692
 1261ntf    cn1 9725   4.667   2.580   1.596  0.5138  0.1712 -0.0895
 1261ntf    fn4 9726   4.978   2.906   1.944 -0.0541  0.3502  0.0341
 1261ntf    fn4 9727   4.853   2.748   2.012  0.3296  0.3837 -0.1040
 1261ntf    fn4 9728   5.059   2.719   2.010 -0.2650 -0.1799  0.3145
 1261ntf    on5 9729   5.050   2.767   1.702  0.3625 -1.0179  0.0713
 1261ntf    on5 9730   4.956   2.562   1.788  0.4460 -0.1298 -0.2830
 1261ntf    on5 9731   4.648   2.644   1.859  0.0186 -0.1979  0.0000
 1261ntf    on5 9732   4.565   2.798   1.682 -0.0318 -0.0357 -0.1047
 1261ntf    fn4 9733   4.584   2.481   1.625  0.2394  0.3849 -0.1402
 1261ntf    fn4 9734   4.788   2.531   1.574  0.5120  0.1090  0.0404
 1261ntf    fn4 9735   4.634   2.622   1.475  0.5483  0.1984 -0.0895
 1262ntf    cn1 9736   2.337   6.367   5.087  0.0491 -0.0777  0.0771
 1262ntf    sn2 9737   2.235   6.217   5.077  0.2736 -0.2272  0.0338
 1262ntf    nn3 9738   2.355   6.119   5.105  0.5282  0.0555 -0.0542
 1262ntf    sn2 9739   2.384   5.984   5.031 -0.1375 -0.0172 -0.1972
 1262ntf    cn1 9740   2.219   5.908   5.037 -0.1457  0.0166 -0.0192
 1262ntf    fn4 9741   2.262   6.475   5.072 -0.3978 -0.3873  0.0589
 1262ntf    fn4 9742   2.406   6.381   5.199  0.0128 -0.1632  0.1101
 1262ntf    fn4 9743   2.424   6.374   4.987  0.1941  0.1106  0.2153
 1262ntf    on5 9744   2.139   6.217   5.185  0.6010  0.1689  0.3335
 1262ntf    on5 9745   2.193   6.220   4.940  0.0048  0.5654  0.1297
 1262ntf    on5 9746   2.420   6.001   4.892 -0.4476  0.0016 -0.2751
 1262ntf    on5 9747   2.460   5.890   5.110  0.3032  0.3726 -0.1547
 1262ntf    fn4 9748   2.135   5.959   4.949  0.2188  0.5587 -0.0567
 1262ntf    fn4 9749   2.175   5.916   5.162  0.3476 -0.1014  0.1652
 1262ntf    fn4 9750   2.213   5.779   5.011  0.2169 -0.0469  0.1983
 1263ntf    cn1 9751   6.510   5.991   0.073  0.5646  0.2487  0.1836
 1263ntf    sn2 9752   6.619   5.853   0.027  0.0459 -0.0362 -0.2014
 1263ntf    nn3 9753   6.512   5.750  -0.023 -0.1725  0.2236 -0.2718
 1263ntf    sn2 9754   6.539   5.606  -0.079  0.2768  0.2966 -0.2473
 1263ntf    cn1 9755   6.477   5.501   0.057 -0.0437  0.3001 -0.3884
 1263ntf    fn4 9756   6.574   6.094   0.126  0.3131  0.6234 -0.2463
 1263ntf    fn4 9757   6.429   6.041  -0.019  0.7809 -0.4525 -0.3969
 1263ntf    fn4 9758   6.426   5.949   0.167  0.4237 -0.2207 -0.1502
 1263ntf    on5 9759   6.698   5.915  -0.076  0.0107 -0.1297 -0.2841
 1263ntf    on5 9760   6.678   5.822   0.155  0.3129  0.8176 -0.1158
 1263ntf    on5 9761   6.439   5.576  -0.179  0.0075  0.3210  0.0134
 1263ntf    on5 9762   6.677   5.564  -0.083  0.3885  0.6172  0.2127
 1263ntf    fn4 9763   6.505   5.373   0.043  0.3547  0.3398  0.0102
 1263ntf    fn4 9764   6.346   5.509   0.068 -0.0078  0.0921  0.2387
 1263ntf    fn4 9765   6.525   5.536   0.176 -1.1645  0.5645 -0.0002
 1264ntf    cn1 9766   2.460   3.553   5.156 -0.0196 -0.0506  0.0057
 1264ntf    sn2 9767   2.496   3.731   5.145  0.1429 -0.0709  0.2212
 1264ntf    nn3 9768   2.638   3.721   5.079  0.0699  0.1242  0.0338
 1264ntf    sn2 9769   2.779   3.711   5.148  0.0804  0.1723  0.0194
 1264ntf    cn1 9770   2.822   3.888   5.146 -0.1075  0.2176 -0.0002
 1264ntf    fn4 9771   2.340   3.521   5.200  0.0917 -0.0788  0.2922
 1264ntf    fn4 9772   2.469   3.501   5.034 -0.1039 -0.0441 -0.0036
 1264ntf    fn4 9773   2.557   3.495   5.225  0.3225 -0.1144 -0.5211
 1264ntf    on5 9774   2.392   3.769   5.053  0.0002  0.0870  0.4458
 1264ntf    on5 9775   2.485   3.769   5.284 -0.2074  0.0228  0.1687
 1264ntf    on5 9776   2.781   3.678   5.289 -0.3852  0.4852  0.1021
 1264ntf    on5 9777   2.879   3.649   5.066 -0.7775 -0.6492 -0.4161
 1264ntf    fn4 9778   2.723   3.963   5.191 -0.0340  0.0750  0.3989
 1264ntf    fn4 9779   2.828   3.930   5.020  0.0759  0.4965  0.1005
 1264ntf    fn4 9780   2.940   3.921   5.195  0.2148 -0.4285 -0.3295
 1265ntf    cn1 9781   0.679   0.234   5.222 -0.0336  0.3512 -0.1579
 1265ntf    sn2 9782   0.820   0.140   5.289 -0.0806  0.3915 -0.0007
 1265ntf    nn3 9783   0.869   0.232   5.406 -0.2893  0.5133 -0.0075
 1265ntf    sn2 9784   0.838   0.240   5.559  0.2375  0.3585  0.1099
 1265ntf    cn1 9785   0.787   0.415   5.557  0.3319  0.3818 -0.1949
 1265ntf    fn4 9786   0.611   0.296   5.317  0.0717  0.2904 -0.0415
 1265ntf    fn4 9787   0.714   0.324   5.132  0.6867  0.0256 -0.2100
 1265ntf    fn4 9788   0.591   0.153   5.166 -0.1799  0.3386  0.0883
 1265ntf    on5 9789   0.769   0.011   5.330  0.0175  0.3730  0.0642
 1265ntf    on5 9790   0.923   0.142   5.188 -0.2132 -0.2693 -0.1532
 1265ntf    on5 9791   0.715   0.184   5.610  0.2221  0.2430 -0.0536
 1265ntf    on5 9792   0.958   0.225   5.637  0.1375  0.1506  0.2254
 1265ntf    fn4 9793   0.887   0.498   5.533  0.4910  0.2398 -0.0216
 1265ntf    fn4 9794   0.758   0.455   5.679  0.2235 -0.0869 -0.0628
 1265ntf    fn4 9795   0.686   0.453   5.480 -0.0339 -0.0094  0.0894
 1266ntf    cn1 9796   0.888   4.193   1.350  0.0096 -0.1167  0.3576
 1266ntf    sn2 9797   0.972   4.132   1.499  0.1033  0.0798  0.3867
 1266ntf    nn3 9798   0.958   3.976   1.482  0.1325  0.0485  0.6374
 1266ntf    sn2 9799   1.075   3.872   1.478 -0.0165 -0.1044  0.0517
 1266ntf    cn1 9800   1.112   3.875   1.656  0.1111  0.2541  0.0199
 1266ntf    fn4 9801   0.901   4.324   1.334  0.1730 -0.1448  0.2497
 1266ntf    fn4 9802   0.929   4.130   1.241  0.6499  0.1000  0.4648
 1266ntf    fn4 9803   0.759   4.167   1.362  0.0618 -0.1787  0.7890
 1266ntf    on5 9804   1.104   4.187   1.482  0.2378 -0.3680 -0.0641
 1266ntf    on5 9805   0.885   4.180   1.603 -0.2557 -0.0408  0.1448
 1266ntf    on5 9806   1.018   3.745   1.440  0.1977 -0.1825 -0.0069
 1266ntf    on5 9807   1.194   3.908   1.406 -0.0701  0.4102  0.2195
 1266ntf    fn4 9808   1.213   3.796   1.688  0.3282  0.7181  0.5028
 1266ntf    fn4 9809   1.009   3.829   1.726  0.2234 -0.2229 -0.1254
 1266ntf    fn4 9810   1.142   3.995   1.702 -0.0421  0.4349 -0.3500
 1267ntf    cn1 9811   3.098   2.700   2.158 -0.2118  0.0954  0.1316
 1267ntf    sn2 9812   3.085   2.695   1.976 -0.2992  0.2364  0.1342
 1267ntf    nn3 9813   3.084   2.541   1.949  0.2062  0.2695 -0.0931
 1267ntf    sn2 9814   3.186   2.445   1.878  0.3009  0.3876 -0.1152
 1267ntf    cn1 9815   3.095   2.428   1.722 -0.0275  0.0573  0.1104
 1267ntf    fn4 9816   3.194   2.624   2.209 -0.3912 -0.5642 -0.4940
 1267ntf    fn4 9817   3.112   2.824   2.202 -0.0491  0.0514  0.2048
 1267ntf    fn4 9818   2.987   2.647   2.206 -0.2039  0.2345  0.3014
 1267ntf    on5 9819   2.960   2.753   1.934 -0.3572 -0.1420 -0.2099
 1267ntf    on5 9820   3.206   2.765   1.938 -0.0137  0.0274  0.6451
 1267ntf    on5 9821   3.318   2.494   1.845  0.5160 -0.0628  0.0697
 1267ntf    on5 9822   3.177   2.310   1.928  0.0936  0.3061 -0.3750
 1267ntf    fn4 9823   3.085   2.545   1.661 -0.0384 -0.1058 -0.2018
 1267ntf    fn4 9824   2.969   2.389   1.717  0.1110 -0.3763 -0.0259
 1267ntf    fn4 9825   3.154   2.344   1.638  0.1517  0.0689  0.2225
 1268ntf    cn1 9826   1.588   4.064   3.426  0.5235 -0.0550  0.2493
 1268ntf    sn2 9827   1.498   3.907   3.447 -0.0192  0.2264  0.0537
 1268ntf    nn3 9828   1.358   3.969   3.483  0.2035  0.6486  0.2089
 1268ntf    sn2 9829   1.249   4.028   3.387 -0.0944 -0.1426  0.0533
 1268ntf    cn1 9830   1.149   3.881   3.346 -0.1015 -0.1415  0.0666
 1268ntf    fn4 9831   1.710   4.036   3.384  0.3926 -0.1489 -0.0754
 1268ntf    fn4 9832   1.532   4.140   3.333 -0.1467 -0.3931  0.3694
 1268ntf    fn4 9833   1.603   4.129   3.540  0.1567 -0.2690  0.4211
 1268ntf    on5 9834   1.514   3.840   3.320 -0.0402  0.4286 -0.0572
 1268ntf    on5 9835   1.557   3.860   3.570  0.2062  0.6186  0.0995
 1268ntf    on5 9836   1.154   4.113   3.455 -0.4743 -0.5788  0.0789
 1268ntf    on5 9837   1.301   4.082   3.264 -0.0570 -0.4621 -0.0723
 1268ntf    fn4 9838   1.076   3.896   3.237  0.5827  0.1376 -0.3538
 1268ntf    fn4 9839   1.072   3.850   3.450 -0.4093 -0.4107 -0.2398
 1268ntf    fn4 9840   1.225   3.775   3.331  0.2947  0.1647 -0.1128
 1269ntf    cn1 9841   1.277   3.937   2.793  0.1854 -0.1818 -0.0628
 1269ntf    sn2 9842   1.255   3.923   2.613 -0.3807 -0.2126  0.0067
 1269ntf    nn3 9843   1.240   4.078   2.597 -0.3126 -0.1587  0.4507
 1269ntf    sn2 9844   1.150   4.148   2.488  0.1829  0.1840  0.2549
 1269ntf    cn1 9845   1.001   4.183   2.587 -0.1494  0.2036 -0.2496
 1269ntf    fn4 9846   1.199   4.029   2.846  0.2231 -0.2133  0.0460
 1269ntf    fn4 9847   1.229   3.831   2.855 -0.0142  0.0325  0.1508
 1269ntf    fn4 9848   1.400   3.960   2.834  0.2218 -0.2440 -0.1361
 1269ntf    on5 9849   1.378   3.864   2.564 -0.3647  0.1185 -0.3592
 1269ntf    on5 9850   1.134   3.845   2.608 -0.2239 -0.4976  0.6356
 1269ntf    on5 9851   1.197   4.276   2.444  0.3264  0.2867  0.6988
 1269ntf    on5 9852   1.097   4.067   2.382  0.1147 -0.2343  0.6047
 1269ntf    fn4 9853   0.891   4.225   2.527 -0.0251  0.1935 -0.4883
 1269ntf    fn4 9854   1.021   4.282   2.672  0.0407  0.0998 -0.1709
 1269ntf    fn4 9855   0.965   4.082   2.664  0.4804  0.0720 -0.1183
 1270ntf    cn1 9856   4.270   1.734   6.463 -0.3606 -0.1913  0.2120
 1270ntf    sn2 9857   4.120   1.751   6.564 -0.3032  0.1900  0.2360
 1270ntf    nn3 9858   4.047   1.616   6.530  0.2952  0.0607 -0.5609
 1270ntf    sn2 9859   3.892   1.587   6.530  0.3034  0.0126 -0.2451
 1270ntf    cn1 9860   3.860   1.568   6.708  0.3752 -0.1427 -0.2488
 1270ntf    fn4 9861   4.356   1.831   6.492  0.2044 -0.4644 -0.5313
 1270ntf    fn4 9862   4.338   1.624   6.490 -0.0417 -0.0282  0.0743
 1270ntf    fn4 9863   4.246   1.733   6.333  0.8429  0.5257 -0.0279
 1270ntf    on5 9864   4.178   1.744   6.696 -0.0945  0.5028  0.1612
 1270ntf    on5 9865   4.069   1.880   6.526 -0.1628  0.3354  0.5408
 1270ntf    on5 9866   3.796   1.685   6.486  0.7798  0.4351 -0.3526
 1270ntf    on5 9867   3.865   1.452   6.488  0.1169  0.1849 -0.6758
 1270ntf    fn4 9868   3.859   1.683   6.774  0.6197 -0.1924 -0.1583
 1270ntf    fn4 9869   3.950   1.494   6.771 -0.0179 -0.1261  0.3387
 1270ntf    fn4 9870   3.745   1.510   6.739  0.3265 -0.0681 -0.2904
 1271ntf    cn1 9871   2.695   4.385   0.535 -0.2467  0.0843 -0.0870
 1271ntf    sn2 9872   2.825   4.382   0.408 -0.0975 -0.3796  0.0736
 1271ntf    nn3 9873   2.930   4.489   0.455 -0.3399 -0.3485  0.5441
 1271ntf    sn2 9874   3.060   4.458   0.538  0.0339 -0.1929  0.0239
 1271ntf    cn1 9875   3.110   4.626   0.586  0.1058 -0.2167  0.0307
 1271ntf    fn4 9876   2.586   4.318   0.504  0.1658 -0.4120 -0.4969
 1271ntf    fn4 9877   2.737   4.334   0.650  0.2429 -0.2363 -0.3994
 1271ntf    fn4 9878   2.662   4.510   0.564 -0.7061 -0.0775  0.0940
 1271ntf    on5 9879   2.863   4.243   0.397  0.4039 -0.2374 -0.0380
 1271ntf    on5 9880   2.752   4.432   0.294  0.4609 -0.2330 -0.2258
 1271ntf    on5 9881   3.029   4.395   0.664 -0.3170 -0.2424 -0.0855
 1271ntf    on5 9882   3.170   4.405   0.463  0.3360  0.8139 -0.2555
 1271ntf    fn4 9883   3.218   4.632   0.662  0.1145  0.4413 -0.0319
 1271ntf    fn4 9884   3.018   4.694   0.652  0.1175  0.2791 -0.4549
 1271ntf    fn4 9885   3.129   4.695   0.475  0.0350  0.2801  0.3257
 1272ntf    cn1 9886   1.801   4.092   4.305 -0.2758 -0.2940  0.1079
 1272ntf    sn2 9887   1.918   3.953   4.288 -0.0271 -0.0568 -0.1420
 1272ntf    nn3 9888   2.045   4.020   4.351 -0.1406  0.0522 -0.0260
 1272ntf    sn2 9889   2.177   3.970   4.420 -0.0558 -0.0365 -0.2479
 1272ntf    cn1 9890   2.142   4.019   4.592 -0.2628  0.7270 -0.5043
 1272ntf    fn4 9891   1.824   4.180   4.401 -0.0523  0.1645 -0.3602
 1272ntf    fn4 9892   1.774   4.164   4.197 -0.2453 -0.5021 -0.0389
 1272ntf    fn4 9893   1.681   4.042   4.328 -0.6802  0.5278 -0.1724
 1272ntf    on5 9894   1.864   3.843   4.364 -0.2847 -0.1870 -0.5086
 1272ntf    on5 9895   1.927   3.935   4.145  0.0829 -0.4891 -0.0799
 1272ntf    on5 9896   2.198   3.828   4.427 -0.0159 -0.0304 -0.2432
 1272ntf    on5 9897   2.287   4.056   4.383 -0.2176  0.2195 -0.1436
 1272ntf    fn4 9898   2.072   3.925   4.652 -0.1298  0.6031 -0.5410
 1272ntf    fn4 9899   2.082   4.136   4.608 -0.5611  0.4954  0.0947
 1272ntf    fn4 9900   2.253   4.028   4.663 -0.5650 -0.2239  0.0974
 1273ntf    cn1 9901   0.655   5.505   0.003  0.4477 -0.1301 -0.3311
 1273ntf    sn2 9902   0.689   5.637  -0.117 -0.0051  0.2846 -0.0087
 1273ntf    nn3 9903   0.811   5.579  -0.197 -0.0075  0.1540  0.0815
 1273ntf    sn2 9904   0.965   5.596  -0.172  0.0440 -0.0725 -0.0861
 1273ntf    cn1 9905   1.020   5.426  -0.210  0.3805  0.0730 -0.2576
 1273ntf    fn4 9906   0.762   5.445   0.052  0.5059 -0.0014 -0.3010
 1273ntf    fn4 9907   0.587   5.548   0.109  0.4992  0.3883 -0.5037
 1273ntf    fn4 9908   0.577   5.407  -0.039  0.5622 -0.6188  0.5743
 1273ntf    on5 9909   0.565   5.633  -0.191  0.0693  0.3829 -0.1389
 1273ntf    on5 9910   0.717   5.762  -0.050  0.9070  0.0587  0.0413
 1273ntf    on5 9911   1.032   5.677  -0.270  0.2205  0.0956  0.1730
 1273ntf    on5 9912   1.007   5.608  -0.035 -0.3478 -0.4202  0.0662
 1273ntf    fn4 9913   1.127   5.396  -0.138  0.0065  0.0113  0.2805
 1273ntf    fn4 9914   1.046   5.400  -0.336  0.2281 -0.4570 -0.1805
 1273ntf    fn4 9915   0.927   5.341  -0.170  0.2609  0.1939 -0.2774
 1274ntf    cn1 9916   0.878   5.984   1.150  0.0586  0.0540  0.3885
 1274ntf    sn2 9917   0.929   6.149   1.208  0.4355  0.0545  0.0616
 1274ntf    nn3 9918   0.888   6.239   1.086 -0.5284 -0.6198 -0.1269
 1274ntf    sn2 9919   0.775   6.347   1.070 -0.1009 -0.0981  0.3573
 1274ntf    cn1 9920   0.878   6.495   1.095 -0.1275 -0.0559  0.2107
 1274ntf    fn4 9921   0.898   5.886   1.236 -0.3966  0.1441  0.6012
 1274ntf    fn4 9922   0.752   5.976   1.112  0.2974 -0.0113 -0.3977
 1274ntf    fn4 9923   0.943   5.957   1.038 -0.3008  0.2815  0.1245
 1274ntf    on5 9924   0.860   6.178   1.331 -0.1292  0.6360 -0.3823
 1274ntf    on5 9925   1.073   6.141   1.204  0.3966 -0.5257 -0.3326
 1274ntf    on5 9926   0.727   6.356   0.935  0.5427 -0.0034  0.1310
 1274ntf    on5 9927   0.682   6.357   1.180  0.4726 -0.7455  0.9144
 1274ntf    fn4 9928   0.948   6.500   1.207 -0.3048  0.1253  0.3144
 1274ntf    fn4 9929   0.799   6.602   1.094  0.2253  0.2088  0.4343
 1274ntf    fn4 9930   0.967   6.508   0.998 -0.3728 -0.6308 -0.0966
 1275ntf    cn1 9931   1.148   4.726   2.141 -0.0151 -0.0238 -0.2163
 1275ntf    sn2 9932   1.090   4.684   1.974  0.1815  0.1101 -0.3188
 1275ntf    nn3 9933   1.085   4.823   1.903  0.5630  0.1993 -0.1717
 1275ntf    sn2 9934   0.975   4.882   1.807  0.1640 -0.1286  0.0850
 1275ntf    cn1 9935   0.972   5.053   1.868 -0.1600 -0.2042  0.2846
 1275ntf    fn4 9936   1.277   4.754   2.148 -0.0114  0.0675 -0.6643
 1275ntf    fn4 9937   1.080   4.825   2.197  0.5794  0.1805  0.1519
 1275ntf    fn4 9938   1.137   4.628   2.230  0.5455 -0.4683 -0.6273
 1275ntf    on5 9939   1.186   4.596   1.913  0.1159 -0.0200 -0.2371
 1275ntf    on5 9940   0.962   4.627   2.011 -0.1216  1.0471  0.1069
 1275ntf    on5 9941   1.026   4.896   1.673  0.2929 -0.3988  0.1055
 1275ntf    on5 9942   0.840   4.836   1.826 -0.0766  0.4156 -0.2813
 1275ntf    fn4 9943   0.913   5.142   1.789  0.4370 -0.0759 -0.0282
 1275ntf    fn4 9944   1.092   5.108   1.883 -0.3185  0.4455 -0.6752
 1275ntf    fn4 9945   0.910   5.068   1.984 -0.4247  0.4821  0.0630
 1276ntf    cn1 9946   6.411   2.287   0.025  0.1582 -0.3391  0.2548
 1276ntf    sn2 9947   6.453   2.371   0.181 -0.2477  0.2358  0.0570
 1276ntf    nn3 9948   6.595   2.312   0.211 -0.2116  0.5788  0.5719
 1276ntf    sn2 9949   6.730   2.386   0.241  0.3570 -0.1474 -0.1316
 1276ntf    cn1 9950   6.806   2.266   0.354  0.0702 -0.1948  0.0124
 1276ntf    fn4 9951   6.498   2.316  -0.071 -0.1804 -0.2082 -0.0138
 1276ntf    fn4 9952   6.414   2.155   0.033 -0.2753 -0.3765 -0.2153
 1276ntf    fn4 9953   6.292   2.319  -0.022  0.4226  0.1556 -0.0904
 1276ntf    on5 9954   6.453   2.512   0.153  0.4642  0.3016  0.3804
 1276ntf    on5 9955   6.339   2.321   0.255  0.1035 -0.4187  0.1573
 1276ntf    on5 9956   6.827   2.390   0.135  0.6353 -0.0647  0.1253
 1276ntf    on5 9957   6.715   2.507   0.318 -0.0864 -0.0568 -0.3580
 1276ntf    fn4 9958   6.722   2.225   0.448  0.3716 -0.0647  0.3417
 1276ntf    fn4 9959   6.915   2.319   0.408  0.0805 -0.0692 -0.1314
 1276ntf    fn4 9960   6.844   2.158   0.289 -0.1599 -0.1673 -0.1695
 1277ntf    cn1 9961   3.488   5.163   2.037 -0.1003 -0.1115 -0.2622
 1277ntf    sn2 9962   3.518   5.072   2.192 -0.1250  0.0421 -0.1668
 1277ntf    nn3 9963   3.399   4.969   2.183  0.0748 -0.2117  0.0850
 1277ntf    sn2 9964   3.399   4.823   2.126 -0.1291 -0.2087  0.0802
 1277ntf    cn1 9965   3.512   4.725   2.230  0.0883  0.2236  0.2529
 1277ntf    fn4 9966   3.487   5.069   1.944 -0.2299 -0.1443 -0.2289
 1277ntf    fn4 9967   3.372   5.226   2.028  0.0884  0.3591  0.5567
 1277ntf    fn4 9968   3.584   5.242   1.993 -0.4352  0.2339 -0.3807
 1277ntf    on5 9969   3.652   5.022   2.178 -0.2050 -0.2238  0.0013
 1277ntf    on5 9970   3.485   5.169   2.293  0.0552  0.4425 -0.4903
 1277ntf    on5 9971   3.273   4.755   2.145 -0.0925 -0.4544 -0.5201
 1277ntf    on5 9972   3.450   4.812   1.992  0.3046  0.0473  0.2254
 1277ntf    fn4 9973   3.639   4.757   2.210  0.1264 -0.1933 -0.2010
 1277ntf    fn4 9974   3.507   4.595   2.205  0.1020  0.2764 -0.0295
 1277ntf    fn4 9975   3.479   4.740   2.357 -0.2488  0.3460  0.1529
 1278ntf    cn1 9976   1.412   5.976   4.384 -0.5299  0.3067 -0.1274
 1278ntf    sn2 9977   1.560   6.079   4.371  0.0020 -0.3895  0.3290
 1278ntf    nn3 9978   1.542   6.096   4.216  0.3553  0.0098  0.3280
 1278ntf    sn2 9979   1.638   6.057   4.098 -0.0732 -0.1553  0.0321
 1278ntf    cn1 9980   1.728   6.213   4.078 -0.1953 -0.0982 -0.0805
 1278ntf    fn4 9981   1.306   6.022   4.320 -0.4839  0.1251 -0.3345
 1278ntf    fn4 9982   1.441   5.863   4.322 -0.2210 -0.0379  0.6279
 1278ntf    fn4 9983   1.368   5.940   4.504 -0.1131  0.3998  0.0551
 1278ntf    on5 9984   1.527   6.199   4.444  0.6607  0.3792 -0.6041
 1278ntf    on5 9985   1.670   5.994   4.410  0.3096 -0.4656 -0.6742
 1278ntf    on5 9986   1.740   5.959   4.127 -0.1572 -0.0891  0.5628
 1278ntf    on5 9987   1.573   6.062   3.969 -0.9041  0.4770  0.4636
 1278ntf    fn4 9988   1.817   6.211   3.980  0.0408  0.1461  0.1257
 1278ntf    fn4 9989   1.792   6.252   4.188 -0.0293  0.2103 -0.2841
 1278ntf    fn4 9990   1.646   6.312   4.049  0.2647  0.3453  0.1154
 1279ntf    cn1 9991   2.539   3.423   2.653  0.1496 -0.1556 -0.1666
 1279ntf    sn2 9992   2.623   3.360   2.801  0.3590  0.0184 -0.2103
 1279ntf    nn3 9993   2.731   3.271   2.731  0.0890 -0.1929 -0.3618
 1279ntf    sn2 9994   2.879   3.300   2.685  0.2460 -0.2969  0.0769
 1279ntf    cn1 9995   2.961   3.232   2.833 -0.0485 -0.1067  0.3285
 1279ntf    fn4 9996   2.486   3.324   2.582 -0.1475 -0.1443  0.0365
 1279ntf    fn4 9997   2.441   3.507   2.679 -0.0223 -0.5439  0.4610
 1279ntf    fn4 9998   2.621   3.485   2.570  0.0072  0.0019 -0.1882
 1279ntf    on5 9999   2.666   3.476   2.875  0.3720  0.0586 -0.2812
 1279ntf    on510000   2.523   3.276   2.863  0.4523  0.2810  0.3007
 1279ntf    on510001   2.920   3.220   2.573 -0.6227 -0.3001 -0.2451
 1279ntf    on510002   2.903   3.442   2.687 -0.5760 -0.1553  0.2656
 1279ntf    fn410003   2.940   3.301   2.944 -0.4356 -0.1775  0.3030
 1279ntf    fn410004   3.092   3.226   2.819 -0.0769  0.3866 -0.2184
 1279ntf    fn410005   2.908   3.112   2.851 -0.0834 -0.0679  0.4846
 1280ntf    cn110006   3.658   3.079   0.403 -0.0738 -0.3080  0.0792
 1280ntf    sn210007   3.726   2.911   0.399  0.1552 -0.2125 -0.0376
 1280ntf    nn310008   3.843   2.931   0.296  0.0969  0.3004 -0.0035
 1280ntf    sn210009   3.833   2.901   0.142  0.0190  0.0473  0.0511
 1280ntf    cn110010   3.999   2.950   0.085 -0.0571  0.1503 -0.0829
 1280ntf    fn410011   3.757   3.162   0.433  0.0277 -0.2732 -0.3377
 1280ntf    fn410012   3.612   3.105   0.282  0.1240  0.2810  0.1283
 1280ntf    fn410013   3.557   3.104   0.484 -0.0820 -0.4245  0.1044
 1280ntf    on510014   3.768   2.881   0.534 -0.0679 -0.1105  0.0545
 1280ntf    on510015   3.612   2.839   0.349 -0.0070 -0.1886  0.2985
 1280ntf    on510016   3.831   2.760   0.112  0.4952 -0.0353  0.3982
 1280ntf    on510017   3.740   2.985   0.071  0.3782  0.5769  0.2012
 1280ntf    fn410018   4.011   2.932  -0.045 -0.4929 -1.0364  0.0193
 1280ntf    fn410019   4.099   2.881   0.138 -0.5898 -0.5555  0.0278
 1280ntf    fn410020   4.037   3.076   0.099  0.2653  0.0799 -0.3139
 1281ntf    cn110021   4.858   4.010   3.390 -0.1792 -0.0550  0.1065
 1281ntf    sn210022   4.937   4.107   3.257  0.0806 -0.0385  0.2716
 1281ntf    nn310023   4.941   3.988   3.154  0.0887  0.8265 -0.7442
 1281ntf    sn210024   5.071   3.919   3.099 -0.0893  0.0527 -0.2140
 1281ntf    cn110025   5.084   3.769   3.200 -0.4418  0.0585 -0.1573
 1281ntf    fn410026   4.809   4.090   3.483 -0.1959  0.1225 -0.0536
 1281ntf    fn410027   4.764   3.927   3.346 -0.2666 -0.0146  0.2181
 1281ntf    fn410028   4.951   3.936   3.449  0.4190  0.5543 -0.0565
 1281ntf    on510029   4.830   4.199   3.227  0.0903 -0.1135  0.0093
 1281ntf    on510030   5.059   4.156   3.315  0.0042  0.5318 -0.0401
 1281ntf    on510031   5.044   3.870   2.966 -0.4215 -0.3994  0.0203
 1281ntf    on510032   5.197   3.984   3.125 -0.0842  0.0398 -0.2052
 1281ntf    fn410033   4.993   3.678   3.167 -0.1412 -0.2605 -0.1222
 1281ntf    fn410034   5.074   3.787   3.331 -0.4278 -0.0205 -0.1452
 1281ntf    fn410035   5.201   3.708   3.181 -0.3775  0.1608 -0.0941
 1282ntf    cn110036   1.675   5.533   6.328 -0.0871  0.3311  0.1041
 1282ntf    sn210037   1.746   5.500   6.492 -0.1221  0.1919  0.0909
 1282ntf    nn310038   1.890   5.449   6.454 -0.4228 -0.3598 -0.3043
 1282ntf    sn210039   1.963   5.311   6.470 -0.3633 -0.2859  0.0513
 1282ntf    cn110040   2.009   5.324   6.646  0.1036 -0.1094 -0.0811
 1282ntf    fn410041   1.716   5.444   6.240  0.1199  0.5369 -0.0116
 1282ntf    fn410042   1.543   5.527   6.327 -0.0805  0.1065  0.4520
 1282ntf    fn410043   1.715   5.648   6.276 -0.7322  0.3066 -0.4565
 1282ntf    on510044   1.740   5.621   6.570  0.7334  0.4984 -0.2966
 1282ntf    on510045   1.657   5.396   6.538  0.4319 -0.1533  0.3951
 1282ntf    on510046   1.873   5.199   6.463 -0.7033  0.0119 -0.4048
 1282ntf    on510047   2.089   5.303   6.400 -0.4462 -0.1916 -0.1103
 1282ntf    fn410048   2.104   5.411   6.675  0.2105  0.0081 -0.7483
 1282ntf    fn410049   2.050   5.208   6.694 -0.1159 -0.2821 -0.3034
 1282ntf    fn410050   1.902   5.358   6.716 -0.0231  0.0834 -0.3622
 1283ntf    cn110051   6.111   6.100   3.694  0.1167 -0.0339 -0.0822
 1283ntf    sn210052   5.990   6.096   3.830 -0.0486 -0.0497 -0.2295
 1283ntf    nn310053   6.056   5.988   3.923  0.6561 -0.0930 -0.7758
 1283ntf    sn210054   6.147   5.995   4.050 -0.2948  0.1962 -0.1010
 1283ntf    cn110055   6.181   5.819   4.078  0.1841  0.2839 -0.1207
 1283ntf    fn410056   6.104   5.986   3.627 -0.0040  0.0422 -0.1981
 1283ntf    fn410057   6.098   6.200   3.609  0.3686 -0.0280 -0.1146
 1283ntf    fn410058   6.232   6.109   3.746  0.1248  0.2474 -0.1513
 1283ntf    on510059   5.981   6.229   3.886 -0.1029  0.0395 -0.4493
 1283ntf    on510060   5.871   6.038   3.772  0.0348  0.0409 -0.4930
 1283ntf    on510061   6.278   6.053   4.031 -0.0777 -0.1599  0.2728
 1283ntf    on510062   6.072   6.033   4.167 -0.0176  0.0133  0.1386
 1283ntf    fn410063   6.065   5.755   4.077  0.4513 -0.2174  0.3785
 1283ntf    fn410064   6.240   5.791   4.193 -0.3710 -0.6008 -0.0386
 1283ntf    fn410065   6.246   5.757   3.980  0.0126 -0.1927  0.0647
 1284ntf    cn110066   0.326   4.024   3.509  0.0717  0.0344 -0.0919
 1284ntf    sn210067   0.381   4.006   3.682  0.0130  0.0557 -0.0710
 1284ntf    nn310068   0.536   3.988   3.668 -0.0056  0.0105 -0.2204
 1284ntf    sn210069   0.621   3.899   3.766 -0.0167  0.1654 -0.0696
 1284ntf    cn110070   0.682   4.030   3.876  0.1431  0.1626 -0.1547
 1284ntf    fn410071   0.205   4.075   3.495 -0.0636 -0.1606  0.3382
 1284ntf    fn410072   0.406   4.088   3.426 -0.0032 -0.1215 -0.2834
 1284ntf    fn410073   0.327   3.904   3.454  0.7397 -0.1815  0.3700
 1284ntf    on510074   0.346   4.131   3.745  0.2110  0.1923 -0.2322
 1284ntf    on510075   0.307   3.887   3.716  0.1848  0.0766  0.3869
 1284ntf    on510076   0.563   3.798   3.852  0.3944  0.1931  0.2407
 1284ntf    on510077   0.745   3.853   3.709 -0.0173 -0.2796  0.2807
 1284ntf    fn410078   0.737   4.123   3.799  0.1003  0.3620  0.0532
 1284ntf    fn410079   0.770   3.990   3.966 -0.2792  0.1399  0.2542
 1284ntf    fn410080   0.578   4.082   3.940 -0.0863 -0.2051 -0.2245
 1285ntf    cn110081   6.578   4.817   2.710  0.1748 -0.0247 -0.0393
 1285ntf    sn210082   6.495   4.933   2.823  0.0029 -0.1490 -0.0369
 1285ntf    nn310083   6.353   4.928   2.755  0.1062  0.1259 -0.2747
 1285ntf    sn210084   6.274   5.027   2.663 -0.4566 -0.1392 -0.0810
 1285ntf    cn110085   6.166   4.908   2.579 -0.2106 -0.2917 -0.1818
 1285ntf    fn410086   6.705   4.829   2.743  0.0050 -0.1138  0.6699
 1285ntf    fn410087   6.542   4.690   2.721 -0.3498  0.1325  0.0849
 1285ntf    fn410088   6.552   4.852   2.585 -0.3046 -0.6678 -0.1273
 1285ntf    on510089   6.496   4.862   2.948 -0.3000  0.1433  0.1328
 1285ntf    on510090   6.574   5.053   2.807  0.0935 -0.2424 -0.2969
 1285ntf    on510091   6.195   5.127   2.730  0.3082  0.1643  0.3796
 1285ntf    on510092   6.360   5.079   2.559 -0.2818  0.5738  0.4122
 1285ntf    fn410093   6.230   4.800   2.536 -0.6786 -0.5672 -0.1922
 1285ntf    fn410094   6.101   4.956   2.474 -0.5032  0.1877  0.2146
 1285ntf    fn410095   6.070   4.874   2.664 -0.2217  0.1686 -0.0111
 1286ntf    cn110096   1.193   2.270   2.448 -0.2523  0.0476  0.0117
 1286ntf    sn210097   1.149   2.314   2.619 -0.2694  0.0621  0.0038
 1286ntf    nn310098   1.010   2.243   2.635  0.0535 -0.5670  0.0230
 1286ntf    sn210099   0.862   2.293   2.622  0.0712 -0.5835 -0.2529
 1286ntf    cn110100   0.827   2.350   2.791  0.3764 -0.3890 -0.2554
 1286ntf    fn410101   1.299   2.338   2.409 -0.5758  0.5088 -0.0738
 1286ntf    fn410102   1.229   2.143   2.439  0.1948  0.1723  0.0249
 1286ntf    fn410103   1.095   2.291   2.362 -0.3536  0.2976  0.1885
 1286ntf    on510104   1.255   2.251   2.693  0.0085  0.4517 -0.0562
 1286ntf    on510105   1.161   2.458   2.615  0.6482 -0.0104 -0.0139
 1286ntf    on510106   0.840   2.413   2.545  0.2836 -0.0689  0.4809
 1286ntf    on510107   0.772   2.181   2.607 -0.4104 -0.2693  0.2322
 1286ntf    fn410108   0.816   2.247   2.873 -0.4335  0.1144  0.2775
 1286ntf    fn410109   0.713   2.417   2.803  0.5889 -0.0618 -0.0476
 1286ntf    fn410110   0.925   2.423   2.841 -0.2797  0.2077  0.1868
 1287ntf    cn110111   2.547   0.401   3.598 -0.0937 -0.1539  0.3009
 1287ntf    sn210112   2.677   0.294   3.531 -0.0236 -0.0333  0.2425
 1287ntf    nn310113   2.689   0.177   3.635 -0.6754 -0.3789 -0.0585
 1287ntf    sn210114   2.796   0.148   3.747 -0.4784 -0.0554 -0.1615
 1287ntf    cn110115   2.679   0.126   3.884 -0.1148  0.3120  0.2109
 1287ntf    fn410116   2.445   0.333   3.647 -0.1411 -0.3672 -0.0972
 1287ntf    fn410117   2.601   0.473   3.695 -0.3499  0.3117  0.1073
 1287ntf    fn410118   2.501   0.488   3.509  0.2372 -0.4014 -0.1165
 1287ntf    on510119   2.607   0.231   3.421  0.2892 -0.2333  0.1582
 1287ntf    on510120   2.788   0.377   3.492  0.3331 -0.6955 -0.1741
 1287ntf    on510121   2.865   0.022   3.739  0.1226  0.2349  0.4149
 1287ntf    on510122   2.873   0.264   3.784 -0.7961  0.1894 -0.2574
 1287ntf    fn410123   2.594   0.226   3.901 -0.3287  0.1894 -0.1164
 1287ntf    fn410124   2.737   0.101   4.000  0.0023  0.0538  0.0993
 1287ntf    fn410125   2.595   0.026   3.862  0.3197 -0.0631  0.2393
 1288ntf    cn110126   0.204   4.469   2.303  0.5174 -0.6114  0.0066
 1288ntf    sn210127   0.068   4.361   2.249 -0.1282  0.0426  0.3022
 1288ntf    nn310128   0.138   4.301   2.122 -0.0249 -0.1558  0.4508
 1288ntf    sn210129   0.244   4.185   2.114  0.3682  0.2297  0.0263
 1288ntf    cn110130   0.392   4.263   2.042  0.2049  0.4095 -0.1172
 1288ntf    fn410131   0.189   4.543   2.412  0.3135  0.0889 -0.4873
 1288ntf    fn410132   0.314   4.402   2.331  0.8847 -0.0571 -0.0928
 1288ntf    fn410133   0.232   4.554   2.206 -0.8447  0.0179  0.1498
 1288ntf    on510134   0.041   4.266   2.355  0.2690  0.1223  0.4775
 1288ntf    on510135  -0.037   4.453   2.216 -0.8032 -0.7254  0.2862
 1288ntf    on510136   0.289   4.131   2.240  0.0549 -0.8841 -0.3302
 1288ntf    on510137   0.198   4.079   2.028 -0.0292  0.4651 -0.0549
 1288ntf    fn410138   0.403   4.381   2.101  0.3012  0.5219 -0.3587
 1288ntf    fn410139   0.375   4.282   1.912  0.5429  0.2372 -0.1867
 1288ntf    fn410140   0.507   4.204   2.067 -0.0448  0.2803  0.7594
 1289ntf    cn110141   6.637   5.305   6.327 -0.0479 -0.1020 -0.1880
 1289ntf    sn210142   6.645   5.167   6.209 -0.2401 -0.1077 -0.1949
 1289ntf    nn310143   6.505   5.101   6.235 -0.3811  0.1668 -0.2544
 1289ntf    sn210144   6.458   4.962   6.291  0.3091  0.0827  0.1166
 1289ntf    cn110145   6.460   4.851   6.147 -0.1758  0.4790 -0.1997
 1289ntf    fn410146   6.533   5.382   6.299 -0.1921 -0.2576 -0.0778
 1289ntf    fn410147   6.621   5.268   6.453 -0.0505  0.4371 -0.0267
 1289ntf    fn410148   6.742   5.385   6.318 -0.1365  0.0453  0.0757
 1289ntf    on510149   6.651   5.228   6.078 -0.3738  0.6616  0.1539
 1289ntf    on510150   6.760   5.089   6.245 -0.1868 -0.0477 -0.2340
 1289ntf    on510151   6.552   4.899   6.381 -0.2130 -0.1771  0.4840
 1289ntf    on510152   6.319   4.953   6.328  0.2641  0.2390 -0.0163
 1289ntf    fn410153   6.580   4.811   6.108 -0.1980 -0.3043  0.5103
 1289ntf    fn410154   6.387   4.889   6.044  0.0381 -0.2121 -0.6091
 1289ntf    fn410155   6.397   4.739   6.177  0.2734  0.1365 -0.5176
 1290ntf    cn110156   1.166   1.832   3.969  0.1628 -0.1295 -0.2852
 1290ntf    sn210157   1.263   1.944   3.864  0.0917  0.1347 -0.0720
 1290ntf    nn310158   1.398   1.933   3.943  0.2468  0.2793 -0.3178
 1290ntf    sn210159   1.464   2.045   4.030  0.1802 -0.0910  0.2129
 1290ntf    cn110160   1.609   1.958   4.097  0.4214  0.3550  0.2791
 1290ntf    fn410161   1.225   1.714   3.964 -0.5222 -0.4740 -0.3975
 1290ntf    fn410162   1.165   1.864   4.098  0.0610  0.1076 -0.3436
 1290ntf    fn410163   1.043   1.818   3.922  0.1020 -0.1088 -0.1330
 1290ntf    on510164   1.263   1.880   3.735 -0.0122  0.4713 -0.2406
 1290ntf    on510165   1.194   2.069   3.885 -0.4840 -0.0650 -0.7483
 1290ntf    on510166   1.521   2.146   3.944 -0.5106  0.2740  0.1817
 1290ntf    on510167   1.388   2.088   4.145 -1.0355 -0.3000 -0.5054
 1290ntf    fn410168   1.582   1.863   4.185 -0.2583  0.0797 -0.2134
 1290ntf    fn410169   1.677   2.036   4.179  0.3619  0.0409  0.6267
 1290ntf    fn410170   1.682   1.894   4.006 -0.4500 -0.7158  0.3110
 1291ntf    cn110171   4.872   3.002   4.832 -0.0025  0.1923  0.5562
 1291ntf    sn210172   4.774   2.850   4.812  0.5121 -0.0835  0.1126
 1291ntf    nn310173   4.838   2.739   4.904  0.1539 -0.3502  0.0413
 1291ntf    sn210174   4.941   2.624   4.875  0.1345 -0.3484 -0.0379
 1291ntf    cn110175   5.101   2.696   4.922  0.0372 -0.0488 -0.1589
 1291ntf    fn410176   4.837   3.097   4.747 -0.4355 -0.2553  0.2247
 1291ntf    fn410177   4.865   3.055   4.953  0.3628  0.4802  0.4537
 1291ntf    fn410178   5.001   2.976   4.822 -0.1578 -0.2339 -0.4536
 1291ntf    on510179   4.644   2.899   4.848  0.7173  0.1887  0.4873
 1291ntf    on510180   4.784   2.828   4.670  0.5281 -0.0985  0.1154
 1291ntf    on510181   4.933   2.512   4.965 -0.1389  0.2261  0.6661
 1291ntf    on510182   4.958   2.595   4.735 -0.2579 -0.0844 -0.1420
 1291ntf    fn410183   5.193   2.606   4.955  0.5672  0.3170 -0.6343
 1291ntf    fn410184   5.090   2.770   5.032  0.4354 -0.2664  0.0316
 1291ntf    fn410185   5.150   2.777   4.831  0.0349 -0.1080 -0.2124
 1292ntf    cn110186   0.481   5.429   3.156 -0.0201 -0.1828 -0.2062
 1292ntf    sn210187   0.371   5.387   3.294  0.0722  0.3572  0.0331
 1292ntf    nn310188   0.433   5.254   3.350 -0.5418  0.2483  0.4641
 1292ntf    sn210189   0.525   5.229   3.474 -0.1890  0.0901  0.1741
 1292ntf    cn110190   0.390   5.194   3.592 -0.2675 -0.5406 -0.0962
 1292ntf    fn410191   0.605   5.429   3.202 -0.2967 -0.5480  0.5454
 1292ntf    fn410192   0.476   5.338   3.060 -0.0821 -0.5295  0.1221
 1292ntf    fn410193   0.455   5.546   3.100 -0.1517  0.0111  0.2649
 1292ntf    on510194   0.371   5.502   3.380 -0.1485  0.1486  0.3157
 1292ntf    on510195   0.244   5.354   3.233  0.2551  0.3125 -0.3254
 1292ntf    on510196   0.598   5.105   3.477 -0.5074 -0.1051 -0.0343
 1292ntf    on510197   0.585   5.343   3.538  0.2330  0.0816 -0.2024
 1292ntf    fn410198   0.320   5.300   3.629  0.0231 -0.7438  1.0527
 1292ntf    fn410199   0.434   5.128   3.697 -0.2160  0.4042  0.4922
 1292ntf    fn410200   0.299   5.115   3.537  0.1191 -0.5976 -0.6654
 1293ntf    cn110201   4.782   6.667   0.027 -0.0459  0.4650 -0.2114
 1293ntf    sn210202   4.833   6.771  -0.113  0.2065  0.0416 -0.4368
 1293ntf    nn310203   4.777   6.911  -0.068 -0.6390 -0.1113 -0.9945
 1293ntf    sn210204   4.626   6.955  -0.062 -0.5155  0.1789  0.2263
 1293ntf    cn110205   4.612   7.065  -0.207 -0.3079  0.0730  0.1260
 1293ntf    fn410206   4.652   6.659   0.051  0.1502 -0.1385  0.6715
 1293ntf    fn410207   4.828   6.543   0.020 -0.3601  0.3697 -0.6155
 1293ntf    fn410208   4.842   6.705   0.139 -0.1795 -0.0116  0.0213
 1293ntf    on510209   4.977   6.771  -0.110  0.2056  0.4306 -0.2931
 1293ntf    on510210   4.758   6.717  -0.224 -0.3756 -0.0729  0.0129
 1293ntf    on510211   4.530   6.849  -0.078 -0.0406 -0.2404  0.1183
 1293ntf    on510212   4.605   7.053   0.041 -0.0701  0.2560  0.2484
 1293ntf    fn410213   4.623   7.014  -0.329 -0.3577  0.1677  0.0818
 1293ntf    fn410214   4.699   7.165  -0.204 -0.3271  0.1034 -0.2858
 1293ntf    fn410215   4.493   7.120  -0.213 -0.2079  0.2583 -0.2002
 1294ntf    cn110216   2.870   3.302   4.306  0.0979 -0.1884 -0.2421
 1294ntf    sn210217   2.739   3.395   4.221 -0.0719  0.0807  0.3040
 1294ntf    nn310218   2.828   3.488   4.131 -0.2808 -0.2429 -0.2411
 1294ntf    sn210219   2.849   3.641   4.158  0.1479 -0.3489  0.0308
 1294ntf    cn110220   3.016   3.673   4.092  0.1308 -0.2620  0.0305
 1294ntf    fn410221   2.815   3.213   4.388  0.3642  0.0657  0.2162
 1294ntf    fn410222   2.939   3.233   4.217  0.3888  0.2256 -0.3393
 1294ntf    fn410223   2.961   3.372   4.372  0.3496 -0.8885  0.1635
 1294ntf    on510224   2.670   3.301   4.136 -0.2712  0.2775  0.2492
 1294ntf    on510225   2.657   3.460   4.320 -0.2720 -0.0776  0.2450
 1294ntf    on510226   2.757   3.729   4.090  0.5203  0.0271  0.0084
 1294ntf    on510227   2.870   3.678   4.296 -0.1070  0.8120 -0.2280
 1294ntf    fn410228   3.099   3.571   4.098  0.5994  0.0676 -0.8094
 1294ntf    fn410229   3.073   3.774   4.156 -0.3158 -0.1746  0.2990
 1294ntf    fn410230   3.018   3.713   3.966  0.7679 -0.1108  0.0891
 1295ntf    cn110231   1.493   6.609   5.069  0.1308 -0.1241  0.0601
 1295ntf    sn210232   1.382   6.651   5.206 -0.0451  0.1058 -0.1508
 1295ntf    nn310233   1.353   6.515   5.279  0.3341  0.0887 -0.0294
 1295ntf    sn210234   1.447   6.427   5.369  0.2201  0.4529  0.4497
 1295ntf    cn110235   1.440   6.276   5.270 -0.3544  0.3688  0.6132
 1295ntf    fn410236   1.614   6.583   5.115  0.2222  0.3650  0.0963
 1295ntf    fn410237   1.462   6.494   5.010  0.1291 -0.0771 -0.0316
 1295ntf    fn410238   1.501   6.696   4.969  0.6157 -0.4468 -0.1832
 1295ntf    on510239   1.460   6.746   5.281  0.4617 -0.0953 -0.4162
 1295ntf    on510240   1.266   6.700   5.135 -0.0259  0.2130 -0.1069
 1295ntf    on510241   1.588   6.458   5.366  0.0904  1.0619  0.3495
 1295ntf    on510242   1.392   6.388   5.497 -0.1268  0.0674  0.1848
 1295ntf    fn410243   1.528   6.188   5.315 -0.3717  0.1552  0.2400
 1295ntf    fn410244   1.470   6.289   5.141 -0.4177 -1.2274  0.4125
 1295ntf    fn410245   1.324   6.213   5.278 -0.0084 -0.3793 -0.1006
 1296ntf    cn110246   6.324   1.603   3.569 -0.0398 -0.1779 -0.0683
 1296ntf    sn210247   6.292   1.424   3.557  0.3444 -0.2488 -0.0610
 1296ntf    nn310248   6.275   1.389   3.710  0.4851  0.2662  0.0758
 1296ntf    sn210249   6.176   1.458   3.809  0.1498  0.1959 -0.2077
 1296ntf    cn110250   6.037   1.341   3.821 -0.0626  0.4431 -0.2358
 1296ntf    fn410251   6.351   1.641   3.693 -0.0409 -0.4084  0.0034
 1296ntf    fn410252   6.421   1.647   3.490 -0.0224  0.2832  0.2076
 1296ntf    fn410253   6.224   1.678   3.527 -0.1977 -0.3816 -0.0587
 1296ntf    on510254   6.173   1.407   3.478 -0.2898  0.2689  0.7692
 1296ntf    on510255   6.414   1.375   3.499  0.0353 -0.4024 -0.5874
 1296ntf    on510256   6.230   1.469   3.942 -0.4604 -0.5107  0.1074
 1296ntf    on510257   6.105   1.576   3.765 -0.6816 -0.2623 -0.1331
 1296ntf    fn410258   6.078   1.215   3.822  0.4751  0.6156 -0.0915
 1296ntf    fn410259   5.955   1.345   3.717  0.0147 -0.4295 -0.3388
 1296ntf    fn410260   5.972   1.361   3.934  0.2874  0.7147 -0.0798
 1297ntf    cn110261   6.002   1.757   2.997  0.2224 -0.0395  0.3663
 1297ntf    sn210262   6.139   1.735   2.879 -0.0802  0.3856 -0.0674
 1297ntf    nn310263   6.056   1.692   2.753  0.0988 -0.2642  0.0353
 1297ntf    sn210264   6.091   1.600   2.631 -0.0500 -0.1315 -0.1068
 1297ntf    cn110265   6.044   1.436   2.692 -0.5437 -0.0927 -0.3742
 1297ntf    fn410266   5.940   1.643   3.019  0.6243 -0.3141  0.1103
 1297ntf    fn410267   6.049   1.800   3.114  0.4788 -0.1575  0.3080
 1297ntf    fn410268   5.917   1.844   2.946  0.7049  0.1338 -0.1591
 1297ntf    on510269   6.198   1.866   2.863 -0.2098  0.5186  0.5116
 1297ntf    on510270   6.218   1.628   2.935  1.0231  0.7788 -0.8467
 1297ntf    on510271   6.000   1.623   2.521 -0.2855 -0.6418 -0.0203
 1297ntf    on510272   6.232   1.592   2.600 -0.0691 -0.0049 -0.2270
 1297ntf    fn410273   5.914   1.429   2.712 -0.5678  0.7742 -0.2193
 1297ntf    fn410274   6.107   1.401   2.804 -0.2337  0.2938 -0.4273
 1297ntf    fn410275   6.078   1.336   2.611  0.4574 -0.2674  0.2363
 1298ntf    cn110276   2.301   2.581   5.635  0.3536  0.0073  0.1308
 1298ntf    sn210277   2.329   2.404   5.665 -0.0673 -0.0815  0.0183
 1298ntf    nn310278   2.474   2.391   5.605 -0.0516 -0.2315  0.0877
 1298ntf    sn210279   2.611   2.407   5.680  0.0264 -0.1583 -0.0693
 1298ntf    cn110280   2.709   2.441   5.531  0.3407 -0.3341  0.0978
 1298ntf    fn410281   2.319   2.616   5.508  0.4718 -0.5786 -0.0149
 1298ntf    fn410282   2.172   2.601   5.659  0.3421  0.2471 -0.1219
 1298ntf    fn410283   2.372   2.667   5.707  0.5209 -0.3677  0.4147
 1298ntf    on510284   2.329   2.381   5.807  0.1947  0.3900  0.1005
 1298ntf    on510285   2.225   2.334   5.595  0.3009 -0.2276 -0.3927
 1298ntf    on510286   2.639   2.527   5.755 -0.7416 -0.5190  0.8182
 1298ntf    on510287   2.670   2.283   5.723  0.5491  0.0669 -0.1331
 1298ntf    fn410288   2.840   2.445   5.551  0.4075  0.6113 -0.4669
 1298ntf    fn410289   2.675   2.559   5.483 -0.0795 -0.3989  0.2327
 1298ntf    fn410290   2.688   2.357   5.431  0.6240  0.3618 -0.5607
 1299ntf    cn110291   4.448   2.731   1.213 -0.3132  0.0905  0.0291
 1299ntf    sn210292   4.393   2.828   1.070  0.0008  0.0728 -0.1050
 1299ntf    nn310293   4.317   2.950   1.133 -0.3241 -0.2678  0.1656
 1299ntf    sn210294   4.203   3.032   1.062 -0.1056  0.1604  0.3042
 1299ntf    cn110295   4.241   3.191   1.140  0.4733 -0.1380  0.6381
 1299ntf    fn410296   4.353   2.719   1.305 -0.4821 -0.1513 -0.1752
 1299ntf    fn410297   4.488   2.608   1.186  0.4980  0.3424  0.0695
 1299ntf    fn410298   4.551   2.790   1.271  0.0546 -0.1775 -0.3489
 1299ntf    on510299   4.513   2.873   1.004 -0.1298  0.0837 -0.3375
 1299ntf    on510300   4.310   2.734   1.000  0.1667 -0.0408 -0.1494
 1299ntf    on510301   4.230   3.044   0.921  0.5610 -0.0994  0.4043
 1299ntf    on510302   4.067   3.003   1.100 -0.2254 -0.1109 -0.3227
 1299ntf    fn410303   4.155   3.285   1.103  0.1481 -0.4523  0.5910
 1299ntf    fn410304   4.362   3.232   1.104  0.3717  0.3366  0.8195
 1299ntf    fn410305   4.228   3.187   1.272 -0.0122  0.6077  0.6209
 1300ntf    cn110306   0.591   5.986   4.324  0.2507 -0.0475 -0.1759
 1300ntf    sn210307   0.739   5.930   4.234  0.0738  0.2480 -0.6565
 1300ntf    nn310308   0.826   6.061   4.227  0.1310  0.2574  0.1331
 1300ntf    sn210309   0.805   6.184   4.132 -0.0083  0.0920 -0.0506
 1300ntf    cn110310   0.726   6.311   4.236 -0.1884  0.0412 -0.1250
 1300ntf    fn410311   0.622   6.050   4.436  0.1195 -0.4085  0.0676
 1300ntf    fn410312   0.532   6.080   4.252  0.0193  0.1140  0.2210
 1300ntf    fn410313   0.503   5.890   4.348 -0.4973  0.6841  0.0454
 1300ntf    on510314   0.797   5.845   4.335  0.1636  0.4004 -0.5778
 1300ntf    on510315   0.692   5.875   4.110 -0.1751  0.2861 -0.5789
 1300ntf    on510316   0.935   6.234   4.097  0.1951  0.2674  0.9300
 1300ntf    on510317   0.711   6.168   4.024 -0.4106 -0.6666  0.4052
 1300ntf    fn410318   0.606   6.278   4.281 -0.0620 -0.3404 -0.0672
 1300ntf    fn410319   0.709   6.428   4.176 -0.4403  0.3033  0.4535
 1300ntf    fn410320   0.795   6.332   4.346 -0.4139 -0.3157  0.0887
 1301ntf    cn110321   2.840   3.607   0.944  0.2137  0.0714  0.1707
 1301ntf    sn210322   2.780   3.746   1.045 -0.0616  0.2383 -0.2184
 1301ntf    nn310323   2.898   3.850   1.048 -0.0204  0.1863  0.0220
 1301ntf    sn210324   3.032   3.838   1.129  0.0322  0.0868 -0.0777
 1301ntf    cn110325   3.009   3.973   1.249  0.0407  0.0655 -0.0520
 1301ntf    fn410326   2.939   3.542   1.003 -0.1966 -0.5688  0.1605
 1301ntf    fn410327   2.740   3.521   0.929  0.0916  0.1101  0.7245
 1301ntf    fn410328   2.883   3.645   0.825 -0.0710  0.3517  0.1534
 1301ntf    on510329   2.672   3.793   0.962 -0.4037 -0.5966 -0.2581
 1301ntf    on510330   2.736   3.681   1.167  0.2267 -0.4212 -0.4646
 1301ntf    on510331   3.035   3.714   1.203 -0.2487 -0.0859 -0.3494
 1301ntf    on510332   3.147   3.879   1.053 -0.3049 -0.0226 -0.6551
 1301ntf    fn410333   3.027   4.092   1.194  0.1085  0.3071  0.4871
 1301ntf    fn410334   3.089   3.977   1.354 -0.0856  0.1807  0.0410
 1301ntf    fn410335   2.891   3.968   1.307  0.0511 -0.1890 -0.0543
 1302ntf    cn110336   1.703   6.438   1.383 -0.2068 -0.5403 -0.3031
 1302ntf    sn210337   1.856   6.342   1.367  0.1042 -0.0747 -0.1518
 1302ntf    nn310338   1.799   6.196   1.364  0.3033 -0.1525 -0.1804
 1302ntf    sn210339   1.743   6.114   1.243  0.2975 -0.2319 -0.1244
 1302ntf    cn110340   1.698   5.965   1.335 -0.0457  0.0112  0.1036
 1302ntf    fn410341   1.627   6.440   1.275 -0.1152 -0.1738 -0.3620
 1302ntf    fn410342   1.628   6.402   1.486 -0.2794  0.3293 -0.0403
 1302ntf    fn410343   1.741   6.564   1.399  0.0122 -0.7097  0.5922
 1302ntf    on510344   1.913   6.390   1.243 -0.0806  0.6687  0.0483
 1302ntf    on510345   1.932   6.371   1.486 -0.0868 -0.0761 -0.0304
 1302ntf    on510346   1.615   6.163   1.197 -0.0365 -0.4823  0.5303
 1302ntf    on510347   1.845   6.063   1.154  0.1902 -0.2262 -0.2521
 1302ntf    fn410348   1.617   5.887   1.266 -0.1324  0.4371 -0.2789
 1302ntf    fn410349   1.634   5.991   1.448 -0.2290 -0.1630  0.0396
 1302ntf    fn410350   1.801   5.892   1.377 -0.2399 -0.2543  0.1189
 1303ntf    cn110351   2.659   5.051   3.256 -0.1815  0.6794 -0.1581
 1303ntf    sn210352   2.790   4.972   3.356 -0.1728  0.0539 -0.6573
 1303ntf    nn310353   2.914   5.064   3.328  0.0528 -0.0738 -0.0724
 1303ntf    sn210354   2.989   5.170   3.416  0.0755  0.0511 -0.2428
 1303ntf    cn110355   3.163   5.146   3.371  0.1947 -0.4377  0.4712
 1303ntf    fn410356   2.640   5.180   3.279  0.3387  0.5578  1.0546
 1303ntf    fn410357   2.684   5.041   3.127  0.2290  0.0280 -0.0334
 1303ntf    fn410358   2.539   5.006   3.289  0.0784 -0.1391 -0.3122
 1303ntf    on510359   2.735   4.977   3.489  0.5610  0.0510 -0.3517
 1303ntf    on510360   2.800   4.839   3.301 -0.1449 -0.0823 -0.3246
 1303ntf    on510361   2.964   5.307   3.378  0.2342  0.0304 -0.4235
 1303ntf    on510362   2.997   5.138   3.556 -0.1583  0.2098 -0.1920
 1303ntf    fn410363   3.198   5.214   3.263 -0.4918 -0.7360  0.0547
 1303ntf    fn410364   3.206   5.023   3.348  0.0441 -0.4948  0.4963
 1303ntf    fn410365   3.246   5.203   3.458 -0.0319  0.4354  0.1236
 1304ntf    cn110366   3.864   6.549   2.109  0.1165  0.0634  0.0067
 1304ntf    sn210367   3.826   6.560   1.932 -0.0626  0.1415  0.0489
 1304ntf    nn310368   3.840   6.405   1.908  0.3194  0.1627  0.1202
 1304ntf    sn210369   3.742   6.292   1.860 -0.1345  0.4949  0.2512
 1304ntf    cn110370   3.799   6.288   1.687 -0.2155 -0.0788  0.2351
 1304ntf    fn410371   3.790   6.469   2.184  0.1939  0.1815  0.2117
 1304ntf    fn410372   3.987   6.501   2.121 -0.0399 -0.3188  0.1005
 1304ntf    fn410373   3.861   6.667   2.170 -0.0944  0.3656 -0.5836
 1304ntf    on510374   3.696   6.621   1.924 -0.0388  0.1561 -0.2429
 1304ntf    on510375   3.940   6.633   1.882  0.5324 -0.5092  0.4268
 1304ntf    on510376   3.768   6.155   1.897 -0.6970  0.2778 -0.1387
 1304ntf    on510377   3.604   6.332   1.849 -0.4542 -0.5707  0.2921
 1304ntf    fn410378   3.737   6.196   1.615 -0.1451  0.1948 -0.1793
 1304ntf    fn410379   3.929   6.264   1.683 -0.1663  0.2144 -0.0565
 1304ntf    fn410380   3.782   6.405   1.627 -0.2586 -0.3558 -0.2955
 1305ntf    cn110381   3.747   1.572   5.666 -0.3128 -0.0346  0.4138
 1305ntf    sn210382   3.830   1.592   5.826  0.1328 -0.1998  0.2051
 1305ntf    nn310383   3.975   1.634   5.784 -0.0109 -0.1309 -0.2242
 1305ntf    sn210384   4.106   1.549   5.801  0.2131  0.2209 -0.1800
 1305ntf    cn110385   4.235   1.677   5.792  0.4236  0.0292  0.1120
 1305ntf    fn410386   3.737   1.687   5.602  0.2052 -0.2453 -0.0566
 1305ntf    fn410387   3.819   1.498   5.583  0.0419  0.6906  0.0722
 1305ntf    fn410388   3.625   1.522   5.681 -0.2679 -0.2136  0.1809
 1305ntf    on510389   3.758   1.697   5.893 -0.2342 -0.2770 -0.0687
 1305ntf    on510390   3.814   1.455   5.867  0.5455 -0.5069 -0.6397
 1305ntf    on510391   4.142   1.497   5.930  0.3060 -0.3963 -0.4514
 1305ntf    on510392   4.138   1.472   5.683 -0.3444  0.0345 -0.2090
 1305ntf    fn410393   4.243   1.730   5.671 -0.0451 -0.4413 -0.1280
 1305ntf    fn410394   4.357   1.632   5.816  0.1941 -0.4602  0.3674
 1305ntf    fn410395   4.217   1.776   5.878  0.1950  0.2220 -0.1565
 1306ntf    cn110396   0.530   2.591   6.162 -0.0887  0.3820  0.3061
 1306ntf    sn210397   0.368   2.671   6.184 -0.2467  0.0340  0.4169
 1306ntf    nn310398   0.395   2.754   6.316 -0.5854  0.2634  0.3431
 1306ntf    sn210399   0.405   2.909   6.334 -0.1072  0.2895 -0.1360
 1306ntf    cn110400   0.580   2.913   6.382 -0.1765  0.0587  0.1321
 1306ntf    fn410401   0.620   2.677   6.117 -0.1613  0.1504 -0.2936
 1306ntf    fn410402   0.576   2.544   6.276  0.1065 -0.2047 -0.0080
 1306ntf    fn410403   0.539   2.492   6.075  0.0006  0.0552  0.6889
 1306ntf    on510404   0.342   2.753   6.068  0.5690 -0.1151  0.1254
 1306ntf    on510405   0.274   2.565   6.207 -0.3329 -0.0386 -0.2487
 1306ntf    on510406   0.410   2.992   6.215  0.7944  0.2030 -0.1664
 1306ntf    on510407   0.336   2.960   6.449 -0.5963  0.1013 -0.3428
 1306ntf    fn410408   0.657   2.890   6.277 -0.2987  0.0592  0.0423
 1306ntf    fn410409   0.612   2.820   6.471  0.2492 -0.2402 -0.3283
 1306ntf    fn410410   0.615   3.032   6.429 -0.0933  0.2931 -0.5181
 1307ntf    cn110411   4.463   5.843   0.066  0.3895 -0.4790  0.2555
 1307ntf    sn210412   4.336   5.959   0.124  0.1774 -0.4249 -0.3125
 1307ntf    nn310413   4.238   5.944   0.002 -0.0838  0.1067 -0.1685
 1307ntf    sn210414   4.081   5.936   0.008 -0.0715 -0.0450 -0.0523
 1307ntf    cn110415   4.052   6.095  -0.075 -0.0861 -0.0626 -0.0806
 1307ntf    fn410416   4.537   5.808   0.170  0.2076  0.0757  0.5770
 1307ntf    fn410417   4.414   5.729   0.020 -0.4427 -0.0682  0.1181
 1307ntf    fn410418   4.539   5.894  -0.030  0.5363 -0.6055  0.3035
 1307ntf    on510419   4.281   5.891   0.238 -0.0051 -0.1225 -0.2192
 1307ntf    on510420   4.410   6.082   0.141  0.1031 -0.4961  0.5391
 1307ntf    on510421   4.028   5.841  -0.087  0.0802  0.1954 -0.3789
 1307ntf    on510422   4.018   5.959   0.136  0.1411  0.5242 -0.0469
 1307ntf    fn410423   3.927   6.124  -0.105 -0.3361 -0.4804  0.5274
 1307ntf    fn410424   4.115   6.103  -0.191 -0.2913 -0.0099 -0.1884
 1307ntf    fn410425   4.101   6.200  -0.011  0.5998 -0.0621 -0.5958
 1308ntf    cn110426   0.217   4.024   1.608  0.2744  0.0019  0.0507
 1308ntf    sn210427   0.214   3.999   1.428 -0.2481  0.2546  0.0218
 1308ntf    nn310428   0.075   4.067   1.403 -0.3465  0.1656  0.3252
 1308ntf    sn210429   0.040   4.177   1.297 -0.0024 -0.0569 -0.0197
 1308ntf    cn110430   0.057   4.329   1.395 -0.0758  0.1289 -0.2932
 1308ntf    fn410431   0.213   4.152   1.640  0.4485  0.0294 -0.0349
 1308ntf    fn410432   0.109   3.968   1.660  0.0371 -0.0378 -0.4727
 1308ntf    fn410433   0.324   3.970   1.662  0.0944 -0.4242 -0.0172
 1308ntf    on510434   0.332   4.063   1.374 -0.1131  0.0132  0.0294
 1308ntf    on510435   0.204   3.856   1.413 -0.6774  0.2555  0.3008
 1308ntf    on510436   0.142   4.190   1.195 -0.0937  0.9531  0.0071
 1308ntf    on510437  -0.097   4.175   1.254 -0.0858  0.2599  0.2327
 1308ntf    fn410438   0.171   4.324   1.461 -0.3863  0.4179  0.2675
 1308ntf    fn410439  -0.029   4.335   1.495  0.2363  0.1213 -0.0251
 1308ntf    fn410440   0.056   4.440   1.322 -0.2086  0.3489  0.0406
 1309ntf    cn110441   4.766   6.671   3.901 -0.4772 -0.0074 -0.1747
 1309ntf    sn210442   4.673   6.568   4.018  0.1935 -0.3397  0.0743
 1309ntf    nn310443   4.522   6.579   3.976  0.2500 -0.0971 -0.0701
 1309ntf    sn210444   4.414   6.467   4.000 -0.0099  0.0949 -0.3406
 1309ntf    cn110445   4.288   6.561   4.091  0.1183 -0.1854  0.1335
 1309ntf    fn410446   4.736   6.638   3.776 -0.4697 -0.4495 -0.0643
 1309ntf    fn410447   4.754   6.802   3.914  0.0507  0.0493 -0.2441
 1309ntf    fn410448   4.896   6.647   3.914 -0.4538  0.1985 -0.0250
 1309ntf    on510449   4.738   6.442   3.996  0.3625 -0.2827  0.2456
 1309ntf    on510450   4.690   6.625   4.150 -0.3420  0.5038 -0.2133
 1309ntf    on510451   4.343   6.444   3.877 -0.4556 -0.2390 -0.0244
 1309ntf    on510452   4.440   6.361   4.093 -0.4504  0.7415  0.5350
 1309ntf    fn410453   4.195   6.477   4.132  0.3273 -0.1828  0.6123
 1309ntf    fn410454   4.231   6.657   4.019 -0.2234 -0.5377 -0.0635
 1309ntf    fn410455   4.345   6.628   4.189 -0.0112 -0.5447  0.4555
 1310ntf    cn110456   5.238   0.841   6.668 -0.2256 -0.0869  0.2850
 1310ntf    sn210457   5.102   0.952   6.714 -0.2027  0.0660 -0.0114
 1310ntf    nn310458   5.107   0.929   6.870  0.3779  0.3436  0.0119
 1310ntf    sn210459   5.095   1.032   6.987  0.0988  0.0073  0.2776
 1310ntf    cn110460   5.055   0.910   7.116  0.4479 -0.2549  0.1384
 1310ntf    fn410461   5.296   0.886   6.558  0.0084 -0.2948  0.3235
 1310ntf    fn410462   5.324   0.847   6.768  0.4508 -0.0716 -0.2967
 1310ntf    fn410463   5.199   0.718   6.636  0.3650 -0.2012 -0.0020
 1310ntf    on510464   5.154   1.077   6.664 -0.5627 -0.0004 -0.5614
 1310ntf    on510465   4.988   0.890   6.651 -0.1462 -0.6833  0.6011
 1310ntf    on510466   5.220   1.085   7.034 -0.0851  0.6262  0.0735
 1310ntf    on510467   4.981   1.120   6.984 -0.2645 -0.4856 -1.0171
 1310ntf    fn410468   4.959   0.828   7.076  0.1696  0.1909 -0.1102
 1310ntf    fn410469   5.016   0.959   7.233 -0.4222 -0.3568 -0.1005
 1310ntf    fn410470   5.162   0.835   7.139  0.9204  0.2245 -0.4606
 1311ntf    cn110471   1.956   5.642   5.029 -0.0834  0.3742  0.4663
 1311ntf    sn210472   2.053   5.491   5.003 -0.4623  0.2192 -0.0569
 1311ntf    nn310473   2.185   5.536   5.075 -0.0619 -0.5668 -0.2892
 1311ntf    sn210474   2.314   5.455   5.115  0.1837  0.0151  0.1075
 1311ntf    cn110475   2.283   5.418   5.290  0.2904  0.0900  0.1426
 1311ntf    fn410476   1.995   5.746   4.958 -0.3228  0.1695  0.0328
 1311ntf    fn410477   1.827   5.625   5.006  0.0275  0.0280  0.1070
 1311ntf    fn410478   1.965   5.686   5.154  0.4742 -0.4727  0.7332
 1311ntf    on510479   1.983   5.387   5.074 -0.2189  0.2034  0.1608
 1311ntf    on510480   2.057   5.483   4.859 -0.3005 -0.7125 -0.0107
 1311ntf    on510481   2.324   5.327   5.050 -0.4722  0.4716 -0.9219
 1311ntf    on510482   2.432   5.538   5.123 -0.3610  0.7742  0.4658
 1311ntf    fn410483   2.329   5.298   5.318 -0.5806 -0.2270  0.2499
 1311ntf    fn410484   2.155   5.418   5.322  0.2224  0.3378 -0.1279
 1311ntf    fn410485   2.341   5.505   5.372  0.3706 -0.1858  0.3794
 1312ntf    cn110486   1.989   1.117   3.056 -0.4316  0.3303  0.1304
 1312ntf    sn210487   2.044   0.944   3.048 -0.1718  0.4110  0.1816
 1312ntf    nn310488   2.195   0.964   3.087  0.0744 -0.3741 -0.3386
 1312ntf    sn210489   2.321   0.997   3.000  0.0593 -0.2855 -0.3273
 1312ntf    cn110490   2.412   1.100   3.119 -0.3130  0.2525 -0.5045
 1312ntf    fn410491   2.038   1.192   2.959  0.5597 -0.3365  0.1094
 1312ntf    fn410492   1.857   1.130   3.059 -0.4934 -0.1044 -0.4856
 1312ntf    fn410493   2.027   1.173   3.169 -0.0987 -0.5499  0.4615
 1312ntf    on510494   1.970   0.883   3.155  0.2918  0.1663  0.3643
 1312ntf    on510495   2.013   0.910   2.911 -0.0301 -0.0341  0.2597
 1312ntf    on510496   2.414   0.890   2.973  0.6727  0.3948 -0.9743
 1312ntf    on510497   2.296   1.092   2.894 -0.3362 -0.4854 -0.4116
 1312ntf    fn410498   2.442   1.014   3.215 -0.2019 -0.0305 -0.7913
 1312ntf    fn410499   2.344   1.205   3.162 -0.2412  0.1904 -0.2376
 1312ntf    fn410500   2.531   1.141   3.077  0.1771 -0.7099 -0.0918
 1313ntf    cn110501   4.138   0.865   6.262  0.0753  0.2222  0.2000
 1313ntf    sn210502   4.028   0.786   6.384 -0.0714 -0.0404 -0.0985
 1313ntf    nn310503   3.924   0.723   6.285 -0.1179  0.1450 -0.1694
 1313ntf    sn210504   3.874   0.575   6.271 -0.0874  0.1212 -0.0239
 1313ntf    cn110505   3.952   0.526   6.114  0.5778  0.1204  0.3034
 1313ntf    fn410506   4.079   0.965   6.198 -0.6350 -0.1290  0.2942
 1313ntf    fn410507   4.242   0.914   6.326 -0.0843  0.1311  0.5315
 1313ntf    fn410508   4.181   0.772   6.178 -0.4234  0.3901 -0.2487
 1313ntf    on510509   4.117   0.699   6.457  0.1835  0.3132  0.0171
 1313ntf    on510510   3.970   0.896   6.457  0.3055  0.0360  0.0867
 1313ntf    on510511   3.918   0.474   6.364  0.1360  0.0722 -0.1823
 1313ntf    on510512   3.735   0.566   6.235  0.0745  0.3963 -0.7384
 1313ntf    fn410513   3.911   0.414   6.058 -0.1732  0.5971 -0.1175
 1313ntf    fn410514   4.084   0.527   6.118  0.5750  0.2250  0.3837
 1313ntf    fn410515   3.920   0.618   6.025  0.1227 -0.1514  0.1865
 1314ntf    cn110516   0.192   2.925   2.866  0.4695 -0.0843  0.3417
 1314ntf    sn210517   0.168   3.072   2.761  0.1637 -0.4083 -0.0406
 1314ntf    nn310518   0.054   3.154   2.832 -0.2407 -0.3359 -0.7631
 1314ntf    sn210519  -0.101   3.134   2.814 -0.3260 -0.0577 -0.3514
 1314ntf    cn110520  -0.116   3.251   2.675 -0.3561  0.2102 -0.1236
 1314ntf    fn410521   0.312   2.879   2.834  0.4736  0.4664 -0.4728
 1314ntf    fn410522   0.191   2.961   2.994  0.1583  0.3081  0.2319
 1314ntf    fn410523   0.108   2.827   2.840 -0.0863  0.4738 -0.0023
 1314ntf    on510524   0.293   3.143   2.769 -0.0492 -0.0535  0.1655
 1314ntf    on510525   0.133   3.010   2.635 -0.1280 -0.5335  0.1006
 1314ntf    on510526  -0.143   3.007   2.760 -0.0365 -0.3756  0.1631
 1314ntf    on510527  -0.181   3.195   2.917  0.2258  0.1096 -0.0172
 1314ntf    fn410528  -0.046   3.220   2.567 -0.4757  0.4063 -0.2579
 1314ntf    fn410529  -0.066   3.368   2.712  0.2485 -0.2112  0.4140
 1314ntf    fn410530  -0.238   3.269   2.627 -0.3561  0.3251 -0.0804
 1315ntf    cn110531   0.618   1.069   1.512  0.0069  0.2781 -0.4056
 1315ntf    sn210532   0.520   1.220   1.540  0.1142  0.2112  0.3408
 1315ntf    nn310533   0.566   1.262   1.684 -0.2040 -0.0773  0.5290
 1315ntf    sn210534   0.642   1.392   1.729 -0.2316  0.1714 -0.1470
 1315ntf    cn110535   0.808   1.346   1.672 -0.1671  0.1385  0.0683
 1315ntf    fn410536   0.748   1.093   1.515  0.0590 -0.0644  0.1100
 1315ntf    fn410537   0.587   0.968   1.591  0.4510 -0.1477 -0.7688
 1315ntf    fn410538   0.599   1.027   1.388 -0.2204  0.4950 -0.4441
 1315ntf    on510539   0.558   1.307   1.432  0.0050 -0.1415  0.0168
 1315ntf    on510540   0.386   1.169   1.555 -0.0028  0.2996 -0.3804
 1315ntf    on510541   0.608   1.516   1.664 -0.7023  0.1389  0.0314
 1315ntf    on510542   0.650   1.383   1.872  0.1481 -0.0082 -0.1796
 1315ntf    fn410543   0.810   1.333   1.540 -0.0736  0.1035  0.0733
 1315ntf    fn410544   0.865   1.241   1.729  0.3623  0.4836  0.1788
 1315ntf    fn410545   0.898   1.438   1.701 -0.2879  0.1302  0.4676
 1316ntf    cn110546   1.580   2.876   2.754  0.0423 -0.0064 -0.8565
 1316ntf    sn210547   1.609   3.054   2.776 -0.1830 -0.0649 -0.0249
 1316ntf    nn310548   1.741   3.040   2.861 -0.1542 -0.3695 -0.1180
 1316ntf    sn210549   1.891   3.056   2.819 -0.1328 -0.0468  0.0785
 1316ntf    cn110550   1.928   3.212   2.906 -0.1574 -0.1641  0.2987
 1316ntf    fn410551   1.532   2.831   2.869  0.4263  0.3615 -0.5505
 1316ntf    fn410552   1.482   2.858   2.667 -0.6564  0.6229 -0.2225
 1316ntf    fn410553   1.687   2.803   2.728  0.0899 -0.1910 -0.1623
 1316ntf    on510554   1.625   3.105   2.642 -0.2737 -0.6307 -0.2513
 1316ntf    on510555   1.492   3.099   2.847  0.3308  0.1006  0.7350
 1316ntf    on510556   1.977   2.963   2.888  0.1185  0.1653  0.0546
 1316ntf    on510557   1.924   3.083   2.681 -0.5318  0.5930  0.1023
 1316ntf    fn410558   1.923   3.197   3.037 -0.5629  0.0685  0.3107
 1316ntf    fn410559   1.847   3.314   2.884  0.4845  0.2572 -0.1344
 1316ntf    fn410560   2.052   3.255   2.885 -0.2609 -0.0638 -0.1182
 1317ntf    cn110561   1.565   6.112   0.161  0.4455 -0.1622  0.2588
 1317ntf    sn210562   1.635   5.964   0.242  0.4156 -0.3509 -0.0596
 1317ntf    nn310563   1.512   5.916   0.326  0.5564  0.1891  0.4680
 1317ntf    sn210564   1.487   5.915   0.481  0.2944 -0.3619  0.4281
 1317ntf    cn110565   1.571   5.757   0.513 -0.0016 -0.6675 -0.2880
 1317ntf    fn410566   1.478   6.075   0.069  0.2095  0.7053  0.1288
 1317ntf    fn410567   1.497   6.194   0.240  0.1450 -0.1562 -0.0037
 1317ntf    fn410568   1.652   6.189   0.099  0.0330  0.1304  0.0386
 1317ntf    on510569   1.664   5.871   0.136 -0.1098 -0.7713  0.1641
 1317ntf    on510570   1.744   6.020   0.319 -0.0059  0.1483  0.1849
 1317ntf    on510571   1.575   6.008   0.547  0.6667  0.1778 -0.7881
 1317ntf    on510572   1.347   5.901   0.510  0.1291  1.1426  0.4522
 1317ntf    fn410573   1.505   5.656   0.461  0.0904 -0.4016 -0.9347
 1317ntf    fn410574   1.596   5.741   0.642 -0.6183 -0.1703 -0.1005
 1317ntf    fn410575   1.689   5.755   0.452  0.2950  0.0378  0.2479
 1318ntf    cn110576   6.509   1.929   4.445  0.3951  0.1078 -0.0928
 1318ntf    sn210577   6.587   1.770   4.486 -0.1192 -0.2588 -0.5333
 1318ntf    nn310578   6.502   1.662   4.410 -1.0893 -0.4168  0.7512
 1318ntf    sn210579   6.554   1.517   4.382  0.0163  0.1072  0.0623
 1318ntf    cn110580   6.495   1.414   4.519  0.1147 -0.0102  0.0162
 1318ntf    fn410581   6.573   2.032   4.499  0.5286  0.0782 -0.1951
 1318ntf    fn410582   6.502   1.948   4.315 -0.3107  0.0282 -0.0730
 1318ntf    fn410583   6.386   1.941   4.493  0.5579  0.3380  0.2776
 1318ntf    on510584   6.725   1.791   4.452  0.1963 -0.6720  0.4569
 1318ntf    on510585   6.566   1.761   4.628 -0.9571 -0.7507 -0.6831
 1318ntf    on510586   6.497   1.462   4.261  1.2637 -0.3191 -0.3495
 1318ntf    on510587   6.697   1.503   4.392 -0.0228 -0.2513  0.1660
 1318ntf    fn410588   6.542   1.454   4.636  0.4195 -0.0946 -0.0752
 1318ntf    fn410589   6.523   1.285   4.501 -0.4157 -0.1892  0.4390
 1318ntf    fn410590   6.363   1.419   4.529  0.0912  0.6152 -0.5778
 1319ntf    cn110591   0.018   1.699   1.851 -0.3451  0.3852 -0.3902
 1319ntf    sn210592  -0.103   1.823   1.907 -0.3532  0.1396  0.1385
 1319ntf    nn310593  -0.088   1.930   1.793 -0.0299 -0.1503 -0.0914
 1319ntf    sn210594  -0.009   2.065   1.804 -0.1727 -0.0429 -0.3966
 1319ntf    cn110595  -0.142   2.180   1.756 -0.3898 -0.2539 -0.2997
 1319ntf    fn410596   0.012   1.669   1.722 -0.0544  0.1389 -0.3472
 1319ntf    fn410597   0.141   1.738   1.879 -0.2631 -0.2675  0.1735
 1319ntf    fn410598  -0.004   1.580   1.904 -0.4124  0.4375 -0.2994
 1319ntf    on510599  -0.229   1.753   1.894 -0.3608  0.1497  0.1568
 1319ntf    on510600  -0.063   1.855   2.042 -0.2786  0.8812 -0.0605
 1319ntf    on510601   0.031   2.106   1.936 -0.3455 -0.3546 -0.2471
 1319ntf    on510602   0.089   2.074   1.699 -0.1184  0.6984 -0.2848
 1319ntf    fn410603  -0.139   2.221   1.630  0.2325  0.4190 -0.0715
 1319ntf    fn410604  -0.148   2.282   1.840  0.7892 -0.4642  0.0631
 1319ntf    fn410605  -0.261   2.122   1.769 -0.4044 -0.0627  0.4557
 1320ntf    cn110606   3.803   2.050   1.208 -0.0001 -0.2031  0.2444
 1320ntf    sn210607   3.796   2.073   1.388  0.1106  0.0512  0.2162
 1320ntf    nn310608   3.937   2.011   1.418  0.1817  0.0813 -0.0513
 1320ntf    sn210609   4.075   2.082   1.442  0.0495  0.3457 -0.0718
 1320ntf    cn110610   4.179   1.935   1.419  0.3006  0.4602  0.3050
 1320ntf    fn410611   3.908   2.114   1.160  0.0291 -0.0493  0.5122
 1320ntf    fn410612   3.824   1.922   1.183  0.4173 -0.1102  0.1191
 1320ntf    fn410613   3.699   2.093   1.138 -0.0175 -0.3898  0.1530
 1320ntf    on510614   3.781   2.215   1.406 -0.0765  0.0457  0.1093
 1320ntf    on510615   3.690   1.986   1.432 -0.1565  0.0081 -0.4940
 1320ntf    on510616   4.124   2.164   1.335  0.3981  0.4746  0.1856
 1320ntf    on510617   4.101   2.118   1.580 -0.1802 -0.1084  0.0938
 1320ntf    fn410618   4.309   1.957   1.408  0.2427  0.4749 -0.4138
 1320ntf    fn410619   4.144   1.875   1.306  0.1412  0.3355  0.4192
 1320ntf    fn410620   4.164   1.841   1.511  0.0198 -0.0337 -0.2373
 1321ntf    cn110621   3.713   5.238   0.693  0.1234 -0.0788 -0.4188
 1321ntf    sn210622   3.683   5.407   0.634  0.0417  0.0823  0.0805
 1321ntf    nn310623   3.632   5.387   0.487 -0.2829  0.5048  0.1327
 1321ntf    sn210624   3.579   5.491   0.381  0.0591  0.1687 -0.3738
 1321ntf    cn110625   3.435   5.407   0.308 -0.1727  0.0119  0.2593
 1321ntf    fn410626   3.775   5.243   0.809 -0.5385 -0.2582 -0.0488
 1321ntf    fn410627   3.605   5.162   0.708  0.4221 -0.4456 -0.1288
 1321ntf    fn410628   3.794   5.179   0.607 -0.2730 -0.5420 -0.4850
 1321ntf    on510629   3.585   5.454   0.729  0.2197  0.0609  0.2751
 1321ntf    on510630   3.815   5.464   0.638 -0.1142  0.4543 -0.0146
 1321ntf    on510631   3.530   5.617   0.431  0.3611 -0.0204  0.4218
 1321ntf    on510632   3.661   5.497   0.263 -0.3996 -0.1328 -0.7124
 1321ntf    fn410633   3.368   5.481   0.222  0.3675  0.4741  0.2291
 1321ntf    fn410634   3.346   5.364   0.397  0.0112 -0.2286  0.3294
 1321ntf    fn410635   3.479   5.303   0.240 -0.6584 -0.1592  0.2011
 1322ntf    cn110636   3.080   3.709   0.505 -0.1763 -0.1054  0.1597
 1322ntf    sn210637   3.180   3.558   0.493 -0.0971 -0.0368 -0.0408
 1322ntf    nn310638   3.084   3.450   0.555 -0.0170  0.1678  0.4356
 1322ntf    sn210639   3.111   3.301   0.597  0.2436  0.1351  0.1538
 1322ntf    cn110640   3.184   3.321   0.762  0.2792 -0.2620  0.1873
 1322ntf    fn410641   3.149   3.817   0.473 -0.0898 -0.2479 -0.1333
 1322ntf    fn410642   2.978   3.703   0.420  0.0053  0.8891 -0.1340
 1322ntf    fn410643   3.047   3.718   0.633  0.8562  0.1413  0.4140
 1322ntf    on510644   3.182   3.544   0.349 -0.1533 -0.2013 -0.0259
 1322ntf    on510645   3.304   3.593   0.558  0.0292 -0.2155 -0.1820
 1322ntf    on510646   2.997   3.215   0.614  0.2533  0.0291 -0.3045
 1322ntf    on510647   3.214   3.236   0.520 -0.4137 -0.0843 -0.5532
 1322ntf    fn410648   3.090   3.348   0.851  0.0758 -0.1118 -0.0710
 1322ntf    fn410649   3.268   3.423   0.769  0.2916 -0.2139 -0.5759
 1322ntf    fn410650   3.251   3.219   0.812 -0.4289 -0.8751 -0.1048
 1323ntf    cn110651   5.815   4.967   5.730  0.4724  0.4444 -0.4769
 1323ntf    sn210652   5.942   4.855   5.663  0.1152 -0.1427 -0.1766
 1323ntf    nn310653   5.995   4.943   5.545 -0.3775  0.2673 -0.0960
 1323ntf    sn210654   6.105   4.903   5.441 -0.2756 -0.0248  0.1234
 1323ntf    cn110655   6.005   4.915   5.289  0.0346  0.3958 -0.0491
 1323ntf    fn410656   5.722   4.992   5.639  0.0546 -0.1431 -0.2143
 1323ntf    fn410657   5.766   4.919   5.843  0.0488  1.0330 -0.4061
 1323ntf    fn410658   5.870   5.082   5.765 -0.2545  0.6605 -0.0352
 1323ntf    on510659   6.025   4.836   5.779  0.1454 -0.0205 -0.1793
 1323ntf    on510660   5.853   4.747   5.629 -0.4904  0.3616 -0.2124
 1323ntf    on510661   6.211   5.000   5.430 -0.4513  0.1023 -0.4921
 1323ntf    on510662   6.149   4.766   5.448 -0.6116 -0.1251  0.2662
 1323ntf    fn410663   6.056   4.863   5.178 -1.1233 -1.0162  0.0609
 1323ntf    fn410664   5.973   5.042   5.269  0.1566  0.3218 -0.7385
 1323ntf    fn410665   5.891   4.854   5.316  0.1224  0.1738 -0.1698
 1324ntf    cn110666   0.092   5.381   0.850 -0.0549 -0.3435  0.0797
 1324ntf    sn210667   0.088   5.209   0.790 -0.0808 -0.2314 -0.2458
 1324ntf    nn310668   0.214   5.206   0.697 -0.0170  0.2681 -0.1823
 1324ntf    sn210669   0.343   5.117   0.714  0.0286  0.3416 -0.1429
 1324ntf    cn110670   0.280   4.957   0.654 -0.1198  0.3760 -0.0796
 1324ntf    fn410671  -0.027   5.407   0.902  0.2685 -0.1829  0.7499
 1324ntf    fn410672   0.178   5.407   0.947 -0.2916  0.3425  0.1115
 1324ntf    fn410673   0.112   5.473   0.757 -0.1707  0.1424  0.5313
 1324ntf    on510674   0.090   5.128   0.910 -0.7153 -0.1304 -0.1635
 1324ntf    on510675  -0.035   5.225   0.716 -0.3313  0.8517  0.3733
 1324ntf    on510676   0.446   5.151   0.619  0.6016 -0.5695  0.1436
 1324ntf    on510677   0.378   5.083   0.850  0.4107 -0.0264 -0.3340
 1324ntf    fn410678   0.253   4.958   0.524 -0.5747  0.1419  0.0110
 1324ntf    fn410679   0.172   4.925   0.723 -0.0575  0.0369 -0.1405
 1324ntf    fn410680   0.371   4.862   0.669  0.2343  0.6766 -0.2927
 1325ntf    cn110681   3.771   4.345   5.877  0.0609  0.0353 -0.2019
 1325ntf    sn210682   3.697   4.506   5.919 -0.3480 -0.2324  0.1028
 1325ntf    nn310683   3.674   4.492   6.074  1.1728 -0.1989  0.3427
 1325ntf    sn210684   3.656   4.615   6.170 -0.1283  0.1531 -0.3265
 1325ntf    cn110685   3.796   4.589   6.283 -0.1200 -0.0779 -0.3901
 1325ntf    fn410686   3.685   4.247   5.899 -0.0778  0.1886 -0.0549
 1325ntf    fn410687   3.805   4.343   5.749  0.1419  1.1185 -0.2139
 1325ntf    fn410688   3.873   4.317   5.955 -0.1765  0.1683  0.1608
 1325ntf    on510689   3.800   4.599   5.880 -0.3639 -0.3953 -0.3310
 1325ntf    on510690   3.583   4.504   5.830 -0.4864  0.0691  0.2724
 1325ntf    on510691   3.671   4.746   6.111 -0.2766  0.5480  0.4875
 1325ntf    on510692   3.544   4.597   6.259  0.2313  0.2904  0.1588
 1325ntf    fn410693   3.913   4.574   6.223  0.1618  0.5935 -0.0252
 1325ntf    fn410694   3.782   4.471   6.341 -0.0664  0.2082  0.2190
 1325ntf    fn410695   3.813   4.679   6.379 -0.4595  0.1989 -0.5891
 1326ntf    cn110696   6.671   0.591   1.843 -0.2826 -0.0654 -0.2405
 1326ntf    sn210697   6.784   0.461   1.784 -0.2045 -0.0546 -0.1143
 1326ntf    nn310698   6.805   0.508   1.636  0.0129  0.3551  0.0445
 1326ntf    sn210699   6.838   0.427   1.505 -0.2799  0.1975  0.0665
 1326ntf    cn110700   6.679   0.430   1.417 -0.0425  0.5545 -0.3553
 1326ntf    fn410701   6.743   0.701   1.853 -0.4323  0.0146 -0.0376
 1326ntf    fn410702   6.570   0.618   1.762 -0.4113  0.2826  0.0365
 1326ntf    fn410703   6.625   0.564   1.964  0.6723 -0.1530  0.1102
 1326ntf    on510704   6.905   0.469   1.862 -0.1780  0.3600 -0.1988
 1326ntf    on510705   6.706   0.341   1.800  0.4512 -0.4100  0.4776
 1326ntf    on510706   6.929   0.498   1.418  0.2390 -0.6670 -0.1072
 1326ntf    on510707   6.866   0.287   1.521 -0.4567  0.0717 -0.7073
 1326ntf    fn410708   6.575   0.400   1.494  0.1668  0.0071 -0.2875
 1326ntf    fn410709   6.672   0.359   1.306  0.0472 -0.1909  0.1070
 1326ntf    fn410710   6.646   0.554   1.382  0.0571  0.5199 -0.5706
 1327ntf    cn110711   4.750   3.368   5.599  0.0063  0.1312  0.3186
 1327ntf    sn210712   4.853   3.306   5.735 -0.2224 -0.5562  0.1811
 1327ntf    nn310713   4.881   3.162   5.678  0.3604 -0.4710  0.2394
 1327ntf    sn210714   5.011   3.104   5.613  0.5078  0.0668  0.0510
 1327ntf    cn110715   4.968   2.930   5.639  0.4587  0.0756  0.0283
 1327ntf    fn410716   4.708   3.492   5.615  0.1168  0.2512 -0.3035
 1327ntf    fn410717   4.822   3.367   5.488 -0.2232  0.0856  0.1683
 1327ntf    fn410718   4.639   3.299   5.578 -0.3174  0.6714  0.2216
 1327ntf    on510719   4.960   3.401   5.752 -0.3800 -0.3522  0.0331
 1327ntf    on510720   4.758   3.294   5.843 -0.9187 -0.2021 -0.3869
 1327ntf    on510721   5.018   3.110   5.469  0.2310  0.3965  0.0499
 1327ntf    on510722   5.131   3.122   5.690  0.6110  0.1677 -0.1308
 1327ntf    fn410723   5.059   2.840   5.604  0.0756 -0.2721 -0.0834
 1327ntf    fn410724   4.854   2.914   5.573  0.0375  0.2532  0.6982
 1327ntf    fn410725   4.941   2.896   5.764  0.0398 -0.0733 -0.0979
 1328ntf    cn110726   5.991   4.072   2.361  0.4651 -0.4793  0.1281
 1328ntf    sn210727   5.911   4.209   2.450  0.4769 -0.3326 -0.0880
 1328ntf    nn310728   5.764   4.158   2.433  0.4918 -0.5421  0.3947
 1328ntf    sn210729   5.659   4.115   2.541 -0.0215  0.0005  0.1253
 1328ntf    cn110730   5.567   3.979   2.461 -0.1708  0.1255  0.0857
 1328ntf    fn410731   6.122   4.068   2.379  0.5510  0.0327 -0.3719
 1328ntf    fn410732   5.943   3.961   2.416 -0.1758 -0.0529  0.4410
 1328ntf    fn410733   5.962   4.079   2.232  0.1796  0.5214  0.2385
 1328ntf    on510734   5.971   4.202   2.581 -0.2639  0.5190  0.3060
 1328ntf    on510735   5.947   4.331   2.381  0.0282  0.1468  0.5225
 1328ntf    on510736   5.702   4.044   2.660 -0.6850 -0.6322 -0.0032
 1328ntf    on510737   5.560   4.218   2.554 -0.2883 -0.3147  0.6381
 1328ntf    fn410738   5.649   3.882   2.425 -0.1107  0.1223  0.2299
 1328ntf    fn410739   5.521   4.019   2.344 -0.5705 -0.1127  0.1605
 1328ntf    fn410740   5.462   3.935   2.528 -0.0470  0.1036  0.2674
 1329ntf    cn110741   2.839   1.651   5.687 -0.5518  0.2854  0.1695
 1329ntf    sn210742   2.990   1.603   5.597 -0.5088  0.5016  0.1246
 1329ntf    nn310743   3.073   1.735   5.579  0.2694 -0.0340 -0.2716
 1329ntf    sn210744   3.209   1.745   5.502  0.0518 -0.0839 -0.6650
 1329ntf    cn110745   3.328   1.784   5.633 -0.6187 -0.0065 -0.0718
 1329ntf    fn410746   2.758   1.547   5.695  0.2022 -0.3006  0.2553
 1329ntf    fn410747   2.862   1.686   5.813 -0.1597  0.1381  0.1400
 1329ntf    fn410748   2.770   1.749   5.632 -0.2114  0.3692 -0.1099
 1329ntf    on510749   3.059   1.512   5.685 -0.4211 -0.0001 -0.4552
 1329ntf    on510750   2.937   1.539   5.480 -0.0158 -0.1345  0.2461
 1329ntf    on510751   3.263   1.622   5.448 -0.0113 -0.1675 -0.5365
 1329ntf    on510752   3.218   1.868   5.427 -1.2239  0.4250 -0.0106
 1329ntf    fn410753   3.450   1.790   5.582 -0.6412 -0.3624 -0.1729
 1329ntf    fn410754   3.323   1.697   5.733 -0.2432  0.4286  0.3311
 1329ntf    fn410755   3.311   1.902   5.690 -0.0036 -0.1787  0.4804
 1330ntf    cn110756   4.122   2.617   1.901  0.0017 -0.3904 -0.1945
 1330ntf    sn210757   3.988   2.650   2.020  0.1096  0.0139 -0.1829
 1330ntf    nn310758   3.861   2.657   1.928  0.2779 -0.3234 -0.4461
 1330ntf    sn210759   3.742   2.759   1.929  0.4546 -0.1172  0.1953
 1330ntf    cn110760   3.797   2.865   1.792 -0.0279  0.0499  0.1290
 1330ntf    fn410761   4.237   2.650   1.956 -0.2178  0.1008 -0.0228
 1330ntf    fn410762   4.121   2.488   1.874 -0.3929 -0.4989  0.3218
 1330ntf    fn410763   4.108   2.686   1.789 -0.5236 -0.0282  0.0865
 1330ntf    on510764   3.992   2.530   2.100 -0.6386  0.4756  0.5612
 1330ntf    on510765   4.029   2.771   2.088 -0.1460 -0.7011  1.2964
 1330ntf    on510766   3.620   2.700   1.879  0.0314  0.9132 -0.0283
 1330ntf    on510767   3.729   2.846   2.043  0.3630 -0.4098  0.4091
 1330ntf    fn410768   3.808   2.799   1.678 -0.4157 -0.0057  0.1200
 1330ntf    fn410769   3.914   2.921   1.818  0.0606 -0.4309  0.7856
 1330ntf    fn410770   3.711   2.965   1.779  0.4896  0.5046  0.2097
 1331ntf    cn110771   4.112   4.189   4.088 -0.3214  0.1239  0.1107
 1331ntf    sn210772   4.144   4.013   4.122  0.1048  0.1535 -0.1243
 1331ntf    nn310773   4.277   3.982   4.044  0.2389 -0.1631  0.2223
 1331ntf    sn210774   4.333   3.841   4.007  0.0601 -0.1932  0.0621
 1331ntf    cn110775   4.440   3.811   4.151  0.2009  0.0183  0.0018
 1331ntf    fn410776   4.192   4.271   4.155 -0.1594 -0.1287  0.2282
 1331ntf    fn410777   4.130   4.208   3.958 -0.2493  0.0060  0.1041
 1331ntf    fn410778   3.991   4.228   4.123 -0.3349  0.1726  0.0091
 1331ntf    on510779   4.167   4.002   4.264  0.3134 -0.7859 -0.2224
 1331ntf    on510780   4.025   3.948   4.074  0.2495 -0.0494 -0.2083
 1331ntf    on510781   4.242   3.729   4.011 -0.2500  0.0753  0.5918
 1331ntf    on510782   4.427   3.843   3.897 -0.1213 -0.2499 -0.0931
 1331ntf    fn410783   4.371   3.773   4.257  0.5079 -0.0370  0.1827
 1331ntf    fn410784   4.506   3.920   4.186 -0.2164  0.2546  0.0440
 1331ntf    fn410785   4.536   3.725   4.119  0.5867  0.2965  0.4072
 1332ntf    cn110786   0.015   4.505   0.923 -0.0196 -0.0008 -0.3396
 1332ntf    sn210787  -0.142   4.545   0.841 -0.2182 -0.1929 -0.0535
 1332ntf    nn310788  -0.089   4.553   0.693  0.3171  0.2467  0.1631
 1332ntf    sn210789  -0.091   4.441   0.583  0.0882  0.4609 -0.0512
 1332ntf    cn110790  -0.243   4.481   0.491  0.3806  0.3456 -0.5838
 1332ntf    fn410791   0.052   4.382   0.892  0.4116 -0.0151  0.2328
 1332ntf    fn410792   0.109   4.591   0.887  0.1975  0.1397  0.5528
 1332ntf    fn410793   0.011   4.519   1.054 -0.5254 -0.1414 -0.3381
 1332ntf    on510794  -0.226   4.430   0.865 -0.0919 -0.2984 -0.1196
 1332ntf    on510795  -0.188   4.674   0.887  0.2694  0.4372 -1.2872
 1332ntf    on510796   0.007   4.471   0.482  0.3980  0.5188  0.2632
 1332ntf    on510797  -0.094   4.303   0.625 -0.0901  0.6327  0.5121
 1332ntf    fn410798  -0.350   4.471   0.567  0.4278 -0.1602 -0.5738
 1332ntf    fn410799  -0.263   4.405   0.384 -0.2325 -0.4078  0.0537
 1332ntf    fn410800  -0.238   4.603   0.441  0.2337  0.5634 -0.0722
 1333ntf    cn110801   1.187   5.965   3.189  0.2199  0.4279 -0.2922
 1333ntf    sn210802   1.255   6.004   3.025  0.3567 -0.0191 -0.3426
 1333ntf    nn310803   1.217   6.155   3.006 -0.2087 -0.0962  0.1239
 1333ntf    sn210804   1.094   6.210   2.926 -0.0126  0.0481 -0.0828
 1333ntf    cn110805   1.048   6.359   3.018 -0.1289  0.1025 -0.2283
 1333ntf    fn410806   1.056   5.971   3.210  0.3207 -0.2633  0.5988
 1333ntf    fn410807   1.232   5.847   3.230  0.0443  0.5224  0.1836
 1333ntf    fn410808   1.240   6.050   3.275 -0.2500 -0.2552  0.6912
 1333ntf    on510809   1.395   5.980   3.048  0.3707 -0.0777 -0.4921
 1333ntf    on510810   1.201   5.915   2.926 -0.1549 -0.1198  0.0222
 1333ntf    on510811   1.125   6.258   2.794 -0.5226 -0.0580 -0.2463
 1333ntf    on510812   0.976   6.127   2.934  0.1630 -0.1986 -0.0400
 1333ntf    fn410813   1.149   6.445   3.018 -0.4895  0.5279 -0.4447
 1333ntf    fn410814   1.022   6.325   3.143 -0.0642 -0.1005 -0.2696
 1333ntf    fn410815   0.948   6.438   2.981  0.1408  0.7802  0.4601
 1334ntf    cn110816   4.481   4.604   6.098 -0.2038 -0.2582  0.0800
 1334ntf    sn210817   4.599   4.519   5.989  0.1753 -0.2145  0.4550
 1334ntf    nn310818   4.558   4.595   5.858  0.9177 -0.1281  0.2665
 1334ntf    sn210819   4.620   4.726   5.797  0.1170  0.0379 -0.2130
 1334ntf    cn110820   4.749   4.651   5.692  0.3213  0.0240  0.0465
 1334ntf    fn410821   4.455   4.530   6.204 -0.0223 -0.5432 -0.0736
 1334ntf    fn410822   4.534   4.719   6.137 -0.0694 -0.4191  0.3716
 1334ntf    fn410823   4.361   4.635   6.051 -0.2446 -0.5771 -0.0267
 1334ntf    on510824   4.731   4.557   6.033  0.5219 -0.5825 -0.2515
 1334ntf    on510825   4.566   4.379   5.985  0.1377 -0.1798 -0.6620
 1334ntf    on510826   4.532   4.792   5.705 -0.0398  0.8630  0.5125
 1334ntf    on510827   4.684   4.813   5.893 -0.4215  0.5523 -0.3193
 1334ntf    fn410828   4.698   4.607   5.578  0.1592  0.2903  0.0160
 1334ntf    fn410829   4.804   4.551   5.760  0.2576  0.1029  0.2161
 1334ntf    fn410830   4.840   4.739   5.654 -0.5616  0.9134 -0.0580
 1335ntf    cn110831   4.067   2.771   2.765  0.3726  0.4679  0.0773
 1335ntf    sn210832   4.236   2.712   2.732  0.1510 -0.1675  0.0816
 1335ntf    nn310833   4.246   2.765   2.585  0.9599 -0.7904 -0.0980
 1335ntf    sn210834   4.328   2.883   2.522  0.0158  0.1453  0.3920
 1335ntf    cn110835   4.378   2.825   2.357 -0.5650  0.1854  0.1993
 1335ntf    fn410836   3.975   2.728   2.680  0.3195 -0.1960  0.4692
 1335ntf    fn410837   4.025   2.738   2.885 -0.3716 -0.1556 -0.3503
 1335ntf    fn410838   4.076   2.902   2.748  0.1028  0.5261  0.3871
 1335ntf    on510839   4.312   2.783   2.831 -0.0686 -0.2630  0.3184
 1335ntf    on510840   4.221   2.569   2.746 -0.1337 -0.1009  0.4707
 1335ntf    on510841   4.253   3.004   2.496 -0.4998 -0.1965  0.2722
 1335ntf    on510842   4.458   2.891   2.585  0.1227 -0.0051  0.1891
 1335ntf    fn410843   4.434   2.705   2.360 -0.6814  0.1413  0.7494
 1335ntf    fn410844   4.465   2.908   2.302 -0.1102 -0.1245  0.4373
 1335ntf    fn410845   4.279   2.823   2.270 -0.3245  0.9686 -0.0991
 1336ntf    cn110846   4.312   3.313   3.421 -0.0084  0.0188  0.1618
 1336ntf    sn210847   4.455   3.399   3.492  0.0275  0.3460 -0.2999
 1336ntf    nn310848   4.547   3.272   3.511 -0.6852 -0.2008 -0.4591
 1336ntf    sn210849   4.633   3.195   3.405  0.1271  0.1232 -0.0467
 1336ntf    cn110850   4.791   3.186   3.495 -0.0145 -0.3773  0.1575
 1336ntf    fn410851   4.196   3.343   3.477 -0.1997 -0.2968 -0.0650
 1336ntf    fn410852   4.304   3.345   3.293 -0.6168  0.5815  0.3320
 1336ntf    fn410853   4.313   3.181   3.431  0.0235  0.0205  0.1802
 1336ntf    on510854   4.485   3.498   3.392  0.0836 -0.1216 -0.7481
 1336ntf    on510855   4.403   3.447   3.618  0.5561 -0.2485  0.1588
 1336ntf    on510856   4.599   3.055   3.394  0.0541  0.1266  0.1352
 1336ntf    on510857   4.657   3.264   3.281  0.1982  0.1504 -0.0179
 1336ntf    fn410858   4.824   3.303   3.547 -0.1225 -0.0879 -0.4075
 1336ntf    fn410859   4.889   3.141   3.418  0.0763  0.2257 -0.0828
 1336ntf    fn410860   4.781   3.101   3.596  0.4446 -0.0596  0.4733
 1337ntf    cn110861   0.089   1.073   3.578 -0.0793  0.3415 -0.0077
 1337ntf    sn210862   0.234   1.083   3.687 -0.0281 -0.0211 -0.0430
 1337ntf    nn310863   0.238   1.233   3.733 -0.5296  0.0352 -0.1841
 1337ntf    sn210864   0.322   1.351   3.674 -0.0229 -0.2712 -0.0821
 1337ntf    cn110865   0.202   1.486   3.695  0.4380  0.1240  0.0302
 1337ntf    fn410866  -0.027   1.083   3.641 -0.2214 -0.5071 -0.1249
 1337ntf    fn410867   0.088   1.171   3.489  0.0646  0.8149  0.5091
 1337ntf    fn410868   0.086   0.973   3.492 -0.7838  0.3564 -0.0018
 1337ntf    on510869   0.204   0.995   3.797  0.4605  0.2244  0.2932
 1337ntf    on510870   0.349   1.038   3.611 -0.0935  0.2491 -0.3042
 1337ntf    on510871   0.436   1.389   3.753 -0.0876  0.6254 -0.4089
 1337ntf    on510872   0.341   1.367   3.532  0.2379  0.5145  0.0353
 1337ntf    fn410873   0.250   1.606   3.666  0.5944  0.2133  0.6413
 1337ntf    fn410874   0.153   1.504   3.817 -0.0544  0.6893 -0.2449
 1337ntf    fn410875   0.101   1.468   3.612  0.1274  0.3371  0.3554
 1338ntf    cn110876   3.577   0.052   2.394 -0.1049  0.0082 -0.1638
 1338ntf    sn210877   3.523   0.202   2.483 -0.0110 -0.0728  0.0310
 1338ntf    nn310878   3.460   0.139   2.612 -0.2020  0.0498 -0.0020
 1338ntf    sn210879   3.507   0.163   2.760  0.2315  0.1537 -0.1539
 1338ntf    cn110880   3.609   0.020   2.803 -0.0182  0.0199 -0.0047
 1338ntf    fn410881   3.687   0.013   2.456 -0.1571  0.6850  0.3687
 1338ntf    fn410882   3.481  -0.038   2.410 -0.3772  0.3377  0.0818
 1338ntf    fn410883   3.615   0.071   2.269 -0.2063 -0.0792 -0.2076
 1338ntf    on510884   3.647   0.272   2.504  0.2258 -0.3407 -0.4460
 1338ntf    on510885   3.427   0.265   2.395  0.3969  0.3876 -0.0906
 1338ntf    on510886   3.593   0.276   2.787  0.5086  0.0639 -0.6399
 1338ntf    on510887   3.400   0.147   2.855 -0.0104 -0.3601 -0.5034
 1338ntf    fn410888   3.727   0.020   2.743  0.2342  0.4371  0.4764
 1338ntf    fn410889   3.540  -0.090   2.777  0.0545 -0.0249 -0.0086
 1338ntf    fn410890   3.629   0.003   2.933  0.4295 -0.0331 -0.0774
 1339ntf    cn110891   0.904   4.715   3.715 -0.0891  0.2992  0.1166
 1339ntf    sn210892   1.085   4.710   3.705 -0.0984 -0.1951  0.1868
 1339ntf    nn310893   1.103   4.778   3.565 -0.1087  0.0445  0.3007
 1339ntf    sn210894   1.124   4.923   3.510  0.1277 -0.2677 -0.4422
 1339ntf    cn110895   1.104   4.900   3.330  0.3036  0.1010 -0.5101
 1339ntf    fn410896   0.849   4.652   3.613  0.2925 -0.0655  0.1352
 1339ntf    fn410897   0.852   4.667   3.827 -0.0537 -0.2563 -0.1028
 1339ntf    fn410898   0.872   4.843   3.708 -0.3751  0.2449  0.3784
 1339ntf    on510899   1.132   4.785   3.819 -0.4241  0.0918  0.1332
 1339ntf    on510900   1.119   4.570   3.695  0.7298  0.0513 -0.5827
 1339ntf    on510901   1.025   5.018   3.555  0.9167  0.5867 -0.4869
 1339ntf    on510902   1.263   4.955   3.528 -0.0803  0.2944  0.2170
 1339ntf    fn410903   1.206   4.841   3.270 -0.0740 -0.4952 -0.5636
 1339ntf    fn410904   1.095   5.020   3.275  0.0925  0.5220  0.4079
 1339ntf    fn410905   0.991   4.836   3.305  0.3175 -0.0337 -0.2318
 1340ntf    cn110906   2.559   1.009   5.501 -0.0815  0.2075  0.0625
 1340ntf    sn210907   2.640   1.014   5.664  0.0030 -0.0451  0.0286
 1340ntf    nn310908   2.550   0.906   5.733  1.0886 -0.6889  0.4661
 1340ntf    sn210909   2.470   0.917   5.868  0.3918 -0.3008  0.0312
 1340ntf    cn110910   2.301   0.960   5.818  0.4589 -0.1340 -0.0513
 1340ntf    fn410911   2.607   0.922   5.413 -0.1651  0.0005  0.2213
 1340ntf    fn410912   2.432   0.978   5.512  0.0748 -0.5915 -0.3203
 1340ntf    fn410913   2.568   1.126   5.438  0.4553  0.1650  0.0530
 1340ntf    on510914   2.773   0.963   5.642 -0.1075 -0.5567  0.5326
 1340ntf    on510915   2.627   1.149   5.714  0.1417  0.2814 -0.7962
 1340ntf    on510916   2.455   0.785   5.926 -0.1949 -0.4779 -0.5134
 1340ntf    on510917   2.512   1.024   5.955  0.0956  0.1278 -0.3490
 1340ntf    fn410918   2.210   0.945   5.913  0.5191 -0.0478  0.0196
 1340ntf    fn410919   2.267   0.874   5.724  0.0476 -0.1134  0.0779
 1340ntf    fn410920   2.288   1.082   5.768 -0.1260  0.1439  0.7603
 1341ntf    cn110921   3.580   2.757   3.914  0.1087  0.0774 -0.1078
 1341ntf    sn210922   3.714   2.850   3.833  0.2681 -0.0397  0.0225
 1341ntf    nn310923   3.657   2.994   3.813  0.2493 -0.0917 -0.3144
 1341ntf    sn210924   3.644   3.104   3.925  0.0099 -0.2068 -0.2288
 1341ntf    cn110925   3.803   3.191   3.923  0.0818 -0.3374 -0.2031
 1341ntf    fn410926   3.613   2.633   3.943  0.1881  0.2803  0.7031
 1341ntf    fn410927   3.543   2.811   4.029 -0.2443 -0.4336  0.0188
 1341ntf    fn410928   3.472   2.752   3.838 -0.0578 -0.8049  0.1834
 1341ntf    on510929   3.825   2.855   3.925  0.2584  1.1891 -0.0208
 1341ntf    on510930   3.744   2.776   3.712  0.3711  0.2832 -0.1490
 1341ntf    on510931   3.543   3.199   3.887 -0.7408 -0.5867  0.7590
 1341ntf    on510932   3.640   3.050   4.059  0.4686  0.7078  0.1664
 1341ntf    fn410933   3.837   3.232   3.802  0.1809 -0.1034 -0.0972
 1341ntf    fn410934   3.900   3.109   3.962  0.2595 -0.2431 -0.4421
 1341ntf    fn410935   3.812   3.293   4.007 -0.5846 -0.0872 -0.4287
 1342ntf    cn110936   0.244   0.236   0.793  0.0304  0.3345  0.1598
 1342ntf    sn210937   0.368   0.270   0.664  0.2775  0.0432  0.3201
 1342ntf    nn310938   0.486   0.311   0.759  0.9011  0.3170 -0.5606
 1342ntf    sn210939   0.559   0.449   0.773  0.3057  0.5725  0.0995
 1342ntf    cn110940   0.726   0.409   0.712 -0.0148 -0.0921 -0.3655
 1342ntf    fn410941   0.250   0.332   0.884  0.0611 -0.0744  0.5905
 1342ntf    fn410942   0.120   0.237   0.746  0.2246  0.5871 -0.3654
 1342ntf    fn410943   0.250   0.118   0.850 -0.1514 -0.0999 -0.6989
 1342ntf    on510944   0.393   0.146   0.595  0.0792  0.2369 -0.1105
 1342ntf    on510945   0.295   0.369   0.588 -0.1867 -0.4436  0.1263
 1342ntf    on510946   0.515   0.554   0.684 -0.1076  0.0913 -0.2702
 1342ntf    on510947   0.583   0.478   0.912 -0.5219  0.4085  0.2786
 1342ntf    fn410948   0.714   0.382   0.584  0.0933 -0.1912 -0.3543
 1342ntf    fn410949   0.791   0.302   0.754  0.6767  0.1999 -0.6666
 1342ntf    fn410950   0.810   0.511   0.725 -0.2888  0.1290 -0.3180
 1343ntf    cn110951   1.284   0.145   4.448 -0.1837 -0.2291 -0.4024
 1343ntf    sn210952   1.177   0.009   4.505 -0.1711 -0.0009  0.1815
 1343ntf    nn310953   1.112   0.070   4.634 -0.0916  0.3466  0.0601
 1343ntf    sn210954   1.077  -0.001   4.770  0.2593 -0.2370 -0.1488
 1343ntf    cn110955   0.900  -0.031   4.741  0.0469  0.6280  0.2309
 1343ntf    fn410956   1.216   0.244   4.391 -0.2216  0.1608  0.3007
 1343ntf    fn410957   1.359   0.200   4.543 -0.1361 -0.8935 -0.0461
 1343ntf    fn410958   1.370   0.100   4.359 -0.2807 -0.2420 -0.4891
 1343ntf    on510959   1.086  -0.013   4.395 -0.0452 -0.2669  0.1298
 1343ntf    on510960   1.268  -0.099   4.529  0.0237  0.1344  0.0591
 1343ntf    on510961   1.128  -0.134   4.789 -0.3575 -0.4239  0.2443
 1343ntf    on510962   1.077   0.096   4.876  0.0280 -0.0430 -0.3233
 1343ntf    fn410963   0.840  -0.089   4.844 -0.1480  0.5164  0.0541
 1343ntf    fn410964   0.870  -0.096   4.630  0.0577  0.6799  0.1975
 1343ntf    fn410965   0.833   0.083   4.729 -0.0953  0.4798 -0.4360
 1344ntf    cn110966   0.839   2.025   3.291 -0.0842 -0.0542 -0.1816
 1344ntf    sn210967   0.790   1.851   3.310  0.1937 -0.0994  0.1237
 1344ntf    nn310968   0.637   1.861   3.342  0.2147 -0.3799  0.3187
 1344ntf    sn210969   0.526   1.893   3.236  0.3030  0.0982  0.3673
 1344ntf    cn110970   0.446   1.730   3.226  0.4276  0.0809 -0.4135
 1344ntf    fn410971   0.845   2.095   3.402  0.0725  0.0947 -0.2826
 1344ntf    fn410972   0.958   2.020   3.233  0.1438 -0.1742  0.2911
 1344ntf    fn410973   0.762   2.090   3.206  0.1601 -0.2483 -0.5587
 1344ntf    on510974   0.822   1.786   3.185 -0.2929 -1.0310  0.4764
 1344ntf    on510975   0.860   1.807   3.428 -0.0536  0.2823  0.4121
 1344ntf    on510976   0.423   1.964   3.307 -0.4099 -0.8060  0.2592
 1344ntf    on510977   0.552   1.935   3.100 -0.5313 -0.1283  0.1279
 1344ntf    fn410978   0.342   1.746   3.145  0.3245 -0.1010 -0.3190
 1344ntf    fn410979   0.398   1.688   3.342 -0.1279  0.1913 -0.5991
 1344ntf    fn410980   0.526   1.635   3.182  0.0778 -0.4327  0.0458
 1345ntf    cn110981   0.802   0.107   1.629  0.1556 -0.2399  0.3258
 1345ntf    sn210982   0.923   0.153   1.502 -0.0910 -0.1338  0.1260
 1345ntf    nn310983   0.882   0.299   1.462  0.0493 -0.0868  0.1496
 1345ntf    sn210984   0.973   0.425   1.440 -0.2660  0.1343  0.1082
 1345ntf    cn110985   0.975   0.493   1.609  0.2586  0.3424  0.0189
 1345ntf    fn410986   0.798   0.195   1.727  0.7724  0.0389  0.1014
 1345ntf    fn410987   0.676   0.113   1.589  0.1553  0.0490  0.3696
 1345ntf    fn410988   0.819  -0.009   1.690 -0.0436 -0.1362  0.5812
 1345ntf    on510989   1.052   0.139   1.567 -0.3445 -0.6579  0.5237
 1345ntf    on510990   0.898   0.061   1.394 -0.1561  0.4765 -0.3827
 1345ntf    on510991   1.110   0.397   1.408 -0.2919 -0.3910  0.4447
 1345ntf    on510992   0.907   0.536   1.376  0.7467  0.3983 -0.4838
 1345ntf    fn410993   1.066   0.586   1.634  0.0617  0.4638  0.2872
 1345ntf    fn410994   0.995   0.394   1.694 -0.7718 -0.0558 -0.1925
 1345ntf    fn410995   0.858   0.543   1.647  0.3492  0.1260  0.5874
 1346ntf    cn110996   5.403   2.338   6.114  0.5812  0.1980  0.2477
 1346ntf    sn210997   5.258   2.368   6.220  0.2202 -0.1209 -0.1519
 1346ntf    nn310998   5.217   2.509   6.163  0.5379  0.0991  0.1630
 1346ntf    sn210999   5.217   2.656   6.218  0.2054  0.2201 -0.1528
 1346ntf    cn111000   5.376   2.726   6.166  0.4331 -0.1992 -0.0289
 1346ntf    fn411001   5.491   2.437   6.115  0.4815  0.2874  0.1828
 1346ntf    fn411002   5.480   2.236   6.150  0.0525 -0.2544  0.1195
 1346ntf    fn411003   5.371   2.321   5.987  0.3561  0.0636  0.3198
 1346ntf    on511004   5.160   2.267   6.189  0.3784 -0.4700  0.4774
 1346ntf    on511005   5.304   2.379   6.356 -0.2988  0.5761 -0.0281
 1346ntf    on511006   5.123   2.747   6.158  0.0222  0.0724 -0.0903
 1346ntf    on511007   5.232   2.669   6.361 -0.0320 -0.4173 -0.0679
 1346ntf    fn411008   5.374   2.852   6.206  0.6934 -0.1790 -0.0753
 1346ntf    fn411009   5.400   2.733   6.036  0.2446  0.1890 -0.0437
 1346ntf    fn411010   5.483   2.678   6.229  0.5289  0.2911  0.1844
 1347ntf    cn111011   4.567   4.743   1.000  0.2234  0.0489  0.2292
 1347ntf    sn211012   4.614   4.759   0.825  0.1050 -0.5923  0.1336
 1347ntf    nn311013   4.507   4.871   0.797  0.3087 -0.5848 -0.6365
 1347ntf    sn211014   4.358   4.852   0.751  0.0667 -0.0397 -0.0938
 1347ntf    cn111015   4.370   4.946   0.596 -0.1462  0.3022  0.0955
 1347ntf    fn411016   4.569   4.854   1.071  0.1583  0.0654  0.2048
 1347ntf    fn411017   4.458   4.673   1.026  0.4524 -0.3637  0.0926
 1347ntf    fn411018   4.660   4.668   1.058 -0.0833 -0.4562  0.0776
 1347ntf    on511019   4.747   4.813   0.837 -0.2277  0.2619  0.0830
 1347ntf    on511020   4.589   4.635   0.756  0.4447 -0.4967 -0.1648
 1347ntf    on511021   4.315   4.722   0.706 -0.3016 -0.0881  0.3841
 1347ntf    on511022   4.269   4.921   0.841  0.4025  0.5493 -0.2064
 1347ntf    fn411023   4.397   5.072   0.628 -0.0085  0.3509 -0.2048
 1347ntf    fn411024   4.255   4.950   0.530 -0.5437 -0.1451  0.7551
 1347ntf    fn411025   4.463   4.907   0.509 -0.1767  0.1522  0.1310
 1348ntf    cn111026   4.751   1.407   2.077 -0.3072 -0.2798  0.2312
 1348ntf    sn211027   4.863   1.319   2.190 -0.2772 -0.4011  0.1085
 1348ntf    nn311028   4.774   1.304   2.319 -0.2829 -0.0956  0.1413
 1348ntf    sn211029   4.825   1.311   2.467  0.5135  0.1664 -0.1411
 1348ntf    cn111030   4.747   1.158   2.527  0.2025  0.4429  0.1691
 1348ntf    fn411031   4.680   1.324   2.003 -0.1613  0.3342 -0.6138
 1348ntf    fn411032   4.662   1.483   2.139  0.0706  0.6261 -0.3138
 1348ntf    fn411033   4.815   1.483   1.989 -0.4132 -0.0115  0.3837
 1348ntf    on511034   4.895   1.189   2.137  0.5223 -0.1481 -0.0427
 1348ntf    on511035   4.964   1.422   2.200 -0.6977 -0.0163  0.4985
 1348ntf    on511036   4.966   1.288   2.488  0.3711 -0.3056  0.3297
 1348ntf    on511037   4.759   1.416   2.541 -0.1881  0.2578 -0.8772
 1348ntf    fn411038   4.779   1.133   2.653  0.0661 -0.0583  0.1042
 1348ntf    fn411039   4.780   1.061   2.443  0.3462  0.2849  0.4089
 1348ntf    fn411040   4.616   1.173   2.537  0.1246 -0.0841 -0.0492
 1349ntf    cn111041   2.000   0.678   0.871 -0.1483 -0.0882 -0.2503
 1349ntf    sn211042   2.112   0.778   0.768  0.1109  0.0379  0.1511
 1349ntf    nn311043   2.243   0.691   0.763  0.2504  0.2570 -0.0198
 1349ntf    sn211044   2.321   0.621   0.647 -0.0534 -0.1141 -0.0018
 1349ntf    cn111045   2.458   0.741   0.646 -0.0384 -0.1278  0.4412
 1349ntf    fn411046   2.061   0.648   0.985 -0.6823 -0.3679 -0.0357
 1349ntf    fn411047   1.880   0.725   0.898  0.0843  0.2525  0.2076
 1349ntf    fn411048   1.976   0.560   0.815 -0.8191 -0.2929  0.4451
 1349ntf    on511049   2.040   0.799   0.645  0.8007  0.4880 -0.1771
 1349ntf    on511050   2.124   0.891   0.857 -0.0244  0.2021 -0.0400
 1349ntf    on511051   2.380   0.496   0.690 -0.0587 -0.1808 -0.1875
 1349ntf    on511052   2.249   0.619   0.522 -0.0419 -0.2961 -0.0067
 1349ntf    fn411053   2.537   0.728   0.752 -0.0975  0.0204  0.5030
 1349ntf    fn411054   2.416   0.866   0.646 -0.1892 -0.1765 -0.0146
 1349ntf    fn411055   2.530   0.733   0.536 -0.5055 -0.6243  0.1669
 1350ntf    cn111056   2.039   1.405   4.373  0.0298  0.4367  0.2412
 1350ntf    sn211057   2.181   1.434   4.483  0.3788 -0.0841 -0.0671
 1350ntf    nn311058   2.268   1.308   4.449  0.2037 -0.1439 -0.2921
 1350ntf    sn211059   2.372   1.293   4.332  0.0409 -0.3266 -0.4137
 1350ntf    cn111060   2.352   1.121   4.276  0.1387 -0.5000  0.0765
 1350ntf    fn411061   1.968   1.299   4.408  0.1325  0.5204  0.7134
 1350ntf    fn411062   1.961   1.510   4.389 -0.5230  0.0545  0.0847
 1350ntf    fn411063   2.068   1.395   4.245 -0.1952  0.0252  0.2220
 1350ntf    on511064   2.240   1.560   4.446 -0.0025  0.0865 -0.0998
 1350ntf    on511065   2.119   1.435   4.613 -0.1300 -0.1493 -0.3074
 1350ntf    on511066   2.343   1.369   4.213  0.6016  0.5340 -0.0145
 1350ntf    on511067   2.510   1.295   4.376 -0.2294 -0.2353  0.4435
 1350ntf    fn411068   2.460   1.075   4.215  0.3906  0.3206 -0.1223
 1350ntf    fn411069   2.255   1.109   4.187  0.1205 -0.1217  0.0423
 1350ntf    fn411070   2.331   1.037   4.375 -0.2229 -0.5410 -0.0355
 1351ntf    cn111071   2.983   0.041   4.663 -0.2148 -0.1464 -0.3833
 1351ntf    sn211072   2.934  -0.099   4.769 -0.2289  0.1236 -0.0345
 1351ntf    nn311073   3.078  -0.159   4.789 -0.5114 -0.6561 -0.3115
 1351ntf    sn211074   3.145  -0.234   4.909  0.0996  0.0161 -0.2272
 1351ntf    cn111075   3.179  -0.399   4.841 -0.0920  0.0775 -0.4721
 1351ntf    fn411076   2.880   0.112   4.620 -0.3131 -0.0037  0.0939
 1351ntf    fn411077   3.057   0.128   4.729  0.1305 -0.3683 -0.4736
 1351ntf    fn411078   3.056  -0.002   4.561  0.1336  0.1928 -0.2795
 1351ntf    on511079   2.881  -0.040   4.889 -0.8120  0.0934 -0.2739
 1351ntf    on511080   2.857  -0.176   4.674  0.2949 -0.2833 -0.1312
 1351ntf    on511081   3.277  -0.186   4.942  0.4117 -0.5943 -0.5612
 1351ntf    on511082   3.060  -0.266   5.021  0.2924 -0.0920 -0.1127
 1351ntf    fn411083   3.245  -0.478   4.924  0.1050  0.4475 -0.2729
 1351ntf    fn411084   3.252  -0.397   4.731 -0.3967 -0.3970 -0.6860
 1351ntf    fn411085   3.063  -0.459   4.816  0.3682 -0.5611 -1.0982
 1352ntf    cn111086   4.025   6.312   2.709 -0.1602 -0.2411  0.0699
 1352ntf    sn211087   3.930   6.159   2.726 -0.0124 -0.3306  0.0874
 1352ntf    nn311088   4.000   6.099   2.853  0.3382  1.2767  0.6708
 1352ntf    sn211089   3.934   6.062   2.991 -0.0588 -0.3648  0.0635
 1352ntf    cn111090   3.949   6.218   3.084  0.0976 -0.3713  0.0489
 1352ntf    fn411091   4.154   6.298   2.679 -0.2298 -0.1465 -0.2788
 1352ntf    fn411092   3.975   6.399   2.623 -0.2508 -0.0274  0.3356
 1352ntf    fn411093   4.036   6.371   2.827  0.2424 -0.4541  0.1416
 1352ntf    on511094   3.795   6.209   2.740  0.1673  0.2484 -0.2194
 1352ntf    on511095   3.960   6.083   2.607 -0.1054  0.0237 -0.1641
 1352ntf    on511096   3.794   6.026   2.986 -0.0820 -0.2717  0.0390
 1352ntf    on511097   4.024   5.975   3.062  0.0917 -0.5698 -0.3742
 1352ntf    fn411098   4.077   6.246   3.103 -0.0534  0.0138  0.5092
 1352ntf    fn411099   3.895   6.214   3.204  0.2995  0.0461  0.1553
 1352ntf    fn411100   3.887   6.318   3.023  0.4067 -0.1422  0.1117
 1353ntf    cn111101   1.911   5.330   3.705 -0.1138 -0.0393  0.4848
 1353ntf    sn211102   1.860   5.249   3.550 -0.1572 -0.2138  0.5905
 1353ntf    nn311103   1.776   5.367   3.489  0.5715  0.1297  0.2439
 1353ntf    sn211104   1.835   5.473   3.389  0.3114  0.1218  0.0818
 1353ntf    cn111105   1.786   5.406   3.227  0.0634  0.2132  0.1185
 1353ntf    fn411106   1.975   5.250   3.788 -0.0915 -0.0033  0.5023
 1353ntf    fn411107   1.991   5.432   3.676 -0.4846 -0.0237 -0.5317
 1353ntf    fn411108   1.810   5.380   3.774 -0.2384 -0.1409  0.3766
 1353ntf    on511109   1.984   5.212   3.487  0.1178  0.6582  0.5980
 1353ntf    on511110   1.776   5.141   3.597  0.4136 -0.7145  0.4656
 1353ntf    on511111   1.771   5.602   3.401 -0.1445 -0.0909 -0.0496
 1353ntf    on511112   1.979   5.479   3.382  0.3247  0.2799  0.4692
 1353ntf    fn411113   1.822   5.281   3.208  0.0365  0.2547 -0.2122
 1353ntf    fn411114   1.830   5.472   3.121 -0.4398  0.4880  0.0753
 1353ntf    fn411115   1.655   5.399   3.209  0.0947  0.3320 -0.1505
 1354ntf    cn111116   6.669   6.348   3.466  0.2388 -0.2253 -0.4477
 1354ntf    sn211117   6.809   6.264   3.385  0.3782 -0.2623 -0.1716
 1354ntf    nn311118   6.856   6.191   3.515 -0.2335  0.0598  0.2380
 1354ntf    sn211119   6.970   6.221   3.619  0.1768 -0.2858 -0.1046
 1354ntf    cn111120   6.930   6.105   3.752  0.5496 -0.0280  0.2333
 1354ntf    fn411121   6.715   6.441   3.548 -0.8800  0.0464 -0.1096
 1354ntf    fn411122   6.590   6.410   3.380  0.1583  0.4245  0.0925
 1354ntf    fn411123   6.589   6.267   3.533 -0.0544  0.3940 -0.0371
 1354ntf    on511124   6.740   6.182   3.288  0.3721 -0.1072 -0.3001
 1354ntf    on511125   6.897   6.369   3.340 -0.1014  0.6747  1.0296
 1354ntf    on511126   7.098   6.167   3.580  0.4906  0.4123 -0.0663
 1354ntf    on511127   6.959   6.352   3.678  0.1967 -0.2818 -0.1100
 1354ntf    fn411128   6.993   5.990   3.730 -0.0919 -0.3860  0.2313
 1354ntf    fn411129   6.802   6.075   3.760  0.5686 -0.1542  0.0716
 1354ntf    fn411130   6.965   6.149   3.872 -0.2247  0.0852  0.4193
 1355ntf    cn111131   6.155   2.492   1.468  0.3231 -0.2728  0.1076
 1355ntf    sn211132   6.178   2.670   1.443 -0.1043 -0.2171  0.1047
 1355ntf    nn311133   6.204   2.711   1.592  0.0109  0.0951  0.0002
 1355ntf    sn211134   6.208   2.855   1.654  0.1438  0.1379 -0.1068
 1355ntf    cn111135   6.388   2.864   1.679  0.1468 -0.3194  0.0374
 1355ntf    fn411136   6.036   2.479   1.523  0.1550  0.0888 -0.1700
 1355ntf    fn411137   6.161   2.417   1.359  0.5618 -0.0036 -0.0636
 1355ntf    fn411138   6.240   2.437   1.553  0.2957 -0.0029  0.3101
 1355ntf    on511139   6.289   2.689   1.353 -0.6306 -0.7440 -0.6639
 1355ntf    on511140   6.049   2.713   1.394 -0.6387 -0.8255  0.9539
 1355ntf    on511141   6.176   2.970   1.573 -0.0026 -0.1669 -0.4867
 1355ntf    on511142   6.160   2.857   1.790 -0.4271 -0.0094 -0.3044
 1355ntf    fn411143   6.428   2.796   1.785 -0.0158 -0.2889  0.1191
 1355ntf    fn411144   6.429   2.989   1.690 -0.5568 -0.0479 -0.3308
 1355ntf    fn411145   6.450   2.818   1.572 -0.3053 -0.3764 -0.2042
 1356ntf    cn111146   4.909   5.830   0.007 -0.2672 -0.1459 -0.0179
 1356ntf    sn211147   5.044   5.952   0.010 -0.1548 -0.2774  0.2985
 1356ntf    nn311148   4.968   6.082  -0.031 -0.0466 -0.1529  0.4851
 1356ntf    sn211149   4.953   6.147  -0.174  0.0648 -0.2771  0.4172
 1356ntf    cn111150   5.095   6.261  -0.170 -0.0353 -0.1254 -0.3373
 1356ntf    fn411151   4.852   5.838  -0.111 -0.3579  0.3103  0.0530
 1356ntf    fn411152   4.947   5.704   0.022 -0.5120 -0.3189 -0.8169
 1356ntf    fn411153   4.818   5.843   0.102  0.2118  0.3016  0.3935
 1356ntf    on511154   5.077   5.951   0.151  1.0142  0.1509  0.0459
 1356ntf    on511155   5.139   5.897  -0.084 -0.3200 -0.3637  0.1818
 1356ntf    on511156   4.968   6.066  -0.292 -0.3620  0.1020  0.0966
 1356ntf    on511157   4.850   6.248  -0.185  0.4541  0.0894  0.1213
 1356ntf    fn411158   5.101   6.341  -0.065 -0.2477 -0.2285 -0.2461
 1356ntf    fn411159   5.112   6.334  -0.279 -0.3878  0.6553  0.1218
 1356ntf    fn411160   5.208   6.196  -0.151  0.1010 -0.0150 -0.7567
 1357ntf    cn111161   5.053   6.527   5.448 -0.0651  0.3161  0.0565
 1357ntf    sn211162   5.058   6.479   5.273  0.0347  0.0288  0.1374
 1357ntf    nn311163   4.907   6.454   5.237  0.0980  0.1584 -0.2253
 1357ntf    sn211164   4.805   6.566   5.197 -0.0428  0.1590  0.1319
 1357ntf    cn111165   4.850   6.582   5.022 -0.1088 -0.1082  0.0910
 1357ntf    fn411166   5.004   6.429   5.523 -0.0815  0.5388  0.3393
 1357ntf    fn411167   5.173   6.555   5.497 -0.0172  0.4208 -0.1188
 1357ntf    fn411168   4.968   6.627   5.469  0.4375  0.6666  0.4433
 1357ntf    on511169   5.115   6.592   5.204  0.1228  0.0738  0.2827
 1357ntf    on511170   5.128   6.353   5.275 -0.6405 -0.3523  0.0487
 1357ntf    on511171   4.668   6.522   5.194 -0.1194  0.4148 -0.1969
 1357ntf    on511172   4.827   6.702   5.241 -0.0922  0.1307  0.2450
 1357ntf    fn411173   4.976   6.608   4.991 -0.2077  0.3335  0.0573
 1357ntf    fn411174   4.780   6.684   4.976 -0.1703 -0.1858  0.0114
 1357ntf    fn411175   4.820   6.478   4.945 -0.0417 -0.3279  0.3578
 1358ntf    cn111176   2.604   5.729   3.911  0.1238  0.0236  0.0190
 1358ntf    sn211177   2.450   5.641   3.872  0.0675 -0.0093  0.3189
 1358ntf    nn311178   2.432   5.535   3.987  0.0586 -0.1907  0.1512
 1358ntf    sn211179   2.340   5.533   4.114 -0.1731  0.3070 -0.0053
 1358ntf    cn111180   2.185   5.476   4.037 -0.0467 -0.2605  0.1524
 1358ntf    fn411181   2.708   5.648   3.900 -0.1594 -0.2271 -0.9323
 1358ntf    fn411182   2.626   5.834   3.832 -0.2540  0.0850 -0.0078
 1358ntf    fn411183   2.612   5.769   4.037  0.1637 -0.6473  0.2316
 1358ntf    on511184   2.343   5.738   3.869  0.2929  0.2265 -0.0603
 1358ntf    on511185   2.485   5.583   3.745  0.5533 -0.2494  0.5606
 1358ntf    on511186   2.375   5.426   4.204 -0.2207 -0.2504 -0.6351
 1358ntf    on511187   2.309   5.658   4.179 -0.2107 -0.0125  0.5995
 1358ntf    fn411188   2.187   5.345   4.027 -0.1173 -0.2696  0.2510
 1358ntf    fn411189   2.158   5.526   3.917  0.0672 -0.3478  0.0917
 1358ntf    fn411190   2.079   5.500   4.114 -0.0191 -0.0712  0.1334
 1359ntf    cn111191   3.827   0.049   0.639  0.3795  0.3588 -0.2752
 1359ntf    sn211192   3.861  -0.040   0.484  0.1366  0.0122 -0.1321
 1359ntf    nn311193   3.851   0.087   0.391 -0.2227  0.2472  0.2236
 1359ntf    sn211194   3.910   0.096   0.246 -0.1431  0.4042  0.2656
 1359ntf    cn111195   4.078   0.156   0.282  0.1429 -0.2486  0.0301
 1359ntf    fn411196   3.868  -0.021   0.744 -0.0271 -0.1271 -0.4332
 1359ntf    fn411197   3.867   0.175   0.645  0.1631  0.4192 -0.0869
 1359ntf    fn411198   3.697   0.062   0.663  0.3565 -0.0618 -0.1664
 1359ntf    on511199   3.994  -0.092   0.500 -0.0981 -0.4531  0.3180
 1359ntf    on511200   3.753  -0.135   0.473  0.0812  0.0395  0.1684
 1359ntf    on511201   3.929  -0.028   0.176 -0.4338  0.5917 -0.1460
 1359ntf    on511202   3.850   0.200   0.167  0.1472  0.2951 -0.1014
 1359ntf    fn411203   4.082   0.265   0.356 -0.5112 -0.5513  0.5229
 1359ntf    fn411204   4.148   0.189   0.175  0.0812  0.4497  0.2027
 1359ntf    fn411205   4.154   0.065   0.343  0.1793 -0.3415 -0.1543
 1360ntf    cn111206   6.515   2.163   3.748 -0.2282  0.5336  0.3058
 1360ntf    sn211207   6.530   2.259   3.594 -0.4601 -0.0397 -0.0772
 1360ntf    nn311208   6.682   2.297   3.594 -0.6654  0.7917 -0.0206
 1360ntf    sn211209   6.764   2.361   3.476  0.1513  0.3201  0.2821
 1360ntf    cn111210   6.880   2.468   3.565  0.3120  0.4472 -0.0806
 1360ntf    fn411211   6.580   2.048   3.736 -0.5859  0.3896 -0.3132
 1360ntf    fn411212   6.577   2.230   3.843  0.3280  0.0316  0.3060
 1360ntf    fn411213   6.390   2.136   3.781 -0.2579  0.5064  0.1729
 1360ntf    on511214   6.491   2.161   3.495 -0.2093 -0.5148  0.2919
 1360ntf    on511215   6.441   2.372   3.608 -0.4483  0.0400 -0.6253
 1360ntf    on511216   6.851   2.268   3.408 -0.0890  0.2294  0.0942
 1360ntf    on511217   6.685   2.451   3.394 -0.1150  0.0797  0.2709
 1360ntf    fn411218   6.982   2.500   3.487  0.1136 -0.1812 -0.6073
 1360ntf    fn411219   6.926   2.416   3.677  0.1108 -0.2740 -0.3263
 1360ntf    fn411220   6.821   2.581   3.599 -0.3134  0.1864 -0.2834
 1361ntf    cn111221   2.478   4.669   4.016 -0.1823  0.2229  0.1585
 1361ntf    sn211222   2.331   4.582   4.077 -0.2403  0.0876 -0.1736
 1361ntf    nn311223   2.264   4.559   3.936 -0.0021 -0.0320 -0.2670
 1361ntf    sn211224   2.110   4.548   3.909 -0.1070 -0.0004  0.3085
 1361ntf    cn111225   2.085   4.672   3.779 -0.2337 -0.0676  0.2682
 1361ntf    fn411226   2.436   4.769   3.940  0.0389  0.3292  0.1744
 1361ntf    fn411227   2.549   4.729   4.110 -0.1107  0.5215 -0.0840
 1361ntf    fn411228   2.566   4.599   3.946 -0.2728  0.0501  0.2176
 1361ntf    on511229   2.377   4.458   4.133 -0.1334  0.2905  0.1893
 1361ntf    on511230   2.276   4.681   4.167 -0.5530 -0.5070  0.2955
 1361ntf    on511231   2.070   4.426   3.844 -0.4769  0.2609  0.0469
 1361ntf    on511232   2.027   4.597   4.017  0.0173  0.2937  0.2715
 1361ntf    fn411233   2.145   4.630   3.669 -0.3224  0.2976  0.0780
 1361ntf    fn411234   2.138   4.788   3.817  0.6093 -0.3724  0.0383
 1361ntf    fn411235   1.958   4.697   3.753 -0.1855  0.2500  0.3321
 1362ntf    cn111236   3.987   3.349   1.906 -0.1190  0.5187  0.3203
 1362ntf    sn211237   4.138   3.416   1.831 -0.1744  0.1443 -0.1235
 1362ntf    nn311238   4.236   3.365   1.943  0.5303  0.3984 -0.6180
 1362ntf    sn211239   4.306   3.441   2.061  0.0796 -0.2149  0.0506
 1362ntf    cn111240   4.331   3.299   2.172 -0.2458 -0.3562 -0.0557
 1362ntf    fn411241   3.885   3.432   1.890  0.0536  0.7859  0.5860
 1362ntf    fn411242   3.952   3.228   1.865  0.1179  0.7121 -0.4637
 1362ntf    fn411243   4.000   3.332   2.037  0.5661  0.1691  0.2084
 1362ntf    on511244   4.151   3.346   1.705  0.1629 -0.4153  0.2151
 1362ntf    on511245   4.121   3.559   1.836 -0.5804  0.0899  0.0507
 1362ntf    on511246   4.438   3.489   2.026 -0.2312  0.5221 -0.1369
 1362ntf    on511247   4.222   3.534   2.132 -0.0080 -0.5263  0.3583
 1362ntf    fn411248   4.417   3.215   2.118  0.2261  0.0035  0.1293
 1362ntf    fn411249   4.220   3.236   2.204 -0.4917  0.1151  0.0353
 1362ntf    fn411250   4.381   3.340   2.287 -0.1499 -0.0036 -0.2187
 1363ntf    cn111251   5.229   0.873   3.861 -0.6550  0.3206  0.1210
 1363ntf    sn211252   5.184   0.709   3.797 -0.0135  0.1282  0.1518
 1363ntf    nn311253   5.073   0.677   3.904 -0.1241  0.0148  0.0044
 1363ntf    sn211254   4.919   0.654   3.888 -0.0995 -0.1311 -0.0256
 1363ntf    cn111255   4.930   0.481   3.942  0.4871 -0.0898 -0.0042
 1363ntf    fn411256   5.313   0.861   3.963 -0.6743 -0.3784  0.0569
 1363ntf    fn411257   5.290   0.944   3.768 -0.1707 -0.5191 -0.2154
 1363ntf    fn411258   5.128   0.950   3.897 -0.6231  0.4177 -0.0000
 1363ntf    on511259   5.150   0.739   3.661 -0.3473  0.0195  0.2079
 1363ntf    on511260   5.299   0.626   3.824 -0.1450  0.0102  0.3529
 1363ntf    on511261   4.839   0.722   3.987  0.7020  0.5704  0.1585
 1363ntf    on511262   4.866   0.643   3.754  0.1846 -0.0685 -0.1449
 1363ntf    fn411263   5.027   0.416   3.880  0.2152 -0.3279 -0.1864
 1363ntf    fn411264   4.819   0.414   3.914  0.3531  0.1792 -0.1259
 1363ntf    fn411265   4.939   0.464   4.072  0.3071  0.3079  0.0635
 1364ntf    cn111266   3.114   3.354   3.384 -0.4318  0.1818 -0.0225
 1364ntf    sn211267   3.016   3.316   3.532 -0.0639 -0.1179  0.1464
 1364ntf    nn311268   3.042   3.162   3.534  0.6577 -0.0007 -0.1326
 1364ntf    sn211269   2.990   3.046   3.441  0.2048  0.1443 -0.0613
 1364ntf    cn111270   2.904   2.929   3.550  0.1512 -0.2802 -0.5578
 1364ntf    fn411271   3.137   3.483   3.363 -0.2761  0.1731  0.0942
 1364ntf    fn411272   3.236   3.304   3.389 -0.3271  0.4582  0.2488
 1364ntf    fn411273   3.070   3.296   3.274 -0.6387  0.1740  0.0645
 1364ntf    on511274   3.084   3.378   3.643 -0.8440  0.0152  0.5595
 1364ntf    on511275   2.882   3.361   3.503  0.0036 -0.3731 -0.5691
 1364ntf    on511276   2.894   3.091   3.344  0.0376  0.0829  0.0760
 1364ntf    on511277   3.104   2.970   3.395  0.2754  0.1409  0.1172
 1364ntf    fn411278   2.973   2.890   3.656 -0.2821 -0.2633 -0.2663
 1364ntf    fn411279   2.860   2.823   3.484 -0.5500 -0.2700 -0.1189
 1364ntf    fn411280   2.798   2.986   3.605  0.1375 -0.4370 -0.4218
 1365ntf    cn111281   4.657   3.963   0.792  0.0240  0.0525 -0.2007
 1365ntf    sn211282   4.764   4.064   0.686 -0.0426  0.1756 -0.1514
 1365ntf    nn311283   4.889   3.969   0.672  0.0347  0.2883 -0.2337
 1365ntf    sn211284   5.029   4.002   0.610  0.3504 -0.3862  0.1107
 1365ntf    cn111285   5.128   4.051   0.754  0.2388  0.0350  0.0440
 1365ntf    fn411286   4.534   4.014   0.797  0.0762  0.1521  0.0999
 1365ntf    fn411287   4.646   3.842   0.740  0.0946 -0.0721  0.0692
 1365ntf    fn411288   4.701   3.956   0.917  0.2047  0.1306 -0.2599
 1365ntf    on511289   4.683   4.079   0.568 -0.2804 -0.7331 -0.1165
 1365ntf    on511290   4.783   4.179   0.770  0.5540  0.0655 -0.1310
 1365ntf    on511291   5.103   3.888   0.562  0.3317 -0.2835 -0.1693
 1365ntf    on511292   5.037   4.124   0.533  0.2088 -0.4223  0.0385
 1365ntf    fn411293   5.147   3.949   0.836  0.3716  0.0085 -0.0211
 1365ntf    fn411294   5.070   4.139   0.835 -0.3147 -0.3899  0.1179
 1365ntf    fn411295   5.246   4.102   0.724  0.0243  0.4279 -0.1453
 1366ntf    cn111296   3.720   2.301   6.066  0.3183  0.0817  0.0351
 1366ntf    sn211297   3.739   2.444   6.176  0.5874 -0.0130  0.1134
 1366ntf    nn311298   3.717   2.375   6.315  0.6488  0.6006  0.4346
 1366ntf    sn211299   3.623   2.424   6.431  0.1124  0.0164  0.2527
 1366ntf    cn111300   3.684   2.593   6.455  0.0208  0.0552  0.2129
 1366ntf    fn411301   3.750   2.327   5.940  0.9297 -0.2099  0.1137
 1366ntf    fn411302   3.800   2.203   6.106  0.1486 -0.0292  0.1015
 1366ntf    fn411303   3.595   2.259   6.066  0.3160  0.0893 -0.2553
 1366ntf    on511304   3.871   2.498   6.155  0.4337  0.3338  0.0258
 1366ntf    on511305   3.628   2.526   6.132  0.2969 -0.2764  0.3576
 1366ntf    on511306   3.481   2.431   6.408  0.0783 -0.4010  0.3192
 1366ntf    on511307   3.670   2.361   6.551 -0.2685 -0.4902  0.1369
 1366ntf    fn411308   3.816   2.599   6.455  0.0128  0.2805  0.3026
 1366ntf    fn411309   3.646   2.651   6.568  0.0170  0.3664  0.0552
 1366ntf    fn411310   3.644   2.680   6.363  0.0634  0.1830  0.3139
 1367ntf    cn111311   1.234   4.716   4.469 -0.1960  0.0395  0.1725
 1367ntf    sn211312   1.218   4.535   4.458  0.1295  0.0135  0.1183
 1367ntf    nn311313   1.272   4.514   4.312 -0.2542 -0.1111 -0.0050
 1367ntf    sn211314   1.350   4.387   4.263 -0.0860 -0.0605  0.1308
 1367ntf    cn111315   1.521   4.448   4.280  0.1868 -0.7013 -0.2642
 1367ntf    fn411316   1.164   4.784   4.379 -0.3153 -0.1298  0.1359
 1367ntf    fn411317   1.192   4.758   4.587 -0.1683 -0.0018  0.1976
 1367ntf    fn411318   1.361   4.753   4.458 -0.2926  0.1819 -0.5102
 1367ntf    on511319   1.303   4.476   4.559 -0.4085 -1.0388 -0.0374
 1367ntf    on511320   1.077   4.509   4.474  0.0564  0.1809 -0.2556
 1367ntf    on511321   1.350   4.279   4.358  0.4596 -0.4284 -0.2775
 1367ntf    on511322   1.333   4.361   4.122  0.4414  0.2483  0.0050
 1367ntf    fn411323   1.523   4.579   4.262 -0.3436 -0.6364  0.1252
 1367ntf    fn411324   1.599   4.393   4.189  0.2893 -0.2671 -0.4433
 1367ntf    fn411325   1.574   4.433   4.400  0.7287  0.0625 -0.4036
 1368ntf    cn111326   6.449   0.328   1.017  0.1392 -0.0489  0.1727
 1368ntf    sn211327   6.288   0.290   1.091  0.1054 -0.4393 -0.0963
 1368ntf    nn311328   6.190   0.334   0.976  0.3370  0.0042 -0.1244
 1368ntf    sn211329   6.158   0.258   0.843 -0.0372  0.0494 -0.0616
 1368ntf    cn111330   5.992   0.199   0.886  0.0069 -0.1086 -0.1037
 1368ntf    fn411331   6.554   0.303   1.094  0.1298 -0.3543  0.0870
 1368ntf    fn411332   6.464   0.273   0.897  0.0690 -0.0564  0.1674
 1368ntf    fn411333   6.459   0.458   0.997  0.4400 -0.0734  0.1567
 1368ntf    on511334   6.304   0.147   1.102 -0.3988 -0.4786  0.1611
 1368ntf    on511335   6.288   0.375   1.208  0.2382  0.0288 -0.4331
 1368ntf    on511336   6.146   0.341   0.726 -0.0092  0.1929  0.0377
 1368ntf    on511337   6.224   0.131   0.821  0.3260  0.2558 -0.1720
 1368ntf    fn411338   5.992   0.118   0.990 -0.7572 -0.2895 -0.2349
 1368ntf    fn411339   5.943   0.124   0.789  0.0995 -0.1165 -0.1445
 1368ntf    fn411340   5.909   0.298   0.916 -0.1374 -0.3195  0.1908
 1369ntf    cn111341   1.603   0.114   2.878  0.0035  0.6148 -0.1692
 1369ntf    sn211342   1.732   0.135   3.003 -0.1694 -0.3071  0.1753
 1369ntf    nn311343   1.852   0.146   2.902  0.1687  0.5654  0.6552
 1369ntf    sn211344   1.997   0.087   2.906 -0.0059  0.0713 -0.0392
 1369ntf    cn111345   2.091   0.243   2.904  0.2022 -0.0436  0.5487
 1369ntf    fn411346   1.616  -0.001   2.814 -0.0689  0.0994  0.7300
 1369ntf    fn411347   1.483   0.111   2.933  0.0237 -0.7291 -0.1541
 1369ntf    fn411348   1.609   0.205   2.782  0.7751  0.0499 -0.6681
 1369ntf    on511349   1.698   0.260   3.066  0.3580  0.2353 -0.5964
 1369ntf    on511350   1.712   0.012   3.076  0.3120 -0.3185  0.2921
 1369ntf    on511351   2.034   0.036   3.036  0.6582  0.5816 -0.0242
 1369ntf    on511352   2.044   0.015   2.791 -0.5253  0.5844 -0.5807
 1369ntf    fn411353   2.050   0.324   3.001  0.3242  0.8468 -0.1287
 1369ntf    fn411354   2.072   0.307   2.790  0.3243 -1.3598 -0.2287
 1369ntf    fn411355   2.221   0.228   2.920  0.2822 -0.2364 -0.2366
 1370ntf    cn111356   3.369   4.635   3.955 -0.5362 -0.1855  0.1773
 1370ntf    sn211357   3.429   4.465   3.933  0.1828  0.0970 -0.0963
 1370ntf    nn311358   3.582   4.492   3.917  0.2542 -0.2890 -0.0731
 1370ntf    sn211359   3.666   4.503   3.784 -0.2630 -0.1265 -0.3865
 1370ntf    cn111360   3.816   4.413   3.834 -0.1214  0.2266 -0.1751
 1370ntf    fn411361   3.253   4.644   4.017 -0.7258  0.1526 -0.2205
 1370ntf    fn411362   3.452   4.698   4.036 -0.5734  0.0127  0.0610
 1370ntf    fn411363   3.364   4.708   3.844  0.0385 -0.1744  0.1528
 1370ntf    on511364   3.404   4.398   4.058  0.4550  0.5618  0.2076
 1370ntf    on511365   3.362   4.413   3.815 -0.6727 -0.0799  0.4552
 1370ntf    on511366   3.620   4.411   3.683 -0.0607 -0.3824 -0.2466
 1370ntf    on511367   3.713   4.635   3.751 -0.3735  0.0809  0.2627
 1370ntf    fn411368   3.802   4.290   3.880  0.5286  0.1699 -0.1186
 1370ntf    fn411369   3.887   4.480   3.923 -0.0806 -0.4827  0.3261
 1370ntf    fn411370   3.892   4.401   3.726  0.2869  0.3912  0.0932
 1371ntf    cn111371   4.243   6.543   4.479 -0.0769  0.1024 -0.1045
 1371ntf    sn211372   4.137   6.560   4.626 -0.3660  0.0936 -0.3108
 1371ntf    nn311373   4.133   6.419   4.695 -0.0385  0.0679 -0.3395
 1371ntf    sn211374   4.037   6.296   4.671  0.1525 -0.1309 -0.0888
 1371ntf    cn111375   3.939   6.311   4.824 -0.0097  0.4462 -0.2464
 1371ntf    fn411376   4.256   6.663   4.424  0.8456  0.2405  0.3865
 1371ntf    fn411377   4.366   6.500   4.502  0.0938  0.5140 -0.2333
 1371ntf    fn411378   4.197   6.458   4.389 -0.1351 -0.3762  0.3679
 1371ntf    on511379   4.216   6.648   4.709  0.4532 -0.7862 -0.1343
 1371ntf    on511380   4.015   6.612   4.571 -0.3261  0.0665 -0.4262
 1371ntf    on511381   3.941   6.308   4.565 -0.3014 -0.0338  0.3286
 1371ntf    on511382   4.108   6.171   4.680  0.0733 -0.1955 -0.3777
 1371ntf    fn411383   4.013   6.285   4.931  0.1832  0.4592 -0.3744
 1371ntf    fn411384   3.838   6.227   4.816 -0.0074  0.4562 -0.3891
 1371ntf    fn411385   3.881   6.428   4.847 -0.3252  0.1886  0.2764
 1372ntf    cn111386   6.229   1.674   1.045 -0.1193  0.1428  0.1318
 1372ntf    sn211387   6.275   1.517   1.124 -0.0787  0.0438 -0.0873
 1372ntf    nn311388   6.389   1.576   1.215  0.1728 -0.1880 -0.2517
 1372ntf    sn211389   6.358   1.630   1.359  0.0644  0.1118 -0.3865
 1372ntf    cn111390   6.390   1.476   1.449  0.3509  0.4476  0.0925
 1372ntf    fn411391   6.142   1.664   0.946 -0.4690  0.3957  0.4133
 1372ntf    fn411392   6.164   1.756   1.127  0.3028  0.0268  0.5878
 1372ntf    fn411393   6.334   1.741   1.000 -0.0949 -0.0860 -0.1547
 1372ntf    on511394   6.159   1.464   1.191  0.0697 -0.2077 -0.0267
 1372ntf    on511395   6.336   1.443   1.017  0.1812  0.2922 -0.1134
 1372ntf    on511396   6.456   1.726   1.402  0.2626 -0.3452  0.1873
 1372ntf    on511397   6.220   1.661   1.387  0.1149  0.0161 -0.0367
 1372ntf    fn411398   6.323   1.478   1.564 -0.0636 -0.4647 -0.1197
 1372ntf    fn411399   6.519   1.460   1.473  0.2804 -0.1315  0.1092
 1372ntf    fn411400   6.342   1.372   1.381 -0.4505  0.7512  0.1835
 1373ntf    cn111401   4.486   1.884   2.781 -0.0797  0.2537  0.3121
 1373ntf    sn211402   4.445   1.917   2.607  0.0651 -0.1692  0.1968
 1373ntf    nn311403   4.567   2.003   2.559 -0.0259 -0.1274  0.0403
 1373ntf    sn211404   4.593   2.113   2.449 -0.4289 -0.1636 -0.0924
 1373ntf    cn111405   4.584   2.267   2.545  0.9708 -0.0545 -0.1256
 1373ntf    fn411406   4.596   1.811   2.780 -0.4761 -0.3508 -0.2176
 1373ntf    fn411407   4.512   1.993   2.851  0.4609  0.3782 -0.0785
 1373ntf    fn411408   4.392   1.817   2.846 -0.4552  0.1241 -0.3462
 1373ntf    on511409   4.433   1.784   2.554 -0.5373  0.1723 -0.5453
 1373ntf    on511410   4.322   1.992   2.615  0.5232  0.7423 -0.9039
 1373ntf    on511411   4.730   2.108   2.404 -0.3684  0.5745 -0.0029
 1373ntf    on511412   4.492   2.133   2.348  0.2552 -0.1714 -0.7832
 1373ntf    fn411413   4.577   2.367   2.460 -0.0246 -0.1461 -0.1553
 1373ntf    fn411414   4.691   2.286   2.621  0.9647  0.0358 -0.1392
 1373ntf    fn411415   4.482   2.267   2.629  0.8933  0.5181 -0.2206
 1374ntf    cn111416   1.318   0.124   6.137 -0.1048 -0.0205 -0.0704
 1374ntf    sn211417   1.326  -0.043   6.208 -0.3795 -0.0622 -0.1373
 1374ntf    nn311418   1.310  -0.142   6.087  0.2781 -0.7521  0.3297
 1374ntf    sn211419   1.180  -0.198   6.018  0.0254  0.1608  0.0506
 1374ntf    cn111420   1.191  -0.361   6.098 -0.2037  0.3117  0.3887
 1374ntf    fn411421   1.224   0.132   6.045 -0.3537  0.1879  0.1974
 1374ntf    fn411422   1.296   0.220   6.225  0.1266 -0.0943  0.0680
 1374ntf    fn411423   1.425   0.146   6.063 -0.2217  0.3805 -0.1219
 1374ntf    on511424   1.460  -0.053   6.260 -0.2202  0.0347 -0.5281
 1374ntf    on511425   1.215  -0.052   6.300  0.3620  0.5579  0.8351
 1374ntf    on511426   1.050  -0.150   6.059  0.2048  0.4959  0.2365
 1374ntf    on511427   1.206  -0.237   5.882 -0.1005  0.5209 -0.0774
 1374ntf    fn411428   1.203  -0.345   6.229  0.4568  0.1334  0.3495
 1374ntf    fn411429   1.298  -0.427   6.058 -0.2033  0.3060  0.3990
 1374ntf    fn411430   1.088  -0.440   6.074  0.1154 -0.1918  0.6714
 1375ntf    cn111431   2.182   0.453   1.328 -0.2260 -0.4060  0.1827
 1375ntf    sn211432   2.355   0.400   1.341 -0.0552  0.0306 -0.2832
 1375ntf    nn311433   2.419   0.468   1.215 -0.0047 -0.3606 -0.4711
 1375ntf    sn211434   2.504   0.600   1.211 -0.0110 -0.3392  0.0512
 1375ntf    cn111435   2.493   0.634   1.033  0.3857  0.5867  0.2019
 1375ntf    fn411436   2.159   0.580   1.357 -0.1658 -0.4106  0.2500
 1375ntf    fn411437   2.121   0.434   1.211 -0.0078 -0.0476  0.0095
 1375ntf    fn411438   2.107   0.383   1.412 -0.1222  0.0635  0.6682
 1375ntf    on511439   2.391   0.457   1.468 -0.0850 -0.2096 -0.1662
 1375ntf    on511440   2.352   0.256   1.332  0.1956 -0.0006  0.1183
 1375ntf    on511441   2.450   0.721   1.267 -0.5035 -0.5939  0.1324
 1375ntf    on511442   2.644   0.570   1.234 -0.1129 -0.4927  0.4724
 1375ntf    fn411443   2.514   0.528   0.957 -0.3640  0.3250  0.3600
 1375ntf    fn411444   2.571   0.732   0.990  0.5278  0.3506 -0.0826
 1375ntf    fn411445   2.374   0.685   1.005  0.0633 -0.3794 -0.2054
 1376ntf    cn111446   6.275   0.683   0.105  0.0915 -0.0585  0.0854
 1376ntf    sn211447   6.453   0.676   0.142  0.1370  0.0286 -0.1153
 1376ntf    nn311448   6.452   0.537   0.216 -0.2459  0.0470 -0.0829
 1376ntf    sn211449   6.507   0.396   0.176 -0.3070 -0.0456  0.1575
 1376ntf    cn111450   6.639   0.372   0.298 -0.1602 -0.1919 -0.0285
 1376ntf    fn411451   6.223   0.788   0.043  0.1296  0.0789  0.2862
 1376ntf    fn411452   6.240   0.582   0.027 -0.0168 -0.2102  0.3280
 1376ntf    fn411453   6.206   0.654   0.214 -0.4244 -0.3196 -0.3050
 1376ntf    on511454   6.517   0.668   0.013  0.2586 -0.1858 -0.0419
 1376ntf    on511455   6.479   0.797   0.216 -0.0424 -0.0132  0.0174
 1376ntf    on511456   6.413   0.292   0.208 -0.3323 -0.2935 -0.6817
 1376ntf    on511457   6.576   0.371   0.051  0.6059 -0.0899  0.6647
 1376ntf    fn411458   6.596   0.379   0.423 -0.5011  0.1893 -0.1663
 1376ntf    fn411459   6.732   0.465   0.285 -0.2230 -0.1704 -0.3343
 1376ntf    fn411460   6.702   0.256   0.285  0.0934 -0.0495 -0.0908
 1377ntf    cn111461   3.993   2.427   3.320 -0.0826 -0.2324  0.4638
 1377ntf    sn211462   4.007   2.248   3.346  0.3888 -0.2058  0.4014
 1377ntf    nn311463   4.161   2.237   3.377  0.4503  0.1648  0.2349
 1377ntf    sn211464   4.274   2.195   3.276  0.0582 -0.0120 -0.1365
 1377ntf    cn111465   4.276   2.013   3.269  0.3463 -0.0012 -0.3309
 1377ntf    fn411466   4.084   2.479   3.239 -0.2139  0.0510  0.4994
 1377ntf    fn411467   3.881   2.471   3.265  0.3095 -0.0866 -0.2326
 1377ntf    fn411468   4.007   2.495   3.433 -0.2589 -0.0146  0.3557
 1377ntf    on511469   3.923   2.218   3.459 -0.2824  0.4751  0.0874
 1377ntf    on511470   3.956   2.186   3.226  0.0831  0.0418  0.4054
 1377ntf    on511471   4.240   2.227   3.140  0.1399  0.6081 -0.0157
 1377ntf    on511472   4.407   2.233   3.316 -0.0277  0.0038  0.1414
 1377ntf    fn411473   4.186   1.958   3.189  0.1879  0.5745 -0.5536
 1377ntf    fn411474   4.257   1.957   3.387 -0.1452 -0.0684 -0.4412
 1377ntf    fn411475   4.393   1.969   3.226  0.1919 -0.2355 -0.5131
 1378ntf    cn111476   2.473   6.388   4.108  0.1945 -0.4195 -0.4996
 1378ntf    sn211477   2.404   6.332   4.266  0.1773  0.4984 -0.1770
 1378ntf    nn311478   2.271   6.415   4.265 -0.1279  0.0139 -0.7433
 1378ntf    sn211479   2.188   6.464   4.389  0.1429 -0.1721 -0.4901
 1378ntf    cn111480   2.220   6.643   4.387 -0.4839 -0.0500  0.1060
 1378ntf    fn411481   2.377   6.420   4.023  0.0850  0.0844 -0.1886
 1378ntf    fn411482   2.541   6.500   4.127 -0.4852  0.0838 -0.9866
 1378ntf    fn411483   2.558   6.300   4.057  0.2681 -0.8327  0.3348
 1378ntf    on511484   2.382   6.192   4.240 -0.3571  0.3831  0.8443
 1378ntf    on511485   2.504   6.366   4.364  0.0912 -0.0460  0.1010
 1378ntf    on511486   2.046   6.468   4.367  0.0529  0.7686  0.1937
 1378ntf    on511487   2.237   6.414   4.515 -0.0518  0.1146 -0.2993
 1378ntf    fn411488   2.149   6.701   4.483 -0.6036  0.1470 -0.1012
 1378ntf    fn411489   2.181   6.702   4.275  0.3349 -0.1364 -0.2310
 1378ntf    fn411490   2.347   6.676   4.399 -0.3514 -0.5315  0.0465
 1379ntf    cn111491   0.326   4.378   5.528  0.1742  0.0699 -0.1066
 1379ntf    sn211492   0.157   4.431   5.569  0.2011 -0.0470  0.1580
 1379ntf    nn311493   0.179   4.481   5.716  0.0723  0.3196  0.0544
 1379ntf    sn211494   0.220   4.616   5.785 -0.1488  0.3488  0.1298
 1379ntf    cn111495   0.057   4.695   5.799 -0.0538  0.6569 -0.4635
 1379ntf    fn411496   0.405   4.483   5.513 -0.0079  0.2389  0.1132
 1379ntf    fn411497   0.382   4.309   5.625  0.0852  0.0955 -0.0368
 1379ntf    fn411498   0.320   4.305   5.418 -0.0275 -0.2661  0.1259
 1379ntf    on511499   0.128   4.539   5.477  0.3981  0.0260  0.1815
 1379ntf    on511500   0.081   4.308   5.566 -0.0674  0.1346 -0.9580
 1379ntf    on511501   0.255   4.595   5.923  0.2311  0.1988  0.0115
 1379ntf    on511502   0.301   4.701   5.702  0.7361 -0.7364 -0.1443
 1379ntf    fn411503  -0.022   4.673   5.695 -0.2496 -0.0290 -0.1786
 1379ntf    fn411504   0.063   4.826   5.816 -0.1148  0.5628  0.3670
 1379ntf    fn411505  -0.022   4.650   5.895 -0.2236  0.3765 -0.7332
 1380ntf    cn111506   1.357   5.280   5.558 -0.2445 -0.1892 -0.2214
 1380ntf    sn211507   1.337   5.450   5.620  0.1450 -0.2002 -0.0633
 1380ntf    nn311508   1.418   5.439   5.754  0.1125  0.4715  0.0137
 1380ntf    sn211509   1.566   5.484   5.784  0.3100 -0.1666  0.0094
 1380ntf    cn111510   1.534   5.649   5.855  0.3674  0.0145 -0.3831
 1380ntf    fn411511   1.484   5.244   5.551 -0.1184  0.0894  0.5143
 1380ntf    fn411512   1.294   5.190   5.632  0.1035 -0.3375 -0.0998
 1380ntf    fn411513   1.309   5.273   5.435 -0.3549  0.2911 -0.2065
 1380ntf    on511514   1.388   5.539   5.518  0.2289 -0.3140 -0.1200
 1380ntf    on511515   1.194   5.450   5.634  0.1455  0.2837 -0.0550
 1380ntf    on511516   1.621   5.414   5.897 -0.0195  0.1368  0.3601
 1380ntf    on511517   1.649   5.518   5.672 -0.1866  0.5320 -0.1517
 1380ntf    fn411518   1.508   5.631   5.983 -0.0052  0.2596 -0.4209
 1380ntf    fn411519   1.436   5.718   5.799  0.3543  0.1403 -0.2035
 1380ntf    fn411520   1.642   5.724   5.858  0.3322  0.0455  0.3750
 1381ntf    cn111521   4.843   2.752   4.033 -0.2906  0.1434  0.0017
 1381ntf    sn211522   4.814   2.669   3.874 -0.1394  0.0248  0.0363
 1381ntf    nn311523   4.720   2.554   3.924  0.0988 -0.3502 -0.3739
 1381ntf    sn211524   4.564   2.545   3.937  0.1047 -0.2494 -0.2309
 1381ntf    cn111525   4.557   2.478   4.106 -0.2317  0.1748 -0.0747
 1381ntf    fn411526   4.871   2.667   4.131 -0.3282  0.5652  0.3831
 1381ntf    fn411527   4.943   2.838   4.025 -0.4918  0.3295 -0.5488
 1381ntf    fn411528   4.739   2.825   4.073 -0.3156  0.5049 -0.7126
 1381ntf    on511529   4.750   2.765   3.788 -0.5151 -0.1690  0.1010
 1381ntf    on511530   4.940   2.618   3.824 -0.1508  0.3925 -0.3835
 1381ntf    on511531   4.498   2.672   3.953  0.0514 -0.2709 -0.2819
 1381ntf    on511532   4.499   2.439   3.865 -0.8118  0.2774 -0.1900
 1381ntf    fn411533   4.435   2.464   4.154  0.0996 -0.6127  0.5552
 1381ntf    fn411534   4.629   2.551   4.190 -0.2506 -0.0444  0.1323
 1381ntf    fn411535   4.613   2.360   4.126  0.8943  0.7419  0.2313
 1382ntf    cn111536   1.348   6.579   2.563  0.3711 -0.2617 -0.0585
 1382ntf    sn211537   1.268   6.721   2.482  0.1269 -0.3998 -0.0609
 1382ntf    nn311538   1.360   6.725   2.355  0.2176  0.1216  0.0190
 1382ntf    sn211539   1.431   6.849   2.290  0.3381 -0.0149 -0.1104
 1382ntf    cn111540   1.480   6.789   2.125 -0.2565 -0.0577 -0.2736
 1382ntf    fn411541   1.477   6.602   2.581  0.2158  0.3244  0.3202
 1382ntf    fn411542   1.294   6.551   2.680 -0.0237 -0.1291 -0.2082
 1382ntf    fn411543   1.342   6.471   2.486 -0.8166 -0.2671  0.0252
 1382ntf    on511544   1.137   6.670   2.453 -0.1201 -0.0413  0.4154
 1382ntf    on511545   1.282   6.832   2.573 -0.2931 -0.1386 -0.3179
 1382ntf    on511546   1.338   6.956   2.267 -0.4883 -0.6368  0.2858
 1382ntf    on511547   1.560   6.885   2.343  0.4927  0.1013 -0.5597
 1382ntf    fn411548   1.516   6.662   2.128 -0.5172 -0.1242  0.2221
 1382ntf    fn411549   1.587   6.847   2.074 -0.0733  0.0175  0.1866
 1382ntf    fn411550   1.379   6.795   2.040 -0.2788 -0.2227 -0.2598
 1383ntf    cn111551   4.565   4.307   5.213 -0.4982  0.2265  0.0800
 1383ntf    sn211552   4.738   4.273   5.167 -0.6466 -0.1772 -0.1794
 1383ntf    nn311553   4.779   4.185   5.291  0.0803  0.1549 -0.1828
 1383ntf    sn211554   4.912   4.178   5.374 -0.0829  0.2847  0.0907
 1383ntf    cn111555   4.884   4.319   5.485  0.1468  0.3239  0.0997
 1383ntf    fn411556   4.510   4.402   5.140 -0.5671  0.4466  0.4148
 1383ntf    fn411557   4.483   4.204   5.209 -0.3107  0.0565  0.5034
 1383ntf    fn411558   4.553   4.347   5.338  0.3958  0.6410  0.0457
 1383ntf    on511559   4.734   4.200   5.043 -0.0428 -0.0514 -0.2745
 1383ntf    on511560   4.801   4.402   5.165 -0.4984 -0.2495 -0.2164
 1383ntf    on511561   4.923   4.060   5.457  0.3451  0.1676 -0.1283
 1383ntf    on511562   5.037   4.206   5.309 -0.2221 -0.3356 -0.4554
 1383ntf    fn411563   4.863   4.430   5.417 -0.3268  0.4114  0.3807
 1383ntf    fn411564   4.985   4.340   5.568  0.2278  0.8552 -0.1317
 1383ntf    fn411565   4.773   4.308   5.557 -0.2354  0.4748 -0.4660
 1384ntf    cn111566   3.306   0.883   4.006  0.0122  0.1317  0.1118
 1384ntf    sn211567   3.235   1.039   4.068 -0.2363 -0.0261  0.2258
 1384ntf    nn311568   3.344   1.090   4.169  0.1940  0.3904 -0.4403
 1384ntf    sn211569   3.484   1.154   4.142  0.2331  0.4469 -0.1013
 1384ntf    cn111570   3.445   1.326   4.187  0.0241  0.3054  0.2645
 1384ntf    fn411571   3.397   0.908   3.913 -0.6106  0.3618 -0.4428
 1384ntf    fn411572   3.371   0.816   4.100  0.3139 -0.4295 -0.4884
 1384ntf    fn411573   3.213   0.801   3.959 -0.1126  0.4506 -0.2076
 1384ntf    on511574   3.223   1.127   3.955  0.6189  0.0342  0.1702
 1384ntf    on511575   3.119   0.988   4.137  0.2865 -0.3596  0.8732
 1384ntf    on511576   3.580   1.104   4.237 -0.1342  0.3633  0.2283
 1384ntf    on511577   3.525   1.174   4.005  0.4369 -0.0813 -0.1169
 1384ntf    fn411578   3.410   1.336   4.314  0.5544  0.6011  0.3917
 1384ntf    fn411579   3.341   1.384   4.129  0.0975  0.3597  0.1864
 1384ntf    fn411580   3.550   1.402   4.159  0.3864 -0.2372  0.1513
 1385ntf    cn111581   1.387   0.800   0.082  0.0073  0.2063  0.3790
 1385ntf    sn211582   1.492   0.855   0.220  0.1272  0.1305  0.3176
 1385ntf    nn311583   1.608   0.929   0.144  0.1014  0.1854  0.3319
 1385ntf    sn211584   1.764   0.911   0.147  0.0545 -0.2593  0.1662
 1385ntf    cn111585   1.812   1.041   0.265 -0.3340  0.0997 -0.0669
 1385ntf    fn411586   1.309   0.698   0.116 -0.1468  0.1293 -0.1943
 1385ntf    fn411587   1.311   0.895   0.031 -0.3230 -0.2510  0.0108
 1385ntf    fn411588   1.463   0.763  -0.020 -0.0167 -0.2807  0.5325
 1385ntf    on511589   1.409   0.928   0.312  0.0584  0.3035  0.1182
 1385ntf    on511590   1.537   0.727   0.269  0.4680  0.0276 -0.2496
 1385ntf    on511591   1.820   0.796   0.213  0.5067  0.2809  0.7423
 1385ntf    on511592   1.828   0.948   0.023 -0.1843  0.2977  0.2026
 1385ntf    fn411593   1.935   1.013   0.306 -0.2455  0.0336 -0.3714
 1385ntf    fn411594   1.731   1.058   0.367 -0.4069  0.9296 -0.2524
 1385ntf    fn411595   1.821   1.163   0.215  0.2133  0.2613  0.4118
 1386ntf    cn111596   1.709   4.966   2.260  0.0825  0.1213 -0.2083
 1386ntf    sn211597   1.698   5.131   2.186  0.2630  0.1111 -0.2559
 1386ntf    nn311598   1.785   5.214   2.288 -0.5810  0.4375  0.2065
 1386ntf    sn211599   1.940   5.223   2.304 -0.4882 -0.3122 -0.1911
 1386ntf    cn111600   1.969   5.379   2.215 -0.3458 -0.2563 -0.0475
 1386ntf    fn411601   1.611   4.885   2.221 -0.1749  0.3712 -0.0878
 1386ntf    fn411602   1.824   4.908   2.231  0.0181  0.0997 -0.4236
 1386ntf    fn411603   1.696   4.965   2.392  0.4593  0.3313 -0.1689
 1386ntf    on511604   1.746   5.124   2.050  0.2237 -0.0700 -0.2608
 1386ntf    on511605   1.557   5.160   2.198  0.3574  0.5351 -0.1403
 1386ntf    on511606   1.969   5.265   2.439  0.2804 -0.4618 -0.3031
 1386ntf    on511607   2.029   5.123   2.251  0.1278  0.2527 -0.2504
 1386ntf    fn411608   1.908   5.378   2.098 -0.1243  0.5760 -0.1786
 1386ntf    fn411609   2.097   5.401   2.190 -0.3451  0.1908  0.3326
 1386ntf    fn411610   1.921   5.480   2.286  0.1402  0.0091 -0.0911
 1387ntf    cn111611   4.858   5.036   4.620 -0.0294  0.1775 -0.2512
 1387ntf    sn211612   4.996   5.153   4.640 -0.3139  0.4764 -0.0464
 1387ntf    nn311613   4.954   5.273   4.548 -0.1734  0.4135 -0.1908
 1387ntf    sn211614   4.991   5.312   4.400 -0.2349  0.2144 -0.2581
 1387ntf    cn111615   4.844   5.411   4.358 -0.4526  0.1379  0.3066
 1387ntf    fn411616   4.886   4.918   4.673 -0.4768  0.1667 -0.0411
 1387ntf    fn411617   4.745   5.077   4.674  0.2074 -0.0961  0.4561
 1387ntf    fn411618   4.824   5.019   4.493 -0.3947 -0.2125 -0.1029
 1387ntf    on511619   4.983   5.194   4.778  0.1577  0.1071  0.1124
 1387ntf    on511620   5.117   5.087   4.600 -0.4998 -0.2060  0.4939
 1387ntf    on511621   5.098   5.406   4.381 -0.1053  0.1982  0.3675
 1387ntf    on511622   4.967   5.204   4.307  0.3031 -0.0564 -0.0853
 1387ntf    fn411623   4.829   5.449   4.232 -0.0709 -0.2026  0.1556
 1387ntf    fn411624   4.843   5.524   4.428  0.0196  0.3624 -0.0393
 1387ntf    fn411625   4.735   5.349   4.397 -0.1728 -0.5127  0.0604
 1388ntf    cn111626   2.408   5.600   2.808  0.0556 -0.2693  0.0782
 1388ntf    sn211627   2.516   5.672   2.935  0.1276 -0.1298 -0.0613
 1388ntf    nn311628   2.411   5.710   3.046  0.0523  0.0863 -0.2068
 1388ntf    sn211629   2.346   5.843   3.097 -0.3707 -0.1332 -0.1747
 1388ntf    cn111630   2.176   5.782   3.120 -0.2763 -0.1058  0.6256
 1388ntf    fn411631   2.333   5.509   2.867  0.3334 -0.2660  0.4411
 1388ntf    fn411632   2.326   5.684   2.745  0.2492 -0.1870 -0.0660
 1388ntf    fn411633   2.468   5.542   2.705  0.0993  0.1599 -0.1421
 1388ntf    on511634   2.594   5.554   2.964  0.5674  0.3535  0.7493
 1388ntf    on511635   2.583   5.784   2.874  0.1069 -0.4786 -0.7326
 1388ntf    on511636   2.385   5.867   3.233  0.2150  0.0449 -0.3728
 1388ntf    on511637   2.334   5.952   3.003 -0.3860  0.3391  0.3711
 1388ntf    fn411638   2.162   5.716   3.233  0.8567 -0.1755  0.7299
 1388ntf    fn411639   2.137   5.706   3.019  0.1894  0.4683  0.0004
 1388ntf    fn411640   2.079   5.872   3.132 -0.3403 -0.0861  0.0002
 1389ntf    cn111641   3.964   6.201   1.043 -0.1001 -0.0288  0.2490
 1389ntf    sn211642   4.021   6.067   0.934  0.0451  0.0600  0.2153
 1389ntf    nn311643   3.908   6.061   0.826 -0.1167  0.3228  0.3672
 1389ntf    sn211644   3.889   6.141   0.692 -0.0064 -0.0688  0.1160
 1389ntf    cn111645   3.939   6.017   0.569  0.2105  0.1575 -0.0248
 1389ntf    fn411646   3.842   6.180   1.090 -0.0842 -0.1494  0.2362
 1389ntf    fn411647   4.030   6.212   1.157 -0.5782 -0.1363  0.5422
 1389ntf    fn411648   3.962   6.318   0.982  0.1134 -0.2605 -0.2046
 1389ntf    on511649   4.145   6.117   0.881 -0.1768 -0.2429 -0.6033
 1389ntf    on511650   4.028   5.950   1.018  0.1314  0.3287  0.5855
 1389ntf    on511651   3.749   6.163   0.667  0.0933  0.3651 -0.0706
 1389ntf    on511652   3.975   6.255   0.676  0.6452 -0.5697  0.0080
 1389ntf    fn411653   4.069   5.999   0.581  0.1927  0.0819  0.0609
 1389ntf    fn411654   3.912   6.064   0.448 -0.1319  0.0792  0.0181
 1389ntf    fn411655   3.871   5.903   0.577 -0.4630  0.5530 -0.0492
 1390ntf    cn111656   6.278   3.145   5.045  0.1854 -0.2015 -0.0496
 1390ntf    sn211657   6.275   2.978   5.116 -0.2015 -0.0434  0.3116
 1390ntf    nn311658   6.145   2.919   5.049  0.2191 -1.0231  0.3436
 1390ntf    sn211659   6.001   2.892   5.104 -0.0114 -0.1206  0.1989
 1390ntf    cn111660   5.920   2.875   4.942 -0.0429  0.4408  0.1527
 1390ntf    fn411661   6.235   3.140   4.920 -0.0726  0.4909  0.0027
 1390ntf    fn411662   6.199   3.227   5.113  0.2464 -0.0558 -0.1514
 1390ntf    fn411663   6.392   3.213   5.047  0.2101 -0.2351 -0.2542
 1390ntf    on511664   6.395   2.922   5.059 -0.3687  0.0738 -0.1663
 1390ntf    on511665   6.264   3.004   5.257 -0.2393 -0.2732  0.3517
 1390ntf    on511666   5.976   2.766   5.170 -0.5112  0.2471  0.7318
 1390ntf    on511667   5.935   3.010   5.155 -0.0847 -0.0873  0.0255
 1390ntf    fn411668   5.971   2.777   4.869  0.2064  0.5235  0.2156
 1390ntf    fn411669   5.935   2.984   4.869  0.6145 -0.3059 -0.8566
 1390ntf    fn411670   5.791   2.856   4.960 -0.1063  0.1553 -0.5550
 1391ntf    cn111671   1.021   4.782   1.288 -0.1280 -0.0941  0.3791
 1391ntf    sn211672   0.971   4.855   1.130 -0.0167 -0.1196  0.3319
 1391ntf    nn311673   0.815   4.860   1.148 -0.0508  0.2905 -0.0388
 1391ntf    sn211674   0.716   4.889   1.030 -0.0836 -0.1354 -0.1203
 1391ntf    cn111675   0.639   4.730   0.988  0.1495 -0.1702 -0.4200
 1391ntf    fn411676   0.982   4.848   1.396  0.3537  0.3704  0.2737
 1391ntf    fn411677   0.963   4.663   1.301 -0.1640 -0.1136  0.0432
 1391ntf    fn411678   1.150   4.760   1.304 -0.1003  0.0035  0.2880
 1391ntf    on511679   1.031   4.986   1.125 -0.1753 -0.0386  0.5337
 1391ntf    on511680   1.015   4.761   1.030 -0.4989 -0.2198  0.2103
 1391ntf    on511681   0.604   4.970   1.072  0.1399  0.3396 -0.4327
 1391ntf    on511682   0.780   4.936   0.910  0.2580 -0.1978  0.0379
 1391ntf    fn411683   0.573   4.670   1.086  0.1683  0.6313  0.0887
 1391ntf    fn411684   0.730   4.638   0.958 -0.2283 -0.6368 -0.1416
 1391ntf    fn411685   0.554   4.744   0.889 -0.6654  0.1543  0.3143
 1392ntf    cn111686   2.377   2.010   3.892  0.1973 -0.1940  0.2238
 1392ntf    sn211687   2.288   2.017   4.050  0.0479  0.1253  0.1266
 1392ntf    nn311688   2.167   2.113   4.019 -0.3199 -0.3419  0.0938
 1392ntf    sn211689   2.012   2.102   4.038 -0.3606  0.3130  0.1356
 1392ntf    cn111690   1.969   2.039   3.873  0.1510 -0.3675  0.2580
 1392ntf    fn411691   2.416   2.128   3.847  0.6513 -0.3101  0.3067
 1392ntf    fn411692   2.489   1.940   3.903  0.3490 -0.0427 -0.3121
 1392ntf    fn411693   2.305   1.943   3.803 -0.0396  0.4666 -0.0866
 1392ntf    on511694   2.258   1.880   4.085 -0.2620 -0.0009 -0.6074
 1392ntf    on511695   2.385   2.082   4.134 -0.2974  0.5790  0.1737
 1392ntf    on511696   1.967   2.006   4.135 -0.1898  0.2404  0.1427
 1392ntf    on511697   1.964   2.238   4.038  0.0899  0.4741  0.1850
 1392ntf    fn411698   2.043   1.939   3.829  0.1363 -0.3461  0.1844
 1392ntf    fn411699   1.972   2.133   3.780  0.3155 -0.2827  0.3485
 1392ntf    fn411700   1.846   1.991   3.863  0.0288  0.0168 -0.1137
 1393ntf    cn111701   0.855   3.286   5.209  0.1730 -0.2216  0.0421
 1393ntf    sn211702   0.977   3.420   5.218 -0.0513 -0.0062 -0.0902
 1393ntf    nn311703   1.076   3.370   5.107 -0.2074 -0.2764 -0.1083
 1393ntf    sn211704   1.215   3.297   5.115 -0.0150  0.1005 -0.0018
 1393ntf    cn111705   1.321   3.445   5.127  0.2115 -0.0539 -0.0836
 1393ntf    fn411706   0.794   3.289   5.091  0.5117  0.6281 -0.1176
 1393ntf    fn411707   0.909   3.166   5.214 -0.0378 -0.3371 -0.3615
 1393ntf    fn411708   0.761   3.288   5.302  0.0616 -0.1284 -0.0712
 1393ntf    on511709   0.895   3.534   5.187 -0.1919  0.1352  0.7943
 1393ntf    on511710   1.018   3.398   5.354 -0.0439  0.2057 -0.0582
 1393ntf    on511711   1.243   3.228   5.238 -0.2310  0.2342  0.1224
 1393ntf    on511712   1.263   3.245   4.989  0.0200  0.3148 -0.0783
 1393ntf    fn411713   1.450   3.417   5.141  0.1887  0.1705  0.6433
 1393ntf    fn411714   1.287   3.530   5.222  0.0651 -0.0148 -0.1703
 1393ntf    fn411715   1.310   3.517   5.017  0.5818  0.3675  0.1533
 1394ntf    cn111716   1.867   0.859   4.346 -0.0843  0.1550 -0.1707
 1394ntf    sn211717   1.697   0.851   4.410 -0.0278  0.1428 -0.0216
 1394ntf    nn311718   1.635   0.722   4.345 -1.0544  0.5834  0.0690
 1394ntf    sn211719   1.611   0.575   4.392  0.2880  0.2487 -0.2447
 1394ntf    cn111720   1.434   0.598   4.425  0.4034  0.1869  0.4343
 1394ntf    fn411721   1.933   0.765   4.412 -0.2382  0.1121 -0.0771
 1394ntf    fn411722   1.866   0.827   4.218 -0.2431  0.0370 -0.1403
 1394ntf    fn411723   1.939   0.969   4.353 -0.1690  0.1904  0.1387
 1394ntf    on511724   1.720   0.833   4.551 -0.1224 -0.1091 -0.0386
 1394ntf    on511725   1.629   0.971   4.367 -0.0159  0.1604  0.0093
 1394ntf    on511726   1.602   0.485   4.279  1.1518  0.0748 -0.1843
 1394ntf    on511727   1.658   0.525   4.519 -0.2698 -0.1921 -0.2045
 1394ntf    fn411728   1.372   0.483   4.448  0.1515  0.0834 -0.7089
 1394ntf    fn411729   1.369   0.659   4.327  0.1283 -0.1670  0.3973
 1394ntf    fn411730   1.424   0.673   4.534  0.0403  0.3305  0.3044
 1395ntf    cn111731   3.491   1.237   0.414  0.4108 -0.5851  0.0507
 1395ntf    sn211732   3.592   1.350   0.313 -0.0020 -0.2950 -0.0412
 1395ntf    nn311733   3.497   1.471   0.282  0.0305 -0.1075  0.5610
 1395ntf    sn211734   3.481   1.608   0.356 -0.2552  0.0185  0.2679
 1395ntf    cn111735   3.621   1.708   0.297 -0.3120 -0.1118 -0.0883
 1395ntf    fn411736   3.459   1.288   0.531  0.4265  0.2828 -0.3168
 1395ntf    fn411737   3.374   1.200   0.363  0.0611 -0.0585  0.4583
 1395ntf    fn411738   3.563   1.129   0.439  0.7844 -0.3710 -0.0885
 1395ntf    on511739   3.701   1.384   0.402 -0.2861 -0.2060  0.2766
 1395ntf    on511740   3.618   1.265   0.200  0.1616 -0.1601 -0.1049
 1395ntf    on511741   3.361   1.682   0.326 -0.3463 -0.3976 -0.4207
 1395ntf    on511742   3.516   1.598   0.495 -0.5771 -0.0822  0.3411
 1395ntf    fn411743   3.739   1.659   0.329 -0.3688 -0.5778 -0.5693
 1395ntf    fn411744   3.617   1.828   0.353 -0.1027 -0.2550  0.2290
 1395ntf    fn411745   3.617   1.722   0.165  0.0224  0.8463 -0.0089
 1396ntf    cn111746   4.207   3.435   5.214  0.0500 -0.1721 -0.2600
 1396ntf    sn211747   4.273   3.603   5.189 -0.2201 -0.0222  0.0247
 1396ntf    nn311748   4.397   3.576   5.096  0.0145  0.0440  0.3181
 1396ntf    sn211749   4.424   3.630   4.951 -0.6839 -0.0337  0.1550
 1396ntf    cn111750   4.389   3.482   4.852 -0.1266 -0.1285  0.0974
 1396ntf    fn411751   4.086   3.442   5.268  0.2597 -0.1015  0.2104
 1396ntf    fn411752   4.197   3.367   5.101 -0.1501  0.1763 -0.4543
 1396ntf    fn411753   4.273   3.359   5.300 -0.3710 -0.0882  0.1434
 1396ntf    on511754   4.162   3.670   5.126 -0.1690  0.0840  0.0481
 1396ntf    on511755   4.306   3.637   5.325  0.0131 -0.4665  0.0849
 1396ntf    on511756   4.338   3.736   4.904 -0.6920 -0.0979  0.0264
 1396ntf    on511757   4.564   3.650   4.924 -0.5888 -0.1653  0.5368
 1396ntf    fn411758   4.360   3.528   4.731 -0.0272  0.0267  0.1334
 1396ntf    fn411759   4.286   3.410   4.895 -0.0648 -0.1639  0.1861
 1396ntf    fn411760   4.488   3.396   4.836 -0.3748 -0.4603  0.3077
 1397ntf    cn111761   5.493   2.672   4.281 -0.3560  0.0151  0.0891
 1397ntf    sn211762   5.498   2.764   4.438 -0.0327 -0.2029  0.2084
 1397ntf    nn311763   5.469   2.649   4.541 -0.3861 -0.1159  0.2072
 1397ntf    sn211764   5.561   2.559   4.632 -0.1485  0.0373  0.1201
 1397ntf    cn111765   5.545   2.643   4.793 -0.2001  0.0602  0.1036
 1397ntf    fn411766   5.506   2.755   4.180 -0.4461  0.7814  0.6945
 1397ntf    fn411767   5.583   2.575   4.278 -0.4018 -0.0184 -0.1850
 1397ntf    fn411768   5.377   2.609   4.271 -0.2513 -0.1662  0.0083
 1397ntf    on511769   5.631   2.821   4.437 -0.0884 -0.0737  0.1483
 1397ntf    on511770   5.386   2.852   4.420 -0.2931 -0.5551  0.1004
 1397ntf    on511771   5.489   2.435   4.648  0.0125 -0.0905 -0.1398
 1397ntf    on511772   5.703   2.561   4.612 -0.2177  0.6779 -0.3406
 1397ntf    fn411773   5.418   2.637   4.830 -0.1243  0.4646  0.4300
 1397ntf    fn411774   5.586   2.769   4.790 -0.2666  0.0728 -0.2975
 1397ntf    fn411775   5.606   2.572   4.886  0.2883 -0.1456 -0.3661
 1398ntf    cn111776   2.033   3.003   6.352 -0.1854 -0.1429 -0.1569
 1398ntf    sn211777   2.139   2.927   6.478 -0.3220  0.1103  0.1106
 1398ntf    nn311778   2.215   2.822   6.390 -0.3991 -0.0035  0.1797
 1398ntf    sn211779   2.290   2.698   6.449 -0.2630 -0.1162 -0.2322
 1398ntf    cn111780   2.461   2.760   6.450 -0.2464 -0.1714  0.1477
 1398ntf    fn411781   1.965   2.910   6.286 -0.2011 -0.1350 -0.1523
 1398ntf    fn411782   1.941   3.087   6.397 -0.3511 -0.1790 -0.4245
 1398ntf    fn411783   2.108   3.067   6.264 -0.2033 -0.3388 -0.3142
 1398ntf    on511784   2.226   3.035   6.518  0.5319 -0.3151 -0.5608
 1398ntf    on511785   2.039   2.879   6.571  0.3033 -0.5242  0.4613
 1398ntf    on511786   2.260   2.654   6.583 -0.4531  0.1212 -0.1977
 1398ntf    on511787   2.297   2.594   6.349 -0.1221 -0.3679  0.0391
 1398ntf    fn411788   2.512   2.741   6.330  0.0214 -0.2915  0.2781
 1398ntf    fn411789   2.539   2.702   6.541 -0.1291  0.1365  0.2445
 1398ntf    fn411790   2.460   2.891   6.470 -0.1441 -0.2007  0.3549
 1399ntf    cn111791   2.060   6.571   0.151  0.0289 -0.0338  0.3398
 1399ntf    sn211792   1.964   6.667   0.031  0.2599 -0.1606  0.0519
 1399ntf    nn311793   1.825   6.645   0.101  0.1273  0.4726 -0.0044
 1399ntf    sn211794   1.681   6.615   0.045  0.0957  0.1377  0.2540
 1399ntf    cn111795   1.670   6.434   0.060 -0.1112  0.1382  0.1132
 1399ntf    fn411796   2.094   6.644   0.256 -0.1195  0.3967  0.0929
 1399ntf    fn411797   1.989   6.467   0.191 -0.4629  0.1105 -0.1452
 1399ntf    fn411798   2.173   6.519   0.105 -0.1115 -0.1943  0.1779
 1399ntf    on511799   2.014   6.801   0.046 -0.0905  0.0469 -0.5428
 1399ntf    on511800   1.967   6.600  -0.097  0.2072  0.2537 -0.1677
 1399ntf    on511801   1.569   6.666   0.119  0.1158 -0.2857  0.5829
 1399ntf    on511802   1.668   6.639  -0.097  0.4742 -0.1966  0.1610
 1399ntf    fn411803   1.745   6.397   0.162  0.0669 -0.0153 -0.0743
 1399ntf    fn411804   1.731   6.391  -0.049 -0.8491 -0.6642  0.0079
 1399ntf    fn411805   1.550   6.377   0.063 -0.0893  0.1085  0.4698
 1400ntf    cn111806   0.426   6.218   1.905  0.0594  0.1302 -0.2417
 1400ntf    sn211807   0.414   6.319   2.056  0.5459  0.1352 -0.2053
 1400ntf    nn311808   0.568   6.339   2.081  0.4791  0.0617  0.2914
 1400ntf    sn211809   0.659   6.457   2.031  0.2163  0.0658 -0.1890
 1400ntf    cn111810   0.636   6.581   2.163 -0.2968 -0.0903 -0.1304
 1400ntf    fn411811   0.521   6.258   1.822 -0.0219 -0.2878 -0.5389
 1400ntf    fn411812   0.457   6.094   1.938  0.0956  0.2937  0.3546
 1400ntf    fn411813   0.316   6.220   1.832  0.1332 -0.0041 -0.3568
 1400ntf    on511814   0.334   6.435   2.029 -0.6802 -0.7511 -0.4746
 1400ntf    on511815   0.361   6.233   2.160 -0.4624  0.2513 -0.6165
 1400ntf    on511816   0.799   6.422   2.038  0.1420 -0.1537  0.2117
 1400ntf    on511817   0.614   6.521   1.910  0.1323  0.1897 -0.0929
 1400ntf    fn411818   0.726   6.675   2.143  0.1176 -0.5677 -0.5505
 1400ntf    fn411819   0.653   6.541   2.288  0.4724 -0.2253 -0.2746
 1400ntf    fn411820   0.519   6.642   2.157  0.0855  0.6357 -0.2584
 1401ntf    cn111821   3.935   2.917   4.515 -0.0826  0.0430  0.1996
 1401ntf    sn211822   4.098   2.862   4.572  0.0112  0.0019 -0.1058
 1401ntf    nn311823   4.158   2.999   4.622  0.2706 -0.1699  0.0562
 1401ntf    sn211824   4.262   3.082   4.540  0.2741 -0.3035 -0.0757
 1401ntf    cn111825   4.244   3.244   4.620 -0.0914 -0.2897 -0.1827
 1401ntf    fn411826   3.849   2.820   4.486  0.0551 -0.0842  0.2199
 1401ntf    fn411827   3.882   2.995   4.608  0.1727 -0.2033  0.5528
 1401ntf    fn411828   3.939   2.991   4.405 -0.0257  0.1140  0.2494
 1401ntf    on511829   4.067   2.781   4.687 -0.0995 -0.0447 -0.1684
 1401ntf    on511830   4.156   2.796   4.458 -0.1599 -0.1260 -0.1192
 1401ntf    on511831   4.399   3.054   4.572  0.2445  0.0683  0.3951
 1401ntf    on511832   4.227   3.118   4.404  0.1091 -0.3178 -0.0381
 1401ntf    fn411833   4.341   3.325   4.581 -0.0899 -0.1794  0.0464
 1401ntf    fn411834   4.260   3.232   4.751 -0.2600 -0.5253 -0.1838
 1401ntf    fn411835   4.128   3.305   4.601 -0.3404 -0.7209 -0.0640
 1402ntf    cn111836   3.565   3.829   4.730  0.2038  0.1636 -0.2349
 1402ntf    sn211837   3.627   3.773   4.568 -0.0237  0.0476 -0.2833
 1402ntf    nn311838   3.494   3.741   4.492 -0.2635 -0.1094  0.1955
 1402ntf    sn211839   3.400   3.623   4.537 -0.4949  0.0337  0.0862
 1402ntf    cn111840   3.314   3.584   4.381 -0.1793 -0.0128 -0.0778
 1402ntf    fn411841   3.459   3.908   4.721 -0.0628 -0.2174 -0.4874
 1402ntf    fn411842   3.525   3.733   4.812  0.1274  0.2975 -0.1143
 1402ntf    fn411843   3.658   3.887   4.803  0.0356 -0.5774  0.5756
 1402ntf    on511844   3.688   3.888   4.506  0.2081  0.3034  0.3994
 1402ntf    on511845   3.713   3.667   4.614  0.0018  0.4083  0.5370
 1402ntf    on511846   3.466   3.497   4.561 -0.3165  0.0813 -0.1399
 1402ntf    on511847   3.309   3.660   4.642  0.4019  0.5560  0.6953
 1402ntf    fn411848   3.403   3.557   4.286  0.0322  0.0669  0.0958
 1402ntf    fn411849   3.246   3.690   4.343 -0.1927 -0.0064 -0.0361
 1402ntf    fn411850   3.226   3.486   4.398  0.0477 -0.2047  0.0065
 1403ntf    cn111851   2.490   4.123   6.352  0.1109 -0.4520  0.0974
 1403ntf    sn211852   2.439   4.081   6.521 -0.4767  0.0740  0.0530
 1403ntf    nn311853   2.371   3.943   6.488 -0.0390 -0.0808 -0.1972
 1403ntf    sn211854   2.249   3.916   6.393 -0.1484  0.1605 -0.1250
 1403ntf    cn111855   2.203   3.751   6.453  0.1009  0.1283 -0.0194
 1403ntf    fn411856   2.575   4.224   6.348  0.1717 -0.5115 -0.1740
 1403ntf    fn411857   2.560   4.021   6.304  0.5827 -0.1722  0.1862
 1403ntf    fn411858   2.386   4.147   6.274  0.2138 -0.3567 -0.0114
 1403ntf    on511859   2.565   4.067   6.589 -0.5982 -0.0440  0.2570
 1403ntf    on511860   2.347   4.184   6.565 -0.2827  0.1487  0.2832
 1403ntf    on511861   2.134   4.000   6.414 -0.3089 -0.2512  0.6861
 1403ntf    on511862   2.280   3.887   6.255  0.6512 -0.1804  0.1189
 1403ntf    fn411863   2.155   3.762   6.576  0.0698 -0.1965 -0.0012
 1403ntf    fn411864   2.305   3.667   6.444 -0.0008 -0.0225  0.2223
 1403ntf    fn411865   2.103   3.705   6.378  0.0447  0.6530 -0.2697
 1404ntf    cn111866   6.465   2.299   2.411 -0.3159  0.2806  0.1634
 1404ntf    sn211867   6.640   2.250   2.402 -0.3439  0.1907  0.1102
 1404ntf    nn311868   6.674   2.244   2.555 -0.1944  0.7670  0.0994
 1404ntf    sn211869   6.812   2.221   2.626 -0.1867 -0.0774 -0.1784
 1404ntf    cn111870   6.771   2.096   2.752  0.0815 -0.4576 -0.4665
 1404ntf    fn411871   6.423   2.323   2.288 -0.0771  0.2358  0.0733
 1404ntf    fn411872   6.388   2.202   2.457 -0.1587 -0.1309 -0.4369
 1404ntf    fn411873   6.449   2.409   2.483  0.3512  0.2189  0.4110
 1404ntf    on511874   6.641   2.116   2.347 -0.1379  0.1580  0.1949
 1404ntf    on511875   6.699   2.364   2.338 -0.1181 -0.0660 -0.1424
 1404ntf    on511876   6.904   2.156   2.537  0.1833  0.2020 -0.0073
 1404ntf    on511877   6.859   2.331   2.707 -0.1186  0.1543 -0.5327
 1404ntf    fn411878   6.751   1.979   2.694  0.5645 -0.5005 -0.5463
 1404ntf    fn411879   6.657   2.125   2.812 -0.0898 -0.2678 -0.8776
 1404ntf    fn411880   6.865   2.082   2.844 -0.2984  0.0080  0.0034
 1405ntf    cn111881   4.706   5.303   2.569 -0.1465  0.1251 -0.1150
 1405ntf    sn211882   4.736   5.401   2.419  0.0615 -0.0260 -0.1722
 1405ntf    nn311883   4.824   5.519   2.471  0.0124  0.0511 -0.2616
 1405ntf    sn211884   4.961   5.570   2.413  0.1673 -0.1086 -0.0374
 1405ntf    cn111885   5.070   5.481   2.528  0.2142 -0.2931 -0.2245
 1405ntf    fn411886   4.654   5.367   2.673  0.4385  0.0617  0.2218
 1405ntf    fn411887   4.618   5.206   2.551 -0.2549  0.1051  0.4960
 1405ntf    fn411888   4.813   5.247   2.622 -0.4854 -0.3937  0.0258
 1405ntf    on511889   4.795   5.307   2.326 -0.1324 -0.1695 -0.1524
 1405ntf    on511890   4.605   5.450   2.382 -0.0642 -0.2529 -0.0280
 1405ntf    on511891   4.996   5.520   2.282 -0.3748  0.1530 -0.2869
 1405ntf    on511892   4.987   5.712   2.424 -0.3493 -0.0215  0.0714
 1405ntf    fn411893   5.004   5.378   2.579  0.2251 -0.1028  0.1811
 1405ntf    fn411894   5.112   5.553   2.630  0.2411  0.3887 -0.7118
 1405ntf    fn411895   5.173   5.443   2.455  0.1493 -0.0951 -0.4194
 1406ntf    cn111896   6.005   5.965   1.671 -0.4677  0.6379 -0.0315
 1406ntf    sn211897   5.907   5.866   1.553  0.1308 -0.3110  0.2587
 1406ntf    nn311898   5.794   5.971   1.522  0.6517  0.0928 -0.2994
 1406ntf    sn211899   5.770   6.054   1.392  0.3392  0.2340 -0.1520
 1406ntf    cn111900   5.658   5.944   1.300  0.1877  0.1580  0.1218
 1406ntf    fn411901   5.934   6.019   1.769 -0.0481 -0.0791  0.6776
 1406ntf    fn411902   6.092   5.893   1.739 -0.5825  0.2675 -0.2699
 1406ntf    fn411903   6.068   6.066   1.614  0.4042  0.4044  0.5036
 1406ntf    on511904   5.996   5.841   1.442 -0.0776  0.2322 -0.0343
 1406ntf    on511905   5.858   5.754   1.631 -0.2283 -0.0653  0.3889
 1406ntf    on511906   5.692   6.174   1.408 -0.3821 -0.2563  0.0870
 1406ntf    on511907   5.878   6.066   1.298  0.6339  0.3320  0.1986
 1406ntf    fn411908   5.544   5.936   1.367 -0.0280 -0.2206 -0.2818
 1406ntf    fn411909   5.708   5.822   1.294 -0.3336 -0.0785  0.5514
 1406ntf    fn411910   5.628   5.985   1.177  0.2663  0.1372  0.0953
 1407ntf    cn111911   1.639   1.379   3.346  0.0945  0.1097  0.1014
 1407ntf    sn211912   1.718   1.504   3.453  0.0390  0.1479  0.0980
 1407ntf    nn311913   1.703   1.434   3.593  0.1581 -0.0500  0.0130
 1407ntf    sn211914   1.801   1.342   3.672  0.2187 -0.0350 -0.0440
 1407ntf    cn111915   1.684   1.216   3.731  0.0043  0.2534  0.1511
 1407ntf    fn411916   1.532   1.327   3.402 -0.2140  0.3056 -0.3015
 1407ntf    fn411917   1.601   1.418   3.226  0.3091  0.0388  0.0089
 1407ntf    fn411918   1.717   1.273   3.328  0.1260  0.2515 -0.6398
 1407ntf    on511919   1.853   1.510   3.403 -0.1937 -0.7247 -0.6717
 1407ntf    on511920   1.634   1.621   3.442 -0.5908 -0.2729  0.3699
 1407ntf    on511921   1.889   1.263   3.589 -0.5761 -0.5811 -0.3767
 1407ntf    on511922   1.852   1.390   3.798  0.4017  0.3776 -0.2740
 1407ntf    fn411923   1.570   1.266   3.775 -0.3662 -0.3669 -0.0887
 1407ntf    fn411924   1.740   1.134   3.818  0.1040  0.0324 -0.1187
 1407ntf    fn411925   1.646   1.130   3.637 -0.0456  0.3189  0.1112
 1408ntf    cn111926   4.030   3.988   1.339  0.2780 -0.1556  0.3531
 1408ntf    sn211927   4.055   4.139   1.436 -0.2320  0.2218 -0.0920
 1408ntf    nn311928   4.182   4.191   1.360 -0.0336  0.2628  0.2637
 1408ntf    sn211929   4.336   4.169   1.385  0.0491  0.4635 -0.0574
 1408ntf    cn111930   4.407   4.336   1.388  0.0564  0.4570  0.1194
 1408ntf    fn411931   4.014   4.016   1.210 -0.4036 -0.3253  0.3923
 1408ntf    fn411932   4.121   3.894   1.360  0.3918 -0.1513 -0.0992
 1408ntf    fn411933   3.921   3.922   1.375 -0.1599  0.4435  0.1371
 1408ntf    on511934   3.941   4.223   1.409 -0.2471  0.0732 -0.4944
 1408ntf    on511935   4.079   4.094   1.571 -0.0880 -0.4516 -0.3401
 1408ntf    on511936   4.376   4.106   1.509  0.1321 -0.4447 -0.5323
 1408ntf    on511937   4.396   4.113   1.266 -0.6674 -0.4590 -0.0017
 1408ntf    fn411938   4.537   4.338   1.365  0.1057  0.1926  0.3643
 1408ntf    fn411939   4.394   4.399   1.504  0.0492 -0.3428  0.5589
 1408ntf    fn411940   4.356   4.410   1.291 -0.4134 -0.0954 -0.0616
 1409ntf    cn111941   2.881   1.185   6.430  0.1637  0.0210 -0.2801
 1409ntf    sn211942   3.025   1.259   6.347  0.1859  0.4060  0.1027
 1409ntf    nn311943   3.094   1.124   6.306  0.0726  0.3436  0.1169
 1409ntf    sn211944   3.195   1.101   6.188 -0.5224  0.3584 -0.3990
 1409ntf    cn111945   3.353   1.101   6.278 -0.5833  0.1272 -0.2921
 1409ntf    fn411946   2.812   1.098   6.358 -0.1495  0.3144 -0.3361
 1409ntf    fn411947   2.912   1.125   6.544 -0.6156  0.5920  0.2375
 1409ntf    fn411948   2.793   1.276   6.466  0.3270  0.2175 -0.3729
 1409ntf    on511949   2.968   1.329   6.235 -0.2012  0.1284  0.1276
 1409ntf    on511950   3.091   1.330   6.454  0.1265 -0.0263  0.4303
 1409ntf    on511951   3.197   0.970   6.128  0.0597  0.1698  0.0183
 1409ntf    on511952   3.207   1.214   6.099 -0.0376 -0.2336 -1.0941
 1409ntf    fn411953   3.459   1.055   6.213  0.0401  0.4969  0.4485
 1409ntf    fn411954   3.350   1.026   6.387 -0.0209  0.2050 -0.2228
 1409ntf    fn411955   3.387   1.222   6.319  0.1182 -0.2696  0.3311
 1410ntf    cn111956   2.228   3.451   0.612  0.3518  0.3436 -0.1997
 1410ntf    sn211957   2.241   3.470   0.432 -0.2537 -0.1599 -0.3020
 1410ntf    nn311958   2.247   3.626   0.415  0.2299 -0.2095 -0.5949
 1410ntf    sn211959   2.119   3.715   0.405  0.2493 -0.0904  0.1999
 1410ntf    cn111960   2.098   3.726   0.225 -0.3624  0.2193  0.2835
 1410ntf    fn411961   2.214   3.323   0.641  0.1217  0.3914 -0.0934
 1410ntf    fn411962   2.347   3.482   0.660  0.0568  0.1989  0.6595
 1410ntf    fn411963   2.135   3.526   0.670  0.0458  0.1301 -0.4124
 1410ntf    on511964   2.375   3.424   0.403 -0.2060 -0.1551 -0.0938
 1410ntf    on511965   2.125   3.403   0.379 -0.2474 -0.0280 -0.4833
 1410ntf    on511966   1.993   3.665   0.455 -0.3737  0.9165 -0.3304
 1410ntf    on511967   2.154   3.851   0.436  0.0519  0.1349 -0.5407
 1410ntf    fn411968   2.212   3.739   0.159 -0.1239 -0.2206  0.5960
 1410ntf    fn411969   2.035   3.832   0.177  0.0322  0.1115 -0.4882
 1410ntf    fn411970   2.046   3.616   0.172 -0.0201  0.1005  0.1842
 1411ntf    cn111971   6.200   6.394   6.207 -0.5422 -0.1692  0.5731
 1411ntf    sn211972   6.358   6.320   6.259 -0.0278  0.6196  0.1546
 1411ntf    nn311973   6.393   6.240   6.128  0.6287  0.2852  0.5249
 1411ntf    sn211974   6.464   6.278   5.994 -0.1539  0.3580  0.1250
 1411ntf    cn111975   6.557   6.127   5.956 -0.1080  0.4634 -0.1934
 1411ntf    fn411976   6.151   6.472   6.301 -0.5151 -0.2967  0.6939
 1411ntf    fn411977   6.222   6.471   6.102  0.0533 -0.4497  0.4854
 1411ntf    fn411978   6.108   6.307   6.170 -0.0584 -0.2239 -0.5579
 1411ntf    on511979   6.430   6.442   6.285 -0.2680  0.8866 -0.4192
 1411ntf    on511980   6.327   6.227   6.365 -0.6248 -0.6838 -1.1195
 1411ntf    on511981   6.372   6.290   5.883  0.1946  0.1530 -0.1929
 1411ntf    on511982   6.567   6.379   6.000  0.2095  0.0021 -0.0405
 1411ntf    fn411983   6.639   6.150   5.855 -0.1091 -0.3515 -0.3923
 1411ntf    fn411984   6.491   6.014   5.935  0.1356  0.1971  0.4607
 1411ntf    fn411985   6.626   6.089   6.063 -0.4243  0.1035 -0.1145
 1412ntf    cn111986   2.275   4.326   1.470  0.5572  0.4483  0.2300
 1412ntf    sn211987   2.380   4.436   1.371  0.1421  0.4891 -0.1705
 1412ntf    nn311988   2.436   4.335   1.265 -0.5429  0.6275 -0.6694
 1412ntf    sn211989   2.392   4.303   1.118 -0.2814 -0.3434 -0.5451
 1412ntf    cn111990   2.461   4.444   1.026 -0.2001  0.0997  0.1873
 1412ntf    fn411991   2.332   4.212   1.506  0.0501  0.3960  0.9082
 1412ntf    fn411992   2.242   4.382   1.586 -0.0270 -0.2392  0.4002
 1412ntf    fn411993   2.166   4.288   1.407  0.5850  0.2946  0.2746
 1412ntf    on511994   2.294   4.536   1.313 -0.5497  0.0289  0.0587
 1412ntf    on511995   2.484   4.495   1.452  0.4075  0.0503 -0.1915
 1412ntf    on511996   2.468   4.192   1.066  0.2169 -0.2379 -0.0496
 1412ntf    on511997   2.248   4.302   1.106 -0.3988  0.7592  0.5558
 1412ntf    fn411998   2.393   4.556   1.046  0.1954  0.4827 -0.5601
 1412ntf    fn411999   2.463   4.420   0.896 -0.1735 -0.0509  0.2157
 1412ntf    fn412000   2.588   4.468   1.055 -0.1786  0.3206 -0.0835
 1413ntf    cn112001   1.824   3.744   5.939  0.3617 -0.2561  0.2330
 1413ntf    sn212002   1.674   3.730   6.041 -0.0088  0.1990 -0.2453
 1413ntf    nn312003   1.584   3.635   5.954 -0.0193  0.1371 -0.1668
 1413ntf    sn212004   1.572   3.479   5.971 -0.0720  0.1382 -0.1935
 1413ntf    cn112005   1.430   3.475   6.084  0.1284 -0.2864  0.0462
 1413ntf    fn412006   1.914   3.814   6.005  0.3905 -0.1842  0.1158
 1413ntf    fn412007   1.887   3.629   5.922  0.1276 -0.2850 -0.4716
 1413ntf    fn412008   1.811   3.798   5.819  0.6620  0.0748  0.3472
 1413ntf    on512009   1.720   3.675   6.166 -0.0924  1.0857  0.1825
 1413ntf    on512010   1.628   3.866   6.053  0.4650  0.3256  0.1697
 1413ntf    on512011   1.519   3.416   5.853 -0.3548  0.0024  0.0047
 1413ntf    on512012   1.681   3.413   6.039  0.3717  0.0884 -0.9357
 1413ntf    fn412013   1.458   3.482   6.213  0.0216  0.1753  0.0462
 1413ntf    fn412014   1.362   3.363   6.068 -0.3272  0.0896 -0.7059
 1413ntf    fn412015   1.343   3.573   6.066  0.4771  0.1298  0.5945
 1414ntf    cn112016   0.428   4.145   5.128 -0.1034  0.1713 -0.0097
 1414ntf    sn212017   0.433   4.096   4.953 -0.3371  0.1407 -0.0085
 1414ntf    nn312018   0.579   4.132   4.909 -0.2380 -0.3605 -0.0933
 1414ntf    sn212019   0.709   4.045   4.900  0.1864  0.2798 -0.2318
 1414ntf    cn112020   0.682   3.955   4.744  0.4979  0.1119 -0.1908
 1414ntf    fn412021   0.507   4.076   5.209  0.2508  0.4926 -0.0835
 1414ntf    fn412022   0.457   4.273   5.143  0.2772  0.0636  0.1869
 1414ntf    fn412023   0.304   4.138   5.175 -0.2142 -0.5796 -0.3856
 1414ntf    on512024   0.398   3.956   4.956 -0.4691  0.1622 -0.3947
 1414ntf    on512025   0.351   4.191   4.880 -0.1027  0.2470 -0.1342
 1414ntf    on512026   0.831   4.119   4.879 -0.1189  0.7565 -0.3452
 1414ntf    on512027   0.720   3.938   4.996  0.2258  0.2044 -0.3202
 1414ntf    fn412028   0.796   3.930   4.682  0.3715 -0.2157 -0.2927
 1414ntf    fn412029   0.603   4.023   4.662 -0.1443 -0.4176 -0.0241
 1414ntf    fn412030   0.625   3.839   4.773  0.3269  0.1780 -0.2632
 1415ntf    cn112031   3.423   3.641   6.590  0.3129  0.4320 -0.1000
 1415ntf    sn212032   3.554   3.764   6.617  0.1674  0.5057  0.2789
 1415ntf    nn312033   3.457   3.887   6.601 -0.1985  0.1917  0.0662
 1415ntf    sn212034   3.460   4.023   6.679  0.1285  0.1123  0.1985
 1415ntf    cn112035   3.308   3.992   6.773  0.0937 -0.4853 -0.0547
 1415ntf    fn412036   3.336   3.637   6.690  0.1267 -0.0921 -0.2778
 1415ntf    fn412037   3.345   3.668   6.486 -0.1835 -0.5889 -0.0024
 1415ntf    fn412038   3.474   3.520   6.579 -0.2612  0.1508  0.2864
 1415ntf    on512039   3.618   3.733   6.743  0.2791 -0.2180  0.0474
 1415ntf    on512040   3.635   3.756   6.498  0.3757  0.0428  0.4485
 1415ntf    on512041   3.558   4.033   6.783 -0.0596  0.1658  0.3718
 1415ntf    on512042   3.435   4.140   6.598  0.8387 -0.1959 -0.4840
 1415ntf    fn412043   3.301   3.892   6.860 -0.0187  0.0173  0.5188
 1415ntf    fn412044   3.212   3.975   6.684 -0.0155  0.0491 -0.0422
 1415ntf    fn412045   3.276   4.100   6.842  0.0448 -0.3515 -0.2888
 1416ntf    cn112046   5.601   0.713   4.533  0.0437 -0.2289  0.2928
 1416ntf    sn212047   5.693   0.837   4.437  0.0251 -0.4191  0.0290
 1416ntf    nn312048   5.607   0.960   4.482 -0.0593 -0.4095 -0.1630
 1416ntf    sn212049   5.654   1.109   4.502 -0.2840 -0.3904  0.2229
 1416ntf    cn112050   5.668   1.119   4.683 -0.3197 -0.1657  0.2138
 1416ntf    fn412051   5.482   0.694   4.479  0.2604 -0.0001 -0.2757
 1416ntf    fn412052   5.653   0.591   4.530 -0.0332 -0.2458 -0.5458
 1416ntf    fn412053   5.586   0.745   4.661 -0.7044  0.0766  0.1329
 1416ntf    on512054   5.823   0.834   4.500  0.0052  0.0845  0.0958
 1416ntf    on512055   5.670   0.790   4.303 -0.9057  0.2436 -0.0474
 1416ntf    on512056   5.784   1.142   4.450 -0.2388 -0.6368  0.1797
 1416ntf    on512057   5.548   1.204   4.478 -0.0922 -0.0682  0.6336
 1416ntf    fn412058   5.756   1.029   4.723 -0.3224 -0.0785  0.4160
 1416ntf    fn412059   5.562   1.099   4.758 -0.3915 -0.4438  0.0402
 1416ntf    fn412060   5.708   1.238   4.726  0.3297 -0.2569 -0.1239
 1417ntf    cn112061   2.880   6.611   0.472 -0.0534 -0.2948 -0.0209
 1417ntf    sn212062   3.006   6.738   0.443  0.0185 -0.3723 -0.0472
 1417ntf    nn312063   2.917   6.851   0.381  0.0018 -0.3345  0.0458
 1417ntf    sn212064   2.821   6.844   0.257  0.0326  0.1704 -0.0123
 1417ntf    cn112065   2.885   6.971   0.144 -0.1390 -0.0630 -0.3735
 1417ntf    fn412066   2.764   6.670   0.497  0.1958  0.1295  0.1254
 1417ntf    fn412067   2.858   6.514   0.384  0.1615 -0.0564 -0.3382
 1417ntf    fn412068   2.913   6.555   0.587  0.3801 -0.0105 -0.0065
 1417ntf    on512069   3.048   6.779   0.575 -0.5392 -0.1476  0.0614
 1417ntf    on512070   3.096   6.663   0.359  0.2355  0.2314 -0.3587
 1417ntf    on512071   2.827   6.725   0.175 -0.0211  0.3985 -0.3484
 1417ntf    on512072   2.693   6.899   0.295  0.0370 -0.0547  0.3410
 1417ntf    fn412073   2.997   6.947   0.079  0.1921  0.2407  0.0810
 1417ntf    fn412074   2.898   7.085   0.210 -0.0563  0.0234 -0.5402
 1417ntf    fn412075   2.793   6.998   0.052 -0.8541 -0.3979  0.2296
 1418ntf    cn112076   5.739   0.884   3.859  0.5226  0.1115  0.1101
 1418ntf    sn212077   5.751   0.719   3.784 -0.0543  0.0573  0.1290
 1418ntf    nn312078   5.860   0.729   3.671  0.1520  0.1914  0.3393
 1418ntf    sn212079   6.013   0.744   3.700  0.2354  0.1071 -0.0603
 1418ntf    cn112080   6.041   0.875   3.577  0.0214  0.0527 -0.1676
 1418ntf    fn412081   5.848   0.917   3.926  0.0516  0.3738  0.7533
 1418ntf    fn412082   5.709   0.975   3.767 -0.4018  0.0177  0.3059
 1418ntf    fn412083   5.645   0.892   3.952 -0.0645  0.4071 -0.4883
 1418ntf    on512084   5.787   0.627   3.889  0.0790  0.2396  0.2419
 1418ntf    on512085   5.617   0.689   3.739  0.2186 -0.1712 -0.5439
 1418ntf    on512086   6.055   0.801   3.825  0.2827 -0.0937  0.0163
 1418ntf    on512087   6.086   0.629   3.651 -0.4961 -0.4245  0.0782
 1418ntf    fn412088   6.039   0.831   3.452  0.2547  0.0969 -0.1876
 1418ntf    fn412089   6.155   0.939   3.599  0.0121  0.0545 -0.1237
 1418ntf    fn412090   5.949   0.969   3.585 -0.1951 -0.1876  0.1675
 1419ntf    cn112091   1.662   0.428   1.933 -0.2960  0.1366  0.3223
 1419ntf    sn212092   1.807   0.469   1.831 -0.1508  0.1963  0.5525
 1419ntf    nn312093   1.741   0.521   1.699 -0.3063 -0.4369  0.3823
 1419ntf    sn212094   1.724   0.443   1.564 -0.0039 -0.1333  0.1698
 1419ntf    cn112095   1.847   0.515   1.451  0.0761 -0.1140  0.2691
 1419ntf    fn412096   1.579   0.528   1.958 -0.3128  0.0521  0.6073
 1419ntf    fn412097   1.587   0.337   1.874  0.0085  0.0189  0.1116
 1419ntf    fn412098   1.712   0.386   2.048  0.5028 -0.4780 -0.2372
 1419ntf    on512099   1.870   0.581   1.897 -0.2746  0.1928  0.6769
 1419ntf    on512100   1.881   0.346   1.818  0.0777  0.3927 -0.0355
 1419ntf    on512101   1.750   0.301   1.566 -0.3681 -0.2107 -0.2913
 1419ntf    on512102   1.597   0.484   1.511  0.0569  0.2407  0.3153
 1419ntf    fn412103   1.823   0.633   1.396 -0.0926 -0.0847  0.4057
 1419ntf    fn412104   1.879   0.440   1.346  0.0771  0.7171 -0.3397
 1419ntf    fn412105   1.964   0.522   1.513 -0.3391 -0.0965  1.0598
 1420ntf    cn112106   5.347   1.526   1.178 -0.1059 -0.1842 -0.2219
 1420ntf    sn212107   5.268   1.451   1.032 -0.3981 -0.4554  0.0757
 1420ntf    nn312108   5.283   1.298   1.064  0.2886 -0.3181  0.4156
 1420ntf    sn212109   5.168   1.191   1.057  0.1067 -0.0942 -0.0428
 1420ntf    cn112110   5.131   1.195   0.879  0.1473 -0.0415 -0.0501
 1420ntf    fn412111   5.271   1.531   1.286 -0.0664 -0.1559 -0.1959
 1420ntf    fn412112   5.454   1.460   1.218  0.4177  0.5829 -0.3301
 1420ntf    fn412113   5.382   1.651   1.150 -0.5060 -0.0302 -0.0397
 1420ntf    on512114   5.138   1.513   1.027 -0.1473 -0.0187 -1.4061
 1420ntf    on512115   5.364   1.493   0.933 -0.0955 -0.5114  0.3425
 1420ntf    on512116   5.207   1.055   1.083  0.8111 -0.0401 -0.7954
 1420ntf    on512117   5.046   1.235   1.121  0.0353  0.0475 -0.2769
 1420ntf    fn412118   5.242   1.163   0.815  0.0498 -0.3522 -0.0643
 1420ntf    fn412119   5.102   1.319   0.843 -0.1696 -0.0567  0.1524
 1420ntf    fn412120   5.037   1.108   0.848  0.2841 -0.3140  0.2929
 1421ntf    cn112121   5.287   1.275   3.753 -0.4014  0.0953  0.5186
 1421ntf    sn212122   5.392   1.423   3.740 -0.2195 -0.0765  0.0146
 1421ntf    nn312123   5.306   1.525   3.821 -0.0426  0.1244 -0.0513
 1421ntf    sn212124   5.320   1.585   3.966 -0.0152  0.2620 -0.1100
 1421ntf    cn112125   5.144   1.588   4.010 -0.0090  0.0723 -0.0700
 1421ntf    fn412126   5.160   1.290   3.716 -0.2099 -0.3704 -0.3470
 1421ntf    fn412127   5.338   1.179   3.677 -0.6392  0.1418  0.2971
 1421ntf    fn412128   5.283   1.232   3.878  0.2248 -0.3164  0.4001
 1421ntf    on512129   5.515   1.373   3.796 -0.3948 -0.4316  0.0890
 1421ntf    on512130   5.393   1.454   3.599 -0.0770  0.2163  0.0814
 1421ntf    on512131   5.374   1.498   4.068 -0.1980 -0.4480 -0.6113
 1421ntf    on512132   5.358   1.724   3.966 -0.2514  0.3275 -0.4363
 1421ntf    fn412133   5.078   1.479   3.974 -0.1247 -0.0191  0.4117
 1421ntf    fn412134   5.083   1.695   3.962  0.0357 -0.0759 -0.4557
 1421ntf    fn412135   5.142   1.596   4.142  0.4372  0.3362 -0.0781
 1422ntf    cn112136   5.936   6.394   4.929  0.0506  0.1165 -0.2185
 1422ntf    sn212137   5.792   6.430   5.034  0.1287 -0.3950  0.0648
 1422ntf    nn312138   5.868   6.498   5.153 -0.1050 -0.0085 -0.0052
 1422ntf    sn212139   5.886   6.442   5.299 -0.1384 -0.2912 -0.1105
 1422ntf    cn112140   5.720   6.440   5.374 -0.2054 -0.2312 -0.2571
 1422ntf    fn412141   5.977   6.503   4.866 -0.1060 -0.0691 -0.6427
 1422ntf    fn412142   6.032   6.355   5.012 -0.1569 -0.1932 -0.1246
 1422ntf    fn412143   5.913   6.304   4.835 -0.1402  0.1035 -0.1586
 1422ntf    on512144   5.721   6.527   4.955  0.2055 -0.0225  0.4513
 1422ntf    on512145   5.732   6.302   5.063  0.1285 -0.4598 -0.2115
 1422ntf    on512146   5.942   6.309   5.294  0.3865 -0.0816  0.1066
 1422ntf    on512147   5.959   6.537   5.379 -0.1184 -0.3859 -0.0159
 1422ntf    fn412148   5.702   6.385   5.493  0.1825 -0.7174 -0.4167
 1422ntf    fn412149   5.632   6.374   5.300 -0.1416 -0.0447 -0.4995
 1422ntf    fn412150   5.674   6.562   5.392  0.5723 -0.0816  0.7834
 1423ntf    cn112151   5.540   4.949   2.069  0.0526 -0.2029 -0.2496
 1423ntf    sn212152   5.444   4.836   2.175 -0.1825  0.0151 -0.2269
 1423ntf    nn312153   5.560   4.786   2.268  0.0426  0.4886 -0.2486
 1423ntf    sn212154   5.593   4.837   2.413 -0.3219 -0.0144  0.0139
 1423ntf    cn112155   5.699   4.704   2.477 -0.1243  0.0612 -0.1556
 1423ntf    fn412156   5.545   5.071   2.120  0.5103 -0.1415 -0.4393
 1423ntf    fn412157   5.663   4.912   2.040 -0.0274 -0.0790 -0.7487
 1423ntf    fn412158   5.484   4.960   1.950 -0.1748  0.2560 -0.1054
 1423ntf    on512159   5.338   4.912   2.236  0.3774 -0.0719  0.8628
 1423ntf    on512160   5.402   4.732   2.084 -0.2452 -0.4942  0.3775
 1423ntf    on512161   5.672   4.957   2.414 -0.0334 -0.2057  0.1400
 1423ntf    on512162   5.481   4.838   2.504  0.1060 -0.1571  0.5399
 1423ntf    fn412163   5.814   4.696   2.412 -0.2470 -0.4551 -0.3058
 1423ntf    fn412164   5.635   4.589   2.470  0.0750 -0.0573 -0.0478
 1423ntf    fn412165   5.722   4.725   2.606 -0.4794 -0.5334  0.0036
 1424ntf    cn112166   1.472   3.604   1.915 -0.0075 -0.2250  0.0381
 1424ntf    sn212167   1.556   3.444   1.894  0.1198 -0.1594  0.0453
 1424ntf    nn312168   1.710   3.476   1.894  0.0538  0.1617 -0.0396
 1424ntf    sn212169   1.801   3.507   1.771  0.0983 -0.0734 -0.0668
 1424ntf    cn112170   1.884   3.347   1.749  0.0424 -0.1381  0.1942
 1424ntf    fn412171   1.459   3.676   1.805  0.5605  0.3937  0.3699
 1424ntf    fn412172   1.350   3.605   1.966 -0.3301 -0.6681 -0.7062
 1424ntf    fn412173   1.549   3.671   1.999 -0.2363  0.3337 -0.1919
 1424ntf    on512174   1.515   3.379   2.017  0.3794  0.0492  0.2429
 1424ntf    on512175   1.502   3.385   1.774 -0.8137  0.4003  0.1768
 1424ntf    on512176   1.734   3.540   1.648  0.4889 -0.3134 -0.3475
 1424ntf    on512177   1.911   3.593   1.807  0.7338 -0.8920 -0.0333
 1424ntf    fn412178   2.000   3.347   1.685  0.2212  0.6287  0.5076
 1424ntf    fn412179   1.811   3.257   1.686  0.0360 -0.1703  0.2478
 1424ntf    fn412180   1.908   3.299   1.870 -0.0954  0.0498  0.2967
 1425ntf    cn112181   1.290   3.136   3.677 -0.4897  0.3590  0.1353
 1425ntf    sn212182   1.345   3.281   3.582 -0.2718 -0.0084 -0.3043
 1425ntf    nn312183   1.466   3.332   3.667  0.0125 -0.7937 -0.2304
 1425ntf    sn212184   1.621   3.321   3.641  0.1005 -0.0289 -0.0521
 1425ntf    cn112185   1.647   3.470   3.539 -0.2784 -0.0243 -0.1461
 1425ntf    fn412186   1.243   3.178   3.793 -0.7322  0.2000  0.0946
 1425ntf    fn412187   1.191   3.070   3.619  0.2766 -0.3019 -0.4573
 1425ntf    fn412188   1.386   3.050   3.708 -0.5598  0.2126 -0.0547
 1425ntf    on512189   1.371   3.220   3.453  0.4522 -0.3224 -0.0141
 1425ntf    on512190   1.234   3.373   3.593  0.1988  0.5231  0.0378
 1425ntf    on512191   1.692   3.340   3.765 -0.1769 -0.0290  0.1083
 1425ntf    on512192   1.667   3.212   3.560  0.3284  0.0988 -0.0933
 1425ntf    fn412193   1.760   3.476   3.470 -0.2853  0.5273 -0.1075
 1425ntf    fn412194   1.645   3.583   3.608 -0.3272 -0.2713  0.2643
 1425ntf    fn412195   1.554   3.484   3.447  0.3144  0.5795 -0.6570
 1426ntf    cn112196   0.947   1.115   4.431  0.1174 -0.0021 -0.1775
 1426ntf    sn212197   0.819   1.142   4.304  0.2604 -0.1294 -0.3495
 1426ntf    nn312198   0.689   1.125   4.391  0.6636  0.1822  0.3244
 1426ntf    sn212199   0.594   1.233   4.454  0.2218 -0.0566  0.0695
 1426ntf    cn112200   0.528   1.133   4.591  0.2494 -0.0198  0.1093
 1426ntf    fn412201   0.971   0.989   4.462  0.1268  0.0429 -0.0017
 1426ntf    fn412202   1.064   1.166   4.396 -0.1437  0.4932 -0.3514
 1426ntf    fn412203   0.909   1.181   4.539  0.4099  0.2723 -0.2402
 1426ntf    on512204   0.847   1.279   4.267  0.4958 -0.0299  0.1750
 1426ntf    on512205   0.857   1.036   4.214 -0.0908 -0.1826 -0.4378
 1426ntf    on512206   0.651   1.347   4.521 -0.2839  0.1709  0.1213
 1426ntf    on512207   0.470   1.252   4.383  0.2942  0.0248 -0.0346
 1426ntf    fn412208   0.437   1.198   4.662  0.6241  0.1887  0.4001
 1426ntf    fn412209   0.621   1.109   4.682  0.2541  0.0959  0.1346
 1426ntf    fn412210   0.479   1.017   4.550  0.5719 -0.2759  0.4527
 1427ntf    cn112211   2.495   0.629   2.457 -0.1881  0.0781 -0.0924
 1427ntf    sn212212   2.345   0.641   2.357 -0.1779 -0.0312 -0.1210
 1427ntf    nn312213   2.227   0.653   2.460  0.0703 -0.2762  0.1915
 1427ntf    sn212214   2.080   0.601   2.438 -0.0467  0.1095  0.0501
 1427ntf    cn112215   1.983   0.747   2.485 -0.3581 -0.1290  0.1447
 1427ntf    fn412216   2.518   0.738   2.529 -0.5883  0.2796 -0.2681
 1427ntf    fn412217   2.495   0.534   2.549  0.2163 -0.3464 -0.5249
 1427ntf    fn412218   2.606   0.600   2.391 -0.2697 -0.0918 -0.1549
 1427ntf    on512219   2.365   0.765   2.286 -0.3566  0.5197  0.7702
 1427ntf    on512220   2.351   0.519   2.280 -0.1741  0.1076 -0.3434
 1427ntf    on512221   2.035   0.586   2.302  0.3868 -0.0734 -0.0753
 1427ntf    on512222   2.037   0.505   2.536 -0.0022  0.4061  0.3605
 1427ntf    fn412223   2.026   0.801   2.597 -0.0731  0.0875 -0.0696
 1427ntf    fn412224   1.854   0.716   2.496 -0.4153  0.0276 -0.0806
 1427ntf    fn412225   1.986   0.846   2.398  0.2770 -0.0256  0.2830
 1428ntf    cn112226   1.759   5.130   1.071  0.2829 -0.0175 -0.1031
 1428ntf    sn212227   1.687   4.971   1.124  0.3210 -0.0199 -0.0573
 1428ntf    nn312228   1.696   4.992   1.280 -0.4982  0.1022 -0.0243
 1428ntf    sn212229   1.649   4.910   1.405 -0.1023 -0.0890  0.0014
 1428ntf    cn112230   1.788   4.809   1.463  0.0624  0.0319 -0.1813
 1428ntf    fn412231   1.729   5.231   1.151  0.7887 -0.0705  0.1567
 1428ntf    fn412232   1.890   5.116   1.062  0.2650 -0.2936  0.0450
 1428ntf    fn412233   1.728   5.167   0.948  0.1817 -0.1404 -0.1148
 1428ntf    on512234   1.555   4.982   1.068  0.2368  0.3266  0.2031
 1428ntf    on512235   1.773   4.873   1.062 -0.3003 -0.3429 -0.4117
 1428ntf    on512236   1.621   5.005   1.510 -0.2496 -0.0956 -0.0309
 1428ntf    on512237   1.534   4.824   1.386 -0.2307 -0.1306  0.9127
 1428ntf    fn412238   1.749   4.715   1.547  0.2862 -0.2202 -0.3582
 1428ntf    fn412239   1.869   4.881   1.539 -0.1295 -0.3831  0.4201
 1428ntf    fn412240   1.853   4.754   1.362  0.2276  0.2936 -0.2163
 1429ntf    cn112241   6.041   5.660   3.266 -0.1097 -0.2489  0.2308
 1429ntf    sn212242   6.212   5.615   3.309 -0.0607 -0.0778  0.2144
 1429ntf    nn312243   6.199   5.615   3.465 -0.6079 -0.1324  0.1681
 1429ntf    sn212244   6.312   5.600   3.572 -0.1357  0.2783 -0.2688
 1429ntf    cn112245   6.243   5.458   3.663  0.1312  0.0880 -0.3630
 1429ntf    fn412246   6.015   5.782   3.308 -0.3410 -0.3874  0.4974
 1429ntf    fn412247   6.026   5.674   3.136  0.1778  0.1972  0.2461
 1429ntf    fn412248   5.939   5.585   3.305 -0.0923 -0.3235  0.1317
 1429ntf    on512249   6.214   5.481   3.256 -0.2246  0.2327 -0.5903
 1429ntf    on512250   6.295   5.718   3.250  0.4321 -0.4480  0.2552
 1429ntf    on512251   6.445   5.560   3.532 -0.0829 -0.1374  0.3049
 1429ntf    on512252   6.308   5.704   3.671  0.3920 -0.0735  0.1327
 1429ntf    fn412253   6.132   5.490   3.726  0.4482  0.0712  0.2142
 1429ntf    fn412254   6.328   5.419   3.756 -0.3286  0.2036  0.1073
 1429ntf    fn412255   6.229   5.346   3.594  0.1076 -0.0370 -0.1553
 1430ntf    cn112256   1.278   3.446   4.176  0.1533 -0.2619 -0.2928
 1430ntf    sn212257   1.273   3.621   4.227 -0.0277 -0.4333  0.2859
 1430ntf    nn312258   1.159   3.614   4.334 -0.4692  0.1830 -0.1392
 1430ntf    sn212259   1.154   3.638   4.489 -0.0609 -0.1417 -0.0749
 1430ntf    cn112260   1.111   3.814   4.483 -0.6499 -0.2704  0.2079
 1430ntf    fn412261   1.347   3.413   4.068  0.0970 -0.0263 -0.4023
 1430ntf    fn412262   1.327   3.370   4.272  0.0791  0.6582  0.4978
 1430ntf    fn412263   1.153   3.412   4.148 -0.1092  0.2790  0.1900
 1430ntf    on512264   1.404   3.647   4.280 -0.1058 -0.1631  0.3457
 1430ntf    on512265   1.236   3.687   4.104 -0.1828 -0.3418  0.3814
 1430ntf    on512266   1.041   3.579   4.558  0.0099  0.2887  0.4160
 1430ntf    on512267   1.282   3.636   4.555 -0.3044  0.6697  0.4359
 1430ntf    fn412268   1.198   3.893   4.421 -0.4153 -0.5932  0.1252
 1430ntf    fn412269   1.089   3.855   4.607  0.1022  0.4764  0.1032
 1430ntf    fn412270   0.998   3.837   4.418 -0.3771  0.3439 -0.0540
 1431ntf    cn112271   1.978   0.785   3.821  0.0510  0.3366  0.1013
 1431ntf    sn212272   2.073   0.650   3.744 -0.2693  0.2369 -0.1191
 1431ntf    nn312273   1.998   0.529   3.811  0.0270  0.1629  0.0837
 1431ntf    sn212274   1.938   0.401   3.742 -0.0485  0.2603 -0.0338
 1431ntf    cn112275   1.760   0.437   3.739 -0.1429 -0.2138 -0.1366
 1431ntf    fn412276   1.855   0.789   3.774  0.0376  0.4603  0.1451
 1431ntf    fn412277   1.969   0.768   3.952 -0.4125 -0.2414 -0.0060
 1431ntf    fn412278   2.028   0.906   3.798  0.0730  0.3445  0.1883
 1431ntf    on512279   2.043   0.677   3.606 -0.4128  0.2853 -0.0791
 1431ntf    on512280   2.209   0.662   3.789  0.0826 -0.5396 -0.9557
 1431ntf    on512281   1.977   0.366   3.607  0.7546  0.1163  0.2274
 1431ntf    on512282   1.956   0.296   3.839 -0.2092 -0.1103 -0.4034
 1431ntf    fn412283   1.706   0.428   3.859  0.5489 -0.9614  0.1356
 1431ntf    fn412284   1.685   0.364   3.658 -0.4902 -0.2398  0.2103
 1431ntf    fn412285   1.743   0.563   3.703  0.5782  0.0051  0.2607
 1432ntf    cn112286   1.416   2.269   6.155  0.1786  0.1487  0.0666
 1432ntf    sn212287   1.253   2.299   6.080  0.1429  0.0924  0.1211
 1432ntf    nn312288   1.197   2.410   6.176 -0.2050  0.1819 -0.1814
 1432ntf    sn212289   1.074   2.429   6.271  0.1233  0.0559  0.2716
 1432ntf    cn112290   0.952   2.472   6.144  0.4964 -0.1735 -0.1657
 1432ntf    fn412291   1.396   2.210   6.272 -0.5221  0.1832 -0.0293
 1432ntf    fn412292   1.490   2.197   6.074  0.0184  0.1990 -0.1262
 1432ntf    fn412293   1.476   2.385   6.179  0.0730  0.1196  0.4813
 1432ntf    on512294   1.282   2.343   5.945  0.2285 -0.6381 -0.1043
 1432ntf    on512295   1.190   2.171   6.100  0.0348  0.2073  0.5242
 1432ntf    on512296   1.014   2.312   6.329  0.4026  0.1173  0.6925
 1432ntf    on512297   1.085   2.539   6.365 -0.7502 -0.0792  0.5399
 1432ntf    fn412298   0.995   2.564   6.058 -0.0533 -0.0010 -0.2605
 1432ntf    fn412299   0.828   2.508   6.174  0.6387  0.3208 -0.1602
 1432ntf    fn412300   0.931   2.367   6.065  0.3059 -0.3306  0.0910
 1433ntf    cn112301   4.861   2.907   0.204 -0.2029  0.3262  0.3932
 1433ntf    sn212302   4.780   2.905   0.366 -0.4423 -0.5675  0.2728
 1433ntf    nn312303   4.796   3.055   0.409  0.2969 -0.6036  0.1384
 1433ntf    sn212304   4.930   3.122   0.456  0.0442  0.1431 -0.1891
 1433ntf    cn112305   4.860   3.271   0.534 -0.4038 -0.0543 -0.2171
 1433ntf    fn412306   4.823   3.016   0.139  0.2739  0.3480  0.1450
 1433ntf    fn412307   4.993   2.902   0.216 -0.2464 -0.0623  0.7265
 1433ntf    fn412308   4.828   2.802   0.129  0.5538  0.0122  0.4844
 1433ntf    on512309   4.643   2.879   0.334 -0.4718 -0.6149  0.4327
 1433ntf    on512310   4.839   2.809   0.456 -0.1094 -0.6456 -0.0256
 1433ntf    on512311   4.994   3.057   0.568 -0.1706 -0.4766 -0.4231
 1433ntf    on512312   5.018   3.162   0.349 -0.0719 -0.8066 -0.6463
 1433ntf    fn412313   4.954   3.346   0.588 -0.4354 -0.1946  0.0355
 1433ntf    fn412314   4.777   3.242   0.634 -0.1686  0.1813  0.0456
 1433ntf    fn412315   4.786   3.347   0.455 -0.5326  0.4721  0.4014
 1434ntf    cn112316   1.467   4.600   6.037  0.4492 -0.0491 -0.6156
 1434ntf    sn212317   1.573   4.729   6.109 -0.0391 -0.0602  0.1298
 1434ntf    nn312318   1.613   4.671   6.250 -0.3236 -0.8710 -0.1146
 1434ntf    sn212319   1.742   4.592   6.292  0.0598 -0.1866  0.0257
 1434ntf    cn112320   1.663   4.451   6.376  0.2040 -0.4204 -0.2269
 1434ntf    fn412321   1.536   4.508   5.971  0.3270 -0.4701 -0.1598
 1434ntf    fn412322   1.387   4.537   6.122  0.2668  0.5357 -0.3506
 1434ntf    fn412323   1.374   4.652   5.958  0.2236  0.2725 -0.1420
 1434ntf    on512324   1.675   4.754   6.010 -0.3935  0.5310 -0.0888
 1434ntf    on512325   1.481   4.839   6.127 -0.0775 -0.1249  0.3271
 1434ntf    on512326   1.810   4.517   6.189 -0.3167 -0.1505 -0.2529
 1434ntf    on512327   1.819   4.656   6.396  0.0631 -0.1563  0.0038
 1434ntf    fn412328   1.545   4.424   6.323  0.1714 -1.0276  0.1426
 1434ntf    fn412329   1.631   4.476   6.502  0.3779  0.3269 -0.3256
 1434ntf    fn412330   1.730   4.337   6.373  0.0270 -0.5168 -0.4614
 1435ntf    cn112331   4.296   6.526   3.078  0.1703 -0.1594 -0.0000
 1435ntf    sn212332   4.394   6.672   3.030  0.4384 -0.4873 -0.4609
 1435ntf    nn312333   4.465   6.702   3.167  0.2488 -0.0068 -0.4666
 1435ntf    sn212334   4.496   6.838   3.239  0.3160 -0.0715 -0.3738
 1435ntf    cn112335   4.649   6.799   3.329  0.1541  0.3713  0.0978
 1435ntf    fn412336   4.225   6.541   3.188  0.4330 -0.2168  0.1776
 1435ntf    fn412337   4.203   6.493   2.989 -0.1883  0.0702  0.2879
 1435ntf    fn412338   4.370   6.418   3.097 -0.3147 -0.4020  0.5399
 1435ntf    on512339   4.479   6.617   2.928  0.5391 -0.1490 -0.5583
 1435ntf    on512340   4.295   6.767   2.986 -0.1543 -0.6059  0.5819
 1435ntf    on512341   4.531   6.956   3.165 -0.0350  0.1054 -0.2602
 1435ntf    on512342   4.404   6.860   3.348  0.0582  0.2468 -0.6553
 1435ntf    fn412343   4.631   6.692   3.404  0.5392  0.0581 -0.2541
 1435ntf    fn412344   4.693   6.899   3.404 -0.2559  0.7144 -0.1158
 1435ntf    fn412345   4.742   6.764   3.241  0.4647  1.0901  0.1337
 1436ntf    cn112346   1.369   1.190   1.164 -0.1483  0.2685 -0.2194
 1436ntf    sn212347   1.225   1.147   1.062 -0.1466 -0.3354  0.0302
 1436ntf    nn312348   1.246   0.992   1.074 -0.1555 -0.3204  0.2509
 1436ntf    sn212349   1.227   0.864   0.984 -0.2835 -0.1645  0.0539
 1436ntf    cn112350   1.401   0.826   0.945 -0.2723  0.0683 -0.1208
 1436ntf    fn412351   1.484   1.179   1.099 -0.4603 -0.5330 -0.6368
 1436ntf    fn412352   1.365   1.315   1.208  0.0049  0.0616  0.3919
 1436ntf    fn412353   1.368   1.111   1.270 -0.4991 -0.2251 -0.5908
 1436ntf    on512354   1.115   1.202   1.137  0.1126 -0.1626  0.2855
 1436ntf    on512355   1.256   1.198   0.931 -0.5912 -0.6802 -0.2136
 1436ntf    on512356   1.198   0.742   1.054 -0.2020  0.1194  0.5921
 1436ntf    on512357   1.160   0.881   0.858 -0.3788  0.0480  0.1329
 1436ntf    fn412358   1.409   0.751   0.836  0.2743 -0.3289  0.1943
 1436ntf    fn412359   1.465   0.761   1.040 -0.3150  0.3783  0.1221
 1436ntf    fn412360   1.470   0.935   0.913 -0.0741 -0.0775 -0.1928
 1437ntf    cn112361   5.732   0.316   0.162 -0.3068  0.0867 -0.1313
 1437ntf    sn212362   5.660   0.338  -0.003  0.1244  0.0311 -0.3291
 1437ntf    nn312363   5.649   0.494   0.008 -0.1985  0.0216 -0.4923
 1437ntf    sn212364   5.525   0.590   0.013 -0.0259  0.2293 -0.1867
 1437ntf    cn112365   5.498   0.624  -0.163 -0.2559  0.2944 -0.1385
 1437ntf    fn412366   5.720   0.189   0.196  0.3063  0.0103 -0.1795
 1437ntf    fn412367   5.862   0.337   0.153 -0.2444 -0.0146  0.4945
 1437ntf    fn412368   5.683   0.400   0.252 -0.1590  0.1465 -0.1063
 1437ntf    on512369   5.759   0.298  -0.100 -0.0875  0.1630 -0.6012
 1437ntf    on512370   5.536   0.264  -0.009  0.2525 -0.2186  0.0726
 1437ntf    on512371   5.409   0.519   0.060  0.5831 -0.3153  0.5225
 1437ntf    on512372   5.566   0.718   0.065  0.3323  0.0389  0.0032
 1437ntf    fn412373   5.599   0.686  -0.222 -0.3289 -0.3745 -0.9981
 1437ntf    fn412374   5.398   0.706  -0.191 -0.5723 -0.0722 -0.0974
 1437ntf    fn412375   5.493   0.509  -0.228  0.3375  0.3248 -0.2378
 1438ntf    cn112376   6.609   4.611   4.001  0.0673 -0.0192  0.0745
 1438ntf    sn212377   6.546   4.766   3.930  0.0212 -0.2220 -0.3254
 1438ntf    nn312378   6.552   4.717   3.781  0.5692 -0.0769 -0.3522
 1438ntf    sn212379   6.588   4.801   3.653 -0.0176  0.0204 -0.4534
 1438ntf    cn112380   6.768   4.815   3.634  0.0004  0.3757 -0.0532
 1438ntf    fn412381   6.609   4.620   4.133  0.2723  0.0153  0.0728
 1438ntf    fn412382   6.536   4.509   3.960 -0.6785  0.7125 -0.4446
 1438ntf    fn412383   6.732   4.581   3.963  0.0283  0.0371 -0.0980
 1438ntf    on512384   6.410   4.774   3.978 -0.0387  0.3576 -0.5746
 1438ntf    on512385   6.644   4.864   3.969 -0.3401 -0.1464  0.3975
 1438ntf    on512386   6.555   4.719   3.539  0.4247 -0.6756 -0.0882
 1438ntf    on512387   6.538   4.937   3.654  0.0296  0.0392 -0.7320
 1438ntf    fn412388   6.813   4.692   3.613  0.7537  0.6496 -0.0591
 1438ntf    fn412389   6.841   4.874   3.727 -0.1314 -0.5454  0.6477
 1438ntf    fn412390   6.792   4.883   3.523  0.2327  0.3489 -0.0204
 1439ntf    cn112391   2.689   5.349   5.496  0.4185 -0.1819  0.0840
 1439ntf    sn212392   2.825   5.468   5.482  0.0771  0.1858 -0.1101
 1439ntf    nn312393   2.756   5.602   5.526 -0.2651 -0.0001 -0.0804
 1439ntf    sn212394   2.703   5.714   5.430 -0.3706 -0.0842 -0.1202
 1439ntf    cn112395   2.860   5.803   5.409 -0.2749 -0.1809  0.1898
 1439ntf    fn412396   2.718   5.224   5.462  0.4192 -0.1223 -0.1324
 1439ntf    fn412397   2.650   5.332   5.622 -0.0889 -0.3979 -0.0989
 1439ntf    fn412398   2.581   5.387   5.430  0.5166  0.6115  0.3747
 1439ntf    on512399   2.921   5.419   5.578 -0.0868 -0.2427 -0.1659
 1439ntf    on512400   2.871   5.462   5.346 -0.1586 -0.2072 -0.1730
 1439ntf    on512401   2.662   5.669   5.299 -0.8966  0.2055 -0.0580
 1439ntf    on512402   2.623   5.806   5.506 -0.2489 -0.2051  0.1536
 1439ntf    fn412403   2.855   5.866   5.293 -0.4603 -0.1835  0.1962
 1439ntf    fn412404   2.965   5.722   5.407  0.0421  0.2312  0.0675
 1439ntf    fn412405   2.873   5.889   5.508  0.3352  0.1294 -0.1552
 1440ntf    cn112406   1.444   0.022   0.466  0.0689 -0.1415 -0.0592
 1440ntf    sn212407   1.425   0.008   0.646 -0.0746 -0.0636 -0.0680
 1440ntf    nn312408   1.402   0.159   0.682 -0.0428 -0.1105  0.1550
 1440ntf    sn212409   1.372   0.212   0.826  0.0361 -0.0938  0.1653
 1440ntf    cn112410   1.196   0.255   0.807  0.0865 -0.2395 -0.6479
 1440ntf    fn412411   1.440  -0.092   0.399  0.3914 -0.0455 -0.2427
 1440ntf    fn412412   1.348   0.093   0.408  0.1053  0.0595  0.1239
 1440ntf    fn412413   1.561   0.076   0.436 -0.2454  0.2948 -0.5198
 1440ntf    on512414   1.303  -0.070   0.653  0.0540 -0.2288  0.3519
 1440ntf    on512415   1.550  -0.042   0.696 -0.0981 -0.0368  0.0180
 1440ntf    on512416   1.378   0.106   0.923  0.1480 -0.0357  0.2220
 1440ntf    on512417   1.440   0.334   0.863  0.3257 -0.0361 -0.5420
 1440ntf    fn412418   1.136   0.260   0.924  0.4398 -0.2439 -0.4653
 1440ntf    fn412419   1.140   0.157   0.739 -0.0103 -0.4164 -0.3139
 1440ntf    fn412420   1.176   0.369   0.743  0.3245  0.0716 -0.1717
 1441ntf    cn112421   2.864   1.405   0.757 -0.1510  0.0649  0.5939
 1441ntf    sn212422   2.758   1.257   0.772 -0.2846  0.1275  0.2686
 1441ntf    nn312423   2.657   1.273   0.653 -0.1124 -0.9314 -0.0258
 1441ntf    sn212424   2.668   1.253   0.497 -0.0315 -0.0510 -0.1352
 1441ntf    cn112425   2.491   1.232   0.459 -0.1205 -0.2441  0.3725
 1441ntf    fn412426   2.961   1.389   0.669 -0.9034 -0.5843 -0.1315
 1441ntf    fn412427   2.794   1.509   0.715 -0.1304 -0.3982 -0.6349
 1441ntf    fn412428   2.924   1.438   0.870  0.0837  0.2915  0.4040
 1441ntf    on512429   2.854   1.149   0.764  0.0643  0.4146  0.5220
 1441ntf    on512430   2.692   1.279   0.898 -0.1507 -0.2245  0.4026
 1441ntf    on512431   2.704   1.372   0.424 -0.4431  0.0756 -0.1365
 1441ntf    on512432   2.724   1.132   0.444 -0.7028 -0.3881 -0.0797
 1441ntf    fn412433   2.450   1.120   0.516  0.3941 -0.3940  0.4600
 1441ntf    fn412434   2.458   1.211   0.333  0.1865 -0.6867  0.3597
 1441ntf    fn412435   2.413   1.327   0.507 -0.1671 -0.0884 -0.0055
 1442ntf    cn112436   2.577   5.010   2.565 -0.2607  0.1605 -0.0030
 1442ntf    sn212437   2.703   4.894   2.626 -0.2874  0.0455 -0.1642
 1442ntf    nn312438   2.594   4.795   2.680 -0.3396  0.0702 -0.2247
 1442ntf    sn212439   2.556   4.647   2.643 -0.0705  0.0014 -0.2261
 1442ntf    cn112440   2.516   4.587   2.810 -0.2585  0.2905 -0.1663
 1442ntf    fn412441   2.461   4.952   2.538 -0.1227  0.0962 -0.4674
 1442ntf    fn412442   2.539   5.097   2.656  0.1584 -0.2593  0.5825
 1442ntf    fn412443   2.604   5.078   2.454  0.1263  0.2908  0.1674
 1442ntf    on512444   2.777   4.854   2.509 -0.1017 -0.1394  0.0137
 1442ntf    on512445   2.774   4.974   2.724 -0.7917  0.5564 -0.2116
 1442ntf    on512446   2.437   4.626   2.563  0.1504 -0.1655 -0.5142
 1442ntf    on512447   2.671   4.564   2.618  0.0564 -0.0346  0.4722
 1442ntf    fn412448   2.629   4.576   2.878 -0.0257  0.1629 -0.5662
 1442ntf    fn412449   2.456   4.469   2.806  0.2270  0.0266  0.2635
 1442ntf    fn412450   2.439   4.668   2.880  0.4401  0.4552  0.4233
 1443ntf    cn112451   2.758   3.056   4.718 -0.0144  0.3506 -0.1827
 1443ntf    sn212452   2.605   3.071   4.815 -0.1204  0.0576 -0.3018
 1443ntf    nn312453   2.650   2.980   4.935 -0.1752  0.4099 -0.0097
 1443ntf    sn212454   2.562   2.871   5.006 -0.0762  0.2278 -0.1669
 1443ntf    cn112455   2.619   2.908   5.175 -0.4259  0.0010  0.0025
 1443ntf    fn412456   2.758   3.118   4.600 -0.5174  0.0096 -0.3653
 1443ntf    fn412457   2.865   3.103   4.779 -0.0437 -0.1886  0.2862
 1443ntf    fn412458   2.787   2.931   4.687 -0.9082 -0.0096  0.4023
 1443ntf    on512459   2.601   3.210   4.853 -0.7399 -0.0512  0.0339
 1443ntf    on512460   2.507   3.024   4.721 -0.3301 -0.0117 -0.0498
 1443ntf    on512461   2.422   2.900   5.020 -0.1738 -0.2994 -0.0007
 1443ntf    on512462   2.609   2.737   4.980 -0.0566  0.3372 -0.7107
 1443ntf    fn412463   2.747   2.886   5.202 -0.6399 -0.5631  0.5726
 1443ntf    fn412464   2.555   2.823   5.253 -0.4057  0.3067  0.3562
 1443ntf    fn412465   2.603   3.035   5.210  0.4583  0.1812 -0.2170
 1444ntf    cn112466   2.436   3.849   3.782 -0.0766 -0.1726  0.4277
 1444ntf    sn212467   2.312   3.716   3.770 -0.1558 -0.0690  0.0979
 1444ntf    nn312468   2.290   3.748   3.618  0.5283  0.2280  0.0576
 1444ntf    sn212469   2.306   3.651   3.496  0.1435  0.1163  0.0948
 1444ntf    cn112470   2.159   3.546   3.511  0.1539  0.0680 -0.1355
 1444ntf    fn412471   2.457   3.881   3.909  0.1109  0.1342  0.3195
 1444ntf    fn412472   2.549   3.820   3.721 -0.0889 -0.3906  0.5077
 1444ntf    fn412473   2.396   3.961   3.723 -0.0587 -0.3366  0.1019
 1444ntf    on512474   2.370   3.591   3.813  0.1595 -0.1283 -0.4930
 1444ntf    on512475   2.222   3.781   3.862  0.2038 -0.2129  0.5564
 1444ntf    on512476   2.284   3.711   3.366 -0.3952  0.0265  0.1440
 1444ntf    on512477   2.415   3.557   3.508  0.6913  0.5220 -1.3783
 1444ntf    fn412478   2.151   3.479   3.624 -0.1815 -0.0088 -0.2033
 1444ntf    fn412479   2.147   3.461   3.409  0.7317 -0.1548 -0.0220
 1444ntf    fn412480   2.050   3.620   3.517 -0.0240 -0.1933 -0.1136
 1445ntf    cn112481   5.753   4.500   3.560 -0.1465  0.2562  0.3823
 1445ntf    sn212482   5.846   4.634   3.480  0.1418 -0.5246 -0.6063
 1445ntf    nn312483   5.758   4.670   3.355 -0.4194  0.2686  0.0060
 1445ntf    sn212484   5.772   4.625   3.205 -0.1262  0.0034  0.1119
 1445ntf    cn112485   5.796   4.794   3.145  0.3519 -0.1531 -0.1413
 1445ntf    fn412486   5.630   4.539   3.586 -0.2625  0.2078 -0.0987
 1445ntf    fn412487   5.742   4.398   3.476 -0.1655  0.5161  0.0691
 1445ntf    fn412488   5.810   4.447   3.667 -0.0865  0.4106  0.4279
 1445ntf    on512489   5.837   4.742   3.574 -0.4873 -0.8152 -0.3276
 1445ntf    on512490   5.978   4.577   3.463  0.3128 -0.1960 -0.3824
 1445ntf    on512491   5.893   4.562   3.158 -0.2095 -0.0593 -0.0221
 1445ntf    on512492   5.649   4.579   3.144  0.3380 -0.8572 -0.1903
 1445ntf    fn412493   5.788   4.808   3.013  0.1092  0.3741 -0.0748
 1445ntf    fn412494   5.915   4.848   3.164  0.0760  0.3228  0.2541
 1445ntf    fn412495   5.708   4.879   3.196  0.5493 -0.4168  0.6383
 1446ntf    cn112496   1.298   5.710   3.517  0.0087 -0.2000  0.2769
 1446ntf    sn212497   1.153   5.789   3.593 -0.0014 -0.1468  0.2021
 1446ntf    nn312498   1.086   5.662   3.656 -0.7026 -0.4382 -1.0802
 1446ntf    sn212499   0.996   5.648   3.784  0.1523  0.0133 -0.4207
 1446ntf    cn112500   0.840   5.618   3.697 -0.0070  0.3653 -0.2557
 1446ntf    fn412501   1.273   5.611   3.432 -0.2875 -0.1336  0.2837
 1446ntf    fn412502   1.374   5.798   3.454 -0.5525  0.0931  0.0017
 1446ntf    fn412503   1.372   5.646   3.605  1.1018  0.0632 -0.4353
 1446ntf    on512504   1.220   5.880   3.682  0.1821 -0.0717 -0.0108
 1446ntf    on512505   1.074   5.852   3.489  0.2187  0.8373  0.6208
 1446ntf    on512506   1.012   5.523   3.855 -0.3178  0.2839  0.1744
 1446ntf    on512507   0.977   5.765   3.866  0.3425 -0.0283 -0.3149
 1446ntf    fn412508   0.743   5.582   3.780  0.0624  0.5716 -0.0853
 1446ntf    fn412509   0.856   5.519   3.612  0.0266 -0.2223  0.4255
 1446ntf    fn412510   0.799   5.724   3.629 -0.6257  0.1504 -0.2289
 1447ntf    cn112511   2.908   5.415   4.000 -0.3382 -0.0958  0.2068
 1447ntf    sn212512   3.006   5.321   4.121 -0.1425 -0.0588  0.0787
 1447ntf    nn312513   3.129   5.268   4.041  0.3549  0.0017  0.7877
 1447ntf    sn212514   3.277   5.318   4.031  0.2120  0.2356 -0.4071
 1447ntf    cn112515   3.368   5.173   4.093  0.3685  0.2639 -0.5666
 1447ntf    fn412516   2.893   5.345   3.888  0.2260  0.0215  0.0580
 1447ntf    fn412517   2.788   5.429   4.053 -0.2163 -0.0115  0.4628
 1447ntf    fn412518   2.953   5.534   3.965 -0.0826 -0.0545  0.6754
 1447ntf    on512519   3.028   5.408   4.235  0.5992 -0.3654  0.1731
 1447ntf    on512520   2.914   5.211   4.136 -0.4841  0.1000 -0.7835
 1447ntf    on512521   3.331   5.329   3.898  0.4418 -0.1105 -0.3455
 1447ntf    on512522   3.314   5.421   4.126  0.1269 -0.4068  0.3318
 1447ntf    fn412523   3.318   5.129   4.208  0.0430  0.5945 -0.5760
 1447ntf    fn412524   3.497   5.193   4.115  0.3720  0.1994 -0.5291
 1447ntf    fn412525   3.362   5.070   4.011 -0.0419 -0.0693 -0.1267
 1448ntf    cn112526   4.949   6.565   4.643 -0.3160  0.1595  0.0761
 1448ntf    sn212527   5.056   6.708   4.678  0.0265 -0.0119 -0.2683
 1448ntf    nn312528   5.064   6.767   4.533  0.3880  0.4612 -0.0571
 1448ntf    sn212529   4.977   6.880   4.468 -0.1070  0.1317  0.0264
 1448ntf    cn112530   4.914   6.784   4.327 -0.3319 -0.1033  0.2875
 1448ntf    fn412531   4.824   6.586   4.607 -0.2636  0.0126 -0.1921
 1448ntf    fn412532   4.998   6.487   4.548 -0.2338  0.4381 -0.1126
 1448ntf    fn412533   4.951   6.484   4.748 -0.0656 -0.1946 -0.1984
 1448ntf    on512534   4.985   6.791   4.771 -0.0389  0.0763 -0.3966
 1448ntf    on512535   5.183   6.650   4.715 -0.0432 -0.0132 -0.0284
 1448ntf    on512536   4.854   6.927   4.526 -0.3018 -0.2277 -0.0917
 1448ntf    on512537   5.065   6.977   4.407  0.3139 -0.0760  0.2999
 1448ntf    fn412538   5.014   6.742   4.251 -0.1110  0.4619  0.2609
 1448ntf    fn412539   4.833   6.851   4.247 -0.2197 -0.2585  0.0423
 1448ntf    fn412540   4.848   6.679   4.373 -0.3636  0.0204  0.5228
 1449ntf    cn112541   0.385   3.562   4.640 -0.0570  0.2237 -0.0879
 1449ntf    sn212542   0.309   3.408   4.700  0.0164  0.2928  0.1838
 1449ntf    nn312543   0.157   3.440   4.679 -0.0040  0.2712  0.2980
 1449ntf    sn212544   0.043   3.399   4.778 -0.3435 -0.0168 -0.2092
 1449ntf    cn112545  -0.073   3.321   4.661 -0.4066 -0.1295 -0.0717
 1449ntf    fn412546   0.319   3.609   4.535  0.3304  0.6476 -0.1489
 1449ntf    fn412547   0.386   3.655   4.734 -0.3420 -0.1198  0.2582
 1449ntf    fn412548   0.513   3.546   4.609  0.0094  0.3585  0.1135
 1449ntf    on512549   0.377   3.303   4.628 -0.7325  0.1811 -0.3684
 1449ntf    on512550   0.349   3.419   4.838 -0.0151 -0.1767  0.2293
 1449ntf    on512551   0.079   3.299   4.875 -0.4670  0.1962  0.0557
 1449ntf    on512552  -0.024   3.512   4.837  0.0448 -0.2866  0.7536
 1449ntf    fn412553  -0.016   3.214   4.608 -0.5370 -0.1467 -0.1788
 1449ntf    fn412554  -0.098   3.406   4.562 -0.0609 -0.0549 -0.0984
 1449ntf    fn412555  -0.189   3.283   4.711 -0.4141 -0.3400 -0.2463
 1450ntf    cn112556   1.248   6.458   3.387 -0.3966  0.1520  0.1027
 1450ntf    sn212557   1.166   6.609   3.447 -0.1708  0.2264  0.2251
 1450ntf    nn312558   1.276   6.670   3.542 -0.0669  0.3292  0.0404
 1450ntf    sn212559   1.285   6.678   3.699  0.5072  0.0493  0.0249
 1450ntf    cn112560   1.462   6.721   3.704  0.4230  0.3878  0.1386
 1450ntf    fn412561   1.164   6.392   3.309 -0.2143  0.1201 -0.0683
 1450ntf    fn412562   1.360   6.491   3.323 -0.2425 -0.4256  0.0671
 1450ntf    fn412563   1.284   6.380   3.487  0.3172  0.2594 -0.0625
 1450ntf    on512564   1.167   6.692   3.329  0.2801 -0.2900 -0.1429
 1450ntf    on512565   1.046   6.561   3.511 -0.3513 -0.1521 -0.3886
 1450ntf    on512566   1.206   6.786   3.753 -0.1285 -0.6870  0.5857
 1450ntf    on512567   1.278   6.548   3.759 -0.1187  0.1531  0.1813
 1450ntf    fn412568   1.518   6.734   3.823  0.3040 -0.4009  0.2873
 1450ntf    fn412569   1.490   6.834   3.641 -0.2763  0.6823  0.3359
 1450ntf    fn412570   1.528   6.629   3.636  0.5848  0.4034  0.2757
 1451ntf    cn112571   1.991   5.423   0.778 -0.3582 -0.2549 -0.1920
 1451ntf    sn212572   2.010   5.593   0.716  0.3228 -0.2610 -0.0116
 1451ntf    nn312573   2.156   5.599   0.659  0.3653  0.8488  0.1875
 1451ntf    sn212574   2.204   5.608   0.510  0.1684 -0.0495  0.0616
 1451ntf    cn112575   2.139   5.772   0.466 -0.0350 -0.1517 -0.0178
 1451ntf    fn412576   2.067   5.384   0.880 -0.7104  0.5195  0.3706
 1451ntf    fn412577   1.865   5.404   0.814 -0.3606  0.1943  0.0382
 1451ntf    fn412578   2.014   5.338   0.679  0.2644 -0.1004 -0.1874
 1451ntf    on512579   1.907   5.616   0.618 -0.3064  0.6316  0.8343
 1451ntf    on512580   1.998   5.665   0.841  0.3836  0.5352 -0.4580
 1451ntf    on512581   2.347   5.628   0.507  0.1317  0.3152  0.6445
 1451ntf    on512582   2.155   5.501   0.426 -0.0343  0.3129 -0.2827
 1451ntf    fn412583   2.008   5.791   0.472  0.0001  0.0325  0.1767
 1451ntf    fn412584   2.174   5.810   0.344  0.6083 -0.3398  0.1011
 1451ntf    fn412585   2.190   5.868   0.540  0.0170 -0.4044  0.2758
 1452ntf    cn112586   2.751   4.045   2.042  0.3988  0.2903  0.5698
 1452ntf    sn212587   2.601   4.007   2.138  0.0914  0.0493  0.0012
 1452ntf    nn312588   2.539   3.896   2.047  0.0094  0.3252 -0.2840
 1452ntf    sn212589   2.418   3.911   1.948  0.1577  0.1505 -0.4931
 1452ntf    cn112590   2.415   3.736   1.899  0.0125 -0.1147  0.4423
 1452ntf    fn412591   2.718   4.072   1.917  0.3436 -0.0057  0.5194
 1452ntf    fn412592   2.804   4.154   2.094  0.4095  0.3247  0.4856
 1452ntf    fn412593   2.842   3.949   2.041 -0.0042 -0.0945 -0.0675
 1452ntf    on512594   2.658   3.951   2.258  0.5091  0.1362 -0.1548
 1452ntf    on512595   2.541   4.138   2.142  0.2845  0.1656 -0.7467
 1452ntf    on512596   2.287   3.936   2.002  0.2053  0.2429 -0.4187
 1452ntf    on512597   2.448   3.985   1.827  0.0901  0.6313 -0.2201
 1452ntf    fn412598   2.350   3.656   1.981  0.1357 -0.8035 -0.1212
 1452ntf    fn412599   2.539   3.690   1.896  0.1085  0.1557  0.1387
 1452ntf    fn412600   2.368   3.713   1.778 -0.2497 -0.1052  0.5416
 1453ntf    cn112601   1.851   4.481   1.877  0.2157  0.1725 -0.2200
 1453ntf    sn212602   1.966   4.547   2.001  0.0610  0.0876 -0.0319
 1453ntf    nn312603   1.976   4.430   2.106 -0.0457  0.2302  0.1372
 1453ntf    sn212604   1.889   4.406   2.234  0.2325 -0.2172  0.2438
 1453ntf    cn112605   1.805   4.260   2.165  0.2697 -0.1105 -0.0266
 1453ntf    fn412606   1.734   4.454   1.933  0.3015 -0.2131 -0.2200
 1453ntf    fn412607   1.822   4.562   1.776  0.0318 -0.3810 -0.6185
 1453ntf    fn412608   1.888   4.374   1.809  0.0400 -0.2954  0.4094
 1453ntf    on512609   2.089   4.569   1.929 -0.0576  0.3535 -0.1542
 1453ntf    on512610   1.893   4.663   2.045 -0.1472 -0.0476 -0.0168
 1453ntf    on512611   1.968   4.364   2.347  0.2585  0.1743  0.3706
 1453ntf    on512612   1.772   4.487   2.260  0.4320  0.1264  0.0765
 1453ntf    fn412613   1.709   4.306   2.087 -0.0409  0.1268  0.4916
 1453ntf    fn412614   1.752   4.178   2.255 -0.0741  0.2675  0.1159
 1453ntf    fn412615   1.880   4.185   2.086  0.5548  0.0658  0.0762
 1454ntf    cn112616   6.036   2.131   4.998 -0.0570  0.1605 -0.0595
 1454ntf    sn212617   6.137   2.155   5.148 -0.1086  0.3113 -0.0491
 1454ntf    nn312618   6.263   2.073   5.103 -0.0618  0.4290 -0.1325
 1454ntf    sn212619   6.341   1.958   5.177  0.0890  0.5216 -0.1475
 1454ntf    cn112620   6.485   2.054   5.233  0.4659 -0.1281 -0.0005
 1454ntf    fn412621   5.918   2.190   4.999  0.2678  0.8174  0.4078
 1454ntf    fn412622   6.089   2.182   4.888  0.1172  0.2895  0.0816
 1454ntf    fn412623   6.021   2.003   4.970 -0.5445  0.2607 -0.2670
 1454ntf    on512624   6.165   2.296   5.151 -0.0781  0.3070 -0.1229
 1454ntf    on512625   6.060   2.103   5.258  0.7557 -0.0202  0.4050
 1454ntf    on512626   6.286   1.896   5.294 -0.0200 -0.0997 -0.5227
 1454ntf    on512627   6.403   1.868   5.083  0.2281  0.4509  0.0106
 1454ntf    fn412628   6.578   1.978   5.290 -0.2152 -0.4967  0.6418
 1454ntf    fn412629   6.455   2.149   5.320 -0.0573  0.4063 -0.7554
 1454ntf    fn412630   6.555   2.096   5.129  0.4741 -0.6383 -0.2030
 1455ntf    cn112631   4.787   6.432   1.253 -0.0830  0.0982 -0.0087
 1455ntf    sn212632   4.757   6.270   1.330 -0.2107  0.0510 -0.1566
 1455ntf    nn312633   4.619   6.290   1.402 -0.3275  0.4410 -0.4854
 1455ntf    sn212634   4.474   6.233   1.383 -0.2516  0.0723  0.0178
 1455ntf    cn112635   4.391   6.332   1.511  0.1562  0.1391  0.2323
 1455ntf    fn412636   4.720   6.440   1.139 -0.2204  0.8982  0.1249
 1455ntf    fn412637   4.745   6.536   1.322 -0.3217 -0.2353  0.3522
 1455ntf    fn412638   4.912   6.457   1.218 -0.0164 -0.5324 -0.2414
 1455ntf    on512639   4.762   6.175   1.222  0.2770  0.0288 -0.1191
 1455ntf    on512640   4.856   6.245   1.433  0.2596  0.4850 -0.4979
 1455ntf    on512641   4.412   6.284   1.263 -0.5365  0.3136  0.2643
 1455ntf    on512642   4.457   6.097   1.426 -0.2515 -0.0180 -0.2691
 1455ntf    fn412643   4.459   6.313   1.623  0.3811 -1.0758 -0.0965
 1455ntf    fn412644   4.270   6.285   1.536  0.0225  0.1577 -0.3686
 1455ntf    fn412645   4.371   6.462   1.493 -0.0531  0.0826  0.0596
 1456ntf    cn112646   4.317   1.003   1.286 -0.1897  0.3982 -0.3110
 1456ntf    sn212647   4.149   1.074   1.294 -0.2330  0.2679 -0.0585
 1456ntf    nn312648   4.177   1.211   1.364 -0.5784  0.6395 -0.6393
 1456ntf    sn212649   4.156   1.245   1.516  0.1543 -0.2007 -0.3387
 1456ntf    cn112650   4.237   1.408   1.524  0.2321 -0.2659  0.2666
 1456ntf    fn412651   4.328   0.905   1.198  0.3283 -0.0776  0.2743
 1456ntf    fn412652   4.414   1.089   1.261 -0.2095  0.5276  0.0368
 1456ntf    fn412653   4.347   0.959   1.407 -0.0445 -0.0544 -0.5117
 1456ntf    on512654   4.106   1.088   1.157 -0.2632  0.5120 -0.0246
 1456ntf    on512655   4.078   0.971   1.367  0.0265 -0.2296 -0.5041
 1456ntf    on512656   4.023   1.283   1.556 -0.1261 -0.3983 -1.0789
 1456ntf    on512657   4.220   1.157   1.611  0.2941  0.5303  0.2607
 1456ntf    fn412658   4.355   1.394   1.465  0.3055  0.1566  0.3144
 1456ntf    fn412659   4.236   1.445   1.651 -0.4717  0.2603  0.1100
 1456ntf    fn412660   4.173   1.501   1.456 -0.6218 -0.6507  0.5365
 1457ntf    cn112661   5.300   1.975   2.180 -0.0311 -0.1348 -0.0466
 1457ntf    sn212662   5.249   1.976   2.354 -0.0465  0.0679 -0.0515
 1457ntf    nn312663   5.353   2.071   2.424 -0.4032 -0.1562  0.7976
 1457ntf    sn212664   5.445   2.052   2.550  0.3186 -0.1794  0.2667
 1457ntf    cn112665   5.446   2.216   2.628 -0.2390  0.0209 -0.1375
 1457ntf    fn412666   5.424   1.932   2.164 -0.2373 -0.6980 -0.1705
 1457ntf    fn412667   5.227   1.891   2.108 -0.0084 -0.2058  0.0131
 1457ntf    fn412668   5.289   2.094   2.122  0.4944 -0.2465 -0.3814
 1457ntf    on512669   5.118   2.036   2.347  0.2513  0.6948 -0.2369
 1457ntf    on512670   5.256   1.837   2.394 -0.4884  0.1002  0.1481
 1457ntf    on512671   5.391   1.967   2.652 -0.0137 -0.5742 -0.2352
 1457ntf    on512672   5.583   2.032   2.511  0.4189  0.6485  0.1735
 1457ntf    fn412673   5.492   2.227   2.752  0.4508 -0.3422 -0.3565
 1457ntf    fn412674   5.323   2.263   2.633 -0.3259 -0.2387  0.2314
 1457ntf    fn412675   5.512   2.302   2.553  0.6184 -0.1985  0.3420
 1458ntf    cn112676   2.380   5.203   0.808 -0.0424  0.2973 -0.2054
 1458ntf    sn212677   2.497   5.088   0.731 -0.0529  0.2025 -0.0794
 1458ntf    nn312678   2.521   5.172   0.600  0.3488 -0.3130 -0.3413
 1458ntf    sn212679   2.632   5.278   0.568 -0.1408  0.2360 -0.2363
 1458ntf    cn112680   2.727   5.175   0.452  0.1884  0.0639  0.1846
 1458ntf    fn412681   2.449   5.293   0.876  0.0399  0.1199 -0.0536
 1458ntf    fn412682   2.309   5.273   0.720  0.1624  0.0627 -0.5592
 1458ntf    fn412683   2.298   5.150   0.897  0.3056  0.0616 -0.0226
 1458ntf    on512684   2.609   5.069   0.819  0.1233  0.0635 -0.3305
 1458ntf    on512685   2.426   4.965   0.702  0.4471 -0.1628  0.2331
 1458ntf    on512686   2.590   5.386   0.482  0.2220  0.6155  0.0590
 1458ntf    on512687   2.724   5.315   0.672  0.1720  0.2162 -0.5058
 1458ntf    fn412688   2.811   5.096   0.516  0.2730  0.0811  0.0940
 1458ntf    fn412689   2.792   5.257   0.370  0.1789 -0.1338 -0.0200
 1458ntf    fn412690   2.655   5.100   0.371 -0.2688 -0.2376  0.8670
 1459ntf    cn112691   4.319   3.542   2.925  0.0269 -0.3960  0.2003
 1459ntf    sn212692   4.379   3.601   2.764 -0.2674  0.3351  0.3516
 1459ntf    nn312693   4.298   3.735   2.755 -0.5107  0.1884  0.3137
 1459ntf    sn212694   4.148   3.748   2.712 -0.3750  0.1438 -0.1764
 1459ntf    cn112695   4.169   3.803   2.540  0.1610 -0.3655 -0.2761
 1459ntf    fn412696   4.368   3.423   2.952 -0.2673 -0.6169 -0.2241
 1459ntf    fn412697   4.358   3.623   3.022  0.2146 -0.0352 -0.1714
 1459ntf    fn412698   4.186   3.541   2.928  0.0009  0.2941 -0.2887
 1459ntf    on512699   4.520   3.622   2.778 -0.2313  0.1330  0.2977
 1459ntf    on512700   4.340   3.501   2.667 -0.0359  0.2056  0.3920
 1459ntf    on512701   4.072   3.625   2.702  0.2834 -0.2878  0.0395
 1459ntf    on512702   4.081   3.860   2.771 -0.0401  0.3410 -0.1699
 1459ntf    fn412703   4.050   3.842   2.498  0.2011 -0.2130 -0.2499
 1459ntf    fn412704   4.221   3.701   2.473  0.5817 -0.3135 -0.0367
 1459ntf    fn412705   4.250   3.907   2.529  0.2186 -0.3573  0.1987
 1460ntf    cn112706   0.519   3.255   3.857 -0.0030  0.2668  0.2177
 1460ntf    sn212707   0.434   3.118   3.940  0.5463 -0.2090  0.0025
 1460ntf    nn312708   0.303   3.108   3.854 -0.0175  0.1646  0.8024
 1460ntf    sn212709   0.161   3.058   3.898 -0.1813 -0.3367 -0.2497
 1460ntf    cn112710   0.114   2.943   3.766 -0.2858 -0.0406 -0.4695
 1460ntf    fn412711   0.530   3.239   3.726 -0.0944  0.3290  0.2031
 1460ntf    fn412712   0.454   3.368   3.878 -0.4643  0.0554 -0.0538
 1460ntf    fn412713   0.641   3.264   3.909  0.0509  0.1015  0.1200
 1460ntf    on512714   0.518   3.003   3.914  0.3437 -0.2631 -0.4302
 1460ntf    on512715   0.421   3.158   4.078  0.5298 -0.4825  0.0821
 1460ntf    on512716   0.164   2.975   4.017  0.2557  0.4418  0.2928
 1460ntf    on512717   0.064   3.164   3.890 -0.0301 -0.2243 -0.6020
 1460ntf    fn412718  -0.005   2.888   3.782 -0.2544 -0.0071 -0.1274
 1460ntf    fn412719   0.197   2.845   3.736  0.3643  0.2203  0.4458
 1460ntf    fn412720   0.100   3.012   3.653 -0.0046  0.6102 -0.1106
 1461ntf    cn112721   3.262   2.120   1.526  0.6300  0.0003 -0.1259
 1461ntf    sn212722   3.316   2.000   1.651 -0.1528 -0.0340  0.1854
 1461ntf    nn312723   3.183   1.918   1.668 -0.1485 -0.1450 -0.3015
 1461ntf    sn212724   3.107   1.895   1.804 -0.1015 -0.2511 -0.2930
 1461ntf    cn112725   3.177   1.733   1.847 -0.0786 -0.1627 -0.0003
 1461ntf    fn412726   3.240   2.066   1.408  0.1371 -0.3146  0.1054
 1461ntf    fn412727   3.147   2.175   1.562  0.5529 -0.1463 -0.1515
 1461ntf    fn412728   3.345   2.221   1.505  0.3113  0.2844 -0.0304
 1461ntf    on512729   3.412   1.920   1.580 -0.1307  0.0008  0.1765
 1461ntf    on512730   3.360   2.087   1.758 -0.5965  0.2547  0.1364
 1461ntf    on512731   3.136   1.989   1.908  0.2203 -0.2888 -0.3474
 1461ntf    on512732   2.969   1.860   1.780 -0.2779  0.3747 -0.2123
 1461ntf    fn412733   3.126   1.638   1.770  0.0724 -0.1132 -0.1602
 1461ntf    fn412734   3.132   1.708   1.970  0.6669  0.0173  0.3120
 1461ntf    fn412735   3.309   1.728   1.838 -0.0816 -0.1757 -0.0412
 1462ntf    cn112736   6.439   0.971   2.882 -0.1209  0.1548  0.1393
 1462ntf    sn212737   6.566   0.930   3.005  0.1642  0.1749 -0.1478
 1462ntf    nn312738   6.694   0.916   2.914  0.5705 -0.2707  0.4873
 1462ntf    sn212739   6.805   1.022   2.881 -0.1253  0.3041 -0.0295
 1462ntf    cn112740   6.929   0.975   3.005 -0.3209 -0.0750  0.0260
 1462ntf    fn412741   6.412   0.866   2.806 -0.1161  0.1396  0.1589
 1462ntf    fn412742   6.324   1.013   2.933 -0.4945 -0.7187  0.0255
 1462ntf    fn412743   6.483   1.059   2.794 -0.3609 -0.2059 -0.3490
 1462ntf    on512744   6.559   1.036   3.103  0.5721 -0.1560  0.2430
 1462ntf    on512745   6.522   0.798   3.042 -0.0521  0.1641 -0.4391
 1462ntf    on512746   6.865   0.998   2.752 -0.3312 -0.1889 -0.0365
 1462ntf    on512747   6.770   1.159   2.908 -0.3661  0.1654  0.3593
 1462ntf    fn412748   6.956   0.846   3.016 -0.0518 -0.0244 -0.0265
 1462ntf    fn412749   6.881   1.008   3.123 -0.0308  0.1294  0.0889
 1462ntf    fn412750   7.048   1.033   2.993 -0.0242 -0.6242  0.2731
 1463ntf    cn112751   1.058   0.603   3.176  0.0326  0.1689 -0.5062
 1463ntf    sn212752   1.211   0.697   3.147  0.0581  0.3222  0.1023
 1463ntf    nn312753   1.227   0.670   2.993  0.1391  0.1195  0.1453
 1463ntf    sn212754   1.283   0.768   2.884  0.1630  0.0345  0.0817
 1463ntf    cn112755   1.126   0.802   2.800  0.1136 -0.5112 -0.0496
 1463ntf    fn412756   1.079   0.472   3.173 -0.2683  0.0877  0.5007
 1463ntf    fn412757   1.008   0.633   3.295  0.5676 -0.2615 -0.1661
 1463ntf    fn412758   0.968   0.636   3.085  0.0024 -0.2843 -0.6434
 1463ntf    on512759   1.175   0.832   3.183 -0.7778  0.0891  0.1641
 1463ntf    on512760   1.310   0.633   3.231 -0.2673 -0.2534  0.0533
 1463ntf    on512761   1.335   0.898   2.921  0.4408  0.0611 -0.3911
 1463ntf    on512762   1.356   0.703   2.777 -0.6760 -0.1374 -0.3919
 1463ntf    fn412763   1.064   0.688   2.772 -0.0922 -0.3917 -0.0856
 1463ntf    fn412764   1.140   0.860   2.681 -0.1982  0.0321  0.1733
 1463ntf    fn412765   1.043   0.883   2.864 -0.1149 -0.1686 -0.7633
 1464ntf    cn112766   2.990   2.320   6.403  0.2414 -0.0039  0.0091
 1464ntf    sn212767   2.963   2.222   6.252  0.1735  0.2507 -0.1444
 1464ntf    nn312768   3.100   2.147   6.241 -0.0823 -0.2489  0.0588
 1464ntf    sn212769   3.146   2.010   6.302 -0.0007 -0.3115 -0.1445
 1464ntf    cn112770   3.107   1.891   6.170 -0.0990 -0.3424 -0.0877
 1464ntf    fn412771   3.084   2.414   6.403 -0.1213  0.3625 -0.0835
 1464ntf    fn412772   2.883   2.386   6.444  0.1777 -0.0855 -0.0260
 1464ntf    fn412773   3.018   2.249   6.511 -0.1365 -0.5243 -0.2338
 1464ntf    on512774   2.841   2.145   6.263  0.0712  0.4118 -0.1422
 1464ntf    on512775   2.953   2.320   6.147 -0.4785  0.4941  0.1363
 1464ntf    on512776   3.289   1.993   6.313  0.0645  0.3265  0.0398
 1464ntf    on512777   3.066   1.965   6.413 -0.1570 -0.0871 -0.1657
 1464ntf    fn412778   3.121   1.768   6.218 -0.0657 -0.5945 -0.7393
 1464ntf    fn412779   3.190   1.898   6.067  0.2465 -0.3033  0.1934
 1464ntf    fn412780   2.984   1.903   6.122 -0.1717  0.2765  0.2370
 1465ntf    cn112781   1.708   6.044   6.110 -0.1191 -0.0269  0.2035
 1465ntf    sn212782   1.873   6.009   6.176 -0.0529  0.1855  0.1523
 1465ntf    nn312783   1.958   6.119   6.102 -0.3575 -0.0203 -0.5013
 1465ntf    sn212784   2.060   6.089   5.986  0.1845  0.1118 -0.0620
 1465ntf    cn112785   1.954   6.092   5.838 -0.0305 -0.1142  0.0867
 1465ntf    fn412786   1.680   6.173   6.095 -0.1689 -0.0184  0.3611
 1465ntf    fn412787   1.700   6.001   5.985 -0.2135  0.4159  0.0543
 1465ntf    fn412788   1.602   6.005   6.179 -0.2668 -0.1742 -0.1048
 1465ntf    on512789   1.877   6.034   6.318  0.3388 -0.0380  0.1823
 1465ntf    on512790   1.898   5.874   6.132 -0.2914  0.2304 -0.1201
 1465ntf    on512791   2.143   6.206   5.974  0.1162  0.0983 -0.6760
 1465ntf    on512792   2.125   5.961   5.977  0.0328  0.0193  0.1348
 1465ntf    fn412793   1.860   6.185   5.835  0.0728 -0.0387 -1.0604
 1465ntf    fn412794   1.881   5.982   5.823 -0.0308 -0.0418 -0.4352
 1465ntf    fn412795   2.018   6.105   5.724 -0.0249  0.3762  0.1467
 1466ntf    cn112796   4.231   5.186   0.082  0.2885 -0.2138 -0.0447
 1466ntf    sn212797   4.270   5.138  -0.089 -0.2946 -0.0290 -0.2327
 1466ntf    nn312798   4.409   5.208  -0.111 -0.0523 -0.4162  0.0463
 1466ntf    sn212799   4.531   5.148  -0.190  0.2299 -0.0263  0.1865
 1466ntf    cn112800   4.581   5.297  -0.282  0.3892 -0.0078  0.3035
 1466ntf    fn412801   4.137   5.110   0.137  0.3964  0.2108  0.7423
 1466ntf    fn412802   4.332   5.170   0.165  0.0998 -0.6851  0.1012
 1466ntf    fn412803   4.180   5.308   0.086  0.1248 -0.2750 -0.2491
 1466ntf    on512804   4.275   4.996  -0.068 -1.2116  0.0392  0.5446
 1466ntf    on512805   4.161   5.181  -0.172  0.4365  0.3466 -1.0053
 1466ntf    on512806   4.639   5.119  -0.099  0.5187 -0.3403 -0.2531
 1466ntf    on512807   4.485   5.054  -0.289  0.2646 -0.0281  0.1714
 1466ntf    fn412808   4.566   5.411  -0.218 -0.1162 -0.0921  0.3387
 1466ntf    fn412809   4.521   5.307  -0.400  0.1115 -0.3863  0.4116
 1466ntf    fn412810   4.706   5.274  -0.319  0.3785  0.0812  0.2116
 1467ntf    cn112811   4.299   3.062   5.492  0.0093 -0.3966  0.1002
 1467ntf    sn212812   4.242   2.919   5.395 -0.3054 -0.1566 -0.0697
 1467ntf    nn312813   4.189   2.823   5.508 -0.0233 -0.1140  0.0975
 1467ntf    sn212814   4.281   2.745   5.609  0.1763 -0.2136 -0.1605
 1467ntf    cn112815   4.218   2.577   5.580 -0.5052  0.0849 -0.4323
 1467ntf    fn412816   4.349   3.156   5.414 -0.7527  0.0837  0.1805
 1467ntf    fn412817   4.204   3.132   5.553  0.1481  0.2505 -0.4170
 1467ntf    fn412818   4.389   3.030   5.583  0.0805 -0.2931  0.0662
 1467ntf    on512819   4.130   2.982   5.328 -0.0097  0.7644  0.2877
 1467ntf    on512820   4.355   2.881   5.315 -0.1553 -0.6904  0.3919
 1467ntf    on512821   4.418   2.733   5.566  0.2090 -0.0513 -0.1066
 1467ntf    on512822   4.247   2.773   5.746 -0.4020  0.1436 -0.3711
 1467ntf    fn412823   4.086   2.575   5.570 -0.5640  0.4458  0.2154
 1467ntf    fn412824   4.250   2.507   5.687  0.4528  0.5293 -0.4147
 1467ntf    fn412825   4.263   2.520   5.470 -0.0886 -0.1165 -0.1586
 1468ntf    cn112826   5.712   0.579   5.443  0.2682 -0.0170  0.0298
 1468ntf    sn212827   5.692   0.586   5.262 -0.4886  0.1131  0.1162
 1468ntf    nn312828   5.569   0.491   5.239  0.0633 -0.3985 -0.7557
 1468ntf    sn212829   5.417   0.526   5.222 -0.0041 -0.3151 -0.0403
 1468ntf    cn112830   5.394   0.518   5.041 -0.1416 -0.0543 -0.0347
 1468ntf    fn412831   5.833   0.555   5.490  0.1342 -0.4022  0.1775
 1468ntf    fn412832   5.682   0.696   5.497 -0.5652 -0.2120 -0.0036
 1468ntf    fn412833   5.638   0.493   5.511  0.3069 -0.2668 -0.2441
 1468ntf    on512834   5.664   0.726   5.243  0.2097  0.3419  0.7221
 1468ntf    on512835   5.815   0.531   5.211 -0.2983  0.3444  0.3193
 1468ntf    on512836   5.330   0.417   5.260 -0.1282 -0.1489  0.1494
 1468ntf    on512837   5.368   0.658   5.252 -0.6233 -0.5111 -0.1746
 1468ntf    fn412838   5.405   0.397   4.989 -0.3499 -0.2000  0.2552
 1468ntf    fn412839   5.489   0.589   4.982  0.1204 -0.2583  0.1361
 1468ntf    fn412840   5.274   0.562   5.011 -0.1202  0.0985  0.0995
 1469ntf    cn112841   6.586   4.517   4.807 -0.0126  0.2770 -0.2153
 1469ntf    sn212842   6.595   4.663   4.915  0.1257  0.0896  0.0290
 1469ntf    nn312843   6.514   4.761   4.823 -0.2805  0.2086  0.5082
 1469ntf    sn212844   6.569   4.882   4.739 -0.2221 -0.0754  0.1328
 1469ntf    cn112845   6.639   4.988   4.868  0.2829 -0.1180 -0.1041
 1469ntf    fn412846   6.637   4.536   4.686  0.3668  0.2759 -0.0563
 1469ntf    fn412847   6.648   4.413   4.860 -0.0371  0.3086 -0.1235
 1469ntf    fn412848   6.462   4.480   4.782  0.0186 -0.3396  0.4897
 1469ntf    on512849   6.515   4.624   5.028  0.0813  0.0404 -0.0198
 1469ntf    on512850   6.736   4.681   4.940  0.1263 -0.3433  0.3539
 1469ntf    on512851   6.686   4.853   4.660 -0.2137 -0.0889  0.1503
 1469ntf    on512852   6.472   4.961   4.667  0.1601  0.1620 -0.1222
 1469ntf    fn412853   6.556   5.001   4.970  0.4002 -0.3227  0.0174
 1469ntf    fn412854   6.667   5.111   4.827  0.7227 -0.2425 -0.1868
 1469ntf    fn412855   6.753   4.944   4.920  0.0334 -0.7876 -0.1248
 1470ntf    cn112856   4.303   5.047   4.091 -0.2388  0.4245  0.2510
 1470ntf    sn212857   4.352   5.103   3.925  0.0330  0.1680  0.2433
 1470ntf    nn312858   4.483   5.016   3.918 -0.2605 -0.2699  0.0907
 1470ntf    sn212859   4.617   5.065   3.853 -0.3550 -0.2936 -0.1227
 1470ntf    cn112860   4.701   5.131   4.000 -0.5734 -0.2668 -0.0089
 1470ntf    fn412861   4.394   5.054   4.187 -0.2028  0.0248  0.2498
 1470ntf    fn412862   4.195   5.104   4.141 -0.6011  0.2982 -0.3854
 1470ntf    fn412863   4.282   4.916   4.084 -0.2577  0.4111  0.5262
 1470ntf    on512864   4.248   5.056   3.836  0.1121  0.7166 -0.1392
 1470ntf    on512865   4.364   5.246   3.935 -0.1653  0.2116 -0.1389
 1470ntf    on512866   4.693   4.950   3.810 -0.1429 -0.1813 -0.0512
 1470ntf    on512867   4.617   5.179   3.766  0.0923  0.0103  0.2692
 1470ntf    fn412868   4.627   5.216   4.070 -0.3358  0.0025 -0.0807
 1470ntf    fn412869   4.808   5.203   3.968 -0.4770 -0.4936 -0.2031
 1470ntf    fn412870   4.743   5.039   4.086  0.3877  0.3836  0.2409
 1471ntf    cn112871   3.051   4.642   4.606  0.1859 -0.0456  0.0138
 1471ntf    sn212872   3.057   4.504   4.487  0.0576  0.2153 -0.2981
 1471ntf    nn312873   3.143   4.401   4.570  0.1582  0.7736  0.3012
 1471ntf    sn212874   3.292   4.356   4.555 -0.1190 -0.0667  0.0244
 1471ntf    cn112875   3.278   4.188   4.624  0.0061 -0.2007 -0.2773
 1471ntf    fn412876   3.014   4.607   4.728  0.3515  0.2491  0.1483
 1471ntf    fn412877   3.164   4.709   4.620  0.1688 -0.0559  0.2011
 1471ntf    fn412878   2.966   4.737   4.571  0.3929 -0.1059 -0.6659
 1471ntf    on512879   2.923   4.455   4.468  0.2233 -0.2790 -0.1995
 1471ntf    on512880   3.117   4.563   4.370  0.2437  0.5306 -0.0488
 1471ntf    on512881   3.357   4.339   4.428  0.3956  0.3562  0.2272
 1471ntf    on512882   3.371   4.420   4.658  0.1680 -0.0216 -0.2227
 1471ntf    fn412883   3.382   4.109   4.602 -0.3003 -0.7087  0.0943
 1471ntf    fn412884   3.178   4.127   4.562  0.1012 -0.4661 -0.1692
 1471ntf    fn412885   3.255   4.177   4.753 -0.3430 -0.3400 -0.3501
 1472ntf    cn112886   1.458   1.662   0.480  0.3125  0.1226 -0.3750
 1472ntf    sn212887   1.307   1.588   0.410  0.2302 -0.1080  0.0458
 1472ntf    nn312888   1.198   1.690   0.459  0.0047 -0.0738 -0.5183
 1472ntf    sn212889   1.134   1.808   0.377  0.1496  0.2554 -0.1611
 1472ntf    cn112890   1.057   1.902   0.513 -0.0740  0.0096 -0.1172
 1472ntf    fn412891   1.562   1.626   0.407  0.3856 -0.6676  0.1054
 1472ntf    fn412892   1.461   1.794   0.474 -0.0737  0.1725  0.4170
 1472ntf    fn412893   1.483   1.626   0.604 -0.4572 -0.1047 -0.2791
 1472ntf    on512894   1.323   1.567   0.268  0.3834  0.5385 -0.0359
 1472ntf    on512895   1.298   1.466   0.487  0.5939 -0.1535  0.0194
 1472ntf    on512896   1.238   1.891   0.320 -0.2098  0.4396 -0.5509
 1472ntf    on512897   1.030   1.761   0.290  0.1527  0.1225 -0.0933
 1472ntf    fn412898   0.997   2.011   0.469 -0.0630  0.0559 -0.0184
 1472ntf    fn412899   1.145   1.939   0.604 -0.3492  0.2131  0.0666
 1472ntf    fn412900   0.977   1.818   0.577 -0.3685  0.5989  0.2882
 1473ntf    cn112901   1.621   3.335   5.383 -0.1397 -0.0249  0.0456
 1473ntf    sn212902   1.770   3.257   5.313 -0.1063 -0.0440  0.1375
 1473ntf    nn312903   1.732   3.257   5.161 -0.3382 -0.2491  0.1946
 1473ntf    sn212904   1.834   3.240   5.043 -0.5311 -0.4407  0.0540
 1473ntf    cn112905   1.742   3.129   4.932 -0.2663 -0.1639 -0.4470
 1473ntf    fn412906   1.599   3.321   5.513  0.1759  0.4581  0.1535
 1473ntf    fn412907   1.605   3.465   5.362 -0.0122  0.0821  0.5988
 1473ntf    fn412908   1.510   3.286   5.330  0.2701 -0.7131 -0.1876
 1473ntf    on512909   1.880   3.345   5.344  0.0428 -0.0833 -0.2718
 1473ntf    on512910   1.770   3.129   5.379  0.4994 -0.2509 -0.2669
 1473ntf    on512911   1.846   3.359   4.962  0.5414 -0.8639 -0.4394
 1473ntf    on512912   1.951   3.159   5.069 -0.1038  0.2040  0.1519
 1473ntf    fn412913   1.616   3.166   4.916 -0.3394 -0.1470  0.1400
 1473ntf    fn412914   1.738   3.009   4.987  0.5805  0.0494  0.0947
 1473ntf    fn412915   1.806   3.122   4.816 -0.4190 -0.0228 -0.5413
 1474ntf    cn112916   3.969   3.315   0.523  0.2960 -0.1552  0.4089
 1474ntf    sn212917   4.084   3.452   0.556  0.4553 -0.1847 -0.0210
 1474ntf    nn312918   4.173   3.443   0.427  0.4023  0.0141 -0.0708
 1474ntf    sn212919   4.152   3.518   0.290  0.5587  0.0015 -0.1014
 1474ntf    cn112920   4.163   3.383   0.169  0.1186  0.3523 -0.5373
 1474ntf    fn412921   3.840   3.338   0.541  0.2775 -0.3703  0.5583
 1474ntf    fn412922   3.987   3.265   0.402  0.0939  0.6398  0.0420
 1474ntf    fn412923   3.999   3.214   0.603  0.3956 -0.1350  0.3973
 1474ntf    on512924   3.999   3.567   0.570  0.2299 -0.3458 -0.0658
 1474ntf    on512925   4.155   3.411   0.675 -0.2042 -0.0892  0.4125
 1474ntf    on512926   4.017   3.566   0.276  0.3103 -0.6766 -0.0830
 1474ntf    on512927   4.267   3.599   0.257  0.2310  0.4091 -0.2492
 1474ntf    fn412928   4.071   3.289   0.182 -0.2830  0.7897 -0.1989
 1474ntf    fn412929   4.276   3.314   0.168 -0.0799  0.0272 -0.5852
 1474ntf    fn412930   4.149   3.434   0.048 -0.4627 -0.0718 -0.6521
 1475ntf    cn112931   1.853   5.322   4.494  0.1139  0.2045 -0.1419
 1475ntf    sn212932   1.757   5.179   4.436  0.0122  0.3234 -0.2664
 1475ntf    nn312933   1.709   5.212   4.290  0.1054 -0.5312 -0.4967
 1475ntf    sn212934   1.562   5.225   4.236  0.1307 -0.3011 -0.5128
 1475ntf    cn112935   1.585   5.303   4.073 -0.4706  0.2383 -0.3433
 1475ntf    fn412936   1.901   5.293   4.614  0.2336  0.0036 -0.2372
 1475ntf    fn412937   1.949   5.344   4.406  0.3951 -0.5185 -0.0263
 1475ntf    fn412938   1.779   5.430   4.514 -0.1274 -0.0873  0.5749
 1475ntf    on512939   1.849   5.068   4.449 -0.4723 -0.0216  0.2500
 1475ntf    on512940   1.645   5.175   4.526  0.3485  0.0336  0.1380
 1475ntf    on512941   1.500   5.102   4.193 -0.3191 -0.3379  0.2223
 1475ntf    on512942   1.477   5.320   4.302  0.6561  0.2439 -0.6063
 1475ntf    fn412943   1.475   5.308   4.001 -0.3759 -0.7553 -0.5720
 1475ntf    fn412944   1.679   5.241   4.004  0.0331  0.2054  0.3520
 1475ntf    fn412945   1.634   5.425   4.087 -0.1207  0.0288  0.3163
 1476ntf    cn112946   4.166   0.507   4.270  0.1707  0.1303  0.2016
 1476ntf    sn212947   4.214   0.612   4.410  0.0512  0.1356  0.2393
 1476ntf    nn312948   4.299   0.514   4.499 -0.0230 -0.1928 -0.0518
 1476ntf    sn212949   4.264   0.443   4.635 -0.1854  0.2968  0.1613
 1476ntf    cn112950   4.295   0.573   4.758 -0.6262  0.4322  0.1324
 1476ntf    fn412951   4.125   0.388   4.312  0.0669 -0.0335 -0.3512
 1476ntf    fn412952   4.065   0.556   4.201  0.0209 -0.4363  0.0103
 1476ntf    fn412953   4.263   0.484   4.183  0.1925  0.0215  0.2543
 1476ntf    on512954   4.293   0.716   4.350  0.6596 -0.3488  0.1829
 1476ntf    on512955   4.088   0.652   4.467 -0.1890 -0.1259 -0.1077
 1476ntf    on512956   4.128   0.401   4.661  0.0257 -0.1567  0.5370
 1476ntf    on512957   4.364   0.344   4.663 -0.0023  0.4427  0.0243
 1476ntf    fn412958   4.213   0.676   4.752 -0.5293  0.4983 -0.0620
 1476ntf    fn412959   4.415   0.628   4.754 -0.2666 -0.3254  0.3269
 1476ntf    fn412960   4.284   0.525   4.881 -0.1096  0.3979  0.1668
 1477ntf    cn112961   2.258   3.231   0.942  0.2563  0.1065  0.1465
 1477ntf    sn212962   2.090   3.166   0.965  0.1610  0.4241  0.3506
 1477ntf    nn312963   2.020   3.299   1.012  0.0464  0.5664 -0.2196
 1477ntf    sn212964   2.013   3.367   1.153  0.2040  0.6156 -0.2349
 1477ntf    cn112965   1.877   3.267   1.219  0.2801  0.5783 -0.1355
 1477ntf    fn412966   2.250   3.335   0.861  0.3375  0.0244  0.0329
 1477ntf    fn412967   2.315   3.284   1.050  0.1821 -0.2200  0.3491
 1477ntf    fn412968   2.345   3.147   0.888 -0.7104 -0.6584 -0.2467
 1477ntf    on512969   2.057   3.140   0.827  0.0696 -0.5178  0.5432
 1477ntf    on512970   2.106   3.057   1.058  0.0743  0.1499  0.0454
 1477ntf    on512971   2.127   3.334   1.235 -0.1019  0.4594  0.1320
 1477ntf    on512972   1.964   3.503   1.144 -0.6010  0.2918 -0.8624
 1477ntf    fn412973   1.885   3.136   1.198 -0.2251  0.5607 -0.2303
 1477ntf    fn412974   1.759   3.308   1.175  0.1031  0.2378  0.0148
 1477ntf    fn412975   1.875   3.274   1.352  0.4671  0.4439 -0.1249
 1478ntf    cn112976   3.541   2.599   1.171  0.0903 -0.3439 -0.3828
 1478ntf    sn212977   3.529   2.763   1.093  0.2267 -0.0103  0.2907
 1478ntf    nn312978   3.385   2.749   1.032  0.2639  0.3879  0.1120
 1478ntf    sn212979   3.247   2.770   1.105  0.1301  0.0281 -0.0371
 1478ntf    cn112980   3.216   2.939   1.046 -0.1972  0.0044  0.0654
 1478ntf    fn412981   3.534   2.499   1.084  0.3477 -0.4937 -0.2325
 1478ntf    fn412982   3.657   2.592   1.234 -0.4247 -0.7077  0.5429
 1478ntf    fn412983   3.451   2.590   1.268  0.3793 -0.0436 -0.0844
 1478ntf    on512984   3.547   2.858   1.199  0.2920  0.0452  0.2296
 1478ntf    on512985   3.636   2.755   0.997  0.2460 -0.1945  0.3271
 1478ntf    on512986   3.147   2.693   1.035 -0.1950  0.7156 -0.3366
 1478ntf    on512987   3.246   2.779   1.249  0.5059 -0.4404 -0.0010
 1478ntf    fn412988   3.187   2.937   0.917  0.3281 -0.2002 -0.0524
 1478ntf    fn412989   3.324   3.015   1.051  0.0234 -0.3127  0.1758
 1478ntf    fn412990   3.124   3.012   1.106  0.1680  0.6108 -0.1063
 1479ntf    cn112991   1.955   2.432   5.061  0.0582 -0.4423  0.0884
 1479ntf    sn212992   2.035   2.298   4.968 -0.0096 -0.3693 -0.0755
 1479ntf    nn312993   1.997   2.332   4.820  0.4523 -0.5430 -0.2361
 1479ntf    sn212994   1.885   2.266   4.731 -0.1730 -0.0263  0.1608
 1479ntf    cn112995   1.742   2.359   4.794  0.0320  0.3004  0.1513
 1479ntf    fn412996   1.829   2.401   5.089 -0.0792 -0.1905 -0.2449
 1479ntf    fn412997   2.016   2.460   5.175 -0.1190  0.3443 -0.0072
 1479ntf    fn412998   1.939   2.546   4.997  0.3809 -0.6332 -0.3379
 1479ntf    on512999   2.175   2.315   4.996 -0.1569  0.0908  0.4098
 1479ntf    on513000   1.979   2.175   5.019 -0.4844  0.0327  0.3921
 1479ntf    on513001   1.902   2.312   4.595 -0.2630 -0.0178  0.1524
 1479ntf    on513002   1.846   2.130   4.755 -0.2732 -0.1050 -0.4221
 1479ntf    fn413003   1.699   2.305   4.907  0.0124 -0.0742 -0.0318
 1479ntf    fn413004   1.643   2.362   4.707  0.3757  0.6135 -0.2282
 1479ntf    fn413005   1.766   2.485   4.824  0.1542  0.3001  0.0545
 1480ntf    cn113006   5.445   5.222   3.430  0.7835  0.3152 -0.2344
 1480ntf    sn213007   5.464   5.385   3.508 -0.3201  0.3688 -0.0667
 1480ntf    nn313008   5.359   5.368   3.624 -0.2503 -0.4741 -0.1225
 1480ntf    sn213009   5.376   5.318   3.772 -0.1416 -0.0841 -0.0008
 1480ntf    cn113010   5.226   5.398   3.836 -0.0304 -0.0500  0.2162
 1480ntf    fn413011   5.525   5.202   3.326  0.6139 -0.2781 -0.2519
 1480ntf    fn413012   5.480   5.124   3.512  0.1780  0.4503  0.1909
 1480ntf    fn413013   5.319   5.201   3.397  0.4525  0.4699  0.8836
 1480ntf    on513014   5.605   5.395   3.533 -0.2269  0.0324 -0.4512
 1480ntf    on513015   5.413   5.462   3.397 -0.4109  0.1087 -0.2068
 1480ntf    on513016   5.349   5.177   3.783  0.2999 -0.1536  0.2324
 1480ntf    on513017   5.485   5.367   3.853 -0.5206  0.0993  0.3986
 1480ntf    fn413018   5.230   5.401   3.968 -0.1360  0.0532  0.2175
 1480ntf    fn413019   5.114   5.337   3.801  0.0104  0.0401 -0.0707
 1480ntf    fn413020   5.212   5.524   3.798  0.4799 -0.1153 -0.1995
 1481ntf    cn113021   5.570   0.210   1.706 -0.0950  0.4426 -0.0443
 1481ntf    sn213022   5.405   0.134   1.695 -0.1185  0.4942 -0.0457
 1481ntf    nn313023   5.418   0.031   1.578  0.2208 -0.0423  0.4581
 1481ntf    sn213024   5.382   0.053   1.427  0.3781 -0.0467  0.4195
 1481ntf    cn113025   5.201   0.038   1.422  0.3241  0.5887  0.3517
 1481ntf    fn413026   5.584   0.281   1.817  0.4409  0.6128 -0.2189
 1481ntf    fn413027   5.660   0.113   1.704 -0.3961  0.1621 -0.0850
 1481ntf    fn413028   5.587   0.286   1.599 -0.2923  0.2413 -0.2192
 1481ntf    on513029   5.392   0.067   1.822  0.7159  0.2271 -0.0948
 1481ntf    on513030   5.322   0.250   1.672 -0.6373  0.0325 -0.5213
 1481ntf    on513031   5.406   0.185   1.372 -0.1326 -0.3236 -0.4949
 1481ntf    on513032   5.429  -0.055   1.345  0.0292  0.3485 -0.3152
 1481ntf    fn413033   5.140   0.146   1.469 -0.1958  0.4587 -0.0035
 1481ntf    fn413034   5.160  -0.062   1.498  0.1604 -0.1948 -0.7519
 1481ntf    fn413035   5.160   0.019   1.298  0.5440  0.6232  0.2739
 1482ntf    cn113036   0.802   5.041   5.218 -0.0709 -0.3618  0.0650
 1482ntf    sn213037   0.674   4.944   5.133 -0.0233 -0.3320 -0.0408
 1482ntf    nn313038   0.763   4.848   5.046 -0.1284 -0.2311 -0.2616
 1482ntf    sn213039   0.822   4.706   5.079 -0.2346 -0.1990  0.0721
 1482ntf    cn113040   0.695   4.601   5.002 -0.2166  0.0162 -0.2531
 1482ntf    fn413041   0.905   4.965   5.252  0.5369  0.4910  0.1579
 1482ntf    fn413042   0.858   5.134   5.143 -0.6175 -0.6194 -0.6716
 1482ntf    fn413043   0.754   5.098   5.328  0.3662 -0.1108  0.1290
 1482ntf    on513044   0.599   4.878   5.237  1.0211 -0.8399  0.4110
 1482ntf    on513045   0.609   5.036   5.044 -0.3212 -0.1730  0.3408
 1482ntf    on513046   0.942   4.675   5.004 -0.3001 -0.4231  0.0597
 1482ntf    on513047   0.825   4.678   5.221 -0.1282  0.4090  0.1917
 1482ntf    fn413048   0.584   4.613   5.073 -0.0172 -0.2569  0.1089
 1482ntf    fn413049   0.731   4.475   5.014  0.0995  0.1413  0.1587
 1482ntf    fn413050   0.672   4.627   4.875 -0.7255 -0.5460 -0.2778
 1483ntf    cn113051   3.579   3.967   5.170 -0.1962 -0.1170  0.3693
 1483ntf    sn213052   3.650   3.889   5.319  0.1108 -0.0840  0.2405
 1483ntf    nn313053   3.728   3.771   5.251 -0.3630 -0.1142 -0.2569
 1483ntf    sn213054   3.679   3.623   5.228  0.1182 -0.3372  0.1279
 1483ntf    cn113055   3.737   3.585   5.060  0.0833 -0.0841  0.0581
 1483ntf    fn413056   3.502   4.072   5.195 -0.1582  0.0414 -0.1792
 1483ntf    fn413057   3.674   4.008   5.088 -0.2719  0.1546  0.4170
 1483ntf    fn413058   3.500   3.888   5.099 -0.2385 -0.1099  0.4088
 1483ntf    on513059   3.752   3.979   5.365  0.1383 -0.1683  0.3438
 1483ntf    on513060   3.538   3.858   5.404  0.0085  0.2360  0.2231
 1483ntf    on513061   3.755   3.536   5.314  0.4315  0.1613  0.3589
 1483ntf    on513062   3.539   3.589   5.218 -0.1000  0.5516  0.0756
 1483ntf    fn413063   3.751   3.456   5.038 -0.4485 -0.0210 -0.7170
 1483ntf    fn413064   3.859   3.633   5.040  0.0905 -0.0030  0.3004
 1483ntf    fn413065   3.667   3.640   4.961  0.4237 -0.3365 -0.3270
 1484ntf    cn113066   0.621   4.183   0.441  0.2422  0.3059  0.1327
 1484ntf    sn213067   0.619   4.172   0.623  0.3146  0.1784  0.1261
 1484ntf    nn313068   0.758   4.104   0.651  0.2842 -0.1211 -0.4220
 1484ntf    sn213069   0.786   3.957   0.698  0.1845  0.0571  0.2089
 1484ntf    cn113070   0.923   3.972   0.817  0.0118 -0.5780  0.4922
 1484ntf    fn413071   0.725   4.257   0.407  0.2101  0.3199  0.0657
 1484ntf    fn413072   0.636   4.065   0.383 -0.6886  0.0285  0.4332
 1484ntf    fn413073   0.512   4.233   0.387  0.2001  0.4259  0.3310
 1484ntf    on513074   0.619   4.309   0.667  0.3547  0.1239  0.2935
 1484ntf    on513075   0.502   4.091   0.647  0.4427 -0.3452 -0.9162
 1484ntf    on513076   0.677   3.906   0.776  0.1495  0.5333  0.4745
 1484ntf    on513077   0.841   3.877   0.592  0.2139  0.0855  0.2025
 1484ntf    fn413078   1.037   4.018   0.767 -0.3498 -0.0436  0.1464
 1484ntf    fn413079   0.962   3.854   0.861  0.0976 -0.7799 -0.1069
 1484ntf    fn413080   0.874   4.046   0.915 -0.0925 -0.0368  0.0436
 1485ntf    cn113081   3.132   5.567   1.597  0.0860 -0.3099 -0.2538
 1485ntf    sn213082   3.278   5.670   1.562 -0.1048 -0.1531 -0.5973
 1485ntf    nn313083   3.267   5.684   1.406 -0.6478 -0.7592 -0.6200
 1485ntf    sn213084   3.337   5.787   1.310 -0.1719 -0.5423 -0.0500
 1485ntf    cn113085   3.194   5.895   1.281  0.1212 -0.0664  0.2621
 1485ntf    fn413086   3.128   5.525   1.722  0.3081  0.6750  0.0940
 1485ntf    fn413087   3.019   5.631   1.571  0.1664 -0.1966 -0.3303
 1485ntf    fn413088   3.128   5.456   1.526  0.3933 -0.2811 -0.3192
 1485ntf    on513089   3.253   5.793   1.631  0.1721 -0.4871  0.1066
 1485ntf    on513090   3.391   5.588   1.599  0.3201  0.8880  0.4754
 1485ntf    on513091   3.439   5.875   1.360 -0.6053  0.1102 -0.3032
 1485ntf    on513092   3.366   5.728   1.181  0.1603 -0.2811 -0.0963
 1485ntf    fn413093   3.227   6.002   1.211 -0.1951  0.3838  0.7974
 1485ntf    fn413094   3.137   5.937   1.393 -0.1920  0.5861 -0.1378
 1485ntf    fn413095   3.098   5.826   1.220  0.3887 -0.1502 -0.0691
 1486ntf    cn113096   6.072   6.570   4.538  0.0237  0.2065  0.0735
 1486ntf    sn213097   6.039   6.748   4.520  0.2797  0.2328 -0.1367
 1486ntf    nn313098   5.890   6.727   4.476  0.2253 -0.5716  0.4228
 1486ntf    sn213099   5.821   6.725   4.335  0.4353  0.1577  0.3057
 1486ntf    cn113100   5.784   6.902   4.318 -0.0616  0.0283  0.0376
 1486ntf    fn413101   6.079   6.516   4.417 -0.4414  0.1835  0.0549
 1486ntf    fn413102   6.189   6.550   4.595 -0.1560 -0.2168  0.2961
 1486ntf    fn413103   5.986   6.502   4.611  0.1699 -0.4284 -0.3404
 1486ntf    on513104   6.056   6.793   4.656 -0.2007 -0.2093  0.0702
 1486ntf    on513105   6.134   6.799   4.423  0.2200  0.4037 -0.1070
 1486ntf    on513106   5.902   6.690   4.221  0.3948  0.1509  0.2787
 1486ntf    on513107   5.692   6.662   4.337  0.5525 -0.0828  0.3042
 1486ntf    fn413108   5.729   6.934   4.202  0.2959  0.0385 -0.1307
 1486ntf    fn413109   5.892   6.978   4.322  0.1657 -0.2906  0.0398
 1486ntf    fn413110   5.702   6.946   4.412 -0.4814 -0.3984 -0.1213
 1487ntf    cn113111   2.509   2.756   3.253  0.3403  0.0888  0.0164
 1487ntf    sn213112   2.344   2.708   3.311  0.2639  0.0500 -0.2306
 1487ntf    nn313113   2.306   2.828   3.405  0.3122 -0.1893  0.0966
 1487ntf    sn213114   2.290   2.819   3.561 -0.1284 -0.0487  0.0612
 1487ntf    cn113115   2.110   2.795   3.567 -0.1540  0.0913 -0.1203
 1487ntf    fn413116   2.602   2.783   3.343  0.2698 -0.7298  0.3425
 1487ntf    fn413117   2.557   2.658   3.177 -0.8034 -0.6026  0.1687
 1487ntf    fn413118   2.504   2.858   3.169 -0.0871  0.1264  0.0860
 1487ntf    on513119   2.261   2.711   3.193 -0.3826  0.6989  0.2356
 1487ntf    on513120   2.360   2.578   3.371  0.4523  0.0170 -0.3519
 1487ntf    on513121   2.342   2.705   3.633  0.1682  0.2361  0.3019
 1487ntf    on513122   2.300   2.953   3.614  0.1579 -0.1498  0.2681
 1487ntf    fn413123   2.074   2.760   3.690  0.4688  0.3992  0.1578
 1487ntf    fn413124   2.064   2.709   3.478  0.0730  0.0423 -0.1924
 1487ntf    fn413125   2.052   2.910   3.540 -0.3313 -0.0478 -0.3389
 1488ntf    cn113126   5.661   5.594   0.174 -0.1260 -0.1889  0.0802
 1488ntf    sn213127   5.674   5.576   0.354  0.0350  0.0915  0.0972
 1488ntf    nn313128   5.791   5.471   0.354 -0.1658 -0.1333  0.1174
 1488ntf    sn213129   5.918   5.471   0.445  0.1761 -0.0962 -0.3554
 1488ntf    cn113130   5.849   5.388   0.591  0.1570 -0.1518 -0.3950
 1488ntf    fn413131   5.545   5.651   0.146  0.4016  0.6278 -0.5128
 1488ntf    fn413132   5.744   5.674   0.108  0.2261 -0.5070  0.1324
 1488ntf    fn413133   5.654   5.481   0.106  0.1967 -0.0817 -0.1367
 1488ntf    on513134   5.701   5.709   0.403 -0.0807  0.0164  0.3681
 1488ntf    on513135   5.549   5.515   0.393  0.3957 -0.4398  0.4357
 1488ntf    on513136   6.024   5.387   0.393 -0.0862 -0.2907 -0.5763
 1488ntf    on513137   5.961   5.597   0.501  0.3876 -0.3112 -0.0358
 1488ntf    fn413138   5.941   5.370   0.685 -0.0896 -0.3617 -0.1918
 1488ntf    fn413139   5.789   5.274   0.565  0.5809 -0.4699 -0.0180
 1488ntf    fn413140   5.764   5.466   0.656 -0.1373  0.2821 -1.2918
 1489ntf    cn113141   2.748   4.768   2.152  0.0095 -0.1437 -0.0463
 1489ntf    sn213142   2.752   4.809   1.975  0.2359  0.2090  0.0399
 1489ntf    nn313143   2.881   4.730   1.934 -0.0380 -0.0910 -0.2578
 1489ntf    sn213144   2.880   4.589   1.866  0.3548 -0.1187 -0.2106
 1489ntf    cn113145   3.026   4.599   1.758  0.4670 -0.0515 -0.0531
 1489ntf    fn413146   2.867   4.774   2.209 -0.1086  0.2342  0.1608
 1489ntf    fn413147   2.667   4.844   2.224  0.7477 -0.3332  1.0008
 1489ntf    fn413148   2.704   4.643   2.158  0.3538 -0.2874 -0.4426
 1489ntf    on513149   2.624   4.758   1.931  0.0898  0.4751  0.1488
 1489ntf    on513150   2.776   4.951   1.966 -0.3263  0.3250  0.2896
 1489ntf    on513151   2.902   4.477   1.953  0.2227 -0.2942 -0.4002
 1489ntf    on513152   2.773   4.580   1.769 -0.0825 -0.1572  0.2676
 1489ntf    fn413153   3.050   4.490   1.687 -0.1137 -0.0639 -0.2411
 1489ntf    fn413154   3.134   4.618   1.831  0.4502 -0.2101  0.0125
 1489ntf    fn413155   3.018   4.709   1.685 -0.2581 -0.1947 -0.1988
 1490ntf    cn113156   3.687   3.987   1.701  0.1554 -0.2229 -0.0267
 1490ntf    sn213157   3.515   4.046   1.691  0.1831 -0.1472 -0.0555
 1490ntf    nn313158   3.543   4.159   1.585  0.6389 -0.1239  0.0875
 1490ntf    sn213159   3.528   4.161   1.429  0.1799 -0.2613  0.1275
 1490ntf    cn113160   3.349   4.190   1.415  0.1911 -0.1098  0.2870
 1490ntf    fn413161   3.766   4.085   1.742 -0.2976  0.2222 -0.2014
 1490ntf    fn413162   3.702   3.887   1.786 -0.3637 -0.2871 -0.0106
 1490ntf    fn413163   3.732   3.949   1.583  0.1499 -0.2704 -0.0134
 1490ntf    on513164   3.447   3.926   1.648  0.2135 -0.1688 -0.0445
 1490ntf    on513165   3.488   4.085   1.827  0.5678 -0.1358  0.0189
 1490ntf    on513166   3.593   4.274   1.367 -0.1774 -0.1388 -0.0254
 1490ntf    on513167   3.553   4.035   1.365  0.4515 -0.0850 -0.1214
 1490ntf    fn413168   3.311   4.283   1.502 -0.1447 -0.0305  0.0560
 1490ntf    fn413169   3.273   4.082   1.420  0.1267 -0.0612  0.3572
 1490ntf    fn413170   3.314   4.245   1.300 -0.2210  0.0882  0.5053
 1491ntf    cn113171   3.321   1.020   2.074 -0.4378 -0.6019  0.0569
 1491ntf    sn213172   3.412   0.959   1.929  0.0945 -0.2484  0.2393
 1491ntf    nn313173   3.539   0.895   1.995 -0.0601 -0.4269  0.3626
 1491ntf    sn213174   3.633   0.778   1.950  0.2383 -0.0492  0.0028
 1491ntf    cn113175   3.793   0.840   2.009  0.0339  0.0013  0.5036
 1491ntf    fn413176   3.267   0.933   2.158 -0.1132 -0.8975 -0.0351
 1491ntf    fn413177   3.407   1.087   2.149 -0.4776 -0.2800 -0.1856
 1491ntf    fn413178   3.227   1.105   2.037  0.2342  0.1661  0.1058
 1491ntf    on513179   3.324   0.862   1.868 -0.4303  0.1995  0.2788
 1491ntf    on513180   3.444   1.079   1.856  0.0486 -0.0768  0.5042
 1491ntf    on513181   3.612   0.655   2.023 -0.0245  0.1175  0.2098
 1491ntf    on513182   3.656   0.765   1.808 -0.5209  0.1212 -0.1392
 1491ntf    fn413183   3.896   0.758   2.014  0.1183  0.0567 -0.2532
 1491ntf    fn413184   3.777   0.889   2.131  0.3492  0.1583  0.4852
 1491ntf    fn413185   3.831   0.944   1.937  0.2973 -0.3258  0.1700
 1492ntf    cn113186   3.398   5.487   6.416 -0.2395  0.0449 -0.0192
 1492ntf    sn213187   3.278   5.395   6.316 -0.0275 -0.2197 -0.0313
 1492ntf    nn313188   3.148   5.467   6.369  0.1383  0.0562  0.0043
 1492ntf    sn213189   3.002   5.431   6.325  0.2436  0.2283 -0.4900
 1492ntf    cn113190   2.956   5.557   6.202 -0.4260  0.4223 -0.0453
 1492ntf    fn413191   3.524   5.452   6.394 -0.2311 -0.2308  0.4575
 1492ntf    fn413192   3.393   5.618   6.397 -0.4323 -0.0865 -0.8918
 1492ntf    fn413193   3.372   5.465   6.544  0.0535 -0.2599 -0.0122
 1492ntf    on513194   3.318   5.427   6.181 -0.3082 -0.2192 -0.1157
 1492ntf    on513195   3.294   5.259   6.360 -0.1810  0.0100  0.7562
 1492ntf    on513196   2.989   5.313   6.242  0.1975 -0.2544  0.1985
 1492ntf    on513197   2.905   5.452   6.430  0.2657 -0.0594 -0.4128
 1492ntf    fn413198   2.836   5.539   6.149 -0.1084 -0.2885 -0.5380
 1492ntf    fn413199   3.036   5.563   6.097  0.0090  0.3482  0.2801
 1492ntf    fn413200   2.958   5.679   6.253 -0.2054  0.3889  0.0263
 1493ntf    cn113201   2.707   4.108   3.060 -0.0955 -0.2732 -0.3171
 1493ntf    sn213202   2.853   4.063   3.158 -0.1788  0.0527 -0.0413
 1493ntf    nn313203   2.842   4.162   3.280 -0.3590 -0.2331  0.1762
 1493ntf    sn213204   2.899   4.141   3.425 -0.0502  0.2746  0.1277
 1493ntf    cn113205   2.748   4.074   3.500 -0.0705  0.0316 -0.1285
 1493ntf    fn413206   2.722   4.227   3.005 -0.0982 -0.4051 -0.6036
 1493ntf    fn413207   2.696   4.022   2.960 -0.1699 -0.0458 -0.5066
 1493ntf    fn413208   2.593   4.111   3.126 -0.0410 -0.0331 -0.2346
 1493ntf    on513209   2.833   3.923   3.189 -0.4047  0.1030  0.0402
 1493ntf    on513210   2.957   4.092   3.063  0.1671 -0.4412  0.1763
 1493ntf    on513211   3.003   4.043   3.443 -0.3714 -0.1396 -0.2615
 1493ntf    on513212   2.916   4.265   3.498  0.2617  0.3568 -0.0784
 1493ntf    fn413213   2.641   4.145   3.468 -0.0660 -0.1516 -0.5612
 1493ntf    fn413214   2.741   4.075   3.632 -0.0312  0.3240 -0.1269
 1493ntf    fn413215   2.723   3.951   3.457  0.7006 -0.2543  0.2207
 1494ntf    cn113216   6.414   5.195   2.131  0.0825 -0.2593  0.2867
 1494ntf    sn213217   6.516   5.339   2.087 -0.0642 -0.1838  0.1921
 1494ntf    nn313218   6.465   5.440   2.196 -0.2257  0.1273 -0.1704
 1494ntf    sn213219   6.467   5.596   2.182 -0.2994  0.1410 -0.0357
 1494ntf    cn113220   6.310   5.625   2.096 -0.2658 -0.0842 -0.1754
 1494ntf    fn413221   6.286   5.227   2.136  0.0669 -0.2700 -0.0168
 1494ntf    fn413222   6.422   5.106   2.033  0.7583  0.3544 -0.2241
 1494ntf    fn413223   6.453   5.133   2.241 -0.5303 -0.0111  0.6467
 1494ntf    on513224   6.650   5.289   2.108 -0.2319 -0.6331  0.2079
 1494ntf    on513225   6.479   5.366   1.951  0.3253 -0.1200  0.0984
 1494ntf    on513226   6.455   5.660   2.310 -0.6983 -0.2447  0.1191
 1494ntf    on513227   6.568   5.653   2.096  0.2682 -0.0029  0.5245
 1494ntf    fn413228   6.314   5.616   1.965  0.2883  0.1293 -0.1750
 1494ntf    fn413229   6.268   5.749   2.118 -0.0625 -0.0050 -0.2273
 1494ntf    fn413230   6.222   5.537   2.143 -0.1026 -0.0598  0.1823
 1495ntf    cn113231   5.072   1.915   0.073  0.2342 -0.0209  0.6311
 1495ntf    sn213232   5.055   2.009   0.228 -0.3210  0.3455  0.3492
 1495ntf    nn313233   5.148   1.928   0.325  0.4866 -0.4058 -1.0113
 1495ntf    sn213234   5.303   1.936   0.346  0.2686  0.2675  0.5313
 1495ntf    cn113235   5.310   2.057   0.481  0.5644  0.4892  0.3181
 1495ntf    fn413236   5.002   1.803   0.092 -0.1600  0.1296  0.0707
 1495ntf    fn413237   5.014   1.980  -0.026 -0.2819 -0.4044  0.6743
 1495ntf    fn413238   5.193   1.877   0.036  0.3350  0.5260  0.4054
 1495ntf    on513239   5.105   2.141   0.198 -0.1144  0.2553  0.2970
 1495ntf    on513240   4.918   1.993   0.269 -0.4773  0.1421 -0.2350
 1495ntf    on513241   5.360   1.816   0.403  0.4441  0.1713  0.1569
 1495ntf    on513242   5.369   1.991   0.230 -0.4345  0.3346  0.1605
 1495ntf    fn413243   5.431   2.110   0.490  0.6431  0.3273  0.2221
 1495ntf    fn413244   5.269   2.007   0.596  0.0495  0.0648 -0.0489
 1495ntf    fn413245   5.225   2.156   0.458  0.2630  0.2234  0.2888
 1496ntf    cn113246   4.423   0.631   0.659 -0.1605  0.3149 -0.0487
 1496ntf    sn213247   4.489   0.735   0.525 -0.2878  0.3945 -0.0503
 1496ntf    nn313248   4.374   0.842   0.523 -0.4974  0.1713  0.0683
 1496ntf    sn213249   4.234   0.843   0.453 -0.5476  0.0550  0.1653
 1496ntf    cn113250   4.256   0.985   0.341  0.2753  0.0515  0.3174
 1496ntf    fn413251   4.496   0.524   0.686  0.3617  0.6511 -0.1122
 1496ntf    fn413252   4.425   0.706   0.768  0.3058  0.2337 -0.0013
 1496ntf    fn413253   4.299   0.586   0.646  0.1558 -0.5108 -0.2436
 1496ntf    on513254   4.609   0.789   0.585 -0.0569 -0.3645  0.1833
 1496ntf    on513255   4.497   0.651   0.408 -0.4458  0.2587  0.0357
 1496ntf    on513256   4.199   0.731   0.369  0.5840 -0.2670  0.1177
 1496ntf    on513257   4.129   0.886   0.542 -0.5788 -0.4294  0.3657
 1496ntf    fn413258   4.310   1.089   0.402 -0.0840  0.6085 -0.2964
 1496ntf    fn413259   4.138   1.027   0.297  0.2193 -0.0408  0.3788
 1496ntf    fn413260   4.321   0.958   0.230 -0.3113 -0.2256  0.0343
 1497ntf    cn113261   5.979   2.944   0.647 -0.0081  0.5535 -0.1256
 1497ntf    sn213262   6.085   3.006   0.781 -0.0405  0.1376  0.0942
 1497ntf    nn313263   6.196   3.086   0.705 -0.2456  0.7085  0.3847
 1497ntf    sn213264   6.353   3.089   0.713 -0.2050 -0.0051 -0.0295
 1497ntf    cn113265   6.411   2.971   0.588  0.2374  0.2209 -0.0379
 1497ntf    fn413266   5.875   2.877   0.694  0.2313  0.3246  0.0788
 1497ntf    fn413267   5.933   3.044   0.574 -0.3378  0.3750 -0.1668
 1497ntf    fn413268   6.046   2.858   0.572 -0.1535  0.4193 -0.1011
 1497ntf    on513269   5.996   3.099   0.848  0.0370 -0.0521  0.4643
 1497ntf    on513270   6.131   2.889   0.851  0.0014  0.0397 -0.0970
 1497ntf    on513271   6.394   3.217   0.660 -0.1312  0.1327  0.3585
 1497ntf    on513272   6.414   3.043   0.835 -0.6314 -0.1436  0.1338
 1497ntf    fn413273   6.542   2.963   0.567  0.1781 -0.4635 -0.1776
 1497ntf    fn413274   6.355   2.992   0.470  0.4047  0.1484 -0.1316
 1497ntf    fn413275   6.378   2.847   0.620 -0.0945  0.3847  0.2595
 1498ntf    cn113276   5.667   3.272   1.956 -0.0898  0.2089 -0.0247
 1498ntf    sn213277   5.636   3.356   1.797 -0.0863 -0.0727 -0.1749
 1498ntf    nn313278   5.531   3.467   1.833 -0.0164 -0.1632  0.3172
 1498ntf    sn213279   5.534   3.624   1.826  0.1375 -0.1759  0.1028
 1498ntf    cn113280   5.538   3.644   2.006 -0.5600  0.5409  0.0425
 1498ntf    fn413281   5.699   3.352   2.056 -0.1043  0.3063 -0.0973
 1498ntf    fn413282   5.553   3.218   1.995 -0.0495  0.1355 -0.0083
 1498ntf    fn413283   5.760   3.179   1.947 -0.4720 -0.2018  0.2574
 1498ntf    on513284   5.772   3.395   1.769 -0.1847  0.5205  0.1557
 1498ntf    on513285   5.584   3.254   1.710 -0.3818 -0.0975  0.0263
 1498ntf    on513286   5.651   3.695   1.778 -0.2982  0.4846 -0.0000
 1498ntf    on513287   5.408   3.683   1.789  0.1535 -0.0787  0.2016
 1498ntf    fn413288   5.513   3.768   2.047 -0.0971  0.4637  0.5783
 1498ntf    fn413289   5.658   3.614   2.053 -0.5346 -0.2554 -0.5224
 1498ntf    fn413290   5.456   3.564   2.073  0.3433 -0.4110  0.0235
 1499ntf    cn113291   3.003   0.302   1.638 -0.1348  0.0253 -0.3495
 1499ntf    sn213292   2.953   0.280   1.811  0.1273  0.0403 -0.2723
 1499ntf    nn313293   2.839   0.176   1.785  0.5335 -0.3781 -0.4010
 1499ntf    sn213294   2.761   0.092   1.892  0.1200 -0.0156 -0.4119
 1499ntf    cn113295   2.591   0.153   1.873  0.2815  0.3582 -0.6599
 1499ntf    fn413296   3.112   0.374   1.615  0.1021 -0.0519  0.5138
 1499ntf    fn413297   3.033   0.182   1.589  0.3072  0.0404 -0.1231
 1499ntf    fn413298   2.902   0.344   1.563 -0.6164 -0.4898  0.0002
 1499ntf    on513299   3.069   0.214   1.867 -0.5493 -0.5634  0.4346
 1499ntf    on513300   2.915   0.415   1.847  0.1664  0.1510 -0.6384
 1499ntf    on513301   2.749  -0.042   1.840 -0.6051 -0.2383  0.3009
 1499ntf    on513302   2.794   0.112   2.031  0.0145  0.0346 -0.3935
 1499ntf    fn413303   2.539   0.128   1.754 -0.5868 -0.3567 -0.1395
 1499ntf    fn413304   2.578   0.283   1.896  0.5694  0.2819 -0.0428
 1499ntf    fn413305   2.506   0.096   1.957  0.6281  0.2580 -0.3768
 1500ntf    cn113306   0.325   3.870   3.051  0.1181  0.0820 -0.2299
 1500ntf    sn213307   0.419   3.715   3.063  0.1120  0.1077  0.1493
 1500ntf    nn313308   0.359   3.647   2.935  0.0378  0.3746  0.0411
 1500ntf    sn213309   0.434   3.592   2.809 -0.0898  0.3327 -0.0163
 1500ntf    cn113310   0.362   3.700   2.682  0.0499  0.1534 -0.2493
 1500ntf    fn413311   0.200   3.840   3.018  0.0437 -0.2549  0.3477
 1500ntf    fn413312   0.311   3.944   3.160  0.2449 -0.1467 -0.0579
 1500ntf    fn413313   0.368   3.953   2.957  0.0455  0.4474  0.0542
 1500ntf    on513314   0.555   3.761   3.052  0.2669 -0.2169  0.6447
 1500ntf    on513315   0.371   3.668   3.192  0.3315 -1.1713 -0.2218
 1500ntf    on513316   0.571   3.632   2.787 -0.1278  0.0459 -0.8243
 1500ntf    on513317   0.395   3.457   2.774  0.6751 -0.1417  0.9216
 1500ntf    fn413318   0.230   3.693   2.680  0.0231  0.5958 -0.2268
 1500ntf    fn413319   0.410   3.671   2.562  0.1309 -0.0514 -0.1680
 1500ntf    fn413320   0.397   3.826   2.703  0.4041  0.1327 -0.6932
 1501ntf    cn113321   3.445   0.403   4.735  0.3780 -0.5001 -0.1101
 1501ntf    sn213322   3.403   0.532   4.614  0.4140 -0.2456  0.1481
 1501ntf    nn313323   3.469   0.479   4.482  0.1430  0.3567 -0.2376
 1501ntf    sn213324   3.413   0.366   4.388  0.2587  0.2057 -0.1258
 1501ntf    cn113325   3.349   0.465   4.250 -0.2446 -0.1819 -0.1745
 1501ntf    fn413326   3.575   0.388   4.754  0.3085 -0.6805  0.2344
 1501ntf    fn413327   3.392   0.421   4.855  0.6565  0.1360 -0.0773
 1501ntf    fn413328   3.403   0.282   4.702 -0.5815 -0.2658  0.2293
 1501ntf    on513329   3.259   0.530   4.624  0.4000 -0.3825 -0.0837
 1501ntf    on513330   3.474   0.647   4.666 -0.0329  0.2898 -0.4047
 1501ntf    on513331   3.517   0.288   4.326 -0.2051 -0.2346 -0.3518
 1501ntf    on513332   3.299   0.292   4.436  0.1984  0.0474 -0.5083
 1501ntf    fn413333   3.455   0.518   4.190  0.0253 -0.0490  0.4136
 1501ntf    fn413334   3.274   0.569   4.283 -0.0771  0.1281 -0.7509
 1501ntf    fn413335   3.294   0.392   4.155 -0.2633 -0.3824 -0.0094
 1502ntf    cn113336   6.549   1.675   0.532 -0.3577 -0.0035  0.1318
 1502ntf    sn213337   6.497   1.543   0.418 -0.0767 -0.0806  0.0935
 1502ntf    nn313338   6.609   1.545   0.308  0.3141  0.0878  0.4870
 1502ntf    sn213339   6.593   1.484   0.164 -0.2205  0.4939  0.3708
 1502ntf    cn113340   6.545   1.637   0.078 -0.1869  0.0909 -0.3762
 1502ntf    fn413341   6.675   1.652   0.562 -0.1022  0.3323 -0.6540
 1502ntf    fn413342   6.554   1.797   0.481 -0.4082 -0.0490  0.0177
 1502ntf    fn413343   6.475   1.675   0.641 -0.5018 -0.7993  0.0385
 1502ntf    on513344   6.504   1.427   0.504  0.1666 -0.0874  0.0676
 1502ntf    on513345   6.369   1.585   0.366  0.1315  0.1794 -0.2153
 1502ntf    on513346   6.723   1.448   0.114 -0.3077 -0.2978  0.7104
 1502ntf    on513347   6.480   1.401   0.130 -0.3131  0.7395  0.0642
 1502ntf    fn413348   6.421   1.677   0.104  0.0167  0.3656  0.1914
 1502ntf    fn413349   6.553   1.638  -0.054 -0.3153 -0.1543 -0.3863
 1502ntf    fn413350   6.622   1.738   0.115 -0.6814  0.2260  0.3162
 1503ntf    cn113351   5.525   2.329   3.421 -0.2419  0.2658  0.3115
 1503ntf    sn213352   5.667   2.217   3.400 -0.4181  0.1467 -0.2469
 1503ntf    nn313353   5.599   2.084   3.350  0.3871 -0.2573 -0.2790
 1503ntf    sn213354   5.593   2.013   3.211 -0.1814  0.0991 -0.4414
 1503ntf    cn113355   5.725   1.891   3.237  0.0070  0.4518  0.2645
 1503ntf    fn413356   5.437   2.292   3.513  0.1458  0.0744  0.6117
 1503ntf    fn413357   5.566   2.451   3.455 -0.0631  0.3073 -0.0484
 1503ntf    fn413358   5.453   2.345   3.312  0.1249 -0.3238 -0.0185
 1503ntf    on513359   5.759   2.280   3.309 -0.3535  0.7141  0.2041
 1503ntf    on513360   5.716   2.197   3.534  0.4339 -0.1775 -0.5984
 1503ntf    on513361   5.472   1.937   3.192 -0.5387  0.6089 -0.2083
 1503ntf    on513362   5.657   2.082   3.101  0.3065  0.6116  0.1580
 1503ntf    fn413363   5.831   1.954   3.286  0.5281 -0.1896 -0.0229
 1503ntf    fn413364   5.780   1.840   3.128 -0.4755 -0.3252  0.3730
 1503ntf    fn413365   5.696   1.796   3.325 -0.1400  0.5176  0.2854
 1504ntf    cn113366   3.783   4.115   0.643  0.1915  0.1941 -0.3235
 1504ntf    sn213367   3.859   4.253   0.734 -0.1989  0.1134  0.1319
 1504ntf    nn313368   3.838   4.198   0.880  0.1143 -0.2549  0.0423
 1504ntf    sn213369   3.747   4.269   0.986  0.1297  0.0324 -0.1342
 1504ntf    cn113370   3.620   4.140   1.000  0.1932  0.0193  0.3538
 1504ntf    fn413371   3.657   4.090   0.677  0.5920 -0.0667  1.0147
 1504ntf    fn413372   3.780   4.137   0.513 -0.2075 -0.1417 -0.3719
 1504ntf    fn413373   3.848   4.002   0.663 -0.3757 -0.1811 -0.5923
 1504ntf    on513374   4.001   4.241   0.708 -0.2878 -0.3293 -0.1688
 1504ntf    on513375   3.792   4.372   0.690  0.4642  0.4607  0.0436
 1504ntf    on513376   3.809   4.270   1.117 -0.5252 -0.6131  0.1874
 1504ntf    on513377   3.666   4.382   0.950  0.1697  0.3742  0.8132
 1504ntf    fn413378   3.544   4.149   0.893  0.1028 -0.0978  0.4074
 1504ntf    fn413379   3.545   4.168   1.105  0.0637 -0.1597  0.3104
 1504ntf    fn413380   3.659   4.014   1.016 -0.4198 -0.2598 -0.3005
 1505ntf    cn113381   0.099   2.313   0.857 -0.2273  0.3383 -0.0363
 1505ntf    sn213382   0.129   2.393   1.018 -0.3006  0.0335  0.1304
 1505ntf    nn313383   0.239   2.499   0.983  0.2793 -0.5579  0.1467
 1505ntf    sn213384   0.364   2.543   1.068  0.0559 -0.0729  0.2293
 1505ntf    cn113385   0.495   2.448   0.985 -0.2634  0.1313 -0.5108
 1505ntf    fn413386   0.011   2.383   0.788 -0.0760  0.8159  0.2471
 1505ntf    fn413387   0.208   2.323   0.782 -0.4015  0.4788 -0.2708
 1505ntf    fn413388   0.050   2.190   0.863 -0.1410  0.3121  0.1487
 1505ntf    on513389   0.006   2.461   1.052 -0.2303  0.0266  0.3992
 1505ntf    on513390   0.174   2.285   1.102  0.1393  0.3060  0.2511
 1505ntf    on513391   0.398   2.681   1.045  0.4651 -0.2134 -0.0326
 1505ntf    on513392   0.372   2.503   1.206 -0.0234 -0.5682  0.0914
 1505ntf    fn413393   0.499   2.472   0.855  0.0250  0.5073 -0.4344
 1505ntf    fn413394   0.487   2.317   1.001  0.6570  0.1986  0.5913
 1505ntf    fn413395   0.614   2.486   1.027 -0.5525  0.0078  0.4393
 1506ntf    cn113396   4.908   0.437   3.368  0.3385 -0.5802  0.2998
 1506ntf    sn213397   4.994   0.572   3.282 -0.0516 -0.3452  0.2758
 1506ntf    nn313398   4.885   0.616   3.178  0.2722  0.3374  0.2243
 1506ntf    sn213399   4.796   0.745   3.181  0.0799  0.2106  0.0115
 1506ntf    cn113400   4.895   0.842   3.063 -0.2474  0.2845 -0.2027
 1506ntf    fn413401   4.787   0.472   3.409  0.3298 -0.3528  0.0816
 1506ntf    fn413402   4.889   0.336   3.284  0.2739 -0.1550 -0.2026
 1506ntf    fn413403   4.972   0.398   3.477 -0.3976  0.0499  0.9697
 1506ntf    on513404   5.018   0.671   3.384  0.2781 -0.0413 -0.0950
 1506ntf    on513405   5.109   0.512   3.220 -0.2148 -0.1758 -0.1946
 1506ntf    on513406   4.667   0.723   3.120  0.0781  0.3869 -0.0510
 1506ntf    on513407   4.788   0.824   3.302  0.3650  0.3610 -0.0668
 1506ntf    fn413408   5.020   0.850   3.105 -0.3029  0.5300 -0.0867
 1506ntf    fn413409   4.852   0.967   3.057  0.0771  0.4365  0.5461
 1506ntf    fn413410   4.893   0.781   2.946 -0.3274  0.0803 -0.0962
 1507ntf    cn113411   6.456   3.784   1.917 -0.0827  0.0816 -0.0573
 1507ntf    sn213412   6.420   3.610   1.876 -0.2913  0.1551 -0.1862
 1507ntf    nn313413   6.306   3.582   1.980 -0.1316  0.0370 -0.0418
 1507ntf    sn213414   6.306   3.507   2.118 -0.3016  0.0329 -0.0431
 1507ntf    cn113415   6.152   3.412   2.113 -0.1640 -0.2032  0.1636
 1507ntf    fn413416   6.543   3.822   1.824  0.1373  0.0911  0.1506
 1507ntf    fn413417   6.353   3.867   1.916 -0.0465  0.1258 -0.1703
 1507ntf    fn413418   6.518   3.802   2.032 -0.6305 -0.2853  0.2987
 1507ntf    on513419   6.370   3.631   1.742  0.2528 -0.4880 -0.4929
 1507ntf    on513420   6.548   3.544   1.889 -0.3247  0.1922  0.3391
 1507ntf    on513421   6.409   3.406   2.123  0.4603  0.7765 -0.2788
 1507ntf    on513422   6.293   3.596   2.231  0.9323  0.1770  0.0028
 1507ntf    fn413423   6.131   3.352   1.997  0.1903  0.4232 -0.2279
 1507ntf    fn413424   6.050   3.495   2.123  0.4608  0.5681  0.1928
 1507ntf    fn413425   6.131   3.320   2.205 -0.4574  0.0061  0.3086
 1508ntf    cn113426   0.639   1.570   0.828 -0.1387 -0.3298  0.0044
 1508ntf    sn213427   0.477   1.647   0.800  0.0554  0.0903  0.0386
 1508ntf    nn313428   0.504   1.775   0.886  0.3715 -0.2974  0.5189
 1508ntf    sn213429   0.433   1.837   1.011 -0.1052  0.0446  0.0824
 1508ntf    cn113430   0.374   1.989   0.931  0.4003  0.2402  0.0810
 1508ntf    fn413431   0.632   1.437   0.825  0.6265 -0.3632 -0.4985
 1508ntf    fn413432   0.720   1.610   0.731 -0.2371  0.5577  0.2877
 1508ntf    fn413433   0.687   1.593   0.949  0.1030  0.5226 -0.2473
 1508ntf    on513434   0.478   1.673   0.658 -0.7499  0.2079  0.0476
 1508ntf    on513435   0.384   1.544   0.839  0.1633  0.0002  0.0559
 1508ntf    on513436   0.316   1.770   1.064 -0.0405 -0.1724 -0.0490
 1508ntf    on513437   0.516   1.893   1.115  0.1977 -1.2343  0.5471
 1508ntf    fn413438   0.311   2.071   1.014 -0.0567  0.1936 -0.2151
 1508ntf    fn413439   0.291   1.965   0.831 -0.0769  0.5175  0.4082
 1508ntf    fn413440   0.466   2.060   0.867 -0.1513  0.6318 -0.2865
 1509ntf    cn113441   1.101   0.275   6.602  0.1100  0.2005 -0.0967
 1509ntf    sn213442   0.997   0.423   6.603 -0.1417  0.0245 -0.0403
 1509ntf    nn313443   1.090   0.527   6.530 -0.1966  0.2240  0.1706
 1509ntf    sn213444   1.058   0.613   6.403  0.1231 -0.2009 -0.2053
 1509ntf    cn113445   1.192   0.736   6.403  0.2047 -0.2904 -0.1614
 1509ntf    fn413446   1.162   0.255   6.486  0.2462 -0.9048  0.1515
 1509ntf    fn413447   1.191   0.265   6.698  0.3019  0.0351 -0.2925
 1509ntf    fn413448   1.026   0.168   6.620 -0.1652  0.3796 -0.1779
 1509ntf    on513449   0.878   0.374   6.537  0.3508 -1.0747 -0.1295
 1509ntf    on513450   0.986   0.457   6.742  0.4534 -0.2230  0.0700
 1509ntf    on513451   1.079   0.549   6.275  0.2176 -0.5680 -0.0056
 1509ntf    on513452   0.943   0.699   6.421  0.3498  0.0934 -0.1602
 1509ntf    fn413453   1.181   0.808   6.514 -0.4302 -0.1629 -0.3054
 1509ntf    fn413454   1.196   0.816   6.298  0.8823 -0.3314 -0.1712
 1509ntf    fn413455   1.313   0.681   6.400  0.2807 -0.1093 -0.4977
 1510ntf    cn113456   6.622   6.601   5.151  0.3893 -0.0599 -0.1464
 1510ntf    sn213457   6.595   6.490   5.293 -0.4126  0.3825  0.0546
 1510ntf    nn313458   6.638   6.353   5.230  0.0272  0.2225  0.6966
 1510ntf    sn213459   6.758   6.258   5.266  0.3922  0.3943 -0.0366
 1510ntf    cn113460   6.668   6.124   5.350  0.1316  0.6129  0.0342
 1510ntf    fn413461   6.752   6.616   5.134  0.4858 -0.1876  0.4327
 1510ntf    fn413462   6.577   6.549   5.039  0.1292  0.1291 -0.1306
 1510ntf    fn413463   6.571   6.723   5.165  0.5542  0.0087 -0.1373
 1510ntf    on513464   6.677   6.549   5.395 -0.0613  0.2945 -0.1752
 1510ntf    on513465   6.452   6.492   5.309 -0.3578  0.0857  0.5907
 1510ntf    on513466   6.814   6.185   5.155 -0.3651 -0.6301  0.2284
 1510ntf    on513467   6.845   6.304   5.371  0.6291 -0.0992 -0.0132
 1510ntf    fn413468   6.747   6.031   5.400 -0.1297  0.4514  0.1545
 1510ntf    fn413469   6.586   6.058   5.269  0.2560  0.0317  0.3769
 1510ntf    fn413470   6.606   6.165   5.459  0.2218  0.0785  0.2925
 1511ntf    cn113471   5.759   1.631   5.790 -0.4153  0.1358 -0.2345
 1511ntf    sn213472   5.729   1.582   5.617 -0.7724  0.0458 -0.1470
 1511ntf    nn313473   5.654   1.448   5.648  0.0068 -0.3379  0.0937
 1511ntf    sn213474   5.624   1.331   5.547 -0.2083  0.0039 -0.2395
 1511ntf    cn113475   5.443   1.336   5.536 -0.2205  0.2197  0.0272
 1511ntf    fn413476   5.841   1.547   5.851 -0.1554  0.0907 -0.6357
 1511ntf    fn413477   5.822   1.747   5.791  0.4940 -0.3450 -0.2539
 1511ntf    fn413478   5.650   1.642   5.864 -0.3672 -0.1102 -0.1243
 1511ntf    on513479   5.642   1.690   5.576 -0.2496  0.3651 -0.4259
 1511ntf    on513480   5.863   1.572   5.565 -0.6201  0.7962  0.0782
 1511ntf    on513481   5.665   1.350   5.411 -0.5280  0.0837 -0.3250
 1511ntf    on513482   5.649   1.201   5.603  0.1183 -0.0741 -0.5652
 1511ntf    fn413483   5.404   1.450   5.481  0.2908  0.6551  0.5612
 1511ntf    fn413484   5.391   1.337   5.658 -0.7242  0.0537 -0.1824
 1511ntf    fn413485   5.399   1.233   5.465 -0.4899  0.1067  0.3565
 1512ntf    cn113486   0.296   5.739   0.783  0.3165 -0.6240 -0.2163
 1512ntf    sn213487   0.336   5.858   0.652 -0.0861 -0.1580  0.0815
 1512ntf    nn313488   0.491   5.843   0.630 -0.0439  0.6136 -0.1838
 1512ntf    sn213489   0.578   5.783   0.514 -0.2382 -0.3154  0.1427
 1512ntf    cn113490   0.620   5.937   0.426 -0.0773 -0.5160 -0.1331
 1512ntf    fn413491   0.166   5.714   0.787  0.2172  0.0261  0.6516
 1512ntf    fn413492   0.367   5.628   0.766  0.6329 -0.4172 -0.2612
 1512ntf    fn413493   0.330   5.776   0.905  0.4891 -0.3288 -0.3523
 1512ntf    on513494   0.260   5.811   0.539 -0.3625 -0.0904  0.2403
 1512ntf    on513495   0.304   5.986   0.710  0.0400 -0.3662  0.6146
 1512ntf    on513496   0.711   5.743   0.554  0.1400  0.4983 -0.2675
 1512ntf    on513497   0.525   5.690   0.417  0.0069  0.2330 -0.5317
 1512ntf    fn413498   0.722   5.999   0.482 -0.2227 -0.1213 -0.2991
 1512ntf    fn413499   0.519   6.022   0.418  0.3212 -0.0543 -0.2799
 1512ntf    fn413500   0.668   5.911   0.305 -0.2758 -0.0948 -0.3056
 1513ntf    cn113501   2.662   5.764   5.965 -0.0849  0.2282 -0.2246
 1513ntf    sn213502   2.513   5.859   5.920 -0.0375  0.4358  0.0563
 1513ntf    nn313503   2.548   6.006   5.964  0.5355  0.3855 -0.2103
 1513ntf    sn213504   2.509   6.085   6.094 -0.0150  0.1350 -0.2208
 1513ntf    cn113505   2.671   6.127   6.164  0.0482 -0.0704 -0.2425
 1513ntf    fn413506   2.702   5.763   6.091 -0.3828 -0.2967 -0.1356
 1513ntf    fn413507   2.643   5.636   5.938 -0.4194  0.1658  0.2843
 1513ntf    fn413508   2.763   5.802   5.888  0.1519  0.2567  0.0976
 1513ntf    on513509   2.515   5.864   5.776 -0.1056  0.2324  0.0491
 1513ntf    on513510   2.400   5.805   5.990 -0.0477  0.1397 -0.1897
 1513ntf    on513511   2.444   6.208   6.055  0.0737  0.2806  0.0862
 1513ntf    on513512   2.444   6.013   6.202 -0.1157  0.7135  0.1082
 1513ntf    fn413513   2.731   6.207   6.076 -0.1632  0.1653 -0.1743
 1513ntf    fn413514   2.750   6.021   6.174 -0.4573 -0.3969  0.3291
 1513ntf    fn413515   2.666   6.195   6.277  0.2781 -0.3975 -0.0347
 1514ntf    cn113516   2.015   3.149   4.235 -0.0359 -0.0117  0.6758
 1514ntf    sn213517   1.993   3.071   4.397 -0.2122 -0.3656  0.4817
 1514ntf    nn313518   1.837   3.056   4.407 -0.2627 -0.0325  0.1801
 1514ntf    sn213519   1.745   2.937   4.363  0.1395 -0.1791 -0.2802
 1514ntf    cn113520   1.777   2.823   4.502  0.1980  0.1351 -0.0365
 1514ntf    fn413521   1.931   3.101   4.145  0.3776 -0.0683  0.3166
 1514ntf    fn413522   2.009   3.281   4.232 -0.3086 -0.0353 -0.2202
 1514ntf    fn413523   2.136   3.123   4.187 -0.3262 -0.0854 -0.0334
 1514ntf    on513524   2.075   2.952   4.383  0.2578 -0.0332  0.3750
 1514ntf    on513525   2.041   3.182   4.475 -0.2372  0.2028 -0.3005
 1514ntf    on513526   1.605   2.968   4.374  0.2596  0.1934  0.2728
 1514ntf    on513527   1.789   2.867   4.245  0.7488 -0.1182 -0.0955
 1514ntf    fn413528   1.739   2.874   4.618  0.1789 -0.0182  0.0247
 1514ntf    fn413529   1.904   2.789   4.516  0.1288 -0.1577 -0.1219
 1514ntf    fn413530   1.724   2.703   4.485 -0.1377  0.3500 -0.5595
 1515ntf    cn113531   3.509   0.945   5.275  0.4639 -0.0818 -0.0761
 1515ntf    sn213532   3.567   1.071   5.393  0.1637 -0.0494  0.0396
 1515ntf    nn313533   3.537   0.993   5.526 -0.3110  0.1911  0.0736
 1515ntf    sn213534   3.627   0.896   5.610 -0.3514  0.0691 -0.0216
 1515ntf    cn113535   3.568   0.926   5.779  0.0404 -0.3017  0.1836
 1515ntf    fn413536   3.595   0.846   5.266  0.5834  0.0318 -0.1964
 1515ntf    fn413537   3.388   0.901   5.305  0.1477  0.4152 -0.5995
 1515ntf    fn413538   3.497   0.991   5.151 -0.0364 -0.7587 -0.2862
 1515ntf    on513539   3.706   1.089   5.356  0.0463  0.6061 -0.0971
 1515ntf    on513540   3.474   1.175   5.358  0.3159  0.1134  0.1184
 1515ntf    on513541   3.590   0.759   5.586 -0.0530  0.0637 -0.4586
 1515ntf    on513542   3.770   0.919   5.615 -0.2473 -0.6155  0.2450
 1515ntf    fn413543   3.614   1.037   5.834  0.4504 -0.2946 -0.1757
 1515ntf    fn413544   3.609   0.834   5.865  0.2701 -0.3148  0.0600
 1515ntf    fn413545   3.435   0.928   5.781  0.0401 -0.1314 -0.0172
 1516ntf    cn113546   3.049   1.146   4.926 -0.1637  0.3150 -0.0755
 1516ntf    sn213547   2.909   1.097   4.821  0.0875 -0.2663 -0.1456
 1516ntf    nn313548   2.878   0.951   4.869  0.2586 -0.1507  0.3264
 1516ntf    sn213549   2.738   0.907   4.925 -0.0090  0.1482 -0.1007
 1516ntf    cn113550   2.766   0.928   5.103 -0.0853 -0.1125 -0.0562
 1516ntf    fn413551   3.025   1.136   5.056 -0.4294  0.0095 -0.1463
 1516ntf    fn413552   3.163   1.081   4.911 -0.6623 -0.5581 -0.1542
 1516ntf    fn413553   3.079   1.273   4.908 -0.9374  0.4984 -0.0970
 1516ntf    on513554   2.808   1.198   4.846  0.8142  0.5408 -0.4290
 1516ntf    on513555   2.954   1.096   4.684 -0.0951 -0.2268 -0.2074
 1516ntf    on513556   2.622   0.987   4.893 -0.2081  0.2095  0.7538
 1516ntf    on513557   2.717   0.765   4.911 -0.0087  0.1867 -0.5191
 1516ntf    fn413558   2.650   0.920   5.166  0.1243 -0.2812  0.3120
 1516ntf    fn413559   2.816   1.047   5.132  0.3261 -0.3262  0.1102
 1516ntf    fn413560   2.852   0.840   5.152  0.3523  0.3605  0.0282
 1517ntf    cn113561   4.769   4.060   6.332 -0.2615 -0.0389  0.2467
 1517ntf    sn213562   4.892   3.929   6.298 -0.0479  0.3549 -0.5370
 1517ntf    nn313563   4.933   3.905   6.448 -0.5955 -0.0730 -0.4490
 1517ntf    sn213564   4.896   3.798   6.556  0.1707  0.0786 -0.0256
 1517ntf    cn113565   4.949   3.639   6.484  0.0017 -0.0508  0.1367
 1517ntf    fn413566   4.823   4.169   6.384 -0.6692  0.2251  0.1176
 1517ntf    fn413567   4.726   4.117   6.221  0.0857 -0.5967 -0.1858
 1517ntf    fn413568   4.663   4.020   6.400 -0.1910 -0.0481  0.3504
 1517ntf    on513569   4.806   3.826   6.247 -0.0688  0.1603 -0.1179
 1517ntf    on513570   4.981   3.998   6.209  0.5558 -0.1227 -0.3043
 1517ntf    on513571   4.971   3.813   6.678  0.1368 -0.2927  0.0414
 1517ntf    on513572   4.753   3.795   6.576  0.0407  0.6381 -0.8331
 1517ntf    fn413573   5.058   3.660   6.412  0.1518 -0.1857  0.3246
 1517ntf    fn413574   4.857   3.593   6.401  0.0789  0.2113 -0.0962
 1517ntf    fn413575   4.989   3.545   6.568 -0.7289 -0.3261  0.1809
 1518ntf    cn113576   2.266   6.238   3.472  0.0125  0.1843 -0.4043
 1518ntf    sn213577   2.162   6.387   3.475 -0.1067  0.0928 -0.0479
 1518ntf    nn313578   2.014   6.334   3.473 -0.1649  0.2163  0.5782
 1518ntf    sn213579   1.935   6.275   3.595 -0.3842 -0.3253  0.1760
 1518ntf    cn113580   1.829   6.416   3.636  0.5881  0.4546  0.0376
 1518ntf    fn413581   2.235   6.155   3.570  0.0808  0.1501 -0.4122
 1518ntf    fn413582   2.255   6.166   3.361  0.0566 -0.1113 -0.2186
 1518ntf    fn413583   2.389   6.283   3.487 -0.2787  0.7940  0.1963
 1518ntf    on513584   2.198   6.462   3.593 -0.2477 -0.0790  0.1069
 1518ntf    on513585   2.181   6.450   3.347  0.3331 -0.1349 -0.0946
 1518ntf    on513586   1.842   6.174   3.550 -0.7646  0.2455 -0.3342
 1518ntf    on513587   2.007   6.250   3.717  0.3299 -0.3055 -0.2318
 1518ntf    fn413588   1.895   6.525   3.672  0.1366  0.7828 -0.1241
 1518ntf    fn413589   1.747   6.384   3.735  0.4759  0.5009 -0.0409
 1518ntf    fn413590   1.745   6.447   3.539  0.4741 -0.4600 -0.1632
 1519ntf    cn113591   0.193   5.735   2.651 -0.1314  0.0935  0.3053
 1519ntf    sn213592   0.346   5.751   2.748  0.0716 -0.2967  0.0540
 1519ntf    nn313593   0.315   5.889   2.817  0.2493 -0.2232 -0.0138
 1519ntf    sn213594   0.376   6.030   2.785  0.1022 -0.1253  0.1390
 1519ntf    cn113595   0.226   6.128   2.817  0.1295 -0.0367 -0.0029
 1519ntf    fn413596   0.174   5.827   2.557 -0.1823 -0.4454 -0.2234
 1519ntf    fn413597   0.182   5.616   2.595 -0.0742  0.4131 -0.4024
 1519ntf    fn413598   0.087   5.732   2.729 -0.1868  0.0841  0.2294
 1519ntf    on513599   0.344   5.649   2.850 -0.1850  0.0484  0.3974
 1519ntf    on513600   0.446   5.756   2.645 -0.1020  0.2144 -0.0918
 1519ntf    on513601   0.464   6.070   2.892 -0.0650  0.2241  0.1470
 1519ntf    on513602   0.397   6.052   2.644 -0.1735  0.0737  0.1287
 1519ntf    fn413603   0.205   6.126   2.948 -0.1346 -0.2132 -0.0487
 1519ntf    fn413604   0.118   6.082   2.757  0.2372 -0.1413 -0.1175
 1519ntf    fn413605   0.246   6.255   2.787  0.3049 -0.0311  0.1332
 1520ntf    cn113606   4.128   1.063   4.990 -0.1942 -0.1558 -0.4596
 1520ntf    sn213607   4.027   1.144   4.862  0.0389  0.4936 -0.2371
 1520ntf    nn313608   4.067   1.296   4.862 -0.0049  0.5067  0.1606
 1520ntf    sn213609   4.199   1.359   4.806 -0.0155  0.4803  0.1051
 1520ntf    cn113610   4.142   1.423   4.646  0.1935  0.3843 -0.0071
 1520ntf    fn413611   4.084   1.107   5.107 -0.3834 -0.1982 -0.5141
 1520ntf    fn413612   4.125   0.931   4.985  0.9750 -0.1830 -0.5221
 1520ntf    fn413613   4.254   1.103   4.985 -0.3997  0.6544  0.4050
 1520ntf    on513614   4.070   1.078   4.741  0.5312 -0.3495  0.3938
 1520ntf    on513615   3.890   1.128   4.903 -0.0496 -0.0304 -0.7173
 1520ntf    on513616   4.232   1.472   4.889  0.2763  0.2202  0.3477
 1520ntf    on513617   4.310   1.274   4.771  0.0055  0.1780  0.8920
 1520ntf    fn413618   4.078   1.331   4.576 -0.3598  0.2948  0.6149
 1520ntf    fn413619   4.235   1.472   4.565  0.0325  0.1709 -0.3253
 1520ntf    fn413620   4.055   1.519   4.671 -0.1367  0.0715  0.0596
 1521ntf    cn113621   0.161   6.350   4.332 -0.6255  0.2138 -0.1257
 1521ntf    sn213622   0.120   6.478   4.455 -0.3514  0.0015  0.1901
 1521ntf    nn313623  -0.031   6.500   4.416 -0.2700 -0.0064 -0.1351
 1521ntf    sn213624  -0.165   6.469   4.491 -0.2318 -0.1343 -0.1197
 1521ntf    cn113625  -0.165   6.609   4.607  0.3676  0.0337 -0.3247
 1521ntf    fn413626   0.281   6.300   4.355 -0.4567  0.3819 -0.6375
 1521ntf    fn413627   0.077   6.250   4.349 -0.2981  0.0005  0.2541
 1521ntf    fn413628   0.151   6.394   4.208 -0.0251 -0.3472 -0.3748
 1521ntf    on513629   0.137   6.406   4.579  0.2484 -0.5393 -0.2030
 1521ntf    on513630   0.191   6.599   4.423 -0.1710  0.0369  0.7205
 1521ntf    on513631  -0.284   6.495   4.413 -0.0838  0.4474 -0.1555
 1521ntf    on513632  -0.167   6.347   4.568 -0.3628  0.0988  0.2485
 1521ntf    fn413633  -0.177   6.726   4.547  0.1531  0.1814  0.0037
 1521ntf    fn413634  -0.055   6.601   4.681  0.2452 -0.3455 -0.1803
 1521ntf    fn413635  -0.269   6.592   4.687  0.3961 -0.1662 -0.3284
 1522ntf    cn113636   0.684   2.615   0.350  0.3634 -0.2465  0.1273
 1522ntf    sn213637   0.769   2.457   0.385  0.0378 -0.3953  0.2487
 1522ntf    nn313638   0.894   2.498   0.471  0.1290 -0.3895  0.1138
 1522ntf    sn213639   1.029   2.556   0.417  0.0352 -0.0218  0.2705
 1522ntf    cn113640   1.041   2.701   0.525 -0.2341  0.0277  0.2342
 1522ntf    fn413641   0.753   2.691   0.266  0.1927  0.0094  0.2214
 1522ntf    fn413642   0.567   2.599   0.291  0.5022 -0.5737 -0.0654
 1522ntf    fn413643   0.668   2.681   0.463 -0.1321  0.1098 -0.1496
 1522ntf    on513644   0.674   2.388   0.469 -0.2455 -0.1461  0.1358
 1522ntf    on513645   0.804   2.396   0.259 -0.0944 -0.1562  0.0924
 1522ntf    on513646   1.145   2.482   0.462 -0.0064 -0.0429  0.3421
 1522ntf    on513647   1.030   2.606   0.281  0.2729  0.2404  0.3670
 1522ntf    fn413648   1.032   2.675   0.654 -0.4428 -0.2499  0.1636
 1522ntf    fn413649   0.938   2.781   0.500 -0.4197 -0.2060  0.2525
 1522ntf    fn413650   1.156   2.761   0.498  0.1311 -0.5370  0.5217
 1523ntf    cn113651   2.380   0.715   4.126  0.0973 -0.0456  0.4106
 1523ntf    sn213652   2.540   0.689   4.208  0.3019 -0.1296 -0.0147
 1523ntf    nn313653   2.567   0.539   4.173  0.2432 -0.1595  0.0669
 1523ntf    sn213654   2.615   0.422   4.266  0.3527 -0.3081 -0.1760
 1523ntf    cn113655   2.470   0.382   4.367  0.2617  0.0624 -0.1617
 1523ntf    fn413656   2.382   0.663   4.005 -0.3941 -0.1702  0.4512
 1523ntf    fn413657   2.277   0.660   4.189 -0.2084  0.1286  0.0738
 1523ntf    fn413658   2.346   0.842   4.109  0.3035 -0.0638 -0.1268
 1523ntf    on513659   2.625   0.782   4.138  0.0363 -0.0834 -0.2757
 1523ntf    on513660   2.506   0.714   4.346  0.9714 -0.4970  0.2206
 1523ntf    on513661   2.645   0.302   4.192 -0.1146 -0.0762 -0.7447
 1523ntf    on513662   2.718   0.467   4.357  0.0492 -0.1498  0.0870
 1523ntf    fn413663   2.435   0.489   4.438  0.1867  0.0343 -0.1561
 1523ntf    fn413664   2.502   0.292   4.458  0.7336  0.3189 -0.0671
 1523ntf    fn413665   2.363   0.349   4.296 -0.1118  0.1808  0.3346
 1524ntf    cn113666   6.179   6.625   1.991  0.1169  0.5489  0.0832
 1524ntf    sn213667   6.171   6.619   1.809 -0.0461 -0.0027  0.1064
 1524ntf    nn313668   6.164   6.464   1.784 -0.2010  0.0192  0.0123
 1524ntf    sn213669   6.269   6.351   1.760 -0.4421 -0.1829 -0.0922
 1524ntf    cn113670   6.254   6.310   1.584 -0.1299  0.0580 -0.1754
 1524ntf    fn413671   6.279   6.553   2.039  0.0806  0.6226  0.2695
 1524ntf    fn413672   6.202   6.746   2.040  0.5918  0.3574  0.3443
 1524ntf    fn413673   6.069   6.580   2.049  0.4098  0.7130  0.7800
 1524ntf    on513674   6.042   6.679   1.783 -0.1792 -0.0496  0.6433
 1524ntf    on513675   6.290   6.683   1.758 -0.1891  0.0046 -0.2149
 1524ntf    on513676   6.407   6.393   1.767 -0.2678 -0.7114 -0.3106
 1524ntf    on513677   6.236   6.230   1.833  0.9340 -0.3821  0.2451
 1524ntf    fn413678   6.296   6.413   1.511  0.2709 -0.2448 -0.3730
 1524ntf    fn413679   6.129   6.282   1.551 -0.3669  0.2726  0.5245
 1524ntf    fn413680   6.333   6.209   1.552  0.4390  0.4251  0.0424
 1525ntf    cn113681   3.114   1.942   4.277  0.0147 -0.1942 -0.0039
 1525ntf    sn213682   2.952   1.993   4.213  0.1298 -0.0451 -0.1777
 1525ntf    nn313683   2.860   1.869   4.244 -0.1211  0.2196  0.1560
 1525ntf    sn213684   2.714   1.867   4.300 -0.1983  0.0062 -0.0510
 1525ntf    cn113685   2.638   1.755   4.179  0.2894 -0.2675 -0.1037
 1525ntf    fn413686   3.205   2.037   4.261 -0.6512  0.4635  0.0773
 1525ntf    fn413687   3.110   1.921   4.408  0.8429  0.0166  0.0625
 1525ntf    fn413688   3.174   1.836   4.226  0.1466 -0.1810  0.1223
 1525ntf    on513689   2.925   2.116   4.285 -0.4338 -0.0835 -0.3179
 1525ntf    on513690   2.975   2.014   4.073  0.2873  0.2602 -0.1075
 1525ntf    on513691   2.711   1.792   4.423  0.1183  0.2555  0.1098
 1525ntf    on513692   2.637   1.989   4.296 -0.4482 -0.1112  0.8804
 1525ntf    fn413693   2.667   1.780   4.052  0.1516  0.5822  0.0307
 1525ntf    fn413694   2.506   1.756   4.183  0.3011 -0.3246  0.3043
 1525ntf    fn413695   2.677   1.631   4.204  0.9555 -0.0066  0.1822
 1526ntf    cn113696   1.867   3.530   2.591  0.0814  0.0103  0.0794
 1526ntf    sn213697   1.866   3.712   2.599 -0.3345  0.0022  0.2119
 1526ntf    nn313698   1.920   3.736   2.745 -0.3237  0.0759  0.1953
 1526ntf    sn213699   1.979   3.865   2.812  0.0151  0.1103 -0.1663
 1526ntf    cn113700   1.834   3.915   2.910  0.0468 -0.1292  0.0006
 1526ntf    fn413701   1.790   3.484   2.688 -0.0693  0.2524  0.0756
 1526ntf    fn413702   1.816   3.485   2.477  0.6547 -0.0190 -0.1705
 1526ntf    fn413703   1.993   3.490   2.588  0.3029  0.7245 -0.3240
 1526ntf    on513704   1.949   3.754   2.489 -0.3676  0.2886  0.2953
 1526ntf    on513705   1.726   3.746   2.597 -0.2908  0.1634 -0.0389
 1526ntf    on513706   2.079   3.836   2.911 -0.5214  0.5360  0.5092
 1526ntf    on513707   2.007   3.970   2.717 -0.0319  0.2678 -0.0068
 1526ntf    fn413708   1.745   3.956   2.822  0.0067 -0.4376 -0.1038
 1526ntf    fn413709   1.864   4.011   2.996 -0.4287 -0.1112  0.1475
 1526ntf    fn413710   1.780   3.814   2.978  0.4161 -0.0865  0.3624
 1527ntf    cn113711   1.981   2.185   2.751 -0.0132  0.2338 -0.0689
 1527ntf    sn213712   2.099   2.273   2.644 -0.1192  0.2959 -0.1340
 1527ntf    nn313713   2.000   2.373   2.574  0.1311  0.5007 -0.1973
 1527ntf    sn213714   1.900   2.343   2.457 -0.1585 -0.1310  0.2077
 1527ntf    cn113715   2.002   2.409   2.322 -0.4117  0.1450  0.1509
 1527ntf    fn413716   1.901   2.102   2.687 -0.0177 -0.7196  1.1349
 1527ntf    fn413717   2.045   2.109   2.840  0.3165  0.4351 -0.1310
 1527ntf    fn413718   1.913   2.268   2.828  0.3234 -0.0420  0.5363
 1527ntf    on513719   2.183   2.341   2.741 -0.0785 -0.0260  0.0567
 1527ntf    on513720   2.155   2.176   2.554 -0.0824  0.3944 -0.2172
 1527ntf    on513721   1.887   2.204   2.419  0.5311 -0.1126 -0.1057
 1527ntf    on513722   1.779   2.422   2.459 -0.2157 -0.2210  0.3328
 1527ntf    fn413723   1.928   2.422   2.213 -0.0088 -0.4923 -0.2064
 1527ntf    fn413724   2.116   2.347   2.293 -0.4420  0.4547 -0.6483
 1527ntf    fn413725   2.045   2.531   2.350  0.1936  0.1242 -0.6418
 1528ntf    cn113726   5.955   3.804   0.924  0.8742  0.6339  0.1298
 1528ntf    sn213727   5.937   3.786   1.104  0.1417 -0.0387 -0.0025
 1528ntf    nn313728   6.039   3.668   1.121  0.0909 -0.0878 -0.0385
 1528ntf    sn213729   6.087   3.599   1.254  0.2637  0.3555  0.1291
 1528ntf    cn113730   6.255   3.670   1.256  0.4612 -0.0944 -0.2267
 1528ntf    fn413731   5.963   3.690   0.856 -0.1272  0.7764 -0.2402
 1528ntf    fn413732   5.855   3.878   0.878  0.3197 -0.3344 -0.2635
 1528ntf    fn413733   6.072   3.857   0.892  0.9213  0.4903  0.0631
 1528ntf    on513734   5.972   3.910   1.167 -0.6687  0.3656 -0.3361
 1528ntf    on513735   5.800   3.740   1.110 -0.0135  0.3493 -0.5311
 1528ntf    on513736   6.030   3.628   1.383 -0.1501  0.7255 -0.1375
 1528ntf    on513737   6.107   3.458   1.233  1.1448  0.4370  0.3804
 1528ntf    fn413738   6.343   3.612   1.176 -0.0663 -1.1750 -0.0472
 1528ntf    fn413739   6.307   3.665   1.378  0.1912 -1.2305 -0.1384
 1528ntf    fn413740   6.250   3.798   1.226  0.0735 -0.0251  0.1220
 1529ntf    cn113741   3.028   4.064   2.424  0.1014 -0.3026 -0.0289
 1529ntf    sn213742   3.191   4.019   2.357  0.1909  0.1367 -0.1080
 1529ntf    nn313743   3.260   4.021   2.498  0.0698 -0.6364 -0.0345
 1529ntf    sn213744   3.268   3.910   2.609  0.6237 -0.0872  0.4803
 1529ntf    cn113745   3.237   4.013   2.755 -0.0256  0.0621  0.2416
 1529ntf    fn413746   2.936   4.086   2.332  0.0341 -0.0716  0.0947
 1529ntf    fn413747   2.981   3.974   2.509  0.1759 -0.4005 -0.0912
 1529ntf    fn413748   3.037   4.176   2.493  0.4442 -0.3350 -0.0175
 1529ntf    on513749   3.182   3.890   2.293 -0.0086  0.2500 -0.3108
 1529ntf    on513750   3.232   4.126   2.269  0.2110 -0.1525 -0.4557
 1529ntf    on513751   3.162   3.813   2.611  0.3396  0.2204  0.4566
 1529ntf    on513752   3.405   3.873   2.631  0.7471 -0.2118 -0.4681
 1529ntf    fn413753   3.212   3.938   2.861  0.0033 -0.1982  0.0629
 1529ntf    fn413754   3.124   4.076   2.726  0.0920  0.2804  0.2473
 1529ntf    fn413755   3.328   4.106   2.781  0.0485  0.1779 -0.4139
 1530ntf    cn113756   0.283   3.074   1.394 -0.0177  0.0529  0.3727
 1530ntf    sn213757   0.216   3.159   1.248 -0.0027 -0.2342  0.1980
 1530ntf    nn313758   0.252   3.310   1.271  0.1061 -0.1946 -0.2067
 1530ntf    sn213759   0.376   3.388   1.214  0.0562  0.0122 -0.0349
 1530ntf    cn113760   0.336   3.416   1.039 -0.1077 -0.2918 -0.0459
 1530ntf    fn413761   0.338   2.959   1.361 -0.5403 -0.0373 -0.2124
 1530ntf    fn413762   0.386   3.137   1.449  0.1036  0.0717  0.1278
 1530ntf    fn413763   0.188   3.057   1.484 -0.3164 -0.0857  0.0367
 1530ntf    on513764   0.282   3.096   1.136 -0.7689 -0.0844 -0.3457
 1530ntf    on513765   0.075   3.134   1.261 -0.0755 -0.2487 -0.5592
 1530ntf    on513766   0.379   3.523   1.267 -0.6084 -0.1023  0.3202
 1530ntf    on513767   0.496   3.310   1.203 -0.0363 -0.0669 -0.5203
 1530ntf    fn413768   0.444   3.452   0.972 -0.1980  0.1027  0.0186
 1530ntf    fn413769   0.240   3.506   1.028 -0.2238 -0.3995  0.0887
 1530ntf    fn413770   0.291   3.309   0.976 -0.2500  0.0912 -0.5990
 1531ntf    cn113771   1.076   5.628   1.029  0.0050  0.4354  0.1115
 1531ntf    sn213772   1.207   5.510   0.986 -0.0421  0.4078  0.0452
 1531ntf    nn313773   1.223   5.438   1.125 -0.0198  0.3058 -0.0099
 1531ntf    sn213774   1.308   5.468   1.253 -0.0500  0.0008  0.0825
 1531ntf    cn113775   1.422   5.326   1.242  0.0096  0.0542 -0.0003
 1531ntf    fn413776   1.043   5.713   0.933 -1.0320 -0.5245 -0.4022
 1531ntf    fn413777   0.966   5.568   1.072  0.2908 -0.0084  0.2314
 1531ntf    fn413778   1.110   5.708   1.129 -0.1018  0.3649  0.2046
 1531ntf    on513779   1.146   5.422   0.889 -0.0649 -0.2376  0.6362
 1531ntf    on513780   1.320   5.592   0.949 -0.1882  0.6339  0.1065
 1531ntf    on513781   1.398   5.579   1.237  0.0843 -0.1755 -0.4404
 1531ntf    on513782   1.247   5.445   1.381  0.2176 -0.2413  0.1704
 1531ntf    fn413783   1.359   5.220   1.290 -0.0852  0.0741 -0.0816
 1531ntf    fn413784   1.528   5.337   1.320  0.1175  0.1389 -0.1586
 1531ntf    fn413785   1.464   5.308   1.118  0.2007  0.4150  0.0093
 1532ntf    cn113786   6.372   4.388   6.141  0.0842  0.1913  0.5526
 1532ntf    sn213787   6.331   4.227   6.214  0.0633  0.0013  0.1290
 1532ntf    nn313788   6.190   4.191   6.156 -0.0199  0.1718  0.2280
 1532ntf    sn213789   6.144   4.123   6.022 -0.0625  0.1124  0.2725
 1532ntf    cn113790   5.984   4.062   6.084 -0.2096 -0.2245 -0.4324
 1532ntf    fn413791   6.297   4.487   6.187  0.0488  0.3929  0.0700
 1532ntf    fn413792   6.500   4.414   6.160  0.2058  0.0031  0.0083
 1532ntf    fn413793   6.360   4.379   6.009 -0.2104  0.6249  0.5503
 1532ntf    on513794   6.442   4.141   6.181  0.3429  0.5836 -0.4599
 1532ntf    on513795   6.312   4.258   6.354  0.2511  0.1911  0.1120
 1532ntf    on513796   6.106   4.216   5.919 -0.1266  0.0526  0.2426
 1532ntf    on513797   6.218   4.003   5.993 -0.2496 -0.0380  0.4138
 1532ntf    fn413798   6.007   3.983   6.187  0.0699  0.6443  0.1831
 1532ntf    fn413799   5.923   3.990   5.992 -0.2396 -0.7708  0.0138
 1532ntf    fn413800   5.904   4.157   6.128  0.3482  0.1183 -0.1431
 1533ntf    cn113801   6.424   2.422   4.596 -0.2821  0.2960 -0.1986
 1533ntf    sn213802   6.517   2.508   4.466 -0.0064 -0.0702 -0.2433
 1533ntf    nn313803   6.414   2.625   4.457  0.1356  0.0714 -0.0113
 1533ntf    sn213804   6.310   2.647   4.341  0.1580 -0.0975 -0.0629
 1533ntf    cn113805   6.415   2.680   4.196  0.1257 -0.2738 -0.1268
 1533ntf    fn413806   6.438   2.483   4.712 -0.3686 -0.0517 -0.0023
 1533ntf    fn413807   6.292   2.432   4.585 -0.3150 -0.1249 -0.2338
 1533ntf    fn413808   6.442   2.292   4.611 -0.3010  0.3266  0.0847
 1533ntf    on513809   6.643   2.547   4.525 -0.0600 -0.0319 -0.1560
 1533ntf    on513810   6.527   2.413   4.357  0.1529 -0.6886  0.3018
 1533ntf    on513811   6.217   2.542   4.310  0.0522  0.0850 -0.3626
 1533ntf    on513812   6.250   2.777   4.353  0.1633 -0.0721 -0.3141
 1533ntf    fn413813   6.355   2.760   4.110 -0.1073  0.0444  0.3244
 1533ntf    fn413814   6.453   2.571   4.131  0.2872 -0.2637 -0.0485
 1533ntf    fn413815   6.522   2.746   4.235 -0.1758 -0.0664  0.3628
 1534ntf    cn113816   3.733   5.271   5.963 -0.1450  0.5668  0.1176
 1534ntf    sn213817   3.768   5.313   5.790 -0.2793  0.3341  0.0336
 1534ntf    nn313818   3.883   5.413   5.826  0.0004  0.1103 -0.2260
 1534ntf    sn213819   4.035   5.380   5.851 -0.1152 -0.1219  0.1896
 1534ntf    cn113820   4.120   5.426   5.697 -0.3969  0.0316  0.0787
 1534ntf    fn413821   3.742   5.375   6.044  0.0053  0.2011  0.5792
 1534ntf    fn413822   3.612   5.220   5.982  0.2275 -0.2591  0.3045
 1534ntf    fn413823   3.812   5.177   6.013  0.1258  0.8887  0.2943
 1534ntf    on513824   3.807   5.187   5.732 -0.2248  0.2169  0.3252
 1534ntf    on513825   3.644   5.372   5.747 -0.5371 -0.0651  0.2221
 1534ntf    on513826   4.100   5.466   5.946 -0.0772  0.1290 -0.0600
 1534ntf    on513827   4.064   5.240   5.865 -0.1222 -0.1789 -0.3529
 1534ntf    fn413828   4.087   5.549   5.663 -0.3166  0.0895  0.2107
 1534ntf    fn413829   4.082   5.351   5.595 -0.0261 -0.0618  0.0068
 1534ntf    fn413830   4.251   5.418   5.708 -0.4560 -0.0760  0.6989
 1535ntf    cn113831   5.306   2.447   1.715  0.0327 -0.3234  0.0618
 1535ntf    sn213832   5.462   2.386   1.645  0.0002 -0.1387 -0.1732
 1535ntf    nn313833   5.419   2.250   1.578 -0.4599 -0.5018  0.8386
 1535ntf    sn213834   5.496   2.113   1.584  0.0607 -0.2479  0.0929
 1535ntf    cn113835   5.441   2.057   1.748  0.1923  0.1642  0.2808
 1535ntf    fn413836   5.220   2.482   1.621 -0.2876 -0.3401  0.3450
 1535ntf    fn413837   5.249   2.367   1.804 -0.0865 -0.1022  0.1852
 1535ntf    fn413838   5.328   2.560   1.780 -0.2851 -0.1124 -0.1950
 1535ntf    on513839   5.487   2.487   1.546 -0.2403 -0.3157 -0.4156
 1535ntf    on513840   5.542   2.380   1.765 -0.5833  0.3594  0.2452
 1535ntf    on513841   5.442   2.010   1.499  0.0073 -0.0085 -0.1648
 1535ntf    on513842   5.640   2.121   1.584  0.0333  0.4221 -0.5411
 1535ntf    fn413843   5.459   2.147   1.843 -0.0977  0.7540 -0.2206
 1535ntf    fn413844   5.508   1.950   1.788  0.1635 -0.0963 -0.3506
 1535ntf    fn413845   5.315   2.017   1.744  0.1311  0.3796  0.0797
 1536ntf    cn113846   5.575   4.598   6.138  0.1961 -0.1793 -0.2837
 1536ntf    sn213847   5.598   4.463   6.258 -0.2248  0.0338  0.0405
 1536ntf    nn313848   5.580   4.335   6.170 -0.4972  0.4166 -0.4694
 1536ntf    sn213849   5.489   4.208   6.194  0.0453  0.0932 -0.0984
 1536ntf    cn113850   5.446   4.164   6.023 -0.2823  0.0869 -0.0141
 1536ntf    fn413851   5.466   4.572   6.068 -0.2601 -0.2357  0.4409
 1536ntf    fn413852   5.569   4.718   6.195  0.2323 -0.1410 -0.3610
 1536ntf    fn413853   5.672   4.608   6.048  0.5526  0.4947  0.1637
 1536ntf    on513854   5.738   4.481   6.286 -0.1191 -0.4830 -0.1433
 1536ntf    on513855   5.503   4.495   6.361 -0.0470 -0.4426  0.3539
 1536ntf    on513856   5.561   4.092   6.239 -0.0889  0.0555  0.0172
 1536ntf    on513857   5.363   4.233   6.259  0.2348  0.5051  0.1189
 1536ntf    fn413858   5.545   4.123   5.946 -0.1129  0.0184  0.2401
 1536ntf    fn413859   5.394   4.275   5.973  0.0359  0.2036 -0.0888
 1536ntf    fn413860   5.352   4.071   6.016  0.0517 -0.2409 -0.1506
 1537ntf    cn113861   4.511   5.249   4.967  0.2226  0.0577 -0.0941
 1537ntf    sn213862   4.455   5.086   5.026 -0.0120  0.2481  0.2132
 1537ntf    nn313863   4.314   5.142   5.067 -0.0943  0.4901 -0.3868
 1537ntf    sn213864   4.236   5.130   5.202  0.6121  0.0360 -0.0090
 1537ntf    cn113865   4.270   5.295   5.271 -0.0189  0.3421 -0.4118
 1537ntf    fn413866   4.524   5.341   5.061 -0.6389 -0.0023  0.0854
 1537ntf    fn413867   4.632   5.245   4.913  0.1039  0.0580 -0.3590
 1537ntf    fn413868   4.438   5.296   4.868 -0.0167 -0.3912 -0.1353
 1537ntf    on513869   4.450   5.000   4.910 -0.8615  0.0052  0.4242
 1537ntf    on513870   4.548   5.068   5.135 -0.3240 -0.5664  0.3507
 1537ntf    on513871   4.093   5.144   5.188  0.5043 -0.2954  0.7438
 1537ntf    on513872   4.288   5.042   5.304 -0.0759 -0.0771  0.2509
 1537ntf    fn413873   4.401   5.309   5.289  0.0350 -0.1377 -0.4129
 1537ntf    fn413874   4.209   5.313   5.386 -0.2397  0.2238 -0.5100
 1537ntf    fn413875   4.235   5.399   5.198 -0.6914  0.4223  0.0183
 1538ntf    cn113876   0.309   4.715   4.251  0.0335  0.1570  0.6291
 1538ntf    sn213877   0.453   4.605   4.266 -0.0826 -0.1344 -0.3009
 1538ntf    nn313878   0.378   4.473   4.307 -0.2475 -0.0545 -0.3413
 1538ntf    sn213879   0.408   4.335   4.239  0.2151 -0.0274 -0.1958
 1538ntf    cn113880   0.284   4.324   4.106 -0.2551  0.2422  0.2204
 1538ntf    fn413881   0.341   4.832   4.196  0.2896 -0.4216 -0.4906
 1538ntf    fn413882   0.222   4.664   4.166  0.6626  0.3554 -0.1496
 1538ntf    fn413883   0.238   4.739   4.360 -0.2219  1.0503  0.2792
 1538ntf    on513884   0.506   4.606   4.133 -0.3372 -0.6356 -0.4096
 1538ntf    on513885   0.523   4.662   4.378  0.5356 -0.2918 -0.6044
 1538ntf    on513886   0.537   4.304   4.181  0.0586 -0.2994 -0.4027
 1538ntf    on513887   0.356   4.228   4.321  0.6210 -0.3869 -0.3999
 1538ntf    fn413888   0.172   4.388   4.133 -0.1651  0.3224  0.4066
 1538ntf    fn413889   0.243   4.201   4.082  0.0481  0.1690  0.0712
 1538ntf    fn413890   0.335   4.374   3.995 -0.3482  0.3501  0.2254
 1539ntf    cn113891   5.519   6.153   4.221  0.3353 -0.1523 -0.1947
 1539ntf    sn213892   5.360   6.066   4.227  0.2375  0.0416  0.0670
 1539ntf    nn313893   5.333   6.062   4.382 -0.0363 -0.1440  0.0157
 1539ntf    sn213894   5.340   5.936   4.475 -0.0539 -0.2752 -0.1597
 1539ntf    cn113895   5.244   6.003   4.614 -0.0839 -0.3677 -0.1359
 1539ntf    fn413896   5.571   6.168   4.100 -0.0676  0.2416 -0.3219
 1539ntf    fn413897   5.507   6.273   4.277  0.0017 -0.1032 -0.3703
 1539ntf    fn413898   5.612   6.091   4.291  0.1312 -0.4996 -0.2292
 1539ntf    on513899   5.284   6.164   4.154  0.1340 -0.2368 -0.2046
 1539ntf    on513900   5.396   5.938   4.171  0.1043 -0.1015  0.3049
 1539ntf    on513901   5.264   5.820   4.437 -0.0497 -0.0031 -1.0173
 1539ntf    on513902   5.468   5.910   4.537  0.1593  0.7720 -0.1461
 1539ntf    fn413903   5.306   6.110   4.662  0.5225 -0.4210 -0.7783
 1539ntf    fn413904   5.219   5.917   4.713  0.1451 -0.0494  0.2020
 1539ntf    fn413905   5.130   6.047   4.565 -0.3193 -0.3595  0.4068
 1540ntf    cn113906   3.951   0.842   2.608 -0.1819 -0.0051 -0.0816
 1540ntf    sn213907   3.932   0.969   2.736  0.0006  0.0144 -0.0750
 1540ntf    nn313908   4.065   0.959   2.819  0.0073 -0.2248 -0.1155
 1540ntf    sn213909   4.201   1.037   2.808 -0.1277  0.0072 -0.1383
 1540ntf    cn113910   4.295   0.925   2.915 -0.3811 -0.0573  0.0198
 1540ntf    fn413911   3.946   0.721   2.660 -0.1412  0.0953  0.1552
 1540ntf    fn413912   3.856   0.850   2.515 -0.0633  0.1399 -0.1905
 1540ntf    fn413913   4.069   0.842   2.549  0.0481  0.2405  0.3767
 1540ntf    on513914   3.913   1.090   2.659  0.2600 -0.0527 -0.2444
 1540ntf    on513915   3.816   0.918   2.804  0.0060 -0.1683 -0.2025
 1540ntf    on513916   4.268   1.016   2.683 -0.2641 -0.1528 -0.1850
 1540ntf    on513917   4.207   1.163   2.879 -0.2935 -0.1653  0.1842
 1540ntf    fn413918   4.222   0.894   3.021  0.1727 -0.3401  0.3279
 1540ntf    fn413919   4.404   0.978   2.969 -0.8005  0.6032  0.2223
 1540ntf    fn413920   4.326   0.811   2.855  0.4939  0.0414  0.2663
 1541ntf    cn113921   2.504   2.762   2.143 -0.3314 -0.5597  0.2018
 1541ntf    sn213922   2.419   2.919   2.109 -0.0474 -0.4763 -0.1230
 1541ntf    nn313923   2.323   2.915   2.233  0.7022 -0.0668  0.4823
 1541ntf    sn213924   2.289   3.026   2.338  0.0091  0.0808  0.1120
 1541ntf    cn113925   2.411   2.987   2.468  0.2948  0.4058 -0.0543
 1541ntf    fn413926   2.602   2.743   2.057 -0.1655  0.3547  0.1798
 1541ntf    fn413927   2.562   2.749   2.261  0.5149  0.3317 -0.1093
 1541ntf    fn413928   2.414   2.664   2.148 -0.2825 -0.6639 -0.8719
 1541ntf    on513929   2.525   3.016   2.104 -0.2306 -0.2300  0.6909
 1541ntf    on513930   2.355   2.890   1.983 -0.7401  0.2184  0.0608
 1541ntf    on513931   2.326   3.158   2.293 -0.1252 -0.0319 -0.3270
 1541ntf    on513932   2.157   3.018   2.395  0.0615  0.0350  0.2274
 1541ntf    fn413933   2.534   3.005   2.425  0.2876 -0.1203 -0.3101
 1541ntf    fn413934   2.412   2.864   2.517  0.2921  0.5714  0.3602
 1541ntf    fn413935   2.391   3.065   2.572  0.3029  0.1153  0.1666
 1542ntf    cn113936   4.987   3.228   2.285 -0.4029 -0.4267  0.3651
 1542ntf    sn213937   5.057   3.232   2.453  0.0386 -0.1706  0.1769
 1542ntf    nn313938   5.168   3.124   2.433  0.0301 -0.0523 -0.5403
 1542ntf    sn213939   5.322   3.153   2.434 -0.0135  0.1720 -0.0552
 1542ntf    cn113940   5.377   2.990   2.494 -0.2167  0.0281 -0.2570
 1542ntf    fn413941   4.910   3.334   2.265  0.3369  0.1113  0.3188
 1542ntf    fn413942   5.081   3.236   2.191 -0.4962  0.0453  0.3087
 1542ntf    fn413943   4.921   3.115   2.264 -0.3597 -0.3383 -0.2876
 1542ntf    on513944   5.087   3.371   2.481 -0.2315 -0.1445  0.3422
 1542ntf    on513945   4.947   3.184   2.532 -0.0688  0.3197  0.3315
 1542ntf    on513946   5.382   3.153   2.302 -0.0844  0.1505 -0.0874
 1542ntf    on513947   5.373   3.234   2.542  0.2746  0.2682 -0.2608
 1542ntf    fn413948   5.508   2.976   2.506 -0.2880 -0.8180 -0.4669
 1542ntf    fn413949   5.320   2.889   2.432  0.6710 -0.5551 -0.1365
 1542ntf    fn413950   5.336   2.965   2.618  0.6951 -0.5903 -0.0699
 1543ntf    cn113951   3.785   1.469   3.074 -0.0545  0.0665 -0.0868
 1543ntf    sn213952   3.705   1.526   3.227  0.2443  0.0485  0.0761
 1543ntf    nn313953   3.831   1.541   3.320  0.0610  0.0150  0.3298
 1543ntf    sn213954   3.865   1.443   3.438  0.4180 -0.3385 -0.0635
 1543ntf    cn113955   4.023   1.514   3.494  0.2965  0.0774 -0.2467
 1543ntf    fn413956   3.702   1.451   2.972  0.1350 -0.1784 -0.1999
 1543ntf    fn413957   3.881   1.552   3.038  0.0696  0.1018  0.3189
 1543ntf    fn413958   3.848   1.356   3.102  0.4395  0.3068 -0.2335
 1543ntf    on513959   3.647   1.650   3.183 -0.3107 -0.1084  0.3568
 1543ntf    on513960   3.613   1.418   3.252  0.0819  0.1340 -0.1493
 1543ntf    on513961   3.783   1.461   3.555 -0.4703 -0.0468 -0.7176
 1543ntf    on513962   3.902   1.309   3.401  0.1687 -0.4348  0.0310
 1543ntf    fn413963   4.077   1.436   3.585 -0.4449  0.3743  0.4605
 1543ntf    fn413964   4.008   1.632   3.553 -0.0946 -0.0670 -0.0569
 1543ntf    fn413965   4.104   1.527   3.390 -0.4509 -0.2550 -0.8879
 1544ntf    cn113966   6.451   5.612   4.193  0.0521 -0.0874 -0.1755
 1544ntf    sn213967   6.610   5.526   4.171  0.1516  0.0426  0.0343
 1544ntf    nn313968   6.648   5.516   4.323 -0.1084 -0.1205  0.0895
 1544ntf    sn213969   6.731   5.614   4.413 -0.0205 -0.1072 -0.0053
 1544ntf    cn113970   6.893   5.532   4.419  0.0086 -0.0322  0.2313
 1544ntf    fn413971   6.383   5.621   4.080  0.1494  0.6157 -0.1792
 1544ntf    fn413972   6.374   5.564   4.288  0.2558  0.5811  0.3300
 1544ntf    fn413973   6.471   5.740   4.221 -0.2511 -0.0310 -0.2216
 1544ntf    on513974   6.581   5.396   4.115  0.1739  0.1005 -0.1138
 1544ntf    on513975   6.688   5.621   4.095  0.6055 -0.0168  0.4244
 1544ntf    on513976   6.754   5.740   4.346 -0.0746 -0.1273 -0.0603
 1544ntf    on513977   6.695   5.619   4.553  0.0331  0.2018 -0.0020
 1544ntf    fn413978   6.941   5.498   4.301  0.2783  0.1199  0.2960
 1544ntf    fn413979   6.897   5.421   4.492  0.3023  0.0791  0.3864
 1544ntf    fn413980   6.986   5.617   4.461  0.3322 -0.4323  0.3292
 1545ntf    cn113981   2.098   1.715   5.218  0.1693  0.3437  0.0085
 1545ntf    sn213982   2.254   1.753   5.303  0.4796 -0.2351 -0.2934
 1545ntf    nn313983   2.297   1.884   5.228 -0.1636  0.3468  0.3403
 1545ntf    sn213984   2.372   1.894   5.090 -0.1297  0.0683  0.3377
 1545ntf    cn113985   2.542   1.922   5.147  0.0617 -0.2925 -0.0528
 1545ntf    fn413986   2.043   1.608   5.273 -0.0265  0.4595  0.0387
 1545ntf    fn413987   2.007   1.811   5.225  0.0606  0.2285  0.1755
 1545ntf    fn413988   2.124   1.680   5.092  0.5503 -0.0479  0.1934
 1545ntf    on513989   2.220   1.778   5.440  0.9382 -0.2082 -0.1807
 1545ntf    on513990   2.349   1.648   5.274  0.7546 -0.1768  0.3812
 1545ntf    on513991   2.367   1.768   5.020  0.2689 -0.1261  0.6529
 1545ntf    on513992   2.332   2.014   5.021 -0.0446 -0.1786 -0.1462
 1545ntf    fn413993   2.625   1.939   5.045 -0.0371  0.1808 -0.0578
 1545ntf    fn413994   2.584   1.826   5.228 -0.7318 -0.0045  0.7148
 1545ntf    fn413995   2.549   2.042   5.202 -0.2377 -0.3295  0.0641
 1546ntf    cn113996   5.555   6.512   2.079 -0.0488  0.3177 -0.0253
 1546ntf    sn213997   5.504   6.420   2.227 -0.0647 -0.0425 -0.2541
 1546ntf    nn313998   5.620   6.315   2.237  0.0416  0.1294  0.3398
 1546ntf    sn213999   5.611   6.166   2.286 -0.0167  0.0172 -0.0097
 1546ntf    cn114000   5.562   6.091   2.128  0.0741  0.0008 -0.0305
 1546ntf    fn414001   5.678   6.557   2.093 -0.2126  0.5598  0.7078
 1546ntf    fn414002   5.539   6.435   1.973  0.1106  0.3815 -0.0968
 1546ntf    fn414003   5.488   6.624   2.055 -0.0262  0.2877 -0.2304
 1546ntf    on514004   5.496   6.519   2.332 -0.0861  0.0304 -0.3243
 1546ntf    on514005   5.378   6.362   2.189 -0.1630  0.1074 -0.1599
 1546ntf    on514006   5.743   6.117   2.316 -0.0703 -0.2293 -0.1821
 1546ntf    on514007   5.507   6.128   2.378  0.0901 -0.3047 -0.0203
 1546ntf    fn414008   5.439   6.115   2.086  0.1075  0.2454  0.0148
 1546ntf    fn414009   5.571   5.959   2.131  0.4472  0.0087 -0.7615
 1546ntf    fn414010   5.641   6.132   2.030 -0.3482  0.2230 -0.2782
 1547ntf    cn114011   6.054   6.227   6.572 -0.2538 -0.2049 -0.1204
 1547ntf    sn214012   5.876   6.218   6.608 -0.3103 -0.0301 -0.3588
 1547ntf    nn314013   5.835   6.367   6.580 -0.0053  0.0766 -0.2453
 1547ntf    sn214014   5.706   6.449   6.615 -0.0057  0.0584 -0.2039
 1547ntf    cn114015   5.758   6.542   6.762  0.5332 -0.3383 -0.1417
 1547ntf    fn414016   6.086   6.249   6.446  0.9595 -0.2520  0.1720
 1547ntf    fn414017   6.121   6.320   6.638 -0.1810 -0.5386  0.2812
 1547ntf    fn414018   6.114   6.113   6.605 -0.2650 -0.2427 -0.2317
 1547ntf    on514019   5.822   6.114   6.525  0.1948 -0.6769  0.1074
 1547ntf    on514020   5.878   6.191   6.750  0.3851  0.1974 -0.3231
 1547ntf    on514021   5.681   6.551   6.517 -0.0915  0.3909  0.1608
 1547ntf    on514022   5.592   6.366   6.647  0.4284 -0.3104  0.4046
 1547ntf    fn414023   5.868   6.612   6.737 -0.1717  0.8311 -0.0403
 1547ntf    fn414024   5.780   6.464   6.867 -0.1846  0.3555  0.5452
 1547ntf    fn414025   5.669   6.634   6.796  0.3891 -0.2153 -0.8421
 1548ntf    cn114026   4.683   6.553   0.857  0.0148 -0.1729 -0.2396
 1548ntf    sn214027   4.692   6.647   0.701 -0.1775 -0.0539 -0.1798
 1548ntf    nn314028   4.615   6.549   0.605 -0.2914  0.2918 -0.4438
 1548ntf    sn214029   4.685   6.450   0.505 -0.0616  0.1863 -0.1806
 1548ntf    cn114030   4.762   6.570   0.392 -0.2612  0.1699 -0.3352
 1548ntf    fn414031   4.664   6.632   0.961  0.0836 -0.1920 -0.2131
 1548ntf    fn414032   4.581   6.470   0.844  0.0964 -0.2513 -0.3816
 1548ntf    fn414033   4.788   6.476   0.878 -0.3970 -0.7292 -0.1884
 1548ntf    on514034   4.617   6.764   0.738  0.6555  0.2619  0.5365
 1548ntf    on514035   4.835   6.663   0.687 -0.1741 -0.2753 -0.4094
 1548ntf    on514036   4.790   6.373   0.566 -0.8220 -0.3208  0.4985
 1548ntf    on514037   4.599   6.373   0.419 -0.2456  0.2842 -0.0848
 1548ntf    fn414038   4.675   6.656   0.340 -0.1887  0.4611  0.0165
 1548ntf    fn414039   4.812   6.517   0.282 -0.8634 -0.5675 -0.2645
 1548ntf    fn414040   4.857   6.647   0.442 -0.1922  0.0768 -0.3238
 1549ntf    cn114041   1.026   2.101   1.403 -0.4513 -0.1120 -0.3098
 1549ntf    sn214042   1.067   2.030   1.241  0.3473  0.1136 -0.2070
 1549ntf    nn314043   1.224   2.025   1.253  0.3061  0.7721  0.6504
 1549ntf    sn214044   1.303   1.914   1.331 -0.0457 -0.1735 -0.3129
 1549ntf    cn114045   1.328   1.792   1.199  0.0417 -0.3777 -0.1073
 1549ntf    fn414046   1.044   2.023   1.508  0.0435  0.2084 -0.1547
 1549ntf    fn414047   1.106   2.203   1.427  0.2117 -0.6484 -0.2219
 1549ntf    fn414048   0.902   2.146   1.414 -0.1818  0.6616 -0.3244
 1549ntf    on514049   1.001   1.903   1.230  0.1790  0.1947 -0.1358
 1549ntf    on514050   1.045   2.126   1.135  0.5178  0.5252  0.1295
 1549ntf    on514051   1.432   1.971   1.362 -0.1471  0.0627 -0.3235
 1549ntf    on514052   1.243   1.835   1.436  0.4485 -0.1758 -0.0262
 1549ntf    fn414053   1.211   1.745   1.161 -0.1879  0.1051 -0.0008
 1549ntf    fn414054   1.402   1.687   1.232 -0.0478 -0.3956  0.0375
 1549ntf    fn414055   1.381   1.843   1.090 -0.3103 -0.0358 -0.1205
 1550ntf    cn114056   6.111   2.058   0.919  0.2856  0.2874 -0.1138
 1550ntf    sn214057   6.021   2.213   0.889 -0.3483 -0.0044  0.2584
 1550ntf    nn314058   5.886   2.152   0.838 -0.1021 -0.3865  0.0599
 1550ntf    sn214059   5.746   2.151   0.909 -0.1490  0.1136 -0.0173
 1550ntf    cn114060   5.648   2.092   0.768 -0.4033  0.3451  0.0619
 1550ntf    fn414061   6.078   1.964   0.832 -0.1965 -0.1936  0.5760
 1550ntf    fn414062   6.243   2.067   0.921  0.3339 -0.3007 -0.3738
 1550ntf    fn414063   6.074   2.010   1.037 -0.0905  0.3820 -0.1930
 1550ntf    on514064   6.022   2.282   1.016  0.8263 -0.1596  0.3440
 1550ntf    on514065   6.092   2.277   0.781 -0.2645 -0.2656  0.1587
 1550ntf    on514066   5.733   2.057   1.018 -0.6638  0.3366  0.1181
 1550ntf    on514067   5.701   2.287   0.926  0.3056  0.3334 -0.5478
 1550ntf    fn414068   5.673   1.969   0.727  0.3753  0.8136 -0.9075
 1550ntf    fn414069   5.680   2.163   0.662  0.5430 -0.0742  0.0584
 1550ntf    fn414070   5.517   2.101   0.788 -0.3715  0.8716  0.0487
 1551ntf    cn114071   1.524   1.664   2.993  0.0458 -0.1442  0.4066
 1551ntf    sn214072   1.491   1.656   2.814  0.1848  0.3583  0.3558
 1551ntf    nn314073   1.632   1.621   2.755 -0.2978 -0.1236 -0.5133
 1551ntf    sn214074   1.698   1.479   2.742 -0.1181 -0.0765 -0.1210
 1551ntf    cn114075   1.653   1.445   2.569 -0.3526  0.1162 -0.0985
 1551ntf    fn414076   1.438   1.739   3.059 -0.1233  0.0531 -0.0355
 1551ntf    fn414077   1.526   1.544   3.048 -0.3067 -0.1406  0.4253
 1551ntf    fn414078   1.642   1.715   3.027 -0.1328  0.4337  0.1667
 1551ntf    on514079   1.393   1.551   2.806  0.2763  0.2907  0.1313
 1551ntf    on514080   1.445   1.788   2.780 -0.0649  0.3001  0.4632
 1551ntf    on514081   1.842   1.480   2.741 -0.1070 -0.7155 -0.0631
 1551ntf    on514082   1.636   1.362   2.800 -0.4865  0.0621 -0.2305
 1551ntf    fn414083   1.715   1.338   2.523 -0.1102  0.3909 -0.4211
 1551ntf    fn414084   1.689   1.543   2.486 -0.1549  0.5076  0.4445
 1551ntf    fn414085   1.524   1.433   2.544 -0.2243 -0.5091 -0.4669
 1552ntf    cn114086   4.148   4.522   5.208  0.0932 -0.0094 -0.1373
 1552ntf    sn214087   4.039   4.426   5.318 -0.0928 -0.0650 -0.3690
 1552ntf    nn314088   3.898   4.449   5.254 -0.3124  0.4592  0.2917
 1552ntf    sn214089   3.819   4.397   5.128  0.2446  0.1517  0.0678
 1552ntf    cn114090   3.739   4.552   5.077  0.1406  0.0259 -0.1509
 1552ntf    fn414091   4.145   4.481   5.083 -0.7044  0.5782 -0.3167
 1552ntf    fn414092   4.120   4.651   5.212  0.5470  0.0785  0.3422
 1552ntf    fn414093   4.274   4.507   5.246  0.2131  0.1017 -0.4930
 1552ntf    on514094   4.092   4.293   5.300  0.5014  0.1626 -0.3267
 1552ntf    on514095   4.059   4.487   5.448 -0.0737  0.7089 -0.7278
 1552ntf    on514096   3.897   4.365   5.011 -0.0803  0.7080 -0.3054
 1552ntf    on514097   3.708   4.313   5.162  0.2653  0.0694 -0.0707
 1552ntf    fn414098   3.634   4.545   4.996 -0.0091  0.5411 -0.0080
 1552ntf    fn414099   3.822   4.642   5.027  0.1738  0.3080  0.3993
 1552ntf    fn414100   3.691   4.611   5.185 -0.3804 -0.9255  0.1507
 1553ntf    cn114101   2.512   1.132   3.484 -0.1603  0.4781  0.3802
 1553ntf    sn214102   2.684   1.174   3.524  0.1406 -0.5192  0.1465
 1553ntf    nn314103   2.669   1.329   3.540  0.0318 -0.5956  0.8069
 1553ntf    sn214104   2.698   1.428   3.658 -0.0570  0.1615  0.1981
 1553ntf    cn114105   2.609   1.578   3.607 -0.0089  0.1051 -0.0525
 1553ntf    fn414106   2.467   1.194   3.376 -0.1020  0.1862  0.1865
 1553ntf    fn414107   2.494   1.004   3.458  0.6224  0.4461 -0.0403
 1553ntf    fn414108   2.426   1.158   3.581  0.3446  0.1384  0.9210
 1553ntf    on514109   2.720   1.101   3.644  0.3390 -0.1997  0.2829
 1553ntf    on514110   2.751   1.140   3.401  0.1310 -1.1235  0.3036
 1553ntf    on514111   2.622   1.399   3.778  0.2794 -0.2632  0.3098
 1553ntf    on514112   2.837   1.464   3.669 -0.0126 -0.1096  0.5316
 1553ntf    fn414113   2.650   1.632   3.493 -0.8774  0.3940 -0.2396
 1553ntf    fn414114   2.617   1.668   3.704 -0.0641 -0.3528  0.3821
 1553ntf    fn414115   2.481   1.553   3.582 -0.1438  0.1058  0.6297
 1554ntf    cn114116   1.702   4.913   4.893  0.0901 -0.1035 -0.0145
 1554ntf    sn214117   1.651   5.022   5.029 -0.3010 -0.0848 -0.1742
 1554ntf    nn314118   1.645   4.914   5.143  0.0824 -0.0697 -0.1390
 1554ntf    sn214119   1.525   4.840   5.212 -0.0423  0.2239 -0.0350
 1554ntf    cn114120   1.491   4.940   5.359 -0.1710  0.1682 -0.0273
 1554ntf    fn414121   1.604   4.834   4.852  0.1117 -0.0185 -0.2308
 1554ntf    fn414122   1.725   4.983   4.783  0.1337  0.3001  0.2500
 1554ntf    fn414123   1.809   4.839   4.917  0.1506 -0.0023  0.0286
 1554ntf    on514124   1.760   5.114   5.048 -0.3953 -0.0505  0.2158
 1554ntf    on514125   1.524   5.075   4.986 -0.1454  0.6199  0.2145
 1554ntf    on514126   1.404   4.830   5.134 -0.0368  0.0739 -0.0248
 1554ntf    on514127   1.564   4.711   5.264 -0.3877  0.0523 -0.2041
 1554ntf    fn414128   1.606   4.957   5.421 -0.2153 -0.5255  0.2496
 1554ntf    fn414129   1.400   4.891   5.442  0.4161 -0.0353  0.4985
 1554ntf    fn414130   1.457   5.064   5.325 -0.2208  0.0234 -0.5155
 1555ntf    cn114131   4.314   6.027   5.582  0.1276  0.2091 -0.3533
 1555ntf    sn214132   4.477   6.060   5.656  0.1647  0.0116 -0.3464
 1555ntf    nn314133   4.458   5.959   5.775  0.8114 -0.1061 -0.3399
 1555ntf    sn214134   4.460   5.976   5.931 -0.0747  0.0605 -0.3432
 1555ntf    cn114135   4.303   5.892   5.970  0.1391 -0.3150 -0.2901
 1555ntf    fn414136   4.292   5.902   5.543 -0.1172  0.0902  0.1577
 1555ntf    fn414137   4.214   6.044   5.667 -0.0084 -0.2355 -0.4161
 1555ntf    fn414138   4.296   6.092   5.468  0.1533  0.3246 -0.2910
 1555ntf    on514139   4.562   6.028   5.544 -0.0233  0.1321 -0.5241
 1555ntf    on514140   4.473   6.201   5.686 -0.4308 -0.0607 -0.0679
 1555ntf    on514141   4.566   5.901   5.993 -0.8636 -0.4778  0.3635
 1555ntf    on514142   4.434   6.110   5.979  0.2589  0.1372 -0.3763
 1555ntf    fn414143   4.260   5.932   6.088  0.1783 -0.1210 -0.3404
 1555ntf    fn414144   4.303   5.760   5.959  0.1057 -0.3359 -0.0390
 1555ntf    fn414145   4.205   5.933   5.891 -0.0430 -0.0121  0.0904
 1556ntf    cn114146   1.335   3.827   5.155  0.0906  0.1359  0.1167
 1556ntf    sn214147   1.378   3.978   5.247  0.0995  0.1741  0.0493
 1556ntf    nn314148   1.508   4.031   5.178  0.2215 -0.0880  0.0804
 1556ntf    sn214149   1.534   4.162   5.096 -0.1095 -0.0069  0.1079
 1556ntf    cn114150   1.617   4.271   5.215  0.2631 -0.4101  0.2175
 1556ntf    fn414151   1.437   3.744   5.162 -0.0793 -0.0898 -0.0748
 1556ntf    fn414152   1.226   3.762   5.192  0.1764 -0.0092  0.1147
 1556ntf    fn414153   1.326   3.859   5.027 -0.7785  1.1312  0.4076
 1556ntf    on514154   1.263   4.063   5.227  0.2289  0.3354 -0.0114
 1556ntf    on514155   1.405   3.942   5.384  0.3022 -0.0410 -0.0472
 1556ntf    on514156   1.635   4.158   4.994  0.6531 -0.0277  0.8578
 1556ntf    on514157   1.413   4.236   5.068 -0.0341  0.1820  0.2771
 1556ntf    fn414158   1.722   4.214   5.272  0.3874 -0.4932 -0.0952
 1556ntf    fn414159   1.538   4.295   5.319  0.0620 -0.2494  0.0256
 1556ntf    fn414160   1.657   4.387   5.167  0.2250 -0.4185  0.1649
 1557ntf    cn114161   5.371   0.680   5.900  0.1088 -0.3426  0.2411
 1557ntf    sn214162   5.207   0.708   5.974  0.1305  0.0171  0.1511
 1557ntf    nn314163   5.158   0.568   6.024 -0.0265  0.0186  0.0048
 1557ntf    sn214164   5.058   0.470   5.953 -0.0045 -0.0558  0.0757
 1557ntf    cn114165   4.902   0.530   6.023  0.0049  0.0321  0.0219
 1557ntf    fn414166   5.356   0.611   5.788 -0.3389 -0.0472  0.1194
 1557ntf    fn414167   5.434   0.791   5.866 -0.1927 -0.1378  0.3429
 1557ntf    fn414168   5.453   0.607   5.975  0.0731 -0.3324  0.2911
 1557ntf    on514169   5.236   0.801   6.081  0.0744  0.2988 -0.0766
 1557ntf    on514170   5.125   0.759   5.866  0.3568 -0.5397 -0.2852
 1557ntf    on514171   5.026   0.481   5.813  0.3685 -0.5321 -0.0522
 1557ntf    on514172   5.069   0.338   6.011  0.6620  0.2001  0.5481
 1557ntf    fn414173   4.867   0.645   5.969  0.1375 -0.0520 -0.2459
 1557ntf    fn414174   4.902   0.549   6.154 -0.1583 -0.4780  0.0992
 1557ntf    fn414175   4.801   0.448   5.995 -0.2221  0.5401 -0.6728
 1558ntf    cn114176   5.642   3.740   0.030  0.4916  0.2550  0.3440
 1558ntf    sn214177   5.682   3.781   0.203 -0.1337  0.1474  0.5142
 1558ntf    nn314178   5.721   3.640   0.259 -0.3127 -0.2798 -0.4205
 1558ntf    sn214179   5.651   3.542   0.359 -0.1917  0.2685  0.2080
 1558ntf    cn114180   5.764   3.402   0.333 -0.1390  0.3253  0.1314
 1558ntf    fn414181   5.540   3.658   0.012  0.2929  0.4847  0.4140
 1558ntf    fn414182   5.622   3.851  -0.039 -0.3223  0.1264  0.3718
 1558ntf    fn414183   5.748   3.690  -0.032  0.0947 -0.3959  0.1849
 1558ntf    on514184   5.792   3.874   0.196 -0.2259  0.2563  0.5063
 1558ntf    on514185   5.558   3.837   0.251 -0.1739  0.3613  0.1636
 1558ntf    on514186   5.664   3.565   0.501 -0.4204  0.2675  0.2307
 1558ntf    on514187   5.526   3.482   0.320  0.2201 -0.1910 -0.4237
 1558ntf    fn414188   5.740   3.346   0.215 -0.5964  0.1106  0.3246
 1558ntf    fn414189   5.759   3.309   0.427 -0.3698 -0.0447 -0.2406
 1558ntf    fn414190   5.887   3.446   0.312  0.0653 -0.2091  0.1835
 1559ntf    cn114191   2.806   2.498   4.011  0.1051 -0.4197 -0.1541
 1559ntf    sn214192   2.641   2.520   4.085  0.1568  0.3481 -0.2610
 1559ntf    nn314193   2.647   2.418   4.204 -0.4229  0.3609 -0.2204
 1559ntf    sn214194   2.561   2.417   4.336  0.0322 -0.3135  0.0774
 1559ntf    cn114195   2.665   2.480   4.470 -0.0379  0.2130 -0.1130
 1559ntf    fn414196   2.908   2.512   4.093 -0.0859  0.4777 -0.0652
 1559ntf    fn414197   2.818   2.380   3.952  0.1140 -0.5203  0.0485
 1559ntf    fn414198   2.825   2.585   3.914 -0.3730  0.1319  0.2415
 1559ntf    on514199   2.644   2.658   4.127  1.0339  0.2869 -0.0926
 1559ntf    on514200   2.559   2.490   3.970  0.2094  0.0048 -0.2106
 1559ntf    on514201   2.454   2.513   4.342  0.1568 -0.2063  0.5766
 1559ntf    on514202   2.536   2.280   4.373  0.6279 -0.2774  0.6204
 1559ntf    fn414203   2.597   2.520   4.576 -0.1935  0.2350 -0.2209
 1559ntf    fn414204   2.742   2.578   4.425  0.0875  0.3173  0.3131
 1559ntf    fn414205   2.739   2.379   4.513 -0.5912 -0.3396 -0.4553
 1560ntf    cn114206   0.314   3.304   0.369  0.1614 -0.1609 -0.0403
 1560ntf    sn214207   0.468   3.213   0.403 -0.0230 -0.4719 -0.0247
 1560ntf    nn314208   0.538   3.199   0.263  0.4005 -0.4982  0.1872
 1560ntf    sn214209   0.597   3.074   0.189 -0.4207 -0.7194 -0.1032
 1560ntf    cn114210   0.494   3.058   0.040 -0.0076  0.4347 -0.5261
 1560ntf    fn414211   0.233   3.299   0.474  0.1216 -0.1110 -0.0689
 1560ntf    fn414212   0.333   3.432   0.344 -0.0906 -0.1250 -0.0466
 1560ntf    fn414213   0.255   3.256   0.261 -0.3112  0.1993  0.0563
 1560ntf    on514214   0.540   3.299   0.495 -0.3964 -0.1333 -0.0463
 1560ntf    on514215   0.416   3.089   0.454 -0.3094 -0.6498 -0.7375
 1560ntf    on514216   0.728   3.100   0.133 -0.4328  0.2235  0.2968
 1560ntf    on514217   0.579   2.945   0.252 -0.0792 -0.8152 -0.2008
 1560ntf    fn414218   0.507   2.940  -0.020  0.7105  0.3825 -0.2745
 1560ntf    fn414219   0.523   3.147  -0.053  0.3314  1.0911  0.1959
 1560ntf    fn414220   0.365   3.066   0.068  0.0244 -0.4103 -0.0839
 1561ntf    cn114221   2.335   5.436   1.155  0.0246  0.0257  0.0130
 1561ntf    sn214222   2.410   5.473   1.316 -0.1280 -0.4184  0.1874
 1561ntf    nn314223   2.358   5.353   1.404 -0.0768 -0.3346  0.3320
 1561ntf    sn214224   2.255   5.372   1.521 -0.0992  0.1474  0.2372
 1561ntf    cn114225   2.341   5.474   1.645  0.2354  0.2724 -0.0961
 1561ntf    fn414226   2.326   5.540   1.074  0.2633 -0.0683 -0.1342
 1561ntf    fn414227   2.397   5.342   1.086  0.1755 -0.1570  0.3954
 1561ntf    fn414228   2.213   5.386   1.171  0.1138  0.0304  0.7604
 1561ntf    on514229   2.550   5.473   1.284 -0.0662  0.2664  0.4405
 1561ntf    on514230   2.364   5.606   1.348 -0.0416 -0.3396 -0.0221
 1561ntf    on514231   2.130   5.441   1.498 -0.2786 -0.2087  0.1437
 1561ntf    on514232   2.233   5.242   1.579 -0.1710  0.0614  0.0169
 1561ntf    fn414233   2.312   5.441   1.770  0.4507  0.1501 -0.0792
 1561ntf    fn414234   2.322   5.604   1.631  0.3700  0.3228  0.1943
 1561ntf    fn414235   2.471   5.451   1.632  0.2319 -0.0125  0.3498
 1562ntf    cn114236   4.325   4.136   3.028  0.1215 -0.0532 -0.1667
 1562ntf    sn214237   4.387   4.157   3.198  0.2496 -0.1095 -0.2070
 1562ntf    nn314238   4.281   4.262   3.247 -0.1573 -0.3787 -0.5034
 1562ntf    sn214239   4.270   4.417   3.228  0.0435 -0.2792  0.1770
 1562ntf    cn114240   4.303   4.492   3.391  0.1185 -0.0724  0.0680
 1562ntf    fn414241   4.371   4.234   2.952 -0.4668 -0.0580 -0.5405
 1562ntf    fn414242   4.375   4.026   2.975  0.2170 -0.0692 -0.0434
 1562ntf    fn414243   4.193   4.123   3.023  0.1026  0.2355 -0.4762
 1562ntf    on514244   4.373   4.029   3.264 -0.4194 -0.0735 -0.2705
 1562ntf    on514245   4.522   4.206   3.190  0.1604  0.0740 -0.6344
 1562ntf    on514246   4.374   4.474   3.145 -0.2101 -0.0376  0.0254
 1562ntf    on514247   4.138   4.465   3.196  0.3810  0.2245 -0.4917
 1562ntf    fn414248   4.422   4.462   3.441  0.0888 -0.0026  0.1792
 1562ntf    fn414249   4.211   4.460   3.481  0.0373 -0.4051 -0.1296
 1562ntf    fn414250   4.312   4.624   3.394  0.2568 -0.0954  0.7581
 1563ntf    cn114251   2.864   0.349   6.088  0.2492  0.3129 -0.2238
 1563ntf    sn214252   2.997   0.405   6.198  0.0052  0.1309  0.1656
 1563ntf    nn314253   3.061   0.266   6.235 -0.2632 -0.0818 -0.1654
 1563ntf    sn214254   3.192   0.201   6.178 -0.1863 -0.2730  0.2282
 1563ntf    cn114255   3.318   0.262   6.294  0.1323 -0.1400 -0.1849
 1563ntf    fn414256   2.797   0.453   6.042  0.2244 -0.0093 -0.9352
 1563ntf    fn414257   2.912   0.281   5.985  0.0734 -0.2026  0.0344
 1563ntf    fn414258   2.778   0.268   6.147 -0.0909  0.2674 -0.7764
 1563ntf    on514259   3.067   0.497   6.112  0.7082 -0.2356  0.3367
 1563ntf    on514260   2.922   0.464   6.306 -0.2652  0.1241 -0.0187
 1563ntf    on514261   3.194   0.059   6.207 -0.0439 -0.2721  0.2222
 1563ntf    on514262   3.223   0.247   6.045  0.5552 -0.1211  0.4513
 1563ntf    fn414263   3.295   0.208   6.413 -0.9956 -0.0159 -0.3300
 1563ntf    fn414264   3.311   0.393   6.311  0.2689 -0.1051 -0.3908
 1563ntf    fn414265   3.442   0.230   6.261  0.1231 -0.4414  0.0713
 1564ntf    cn114266   0.412   6.490   0.171  0.0318 -0.0012 -0.0938
 1564ntf    sn214267   0.539   6.367   0.129 -0.1472 -0.1444 -0.2122
 1564ntf    nn314268   0.617   6.342   0.263  0.3837 -0.1500 -0.5210
 1564ntf    sn214269   0.767   6.347   0.311  0.1509  0.3712  0.1838
 1564ntf    cn114270   0.789   6.526   0.324  0.1827  0.4063 -0.3214
 1564ntf    fn414271   0.471   6.609   0.166  0.3656 -0.1496  0.1926
 1564ntf    fn414272   0.294   6.501   0.114 -0.0861  0.8456  0.2932
 1564ntf    fn414273   0.381   6.485   0.300 -0.1287 -0.5371 -0.1533
 1564ntf    on514274   0.456   6.255   0.092  0.1431 -0.3149 -0.3506
 1564ntf    on514275   0.631   6.421   0.033  0.1811 -0.0227  0.1656
 1564ntf    on514276   0.786   6.286   0.440  0.2789 -0.1436 -0.0704
 1564ntf    on514277   0.865   6.307   0.213 -0.2148 -0.1694  0.0279
 1564ntf    fn414278   0.910   6.561   0.364  0.2009  0.3298 -0.3102
 1564ntf    fn414279   0.710   6.585   0.412  0.1320 -0.2870  0.0968
 1564ntf    fn414280   0.770   6.595   0.212 -0.2968  0.7596 -0.0254
 1565ntf    cn114281   5.378   6.001   0.776 -0.2370  0.0355 -0.4717
 1565ntf    sn214282   5.388   6.153   0.677  0.1051  0.1592 -0.2492
 1565ntf    nn314283   5.536   6.199   0.707  0.1265  0.1724 -0.3737
 1565ntf    sn214284   5.613   6.335   0.724 -0.0669  0.2452 -0.0812
 1565ntf    cn114285   5.672   6.364   0.555  0.1059  0.6154  0.0438
 1565ntf    fn414286   5.264   5.939   0.749 -0.1663 -0.3392  0.0599
 1565ntf    fn414287   5.473   5.909   0.764 -0.1608  0.0618 -0.0928
 1565ntf    fn414288   5.378   6.022   0.907  0.0113  0.1715 -0.4937
 1565ntf    on514289   5.373   6.112   0.539  0.4495  0.3545 -0.3468
 1565ntf    on514290   5.283   6.236   0.729 -0.0738  0.0063 -0.3678
 1565ntf    on514291   5.532   6.449   0.760  0.2265  0.4415 -0.0408
 1565ntf    on514292   5.738   6.335   0.796 -0.1983  0.2590  0.1481
 1565ntf    fn414293   5.756   6.268   0.520  0.0459  0.4132  0.4454
 1565ntf    fn414294   5.728   6.483   0.537  0.6312  0.3878  0.1679
 1565ntf    fn414295   5.574   6.356   0.467 -0.0589 -0.2103  0.3019
 1566ntf    cn114296   2.670   1.817   0.873 -0.0346 -0.5698 -0.1511
 1566ntf    sn214297   2.582   1.838   1.031  0.3453  0.0328 -0.0165
 1566ntf    nn314298   2.635   1.978   1.077  0.1875 -0.0045  0.2817
 1566ntf    sn214299   2.570   2.121   1.067  0.2133  0.0045  0.2393
 1566ntf    cn114300   2.462   2.116   1.213 -0.1074  0.0151  0.0032
 1566ntf    fn414301   2.624   1.710   0.811 -0.0824 -0.6793  0.0715
 1566ntf    fn414302   2.647   1.915   0.788  0.1867 -0.0749  0.3558
 1566ntf    fn414303   2.802   1.814   0.882 -0.0350 -0.0090  0.0697
 1566ntf    on514304   2.441   1.820   1.010  0.3682 -0.3081  0.1052
 1566ntf    on514305   2.631   1.731   1.115 -0.6114 -0.4111 -0.0139
 1566ntf    on514306   2.663   2.229   1.090 -0.2898  0.5475 -0.2318
 1566ntf    on514307   2.479   2.136   0.957 -0.0036  0.2613  0.4533
 1566ntf    fn414308   2.527   2.109   1.328  0.3900  0.6256 -0.2374
 1566ntf    fn414309   2.384   2.009   1.211  0.4252 -0.3834  0.2266
 1566ntf    fn414310   2.388   2.225   1.216  0.0611  0.1262  0.1953
 1567ntf    cn114311   3.443   4.814   2.845 -0.0647 -0.3163  0.0564
 1567ntf    sn214312   3.419   4.663   2.942  0.1963 -0.4321 -0.0585
 1567ntf    nn314313   3.510   4.554   2.874  0.1712 -0.4191 -0.1126
 1567ntf    sn214314   3.536   4.406   2.918  0.0814 -0.3451  0.1899
 1567ntf    cn114315   3.614   4.425   3.081 -0.2680  0.2306  0.2953
 1567ntf    fn414316   3.572   4.839   2.832 -0.1919  0.2628 -0.1501
 1567ntf    fn414317   3.386   4.810   2.725 -0.1885  0.0089  0.1014
 1567ntf    fn414318   3.392   4.922   2.903  0.4950 -0.2426  0.4229
 1567ntf    on514319   3.456   4.698   3.077  0.2444 -0.0389 -0.1748
 1567ntf    on514320   3.277   4.648   2.920  0.1406  0.7101 -0.5402
 1567ntf    on514321   3.412   4.333   2.932 -0.2513  0.1506 -0.1060
 1567ntf    on514322   3.636   4.337   2.841 -0.0430 -0.0138 -0.2773
 1567ntf    fn414323   3.669   4.314   3.128 -0.2120  0.3724  0.5680
 1567ntf    fn414324   3.534   4.462   3.178 -0.5821  0.2646  0.0250
 1567ntf    fn414325   3.713   4.513   3.083 -0.1667  0.1221  0.1757
 1568ntf    cn114326   0.705   5.371   1.697  0.1324 -0.3613  0.2417
 1568ntf    sn214327   0.572   5.484   1.647  0.2964 -0.1972  0.1712
 1568ntf    nn314328   0.645   5.616   1.691  0.4002 -0.1809 -0.0527
 1568ntf    sn214329   0.646   5.698   1.824  0.1288  0.0456 -0.1905
 1568ntf    cn114330   0.628   5.861   1.745  0.2743  0.1488 -0.0134
 1568ntf    fn414331   0.787   5.434   1.780  0.0949  0.0333 -0.0172
 1568ntf    fn414332   0.665   5.259   1.754  0.0311 -0.1659  0.5548
 1568ntf    fn414333   0.779   5.340   1.592 -0.1989 -0.2356 -0.0307
 1568ntf    on514334   0.575   5.475   1.503  0.2111 -0.3235  0.1766
 1568ntf    on514335   0.454   5.430   1.711 -0.2569  0.0193 -0.6525
 1568ntf    on514336   0.530   5.690   1.908 -0.0794 -0.2732 -0.5064
 1568ntf    on514337   0.777   5.703   1.885  0.0686 -0.2005 -0.0397
 1568ntf    fn414338   0.714   5.875   1.646  0.0242  0.0721 -0.2414
 1568ntf    fn414339   0.631   5.962   1.831  0.6819  0.1675 -0.0505
 1568ntf    fn414340   0.510   5.869   1.686  0.1348  0.7758  0.3385
 1569ntf    cn114341   5.199   3.976   2.004 -0.1085  0.1192  0.3188
 1569ntf    sn214342   5.134   3.875   2.140  0.1325 -0.2539  0.1572
 1569ntf    nn314343   5.101   3.993   2.238 -0.2256  0.1976 -0.4961
 1569ntf    sn214344   4.959   4.052   2.269 -0.1835 -0.0611  0.2379
 1569ntf    cn114345   4.986   4.149   2.420  0.0796 -0.2267  0.2980
 1569ntf    fn414346   5.278   4.075   2.041  0.3875 -0.1026 -0.1239
 1569ntf    fn414347   5.263   3.894   1.922 -0.2581  0.1236  0.1942
 1569ntf    fn414348   5.100   4.040   1.943  0.0443  0.0637  0.0111
 1569ntf    on514349   5.031   3.793   2.081  0.4362 -0.0186 -0.7089
 1569ntf    on514350   5.252   3.804   2.182  0.6058  0.4771  0.0702
 1569ntf    on514351   4.921   4.149   2.169 -0.3618 -0.3039  0.0713
 1569ntf    on514352   4.871   3.950   2.319  0.1541 -0.4297  0.0841
 1569ntf    fn414353   4.886   4.225   2.462  0.1607  0.1472 -0.1779
 1569ntf    fn414354   5.084   4.237   2.404 -0.3589  0.2112 -0.0022
 1569ntf    fn414355   5.025   4.074   2.522  0.8669  0.5339  0.5706
 1570ntf    cn114356   1.193   2.762   1.261  0.2654 -0.0729  0.2717
 1570ntf    sn214357   1.041   2.861   1.259  0.1177 -0.2975  0.3821
 1570ntf    nn314358   1.105   2.997   1.213 -0.0936 -0.2155  0.3261
 1570ntf    sn214359   1.093   3.133   1.290  0.2421  0.0603 -0.1042
 1570ntf    cn114360   1.135   3.251   1.158  0.4697  0.0895 -0.0070
 1570ntf    fn414361   1.181   2.650   1.329  0.4067 -0.1033  0.2478
 1570ntf    fn414362   1.244   2.730   1.143 -0.1800  0.1364  0.0190
 1570ntf    fn414363   1.286   2.836   1.319  0.6138 -0.2443 -0.0658
 1570ntf    on514364   0.959   2.803   1.156  0.4297 -0.5246  0.2618
 1570ntf    on514365   0.989   2.855   1.394 -0.4661 -1.1660  0.1299
 1570ntf    on514366   0.961   3.182   1.323  0.3216  0.0361  0.2618
 1570ntf    on514367   1.195   3.158   1.389 -0.1477  1.0677  0.0601
 1570ntf    fn414368   1.059   3.241   1.050  0.3312 -0.0783  0.1058
 1570ntf    fn414369   1.262   3.234   1.128  0.4655  0.1638 -0.0658
 1570ntf    fn414370   1.130   3.378   1.196 -0.2234  0.0027  0.2123
 1571ntf    cn114371   4.548   5.525   0.521  0.0335  0.1951  0.0454
 1571ntf    sn214372   4.654   5.448   0.647  0.1466  0.2347 -0.0259
 1571ntf    nn314373   4.780   5.542   0.657  0.3427 -0.0624  0.2887
 1571ntf    sn214374   4.817   5.652   0.763  0.3596  0.1120  0.1024
 1571ntf    cn114375   4.988   5.599   0.792  0.2155 -0.4041  0.0267
 1571ntf    fn414376   4.460   5.433   0.484  0.0117  0.3183 -0.2128
 1571ntf    fn414377   4.473   5.630   0.550  0.0697  0.1931  0.1473
 1571ntf    fn414378   4.620   5.546   0.412  0.3149 -0.3628  0.1187
 1571ntf    on514379   4.560   5.437   0.755 -0.2386 -0.1922 -0.4004
 1571ntf    on514380   4.700   5.327   0.584 -0.0929 -0.3535  0.9178
 1571ntf    on514381   4.828   5.783   0.704 -0.7033 -0.0401 -0.4595
 1571ntf    on514382   4.746   5.636   0.888  0.4391  0.6076  0.2116
 1571ntf    fn414383   5.050   5.671   0.885 -0.5050  0.3420 -0.0604
 1571ntf    fn414384   5.064   5.592   0.684 -0.0191  0.1988 -0.1818
 1571ntf    fn414385   4.995   5.476   0.842 -0.2525 -0.4174  0.0639
 1572ntf    cn114386   1.357   1.994   1.882  0.0572 -0.3486 -0.0688
 1572ntf    sn214387   1.321   1.881   2.019 -0.3098  0.0856  0.1946
 1572ntf    nn314388   1.452   1.893   2.105 -0.2877 -0.2519  0.2092
 1572ntf    sn214389   1.577   1.799   2.108 -0.2911 -0.2536  0.2990
 1572ntf    cn114390   1.536   1.660   2.219 -0.0296 -0.2482  0.4032
 1572ntf    fn414391   1.358   2.119   1.926  0.2433 -0.0953 -0.7767
 1572ntf    fn414392   1.474   1.965   1.827  0.0214 -0.2672 -0.1890
 1572ntf    fn414393   1.266   1.999   1.786 -0.0698  0.8626  0.0989
 1572ntf    on514394   1.203   1.928   2.088 -0.2428  0.1730  0.2496
 1572ntf    on514395   1.308   1.762   1.939  0.2275  0.4235 -0.3951
 1572ntf    on514396   1.619   1.730   1.988 -0.8391 -0.0237 -0.0237
 1572ntf    on514397   1.680   1.865   2.185  0.1262  0.1189 -0.5723
 1572ntf    fn414398   1.451   1.583   2.154  0.2807  0.3313 -0.7233
 1572ntf    fn414399   1.483   1.699   2.334  0.2440  0.4513  0.3003
 1572ntf    fn414400   1.644   1.587   2.243 -0.0073 -0.2924  0.1643
 1573ntf    cn114401   1.369   1.766   5.222 -0.0845 -0.1992 -0.0980
 1573ntf    sn214402   1.376   1.773   5.403  0.0668 -0.1897 -0.1033
 1573ntf    nn314403   1.514   1.700   5.417  0.2777  0.3029  0.4306
 1573ntf    sn214404   1.660   1.757   5.422  0.3952  0.0280  0.1649
 1573ntf    cn114405   1.731   1.680   5.571  0.2378  0.0171  0.2339
 1573ntf    fn414406   1.451   1.857   5.172  0.3264 -0.3228  0.3357
 1573ntf    fn414407   1.412   1.651   5.172 -0.2162 -0.3619  0.1625
 1573ntf    fn414408   1.250   1.786   5.168 -0.1551 -0.2516  0.0388
 1573ntf    on514409   1.371   1.914   5.430  0.1640 -0.1569 -0.2585
 1573ntf    on514410   1.263   1.694   5.446 -0.0788 -0.0468 -0.2225
 1573ntf    on514411   1.748   1.724   5.313 -0.1660 -0.0553 -0.2670
 1573ntf    on514412   1.671   1.894   5.465  0.0579  0.0729  0.1118
 1573ntf    fn414413   1.690   1.743   5.680 -0.2991  0.7503 -0.3810
 1573ntf    fn414414   1.861   1.694   5.558  0.2742 -0.3567  0.1842
 1573ntf    fn414415   1.709   1.550   5.582  0.1974 -0.0411 -0.4997
 1574ntf    cn114416   4.049   4.565   1.201  0.0269  0.1912  0.1490
 1574ntf    sn214417   3.896   4.631   1.275 -0.0234  0.1711  0.0639
 1574ntf    nn314418   3.956   4.706   1.399  0.2498  0.4091 -0.2116
 1574ntf    sn214419   3.879   4.804   1.494  0.1183  0.0679  0.0380
 1574ntf    cn114420   3.954   4.963   1.446 -0.0139  0.0894 -0.0959
 1574ntf    fn414421   4.019   4.479   1.105  0.1022  0.2976  0.0296
 1574ntf    fn414422   4.138   4.654   1.159 -0.0828  0.1480 -0.1762
 1574ntf    fn414423   4.114   4.504   1.297  0.0282  0.0876  0.0815
 1574ntf    on514424   3.837   4.715   1.174  0.3561  0.2798 -0.0702
 1574ntf    on514425   3.832   4.509   1.319  0.5247 -0.2221 -0.2175
 1574ntf    on514426   3.741   4.817   1.456  0.0944  0.2772  0.1914
 1574ntf    on514427   3.916   4.781   1.631 -0.0603 -0.1881  0.0420
 1574ntf    fn414428   3.912   5.006   1.328  0.3873  0.3591 -0.1417
 1574ntf    fn414429   4.085   4.953   1.438 -0.0198 -0.2297  0.1794
 1574ntf    fn414430   3.929   5.059   1.534  0.2019  0.3243 -0.2872
 1575ntf    cn114431   2.929   4.325   6.068 -0.0634  0.0368  0.1630
 1575ntf    sn214432   2.962   4.151   6.111 -0.0426 -0.0352 -0.1432
 1575ntf    nn314433   3.014   4.099   5.972  0.3614  0.5746 -0.2266
 1575ntf    sn214434   2.935   4.020   5.862  0.3787  0.1866  0.0391
 1575ntf    cn114435   2.962   3.848   5.916 -0.3117  0.0272 -0.1131
 1575ntf    fn414436   2.847   4.337   5.965 -0.6222  0.0453  0.6066
 1575ntf    fn414437   2.880   4.401   6.165  0.0858 -0.2814  0.4904
 1575ntf    fn414438   3.039   4.385   6.026 -0.0556 -0.0148  0.1088
 1575ntf    on514439   3.067   4.171   6.208  0.0840 -0.4802 -0.1889
 1575ntf    on514440   2.838   4.096   6.159 -0.1874  0.1695 -0.2817
 1575ntf    on514441   2.792   4.036   5.858  0.4052  0.4021 -0.0533
 1575ntf    on514442   3.000   4.014   5.733 -0.1556 -0.6420 -0.2026
 1575ntf    fn414443   2.910   3.762   5.830 -0.3084 -0.3101  0.2212
 1575ntf    fn414444   2.904   3.820   6.031 -0.6815 -0.0078 -0.3076
 1575ntf    fn414445   3.089   3.813   5.925 -0.2842  0.1609  0.0297
 1576ntf    cn114446   3.531   3.030   5.344 -0.1287  0.4412  0.2731
 1576ntf    sn214447   3.398   3.155   5.342 -0.5317  0.0067 -0.3221
 1576ntf    nn314448   3.288   3.090   5.435  0.2265 -0.4338  0.2837
 1576ntf    sn214449   3.145   3.150   5.456  0.3726  0.0122  0.0333
 1576ntf    cn114450   3.060   3.015   5.368  0.3459 -0.0044  0.0842
 1576ntf    fn414451   3.486   2.914   5.299  0.2634  0.2892  0.2760
 1576ntf    fn414452   3.633   3.063   5.267 -0.0988  0.2313  0.2248
 1576ntf    fn414453   3.578   3.003   5.464 -0.3858 -0.2007  0.2331
 1576ntf    on514454   3.466   3.263   5.409  0.3431 -0.4718 -0.4301
 1576ntf    on514455   3.370   3.155   5.201 -0.3713  0.4407 -0.3533
 1576ntf    on514456   3.098   3.135   5.591  0.4400  0.0068  0.0561
 1576ntf    on514457   3.104   3.271   5.388  0.3666  0.3157  0.5698
 1576ntf    fn414458   2.929   3.034   5.378  0.2995 -0.2779 -0.0114
 1576ntf    fn414459   3.081   2.894   5.416  0.1577 -0.1011 -0.0753
 1576ntf    fn414460   3.097   3.018   5.241 -0.1299 -0.4772 -0.0690
 1577ntf    cn114461   0.092   3.961   6.283 -0.0564 -0.9549 -0.1715
 1577ntf    sn214462   0.257   3.926   6.351  0.0673  0.0870  0.0783
 1577ntf    nn314463   0.251   4.038   6.461  0.0970  0.0323  0.1358
 1577ntf    sn214464   0.232   4.019   6.616 -0.2215  0.0201  0.0966
 1577ntf    cn114465   0.408   4.002   6.657 -0.2051 -0.1615 -0.0493
 1577ntf    fn414466  -0.011   3.966   6.365  0.3094  0.4578  0.2261
 1577ntf    fn414467   0.086   4.076   6.217 -0.3418 -0.1927  1.1571
 1577ntf    fn414468   0.068   3.872   6.188 -0.9234 -0.5864 -0.3032
 1577ntf    on514469   0.254   3.789   6.395 -0.1168  0.0810  0.0471
 1577ntf    on514470   0.351   3.958   6.246  0.1607 -0.0775  0.1103
 1577ntf    on514471   0.204   4.142   6.686  0.3896  0.3363 -0.2019
 1577ntf    on514472   0.162   3.905   6.668 -0.6300  0.2251 -0.0029
 1577ntf    fn414473   0.451   3.883   6.615  0.5291 -0.0118  0.2600
 1577ntf    fn414474   0.432   4.007   6.787  0.5458  0.3808 -0.2008
 1577ntf    fn414475   0.487   4.091   6.599 -0.5462  0.2754  0.1568
 1578ntf    cn114476   3.182   5.528   2.534  0.2013 -0.3430 -0.4284
 1578ntf    sn214477   3.211   5.462   2.701 -0.1722 -0.2660 -0.3339
 1578ntf    nn314478   3.366   5.441   2.706 -0.1850 -0.2551  0.1282
 1578ntf    sn214479   3.455   5.397   2.828 -0.0272  0.0327  0.1184
 1578ntf    cn114480   3.490   5.222   2.794 -0.1718  0.0015  0.1294
 1578ntf    fn414481   3.265   5.624   2.495  0.0835  0.0395  0.2491
 1578ntf    fn414482   3.207   5.433   2.445  0.2634 -0.7927  0.0675
 1578ntf    fn414483   3.059   5.574   2.521  0.0984 -0.7045 -0.7557
 1578ntf    on514484   3.173   5.576   2.781 -0.5805 -0.0854 -0.7802
 1578ntf    on514485   3.132   5.342   2.699 -0.7204  0.0801  0.2160
 1578ntf    on514486   3.590   5.447   2.828 -0.0226  0.0197  0.2520
 1578ntf    on514487   3.397   5.397   2.960 -0.2766  0.5838  0.0117
 1578ntf    fn414488   3.389   5.141   2.819 -0.2956  0.1183  0.0101
 1578ntf    fn414489   3.593   5.181   2.866 -0.3740  0.0472  0.4477
 1578ntf    fn414490   3.520   5.203   2.666 -0.4145  0.0314  0.0676
 1579ntf    cn114491   3.709   6.637   3.383 -0.4057  0.0075 -0.0292
 1579ntf    sn214492   3.586   6.596   3.510 -0.2711  0.0970  0.1294
 1579ntf    nn314493   3.687   6.545   3.619  0.2359  0.1722 -0.2990
 1579ntf    sn214494   3.715   6.601   3.763 -0.6110  0.0144 -0.0683
 1579ntf    cn114495   3.690   6.452   3.864  0.4151  0.1668  0.4252
 1579ntf    fn414496   3.773   6.527   3.346  0.1530  0.2286  0.2750
 1579ntf    fn414497   3.668   6.707   3.278 -0.2801 -0.2831 -0.2761
 1579ntf    fn414498   3.802   6.713   3.440  0.0741 -0.2956 -0.3924
 1579ntf    on514499   3.523   6.724   3.532  0.3298  0.4205  0.0053
 1579ntf    on514500   3.500   6.501   3.445  0.0939  0.0464 -0.2841
 1579ntf    on514501   3.852   6.642   3.779 -0.7300  0.1614  0.6068
 1579ntf    on514502   3.619   6.696   3.815 -0.1242  0.0318  0.8268
 1579ntf    fn414503   3.565   6.440   3.906  0.2736  0.3379  0.0613
 1579ntf    fn414504   3.755   6.462   3.978  0.4949 -0.5475  0.4481
 1579ntf    fn414505   3.720   6.338   3.803 -0.8024  0.3165 -0.4987
 1580ntf    cn114506   6.129   3.604   4.165 -0.3790 -0.0976  0.1053
 1580ntf    sn214507   6.005   3.518   4.267 -0.0943 -0.0398  0.4986
 1580ntf    nn314508   6.082   3.518   4.404 -0.3267  0.5210  0.6334
 1580ntf    sn214509   6.141   3.401   4.491  0.2246  0.3315  0.0120
 1580ntf    cn114510   6.310   3.414   4.424  0.1893  0.2371 -0.0952
 1580ntf    fn414511   6.221   3.519   4.121  0.0044  0.0247  0.6629
 1580ntf    fn414512   6.072   3.665   4.062  0.0679 -0.2007 -0.2050
 1580ntf    fn414513   6.195   3.694   4.235 -0.5927  0.2199 -0.0944
 1580ntf    on514514   5.885   3.598   4.271  0.1656  0.3850 -0.0897
 1580ntf    on514515   5.993   3.389   4.204  0.2344  0.0936  0.1608
 1580ntf    on514516   6.167   3.448   4.625  0.3220 -0.2556  0.2017
 1580ntf    on514517   6.092   3.268   4.464 -0.4642  0.5433  0.2030
 1580ntf    fn414518   6.311   3.416   4.292  0.0881 -0.3112 -0.1083
 1580ntf    fn414519   6.389   3.318   4.470  0.0634  0.1616 -0.0329
 1580ntf    fn414520   6.361   3.531   4.456 -0.3418  0.4098  0.1385
 1581ntf    cn114521   1.258   0.492   4.845  0.0524  0.4968  0.1957
 1581ntf    sn214522   1.245   0.467   5.025  0.3594 -0.0125  0.1490
 1581ntf    nn314523   1.150   0.586   5.063  0.2444  0.1697 -0.6847
 1581ntf    sn214524   0.993   0.590   5.063  0.2393  0.0529 -0.2012
 1581ntf    cn114525   0.965   0.512   5.225  0.0704  0.1610 -0.1794
 1581ntf    fn414526   1.151   0.445   4.782  0.0954  0.9769 -0.2386
 1581ntf    fn414527   1.272   0.619   4.811 -0.1838  0.4836  0.0438
 1581ntf    fn414528   1.356   0.417   4.796 -0.3775  0.2567 -0.3127
 1581ntf    on514529   1.191   0.335   5.046  0.1928 -0.0449 -0.4720
 1581ntf    on514530   1.382   0.480   5.069  0.5721  0.0512 -0.5152
 1581ntf    on514531   0.942   0.723   5.086 -0.0374 -0.0366 -0.2897
 1581ntf    on514532   0.932   0.496   4.971  0.0098  0.4079 -0.4142
 1581ntf    fn414533   1.042   0.408   5.248  0.1064  0.1092 -0.5351
 1581ntf    fn414534   0.836   0.482   5.236 -0.0129  0.3131 -0.6915
 1581ntf    fn414535   1.004   0.597   5.319  0.1542 -0.2092  0.1189
 1582ntf    cn114536   5.177   2.110   5.337 -0.2832  0.1501  0.0976
 1582ntf    sn214537   5.318   2.077   5.447 -0.1383 -0.0338 -0.1435
 1582ntf    nn314538   5.313   2.216   5.519 -0.0672 -0.0709 -0.0666
 1582ntf    sn214539   5.391   2.349   5.485 -0.0847  0.0077  0.1990
 1582ntf    cn114540   5.556   2.323   5.558  0.0256 -0.2709 -0.1482
 1582ntf    fn414541   5.192   2.228   5.280 -0.1272 -0.0582 -0.2959
 1582ntf    fn414542   5.170   2.019   5.241  0.1441  0.0785  0.1305
 1582ntf    fn414543   5.063   2.105   5.403 -0.4368  0.1168 -0.1670
 1582ntf    on514544   5.278   1.964   5.527  0.3624 -0.4170 -0.4211
 1582ntf    on514545   5.431   2.057   5.360  0.1505  0.1977  0.1740
 1582ntf    on514546   5.422   2.375   5.347  0.0927 -0.1306  0.2118
 1582ntf    on514547   5.336   2.465   5.551 -0.2773 -0.0193  0.0873
 1582ntf    fn414548   5.614   2.439   5.581 -0.4227 -0.1316  0.2904
 1582ntf    fn414549   5.636   2.246   5.486  0.1070 -0.1679 -0.1679
 1582ntf    fn414550   5.550   2.273   5.680 -0.0821 -0.6630 -0.3121
 1583ntf    cn114551   1.690   2.177   0.749  0.1975  0.6080  0.0420
 1583ntf    sn214552   1.806   2.279   0.844  0.2567  0.3169  0.2835
 1583ntf    nn314553   1.695   2.369   0.909 -0.3661 -0.0963 -0.1949
 1583ntf    sn214554   1.640   2.507   0.858 -0.0769  0.0725 -0.0526
 1583ntf    cn114555   1.607   2.586   1.019  0.0336 -0.0821  0.0470
 1583ntf    fn414556   1.752   2.072   0.699 -0.0173  0.2894  0.4391
 1583ntf    fn414557   1.583   2.140   0.818  0.2484  0.2141 -0.0866
 1583ntf    fn414558   1.636   2.242   0.647  0.0542  0.4954  0.0462
 1583ntf    on514559   1.867   2.190   0.939  0.4706  0.4580  0.2818
 1583ntf    on514560   1.899   2.335   0.749  0.7463 -0.1142  0.5034
 1583ntf    on514561   1.732   2.603   0.804  0.3453 -0.0325  0.4683
 1583ntf    on514562   1.513   2.490   0.793  0.2275 -0.5767 -0.4829
 1583ntf    fn414563   1.561   2.709   1.005 -0.3651 -0.1566  0.6675
 1583ntf    fn414564   1.712   2.586   1.099 -0.1287  0.3561  0.2676
 1583ntf    fn414565   1.513   2.518   1.082  0.0802 -0.6392 -0.4683
 1584ntf    cn114566   6.530   3.857   2.928  0.0477 -0.0172  0.3943
 1584ntf    sn214567   6.389   3.967   2.961  0.2441  0.3197  0.1129
 1584ntf    nn314568   6.446   4.061   3.073  0.3678  0.5068 -0.1048
 1584ntf    sn214569   6.439   4.041   3.228  0.2001 -0.2340 -0.2053
 1584ntf    cn114570   6.595   4.117   3.280 -0.0861  0.2750 -0.0782
 1584ntf    fn414571   6.493   3.732   2.951 -0.6077  0.0570 -0.2205
 1584ntf    fn414572   6.569   3.864   2.802  0.0010  0.1693  0.3902
 1584ntf    fn414573   6.641   3.888   2.994  0.2089 -0.1981  0.2109
 1584ntf    on514574   6.361   4.040   2.839 -0.1621 -0.1588 -0.0817
 1584ntf    on514575   6.283   3.876   2.996 -0.3302  0.9444  0.0236
 1584ntf    on514576   6.341   4.128   3.290  0.2899  0.1539 -0.6034
 1584ntf    on514577   6.447   3.905   3.275  0.2595 -0.3050 -0.4252
 1584ntf    fn414578   6.701   4.054   3.232 -0.2806  0.0910 -0.2627
 1584ntf    fn414579   6.602   4.119   3.412 -0.1014  0.1718 -0.0754
 1584ntf    fn414580   6.606   4.245   3.249  0.3080  0.2314 -0.1361
 1585ntf    cn114581   6.031   0.953   0.645  0.0329  0.5283 -0.1162
 1585ntf    sn214582   5.877   1.047   0.662 -0.1190  0.2248  0.1988
 1585ntf    nn314583   5.856   1.094   0.514 -0.2411  0.1682  0.1983
 1585ntf    sn214584   5.816   1.232   0.451  0.2392  0.0326 -0.4064
 1585ntf    cn114585   5.635   1.233   0.464  0.2638  0.0448 -0.0615
 1585ntf    fn414586   6.076   0.902   0.759 -0.6587 -0.4439 -0.2625
 1585ntf    fn414587   6.014   0.855   0.558 -0.0930  0.0865  0.3970
 1585ntf    fn414588   6.125   1.027   0.589  0.1762  0.6554  0.2832
 1585ntf    on514589   5.790   0.937   0.695  0.2162  0.0250  0.4247
 1585ntf    on514590   5.902   1.150   0.760  0.5935  0.0958  0.1556
 1585ntf    on514591   5.859   1.353   0.516 -0.2263  0.1843 -0.3788
 1585ntf    on514592   5.827   1.232   0.307 -0.0992  0.1641 -0.4323
 1585ntf    fn414593   5.573   1.147   0.386  0.5620 -0.2259 -0.0038
 1585ntf    fn414594   5.582   1.345   0.419  0.5833  0.3499  0.3093
 1585ntf    fn414595   5.593   1.218   0.589 -0.2843  0.6017 -0.1776
 1586ntf    cn114596   1.053   1.584   6.263  0.2477 -0.0752  0.0928
 1586ntf    sn214597   1.103   1.430   6.180 -0.0602 -0.0699 -0.1050
 1586ntf    nn314598   1.158   1.363   6.311  0.5424  0.1978 -0.2192
 1586ntf    sn214599   1.301   1.348   6.375  0.4362 -0.0590 -0.0427
 1586ntf    cn114600   1.317   1.167   6.366  0.1395 -0.1016  0.2649
 1586ntf    fn414601   1.137   1.615   6.360 -0.4208  0.1484  0.6143
 1586ntf    fn414602   1.051   1.685   6.177  0.2400 -0.0352  0.1399
 1586ntf    fn414603   0.935   1.590   6.323  0.2204  0.8530 -0.0439
 1586ntf    on514604   0.977   1.380   6.131 -0.2583  0.2916  0.0287
 1586ntf    on514605   1.200   1.480   6.086  0.2264 -0.5379 -0.0623
 1586ntf    on514606   1.413   1.391   6.296  0.2850  0.0342 -0.2080
 1586ntf    on514607   1.304   1.364   6.518  0.0352 -0.0987 -0.0296
 1586ntf    fn414608   1.438   1.126   6.399  0.1829  0.1913  0.4677
 1586ntf    fn414609   1.308   1.122   6.242  0.4655  0.2470  0.1128
 1586ntf    fn414610   1.228   1.108   6.444 -0.3624 -0.3485 -0.4773
 1587ntf    cn114611   2.892   5.433   5.036  0.0250  0.0723  0.1289
 1587ntf    sn214612   2.948   5.568   4.927 -0.2286 -0.1940 -0.3371
 1587ntf    nn314613   2.841   5.567   4.812 -0.2420  0.1912 -0.3283
 1587ntf    sn214614   2.707   5.649   4.811 -0.4286 -0.1033  0.0838
 1587ntf    cn114615   2.770   5.810   4.753 -0.2371  0.0015  0.5868
 1587ntf    fn414616   2.980   5.386   5.123 -0.0231  0.0251  0.1527
 1587ntf    fn414617   2.786   5.473   5.103 -0.0647 -0.1990  0.1511
 1587ntf    fn414618   2.859   5.324   4.967  0.1355  0.2074 -0.1420
 1587ntf    on514619   2.948   5.693   4.999 -0.3740 -0.2302 -0.2731
 1587ntf    on514620   3.074   5.519   4.879  0.2152  0.7306 -0.1308
 1587ntf    on514621   2.619   5.605   4.705 -0.2963  0.3212 -0.2074
 1587ntf    on514622   2.650   5.668   4.941 -0.6095 -0.4369  0.0543
 1587ntf    fn414623   2.802   5.797   4.626 -0.1731 -0.5391  0.6524
 1587ntf    fn414624   2.871   5.856   4.825  0.3230  0.8233 -0.6910
 1587ntf    fn414625   2.683   5.910   4.755  0.0575  0.2689  0.1697
 1588ntf    cn114626   5.639   3.289   6.194 -0.2549 -0.3169 -0.0834
 1588ntf    sn214627   5.518   3.377   6.298  0.1586  0.2475 -0.0769
 1588ntf    nn314628   5.382   3.322   6.242 -0.1317  0.3570  0.5164
 1588ntf    sn214629   5.322   3.180   6.274 -0.1403  0.2048 -0.1640
 1588ntf    cn114630   5.307   3.105   6.109  0.3326  0.2118 -0.2113
 1588ntf    fn414631   5.655   3.165   6.236  0.5618 -0.2027 -0.0409
 1588ntf    fn414632   5.597   3.299   6.069 -0.0128 -0.1258 -0.1490
 1588ntf    fn414633   5.759   3.344   6.202 -0.2530 -0.2642 -0.4441
 1588ntf    on514634   5.557   3.346   6.433  0.1166 -0.2094 -0.1683
 1588ntf    on514635   5.527   3.515   6.256 -0.7085  0.5588  0.7275
 1588ntf    on514636   5.418   3.098   6.342 -0.2265 -0.2670 -0.6063
 1588ntf    on514637   5.188   3.193   6.326 -0.1730 -0.0777 -0.1771
 1588ntf    fn414638   5.224   3.002   6.102  0.2202  0.2891 -0.0132
 1588ntf    fn414639   5.427   3.056   6.082 -0.1095 -0.7058 -0.5582
 1588ntf    fn414640   5.268   3.182   6.008 -0.5934  0.1751  0.1079
 1589ntf    cn114641   2.976   0.744   5.383  0.0348  0.0776 -0.0082
 1589ntf    sn214642   3.084   0.598   5.376 -0.0207  0.0306  0.1149
 1589ntf    nn314643   3.019   0.503   5.484 -0.6970  0.1560 -0.1774
 1589ntf    sn214644   3.007   0.348   5.500  0.3739  0.0751 -0.0860
 1589ntf    cn114645   3.077   0.348   5.668 -0.1910 -0.1229  0.1510
 1589ntf    fn414646   2.850   0.719   5.350 -0.0246  0.0590  0.2226
 1589ntf    fn414647   2.978   0.792   5.507  0.0196  0.6425 -0.2251
 1589ntf    fn414648   3.028   0.831   5.299  0.3821 -0.7885 -0.6945
 1589ntf    on514649   3.077   0.547   5.242  0.2651  0.2945 -0.0010
 1589ntf    on514650   3.209   0.658   5.415  0.1592 -0.2646 -0.0067
 1589ntf    on514651   2.873   0.305   5.531  0.2300  0.6909  0.1498
 1589ntf    on514652   3.095   0.260   5.426  0.4302 -0.0823  0.1674
 1589ntf    fn414653   3.091   0.226   5.718 -0.1315 -0.3027 -0.3018
 1589ntf    fn414654   2.989   0.412   5.743 -0.4482 -0.0250 -0.2338
 1589ntf    fn414655   3.198   0.400   5.670  0.1905 -0.9811 -0.2253
 1590ntf    cn114656   5.568   0.052   3.505 -0.1563  0.0487  0.2742
 1590ntf    sn214657   5.476   0.038   3.661  0.0482 -0.2791  0.3663
 1590ntf    nn314658   5.444   0.186   3.701  0.2433 -0.2098  0.2669
 1590ntf    sn214659   5.465   0.260   3.838 -0.1411 -0.0876  0.2635
 1590ntf    cn114660   5.305   0.230   3.918 -0.2798  0.1697  0.0812
 1590ntf    fn414661   5.493   0.088   3.403 -0.0732 -0.4240  0.0426
 1590ntf    fn414662   5.673   0.133   3.502  0.1962 -0.4047  0.2928
 1590ntf    fn414663   5.618  -0.062   3.460 -0.0442  0.4380 -0.5951
 1590ntf    on514664   5.356  -0.035   3.629 -0.0709  0.0714  0.0122
 1590ntf    on514665   5.570  -0.028   3.749  0.4410  0.1523  0.2706
 1590ntf    on514666   5.568   0.209   3.926  0.0170 -0.2508 -0.0133
 1590ntf    on514667   5.477   0.402   3.819  0.4017 -0.1597  0.0507
 1590ntf    fn414668   5.272   0.103   3.934  0.0676 -0.0294 -0.7356
 1590ntf    fn414669   5.206   0.291   3.854 -0.5100 -0.0289  0.2416
 1590ntf    fn414670   5.311   0.275   4.042 -0.4029 -0.5969  0.3729
 1591ntf    cn114671   4.581   0.479   5.658 -0.2899  0.2483  0.5070
 1591ntf    sn214672   4.444   0.530   5.551 -0.2821 -0.0503  0.3528
 1591ntf    nn314673   4.499   0.500   5.407  0.3932  0.5333  0.4833
 1591ntf    sn214674   4.586   0.597   5.320  0.4745 -0.0864 -0.1393
 1591ntf    cn114675   4.463   0.665   5.205  0.2032 -0.1278  0.1264
 1591ntf    fn414676   4.539   0.522   5.776 -0.4450  0.6888  0.2925
 1591ntf    fn414677   4.596   0.347   5.665 -0.4086  0.2429  0.6786
 1591ntf    fn414678   4.693   0.545   5.633 -0.0760 -0.2754  0.0440
 1591ntf    on514679   4.345   0.435   5.594 -0.4842 -0.0512 -0.1111
 1591ntf    on514680   4.407   0.663   5.594 -0.4989 -0.0848  0.2756
 1591ntf    on514681   4.626   0.715   5.394 -0.2901  0.0206  0.1106
 1591ntf    on514682   4.685   0.537   5.234 -0.0231 -0.4588 -0.4552
 1591ntf    fn414683   4.506   0.763   5.128 -0.4922 -0.2116 -0.3743
 1591ntf    fn414684   4.359   0.711   5.273  0.2478  0.2304 -0.0465
 1591ntf    fn414685   4.420   0.567   5.127 -0.1592  0.2415 -0.1417
 1592ntf    cn114686   0.343   5.601   5.205  0.1332  0.1286  0.3017
 1592ntf    sn214687   0.169   5.581   5.251  0.2451 -0.4442  0.4864
 1592ntf    nn314688   0.164   5.430   5.294 -0.4896 -0.6935 -0.4374
 1592ntf    sn214689   0.089   5.375   5.421 -0.2197  0.1899  0.1116
 1592ntf    cn114690   0.041   5.206   5.377  0.0817  0.1051  0.1069
 1592ntf    fn414691   0.426   5.566   5.303  0.7522  0.2141 -0.1835
 1592ntf    fn414692   0.373   5.533   5.096  0.2290  0.0668  0.3668
 1592ntf    fn414693   0.372   5.727   5.178 -0.1425  0.1605  0.1601
 1592ntf    on514694   0.154   5.684   5.351  0.2051 -0.0162  0.0424
 1592ntf    on514695   0.108   5.597   5.122  0.2062  0.4018  0.6027
 1592ntf    on514696   0.172   5.355   5.537  0.6775  0.1824 -0.5211
 1592ntf    on514697  -0.040   5.437   5.441 -0.1406  0.3446  0.1484
 1592ntf    fn414698  -0.000   5.132   5.479 -0.0059 -0.1695 -0.1270
 1592ntf    fn414699   0.149   5.149   5.326 -0.3587 -0.6545  0.0058
 1592ntf    fn414700  -0.057   5.200   5.288 -0.2460 -0.2957  0.4854
 1593ntf    cn114701   6.108   6.555   3.112 -0.3376  0.1355  0.1205
 1593ntf    sn214702   6.106   6.403   3.013 -0.3698  0.2077  0.0098
 1593ntf    nn314703   6.048   6.298   3.114 -0.2266  0.1398  0.0225
 1593ntf    sn214704   5.907   6.230   3.109  0.0048 -0.3225 -0.2805
 1593ntf    cn114705   5.959   6.066   3.169  0.0604 -0.0378  0.4550
 1593ntf    fn414706   5.987   6.609   3.124 -0.3094  0.0989  0.5709
 1593ntf    fn414707   6.153   6.539   3.235  0.2060  0.1594 -0.0736
 1593ntf    fn414708   6.185   6.647   3.057  0.9556 -0.9971 -0.0121
 1593ntf    on514709   6.021   6.439   2.901 -0.8224  0.2003  0.3498
 1593ntf    on514710   6.246   6.378   2.986 -0.2502  0.4569  0.3908
 1593ntf    on514711   5.820   6.291   3.207  0.0788  0.0214 -0.4300
 1593ntf    on514712   5.842   6.187   2.987 -0.4003  0.5540 -0.3781
 1593ntf    fn414713   6.051   6.006   3.096 -0.4998 -0.1165 -0.1998
 1593ntf    fn414714   5.863   5.975   3.178  0.2425 -0.2613  0.1548
 1593ntf    fn414715   6.002   6.073   3.294 -0.2707 -0.4016  0.5927
 1594ntf    cn114716   5.165   4.541   0.001 -0.2761 -0.0204  0.0299
 1594ntf    sn214717   5.128   4.645   0.145 -0.1438 -0.1832  0.1827
 1594ntf    nn314718   5.220   4.770   0.121 -0.2340 -0.1100  0.2153
 1594ntf    sn214719   5.195   4.913   0.180 -0.0977 -0.1293  0.3217
 1594ntf    cn114720   5.112   4.995   0.040  0.3560 -0.0324  0.1092
 1594ntf    fn414721   5.059   4.469  -0.033 -0.4066  0.4074 -0.4807
 1594ntf    fn414722   5.198   4.609  -0.108  0.5894 -0.2701  0.1282
 1594ntf    fn414723   5.257   4.450   0.028 -0.1956  0.0864  0.1127
 1594ntf    on514724   4.987   4.674   0.130 -0.0595  0.4206  0.5270
 1594ntf    on514725   5.170   4.567   0.258 -0.1574 -0.4865 -0.0200
 1594ntf    on514726   5.099   4.925   0.287  0.4255 -0.3887  0.8250
 1594ntf    on514727   5.314   4.994   0.185 -0.4279  0.4058 -0.2352
 1594ntf    fn414728   4.995   4.933   0.035  0.3605 -0.0920  0.6772
 1594ntf    fn414729   5.174   4.988  -0.077  0.0140  0.6134 -0.1165
 1594ntf    fn414730   5.093   5.124   0.065  0.7887  0.0451  0.0476
 1595ntf    cn114731   4.871   1.086   5.324 -0.3470 -0.2943  0.1701
 1595ntf    sn214732   4.844   1.230   5.431 -0.1347  0.0840 -0.2861
 1595ntf    nn314733   4.933   1.342   5.365 -0.1951  0.3716  0.1151
 1595ntf    sn214734   4.939   1.368   5.211  0.1423 -0.0337  0.0590
 1595ntf    cn114735   4.874   1.537   5.219 -0.6892 -0.3346 -0.2350
 1595ntf    fn414736   4.775   1.071   5.234 -0.0561  0.6157 -0.2969
 1595ntf    fn414737   4.982   1.084   5.252 -0.5582  0.3205 -0.1736
 1595ntf    fn414738   4.875   0.970   5.389  0.2053 -0.4019 -0.0494
 1595ntf    on514739   4.702   1.250   5.420 -0.2074 -0.2336  0.0791
 1595ntf    on514740   4.898   1.192   5.560 -0.4287 -0.0846 -0.2133
 1595ntf    on514741   5.073   1.376   5.158  0.0694 -0.2033 -0.1531
 1595ntf    on514742   4.836   1.306   5.130  0.5075  0.1775 -0.5781
 1595ntf    fn414743   4.759   1.562   5.279 -0.0826  0.4547  0.6298
 1595ntf    fn414744   4.854   1.592   5.100 -0.1205 -0.1393 -0.2438
 1595ntf    fn414745   4.967   1.612   5.276 -1.2827  0.1585  0.1099
 1596ntf    cn114746   3.736   6.320   5.963  0.4305 -0.0365  0.1797
 1596ntf    sn214747   3.656   6.174   6.036 -0.2560  0.2026 -0.0863
 1596ntf    nn314748   3.538   6.165   5.934 -0.6296  0.4269  0.3239
 1596ntf    sn214749   3.523   6.077   5.805  0.3069  0.1215  0.4212
 1596ntf    cn114750   3.396   6.167   5.712  0.2648 -0.1617  0.2001
 1596ntf    fn414751   3.667   6.432   5.978 -0.7939 -0.7654  0.0975
 1596ntf    fn414752   3.851   6.345   6.024  0.1946  0.4722  0.4176
 1596ntf    fn414753   3.764   6.304   5.835 -0.6670  0.2468 -0.1043
 1596ntf    on514754   3.752   6.066   6.029  0.2569  0.6404  0.1059
 1596ntf    on514755   3.621   6.215   6.170  0.1340  0.4541 -0.0588
 1596ntf    on514756   3.632   6.077   5.710 -0.4753 -0.2466 -0.4931
 1596ntf    on514757   3.456   5.953   5.835 -0.3380  0.4055  0.1613
 1596ntf    fn414758   3.413   6.298   5.722 -0.0343 -0.1444  0.4918
 1596ntf    fn414759   3.275   6.150   5.763  0.0598  0.6506  0.0157
 1596ntf    fn414760   3.398   6.146   5.581  0.0833 -0.2400  0.2099
 1597ntf    cn114761   5.048   5.497   2.936 -0.3642 -0.6069 -0.2459
 1597ntf    sn214762   5.169   5.405   3.035 -0.1622 -0.6628 -0.5408
 1597ntf    nn314763   5.265   5.358   2.921  0.1534 -0.8237 -0.2112
 1597ntf    sn214764   5.386   5.439   2.861 -0.1061 -0.1456  0.1748
 1597ntf    cn114765   5.376   5.373   2.691 -0.2951 -0.4862  0.3159
 1597ntf    fn414766   5.016   5.440   2.820 -0.6809  0.0859 -0.5035
 1597ntf    fn414767   4.942   5.512   3.013 -0.2346 -0.3274 -0.1226
 1597ntf    fn414768   5.086   5.620   2.906 -0.2245 -0.7217 -0.5481
 1597ntf    on514769   5.226   5.497   3.131 -0.0619 -0.3550 -0.8924
 1597ntf    on514770   5.098   5.295   3.097  0.2358 -0.4528  0.3139
 1597ntf    on514771   5.363   5.579   2.834 -0.4917 -0.2154  0.1280
 1597ntf    on514772   5.518   5.398   2.900  0.2408  0.8907  0.1235
 1597ntf    fn414773   5.252   5.379   2.647 -0.1676 -0.2340 -0.0167
 1597ntf    fn414774   5.423   5.250   2.689  0.3322 -0.2472  0.0728
 1597ntf    fn414775   5.451   5.441   2.605  0.1755 -0.8873  0.4033
 1598ntf    cn114776   3.006   6.623   0.967 -0.0463  0.0245 -0.1201
 1598ntf    sn214777   3.124   6.605   1.105 -0.1247 -0.3293 -0.0990
 1598ntf    nn314778   3.029   6.535   1.209 -0.1616  0.0378  0.1155
 1598ntf    sn214779   3.019   6.380   1.232  0.3297  0.0042  0.1199
 1598ntf    cn114780   3.111   6.368   1.388 -0.1660 -0.1862  0.4011
 1598ntf    fn414781   3.076   6.662   0.862  0.5474 -0.3951  0.1105
 1598ntf    fn414782   2.949   6.508   0.937  0.2236 -0.1925  0.1942
 1598ntf    fn414783   2.901   6.703   0.982  0.1723  0.3542 -0.3312
 1598ntf    on514784   3.229   6.524   1.048 -0.0564  0.3466 -0.9458
 1598ntf    on514785   3.150   6.741   1.144  0.2905 -0.3016 -0.4640
 1598ntf    on514786   2.887   6.340   1.274  0.4090 -1.0982 -0.6499
 1598ntf    on514787   3.103   6.294   1.153  0.4686 -0.2550  0.5502
 1598ntf    fn414788   3.058   6.447   1.481 -0.0360  0.3702  0.0097
 1598ntf    fn414789   3.236   6.412   1.383 -0.1402 -0.2546  0.4440
 1598ntf    fn414790   3.124   6.249   1.443  0.2067 -0.2735  0.1288
 1599ntf    cn114791   4.205   3.283   6.356 -0.2051 -0.2467 -0.4618
 1599ntf    sn214792   4.176   3.106   6.325 -0.0711 -0.3103 -0.2331
 1599ntf    nn314793   4.307   3.081   6.243  0.0476 -0.4711  0.0066
 1599ntf    sn214794   4.455   3.069   6.293  0.1253  0.1320 -0.0700
 1599ntf    cn114795   4.471   2.893   6.338  0.1338  0.0874 -0.2451
 1599ntf    fn414796   4.312   3.307   6.431 -0.5364 -0.0102 -0.0643
 1599ntf    fn414797   4.222   3.357   6.247  0.0127  0.3347 -0.0358
 1599ntf    fn414798   4.103   3.343   6.414  0.2102  0.0378 -0.0238
 1599ntf    on514799   4.172   3.031   6.447  1.5498 -0.2232 -0.1108
 1599ntf    on514800   4.063   3.094   6.235 -0.2395 -0.3257 -0.0193
 1599ntf    on514801   4.553   3.079   6.188 -0.0224 -0.3646 -0.2580
 1599ntf    on514802   4.487   3.135   6.417  0.5792  0.2136 -0.2258
 1599ntf    fn414803   4.385   2.852   6.430 -0.1048  0.2844 -0.3803
 1599ntf    fn414804   4.594   2.875   6.384  0.1180  0.0888 -0.2019
 1599ntf    fn414805   4.451   2.822   6.228  0.0019 -0.7140  0.2856
 1600ntf    cn114806   2.315   1.589   2.346 -0.0387 -0.1601 -0.0279
 1600ntf    sn214807   2.433   1.533   2.473 -0.0833  0.2011  0.1744
 1600ntf    nn314808   2.564   1.543   2.386 -0.0417 -0.2065  0.1882
 1600ntf    sn214809   2.639   1.431   2.305  0.1076  0.1063 -0.1063
 1600ntf    cn114810   2.817   1.458   2.332  0.0866  0.2655 -0.1233
 1600ntf    fn414811   2.330   1.530   2.229 -0.1396 -0.1489 -0.0462
 1600ntf    fn414812   2.188   1.574   2.377 -0.0159 -0.0452  0.1215
 1600ntf    fn414813   2.329   1.718   2.323 -0.0129 -0.1627 -0.0276
 1600ntf    on514814   2.425   1.631   2.578 -0.1146  0.0515  0.3124
 1600ntf    on514815   2.388   1.398   2.499 -0.0077  0.2372  0.4921
 1600ntf    on514816   2.630   1.298   2.360  0.6982  0.0962 -0.0324
 1600ntf    on514817   2.620   1.452   2.164  0.4271 -0.0101 -0.1676
 1600ntf    fn414818   2.844   1.485   2.459 -0.3447  0.0666  0.0142
 1600ntf    fn414819   2.873   1.546   2.251  0.1669  0.3910  0.0684
 1600ntf    fn414820   2.885   1.349   2.302  0.0634  0.2434 -0.0961
 1601ntf    cn114821   4.920   0.472   2.349 -0.3151 -0.0973  0.1057
 1601ntf    sn214822   5.069   0.486   2.451 -0.2235 -0.1240 -0.0230
 1601ntf    nn314823   5.111   0.335   2.456  0.1847 -0.0061  0.1378
 1601ntf    sn214824   5.096   0.234   2.575  0.0013  0.0356  0.1497
 1601ntf    cn114825   5.129   0.076   2.491 -0.0787  0.0742  0.0462
 1601ntf    fn414826   4.947   0.411   2.234 -0.3948 -0.2070  0.1450
 1601ntf    fn414827   4.817   0.407   2.401 -0.1330 -0.5051 -0.0405
 1601ntf    fn414828   4.862   0.586   2.314  0.1500  0.0041 -0.3534
 1601ntf    on514829   5.157   0.569   2.374 -0.3648  0.2059  0.1681
 1601ntf    on514830   5.035   0.538   2.582  0.1099  0.0034  0.0139
 1601ntf    on514831   5.201   0.239   2.674  0.1565 -0.2446  0.0011
 1601ntf    on514832   4.959   0.225   2.619 -0.0201  0.5315  0.1846
 1601ntf    fn414833   5.134  -0.033   2.566 -0.1138 -0.1165 -0.2293
 1601ntf    fn414834   5.253   0.079   2.447 -0.0616  0.5636  0.1208
 1601ntf    fn414835   5.047   0.049   2.391  0.0218 -0.1034  0.0107
 1602ntf    cn114836   4.638   2.456   6.239 -0.2739  0.5008  0.1226
 1602ntf    sn214837   4.532   2.415   6.381 -0.1990 -0.2693 -0.0378
 1602ntf    nn314838   4.572   2.264   6.400  0.0442 -0.2062 -0.0407
 1602ntf    sn214839   4.486   2.133   6.390 -0.4396  0.1159 -0.1654
 1602ntf    cn114840   4.429   2.135   6.562 -0.0452 -0.1813 -0.0286
 1602ntf    fn414841   4.596   2.412   6.121  0.3258 -0.2188  0.1727
 1602ntf    fn414842   4.661   2.584   6.217  0.8903  0.3098  0.1747
 1602ntf    fn414843   4.754   2.394   6.251 -0.5508 -0.2129 -0.7606
 1602ntf    on514844   4.571   2.494   6.495  0.1090 -0.2953 -0.1231
 1602ntf    on514845   4.399   2.445   6.333 -0.0099  0.6001 -0.0440
 1602ntf    on514846   4.375   2.144   6.298 -0.6483 -0.0396  0.0673
 1602ntf    on514847   4.560   2.010   6.379 -0.7245 -0.1034  0.3266
 1602ntf    fn414848   4.344   2.036   6.585  0.2080 -0.5017 -0.4732
 1602ntf    fn414849   4.372   2.248   6.602  0.6487  0.0533  0.3066
 1602ntf    fn414850   4.527   2.120   6.649 -0.0244 -0.2309 -0.0606
 1603ntf    cn114851   2.978   2.469   0.394 -0.3697 -0.0260  0.1131
 1603ntf    sn214852   3.063   2.308   0.391 -0.2658  0.0222  0.3643
 1603ntf    nn314853   3.131   2.317   0.532 -0.3052 -0.1349  0.3942
 1603ntf    sn214854   3.083   2.272   0.674 -0.2652 -0.0235  0.4429
 1603ntf    cn114855   3.083   2.435   0.756  0.1237  0.3005 -0.1955
 1603ntf    fn414856   2.868   2.482   0.466 -0.1910  0.1202  0.3634
 1603ntf    fn414857   3.065   2.562   0.431 -0.3803  0.1453 -0.2996
 1603ntf    fn414858   2.944   2.506   0.272 -0.3617  0.3391  0.2201
 1603ntf    on514859   2.959   2.211   0.367 -0.3388  0.3464 -0.6935
 1603ntf    on514860   3.155   2.326   0.281 -0.3493 -0.1751  0.2595
 1603ntf    on514861   2.944   2.234   0.679 -0.2687 -0.1019 -0.1723
 1603ntf    on514862   3.183   2.201   0.749  0.7627  0.5937 -0.3166
 1603ntf    fn414863   3.203   2.482   0.785  0.3436 -0.4411  0.1206
 1603ntf    fn414864   3.029   2.433   0.877  0.4298  0.2532 -0.0576
 1603ntf    fn414865   3.016   2.522   0.683 -0.4735  0.1361  0.1534
 1604ntf    cn114866   4.198   1.609   3.962 -0.3168  0.0454  0.2694
 1604ntf    sn214867   4.349   1.609   3.862 -0.2453 -0.4459  0.3718
 1604ntf    nn314868   4.394   1.460   3.881  0.1169 -0.3166  0.5401
 1604ntf    sn214869   4.462   1.392   4.005  0.1463 -0.4404  0.4556
 1604ntf    cn114870   4.344   1.255   4.025 -0.0689 -0.3541 -0.2102
 1604ntf    fn414871   4.151   1.728   3.996 -0.2912 -0.0194  0.5419
 1604ntf    fn414872   4.096   1.548   3.902  0.0070 -0.4923  0.2584
 1604ntf    fn414873   4.202   1.551   4.082 -0.2834 -0.5202 -0.0016
 1604ntf    on514874   4.289   1.637   3.733  1.2277 -0.3491 -0.3148
 1604ntf    on514875   4.431   1.715   3.916  0.0688 -0.4544 -0.0831
 1604ntf    on514876   4.581   1.323   3.962  0.4609  0.2910  0.1322
 1604ntf    on514877   4.451   1.463   4.130 -0.0407 -0.7387  0.6113
 1604ntf    fn414878   4.393   1.149   4.087  0.6664 -0.2474 -0.6014
 1604ntf    fn414879   4.286   1.215   3.913 -0.1798 -0.2569 -0.1875
 1604ntf    fn414880   4.248   1.301   4.104  0.1680 -0.1836 -0.0220
 1605ntf    cn114881   0.991   4.423   5.746 -0.0072 -0.2544  0.1802
 1605ntf    sn214882   0.982   4.284   5.863 -0.2134 -0.2556  0.1634
 1605ntf    nn314883   0.861   4.200   5.808 -0.3112 -0.2683  0.3970
 1605ntf    sn214884   0.860   4.093   5.693 -0.3684  0.3393 -0.1716
 1605ntf    cn114885   0.682   4.116   5.663 -0.3796  0.2047 -0.2086
 1605ntf    fn414886   0.884   4.499   5.737  0.1821 -0.1373 -1.1993
 1605ntf    fn414887   1.093   4.501   5.779  0.1254 -0.3507  0.0036
 1605ntf    fn414888   1.015   4.381   5.623  0.0870 -0.5638  0.3019
 1605ntf    on514889   1.102   4.205   5.847 -0.0767  0.0236 -0.2240
 1605ntf    on514890   0.968   4.353   5.988  0.0507  0.0090  0.0477
 1605ntf    on514891   0.926   4.128   5.570 -0.2718 -0.4860 -0.3617
 1605ntf    on514892   0.865   3.957   5.740 -0.4506  0.3571 -0.1126
 1605ntf    fn414893   0.598   4.084   5.760 -0.2480 -0.1197 -0.2010
 1605ntf    fn414894   0.641   4.042   5.561  0.0197 -0.1747 -0.0946
 1605ntf    fn414895   0.662   4.241   5.624  0.0726  0.3690  0.0839
 1606ntf    cn114896   5.840   1.850   4.108  0.0817  0.2509  0.5220
 1606ntf    sn214897   5.701   1.966   4.103  0.0547  0.2046  0.1834
 1606ntf    nn314898   5.790   2.094   4.089  0.2836 -0.0189 -0.4218
 1606ntf    sn214899   5.806   2.185   3.961 -0.3324  0.1766 -0.3611
 1606ntf    cn114900   5.645   2.270   3.967 -0.3207  0.1754  0.0127
 1606ntf    fn414901   5.916   1.862   4.000  0.2429  0.2210  0.6323
 1606ntf    fn414902   5.928   1.860   4.207 -0.0053  0.2958  0.5954
 1606ntf    fn414903   5.806   1.723   4.099  0.0906  0.3089 -0.3862
 1606ntf    on514904   5.617   1.924   3.993 -0.4868  0.7034  0.3978
 1606ntf    on514905   5.647   1.945   4.235 -0.4312 -0.4730 -0.1198
 1606ntf    on514906   5.899   2.292   3.984  0.1660 -0.2110 -0.5596
 1606ntf    on514907   5.811   2.113   3.837  0.0135 -0.1541 -0.1583
 1606ntf    fn414908   5.639   2.356   4.067 -0.4166  0.2529 -0.0593
 1606ntf    fn414909   5.549   2.180   3.978 -0.1062 -0.0714 -0.1241
 1606ntf    fn414910   5.623   2.338   3.856  0.0929  0.1854 -0.0659
 1607ntf    cn114911   2.753   0.241   3.006 -0.0432 -0.0821 -0.2376
 1607ntf    sn214912   2.848   0.092   2.961 -0.1567 -0.2103 -0.0559
 1607ntf    nn314913   2.835   0.098   2.804 -0.0784 -0.3606 -0.0675
 1607ntf    sn214914   2.704   0.078   2.720 -0.2372  0.0676  0.0783
 1607ntf    cn114915   2.716  -0.099   2.682 -0.0069  0.1575 -0.2684
 1607ntf    fn414916   2.787   0.352   2.942 -0.3928 -0.0484 -0.3693
 1607ntf    fn414917   2.624   0.229   2.981 -0.0728 -0.1700 -0.0440
 1607ntf    fn414918   2.755   0.271   3.135  0.3929  0.3584 -0.3451
 1607ntf    on514919   2.978   0.120   3.016 -0.3168  0.5345 -0.0414
 1607ntf    on514920   2.777  -0.014   3.026  0.7121 -0.3211  0.7318
 1607ntf    on514921   2.577   0.094   2.786 -0.3297  0.1004 -0.1093
 1607ntf    on514922   2.719   0.144   2.593  0.5673 -0.2289  0.0108
 1607ntf    fn414923   2.840  -0.129   2.649 -0.0869 -0.1745 -0.2748
 1607ntf    fn414924   2.628  -0.132   2.588  0.1373 -0.3990 -0.2133
 1607ntf    fn414925   2.678  -0.178   2.781 -0.0746  0.0038 -0.4162
 1608ntf    cn114926   1.787   1.712   0.929  0.0874  0.3464 -0.1238
 1608ntf    sn214927   1.887   1.573   0.866 -0.0663  0.0088  0.3709
 1608ntf    nn314928   1.810   1.543   0.733  0.3286  0.1188  0.1155
 1608ntf    sn214929   1.871   1.521   0.590 -0.2200 -0.1748 -0.0775
 1608ntf    cn114930   1.860   1.692   0.528 -0.4948  0.0626  0.6127
 1608ntf    fn414931   1.661   1.678   0.952  0.1272  0.2602 -0.0343
 1608ntf    fn414932   1.836   1.759   1.043 -0.0548  0.6526 -0.1883
 1608ntf    fn414933   1.786   1.814   0.844  0.2114  0.4938  0.0501
 1608ntf    on514934   2.017   1.633   0.852 -0.0406  0.1308  1.0694
 1608ntf    on514935   1.858   1.475   0.968 -0.2795  0.2684  0.5639
 1608ntf    on514936   2.009   1.480   0.591 -0.1716 -0.0009  0.7124
 1608ntf    on514937   1.785   1.444   0.504 -0.3880  0.0021 -0.0683
 1608ntf    fn414938   1.736   1.729   0.502 -0.3252 -0.0554 -0.4025
 1608ntf    fn414939   1.918   1.701   0.409 -0.9775 -0.1046  0.3610
 1608ntf    fn414940   1.921   1.775   0.611  0.6637  0.0565 -0.2058
 1609ntf    cn114941   2.182   0.319   4.917  0.0662  0.0632 -0.0177
 1609ntf    sn214942   2.031   0.266   5.002 -0.0275 -0.0360 -0.2478
 1609ntf    nn314943   2.094   0.239   5.143 -0.3146 -0.0661 -0.1242
 1609ntf    sn214944   2.113   0.346   5.257  0.2400 -0.0977 -0.1870
 1609ntf    cn114945   2.198   0.233   5.371 -0.1796 -0.3753 -0.1492
 1609ntf    fn414946   2.263   0.214   4.912  0.1502  0.0874  0.7290
 1609ntf    fn414947   2.155   0.353   4.792 -0.3195 -0.7712 -0.1671
 1609ntf    fn414948   2.244   0.425   4.967  0.1735 -0.2034  0.4219
 1609ntf    on514949   1.939   0.376   4.996 -0.6990 -0.5479  0.4226
 1609ntf    on514950   1.992   0.146   4.931 -0.4624  0.1309 -0.2982
 1609ntf    on514951   2.217   0.444   5.238 -0.1682  0.5352  0.8074
 1609ntf    on514952   1.998   0.379   5.337  0.4584 -0.5046  0.3006
 1609ntf    fn414953   2.131   0.120   5.392  0.2186 -0.6433 -0.3045
 1609ntf    fn414954   2.242   0.280   5.486  0.2182 -0.0652 -0.4274
 1609ntf    fn414955   2.307   0.188   5.311 -0.1160 -0.1802 -0.1783
 1610ntf    cn114956   3.112   0.908   0.113  0.3788  0.2950 -0.2961
 1610ntf    sn214957   3.150   0.741   0.173  0.6359  0.3711 -0.2444
 1610ntf    nn314958   3.287   0.768   0.245  0.5498 -0.7034  0.3445
 1610ntf    sn214959   3.433   0.767   0.187  0.2933 -0.0465 -0.3243
 1610ntf    cn114960   3.498   0.922   0.257  0.3303 -0.0819 -0.2806
 1610ntf    fn414961   3.030   0.910   0.010 -0.6410 -0.1166  0.4902
 1610ntf    fn414962   3.056   0.979   0.210  0.1367  0.0935 -0.2889
 1610ntf    fn414963   3.222   0.975   0.080  0.3704  0.2566 -0.4018
 1610ntf    on514964   3.048   0.725   0.274  0.7859 -0.0315 -0.1536
 1610ntf    on514965   3.154   0.654   0.058  0.1873  0.0533 -0.0244
 1610ntf    on514966   3.516   0.665   0.246  0.5807 -0.2729 -1.1162
 1610ntf    on514967   3.444   0.782   0.044 -0.7424  0.0299 -0.4048
 1610ntf    fn414968   3.508   0.902   0.388 -0.3753  0.5342 -0.1328
 1610ntf    fn414969   3.419   1.025   0.233  0.1074 -0.1939 -0.0267
 1610ntf    fn414970   3.621   0.948   0.215  0.6171 -0.2811  0.4170
 1611ntf    cn114971   2.303   6.491   2.009 -0.1198  0.5659 -0.0242
 1611ntf    sn214972   2.157   6.385   2.034  0.3238  0.0223  0.2747
 1611ntf    nn314973   2.186   6.322   2.175 -0.8490 -0.2164  0.4207
 1611ntf    sn214974   2.281   6.201   2.205  0.0491  0.3151 -0.1936
 1611ntf    cn114975   2.428   6.287   2.267  0.2816  0.2833 -0.6979
 1611ntf    fn414976   2.324   6.558   2.121 -0.2840 -0.2621  0.5148
 1611ntf    fn414977   2.410   6.419   1.981 -0.1945  0.5499 -0.2674
 1611ntf    fn414978   2.280   6.578   1.912 -0.5530  0.3867 -0.0869
 1611ntf    on514979   2.045   6.475   2.041  0.0507 -0.2807 -0.1378
 1611ntf    on514980   2.156   6.289   1.926 -0.0530  0.1817  0.1340
 1611ntf    on514981   2.233   6.137   2.325 -0.3806  0.7456 -0.1331
 1611ntf    on514982   2.324   6.114   2.098 -0.0393  0.1092 -0.0615
 1611ntf    fn414983   2.530   6.205   2.289 -0.1136  0.0458  0.2853
 1611ntf    fn414984   2.402   6.341   2.385 -0.0702  0.0156 -0.6498
 1611ntf    fn414985   2.476   6.377   2.183  0.8192  0.1020 -0.5949
 1612ntf    cn114986   4.883   4.323   2.882 -0.4385 -0.1149  0.2370
 1612ntf    sn214987   4.762   4.456   2.906 -0.2226  0.1261 -0.0070
 1612ntf    nn314988   4.851   4.573   2.963  0.5912 -0.5554  0.1423
 1612ntf    sn214989   4.923   4.684   2.880 -0.4147  0.1256  0.1559
 1612ntf    cn114990   4.963   4.801   3.014  0.0105 -0.0576  0.1924
 1612ntf    fn414991   4.969   4.350   2.785 -0.3601  0.3577  0.4354
 1612ntf    fn414992   4.966   4.309   2.984  0.0411  0.5163 -0.0589
 1612ntf    fn414993   4.823   4.207   2.862 -0.3165 -0.2060  0.3954
 1612ntf    on514994   4.696   4.479   2.780 -0.0305 -0.3716 -0.1993
 1612ntf    on514995   4.689   4.400   3.017 -0.3076  0.5246  0.1398
 1612ntf    on514996   5.054   4.645   2.832 -0.5846 -0.0554 -0.1606
 1612ntf    on514997   4.844   4.769   2.795 -0.0715  0.0669 -0.2217
 1612ntf    fn414998   4.862   4.843   3.089 -0.1486  0.2715 -0.2005
 1612ntf    fn414999   5.009   4.915   2.965  0.4815 -0.3209  0.0172
 1612ntf    fn415000   5.059   4.756   3.093  0.1909 -0.4470 -0.2488
 1613ntf    cn115001   1.724   2.163   6.466 -0.2042 -0.1162  0.1772
 1613ntf    sn215002   1.760   2.270   6.608 -0.1015 -0.1477  0.1753
 1613ntf    nn315003   1.754   2.411   6.541  0.1840 -0.3232 -0.2170
 1613ntf    sn215004   1.867   2.517   6.511  0.1770 -0.2133  0.1343
 1613ntf    cn115005   1.795   2.606   6.370 -0.1199 -0.2327  0.2742
 1613ntf    fn415006   1.612   2.207   6.411  0.0668  0.0135 -0.2832
 1613ntf    fn415007   1.818   2.172   6.373 -0.3564 -0.0612  0.0289
 1613ntf    fn415008   1.714   2.032   6.483  0.3136 -0.1814  0.0009
 1613ntf    on515009   1.649   2.245   6.698 -0.0535  0.1955  0.3308
 1613ntf    on515010   1.886   2.216   6.651 -0.2432 -0.6472 -0.0331
 1613ntf    on515011   1.881   2.621   6.609 -0.7557 -0.2032  0.2694
 1613ntf    on515012   1.990   2.456   6.465  0.7043  0.4697  0.6280
 1613ntf    fn415013   1.892   2.673   6.309  0.1172 -0.0901  0.8066
 1613ntf    fn415014   1.701   2.695   6.397 -0.2774 -0.1367 -0.5451
 1613ntf    fn415015   1.745   2.529   6.274  0.7069 -0.4840  0.0397
 1614ntf    cn115016   0.019   6.274   1.475 -0.1746 -0.4971  0.0221
 1614ntf    sn215017   0.161   6.163   1.449 -0.1100 -0.4293  0.0809
 1614ntf    nn315018   0.104   6.051   1.354 -0.1852 -0.4270  0.1238
 1614ntf    sn215019   0.013   5.929   1.392 -0.5052 -0.3050 -0.2422
 1614ntf    cn115020   0.109   5.787   1.330  0.1755 -0.0461  0.2007
 1614ntf    fn415021   0.041   6.352   1.580  0.1992 -0.3204 -0.1864
 1614ntf    fn415022  -0.011   6.339   1.365 -0.1600  0.5507  0.6242
 1614ntf    fn415023  -0.086   6.197   1.495  0.1826 -0.9659  0.1236
 1614ntf    on515024   0.253   6.238   1.367 -0.0948  0.3925  0.8408
 1614ntf    on515025   0.194   6.121   1.583  0.0806 -0.1145  0.1330
 1614ntf    on515026   0.004   5.904   1.534  0.3088 -0.1204 -0.1505
 1614ntf    on515027  -0.112   5.922   1.320 -0.3203  0.5376 -0.6513
 1614ntf    fn415028   0.022   5.688   1.318  0.1939 -0.1133  0.6214
 1614ntf    fn415029   0.214   5.750   1.401  0.0891  0.0076  0.3570
 1614ntf    fn415030   0.150   5.815   1.207 -0.0961 -0.3058  0.0466
 1615ntf    cn115031   1.558   0.389   5.805 -0.0857  0.1316 -0.0100
 1615ntf    sn215032   1.667   0.527   5.763 -0.2075  0.2682  0.1189
 1615ntf    nn315033   1.780   0.513   5.872 -0.1069 -0.2205 -0.0452
 1615ntf    sn215034   1.795   0.588   6.009 -0.0729 -0.5364  0.1246
 1615ntf    cn115035   1.928   0.696   5.948 -0.0814 -0.6553 -0.1056
 1615ntf    fn415036   1.445   0.395   5.737 -0.1904 -0.2268  0.1247
 1615ntf    fn415037   1.610   0.270   5.780 -0.0309  0.2415 -0.4139
 1615ntf    fn415038   1.515   0.392   5.930  0.6321 -0.4052  0.2580
 1615ntf    on515039   1.716   0.501   5.630  0.6108 -0.6053  0.5797
 1615ntf    on515040   1.586   0.646   5.771 -0.0226  0.4144 -0.1421
 1615ntf    on515041   1.688   0.675   6.049 -0.1288 -0.6365  0.1915
 1615ntf    on515042   1.854   0.504   6.110  0.1283 -0.1140  0.3567
 1615ntf    fn415043   1.886   0.768   5.845 -0.0366 -0.4834 -0.0026
 1615ntf    fn415044   2.040   0.633   5.914 -0.0044 -0.5692 -0.0123
 1615ntf    fn415045   1.968   0.787   6.035 -0.2989 -0.5702 -0.0935
 1616ntf    cn115046   5.777   1.613   1.902 -0.1685  0.6643  0.0410
 1616ntf    sn215047   5.699   1.469   1.982  0.0910  0.5500  0.0890
 1616ntf    nn315048   5.577   1.454   1.884  0.2219 -0.5454  0.0884
 1616ntf    sn215049   5.473   1.338   1.865 -0.1263 -0.2600  0.2567
 1616ntf    cn115050   5.555   1.256   1.725  0.0505  0.0132  0.1995
 1616ntf    fn415051   5.701   1.722   1.902 -0.4033  0.5022 -0.0070
 1616ntf    fn415052   5.896   1.633   1.956  0.0114  0.0799 -0.1298
 1616ntf    fn415053   5.794   1.594   1.773  0.3353  0.1684  0.1779
 1616ntf    on515054   5.797   1.364   1.985 -0.2999  0.1950  0.5444
 1616ntf    on515055   5.658   1.522   2.110 -0.6198 -0.0708  0.1244
 1616ntf    on515056   5.474   1.241   1.971 -0.5914 -0.0209  0.4863
 1616ntf    on515057   5.349   1.379   1.804  0.0879 -0.1172 -0.0821
 1616ntf    fn415058   5.494   1.149   1.676  0.8154 -0.3107 -0.0587
 1616ntf    fn415059   5.674   1.212   1.764 -0.0336 -0.3692  0.0307
 1616ntf    fn415060   5.579   1.336   1.623  0.0897 -0.4274 -0.1405
 1617ntf    cn115061   6.440   4.026   0.493 -0.1581 -0.2222 -0.1458
 1617ntf    sn215062   6.384   3.853   0.502 -0.1680 -0.2136 -0.0347
 1617ntf    nn315063   6.516   3.770   0.479  0.0579  0.2175 -0.3198
 1617ntf    sn215064   6.584   3.662   0.571  0.1982  0.5832  0.0074
 1617ntf    cn115065   6.741   3.629   0.487 -0.1597 -0.3145 -0.3141
 1617ntf    fn415066   6.343   4.111   0.521  0.0190  0.0117 -0.2336
 1617ntf    fn415067   6.535   4.052   0.581 -0.1445 -0.3407 -0.1253
 1617ntf    fn415068   6.489   4.070   0.378  0.0285  0.1138  0.0614
 1617ntf    on515069   6.329   3.848   0.635 -0.1913 -0.0784 -0.0393
 1617ntf    on515070   6.282   3.848   0.400 -0.4725 -0.1280  0.2639
 1617ntf    on515071   6.620   3.707   0.703 -0.1413  0.5213  0.1229
 1617ntf    on515072   6.503   3.543   0.572  1.1194 -0.0532 -0.0865
 1617ntf    fn415073   6.835   3.565   0.555 -0.0529 -0.1338 -0.2926
 1617ntf    fn415074   6.798   3.744   0.456 -0.2070 -0.0638  0.5181
 1617ntf    fn415075   6.724   3.563   0.373 -0.0009 -0.4516 -0.2595
 1618ntf    cn115076   0.598   0.861   2.271  0.1600  0.1076  0.1493
 1618ntf    sn215077   0.598   0.741   2.408  0.4475 -0.1529 -0.0780
 1618ntf    nn315078   0.519   0.621   2.343  0.0825 -0.1021  0.2701
 1618ntf    sn215079   0.582   0.490   2.285 -0.1331 -0.1451  0.1332
 1618ntf    cn115080   0.554   0.369   2.418 -0.2984 -0.0755  0.1614
 1618ntf    fn415081   0.480   0.872   2.213  0.0828 -0.1002  0.2622
 1618ntf    fn415082   0.621   0.985   2.310 -0.4812  0.3057 -0.0921
 1618ntf    fn415083   0.693   0.832   2.184  0.1623 -0.0588  0.2061
 1618ntf    on515084   0.739   0.735   2.436  0.4250  0.2551  0.1282
 1618ntf    on515085   0.514   0.800   2.508  0.1994  0.8423 -0.8616
 1618ntf    on515086   0.504   0.431   2.179 -0.6684 -0.2979  0.6066
 1618ntf    on515087   0.724   0.503   2.264 -0.1788 -0.3033 -0.2877
 1618ntf    fn415088   0.431   0.374   2.467 -0.3500 -0.1669  0.0420
 1618ntf    fn415089   0.630   0.389   2.524 -0.3737  0.4577  0.1170
 1618ntf    fn415090   0.574   0.244   2.380  0.3041 -0.0393  0.3621
 1619ntf    cn115091   4.495   1.730   0.868  0.1170 -0.2334 -0.7107
 1619ntf    sn215092   4.577   1.593   0.781 -0.0830 -0.6461 -0.2521
 1619ntf    nn315093   4.547   1.628   0.631 -0.0588  0.4023 -0.0159
 1619ntf    sn215094   4.423   1.588   0.543  0.1220 -0.1103 -0.0398
 1619ntf    cn115095   4.480   1.424   0.490  0.0945  0.0459 -0.5601
 1619ntf    fn415096   4.490   1.705   0.998  0.0369  0.1470 -0.6395
 1619ntf    fn415097   4.553   1.848   0.853  0.3473 -0.2960 -0.3259
 1619ntf    fn415098   4.371   1.753   0.829  0.2279  0.1591 -0.8392
 1619ntf    on515099   4.717   1.616   0.805 -0.3468 -0.0404  0.7680
 1619ntf    on515100   4.514   1.472   0.827 -0.5994 -0.2705  0.0358
 1619ntf    on515101   4.297   1.574   0.611  0.1728 -0.1439  0.0467
 1619ntf    on515102   4.420   1.669   0.424 -0.2211  0.2178  0.1887
 1619ntf    fn415103   4.595   1.421   0.423  0.5183 -0.2215  0.1669
 1619ntf    fn415104   4.394   1.346   0.428  0.2238 -0.2363 -0.3901
 1619ntf    fn415105   4.495   1.348   0.597 -0.2720  0.4293 -0.2331
 1620ntf    cn115106   3.454   3.231   5.832  0.3182 -0.2965 -0.0533
 1620ntf    sn215107   3.544   3.229   5.990  0.1446 -0.1803  0.0476
 1620ntf    nn315108   3.532   3.379   6.035 -0.3164 -0.2311  0.0977
 1620ntf    sn215109   3.400   3.464   6.036 -0.1704  0.0124 -0.6666
 1620ntf    cn115110   3.442   3.566   6.181 -0.2586 -0.5705 -0.2273
 1620ntf    fn415111   3.436   3.109   5.783  0.4980 -0.1961 -0.3715
 1620ntf    fn415112   3.337   3.293   5.844  0.2545 -0.4047 -0.1111
 1620ntf    fn415113   3.525   3.287   5.736  0.4233  0.1745  0.2951
 1620ntf    on515114   3.471   3.133   6.069  0.6076 -0.6238 -0.0583
 1620ntf    on515115   3.678   3.198   5.945  0.5365  0.5344  0.7036
 1620ntf    on515116   3.387   3.553   5.923  0.5166  1.0068  0.0248
 1620ntf    on515117   3.281   3.407   6.093  0.0846 -0.1292 -0.2695
 1620ntf    fn415118   3.559   3.624   6.157 -0.3354 -0.4461 -0.3027
 1620ntf    fn415119   3.462   3.495   6.290  0.2863  0.6551  0.4880
 1620ntf    fn415120   3.348   3.655   6.207  0.0574 -0.4825  0.6297
   6.67341   6.67341   6.67341
