Converted from moscito
15120
    1poe    c31    1   0.638   0.894   0.691  0.2817  0.1632 -0.4884
    1poe     o2    2   0.514   0.913   0.626 -0.1369 -0.3633  0.1337
    1poe    c23    3   0.414   0.921   0.724  0.2139 -0.6287  0.5167
    1poe    c23    4   0.267   0.893   0.688  0.2615  0.1430 -0.3041
    1poe     o2    5   0.220   0.977   0.585  0.0886  0.0255 -0.3205
    1poe    c23    6   0.091   0.942   0.538 -0.0702 -0.0351  0.1552
    1poe    c23    7   0.085   1.013   0.402 -0.2560 -0.2259  0.0639
    1poe     o2    8   0.205   0.988   0.332 -0.2158  0.0508  0.0362
    1poe    c23    9   0.245   1.094   0.247  0.1517  0.3129  0.5364
    1poe    c23   10   0.393   1.086   0.205 -0.0879 -0.1024 -0.2238
    1poe     o2   11   0.466   1.043   0.317  0.0926  0.1392 -0.2481
    1poe    c31   12   0.604   1.068   0.304  0.1539 -0.1839 -0.2279
    2poe    c31   13   3.136   4.949   4.596  0.6764 -0.3810  0.6695
    2poe     o2   14   3.037   4.905   4.686  0.2361  0.4688  0.5996
    2poe    c23   15   2.917   4.979   4.671  0.0346  0.0332  0.0151
    2poe    c23   16   2.787   4.937   4.742 -0.1995 -0.3429 -0.6324
    2poe     o2   17   2.792   4.924   4.882 -0.1891  0.4186 -0.5602
    2poe    c23   18   2.753   4.794   4.917  0.3529  0.3200 -0.3143
    2poe    c23   19   2.807   4.765   5.059 -0.1026  0.5087 -0.1007
    2poe     o2   20   2.787   4.885   5.129 -0.0890  0.0690  0.6630
    2poe    c23   21   2.796   4.864   5.268 -0.0281 -0.4301  0.5841
    2poe    c23   22   2.727   4.979   5.344 -0.2072 -0.3891  0.3591
    2poe     o2   23   2.810   5.092   5.324 -0.2796 -0.2818  0.6625
    2poe    c31   24   2.787   5.180   5.432  0.2136  0.1292  0.4347
    3poe    c31   25   5.525   4.477   5.380  0.3318 -0.6294  0.4762
    3poe     o2   26   5.627   4.430   5.295  0.1308 -0.3433  0.0780
    3poe    c23   27   5.753   4.447   5.356  0.1874  0.4472 -0.2506
    3poe    c23   28   5.848   4.471   5.237 -0.0350  0.4282 -0.4331
    3poe     o2   29   5.834   4.369   5.142  0.6389 -0.2031  0.1344
    3poe    c23   30   5.908   4.404   5.026 -0.0274  0.4064 -0.1170
    3poe    c23   31   5.851   4.310   4.917  0.3771 -0.1172  0.1166
    3poe     o2   32   5.712   4.329   4.923  0.2909 -0.2490 -1.2014
    3poe    c23   33   5.633   4.212   4.916 -0.0594 -0.1041  0.0618
    3poe    c23   34   5.625   4.124   5.042  0.1468 -0.2560 -0.0320
    3poe     o2   35   5.597   4.205   5.154 -0.2545 -0.2629 -0.1249
    3poe    c31   36   5.541   4.112   5.244 -0.4455 -0.2027 -0.1832
    4poe    c31   37   4.908   6.327   4.955 -0.1430 -0.3817 -0.2236
    4poe     o2   38   4.792   6.271   4.898 -0.3628 -0.0577 -0.0931
    4poe    c23   39   4.813   6.132   4.885  0.6282  0.0335  0.4259
    4poe    c23   40   4.689   6.068   4.819  0.5611  0.9670 -0.3723
    4poe     o2   41   4.658   6.141   4.702 -0.2580  0.8297 -0.2416
    4poe    c23   42   4.730   6.105   4.587 -0.2727 -0.3830  0.1175
    4poe    c23   43   4.748   6.239   4.514  0.3686 -0.0790  0.8193
    4poe     o2   44   4.795   6.335   4.606  0.2383  0.3763  0.4151
    4poe    c23   45   4.822   6.457   4.541  1.0837 -0.1453 -0.2376
    4poe    c23   46   4.816   6.560   4.656  0.0196  0.0769 -0.4766
    4poe     o2   47   4.730   6.511   4.757  0.6683 -0.0700  0.0116
    4poe    c31   48   4.694   6.618   4.841  0.0454  0.0518 -0.4016
    5poe    c31   49   5.353   3.970   2.126 -0.6736  0.0876  0.0836
    5poe     o2   50   5.448   3.935   2.224 -0.5984 -0.4175 -0.1679
    5poe    c23   51   5.398   3.841   2.317 -0.7550 -0.2454 -0.0777
    5poe    c23   52   5.522   3.819   2.404 -0.3795  0.9710 -0.2762
    5poe     o2   53   5.637   3.894   2.373 -0.0756  0.4532 -0.4110
    5poe    c23   54   5.743   3.886   2.466 -0.1763  0.2217 -0.3170
    5poe    c23   55   5.885   3.908   2.412 -0.3784  0.3374 -0.7992
    5poe     o2   56   5.901   3.842   2.288  0.1719 -1.1079  0.0190
    5poe    c23   57   6.031   3.852   2.237  0.0790 -0.0401 -0.0428
    5poe    c23   58   6.074   3.757   2.123  0.7113  0.1251  0.0537
    5poe     o2   59   6.015   3.769   1.995  0.0302  0.3728  0.3859
    5poe    c31   60   6.094   3.840   1.902 -0.3421  0.3017  0.0158
    6poe    c31   61   6.132   1.533   2.329 -0.0163  0.1903  0.1349
    6poe     o2   62   6.263   1.567   2.287 -0.0189 -0.3905 -0.3492
    6poe    c23   63   6.269   1.705   2.261 -0.2983 -0.3120 -0.0051
    6poe    c23   64   6.409   1.766   2.244 -0.2378 -0.5276 -0.2880
    6poe     o2   65   6.473   1.685   2.148  0.1473 -0.1121 -0.3872
    6poe    c23   66   6.596   1.725   2.092  0.0950  0.4830 -0.0791
    6poe    c23   67   6.665   1.593   2.056 -0.5122  0.1098  0.1070
    6poe     o2   68   6.665   1.514   2.173  0.3868  0.1120  0.1190
    6poe    c23   69   6.706   1.380   2.159 -0.4636 -0.1347 -0.0983
    6poe    c23   70   6.637   1.298   2.268 -0.0684  0.0583  0.3002
    6poe     o2   71   6.505   1.343   2.289 -0.0628  0.0003  0.4687
    6poe    c31   72   6.433   1.258   2.375 -0.5458  0.1854  0.2514
    7poe    c31   73   3.994   4.101   2.416  0.2397  0.2634 -0.1212
    7poe     o2   74   4.009   4.030   2.537 -0.2724  0.3888  0.0173
    7poe    c23   75   3.888   4.054   2.606 -0.2179  0.3077  0.1405
    7poe    c23   76   3.882   3.937   2.706  0.0425  0.0988 -0.0850
    7poe     o2   77   4.002   3.941   2.778  0.0650 -0.0437 -0.1140
    7poe    c23   78   4.036   3.845   2.876  0.3228  0.2101  0.0474
    7poe    c23   79   4.072   3.713   2.806 -0.1948  0.3407 -0.4790
    7poe     o2   80   4.156   3.767   2.707  0.1300  0.1691 -0.3018
    7poe    c23   81   4.158   3.697   2.584 -0.0540 -0.2840 -0.0498
    7poe    c23   82   4.269   3.761   2.498 -0.2277 -0.0919 -0.1319
    7poe     o2   83   4.243   3.899   2.491 -0.2733 -0.1334 -0.9330
    7poe    c31   84   4.329   3.981   2.415  0.6981 -0.2280  0.0427
    8poe    c31   85   0.218   2.164   3.505  0.1185 -0.1754  0.0469
    8poe     o2   86   0.185   2.227   3.384  0.2149  0.0651  0.1458
    8poe    c23   87   0.157   2.365   3.388  0.1055  0.0427  0.1357
    8poe    c23   88   0.068   2.397   3.266  0.1087  0.2715  0.1931
    8poe     o2   89   0.096   2.318   3.153 -0.1792  1.0237 -0.4098
    8poe    c23   90   0.014   2.340   3.041 -0.4847  0.2367 -0.3453
    8poe    c23   91   0.055   2.256   2.919 -0.5836 -0.4407  0.0825
    8poe     o2   92   0.112   2.135   2.962  0.3451 -0.1817 -0.3803
    8poe    c23   93   0.125   2.064   2.841 -0.2892  0.1592 -0.6480
    8poe    c23   94   0.121   1.910   2.842 -0.3559  0.1605  0.4944
    8poe     o2   95   0.247   1.854   2.872 -0.3887 -0.1940 -0.0224
    8poe    c31   96   0.245   1.714   2.855  0.4007 -0.2214  0.0678
    9poe    c31   97   4.075   5.383   1.824  0.4026  0.2789  0.2028
    9poe     o2   98   4.152   5.395   1.707 -0.2919  0.4391 -0.2418
    9poe    c23   99   4.276   5.447   1.751 -0.1749 -0.7970  0.9567
    9poe    c23  100   4.365   5.428   1.627 -0.3044 -0.1924  0.7641
    9poe     o2  101   4.288   5.448   1.511  0.3036 -0.5258  0.2950
    9poe    c23  102   4.360   5.375   1.415  0.3794 -0.4130  0.2652
    9poe    c23  103   4.285   5.400   1.282  0.1410 -0.4012  0.4023
    9poe     o2  104   4.157   5.361   1.325  0.1037 -1.1472 -0.3635
    9poe    c23  105   4.046   5.386   1.241 -0.0754  0.1237  0.2248
    9poe    c23  106   3.935   5.306   1.312 -0.0748  0.0396  0.1324
    9poe     o2  107   3.949   5.338   1.449  0.2262 -0.3000  0.1820
    9poe    c31  108   3.824   5.340   1.513 -0.1165 -0.0246 -0.4919
   10poe    c31  109   5.617   3.040   1.510  0.0363  0.1960  0.0399
   10poe     o2  110   5.642   2.957   1.399 -0.3801  0.3075 -0.1419
   10poe    c23  111   5.618   2.819   1.419  0.0155  0.1869 -0.4705
   10poe    c23  112   5.740   2.752   1.353  0.0524  0.0457 -0.2599
   10poe     o2  113   5.771   2.817   1.232 -0.2478  0.0197 -0.3515
   10poe    c23  114   5.894   2.771   1.180  0.2853  0.5976  0.3625
   10poe    c23  115   5.933   2.881   1.080 -0.0735  0.5338  0.1496
   10poe     o2  116   5.902   3.000   1.148  0.1783  0.3824  0.5311
   10poe    c23  117   5.908   3.109   1.059  0.1099 -0.4349 -0.4993
   10poe    c23  118   5.845   3.225   1.139 -0.4241 -0.5118 -0.8043
   10poe     o2  119   5.729   3.184   1.209 -0.7140  0.6013 -0.6208
   10poe    c31  120   5.659   3.299   1.251 -0.4538  0.2542  0.8075
   11poe    c31  121   2.823   1.648   1.742 -0.0626  0.2283 -0.2756
   11poe     o2  122   2.937   1.696   1.674  0.0673  0.6393  0.2217
   11poe    c23  123   2.915   1.708   1.536  0.1692  0.3111  0.1747
   11poe    c23  124   3.043   1.753   1.463  0.1460  0.1492  0.0331
   11poe     o2  125   3.140   1.666   1.518 -0.0187 -0.2567 -0.3109
   11poe    c23  126   3.267   1.701   1.469 -0.0283 -0.1081 -0.2310
   11poe    c23  127   3.360   1.648   1.579  0.0076 -0.1273 -0.2709
   11poe     o2  128   3.297   1.686   1.699  0.4081 -0.1147 -0.0641
   11poe    c23  129   3.353   1.641   1.821  0.2039  0.3334  0.1958
   11poe    c23  130   3.261   1.689   1.934 -0.5330  0.4391 -0.4371
   11poe     o2  131   3.129   1.667   1.890 -0.3456 -0.5801 -0.5087
   11poe    c31  132   3.047   1.680   2.004  0.1214  0.0060 -0.2388
   12poe    c31  133   1.587   5.112   5.242  0.1620 -0.0357 -0.6821
   12poe     o2  134   1.643   5.131   5.114  0.5045 -0.2501 -0.5657
   12poe    c23  135   1.647   5.004   5.053 -0.3905 -0.5151 -0.0991
   12poe    c23  136   1.651   5.026   4.900 -0.4395  0.4906  0.0417
   12poe     o2  137   1.737   5.137   4.888 -0.2724  0.3750  0.1682
   12poe    c23  138   1.729   5.188   4.757  0.7324 -0.4042 -0.2073
   12poe    c23  139   1.778   5.334   4.765  0.2327 -0.2100 -0.6540
   12poe     o2  140   1.708   5.379   4.878  1.0765 -0.6274  0.0482
   12poe    c23  141   1.774   5.500   4.906  0.0353 -0.0959  0.2843
   12poe    c23  142   1.725   5.537   5.047 -0.7588 -0.0786  0.0051
   12poe     o2  143   1.738   5.422   5.127 -0.5756  0.1124  0.2539
   12poe    c31  144   1.769   5.428   5.264 -0.1153  0.2394  0.1456
   13poe    c31  145   1.125   6.284   1.521 -0.2991 -0.1674 -0.3388
   13poe     o2  146   1.178   6.329   1.398  0.2946 -0.0519 -0.0409
   13poe    c23  147   1.073   6.381   1.321 -0.1519 -0.4703  0.2783
   13poe    c23  148   1.123   6.434   1.185 -0.5230 -0.2588  0.2208
   13poe     o2  149   1.228   6.344   1.157 -0.3662 -0.1073  0.3221
   13poe    c23  150   1.312   6.399   1.058 -0.6293  0.0415  0.1815
   13poe    c23  151   1.410   6.283   1.034 -0.2255  0.5163 -0.4786
   13poe     o2  152   1.472   6.256   1.158 -0.9343  0.0717 -0.2182
   13poe    c23  153   1.483   6.116   1.172  0.8982  0.2600  0.3898
   13poe    c23  154   1.497   6.072   1.319  0.1915 -0.0488  0.3661
   13poe     o2  155   1.379   6.123   1.378  0.0708 -0.1181  0.1848
   13poe    c31  156   1.344   6.032   1.479  0.6485 -1.1833 -0.5494
   14poe    c31  157   0.443   2.337   3.074 -0.0261 -0.3735 -0.0432
   14poe     o2  158   0.379   2.221   3.121  0.0102 -0.1660  0.5295
   14poe    c23  159   0.466   2.127   3.181 -0.0981 -0.0457  0.8765
   14poe    c23  160   0.393   1.991   3.175  0.2560 -0.2024 -0.0678
   14poe     o2  161   0.267   2.013   3.234  0.3601  0.1022  0.0449
   14poe    c23  162   0.204   1.888   3.252 -0.6708  0.5789 -0.1458
   14poe    c23  163   0.061   1.911   3.305 -0.6449  0.4653 -0.0258
   14poe     o2  164   0.015   2.037   3.262  0.1806  0.6295 -0.4620
   14poe    c23  165  -0.125   2.033   3.243  0.0835  0.4024  0.2717
   14poe    c23  166  -0.171   1.969   3.111 -0.7076  0.0538  0.7097
   14poe     o2  167  -0.171   1.829   3.126  0.4585 -0.0646 -0.2164
   14poe    c31  168  -0.215   1.766   3.008  0.7746 -0.0989 -0.3147
   15poe    c31  169   0.383   5.367   6.227  0.0096 -0.0619  0.4237
   15poe     o2  170   0.446   5.345   6.352  0.1426 -0.3366  0.3097
   15poe    c23  171   0.389   5.423   6.454  0.1214 -0.0567  0.0878
   15poe    c23  172   0.438   5.333   6.570  0.2655  0.4241  0.4040
   15poe     o2  173   0.575   5.305   6.551  0.0334 -0.3006 -0.2946
   15poe    c23  174   0.622   5.220   6.653 -0.2245 -0.0952 -0.0020
   15poe    c23  175   0.774   5.238   6.658 -0.2915  0.3843  0.3152
   15poe     o2  176   0.814   5.221   6.524 -0.1092 -0.2341  0.4459
   15poe    c23  177   0.951   5.196   6.505 -0.0462  0.2207  0.2941
   15poe    c23  178   1.041   5.321   6.499  0.2459  0.0049  0.1355
   15poe     o2  179   1.057   5.405   6.611  0.3192 -0.1284  0.2241
   15poe    c31  180   1.182   5.367   6.665  0.2067 -0.1867  0.4467
   16poe    c31  181   2.411   1.772   2.527  0.0573  0.3126 -0.1603
   16poe     o2  182   2.322   1.752   2.419 -0.1428 -0.2257  0.0974
   16poe    c23  183   2.200   1.823   2.432  0.1869  0.4117 -0.2371
   16poe    c23  184   2.098   1.757   2.338  0.3675 -0.4768  0.1833
   16poe     o2  185   2.151   1.767   2.207 -0.1781 -0.3874 -0.0333
   16poe    c23  186   2.089   1.671   2.124 -0.5999  0.1005 -0.2838
   16poe    c23  187   2.189   1.644   2.010 -0.3793  0.0090 -0.0685
   16poe     o2  188   2.305   1.616   2.086  0.0606  0.9437 -0.3766
   16poe    c23  189   2.409   1.545   2.023 -0.0121  0.1075  0.4250
   16poe    c23  190   2.505   1.504   2.137 -0.0839 -0.2797  0.3482
   16poe     o2  191   2.530   1.616   2.219  0.5053 -0.2169  0.0855
   16poe    c31  192   2.636   1.578   2.304  0.0784  0.0444  0.7423
   17poe    c31  193   6.499   6.519   1.486  0.0154  0.5955 -0.5064
   17poe     o2  194   6.566   6.592   1.586  0.0802 -0.1164 -0.0287
   17poe    c23  195   6.590   6.723   1.540  0.1308 -0.0722  0.1222
   17poe    c23  196   6.564   6.813   1.662 -0.9434 -0.6828  0.3594
   17poe     o2  197   6.650   6.756   1.759  0.5993  0.5041 -0.2747
   17poe    c23  198   6.624   6.804   1.889  0.0681 -0.5698  0.0284
   17poe    c23  199   6.722   6.715   1.968  0.1636 -0.2138  0.3162
   17poe     o2  200   6.704   6.583   1.923 -0.1883 -0.1249  0.1960
   17poe    c23  201   6.798   6.494   1.978  0.2089  0.1066 -0.1051
   17poe    c23  202   6.745   6.362   1.920 -0.0426  0.3047 -0.3293
   17poe     o2  203   6.721   6.373   1.782  0.3277 -0.4976 -0.4685
   17poe    c31  204   6.674   6.247   1.739 -0.3678 -0.2676 -0.4032
   18poe    c31  205   0.459   0.392   2.101  0.0120 -0.3626  0.0749
   18poe     o2  206   0.342   0.391   2.179 -0.7543  0.1978 -1.0461
   18poe    c23  207   0.283   0.263   2.169  0.0976 -0.3139  0.2168
   18poe    c23  208   0.168   0.232   2.267  0.1670 -0.0324  0.3876
   18poe     o2  209   0.045   0.291   2.231  0.2460  0.0537  0.2566
   18poe    c23  210  -0.068   0.234   2.293  0.3624 -0.0079  0.4117
   18poe    c23  211  -0.183   0.292   2.209  0.1757 -0.3639  0.4191
   18poe     o2  212  -0.209   0.429   2.230  0.2840 -0.2097 -0.4367
   18poe    c23  213  -0.318   0.467   2.148  0.4106  0.5517 -0.2567
   18poe    c23  214  -0.278   0.602   2.085  0.4007  0.5179 -0.3351
   18poe     o2  215  -0.204   0.688   2.168  0.5777 -0.3120  0.3728
   18poe    c31  216  -0.180   0.804   2.092  0.1275 -0.0925  0.5689
   19poe    c31  217   3.993   2.862   1.305  0.2640 -0.2675  0.1030
   19poe     o2  218   4.024   2.899   1.438 -0.2053  0.0004  0.1391
   19poe    c23  219   4.123   2.810   1.482 -0.0171  0.1925  0.1081
   19poe    c23  220   4.146   2.831   1.633  0.3221 -0.3930  0.1410
   19poe     o2  221   4.130   2.970   1.643  0.4128 -0.3725  0.0072
   19poe    c23  222   4.152   3.014   1.775  0.1006  0.1051 -0.0969
   19poe    c23  223   4.198   3.161   1.760  0.0547  0.0827 -0.4738
   19poe     o2  224   4.097   3.222   1.683 -0.0973  0.1676 -0.2112
   19poe    c23  225   4.137   3.313   1.583 -0.1206  0.7640  0.3145
   19poe    c23  226   4.017   3.329   1.487 -0.3572 -0.0694  0.4644
   19poe     o2  227   4.002   3.197   1.439 -0.1818  0.0039  0.2099
   19poe    c31  228   3.904   3.203   1.337  0.4956  0.3309 -0.4352
   20poe    c31  229   0.842   4.000   3.478 -0.2765 -0.1469  0.6045
   20poe     o2  230   0.910   3.886   3.431 -0.4062  0.2678 -0.6269
   20poe    c23  231   0.818   3.787   3.392 -0.4948  0.0694  0.0775
   20poe    c23  232   0.878   3.646   3.373  0.3496  0.3947  0.2927
   20poe     o2  233   1.001   3.678   3.310  0.2944  0.7227  0.3482
   20poe    c23  234   1.071   3.559   3.283 -0.2228  0.2733  0.9361
   20poe    c23  235   1.201   3.622   3.229 -0.4230 -0.1544 -0.0617
   20poe     o2  236   1.238   3.719   3.324  0.5040 -0.0733 -0.4906
   20poe    c23  237   1.340   3.801   3.272  0.5265  0.3574  0.2193
   20poe    c23  238   1.314   3.941   3.329 -0.5184  0.1802  0.1881
   20poe     o2  239   1.179   3.978   3.349 -0.6335 -0.1020 -0.0587
   20poe    c31  240   1.157   4.112   3.385 -0.5192 -0.1640  0.2466
   21poe    c31  241   2.006   2.912   5.843  0.3935  0.6416  0.2681
   21poe     o2  242   2.014   2.921   5.702  0.3359  0.9614  0.2838
   21poe    c23  243   2.086   2.811   5.651 -0.4831  0.4315  0.2395
   21poe    c23  244   2.123   2.864   5.511 -0.1402 -0.2846  0.0558
   21poe     o2  245   2.002   2.908   5.455  0.1161  0.0286 -0.2589
   21poe    c23  246   2.019   2.969   5.329 -0.2165  0.4071 -0.1205
   21poe    c23  247   1.872   2.983   5.287 -0.1271  0.3041 -0.4705
   21poe     o2  248   1.813   3.070   5.381 -0.4614  0.0234 -0.4180
   21poe    c23  249   1.675   3.050   5.399 -0.4076  0.0564  0.0476
   21poe    c23  250   1.656   2.961   5.524  0.0405  0.5477  0.4687
   21poe     o2  251   1.736   2.989   5.636  0.3330  0.1007  0.3753
   21poe    c31  252   1.654   3.012   5.748  0.2318 -0.1056  0.3443
   22poe    c31  253   5.736   0.140   2.396 -1.0045 -0.0259 -0.0233
   22poe     o2  254   5.754   0.100   2.262 -0.1112  0.2476  0.0068
   22poe    c23  255   5.762  -0.040   2.256  0.1575  0.2733 -0.2303
   22poe    c23  256   5.718  -0.080   2.114  0.2967  0.3292 -0.2894
   22poe     o2  257   5.803  -0.012   2.024  0.0268  0.5182 -0.4024
   22poe    c23  258   5.783  -0.023   1.885 -0.2057 -0.3346 -0.3030
   22poe    c23  259   5.902   0.052   1.823 -0.1573 -0.3508 -0.2300
   22poe     o2  260   5.911   0.177   1.888  0.1641 -0.3690 -0.2364
   22poe    c23  261   6.043   0.224   1.900 -0.0399  0.4060 -0.9297
   22poe    c23  262   6.040   0.317   2.023  0.0138 -0.2986 -0.3845
   22poe     o2  263   5.966   0.268   2.133 -0.2209  0.0808 -0.3718
   22poe    c31  264   5.987   0.354   2.243 -0.2532 -0.0587 -0.2574
   23poe    c31  265   3.291   4.900   3.419 -0.1267 -0.1912  0.2878
   23poe     o2  266   3.409   4.836   3.461 -0.2665 -0.1314  0.7763
   23poe    c23  267   3.505   4.926   3.510  0.0827  0.0209 -0.1723
   23poe    c23  268   3.626   4.845   3.561  0.0326 -0.1152 -0.2683
   23poe     o2  269   3.567   4.724   3.604  0.1018 -0.1420 -0.2488
   23poe    c23  270   3.669   4.631   3.635  0.2387 -0.1326 -0.6735
   23poe    c23  271   3.606   4.496   3.675  1.0102 -0.5650 -0.9081
   23poe     o2  272   3.508   4.465   3.579 -0.1340 -0.2546  0.1293
   23poe    c23  273   3.396   4.398   3.633 -0.0297 -0.2795  0.3166
   23poe    c23  274   3.267   4.451   3.567  0.1092  0.0367  0.2976
   23poe     o2  275   3.271   4.590   3.588  0.2781  0.1618 -0.5190
   23poe    c31  276   3.135   4.625   3.597  0.1681 -0.1753 -0.8730
   24poe    c31  277   0.832   1.107   2.551 -0.1232 -0.2442  0.0555
   24poe     o2  278   0.714   1.183   2.545  0.2417  0.3832  0.6388
   24poe    c23  279   0.762   1.300   2.482  0.4368 -0.5401 -0.9854
   24poe    c23  280   0.632   1.380   2.461  0.5103 -0.1269  0.0982
   24poe     o2  281   0.544   1.347   2.566  0.2021  1.2527  0.2823
   24poe    c23  282   0.428   1.427   2.557 -0.3880  0.3219 -0.5865
   24poe    c23  283   0.330   1.375   2.664  0.1947  0.5158  0.0465
   24poe     o2  284   0.357   1.238   2.641 -0.3836  0.4823 -0.4422
   24poe    c23  285   0.313   1.152   2.743 -0.1045  0.3393 -0.4434
   24poe    c23  286   0.370   1.009   2.757 -0.1960  0.3835  0.4447
   24poe     o2  287   0.502   1.038   2.717 -0.2398  0.1235  0.1019
   24poe    c31  288   0.590   0.936   2.757 -0.1889  0.0691 -0.1471
   25poe    c31  289   3.936   0.866   3.381 -0.0071  0.7501 -0.0596
   25poe     o2  290   3.967   0.863   3.519 -0.4132  0.1757  0.0242
   25poe    c23  291   4.003   0.733   3.558 -0.1871  0.2775  0.1554
   25poe    c23  292   4.098   0.745   3.678 -0.0587 -0.9416  0.1911
   25poe     o2  293   4.050   0.845   3.766  0.1843 -0.8674  0.2408
   25poe    c23  294   4.135   0.888   3.870  0.2975  0.2168 -0.2865
   25poe    c23  295   4.051   1.001   3.934  0.3351  0.0043  0.1473
   25poe     o2  296   4.027   1.075   3.816  0.4405  0.0103  0.1290
   25poe    c23  297   3.958   1.196   3.835 -0.0716 -0.2350 -0.1260
   25poe    c23  298   3.939   1.250   3.692 -0.1422  0.0117 -0.0253
   25poe     o2  299   3.889   1.148   3.608 -0.2295 -0.2134  0.2980
   25poe    c31  300   3.832   1.208   3.493  0.6215  0.4290  0.2024
   26poe    c31  301   4.185   6.505   5.793  0.4702  0.8346 -0.2236
   26poe     o2  302   4.212   6.621   5.868 -0.2986  0.6654  0.3227
   26poe    c23  303   4.347   6.658   5.852 -0.2842  0.4121 -0.1388
   26poe    c23  304   4.380   6.753   5.968 -0.1058  0.3404 -0.1306
   26poe     o2  305   4.266   6.783   6.046 -0.4122  0.5767 -0.6589
   26poe    c23  306   4.280   6.909   6.108 -0.1906  0.4941 -0.5405
   26poe    c23  307   4.175   6.901   6.220  0.1788 -0.4349 -0.2501
   26poe     o2  308   4.052   6.872   6.157 -0.1583  0.1932  0.1068
   26poe    c23  309   3.953   6.857   6.256 -0.2364 -0.5294 -0.0783
   26poe    c23  310   3.824   6.836   6.175 -0.4185 -0.2189  0.1296
   26poe     o2  311   3.848   6.742   6.072 -0.4449  0.0838 -0.1543
   26poe    c31  312   3.732   6.736   5.992 -0.0131 -0.0226 -0.7739
   27poe    c31  313   3.086   6.083   1.652  0.9054  0.4804 -0.6541
   27poe     o2  314   3.190   6.025   1.727  0.2816  0.7427  0.4402
   27poe    c23  315   3.144   5.996   1.857  0.1220 -0.0866  0.2064
   27poe    c23  316   3.249   6.046   1.959  0.5205  1.4187 -0.9021
   27poe     o2  317   3.372   5.996   1.913  0.2143 -0.3431  0.0769
   27poe    c23  318   3.472   5.993   2.013  0.4997  0.1600 -0.1887
   27poe    c23  319   3.609   5.987   1.944  0.7321 -0.4417  0.3219
   27poe     o2  320   3.593   5.931   1.816 -0.2804  0.1540  0.1790
   27poe    c23  321   3.692   5.974   1.725 -0.6609 -0.4171 -0.5215
   27poe    c23  322   3.614   5.966   1.592 -0.1188  0.3669 -0.8959
   27poe     o2  323   3.487   6.028   1.603 -0.1254  0.1944  0.1844
   27poe    c31  324   3.465   6.104   1.486  0.8958  0.2318  0.0063
   28poe    c31  325   5.973   0.565   6.228  0.3152 -0.2193  1.0438
   28poe     o2  326   6.012   0.688   6.172 -0.1362 -0.5040  0.0627
   28poe    c23  327   6.060   0.671   6.040  0.2916  0.3766  0.0945
   28poe    c23  328   6.079   0.804   5.964  0.5266 -0.0570 -0.6099
   28poe     o2  329   6.135   0.887   6.063  0.4642 -0.2561 -0.4053
   28poe    c23  330   6.137   1.027   6.045 -0.0807 -0.2313 -0.2904
   28poe    c23  331   6.192   1.078   6.180  0.3855 -0.3080 -0.4479
   28poe     o2  332   6.111   1.020   6.280 -0.0274  1.0154  0.0039
   28poe    c23  333   6.164   1.032   6.410  0.6254 -0.4186 -0.1175
   28poe    c23  334   6.074   0.940   6.495  0.0519  0.0708 -0.1915
   28poe     o2  335   6.062   0.805   6.454 -0.3487  0.0970 -0.1704
   28poe    c31  336   6.022   0.722   6.560 -0.5017  0.3734 -0.0100
   29poe    c31  337   5.608   3.365   2.685  0.1446 -0.0862  0.5481
   29poe     o2  338   5.481   3.396   2.634  0.1342  0.0260  0.6430
   29poe    c23  339   5.486   3.408   2.493 -0.5239 -0.7030  0.5453
   29poe    c23  340   5.345   3.448   2.446 -0.3361 -0.6964 -0.0218
   29poe     o2  341   5.314   3.548   2.541 -0.2828 -0.3378 -0.3804
   29poe    c23  342   5.183   3.597   2.526 -0.2248 -0.1059 -0.1323
   29poe    c23  343   5.133   3.644   2.664 -0.0964 -0.2983 -0.0203
   29poe     o2  344   5.193   3.567   2.766  0.1187 -0.0636  0.0320
   29poe    c23  345   5.168   3.622   2.893  0.2327  0.3366 -0.1184
   29poe    c23  346   5.252   3.539   2.992 -0.0365  0.1387 -0.0560
   29poe     o2  347   5.378   3.522   2.930  0.3321  0.1622  0.6807
   29poe    c31  348   5.470   3.483   3.029  1.1629  0.2347 -0.0567
   30poe    c31  349   6.648   6.159   0.243 -0.3508  0.3269  0.2079
   30poe     o2  350   6.760   6.073   0.253  0.0427  0.8282  0.1214
   30poe    c23  351   6.736   5.994   0.367  0.4235 -0.0020 -0.3625
   30poe    c23  352   6.870   5.939   0.418  0.2174 -0.3994 -0.2497
   30poe     o2  353   6.944   5.902   0.303  0.6925  0.2084 -0.1435
   30poe    c23  354   7.076   5.869   0.341  0.5593  0.1985  0.3232
   30poe    c23  355   7.142   5.856   0.203 -0.1909  0.0522 -0.0304
   30poe     o2  356   7.084   5.956   0.122  0.0771 -0.0075 -0.3023
   30poe    c23  357   7.141   5.979  -0.004 -0.0429 -0.2731 -0.4051
   30poe    c23  358   7.077   6.104  -0.067 -0.0054 -0.0719 -0.0458
   30poe     o2  359   6.942   6.082  -0.031 -0.0963 -0.4075 -0.5737
   30poe    c31  360   6.854   6.161  -0.107  0.3508  0.6546 -0.0128
   31poe    c31  361   5.771   5.860   0.079  0.1874 -0.0685  0.2516
   31poe     o2  362   5.789   5.988   0.134 -0.2806  0.0960  0.0293
   31poe    c23  363   5.666   6.039   0.180  0.0997  0.5326  0.5763
   31poe    c23  364   5.674   6.143   0.293  0.3929  0.5345  0.5534
   31poe     o2  365   5.803   6.198   0.308  0.3230  0.8278  0.0746
   31poe    c23  366   5.816   6.250   0.438  0.8564 -0.3498  0.5037
   31poe    c23  367   5.963   6.289   0.460  0.6279  0.6962  0.2223
   31poe     o2  368   6.034   6.184   0.400 -0.1116  0.1645  0.2659
   31poe    c23  369   6.164   6.210   0.351  0.0542 -0.7586  0.1856
   31poe    c23  370   6.136   6.246   0.204 -0.5535  0.1030  0.5014
   31poe     o2  371   6.069   6.139   0.140  0.0551 -0.0963  0.1914
   31poe    c31  372   6.040   6.164   0.004 -0.2165  0.0344  0.2725
   32poe    c31  373   5.167   2.215   0.264  0.2109  0.6133  0.4878
   32poe     o2  374   5.285   2.210   0.187 -0.4352 -1.0191 -0.4344
   32poe    c23  375   5.363   2.097   0.221  0.1750 -0.5103 -0.1093
   32poe    c23  376   5.495   2.087   0.142  0.1533 -0.0371 -0.2062
   32poe     o2  377   5.541   2.220   0.146  0.1058 -0.0267  0.0382
   32poe    c23  378   5.617   2.262   0.034 -0.0539  0.8064  0.2324
   32poe    c23  379   5.596   2.410  -0.002 -0.2225  0.6224 -0.4389
   32poe     o2  380   5.459   2.437   0.018 -0.3489 -0.1584 -0.2258
   32poe    c23  381   5.414   2.558  -0.038 -0.2205 -0.0529 -0.1005
   32poe    c23  382   5.261   2.555  -0.027 -0.2525  0.5795 -0.3141
   32poe     o2  383   5.234   2.497   0.099 -0.1963  0.3331 -0.4159
   32poe    c31  384   5.131   2.562   0.168 -0.1552 -0.2711  0.2231
   33poe    c31  385   1.672   0.252   2.299  1.0818  0.2380 -0.2135
   33poe     o2  386   1.715   0.132   2.241 -0.1077 -0.4000  0.1810
   33poe    c23  387   1.660   0.127   2.111 -0.0766  0.1854  0.1421
   33poe    c23  388   1.626  -0.015   2.061  0.1770  0.1072  0.1919
   33poe     o2  389   1.740  -0.077   2.117  0.1063 -0.0946  0.1145
   33poe    c23  390   1.726  -0.217   2.126 -0.1874 -0.0677  0.0893
   33poe    c23  391   1.847  -0.264   2.209 -0.4197 -0.1085  0.4029
   33poe     o2  392   1.857  -0.185   2.326  0.4882  0.2780  0.0741
   33poe    c23  393   1.983  -0.180   2.389  0.5347  0.3908 -0.0276
   33poe    c23  394   1.994  -0.039   2.451  0.8013  0.4993 -0.3167
   33poe     o2  395   1.934   0.053   2.363  0.1312 -0.0987 -0.4965
   33poe    c31  396   2.016   0.168   2.363  0.2093 -0.1528 -0.1549
   34poe    c31  397   4.712   0.133   1.574  0.0655 -0.2929  0.1076
   34poe     o2  398   4.635   0.194   1.675  0.0566  0.4100 -0.3225
   34poe    c23  399   4.543   0.292   1.632 -0.0608  0.1635 -0.6348
   34poe    c23  400   4.478   0.375   1.744 -0.1708 -0.5274 -0.1793
   34poe     o2  401   4.340   0.393   1.720 -0.0748  0.1226 -0.2478
   34poe    c23  402   4.295   0.430   1.848 -0.5779  0.1491 -0.4296
   34poe    c23  403   4.152   0.382   1.877 -0.2564 -0.5072  0.1242
   34poe     o2  404   4.081   0.388   1.755  0.4792  0.7995 -0.2639
   34poe    c23  405   3.942   0.364   1.768  0.7307 -0.5843  0.0509
   34poe    c23  406   3.878   0.376   1.629  0.1522  0.5319  0.3948
   34poe     o2  407   3.970   0.333   1.531 -0.6611  0.5281 -0.3833
   34poe    c31  408   3.904   0.346   1.407 -0.5158 -0.8623 -0.6241
   35poe    c31  409   4.634   4.509   2.138 -0.3983  0.1312  0.1499
   35poe     o2  410   4.756   4.546   2.198 -0.1676  0.0589 -0.2688
   35poe    c23  411   4.741   4.684   2.227 -0.0084  0.0599 -0.1848
   35poe    c23  412   4.874   4.745   2.274  0.3605 -0.4798 -0.5100
   35poe     o2  413   4.910   4.643   2.364 -0.3001  0.1900  0.5408
   35poe    c23  414   5.038   4.664   2.418 -0.2995  0.0064  0.6119
   35poe    c23  415   5.058   4.541   2.509 -0.4068 -0.5526 -0.1143
   35poe     o2  416   5.033   4.426   2.432  0.3821 -0.5869 -0.3265
   35poe    c23  417   5.013   4.315   2.516 -0.5902  0.3392  0.6870
   35poe    c23  418   4.919   4.219   2.440 -0.3163  0.5345  0.0964
   35poe     o2  419   4.810   4.297   2.396 -0.5678  0.1671  0.0665
   35poe    c31  420   4.710   4.207   2.353  0.3304 -0.6743 -0.2903
   36poe    c31  421   5.536   2.096   1.193 -0.4480 -0.0476 -0.7162
   36poe     o2  422   5.483   1.969   1.159 -0.1413 -0.4054  0.1221
   36poe    c23  423   5.581   1.909   1.078  0.2783  0.2914  0.1039
   36poe    c23  424   5.542   1.765   1.040 -0.0386  0.4245 -0.0803
   36poe     o2  425   5.523   1.709   1.168 -0.3665  0.3045 -0.1795
   36poe    c23  426   5.475   1.577   1.170 -0.4276  0.3291 -0.0384
   36poe    c23  427   5.429   1.559   1.316  0.2531 -0.0353  0.1365
   36poe     o2  428   5.341   1.668   1.333  0.1742 -0.0791  0.0079
   36poe    c23  429   5.279   1.675   1.460  0.0483 -0.2931 -0.0396
   36poe    c23  430   5.203   1.809   1.460  0.3899 -0.0953  0.1526
   36poe     o2  431   5.293   1.898   1.399  0.2708  0.3578  0.6289
   36poe    c31  432   5.235   2.027   1.401  0.3537  0.4115 -0.0988
   37poe    c31  433   4.963   0.896   4.006  0.1902  0.1375  0.0125
   37poe     o2  434   4.948   0.864   3.870  0.3560  0.1182 -0.0020
   37poe    c23  435   5.024   0.747   3.855 -0.1655 -0.2674  0.3291
   37poe    c23  436   5.015   0.692   3.711 -0.2272  0.2064  0.1514
   37poe     o2  437   4.992   0.800   3.624 -0.3569 -0.1506 -0.2591
   37poe    c23  438   4.973   0.752   3.493 -0.5636 -0.2900 -0.1769
   37poe    c23  439   4.913   0.873   3.419 -0.1071 -0.2518 -0.4900
   37poe     o2  440   4.827   0.921   3.521  0.4934  0.0632 -0.1282
   37poe    c23  441   4.738   1.025   3.488  0.2539 -0.2311 -0.4147
   37poe    c23  442   4.670   1.061   3.622  0.1972 -0.3026 -0.4237
   37poe     o2  443   4.770   1.061   3.721 -0.1737 -0.4214 -0.0486
   37poe    c31  444   4.713   1.119   3.836  0.1541 -0.9230  0.3735
   38poe    c31  445   5.036   0.094   3.063 -0.7918  0.1372  0.5817
   38poe     o2  446   4.994   0.051   2.936 -0.1119 -0.2177  0.4701
   38poe    c23  447   5.050  -0.069   2.888  0.2701  0.3354 -0.4960
   38poe    c23  448   4.978  -0.126   2.764 -0.1567  0.0606 -0.1242
   38poe     o2  449   4.862  -0.201   2.796  0.0148  0.0934  0.5919
   38poe    c23  450   4.889  -0.337   2.771 -0.1601  0.1323  0.1850
   38poe    c23  451   4.778  -0.440   2.798  0.0580 -0.1154  0.1441
   38poe     o2  452   4.661  -0.372   2.758  0.2430 -0.0150 -0.2405
   38poe    c23  453   4.546  -0.455   2.758  0.1003  0.1817 -0.3159
   38poe    c23  454   4.441  -0.343   2.753 -0.0439  0.0602 -0.0330
   38poe     o2  455   4.476  -0.227   2.826  0.5301 -0.1823  0.0827
   38poe    c31  456   4.367  -0.150   2.872  0.7517  0.2203 -0.0667
   39poe    c31  457   0.690   6.686   5.225  0.4483  0.3377 -0.1928
   39poe     o2  458   0.680   6.548   5.201 -0.1060  0.2822  0.3210
   39poe    c23  459   0.780   6.501   5.113 -0.2664  0.0055  0.2856
   39poe    c23  460   0.756   6.349   5.099  0.4065 -0.1398  0.6513
   39poe     o2  461   0.622   6.327   5.061  0.5099  0.4497 -0.0643
   39poe    c23  462   0.580   6.195   5.085  0.3784  0.5533  0.2643
   39poe    c23  463   0.436   6.210   5.137  0.2303  0.4917 -0.1258
   39poe     o2  464   0.439   6.308   5.239  0.0051  0.3121  0.0569
   39poe    c23  465   0.325   6.320   5.320  0.4905 -0.2845  0.8432
   39poe    c23  466   0.332   6.455   5.394  0.2338  0.3479 -0.2571
   39poe     o2  467   0.385   6.547   5.302 -0.2342  0.0873 -0.7960
   39poe    c31  468   0.295   6.654   5.286 -0.0578  0.4528  0.5210
   40poe    c31  469   0.268   4.854   0.802 -0.3242 -0.3670 -0.0382
   40poe     o2  470   0.350   4.891   0.912  0.0079 -0.0455 -0.3913
   40poe    c23  471   0.469   4.946   0.860  0.2007 -0.2702 -0.1894
   40poe    c23  472   0.524   5.053   0.955 -0.0033 -0.4259  0.1048
   40poe     o2  473   0.443   5.167   0.936  0.7727  0.0449 -0.4239
   40poe    c23  474   0.472   5.261   1.037  0.0713 -0.2106  0.0231
   40poe    c23  475   0.382   5.385   1.018  0.0219 -0.3000 -0.3446
   40poe     o2  476   0.402   5.434   0.887  0.3506 -0.2985 -0.2970
   40poe    c23  477   0.318   5.544   0.860  0.3984  0.0082  0.7665
   40poe    c23  478   0.352   5.604   0.722  0.2146  0.1617  0.7876
   40poe     o2  479   0.408   5.505   0.639 -0.6239 -0.0582  0.4735
   40poe    c31  480   0.456   5.559   0.517  0.0100 -0.5814  0.4852
   41poe    c31  481   1.162   5.117   5.402  0.7605  0.2027  0.1777
   41poe     o2  482   1.060   5.210   5.428  0.5971  0.2533 -0.6408
   41poe    c23  483   1.071   5.336   5.364  0.3527  0.5865 -0.0324
   41poe    c23  484   0.966   5.432   5.424 -0.1240  0.1970 -0.2420
   41poe     o2  485   1.000   5.471   5.555  0.3847  0.1004 -0.3421
   41poe    c23  486   0.933   5.591   5.588 -0.1172 -0.3341  0.2447
   41poe    c23  487   1.018   5.648   5.703  0.4937 -0.3362 -0.1980
   41poe     o2  488   1.035   5.554   5.806  0.0304 -0.7392 -0.4812
   41poe    c23  489   1.118   5.623   5.897 -0.2831 -0.7078 -0.2169
   41poe    c23  490   1.132   5.559   6.037  0.8289  0.0187  0.0199
   41poe     o2  491   1.208   5.439   6.033  0.0784 -0.4653  0.0639
   41poe    c31  492   1.199   5.376   6.159 -0.4532 -0.2233  0.1511
   42poe    c31  493   5.205   3.058   0.181 -0.2170 -0.0019 -0.4192
   42poe     o2  494   5.280   3.074   0.063 -0.1606  0.3097 -0.3418
   42poe    c23  495   5.393   2.990   0.066 -0.1127  0.3860  0.0452
   42poe    c23  496   5.476   2.979  -0.063  0.1967 -0.3435  0.3007
   42poe     o2  497   5.499   3.115  -0.091 -0.2488 -0.3295 -0.0128
   42poe    c23  498   5.510   3.140  -0.229 -0.1684 -0.2158  0.0138
   42poe    c23  499   5.436   3.272  -0.259  0.5260  0.2424  0.2961
   42poe     o2  500   5.306   3.258  -0.207  0.0304  0.8632 -0.7319
   42poe    c23  501   5.212   3.354  -0.249 -0.6731  0.6839  0.3773
   42poe    c23  502   5.077   3.294  -0.207 -0.2841 -0.2675  0.2911
   42poe     o2  503   5.074   3.234  -0.079  0.1761 -0.2460  0.3140
   42poe    c31  504   4.953   3.170  -0.045  0.0057 -0.1523 -0.1156
   43poe    c31  505   5.819   1.458   6.137 -0.1532  0.4604 -0.0778
   43poe     o2  506   5.899   1.536   6.223  0.1052 -0.4672  0.5363
   43poe    c23  507   5.930   1.469   6.343 -0.3006 -0.1450  0.8236
   43poe    c23  508   6.018   1.563   6.429 -0.2682  0.7606 -0.1843
   43poe     o2  509   6.115   1.618   6.343  0.6506 -0.3486  0.1232
   43poe    c23  510   6.202   1.693   6.426  0.0008  0.2019  0.3121
   43poe    c23  511   6.256   1.793   6.323 -0.3130  0.0977  0.0465
   43poe     o2  512   6.147   1.829   6.241 -0.4709 -0.6394 -0.0784
   43poe    c23  513   6.081   1.950   6.275  0.1208 -0.4390  0.3595
   43poe    c23  514   5.960   1.955   6.181  0.1124 -0.2381  0.3808
   43poe     o2  515   5.907   1.825   6.171  0.0241 -0.1889  0.1970
   43poe    c31  516   5.784   1.832   6.103 -0.2770 -0.3728  0.7127
   44poe    c31  517   0.544   0.503   2.808  0.2615 -0.2523 -0.7542
   44poe     o2  518   0.596   0.418   2.708  0.1549 -0.8372 -0.3196
   44poe    c23  519   0.563   0.469   2.581 -0.1414 -0.3279 -0.0407
   44poe    c23  520   0.666   0.408   2.485  0.0871 -0.0686  0.0382
   44poe     o2  521   0.651   0.269   2.504 -0.2942 -0.0786 -0.3243
   44poe    c23  522   0.720   0.192   2.408 -0.1523 -0.0271 -0.2646
   44poe    c23  523   0.692   0.050   2.461 -0.0767  0.1323  0.1982
   44poe     o2  524   0.698   0.048   2.602 -0.2690  0.1351  0.2064
   44poe    c23  525   0.614  -0.052   2.655  0.7145 -0.4825  0.6340
   44poe    c23  526   0.583  -0.018   2.802 -0.0859 -0.3160  0.4323
   44poe     o2  527   0.560   0.121   2.806 -0.1400 -0.3263  0.4949
   44poe    c31  528   0.491   0.166   2.920 -0.0699  0.3554  0.2732
   45poe    c31  529   3.984   0.881   1.702 -0.3075 -0.4094 -0.0256
   45poe     o2  530   3.924   0.885   1.575 -0.2056 -0.0178 -0.0628
   45poe    c23  531   3.845   0.774   1.540 -0.0051 -0.1783 -0.0069
   45poe    c23  532   3.792   0.791   1.396  0.3373  0.5621 -0.0501
   45poe     o2  533   3.897   0.798   1.303  0.3248 -0.1493 -0.1293
   45poe    c23  534   3.841   0.787   1.174  0.1411  0.3513 -0.0955
   45poe    c23  535   3.956   0.809   1.074 -0.3694  0.3794 -0.6833
   45poe     o2  536   4.011   0.937   1.093 -0.2956  0.2973 -0.3393
   45poe    c23  537   4.141   0.937   1.039  0.0326 -0.1174  0.4384
   45poe    c23  538   4.234   1.028   1.122  0.6373  0.2604 -0.6344
   45poe     o2  539   4.212   0.990   1.256 -0.1746  0.6251 -0.6551
   45poe    c31  540   4.283   1.070   1.347 -1.0468  0.3528  0.2738
   46poe    c31  541   2.906   0.392   1.056 -0.0400  0.5438 -0.3829
   46poe     o2  542   2.996   0.500   1.039  0.4776  0.1010 -0.4857
   46poe    c23  543   3.003   0.525   0.900  0.1397  0.1697 -0.4913
   46poe    c23  544   3.138   0.593   0.869 -0.2383  0.9714 -0.4193
   46poe     o2  545   3.164   0.701   0.956  0.2382  0.1318  0.5085
   46poe    c23  546   3.267   0.783   0.905  0.0683 -0.1250 -0.2714
   46poe    c23  547   3.281   0.910   0.992 -0.4865  0.1669 -0.6021
   46poe     o2  548   3.277   0.873   1.128  0.2016  1.0955 -0.3174
   46poe    c23  549   3.213   0.977   1.198  0.2752  0.9982 -0.1052
   46poe    c23  550   3.143   0.913   1.319  0.5960 -0.3243 -0.6067
   46poe     o2  551   3.074   0.797   1.278  0.1106 -0.1440 -0.3040
   46poe    c31  552   2.984   0.740   1.371  0.3656  0.1870  0.1496
   47poe    c31  553   2.332   4.145   3.804  0.8183  0.3082  0.3614
   47poe     o2  554   2.422   4.174   3.700 -0.0108  0.1693 -0.3996
   47poe    c23  555   2.468   4.045   3.665  0.4809  0.2467 -0.0504
   47poe    c23  556   2.520   4.023   3.521  0.4784  0.0205 -0.0171
   47poe     o2  557   2.615   4.127   3.509  0.3613  0.1650  0.2754
   47poe    c23  558   2.635   4.180   3.380  0.3580  0.0786  0.2388
   47poe    c23  559   2.719   4.303   3.420 -0.3185  0.8554 -0.6969
   47poe     o2  560   2.650   4.383   3.514 -0.2596 -0.0489  0.1343
   47poe    c23  561   2.740   4.475   3.573 -0.0685 -0.0549 -0.1450
   47poe    c23  562   2.666   4.526   3.698  0.2800 -0.2476  0.1413
   47poe     o2  563   2.595   4.423   3.761  0.6852 -0.5600  0.0934
   47poe    c31  564   2.541   4.470   3.883 -0.0974 -0.3787 -0.3128
   48poe    c31  565   6.463   0.037   4.632 -0.0718 -0.1927 -0.2223
   48poe     o2  566   6.327   0.075   4.634  0.0356  0.1881  0.2878
   48poe    c23  567   6.271  -0.039   4.695 -0.2034 -0.0240 -0.3215
   48poe    c23  568   6.128  -0.022   4.750  0.0597  0.0434  0.3510
   48poe     o2  569   6.055   0.020   4.636  0.1222  0.0041  0.2969
   48poe    c23  570   5.923   0.067   4.654  0.2260  0.4479 -0.0752
   48poe    c23  571   5.898   0.162   4.536 -0.3185  0.4771  0.0625
   48poe     o2  572   6.016   0.236   4.511 -0.0580  0.1345  0.2801
   48poe    c23  573   6.028   0.318   4.398 -0.5183 -0.1883 -0.0086
   48poe    c23  574   6.168   0.383   4.409 -0.7097  0.2497 -0.1479
   48poe     o2  575   6.260   0.279   4.431 -0.7801  0.1580 -0.2858
   48poe    c31  576   6.391   0.316   4.396 -0.7088  0.1967  0.0215
   49poe    c31  577   4.897   2.793   1.724  0.6114 -0.2047  0.2488
   49poe     o2  578   4.874   2.846   1.853 -0.4513 -0.3249  0.1217
   49poe    c23  579   4.918   2.741   1.937 -0.1211 -0.0470  0.2966
   49poe    c23  580   4.874   2.793   2.075 -0.1590  0.1433  0.2140
   49poe     o2  581   4.921   2.926   2.077  0.2996 -0.0146  0.1267
   49poe    c23  582   4.899   2.995   2.198 -0.7630 -0.0068 -0.0568
   49poe    c23  583   4.907   3.144   2.163  0.2626  0.0286  0.2714
   49poe     o2  584   4.865   3.147   2.028  1.0600  0.6121  0.0248
   49poe    c23  585   4.868   3.270   1.959 -0.3068  0.5808 -0.1315
   49poe    c23  586   4.809   3.266   1.817 -0.4193  0.2522 -0.0759
   49poe     o2  587   4.856   3.141   1.771 -0.5201  0.1477  0.0988
   49poe    c31  588   4.845   3.151   1.630 -0.3302 -0.2655  0.0534
   50poe    c31  589   2.047   3.816   1.299  0.2928 -0.0894 -1.3270
   50poe     o2  590   2.059   3.676   1.310 -0.2342 -0.0387  0.0132
   50poe    c23  591   1.948   3.617   1.373 -0.2970  0.0626 -0.0029
   50poe    c23  592   1.944   3.468   1.335 -0.3505 -0.0089  0.2785
   50poe     o2  593   2.074   3.414   1.341 -0.3125  0.0552  0.0399
   50poe    c23  594   2.080   3.285   1.286  0.2455  0.0999 -0.0093
   50poe    c23  595   2.219   3.257   1.225  0.5428  0.1477  0.6330
   50poe     o2  596   2.259   3.382   1.175 -0.4618  0.4603  0.5842
   50poe    c23  597   2.399   3.399   1.169 -0.4259  0.0314  0.0519
   50poe    c23  598   2.418   3.539   1.107 -0.9415 -0.0849 -0.3736
   50poe     o2  599   2.326   3.623   1.172 -0.5059  0.0570  0.0648
   50poe    c31  600   2.360   3.759   1.165  1.0346 -0.3175 -0.1164
   51poe    c31  601   1.767   1.802   4.177  0.2314  0.0857 -0.3520
   51poe     o2  602   1.663   1.855   4.097 -0.4680 -0.4337  0.1983
   51poe    c23  603   1.606   1.766   4.004 -0.4142 -0.3274  0.0637
   51poe    c23  604   1.516   1.850   3.912  0.2398  0.6061  0.2676
   51poe     o2  605   1.386   1.875   3.960  0.1792 -0.3662  0.6309
   51poe    c23  606   1.366   2.006   4.009  0.2139 -0.0722 -0.1253
   51poe    c23  607   1.214   2.011   4.031  0.3094  0.3728  0.4522
   51poe     o2  608   1.185   1.908   4.123 -0.4647  0.0780 -0.1132
   51poe    c23  609   1.060   1.934   4.183 -0.6007  0.5007 -0.5763
   51poe    c23  610   1.032   1.822   4.284 -0.4997  0.3198 -0.7476
   51poe     o2  611   1.074   1.711   4.208 -0.0649 -0.0102 -0.0347
   51poe    c31  612   1.011   1.597   4.262  0.0654 -0.0742 -0.0163
   52poe    c31  613   3.796   0.764   2.459  0.0988 -0.1509 -1.0716
   52poe     o2  614   3.764   0.842   2.572  0.5926 -0.4324 -0.7326
   52poe    c23  615   3.768   0.754   2.683 -0.0830 -0.1822 -0.5068
   52poe    c23  616   3.678   0.815   2.793  0.3597  0.4543 -0.4901
   52poe     o2  617   3.718   0.950   2.791  0.2895  0.4880  0.1520
   52poe    c23  618   3.658   1.018   2.899  0.1815  0.2036  0.2712
   52poe    c23  619   3.675   1.171   2.898  0.4324  0.1767  0.0804
   52poe     o2  620   3.677   1.214   2.764 -0.0800 -0.7084 -0.2212
   52poe    c23  621   3.560   1.229   2.686 -0.1670  0.5764  0.1431
   52poe    c23  622   3.593   1.213   2.537  0.2876 -0.2151  0.3229
   52poe     o2  623   3.665   1.096   2.508  0.4804 -0.0401  0.0873
   52poe    c31  624   3.630   1.046   2.381  0.5939  0.4662 -0.1441
   53poe    c31  625   3.248   4.637   5.905 -0.4959 -0.5596 -0.3946
   53poe     o2  626   3.241   4.726   5.796  0.0307 -0.3003 -0.2236
   53poe    c23  627   3.326   4.682   5.692  0.8215  0.2816  0.1673
   53poe    c23  628   3.299   4.771   5.569 -0.8235 -0.1553  0.1850
   53poe     o2  629   3.159   4.787   5.562 -0.7851  0.2812  0.3717
   53poe    c23  630   3.112   4.878   5.466  0.2125  0.2906 -0.1151
   53poe    c23  631   3.101   5.018   5.529 -0.6602  0.2714 -0.2221
   53poe     o2  632   3.054   4.984   5.657  0.4157  0.5236  0.2497
   53poe    c23  633   2.996   5.088   5.733 -0.8832  0.2141 -0.2875
   53poe    c23  634   2.934   5.021   5.857  0.0620  0.7955  0.5127
   53poe     o2  635   3.046   4.967   5.922 -0.1153  0.1494  0.2840
   53poe    c31  636   3.025   4.936   6.058  0.3490 -0.4576  0.2220
   54poe    c31  637   1.689   0.197   3.910 -0.5184  0.2873 -0.7134
   54poe     o2  638   1.744   0.100   3.823 -0.0693 -0.4037  0.3187
   54poe    c23  639   1.669   0.083   3.705  0.1779 -0.2624  0.1419
   54poe    c23  640   1.771   0.047   3.595  0.1524  0.6812 -0.2028
   54poe     o2  641   1.872  -0.032   3.653 -0.4722 -0.0502 -0.0995
   54poe    c23  642   1.983  -0.070   3.575 -0.1721  0.2077  0.1982
   54poe    c23  643   2.063  -0.175   3.653  0.0738 -0.0144 -0.3441
   54poe     o2  644   2.075  -0.139   3.789 -0.4906 -0.7622 -0.0931
   54poe    c23  645   2.198  -0.182   3.845 -0.4093 -0.8091 -0.3077
   54poe    c23  646   2.234  -0.325   3.888 -0.1805 -0.5388  0.4131
   54poe     o2  647   2.233  -0.409   3.775  0.4174  0.2871 -0.2146
   54poe    c31  648   2.290  -0.529   3.822  0.0061  0.2070  0.0793
   55poe    c31  649   2.467   2.803   4.266 -0.4944 -0.3704 -0.0785
   55poe     o2  650   2.524   2.711   4.175 -0.1453  0.2120 -0.4581
   55poe    c23  651   2.613   2.788   4.097 -0.1499  0.3365 -0.3409
   55poe    c23  652   2.692   2.696   4.003  0.4905  0.1566  0.3585
   55poe     o2  653   2.714   2.580   4.080 -0.0337 -0.0560  0.1900
   55poe    c23  654   2.792   2.473   4.030  0.1341  0.1227  0.0698
   55poe    c23  655   2.789   2.362   4.136  0.4609  0.0445 -0.0035
   55poe     o2  656   2.651   2.356   4.164  0.5999  0.0165  0.6911
   55poe    c23  657   2.620   2.273   4.274 -0.0593 -0.0859  0.4276
   55poe    c23  658   2.479   2.322   4.313 -0.1878 -0.0641 -0.0526
   55poe     o2  659   2.481   2.461   4.335  0.0826 -0.1550  0.5258
   55poe    c31  660   2.387   2.498   4.434 -0.5131 -0.0940 -0.0510
   56poe    c31  661   1.903   6.400   1.340 -0.2728 -0.4176  0.1381
   56poe     o2  662   1.984   6.466   1.435 -0.3548  0.6928 -0.5547
   56poe    c23  663   1.991   6.607   1.426 -0.2489  0.6830 -0.6210
   56poe    c23  664   2.134   6.620   1.373 -0.0334  0.5637 -0.0793
   56poe     o2  665   2.202   6.537   1.464 -0.0543  0.7869  0.1402
   56poe    c23  666   2.343   6.538   1.450 -0.1210  0.1812 -0.6198
   56poe    c23  667   2.404   6.458   1.567 -0.0794 -0.0949 -0.8295
   56poe     o2  668   2.325   6.343   1.584  0.1183 -0.1127  0.0006
   56poe    c23  669   2.317   6.314   1.722  0.3448  0.3359  0.1100
   56poe    c23  670   2.192   6.225   1.739  0.1818  0.5795  0.1963
   56poe     o2  671   2.083   6.298   1.687 -0.1604  0.1609  0.3242
   56poe    c31  672   1.959   6.247   1.732 -0.2389  0.2646  0.2246
   57poe    c31  673   1.821   4.199   5.210 -0.6374 -0.1940 -0.0409
   57poe     o2  674   1.835   4.267   5.088 -0.0419 -0.3277 -0.0510
   57poe    c23  675   1.736   4.232   4.994 -0.3483  0.7116 -0.1270
   57poe    c23  676   1.790   4.238   4.850  0.0377 -0.0369 -0.0208
   57poe     o2  677   1.876   4.350   4.849 -0.3996  0.2984 -0.6416
   57poe    c23  678   1.958   4.363   4.735  0.4287  0.0216 -0.0856
   57poe    c23  679   2.024   4.502   4.749  0.0118  0.1847  0.3317
   57poe     o2  680   2.058   4.512   4.885 -0.1833 -0.0224  0.3955
   57poe    c23  681   2.039   4.643   4.933 -0.1250  0.2676 -0.3706
   57poe    c23  682   1.893   4.685   4.956 -0.0997  0.2008 -0.0879
   57poe     o2  683   1.824   4.580   5.020 -0.1639  0.6013  0.5023
   57poe    c31  684   1.686   4.608   5.021 -0.4766 -0.8316  0.0251
   58poe    c31  685   1.189   2.401   6.691 -0.1081 -0.1294  0.1917
   58poe     o2  686   1.269   2.502   6.748 -0.1260  0.0967 -0.1772
   58poe    c23  687   1.251   2.497   6.888 -0.3510 -0.0657 -0.2111
   58poe    c23  688   1.327   2.620   6.943 -0.1699 -0.2889  0.0365
   58poe     o2  689   1.447   2.609   6.870  0.2711  0.2335  0.6746
   58poe    c23  690   1.554   2.693   6.908  0.7249  0.1277 -0.3410
   58poe    c23  691   1.577   2.788   6.789  0.5163  0.3815 -0.1802
   58poe     o2  692   1.578   2.700   6.679  0.0982  0.0227  0.0986
   58poe    c23  693   1.551   2.763   6.556  0.2416  0.3224  0.2174
   58poe    c23  694   1.539   2.645   6.457  0.3216  0.1471  0.4174
   58poe     o2  695   1.444   2.555   6.511  0.4039 -0.1786  0.0221
   58poe    c31  696   1.402   2.464   6.411 -0.5660  0.3137 -0.0332
   59poe    c31  697   1.551   5.875   4.244  0.0536 -0.0817 -0.1517
   59poe     o2  698   1.415   5.878   4.281  0.0242  0.8432 -0.2909
   59poe    c23  699   1.358   5.749   4.271  0.0480  0.7658  0.5155
   59poe    c23  700   1.209   5.756   4.311 -0.1026  0.7625 -0.0353
   59poe     o2  701   1.165   5.875   4.249 -0.2441  0.2490 -0.9225
   59poe    c23  702   1.030   5.907   4.273 -0.1314 -0.2681  0.4977
   59poe    c23  703   1.021   6.038   4.192 -0.2800 -0.5023  0.1343
   59poe     o2  704   1.145   6.099   4.216 -0.0604 -0.9128  0.0567
   59poe    c23  705   1.206   6.161   4.105 -0.0652 -0.4649  0.2992
   59poe    c23  706   1.336   6.226   4.156 -0.0191 -0.2514 -0.0863
   59poe     o2  707   1.392   6.142   4.255  0.1407 -0.2762 -0.1960
   59poe    c31  708   1.495   6.213   4.321 -0.3074 -0.0698  0.2929
   60poe    c31  709   2.958   2.467   1.354 -0.1628  0.5216  0.0933
   60poe     o2  710   2.839   2.391   1.365  0.3813 -0.2982  0.4205
   60poe    c23  711   2.856   2.260   1.316  0.3999 -0.3367  0.5285
   60poe    c23  712   2.738   2.183   1.378  0.0916 -0.2169  0.1011
   60poe     o2  713   2.738   2.230   1.511 -0.1187  0.5729 -0.1752
   60poe    c23  714   2.630   2.175   1.584  0.1853  0.0533 -0.1154
   60poe    c23  715   2.512   2.273   1.575  0.2804  0.1986  0.2026
   60poe     o2  716   2.577   2.397   1.588  0.4171  0.2365 -0.7630
   60poe    c23  717   2.485   2.502   1.573 -0.0412  0.0464  0.6098
   60poe    c23  718   2.576   2.621   1.607 -0.5235  0.7369 -0.4723
   60poe     o2  719   2.692   2.612   1.528 -0.0083 -0.0939  0.3519
   60poe    c31  720   2.787   2.707   1.573 -0.0231  0.0170  0.1547
   61poe    c31  721   0.360   5.054   3.064 -0.0761  0.0759 -0.0649
   61poe     o2  722   0.355   4.985   3.187 -0.1058 -0.2245 -0.2338
   61poe    c23  723   0.485   4.951   3.230 -0.1167  0.2859  0.2146
   61poe    c23  724   0.487   4.901   3.375 -0.7425  0.6448  0.3544
   61poe     o2  725   0.374   4.817   3.373 -0.1743 -0.1187 -0.4763
   61poe    c23  726   0.343   4.782   3.506  0.5877 -0.0125 -0.2654
   61poe    c23  727   0.195   4.742   3.519  0.4158  0.6378 -0.1588
   61poe     o2  728   0.137   4.832   3.426 -0.1122  0.0104 -0.4504
   61poe    c23  729  -0.003   4.816   3.414 -0.1877  0.3588 -0.0447
   61poe    c23  730  -0.051   4.902   3.296 -0.2326  0.0879 -0.2240
   61poe     o2  731   0.059   4.918   3.209 -0.0401  0.0197  0.0033
   61poe    c31  732   0.024   4.972   3.083  0.4959  0.6421  0.1183
   62poe    c31  733   1.559   2.164   3.174  0.1275 -0.8455 -0.2327
   62poe     o2  734   1.450   2.145   3.261  0.2373  0.1429  0.1355
   62poe    c23  735   1.428   2.265   3.331  0.1870  0.3462 -0.2288
   62poe    c23  736   1.279   2.256   3.368  0.2364 -0.3615 -0.2014
   62poe     o2  737   1.265   2.127   3.424  0.1355 -0.3166 -0.1220
   62poe    c23  738   1.132   2.109   3.469  0.2331 -0.0429  0.2833
   62poe    c23  739   1.134   1.965   3.524 -0.2151 -0.0467  0.2902
   62poe     o2  740   1.203   1.889   3.427 -0.2362  0.0322  0.2133
   62poe    c23  741   1.260   1.775   3.487  0.3102  0.1111 -0.1477
   62poe    c23  742   1.376   1.729   3.397 -0.2684 -0.0532 -0.8216
   62poe     o2  743   1.451   1.842   3.358  0.3504 -0.3166 -0.4158
   62poe    c31  744   1.579   1.809   3.308  0.3230 -0.1509 -0.5957
   63poe    c31  745   0.523   6.254   1.047 -0.3519 -0.2696 -0.1204
   63poe     o2  746   0.468   6.253   1.176  0.2901  0.3823  0.1697
   63poe    c23  747   0.568   6.242   1.275  0.2558 -0.7493  0.0982
   63poe    c23  748   0.503   6.243   1.414  0.3741  0.2703  0.1567
   63poe     o2  749   0.390   6.158   1.405  0.0363  0.7548 -0.2534
   63poe    c23  750   0.317   6.126   1.521 -0.0232  0.1253 -0.4642
   63poe    c23  751   0.186   6.056   1.478  0.1354 -0.2761 -0.2985
   63poe     o2  752   0.136   6.129   1.368  0.7060 -0.2394 -0.5413
   63poe    c23  753   0.034   6.224   1.389  0.3450 -0.7497  0.0768
   63poe    c23  754   0.031   6.285   1.247 -0.2876 -0.6020  0.1496
   63poe     o2  755   0.156   6.328   1.199 -0.5810  0.1807  0.0772
   63poe    c31  756   0.155   6.351   1.060  0.2135 -0.4145 -0.0326
   64poe    c31  757   0.726   4.516   1.698  0.4488 -0.0412  0.1302
   64poe     o2  758   0.708   4.591   1.580 -0.0745 -0.1815  0.1177
   64poe    c23  759   0.810   4.581   1.484 -0.0962 -0.0229  0.0785
   64poe    c23  760   0.776   4.641   1.346 -0.0244 -0.3129 -0.0663
   64poe     o2  761   0.656   4.713   1.364  0.0874  0.0303 -0.6624
   64poe    c23  762   0.594   4.759   1.246 -0.5889 -0.2987 -0.4378
   64poe    c23  763   0.461   4.821   1.293 -0.0816  0.2067  0.3552
   64poe     o2  764   0.407   4.729   1.386  0.0471  0.1222  0.3461
   64poe    c23  765   0.303   4.792   1.457  0.3381  0.7912  0.1913
   64poe    c23  766   0.267   4.700   1.575  0.0956  0.3216 -0.2445
   64poe     o2  767   0.395   4.667   1.626 -0.1066  0.8410  0.6222
   64poe    c31  768   0.376   4.626   1.759  0.4977 -0.0318  0.4454
   65poe    c31  769   2.159   5.430   4.250 -0.5340 -0.4980  0.1758
   65poe     o2  770   2.085   5.459   4.134 -0.3143 -0.4597  0.0441
   65poe    c23  771   1.959   5.513   4.168 -0.1420 -0.0119 -0.0220
   65poe    c23  772   1.924   5.612   4.056  0.3884  0.0127 -0.1684
   65poe     o2  773   1.958   5.550   3.934  0.1486  0.1498 -0.3059
   65poe    c23  774   1.843   5.513   3.861 -0.1832  0.1995  0.1848
   65poe    c23  775   1.908   5.424   3.754 -0.2553 -0.0310  0.3322
   65poe     o2  776   1.998   5.340   3.822  0.5559  0.2784 -0.3493
   65poe    c23  777   2.085   5.286   3.724  0.6624 -0.2029  0.0068
   65poe    c23  778   2.198   5.218   3.804  0.1447 -0.7303  0.3021
   65poe     o2  779   2.234   5.302   3.912 -0.1985 -0.4868  0.2313
   65poe    c31  780   2.330   5.245   3.998  0.2898  0.1442  0.1151
   66poe    c31  781   2.447   5.009   4.973 -0.4933  0.5414  0.1502
   66poe     o2  782   2.557   5.087   5.015  0.0182 -0.2101  0.2446
   66poe    c23  783   2.575   5.200   4.932 -0.0144 -0.2949  0.1225
   66poe    c23  784   2.697   5.286   4.971 -0.0895 -0.2159  0.1811
   66poe     o2  785   2.806   5.197   4.963 -0.0348 -0.1145 -0.2125
   66poe    c23  786   2.907   5.269   5.029 -0.4490 -0.5087  0.8724
   66poe    c23  787   3.029   5.182   4.995 -0.4239  0.0301 -0.4448
   66poe     o2  788   3.002   5.046   5.022  0.3578  0.1185  0.8338
   66poe    c23  789   3.110   4.962   4.991  0.2468  0.2447  0.0923
   66poe    c23  790   3.221   4.926   5.092  0.5976  0.0534 -0.3587
   66poe     o2  791   3.308   5.030   5.130  0.4866  0.2713 -0.6998
   66poe    c31  792   3.400   4.996   5.231 -0.5309 -0.0275  0.1484
   67poe    c31  793   0.778   1.668   5.660  0.0066  0.1234 -0.1493
   67poe     o2  794   0.656   1.728   5.697  0.0208  0.3018 -0.3872
   67poe    c23  795   0.554   1.633   5.679 -0.0408  0.3993 -0.5509
   67poe    c23  796   0.418   1.691   5.723  0.0024  0.2460 -0.2153
   67poe     o2  797   0.440   1.753   5.848 -0.1760 -0.3653  0.1252
   67poe    c23  798   0.333   1.821   5.909 -0.3722 -0.3525 -0.2248
   67poe    c23  799   0.412   1.882   6.027 -0.4842 -0.0873 -0.2860
   67poe     o2  800   0.523   1.939   5.962 -0.1055 -0.5631 -0.0651
   67poe    c23  801   0.622   1.981   6.054  0.0156 -0.7022 -0.1327
   67poe    c23  802   0.753   2.004   5.976 -0.0358  0.3788  0.0914
   67poe     o2  803   0.770   1.928   5.859  0.0812  0.3125  0.1517
   67poe    c31  804   0.890   1.967   5.796  0.6936 -0.1426  1.0204
   68poe    c31  805   2.337   2.222   3.232 -0.8825  0.1472  0.0416
   68poe     o2  806   2.363   2.209   3.370 -0.3829 -0.1320 -0.0763
   68poe    c23  807   2.247   2.195   3.450 -0.4730 -0.4237 -0.2547
   68poe    c23  808   2.255   2.180   3.603 -0.6800  0.0659 -0.1912
   68poe     o2  809   2.271   2.295   3.682 -0.5711 -0.1750  0.1385
   68poe    c23  810   2.314   2.258   3.811 -0.2448  0.4061  0.1974
   68poe    c23  811   2.228   2.320   3.923 -0.7325  0.1416 -0.0324
   68poe     o2  812   2.228   2.460   3.905 -0.2800  0.0987 -0.3722
   68poe    c23  813   2.166   2.507   4.022 -0.3745  0.5167 -0.5908
   68poe    c23  814   2.203   2.657   4.027  0.4993  0.2955 -0.2393
   68poe     o2  815   2.173   2.698   3.895 -0.1276  0.1577 -0.1458
   68poe    c31  816   2.169   2.837   3.873 -0.4410  0.0589 -0.7412
   69poe    c31  817   0.697   1.801   3.242  0.2928  0.1411 -0.4638
   69poe     o2  818   0.726   1.664   3.260  0.2799  0.1569 -0.3236
   69poe    c23  819   0.844   1.637   3.332  0.1583 -0.0672 -0.2049
   69poe    c23  820   0.859   1.484   3.342 -0.0451 -0.0756 -0.0361
   69poe     o2  821   0.733   1.431   3.379  0.1468 -0.4197  0.1275
   69poe    c23  822   0.734   1.298   3.426 -0.5618 -0.3751  0.2810
   69poe    c23  823   0.586   1.277   3.463 -0.5080 -0.7072  0.3050
   69poe     o2  824   0.517   1.304   3.344  0.4605 -0.2126 -0.1610
   69poe    c23  825   0.415   1.207   3.331 -0.1908  0.4549 -0.1046
   69poe    c23  826   0.339   1.196   3.198  0.1222  0.0707 -0.2500
   69poe     o2  827   0.271   1.316   3.171  0.3901  0.4158  0.5755
   69poe    c31  828   0.188   1.305   3.057  0.0670 -0.6130  0.8962
   70poe    c31  829   6.042   6.606   1.074  0.4397  0.5619  0.0649
   70poe     o2  830   6.028   6.541   1.198  0.2968 -0.2443 -0.3624
   70poe    c23  831   6.102   6.612   1.295 -0.2055  0.0540 -0.1956
   70poe    c23  832   6.038   6.609   1.435 -0.2647  0.0505 -0.2226
   70poe     o2  833   5.986   6.478   1.448  0.2849 -0.1445  0.0400
   70poe    c23  834   5.866   6.472   1.522  0.5044 -0.4059  0.3795
   70poe    c23  835   5.786   6.349   1.475 -0.1822  0.2703 -0.2424
   70poe     o2  836   5.797   6.354   1.334  0.4659  0.2833 -0.1949
   70poe    c23  837   5.687   6.301   1.262  0.1015  0.4880  0.2048
   70poe    c23  838   5.767   6.221   1.158 -0.1643  0.0880  0.3097
   70poe     o2  839   5.882   6.293   1.122  0.0282 -0.0831  0.5800
   70poe    c31  840   5.951   6.234   1.015 -0.2460  0.1044  0.2984
   71poe    c31  841   5.967   4.258   6.414  0.2197  0.4491 -0.1054
   71poe     o2  842   5.834   4.302   6.431  0.2418  0.2590  0.5998
   71poe    c23  843   5.763   4.280   6.311  0.7500  0.8242  0.1879
   71poe    c23  844   5.618   4.329   6.331  0.3173 -0.2859 -0.1261
   71poe     o2  845   5.598   4.353   6.469 -0.0561 -0.2208 -0.1908
   71poe    c23  846   5.479   4.422   6.498  0.0791 -0.0233 -0.1005
   71poe    c23  847   5.469   4.441   6.651 -0.1460 -0.0061 -0.1180
   71poe     o2  848   5.604   4.470   6.678 -0.1326 -0.4706  0.3266
   71poe    c23  849   5.647   4.509   6.807  0.2289  0.2247 -0.0030
   71poe    c23  850   5.785   4.575   6.784 -0.0628  0.8611  0.0631
   71poe     o2  851   5.855   4.525   6.673 -0.2314  0.6916  0.0324
   71poe    c31  852   5.959   4.614   6.640  0.5625 -0.1976  0.1005
   72poe    c31  853   1.095   3.662   6.253  0.2716  0.3325 -0.1439
   72poe     o2  854   1.128   3.718   6.378 -0.1626  0.2971 -0.0107
   72poe    c23  855   1.192   3.617   6.452 -0.1673  0.1102 -0.2597
   72poe    c23  856   1.259   3.675   6.578  0.1238 -0.2253 -0.2569
   72poe     o2  857   1.161   3.730   6.663  0.0502 -0.1174 -0.4109
   72poe    c23  858   1.199   3.857   6.711  0.0662 -0.3574  0.2120
   72poe    c23  859   1.084   3.959   6.708  0.4155  0.0097 -0.6510
   72poe     o2  860   1.016   3.946   6.585  0.2054 -0.4793 -0.4845
   72poe    c23  861   0.897   4.021   6.591  0.4003 -0.2294  0.3913
   72poe    c23  862   0.833   4.010   6.451  0.4765  0.1340  0.3265
   72poe     o2  863   0.834   3.871   6.428 -0.1471  0.1170  0.3899
   72poe    c31  864   0.790   3.858   6.295 -0.5342  0.1749  0.5101
   73poe    c31  865   4.080   4.667   5.253 -0.3664 -0.9805  0.1127
   73poe     o2  866   4.084   4.566   5.156  0.3126 -0.4871 -0.3841
   73poe    c23  867   3.951   4.541   5.114  0.1992 -0.1484 -0.2254
   73poe    c23  868   3.965   4.458   4.985 -0.1649 -0.5090 -0.0344
   73poe     o2  869   4.049   4.351   5.022  0.2974 -0.0560  0.2374
   73poe    c23  870   4.099   4.265   4.923  0.6420  0.0187  0.3458
   73poe    c23  871   4.236   4.328   4.889  0.2951  0.3195 -0.5039
   73poe     o2  872   4.305   4.347   5.010 -0.3220 -0.2610 -0.0505
   73poe    c23  873   4.419   4.429   4.997  0.2472 -1.0585 -0.2024
   73poe    c23  874   4.478   4.449   5.138 -0.2629 -0.0288 -0.1204
   73poe     o2  875   4.374   4.505   5.214 -0.3065 -0.2432 -0.0229
   73poe    c31  876   4.437   4.567   5.324 -0.5588 -0.3912  0.2100
   74poe    c31  877   2.852   5.906   0.348  0.7388 -0.4617  0.3093
   74poe     o2  878   2.849   5.766   0.365  0.2339 -0.4909  0.0041
   74poe    c23  879   2.764   5.730   0.472 -0.4278  0.0962 -0.3131
   74poe    c23  880   2.677   5.617   0.415 -0.1378 -0.2545 -0.0709
   74poe     o2  881   2.769   5.534   0.348 -0.4838 -0.6449 -0.0634
   74poe    c23  882   2.711   5.411   0.309 -0.7727 -0.3299 -0.6301
   74poe    c23  883   2.841   5.337   0.275 -0.2544  0.0310  0.5143
   74poe     o2  884   2.913   5.426   0.192 -0.0457 -0.2235  0.4201
   74poe    c23  885   3.052   5.405   0.190 -0.0957 -0.4970 -0.6938
   74poe    c23  886   3.127   5.527   0.132 -0.1101 -0.1011  0.0997
   74poe     o2  887   3.058   5.643   0.173  0.1173  0.1878 -0.3272
   74poe    c31  888   3.104   5.750   0.094  0.3512  0.0475 -0.3818
   75poe    c31  889   0.470   3.986   1.695  0.0436  0.1821 -0.0514
   75poe     o2  890   0.535   3.949   1.814 -0.0955 -0.2149 -0.1001
   75poe    c23  891   0.426   3.935   1.903 -0.3071  0.2587 -0.2859
   75poe    c23  892   0.488   3.889   2.036  0.0761 -0.2240 -0.6315
   75poe     o2  893   0.589   3.983   2.062  0.2317 -0.4803 -0.2913
   75poe    c23  894   0.664   3.967   2.180 -0.1197  1.0241  0.1595
   75poe    c23  895   0.798   4.036   2.147  0.2391  0.0103 -0.5663
   75poe     o2  896   0.830   4.021   2.010 -0.0547 -0.3541 -0.5970
   75poe    c23  897   0.890   4.144   1.975 -0.0282 -0.1074  0.2822
   75poe    c23  898   0.922   4.118   1.827 -0.1803  0.5621  0.1291
   75poe     o2  899   0.805   4.065   1.768 -0.2787  0.5270  0.3554
   75poe    c31  900   0.788   4.122   1.640  0.3479  0.3220  0.1814
   76poe    c31  901   3.462   2.698   4.981 -0.5985  0.5848  0.1177
   76poe     o2  902   3.443   2.649   4.850 -0.0254 -0.1011  0.2847
   76poe    c23  903   3.330   2.719   4.802 -0.0654 -0.6316 -0.4132
   76poe    c23  904   3.294   2.695   4.654  0.0279  0.3530 -0.5990
   76poe     o2  905   3.417   2.656   4.598  0.1126 -0.3193  0.0404
   76poe    c23  906   3.406   2.626   4.461  0.1633  0.2271 -0.0859
   76poe    c23  907   3.548   2.608   4.405  0.0169  0.0893 -0.4157
   76poe     o2  908   3.612   2.530   4.503 -0.0337 -0.0003 -0.4539
   76poe    c23  909   3.752   2.547   4.493 -0.0236 -0.0018 -0.3183
   76poe    c23  910   3.809   2.644   4.598 -0.5150  0.0363 -0.0834
   76poe     o2  911   3.726   2.616   4.709  0.0048 -0.8380  0.0917
   76poe    c31  912   3.807   2.656   4.817  0.0316 -0.4251 -0.0817
   77poe    c31  913   4.591   2.749   4.209 -0.3998 -0.1185  0.6366
   77poe     o2  914   4.718   2.708   4.257 -0.3043 -0.4776  0.0813
   77poe    c23  915   4.693   2.683   4.393 -0.4764 -0.7079  0.0097
   77poe    c23  916   4.833   2.666   4.456 -0.3590  0.2421  0.0222
   77poe     o2  917   4.892   2.571   4.371 -0.1381  0.2996  0.1110
   77poe    c23  918   5.021   2.532   4.415 -0.4391 -0.5194  0.2866
   77poe    c23  919   5.086   2.446   4.305  0.6768  0.1737  0.3967
   77poe     o2  920   5.084   2.535   4.196 -0.2416 -0.7565 -0.3640
   77poe    c23  921   5.090   2.467   4.073  0.7455 -0.5867 -0.4111
   77poe    c23  922   4.993   2.530   3.972 -0.1379 -0.2997  0.5996
   77poe     o2  923   4.876   2.581   4.033 -0.3075  0.2325 -0.1543
   77poe    c31  924   4.787   2.618   3.930 -0.7434  0.5323  0.3305
   78poe    c31  925   5.441   5.268   2.551  0.2478  0.6254  0.2173
   78poe     o2  926   5.433   5.276   2.692 -0.0791 -0.0860  0.2453
   78poe    c23  927   5.498   5.170   2.758  0.0231  0.0438  0.3543
   78poe    c23  928   5.504   5.232   2.898  0.1351  0.6070  0.1029
   78poe     o2  929   5.367   5.247   2.930 -0.0864 -0.3400 -0.3824
   78poe    c23  930   5.354   5.307   3.057  0.0625  0.3019 -0.6654
   78poe    c23  931   5.205   5.345   3.070  0.0488  0.0822 -0.1455
   78poe     o2  932   5.190   5.404   2.942 -0.0278  0.4523  0.0349
   78poe    c23  933   5.053   5.404   2.909 -0.0980  0.1622  0.3165
   78poe    c23  934   5.049   5.455   2.764 -0.3586 -1.0888 -0.1341
   78poe     o2  935   5.152   5.398   2.687  0.5549  0.5004 -0.1358
   78poe    c31  936   5.117   5.401   2.550  0.2550 -0.3341 -0.0819
   79poe    c31  937   4.308   6.606   4.331  0.1146  0.1880 -0.6356
   79poe     o2  938   4.294   6.466   4.334 -0.4942  0.2588 -0.1381
   79poe    c23  939   4.417   6.409   4.294 -0.4470  0.5600 -0.4236
   79poe    c23  940   4.403   6.256   4.287  0.2779  0.4733  0.0087
   79poe     o2  941   4.332   6.207   4.399  0.1930  0.3078 -0.1164
   79poe    c23  942   4.290   6.074   4.383 -0.1377  0.4359 -0.3238
   79poe    c23  943   4.193   6.056   4.501  0.7864  0.1234  0.4028
   79poe     o2  944   4.098   6.160   4.487  0.2430 -0.4607 -0.2948
   79poe    c23  945   4.003   6.171   4.590  0.3961  0.3158 -0.2331
   79poe    c23  946   3.922   6.302   4.583  0.0511  0.1660  0.7189
   79poe     o2  947   4.009   6.413   4.580  0.3214 -0.0486  0.5347
   79poe    c31  948   3.943   6.530   4.623  0.4472  0.2667 -0.1228
   80poe    c31  949   0.409   1.161   1.646  0.3565  0.2905  0.1467
   80poe     o2  950   0.417   1.296   1.686  0.0079  0.3586 -0.0144
   80poe    c23  951   0.303   1.370   1.647 -0.0426  0.5659  0.5211
   80poe    c23  952   0.304   1.501   1.729 -0.6138  0.7069  0.3077
   80poe     o2  953   0.317   1.462   1.864  0.3892  0.3828  0.1294
   80poe    c23  954   0.299   1.582   1.936 -0.1602  0.0147  0.6205
   80poe    c23  955   0.378   1.550   2.064  0.1643  0.2988  0.4946
   80poe     o2  956   0.489   1.471   2.026 -0.0204  0.4445 -0.3753
   80poe    c23  957   0.615   1.520   1.985  0.2266  0.0636 -0.0800
   80poe    c23  958   0.709   1.400   1.965  0.0745 -0.0426 -0.1659
   80poe     o2  959   0.632   1.312   1.888  0.6413 -0.1447 -0.6180
   80poe    c31  960   0.719   1.209   1.846  0.4046 -0.4355 -0.3967
   81poe    c31  961   2.797   0.695   5.430 -0.2363  0.1499  0.1916
   81poe     o2  962   2.782   0.785   5.538 -0.0526 -0.2272  0.5324
   81poe    c23  963   2.650   0.834   5.546 -0.0122 -0.0638  0.2190
   81poe    c23  964   2.640   0.987   5.535  0.0926 -0.0918 -0.2949
   81poe     o2  965   2.744   1.030   5.619 -0.0879 -0.2859  0.0304
   81poe    c23  966   2.763   1.168   5.600 -0.2906 -0.2773 -0.1116
   81poe    c23  967   2.912   1.189   5.634 -0.3586  0.6611 -0.3542
   81poe     o2  968   2.976   1.077   5.577 -0.5469 -0.1382  0.9457
   81poe    c23  969   3.117   1.076   5.584 -0.4713  0.1328 -0.2421
   81poe    c23  970   3.171   0.935   5.557  0.4760  0.2972  0.7136
   81poe     o2  971   3.086   0.838   5.614  0.1964  0.0588 -0.0826
   81poe    c31  972   3.142   0.711   5.590  0.0076 -0.0717  0.1549
   82poe    c31  973   4.603   3.941   3.709 -0.3040  0.2848  0.2974
   82poe     o2  974   4.486   3.930   3.786 -0.3852 -0.6925  0.0579
   82poe    c23  975   4.464   3.798   3.830 -0.2696 -0.6382  0.2821
   82poe    c23  976   4.340   3.792   3.922 -0.5433  0.1182 -0.0306
   82poe     o2  977   4.351   3.898   4.014  0.0973  0.0880 -0.0682
   82poe    c23  978   4.244   3.905   4.106  0.0923 -0.2579 -0.0449
   82poe    c23  979   4.286   4.033   4.181  0.1638 -0.3823  0.1272
   82poe     o2  980   4.327   4.121   4.078 -0.1076 -0.3059  0.0839
   82poe    c23  981   4.367   4.247   4.125  0.0238 -0.1774 -0.3761
   82poe    c23  982   4.393   4.332   3.999 -0.1116 -0.1621 -0.3931
   82poe     o2  983   4.466   4.247   3.914 -0.4638 -0.7064 -0.1599
   82poe    c31  984   4.483   4.308   3.788  0.1094  0.0169  0.2560
   83poe    c31  985   3.486   4.407   0.976 -1.2780  0.0943 -0.1895
   83poe     o2  986   3.434   4.530   0.930 -0.0068  0.7772  0.1410
   83poe    c23  987   3.449   4.622   1.035 -0.0226  0.5572  0.3367
   83poe    c23  988   3.454   4.765   0.978  0.0333  0.4530  0.0800
   83poe     o2  989   3.358   4.766   0.875 -0.1454  0.0146  0.2421
   83poe    c23  990   3.233   4.814   0.921 -0.2275 -0.0748  0.1151
   83poe    c23  991   3.137   4.777   0.807  0.0091  0.3504 -0.2241
   83poe     o2  992   3.152   4.638   0.798  0.0442  0.3468 -0.0980
   83poe    c23  993   3.085   4.585   0.686  0.2148  0.2809 -0.1692
   83poe    c23  994   3.122   4.435   0.688 -0.1694  0.1911  0.7897
   83poe     o2  995   3.257   4.418   0.724 -0.0233 -0.3902 -0.0056
   83poe    c31  996   3.301   4.294   0.673 -0.1523 -0.3983 -0.0944
   84poe    c31  997   4.373   6.014   1.199  0.0569  0.2979 -0.1260
   84poe     o2  998   4.503   5.999   1.148  0.0309 -0.1704 -0.0594
   84poe    c23  999   4.511   6.058   1.020  0.3194 -0.2371 -0.0740
   84poe    c23 1000   4.659   6.098   1.010  0.1024  0.4465 -0.6185
   84poe     o2 1001   4.735   5.979   1.017 -0.1936  0.2808 -0.2010
   84poe    c23 1002   4.875   5.991   1.021 -0.1890  0.1870 -0.0897
   84poe    c23 1003   4.928   5.883   1.118 -0.5674 -0.1984 -0.3082
   84poe     o2 1004   4.832   5.872   1.221 -0.2240  0.0690  0.0422
   84poe    c23 1005   4.854   5.762   1.308 -0.4817 -0.1490 -0.1665
   84poe    c23 1006   4.736   5.761   1.406  0.0182  0.4434  0.4512
   84poe     o2 1007   4.619   5.769   1.328  0.0278 -0.4041  0.3439
   84poe    c31 1008   4.512   5.776   1.420  0.0538 -0.2090  0.3595
   85poe    c31 1009   3.554   2.817   3.115  0.0491  0.1733 -0.1479
   85poe     o2 1010   3.465   2.789   3.009 -0.1266  0.3283 -0.0432
   85poe    c23 1011   3.403   2.910   2.974  0.1015  0.5227  0.2247
   85poe    c23 1012   3.257   2.867   2.952  0.3689 -0.3397  0.1182
   85poe     o2 1013   3.274   2.750   2.876 -0.4742 -0.4233  0.0433
   85poe    c23 1014   3.160   2.667   2.883 -0.4438 -0.4789 -0.1203
   85poe    c23 1015   3.220   2.527   2.860  0.1645 -0.1713 -0.4237
   85poe     o2 1016   3.331   2.512   2.947  0.2069  0.6273 -0.3342
   85poe    c23 1017   3.399   2.391   2.925  0.1309  0.4479  0.3935
   85poe    c23 1018   3.552   2.396   2.942  0.2398 -0.2302 -0.3510
   85poe     o2 1019   3.582   2.532   2.923  0.2815 -0.1728  0.1145
   85poe    c31 1020   3.719   2.553   2.893  0.2033 -0.3921 -0.4010
   86poe    c31 1021   2.479   2.228   5.589 -0.2231  0.1193 -0.0680
   86poe     o2 1022   2.458   2.148   5.703 -0.6945  0.4737  0.0960
   86poe    c23 1023   2.366   2.052   5.657  0.4628 -0.4517 -0.3222
   86poe    c23 1024   2.332   1.949   5.767 -0.0572  0.1964  0.1341
   86poe     o2 1025   2.435   1.854   5.785 -0.0323  0.1712 -0.1386
   86poe    c23 1026   2.542   1.904   5.862 -0.1448 -0.2901  0.3172
   86poe    c23 1027   2.650   1.794   5.855 -0.1769 -0.3105  0.1519
   86poe     o2 1028   2.592   1.666   5.860 -0.6153 -0.1313 -0.2382
   86poe    c23 1029   2.690   1.568   5.831 -0.3176  0.0289  0.2271
   86poe    c23 1030   2.633   1.427   5.855 -0.5110  0.1429  0.4474
   86poe     o2 1031   2.495   1.431   5.824 -0.4726  0.2059  0.2805
   86poe    c31 1032   2.440   1.305   5.853  0.5075 -0.3658 -0.2785
   87poe    c31 1033   1.873   5.319   1.630 -0.3130  0.9955  0.0271
   87poe     o2 1034   1.952   5.354   1.519  0.1003 -0.0595 -0.0243
   87poe    c23 1035   1.876   5.427   1.424 -0.0401 -0.0870  0.0668
   87poe    c23 1036   1.965   5.515   1.335  0.2893  0.1154  0.5903
   87poe     o2 1037   2.080   5.437   1.308 -0.1652 -0.3019 -0.1653
   87poe    c23 1038   2.161   5.495   1.209 -0.7220  0.2297 -0.3163
   87poe    c23 1039   2.303   5.440   1.233 -1.0041 -0.3707 -0.0142
   87poe     o2 1040   2.327   5.389   1.362 -0.2616  0.0501  0.0190
   87poe    c23 1041   2.371   5.488   1.453  0.1835 -0.4448  0.3500
   87poe    c23 1042   2.355   5.411   1.585 -0.2962 -0.2078  0.4314
   87poe     o2 1043   2.225   5.356   1.577 -0.3508  0.1051 -0.9945
   87poe    c31 1044   2.214   5.261   1.680  0.2403  0.4015 -0.6571
   88poe    c31 1045   6.030   4.781   2.056 -0.2153 -0.2363  0.0174
   88poe     o2 1046   5.995   4.688   2.156 -0.0968 -0.4233 -0.1150
   88poe    c23 1047   5.855   4.670   2.151 -0.2445  0.4639  0.5157
   88poe    c23 1048   5.800   4.574   2.258 -0.5803  0.1240  0.0443
   88poe     o2 1049   5.866   4.604   2.378  0.1490 -0.2782 -0.2479
   88poe    c23 1050   5.820   4.702   2.469  0.6073 -0.2254 -0.0647
   88poe    c23 1051   5.940   4.755   2.550  0.3766  0.0582  0.0964
   88poe     o2 1052   6.047   4.750   2.458  0.0974 -0.4030 -0.2103
   88poe    c23 1053   6.175   4.782   2.507 -0.1177  0.3974 -0.1699
   88poe    c23 1054   6.253   4.811   2.378  0.4242 -0.1419  0.0300
   88poe     o2 1055   6.236   4.708   2.283 -0.0023 -0.2449  0.2173
   88poe    c31 1056   6.353   4.643   2.240  0.4770  0.7150  0.0543
   89poe    c31 1057   1.213   0.962   2.411  0.4114  0.1074 -0.5507
   89poe     o2 1058   1.180   0.826   2.392 -0.3920  0.0745  0.9456
   89poe    c23 1059   1.115   0.804   2.269  0.1561  0.4421  0.5885
   89poe    c23 1060   1.084   0.654   2.260 -0.0721  0.5024  0.3480
   89poe     o2 1061   1.201   0.583   2.296 -0.1100 -0.1450 -0.7570
   89poe    c23 1062   1.164   0.447   2.292  0.4398 -0.3181 -0.1911
   89poe    c23 1063   1.278   0.378   2.368  0.3443  0.1461  0.3803
   89poe     o2 1064   1.314   0.460   2.477  0.4997  0.7507 -0.1174
   89poe    c23 1065   1.436   0.427   2.541 -0.3252 -0.5606  0.8299
   89poe    c23 1066   1.461   0.533   2.649  0.1435  0.1424  0.0406
   89poe     o2 1067   1.428   0.653   2.582 -0.0176  0.1925  0.2076
   89poe    c31 1068   1.456   0.763   2.665  0.3090  0.3290 -0.0807
   90poe    c31 1069   3.541   4.054   5.043  0.2051 -0.1838 -0.4554
   90poe     o2 1070   3.623   3.945   5.076  0.5145  0.0261 -0.5309
   90poe    c23 1071   3.708   3.983   5.183  0.2332 -0.4796 -0.1221
   90poe    c23 1072   3.829   3.888   5.187  0.2421 -0.4417  0.5233
   90poe     o2 1073   3.782   3.756   5.179 -0.3770 -0.1886 -0.0609
   90poe    c23 1074   3.858   3.668   5.099  0.2178  0.4695 -0.2224
   90poe    c23 1075   3.766   3.547   5.074  0.5732  0.2287 -0.3751
   90poe     o2 1076   3.655   3.606   5.010  0.2519  0.4106  0.3339
   90poe    c23 1077   3.561   3.505   4.978  0.3451  0.4161  0.0391
   90poe    c23 1078   3.450   3.599   4.926  0.1357  0.1970  0.0907
   90poe     o2 1079   3.437   3.712   5.008  0.3983  0.4880 -0.2658
   90poe    c31 1080   3.327   3.790   4.965  0.0834  0.1011 -0.1699
   91poe    c31 1081   4.947   5.200   1.155  0.2619 -0.2834 -1.0508
   91poe     o2 1082   4.946   5.066   1.200 -0.3147  0.0223 -0.1206
   91poe    c23 1083   4.815   5.016   1.198 -0.2299 -0.2033  0.0102
   91poe    c23 1084   4.819   4.863   1.214 -0.4826 -0.1861  0.2473
   91poe     o2 1085   4.895   4.840   1.097 -0.0385 -0.4463  0.5790
   91poe    c23 1086   4.930   4.707   1.067  0.4571 -0.0469 -0.6670
   91poe    c23 1087   5.063   4.672   1.135  0.1191 -0.1725 -0.0635
   91poe     o2 1088   5.155   4.767   1.088  0.3288 -0.0782  0.5302
   91poe    c23 1089   5.273   4.767   1.166  0.1706 -0.1409  0.7690
   91poe    c23 1090   5.350   4.889   1.111 -0.0354 -0.4841 -0.3081
   91poe     o2 1091   5.269   4.996   1.153  0.2594 -0.1829 -0.4996
   91poe    c31 1092   5.333   5.120   1.140 -0.3947  0.1847 -0.2811
   92poe    c31 1093   3.509   6.078   0.550  0.1953  0.4986 -0.2199
   92poe     o2 1094   3.638   6.123   0.586  0.3148  0.0311 -0.0615
   92poe    c23 1095   3.649   6.255   0.538 -0.3797  0.1576  0.1181
   92poe    c23 1096   3.799   6.282   0.517 -0.3899  0.0014 -0.1628
   92poe     o2 1097   3.864   6.224   0.628  0.2925  0.6119 -0.2347
   92poe    c23 1098   3.995   6.182   0.596  0.2202  0.3511 -0.1936
   92poe    c23 1099   4.025   6.063   0.689 -0.3406  0.2160 -0.1833
   92poe     o2 1100   3.913   5.978   0.680 -0.3566  0.1338  0.7368
   92poe    c23 1101   3.915   5.866   0.766  0.1936  0.3179  0.9693
   92poe    c23 1102   3.777   5.801   0.745  0.4594  0.1365 -0.2909
   92poe     o2 1103   3.688   5.907   0.772 -0.0388 -0.2475 -0.4155
   92poe    c31 1104   3.561   5.845   0.782 -0.0971  0.0025  0.4634
   93poe    c31 1105   4.185   0.191   4.612 -0.0513 -0.5142  0.5534
   93poe     o2 1106   4.212   0.293   4.706  0.3788 -0.0149 -0.1023
   93poe    c23 1107   4.255   0.241   4.830 -0.9322 -0.1930  0.2933
   93poe    c23 1108   4.331   0.348   4.910 -0.2089 -0.4697 -0.0103
   93poe     o2 1109   4.245   0.459   4.896 -0.0395 -0.3863 -0.3977
   93poe    c23 1110   4.327   0.572   4.911 -0.4628 -0.1064 -0.1733
   93poe    c23 1111   4.258   0.695   4.850 -0.8497  0.0404  0.5512
   93poe     o2 1112   4.203   0.653   4.727 -0.0719  0.2465  0.1266
   93poe    c23 1113   4.248   0.742   4.628 -0.1336  0.0047 -0.1196
   93poe    c23 1114   4.164   0.681   4.514  1.1790 -0.3252 -0.9332
   93poe     o2 1115   4.172   0.541   4.524  0.7062 -0.3000 -0.1266
   93poe    c31 1116   4.098   0.478   4.422 -0.3580  0.1338  0.3646
   94poe    c31 1117   4.837   3.323   0.585  0.3593 -0.2833  0.5308
   94poe     o2 1118   4.910   3.403   0.495 -0.3090 -0.1117  0.1360
   94poe    c23 1119   4.881   3.366   0.362  0.0074 -0.0205  0.0399
   94poe    c23 1120   4.878   3.492   0.273  0.4020  0.2811  0.4509
   94poe     o2 1121   4.968   3.573   0.346 -0.1640  0.4602  0.9519
   94poe    c23 1122   4.955   3.703   0.293 -0.7882  0.0872  0.1631
   94poe    c23 1123   5.044   3.788   0.386  0.3496 -0.5657 -0.3029
   94poe     o2 1124   4.999   3.752   0.514  0.2290  1.0450  0.1285
   94poe    c23 1125   5.076   3.816   0.613  0.3526  0.7817  0.2028
   94poe    c23 1126   5.037   3.748   0.746  1.2160  0.3000  0.2198
   94poe     o2 1127   5.018   3.611   0.722 -0.2943  0.5522 -0.1532
   94poe    c31 1128   5.043   3.530   0.835 -0.3783  0.6498 -0.0643
   95poe    c31 1129   3.795   4.471   2.822  0.2384 -0.2147 -0.2062
   95poe     o2 1130   3.859   4.480   2.947  0.1044 -0.3147 -0.1305
   95poe    c23 1131   3.992   4.520   2.925  0.0247 -0.0363 -0.1173
   95poe    c23 1132   4.058   4.571   3.055 -0.0155 -0.1827 -0.0383
   95poe     o2 1133   4.022   4.491   3.165 -0.0263 -0.3968 -0.1975
   95poe    c23 1134   4.056   4.554   3.286  0.7021 -0.5190 -0.3338
   95poe    c23 1135   3.993   4.451   3.381  0.2550  0.2420  0.2119
   95poe     o2 1136   3.865   4.419   3.330  0.3296 -0.0219  0.1855
   95poe    c23 1137   3.813   4.299   3.382  0.3630  0.0011  0.2714
   95poe    c23 1138   3.832   4.196   3.270  0.4721  0.5326 -0.2056
   95poe     o2 1139   3.791   4.252   3.147 -0.1118  0.5503 -0.0081
   95poe    c31 1140   3.673   4.192   3.100  0.0389  0.2772 -0.0402
   96poe    c31 1141   3.803   3.033   6.141 -0.2551  0.5845  0.2629
   96poe     o2 1142   3.771   3.035   6.004 -0.2099  0.4465  0.2509
   96poe    c23 1143   3.748   3.167   5.961 -0.0355  0.2670 -0.4080
   96poe    c23 1144   3.637   3.170   5.854 -0.2274 -0.2319 -0.2281
   96poe     o2 1145   3.656   3.056   5.773  0.4564 -0.0596 -0.3202
   96poe    c23 1146   3.712   3.070   5.645 -0.0967 -0.3710 -0.6026
   96poe    c23 1147   3.774   2.933   5.612  0.2296 -0.3952  0.0871
   96poe     o2 1148   3.794   2.863   5.733 -0.6530  0.1404  0.5503
   96poe    c23 1149   3.827   2.730   5.701  0.4249  0.5503 -0.0748
   96poe    c23 1150   3.928   2.706   5.814  0.1467  0.4146  0.1469
   96poe     o2 1151   3.879   2.756   5.936 -0.5074 -0.0960  0.0950
   96poe    c31 1152   3.932   2.685   6.046 -0.5200 -0.1065  0.0943
   97poe    c31 1153   0.638   2.531   4.301  0.3062  0.1106 -0.5629
   97poe     o2 1154   0.740   2.558   4.395  0.0427  0.1098 -0.2758
   97poe    c23 1155   0.663   2.575   4.512  0.2460 -0.0498 -0.1157
   97poe    c23 1156   0.732   2.678   4.605 -0.0550  0.2409 -0.2113
   97poe     o2 1157   0.854   2.614   4.633 -0.1836  0.2407  0.3457
   97poe    c23 1158   0.944   2.719   4.661  0.1174  0.1052 -0.0984
   97poe    c23 1159   1.082   2.652   4.670 -0.0316 -0.1748  0.1291
   97poe     o2 1160   1.093   2.579   4.550  0.2022  0.2386 -0.1031
   97poe    c23 1161   1.182   2.631   4.453  0.2638  0.4861  0.0878
   97poe    c23 1162   1.160   2.553   4.323 -0.3248  0.0600  0.4355
   97poe     o2 1163   1.021   2.531   4.313 -0.1919 -0.4666 -0.3718
   97poe    c31 1164   0.995   2.451   4.200 -0.3775 -0.5006 -0.3054
   98poe    c31 1165   2.690   4.985   6.376 -0.0782  0.1262 -0.4186
   98poe     o2 1166   2.551   4.970   6.395 -0.0638  0.3917 -0.0933
   98poe    c23 1167   2.503   4.926   6.270  0.1792 -0.0124 -0.0458
   98poe    c23 1168   2.365   4.994   6.261  0.1272 -0.0542  0.4116
   98poe     o2 1169   2.301   4.945   6.376 -0.2894 -0.9729 -0.2046
   98poe    c23 1170   2.191   5.020   6.423  0.9874  0.9938 -0.2571
   98poe    c23 1171   2.189   5.008   6.576  0.4221 -0.6236 -0.3678
   98poe     o2 1172   2.325   5.041   6.591  0.2377  0.1803 -0.3694
   98poe    c23 1173   2.354   5.086   6.721 -0.3115  0.5103 -0.3607
   98poe    c23 1174   2.505   5.113   6.733 -0.2242 -0.1416  0.0264
   98poe     o2 1175   2.568   5.004   6.670 -0.6903 -0.2421 -0.2689
   98poe    c31 1176   2.677   4.952   6.743 -0.5301  0.3520 -0.0808
   99poe    c31 1177   3.101   4.811   1.855 -0.0480  0.1258  0.9175
   99poe     o2 1178   3.079   4.793   1.993 -0.1630 -0.2011  0.8572
   99poe    c23 1179   3.144   4.682   2.050  0.3183 -0.5084 -0.2494
   99poe    c23 1180   3.111   4.680   2.201  0.2482  0.5529 -0.2479
   99poe     o2 1181   2.977   4.722   2.207  0.2697  0.5744  0.0952
   99poe    c23 1182   2.953   4.758   2.341 -0.0475  0.0511  0.1796
   99poe    c23 1183   2.816   4.827   2.358  0.1390  0.4588  0.0225
   99poe     o2 1184   2.783   4.895   2.239  0.0992  0.5142  0.0649
   99poe    c23 1185   2.800   5.035   2.238  0.1302  0.5087 -0.3141
   99poe    c23 1186   2.770   5.086   2.096 -0.0158 -0.0922 -0.5052
   99poe     o2 1187   2.857   5.017   2.009 -0.0001 -0.4590 -0.2011
   99poe    c31 1188   2.831   5.069   1.881 -0.0801  0.4246  0.1673
  100poe    c31 1189   3.770   4.415   6.587 -0.1791  0.1572  0.2525
  100poe     o2 1190   3.774   4.287   6.647  0.0622 -0.1105 -0.3164
  100poe    c23 1191   3.888   4.218   6.601 -0.0882 -0.4263 -0.2154
  100poe    c23 1192   3.922   4.094   6.685 -0.3586 -0.5965 -0.3556
  100poe     o2 1193   3.792   4.041   6.704 -0.5509 -0.3139 -0.8651
  100poe    c23 1194   3.786   3.980   6.831 -0.3978  0.8450 -0.2896
  100poe    c23 1195   3.639   3.976   6.878 -0.2867 -0.2789 -0.0051
  100poe     o2 1196   3.595   4.109   6.863 -0.0669 -0.2422 -0.3481
  100poe    c23 1197   3.462   4.130   6.906 -0.0778  0.2709 -0.6135
  100poe    c23 1198   3.442   4.279   6.876 -0.7062  0.3075 -0.0448
  100poe     o2 1199   3.492   4.295   6.745  0.5083  0.1799  0.3906
  100poe    c31 1200   3.434   4.416   6.702 -0.2342 -0.4405 -0.3761
  101poe    c31 1201   0.742   0.327   3.213  0.3024  0.0105  0.2358
  101poe     o2 1202   0.791   0.354   3.343  0.1673  0.3861  0.2098
  101poe    c23 1203   0.705   0.319   3.449  0.6819 -1.4356  0.0454
  101poe    c23 1204   0.788   0.344   3.576  0.0992 -0.3162  0.2188
  101poe     o2 1205   0.827   0.476   3.607  0.3197 -0.3201 -0.0363
  101poe    c23 1206   0.722   0.562   3.646  0.0358 -0.4080 -0.6000
  101poe    c23 1207   0.753   0.712   3.629 -0.2224 -0.2295  0.4278
  101poe     o2 1208   0.888   0.723   3.668 -0.2598 -0.2927  0.5765
  101poe    c23 1209   0.939   0.855   3.662  0.0524 -0.4259  0.2522
  101poe    c23 1210   1.079   0.866   3.725 -0.0501 -0.4544  0.4865
  101poe     o2 1211   1.165   0.794   3.640 -0.0886 -0.1019  0.1482
  101poe    c31 1212   1.299   0.810   3.682 -0.1837  0.0979  0.3739
  102poe    c31 1213   5.180   6.326   4.621 -0.5457  0.2219 -0.5571
  102poe     o2 1214   5.239   6.437   4.557  0.1912 -0.0461 -0.3500
  102poe    c23 1215   5.173   6.468   4.437 -0.6655  0.3223  0.2074
  102poe    c23 1216   5.217   6.612   4.406 -0.2329 -0.0489 -0.9713
  102poe     o2 1217   5.358   6.608   4.392 -0.1054 -0.4097  0.2515
  102poe    c23 1218   5.429   6.729   4.387 -0.3645 -0.2675 -0.0348
  102poe    c23 1219   5.570   6.669   4.406 -0.4049 -0.2702  0.2557
  102poe     o2 1220   5.582   6.571   4.506  0.0868 -0.1397  0.3229
  102poe    c23 1221   5.702   6.496   4.505  0.1728  0.0066 -0.1763
  102poe    c23 1222   5.675   6.394   4.616 -0.5927 -0.0030 -0.3641
  102poe     o2 1223   5.541   6.350   4.603 -0.7054  0.1638  0.1917
  102poe    c31 1224   5.503   6.250   4.693  0.4734 -0.3079  0.1886
  103poe    c31 1225   0.669   6.025   0.567  0.3799 -0.0517 -0.1711
  103poe     o2 1226   0.770   6.115   0.529  0.2487  0.0617 -0.2502
  103poe    c23 1227   0.862   6.053   0.442  0.4381  0.0351 -0.0299
  103poe    c23 1228   1.003   6.115   0.431  0.3239  0.3045  0.0214
  103poe     o2 1229   0.975   6.249   0.399 -0.6336  0.0261 -0.3449
  103poe    c23 1230   1.063   6.349   0.445 -0.2227 -0.5344  0.1040
  103poe    c23 1231   1.060   6.378   0.596  0.2785 -0.1353  0.0419
  103poe     o2 1232   0.925   6.404   0.627  0.2497 -0.5056  0.2367
  103poe    c23 1233   0.909   6.409   0.767  0.0025  0.8334  0.1737
  103poe    c23 1234   0.759   6.443   0.779 -0.1746  0.3147 -0.5168
  103poe     o2 1235   0.692   6.353   0.693  0.0320  0.0106 -0.3638
  103poe    c31 1236   0.556   6.389   0.709  0.0712 -0.0587  0.1391
  104poe    c31 1237   2.767   0.060   3.658  0.4549 -0.1171  0.2128
  104poe     o2 1238   2.801   0.183   3.719  0.1494 -0.2687  0.6944
  104poe    c23 1239   2.893   0.152   3.821  0.4846  0.1809  0.5335
  104poe    c23 1240   2.925   0.287   3.886 -0.1461  0.4438  0.3076
  104poe     o2 1241   2.803   0.357   3.898 -0.2684  0.3717 -0.5085
  104poe    c23 1242   2.814   0.479   3.967  0.1020  0.0163  0.0693
  104poe    c23 1243   2.677   0.548   3.981 -0.0443 -0.1783 -0.3895
  104poe     o2 1244   2.611   0.535   3.857  0.3077 -0.0121 -0.5973
  104poe    c23 1245   2.495   0.612   3.839  0.1510 -0.2393 -0.5709
  104poe    c23 1246   2.525   0.760   3.806  0.1636 -0.1321 -0.0886
  104poe     o2 1247   2.545   0.777   3.667  0.1261 -0.0459 -0.0831
  104poe    c31 1248   2.571   0.914   3.649 -0.4432  0.1120  0.2518
  105poe    c31 1249   2.824   3.150   4.506  0.8535 -0.2182  0.2426
  105poe     o2 1250   2.933   3.238   4.520  0.6915 -0.0105  0.1925
  105poe    c23 1251   2.897   3.317   4.631  0.0578  0.3302 -0.2476
  105poe    c23 1252   2.973   3.450   4.637  0.9109 -0.1706  0.5122
  105poe     o2 1253   3.053   3.451   4.521  0.1971  0.1555  0.0104
  105poe    c23 1254   3.176   3.517   4.540  0.1858  0.1131  0.2264
  105poe    c23 1255   3.220   3.511   4.393 -0.2833  0.2292  0.0798
  105poe     o2 1256   3.192   3.378   4.356 -0.3957  0.2359  0.1383
  105poe    c23 1257   3.219   3.334   4.225  0.1103  0.2118  0.2485
  105poe    c23 1258   3.179   3.186   4.218 -0.0286  0.2639 -0.0582
  105poe     o2 1259   3.045   3.174   4.262 -0.0747  0.3474 -0.1753
  105poe    c31 1260   2.986   3.049   4.234 -0.2835  0.2355  0.7236
  106poe    c31 1261   1.555   3.165   0.184 -0.4403  0.0536  0.1494
  106poe     o2 1262   1.502   3.222   0.301  0.0796  0.5378  0.1532
  106poe    c23 1263   1.590   3.203   0.410  0.1896  0.3235  0.0274
  106poe    c23 1264   1.513   3.245   0.536 -0.3009  0.2313 -0.2402
  106poe     o2 1265   1.456   3.365   0.489 -0.0000  0.2697 -0.5060
  106poe    c23 1266   1.430   3.448   0.600 -0.3539  0.1785 -0.5197
  106poe    c23 1267   1.389   3.587   0.549 -0.1026  0.4874  0.1160
  106poe     o2 1268   1.288   3.557   0.456  0.8048 -0.9211 -0.4316
  106poe    c23 1269   1.304   3.642   0.345  0.3582 -0.5457 -0.2086
  106poe    c23 1270   1.207   3.573   0.247 -0.5278  0.1609  0.1526
  106poe     o2 1271   1.255   3.445   0.213 -0.3484  0.3908 -0.4708
  106poe    c31 1272   1.204   3.413   0.085 -0.3095  0.3150 -0.4676
  107poe    c31 1273   1.927   3.170   0.758 -0.0578 -0.5943  0.8860
  107poe     o2 1274   2.044   3.250   0.758 -0.3532 -0.1411 -0.1555
  107poe    c23 1275   2.153   3.179   0.814 -0.0375  0.2963 -0.2122
  107poe    c23 1276   2.289   3.244   0.783  0.3723 -0.3375  0.2343
  107poe     o2 1277   2.275   3.290   0.650  0.2975  0.1854  0.4189
  107poe    c23 1278   2.381   3.374   0.612  0.3696 -0.1929 -0.2285
  107poe    c23 1279   2.344   3.410   0.467  0.3485  0.6314 -0.0259
  107poe     o2 1280   2.213   3.456   0.489  0.2722  0.2121  0.4205
  107poe    c23 1281   2.155   3.495   0.366  0.1911  0.5383  0.5617
  107poe    c23 1282   2.005   3.521   0.391 -0.0484 -0.3455  0.1001
  107poe     o2 1283   1.974   3.442   0.503 -0.3608 -0.5813 -0.1532
  107poe    c31 1284   1.841   3.469   0.543 -0.0546  0.0335  0.4627
  108poe    c31 1285   0.208   4.272   1.777  0.1441 -1.1072 -0.4387
  108poe     o2 1286   0.079   4.248   1.727 -0.2947  0.1438  0.0645
  108poe    c23 1287   0.098   4.212   1.592  0.0044  0.4597  0.0222
  108poe    c23 1288  -0.035   4.250   1.524  0.1146  0.3066 -0.2811
  108poe     o2 1289  -0.140   4.218   1.612  0.1427 -0.3130 -0.4682
  108poe    c23 1290  -0.271   4.255   1.575  0.0971 -0.1501 -0.1497
  108poe    c23 1291  -0.354   4.187   1.685  0.1315  0.3064  0.1598
  108poe     o2 1292  -0.283   4.242   1.794  0.3808  0.2318  0.0370
  108poe    c23 1293  -0.347   4.250   1.920  0.7567 -0.2539  0.2625
  108poe    c23 1294  -0.242   4.321   2.008 -0.1116  0.7940  0.4785
  108poe     o2 1295  -0.113   4.293   1.960 -0.3575  0.0097  0.2536
  108poe    c31 1296  -0.013   4.362   2.033 -0.2091  0.3450 -0.2602
  109poe    c31 1297   6.682   1.546   0.641  0.4686  0.1470  0.0728
  109poe     o2 1298   6.707   1.472   0.758 -0.0890  0.0900  0.1589
  109poe    c23 1299   6.723   1.335   0.725  0.3124  0.1729  0.0046
  109poe    c23 1300   6.735   1.269   0.863 -0.0724  0.1009  0.0038
  109poe     o2 1301   6.822   1.358   0.928 -0.3340  0.2684  0.1243
  109poe    c23 1302   6.845   1.316   1.061  0.3579  0.0427 -0.0651
  109poe    c23 1303   6.942   1.427   1.105  0.0045  0.5127 -0.4622
  109poe     o2 1304   6.886   1.547   1.055 -0.5170  0.2952 -0.4026
  109poe    c23 1305   6.986   1.646   1.058 -0.1158 -0.1253  0.5619
  109poe    c23 1306   6.941   1.764   0.969 -0.5237 -0.6183  0.1090
  109poe     o2 1307   6.906   1.707   0.845 -0.2511  0.0106 -0.2610
  109poe    c31 1308   6.916   1.807   0.745 -0.5203  0.1139 -0.1848
  110poe    c31 1309   6.169   2.761   2.677  0.4077 -0.1815 -0.4518
  110poe     o2 1310   6.077   2.776   2.572 -0.0686 -0.0910 -0.0256
  110poe    c23 1311   6.121   2.692   2.467  0.1457 -0.4613  0.3618
  110poe    c23 1312   6.036   2.714   2.341  0.2777  0.0125  0.3523
  110poe     o2 1313   5.901   2.738   2.373  0.1038  0.1057 -0.4289
  110poe    c23 1314   5.799   2.719   2.277 -0.3377  0.2415  0.0075
  110poe    c23 1315   5.668   2.717   2.358 -0.0997 -0.2792  0.3887
  110poe     o2 1316   5.696   2.808   2.462 -0.3539  0.3621 -0.0981
  110poe    c23 1317   5.617   2.790   2.577 -0.2864  0.3020 -0.0615
  110poe    c23 1318   5.684   2.889   2.674  0.1207  0.0848 -0.1190
  110poe     o2 1319   5.821   2.857   2.679 -0.0686 -0.7053  0.2873
  110poe    c31 1320   5.882   2.878   2.805 -0.3691 -0.1133  0.3387
  111poe    c31 1321   0.951   0.447   6.631  0.1700 -0.6726 -0.2599
  111poe     o2 1322   0.865   0.489   6.527  0.1638 -0.6962 -0.2645
  111poe    c23 1323   0.813   0.369   6.474  0.0798 -0.4130 -0.8335
  111poe    c23 1324   0.712   0.418   6.369 -0.1252 -0.1051 -0.4980
  111poe     o2 1325   0.618   0.507   6.425 -0.0055  0.1180 -0.6497
  111poe    c23 1326   0.525   0.579   6.348 -0.1722  0.2541 -0.3231
  111poe    c23 1327   0.468   0.686   6.443  0.1814  0.4252 -0.3019
  111poe     o2 1328   0.593   0.743   6.478  0.2838  0.0104  0.0153
  111poe    c23 1329   0.585   0.846   6.575 -0.1419 -0.2924  0.3071
  111poe    c23 1330   0.730   0.880   6.611 -0.3104  0.0143  0.6961
  111poe     o2 1331   0.804   0.763   6.639  0.4360  0.1986 -0.4368
  111poe    c31 1332   0.934   0.787   6.688  0.4004  0.0876 -0.2892
  112poe    c31 1333   0.055   0.908   3.718 -0.1750 -0.0893  0.3146
  112poe     o2 1334   0.141   0.796   3.725 -0.5593 -0.3809  0.4007
  112poe    c23 1335   0.261   0.830   3.791 -0.0026 -0.6374 -0.4620
  112poe    c23 1336   0.300   0.693   3.851  0.1033 -0.1635  0.5708
  112poe     o2 1337   0.296   0.615   3.734  0.2975  0.0846  0.3978
  112poe    c23 1338   0.326   0.480   3.758 -0.5427 -0.2163 -0.1911
  112poe    c23 1339   0.195   0.400   3.752 -0.4304 -0.3936 -0.2929
  112poe     o2 1340   0.109   0.461   3.658 -0.6538  0.2766  0.3361
  112poe    c23 1341  -0.005   0.386   3.622 -0.3882 -0.4927  1.0728
  112poe    c23 1342  -0.075   0.476   3.519 -0.0634 -0.3926  0.9395
  112poe     o2 1343  -0.029   0.609   3.530 -0.1961 -0.2437 -0.1299
  112poe    c31 1344  -0.129   0.688   3.471  0.3972  0.6978  0.0910
  113poe    c31 1345   4.580   5.683   4.779  0.1585  0.4032 -0.2812
  113poe     o2 1346   4.627   5.583   4.691  0.3075 -0.2237  0.4968
  113poe    c23 1347   4.765   5.594   4.661  0.1391 -0.2330 -0.3005
  113poe    c23 1348   4.799   5.497   4.546  0.5123 -0.7825  0.2705
  113poe     o2 1349   4.724   5.383   4.581 -0.1061 -0.3526  0.3584
  113poe    c23 1350   4.736   5.271   4.496 -0.1324  0.3941 -0.6548
  113poe    c23 1351   4.608   5.191   4.529  0.3111  0.1629  0.5473
  113poe     o2 1352   4.506   5.284   4.559 -0.1061 -0.2278  0.3392
  113poe    c23 1353   4.386   5.232   4.611 -0.3681  0.0087 -0.0241
  113poe    c23 1354   4.292   5.353   4.627 -0.3921 -0.0178  0.0388
  113poe     o2 1355   4.362   5.442   4.711 -0.1207 -0.3350  0.1533
  113poe    c31 1356   4.261   5.526   4.762  0.0965 -0.1005  0.2006
  114poe    c31 1357   4.414   2.833   0.583 -0.0523 -0.2299 -0.2986
  114poe     o2 1358   4.294   2.907   0.580  0.1892  0.1701 -0.2224
  114poe    c23 1359   4.208   2.858   0.681  0.0997  0.6786 -0.0489
  114poe    c23 1360   4.092   2.959   0.686  0.4188  1.0564 -0.2028
  114poe     o2 1361   4.044   2.985   0.556 -0.2232 -0.2343 -0.2345
  114poe    c23 1362   3.962   3.099   0.543 -0.2670 -0.2947 -0.4819
  114poe    c23 1363   3.966   3.128   0.391  0.1567  0.4860 -0.3241
  114poe     o2 1364   4.106   3.135   0.371  0.2652 -0.0045  0.2012
  114poe    c23 1365   4.134   3.152   0.233  0.6231 -0.2042  0.2506
  114poe    c23 1366   4.288   3.147   0.231  0.6100 -0.3722 -0.3520
  114poe     o2 1367   4.317   3.031   0.306 -0.2133 -0.1064  0.3967
  114poe    c31 1368   4.455   3.018   0.280 -0.1158  0.3467  0.6771
  115poe    c31 1369   2.494   0.194   2.339  0.5384  0.1280 -0.3451
  115poe     o2 1370   2.470   0.298   2.247 -0.1217  0.3776  0.1032
  115poe    c23 1371   2.470   0.251   2.114 -0.1532  0.2155  0.1600
  115poe    c23 1372   2.363   0.326   2.032  0.2788  0.4667 -0.1749
  115poe     o2 1373   2.352   0.453   2.092  0.2604  0.3025  0.1706
  115poe    c23 1374   2.249   0.524   2.027 -0.3317 -0.5071  0.2163
  115poe    c23 1375   2.268   0.657   2.103 -0.3052 -0.1974 -0.3328
  115poe     o2 1376   2.270   0.624   2.240  0.2267 -0.0088 -0.2919
  115poe    c23 1377   2.309   0.733   2.319 -0.5268  0.0524 -0.0013
  115poe    c23 1378   2.339   0.684   2.462 -0.5464 -0.3737 -0.1437
  115poe     o2 1379   2.388   0.554   2.436  0.1248 -0.0215 -0.6691
  115poe    c31 1380   2.400   0.483   2.558  0.3326  0.3599 -0.4647
  116poe    c31 1381   3.693   5.227   6.346 -0.3168  0.0902 -0.1497
  116poe     o2 1382   3.733   5.115   6.269 -0.8252 -0.3947  0.2838
  116poe    c23 1383   3.832   5.044   6.340  0.0931  0.1028 -0.4803
  116poe    c23 1384   3.796   4.895   6.354  0.1146  0.1806  0.4885
  116poe     o2 1385   3.764   4.858   6.222  0.8893  0.0221  0.3410
  116poe    c23 1386   3.680   4.745   6.205 -0.0243  0.6710  0.4508
  116poe    c23 1387   3.536   4.800   6.196 -0.1892  0.1302 -0.2883
  116poe     o2 1388   3.541   4.902   6.099  0.6488  0.2823 -0.0934
  116poe    c23 1389   3.415   4.947   6.056  0.5464  0.9310  0.8428
  116poe    c23 1390   3.460   5.070   5.974 -0.0129  0.3830 -0.3199
  116poe     o2 1391   3.551   5.153   6.043 -0.0201 -0.1020  0.2826
  116poe    c31 1392   3.537   5.281   5.986  0.4592 -0.1455  0.0638
  117poe    c31 1393   5.485   0.084   6.411 -0.2190 -0.2552 -0.1623
  117poe     o2 1394   5.487  -0.002   6.300 -0.0940 -0.4287 -0.0264
  117poe    c23 1395   5.526   0.061   6.180 -0.0432 -0.1400  0.1397
  117poe    c23 1396   5.523  -0.049   6.072 -0.0125  0.3588 -0.3754
  117poe     o2 1397   5.402  -0.120   6.081  0.4169 -0.2915  0.4640
  117poe    c23 1398   5.423  -0.230   5.995  0.3826  0.5612 -0.6568
  117poe    c23 1399   5.297  -0.313   5.964  0.4089  0.2721  0.0159
  117poe     o2 1400   5.225  -0.357   6.077  0.2354  0.1326 -0.1479
  117poe    c23 1401   5.107  -0.280   6.083  0.4598  0.4626  0.0982
  117poe    c23 1402   5.095  -0.200   6.214  0.1038 -0.3975  0.5988
  117poe     o2 1403   5.190  -0.100   6.241  0.3486 -0.4350 -0.1070
  117poe    c31 1404   5.144  -0.024   6.350  0.4061 -0.1342 -0.2906
  118poe    c31 1405   5.439   2.496   2.158 -0.4932 -0.1075  0.1222
  118poe     o2 1406   5.445   2.474   2.019 -0.1871 -0.2751  0.1630
  118poe    c23 1407   5.444   2.598   1.952 -0.3206 -0.6267 -0.4912
  118poe    c23 1408   5.368   2.587   1.818 -0.2874 -0.2321 -0.5426
  118poe     o2 1409   5.439   2.494   1.740  0.4571  0.4605 -0.6980
  118poe    c23 1410   5.368   2.461   1.622 -0.3571 -0.7446  0.1106
  118poe    c23 1411   5.442   2.348   1.547 -0.0366 -0.1745 -0.4401
  118poe     o2 1412   5.435   2.251   1.649 -0.1293 -0.1797 -0.4516
  118poe    c23 1413   5.497   2.126   1.628  0.0697 -0.2021  0.2543
  118poe    c23 1414   5.469   2.057   1.763  0.5015 -0.5931  0.1459
  118poe     o2 1415   5.501   2.142   1.871  0.2440 -0.1035 -0.1575
  118poe    c31 1416   5.503   2.066   1.990  0.1561 -0.5060 -0.4106
  119poe    c31 1417   3.210   1.926   2.871 -0.3522  0.5924 -0.6946
  119poe     o2 1418   3.342   1.886   2.899 -0.4586  0.4016 -0.4548
  119poe    c23 1419   3.431   1.980   2.844 -0.2574 -0.1108 -1.0189
  119poe    c23 1420   3.568   1.912   2.823  0.4377  0.7717  0.5016
  119poe     o2 1421   3.585   1.833   2.939 -0.2637 -0.3940 -0.1696
  119poe    c23 1422   3.723   1.810   2.956 -0.1999  0.2012  0.1773
  119poe    c23 1423   3.749   1.744   3.093  0.3503 -0.4503 -0.2291
  119poe     o2 1424   3.661   1.634   3.098 -0.2063 -0.0144 -0.1827
  119poe    c23 1425   3.692   1.536   3.195  0.3322  0.3926  0.0627
  119poe    c23 1426   3.573   1.465   3.262  0.8434 -0.3449  0.2085
  119poe     o2 1427   3.518   1.361   3.184  0.5331  0.1160 -0.1973
  119poe    c31 1428   3.454   1.266   3.267 -0.3960  0.5014 -0.4555
  120poe    c31 1429   6.255   5.584   2.844  0.7430 -0.3246  0.2062
  120poe     o2 1430   6.277   5.552   2.980 -0.6653 -0.3530  0.4428
  120poe    c23 1431   6.387   5.622   3.035 -0.2502 -0.2507 -0.4857
  120poe    c23 1432   6.367   5.637   3.187 -0.3860  0.2106 -0.5469
  120poe     o2 1433   6.289   5.526   3.227 -0.1775  0.1906 -0.1874
  120poe    c23 1434   6.291   5.514   3.367 -0.0623 -0.4471 -0.2391
  120poe    c23 1435   6.186   5.411   3.412 -0.1964 -0.1597  0.1140
  120poe     o2 1436   6.198   5.287   3.346 -0.6342 -0.2768  0.2506
  120poe    c23 1437   6.185   5.181   3.438  0.1530 -0.7078 -0.1159
  120poe    c23 1438   6.326   5.125   3.462  0.5642  0.1843 -0.3792
  120poe     o2 1439   6.383   5.039   3.366  0.5465  0.5680 -0.7333
  120poe    c31 1440   6.341   4.905   3.377 -0.0993  0.8267  0.0441
  121poe    c31 1441   4.379   3.810   5.961 -0.3362 -0.5927  0.1559
  121poe     o2 1442   4.340   3.745   5.842  0.1800 -0.6485  0.0120
  121poe    c23 1443   4.256   3.835   5.773  0.3446 -0.4800  0.0320
  121poe    c23 1444   4.227   3.777   5.634  0.0663  0.0705 -0.1393
  121poe     o2 1445   4.186   3.643   5.648  1.0627 -0.1982  0.2880
  121poe    c23 1446   4.157   3.582   5.524 -1.1469  0.0753  0.6169
  121poe    c23 1447   4.150   3.432   5.556  0.0169 -0.1289 -0.0169
  121poe     o2 1448   4.258   3.415   5.645  0.3965 -0.1192 -0.4710
  121poe    c23 1449   4.268   3.297   5.723 -0.3420  0.1881  0.1058
  121poe    c23 1450   4.369   3.320   5.837 -0.2385 -0.5153  0.1614
  121poe     o2 1451   4.357   3.446   5.899  0.2911 -0.2075 -0.3543
  121poe    c31 1452   4.464   3.467   5.988  0.3872 -0.5002 -0.4007
  122poe    c31 1453   4.688   1.022   2.559  0.4066 -0.0987 -0.3906
  122poe     o2 1454   4.682   1.056   2.696  0.3860 -0.3136 -0.3379
  122poe    c23 1455   4.589   1.162   2.702  0.2326 -0.4476 -0.3490
  122poe    c23 1456   4.524   1.135   2.839  0.4142 -0.2665 -0.2256
  122poe     o2 1457   4.638   1.115   2.920  0.1564 -0.1531  0.1672
  122poe    c23 1458   4.615   1.120   3.059  0.3040 -0.7863  0.2151
  122poe    c23 1459   4.757   1.152   3.108  0.1508  0.5024 -0.1509
  122poe     o2 1460   4.848   1.066   3.042  0.2414 -0.0616  0.6967
  122poe    c23 1461   4.969   1.131   3.007  0.1192 -0.1853  0.0289
  122poe    c23 1462   5.042   1.054   2.896  0.0974  0.1233 -0.1987
  122poe     o2 1463   4.950   1.034   2.790 -0.2452 -0.2877  0.1748
  122poe    c31 1464   5.035   0.992   2.685 -0.0840  0.5567 -0.0411
  123poe    c31 1465   6.464   2.912   5.499 -0.0703 -0.3563 -0.3012
  123poe     o2 1466   6.489   2.980   5.378  0.3502  0.5070  0.2565
  123poe    c23 1467   6.531   3.107   5.421  0.1723  0.6053  0.1388
  123poe    c23 1468   6.586   3.186   5.300  0.1387 -0.2330 -0.4274
  123poe     o2 1469   6.672   3.111   5.216  0.3533 -0.2392 -0.2028
  123poe    c23 1470   6.708   3.190   5.105 -0.2333 -0.0496 -0.2636
  123poe    c23 1471   6.695   3.086   4.992  0.2254 -0.3305 -0.0591
  123poe     o2 1472   6.574   3.016   5.009  0.3299 -0.5179 -0.0829
  123poe    c23 1473   6.547   2.928   4.903  0.3523  0.0239 -0.5398
  123poe    c23 1474   6.413   2.857   4.930  0.4810 -0.1253 -0.2938
  123poe     o2 1475   6.406   2.838   5.070 -0.4929  0.1396 -0.2956
  123poe    c31 1476   6.291   2.769   5.111 -0.5314  0.6950  0.5630
  124poe    c31 1477   0.120   0.583   2.157  0.2442 -0.9527 -0.5959
  124poe     o2 1478   0.036   0.590   2.270  0.6655  0.4262 -0.3473
  124poe    c23 1479   0.109   0.626   2.384 -0.2774 -0.2349  0.4896
  124poe    c23 1480   0.037   0.570   2.508 -0.1811 -0.4415  0.4524
  124poe     o2 1481  -0.091   0.624   2.482  0.1041 -0.0949 -0.2619
  124poe    c23 1482  -0.167   0.632   2.601 -0.0374  0.0480 -0.3611
  124poe    c23 1483  -0.306   0.694   2.584 -0.1080 -0.0529 -0.1565
  124poe     o2 1484  -0.365   0.672   2.457 -0.3540  0.0069 -0.0539
  124poe    c23 1485  -0.501   0.709   2.463 -0.2248  0.4857 -0.0178
  124poe    c23 1486  -0.535   0.800   2.343 -0.0063  0.2624 -0.2535
  124poe     o2 1487  -0.558   0.724   2.227  0.1389  0.2023 -0.2424
  124poe    c31 1488  -0.580   0.819   2.125  0.2511  0.3628 -0.1174
  125poe    c31 1489   5.614   6.068   2.995 -0.1037 -0.3852  0.2635
  125poe     o2 1490   5.585   6.055   2.858  0.4037 -0.4553  0.1621
  125poe    c23 1491   5.706   6.093   2.797  0.0958  0.2447 -0.0151
  125poe    c23 1492   5.696   6.018   2.663 -0.5034  0.2084  0.0489
  125poe     o2 1493   5.566   6.043   2.614 -0.1948  0.1286 -0.8276
  125poe    c23 1494   5.522   5.951   2.516 -0.1128 -0.3468 -0.4209
  125poe    c23 1495   5.370   5.967   2.495 -0.0841  0.3450 -0.1502
  125poe     o2 1496   5.323   5.978   2.627 -0.6463 -0.3666 -0.2818
  125poe    c23 1497   5.185   6.008   2.630 -0.5846 -0.0594 -0.4095
  125poe    c23 1498   5.181   6.077   2.767  0.2422  0.0300 -0.4216
  125poe     o2 1499   5.301   6.068   2.840  0.0488 -0.1264 -0.1211
  125poe    c31 1500   5.282   6.104   2.975  0.3825 -0.3285 -0.0174
  126poe    c31 1501   6.607   0.354   3.175 -0.3210 -0.3475  0.2996
  126poe     o2 1502   6.615   0.222   3.128  0.1109  0.0115 -0.6623
  126poe    c23 1503   6.481   0.178   3.114 -0.1624  0.8074 -0.5973
  126poe    c23 1504   6.475   0.063   3.011 -0.3046 -0.3708  0.7022
  126poe     o2 1505   6.556  -0.032   3.077  0.2646 -0.4203 -0.0624
  126poe    c23 1506   6.603  -0.125   2.982 -0.0554 -0.0933 -0.5476
  126poe    c23 1507   6.715  -0.197   3.059 -0.4464 -0.0570  0.0609
  126poe     o2 1508   6.794  -0.092   3.112 -0.0089 -0.0600 -0.5786
  126poe    c23 1509   6.915  -0.127   3.175 -0.4669  0.2041  0.4750
  126poe    c23 1510   6.991   0.006   3.184  0.0106  0.0023 -0.4269
  126poe     o2 1511   6.899   0.110   3.207 -0.0280 -0.0429 -0.3778
  126poe    c31 1512   6.959   0.230   3.251 -0.1188 -0.1184 -0.0436
  127poe    c31 1513   2.075   1.129   0.968 -0.3557  0.1993  0.1589
  127poe     o2 1514   2.147   1.190   0.862  0.4880  0.0099  0.6167
  127poe    c23 1515   2.155   1.098   0.755 -0.2728  0.0997  0.4774
  127poe    c23 1516   2.307   1.084   0.743 -0.3612 -0.3325 -0.1270
  127poe     o2 1517   2.364   1.213   0.745 -0.2686 -0.3802  0.2518
  127poe    c23 1518   2.491   1.218   0.805 -0.3623  0.0252  0.4211
  127poe    c23 1519   2.504   1.364   0.853 -0.5619  0.2455 -0.1939
  127poe     o2 1520   2.382   1.402   0.913 -0.6058  0.2130 -0.2630
  127poe    c23 1521   2.381   1.529   0.972 -0.1863 -0.0404  0.2998
  127poe    c23 1522   2.232   1.533   1.014 -0.3352  0.2269 -0.2457
  127poe     o2 1523   2.159   1.485   0.904 -0.2724 -0.4749  0.0109
  127poe    c31 1524   2.022   1.511   0.926 -0.1616 -0.2859  0.4737
  128poe    c31 1525   2.935   5.763   2.490  0.0582  0.2452 -0.7650
  128poe     o2 1526   2.797   5.782   2.474 -0.0682 -0.4098 -0.5146
  128poe    c23 1527   2.744   5.687   2.385 -0.0347 -0.3691 -0.5781
  128poe    c23 1528   2.594   5.721   2.375  0.0890  0.3336 -0.0980
  128poe     o2 1529   2.582   5.860   2.363 -0.1948  0.2983 -0.2280
  128poe    c23 1530   2.447   5.901   2.368 -0.0866  0.6301  0.0459
  128poe    c23 1531   2.461   6.046   2.416 -0.1556  0.6284  0.0709
  128poe     o2 1532   2.549   6.040   2.526 -0.0577 -0.0257 -0.0389
  128poe    c23 1533   2.563   6.157   2.604  0.1441 -0.0777  0.0031
  128poe    c23 1534   2.669   6.125   2.712  0.3937 -0.1966 -0.2750
  128poe     o2 1535   2.780   6.075   2.642  0.0956 -0.2065 -0.7494
  128poe    c31 1536   2.876   6.040   2.740  0.0794 -0.6137 -0.8771
  129poe    c31 1537   5.130   2.427   0.889  0.8159 -0.2119 -0.1724
  129poe     o2 1538   5.268   2.456   0.886  0.6616  0.5757  0.2601
  129poe    c23 1539   5.330   2.353   0.959  0.1304  0.0602 -0.0044
  129poe    c23 1540   5.482   2.352   0.933  0.1589  0.5863  0.1205
  129poe     o2 1541   5.518   2.487   0.951  0.1271  0.6616 -0.3587
  129poe    c23 1542   5.648   2.537   0.928  0.4667  0.0808  0.2533
  129poe    c23 1543   5.616   2.683   0.890 -0.0005 -0.0851 -0.0029
  129poe     o2 1544   5.499   2.695   0.812  0.2584 -0.2031 -0.4103
  129poe    c23 1545   5.471   2.832   0.797  0.1066 -0.2388 -0.4455
  129poe    c23 1546   5.332   2.817   0.731 -0.1260  0.6953 -0.1797
  129poe     o2 1547   5.252   2.750   0.825  0.0460  0.4036 -0.2408
  129poe    c31 1548   5.117   2.764   0.789 -0.0100  0.4356 -0.0237
  130poe    c31 1549   3.892   3.008   2.511 -0.3443  0.1390  0.4451
  130poe     o2 1550   3.961   3.108   2.438  0.0254 -0.2643  0.2323
  130poe    c23 1551   4.051   3.172   2.526 -0.7748  0.3477  0.6254
  130poe    c23 1552   4.106   3.302   2.464 -0.4031  0.0028  0.2215
  130poe     o2 1553   4.120   3.268   2.328 -0.3747  0.3783  0.1292
  130poe    c23 1554   4.168   3.383   2.263 -0.1155  0.3796  0.3184
  130poe    c23 1555   4.103   3.377   2.123  0.0422 -0.2276  0.2708
  130poe     o2 1556   3.970   3.340   2.155 -0.0532 -0.0875  0.0337
  130poe    c23 1557   3.900   3.298   2.040 -0.6581  0.6246  0.1372
  130poe    c23 1558   3.778   3.228   2.104 -0.7916  0.1427 -0.6320
  130poe     o2 1559   3.812   3.138   2.206 -0.1894  0.6686 -0.3655
  130poe    c31 1560   3.715   3.036   2.198  0.0793  0.4357 -0.7459
  131poe    c31 1561   2.814   5.476   4.085  0.2760 -0.0624  1.5476
  131poe     o2 1562   2.811   5.617   4.072  0.1398 -0.1732  0.1949
  131poe    c23 1563   2.697   5.660   4.144  0.2216  0.3068  0.0349
  131poe    c23 1564   2.698   5.814   4.129  0.1391  0.2549 -0.5521
  131poe     o2 1565   2.712   5.854   3.995 -0.2134 -0.2379 -0.7416
  131poe    c23 1566   2.721   5.994   3.974  0.4675 -0.2589 -0.6307
  131poe    c23 1567   2.727   6.019   3.822 -0.2751  0.4571 -0.5502
  131poe     o2 1568   2.814   5.916   3.780 -0.3834  0.1172  0.0515
  131poe    c23 1569   2.952   5.941   3.768 -0.4622  0.4589 -0.1656
  131poe    c23 1570   3.029   5.808   3.749 -0.4439  0.4379  0.0546
  131poe     o2 1571   2.984   5.720   3.850 -0.1732  0.4112  0.1507
  131poe    c31 1572   3.055   5.602   3.819 -0.0187  0.4802  0.2355
  132poe    c31 1573   6.291   3.834   1.104 -0.0565  0.7304 -0.2813
  132poe     o2 1574   6.180   3.897   1.046 -0.4435 -0.0574 -0.4161
  132poe    c23 1575   6.186   3.908   0.906  0.7516 -0.3290 -0.3942
  132poe    c23 1576   6.048   3.957   0.859  0.7192 -0.2572 -0.2222
  132poe     o2 1577   6.027   4.060   0.954  0.1549 -0.0805 -0.5347
  132poe    c23 1578   5.898   4.114   0.933 -0.0110 -0.0420  0.5230
  132poe    c23 1579   5.865   4.183   1.066 -0.2088  0.2219  0.3384
  132poe     o2 1580   5.920   4.111   1.174  0.8605  0.4239 -0.0672
  132poe    c23 1581   5.912   4.164   1.304  0.8790  0.5361 -0.1114
  132poe    c23 1582   5.965   4.063   1.408 -0.9458 -0.2316  0.1137
  132poe     o2 1583   6.065   3.999   1.331 -0.2068  0.4646  0.4816
  132poe    c31 1584   6.106   3.896   1.419 -0.7035 -0.0162  0.1601
  133poe    c31 1585   2.966   5.603   1.042 -0.2653  0.2087 -0.0444
  133poe     o2 1586   3.087   5.671   1.066  0.1762 -0.5871  0.0128
  133poe    c23 1587   3.119   5.785   0.989 -0.5510 -0.5262 -0.2117
  133poe    c23 1588   3.248   5.830   1.060 -0.4517 -0.1670 -0.6195
  133poe     o2 1589   3.325   5.713   1.077  0.2440  0.3249 -0.3324
  133poe    c23 1590   3.453   5.724   1.137  0.0944 -0.0644  0.0644
  133poe    c23 1591   3.497   5.578   1.158  0.8744  0.1459 -0.0784
  133poe     o2 1592   3.381   5.515   1.209  1.0145 -0.0984 -0.0608
  133poe    c23 1593   3.376   5.374   1.213 -0.2324 -0.0767 -0.4585
  133poe    c23 1594   3.248   5.309   1.269 -0.3889  0.2767 -0.4018
  133poe     o2 1595   3.157   5.378   1.187 -0.4155  0.3083 -0.3464
  133poe    c31 1596   3.035   5.316   1.222 -0.2534  0.3758  0.3401
  134poe    c31 1597   4.028   1.404   6.709 -0.2145  0.3134 -0.1292
  134poe     o2 1598   4.133   1.349   6.786 -0.3332 -0.2158 -0.3464
  134poe    c23 1599   4.078   1.275   6.893 -0.6148  0.4711 -0.0128
  134poe    c23 1600   4.180   1.312   7.002 -0.2034  0.0051 -0.2385
  134poe     o2 1601   4.308   1.288   6.948 -0.0382 -0.1340  0.2200
  134poe    c23 1602   4.417   1.302   7.037 -0.2483  0.0011  0.4576
  134poe    c23 1603   4.533   1.250   6.950 -0.3123  0.4861  0.0789
  134poe     o2 1604   4.495   1.294   6.822  0.2011 -0.1593 -0.3029
  134poe    c23 1605   4.570   1.243   6.714  0.4867  0.2250 -0.2914
  134poe    c23 1606   4.514   1.338   6.606 -0.3579 -0.0073 -0.0659
  134poe     o2 1607   4.377   1.371   6.611 -0.2206  0.5242  0.2368
  134poe    c31 1608   4.326   1.453   6.509  0.6953  0.1756 -0.5134
  135poe    c31 1609   3.953   1.883   1.323 -0.8659 -1.0940 -0.4075
  135poe     o2 1610   4.071   1.805   1.327 -0.5768 -0.6570 -0.3352
  135poe    c23 1611   4.085   1.724   1.441  0.1125 -0.1228 -0.0315
  135poe    c23 1612   4.225   1.662   1.436  0.3069  0.3009  0.1119
  135poe     o2 1613   4.245   1.624   1.302 -0.5938 -0.1608  0.1055
  135poe    c23 1614   4.353   1.535   1.285 -0.0963  0.4312  0.1428
  135poe    c23 1615   4.371   1.514   1.133 -0.4481  0.4080  0.1045
  135poe     o2 1616   4.322   1.628   1.068  0.3531  0.5504 -0.2540
  135poe    c23 1617   4.255   1.594   0.948 -0.1951 -0.8796  0.4442
  135poe    c23 1618   4.111   1.553   0.987 -0.6252  0.1518 -0.0216
  135poe     o2 1619   4.053   1.638   1.083 -0.0392  0.2595  0.2441
  135poe    c31 1620   3.916   1.610   1.098 -0.0719  0.2113 -0.1312
  136poe    c31 1621   4.744   4.173   3.043 -0.0090  0.2670  0.6109
  136poe     o2 1622   4.648   4.090   3.105 -0.7436  0.2847 -0.4746
  136poe    c23 1623   4.580   4.146   3.215 -0.8656 -0.0588 -0.3741
  136poe    c23 1624   4.510   4.027   3.284  0.0863 -0.0617  0.6166
  136poe     o2 1625   4.436   3.959   3.185  0.2186 -0.0457  0.5070
  136poe    c23 1626   4.381   3.830   3.198 -0.6084  0.2065 -0.4115
  136poe    c23 1627   4.350   3.770   3.059 -0.1488 -0.0383 -0.4094
  136poe     o2 1628   4.470   3.797   2.989 -0.0346 -0.4585 -0.3768
  136poe    c23 1629   4.483   3.725   2.869 -0.0861 -0.1092 -0.5939
  136poe    c23 1630   4.608   3.784   2.802  0.0524 -0.3930 -0.5881
  136poe     o2 1631   4.597   3.924   2.814  0.3010 -0.4126 -0.0875
  136poe    c31 1632   4.685   3.984   2.722 -0.0603 -0.0109 -0.1724
  137poe    c31 1633   5.273   5.860   5.560 -0.0344  0.0573 -0.1774
  137poe     o2 1634   5.324   5.991   5.548  0.6592 -0.2355 -0.5117
  137poe    c23 1635   5.240   6.064   5.635  0.3785 -0.2272 -0.7888
  137poe    c23 1636   5.265   6.212   5.601  0.1138 -0.0672 -0.2848
  137poe     o2 1637   5.286   6.223   5.462  0.0474  0.3022 -0.2680
  137poe    c23 1638   5.353   6.340   5.423  0.1956  0.4503  0.4072
  137poe    c23 1639   5.414   6.299   5.287 -0.2241  0.2601  0.2731
  137poe     o2 1640   5.470   6.170   5.291 -0.8035  0.0175  0.7223
  137poe    c23 1641   5.608   6.157   5.317 -0.5902  0.3038 -0.2147
  137poe    c23 1642   5.641   6.006   5.316 -0.6242  0.2901  0.2913
  137poe     o2 1643   5.550   5.932   5.395 -0.1225  0.1635  0.7513
  137poe    c31 1644   5.571   5.793   5.409 -0.0323  0.1623  0.6149
  138poe    c31 1645   5.772   4.408   0.461  0.0895  0.2764 -0.5009
  138poe     o2 1646   5.789   4.516   0.549  0.0607 -0.2215  0.1195
  138poe    c23 1647   5.897   4.478   0.631 -0.0469 -0.3718  0.1910
  138poe    c23 1648   5.912   4.575   0.750 -0.0733  0.1906 -0.2639
  138poe     o2 1649   5.781   4.606   0.791  0.0395  0.0419  0.2079
  138poe    c23 1650   5.776   4.713   0.883  0.2603  0.6599 -0.4953
  138poe    c23 1651   5.679   4.823   0.834 -0.2229  0.4558 -0.0178
  138poe     o2 1652   5.580   4.748   0.767  0.1235  0.0423 -0.0700
  138poe    c23 1653   5.494   4.820   0.682  0.2640 -0.0381 -0.2839
  138poe    c23 1654   5.426   4.717   0.589 -0.4100  0.5171 -0.4177
  138poe     o2 1655   5.528   4.664   0.508 -0.2146 -0.1217  0.2356
  138poe    c31 1656   5.472   4.593   0.400  0.0097  0.0148  0.0297
  139poe    c31 1657   4.062   0.112   2.497  0.1546  0.0302  0.4402
  139poe     o2 1658   3.932   0.057   2.502  0.0605  0.1739 -0.3080
  139poe    c23 1659   3.946  -0.031   2.612 -0.3369  0.1058 -0.3112
  139poe    c23 1660   3.826  -0.127   2.622 -0.3194  0.1229  0.0725
  139poe     o2 1661   3.727  -0.079   2.534 -0.4643 -0.3145 -0.0031
  139poe    c23 1662   3.717  -0.169   2.426  0.4747 -0.2184 -0.1761
  139poe    c23 1663   3.660  -0.091   2.306  0.5379  0.1684  0.0458
  139poe     o2 1664   3.743   0.023   2.300  0.3522  0.3186  0.2849
  139poe    c23 1665   3.687   0.112   2.207 -0.1215 -0.1059  0.1600
  139poe    c23 1666   3.783   0.232   2.218 -0.0065 -0.1610 -0.2155
  139poe     o2 1667   3.803   0.252   2.357 -0.4667 -0.0350 -0.1648
  139poe    c31 1668   3.821   0.391   2.374  0.4641 -0.2466  0.7051
  140poe    c31 1669   4.298   0.712   5.515  0.5365 -0.2734 -0.2195
  140poe     o2 1670   4.217   0.612   5.458  0.2464 -0.1829  0.0290
  140poe    c23 1671   4.267   0.548   5.342  0.4430 -0.4450  0.2579
  140poe    c23 1672   4.179   0.425   5.317  0.1810 -0.0507 -0.8263
  140poe     o2 1673   4.050   0.481   5.319  0.1390 -0.1564 -0.5016
  140poe    c23 1674   3.948   0.386   5.341  0.4502 -0.2876  0.4096
  140poe    c23 1675   3.820   0.470   5.358  0.4269 -0.4006  0.8009
  140poe     o2 1676   3.847   0.566   5.458 -0.0297  0.2713  0.2826
  140poe    c23 1677   3.781   0.690   5.446 -0.7356 -0.1379 -0.2118
  140poe    c23 1678   3.848   0.792   5.352  0.0082 -0.1570  0.2826
  140poe     o2 1679   3.986   0.789   5.378  0.0679  0.6607  0.0884
  140poe    c31 1680   4.060   0.864   5.284  0.3147 -0.3086 -0.4997
  141poe    c31 1681   1.559   4.924   1.183  0.0690  0.5710  0.0342
  141poe     o2 1682   1.670   4.899   1.267 -0.1431 -0.4350  0.0299
  141poe    c23 1683   1.730   5.012   1.325 -0.6021 -0.0979 -0.1434
  141poe    c23 1684   1.840   4.965   1.423 -0.1497 -0.4261 -0.8060
  141poe     o2 1685   1.797   4.877   1.525  0.2826 -0.0839 -0.3312
  141poe    c23 1686   1.771   4.952   1.641  0.2145 -0.1461 -0.3066
  141poe    c23 1687   1.666   4.887   1.733  0.2574 -0.0511 -0.1895
  141poe     o2 1688   1.714   4.758   1.765  0.0779 -0.0215  0.2066
  141poe    c23 1689   1.625   4.689   1.850 -0.1323 -0.4318 -0.3386
  141poe    c23 1690   1.691   4.560   1.903 -0.5095 -0.2663  0.5484
  141poe     o2 1691   1.759   4.498   1.796  0.4081  0.0476  0.9343
  141poe    c31 1692   1.790   4.364   1.824  0.4915 -0.0018  0.6077
  142poe    c31 1693   5.499   1.502   4.653 -0.5089  0.4330  0.2900
  142poe     o2 1694   5.438   1.596   4.567  0.3516  0.4245 -0.3490
  142poe    c23 1695   5.367   1.693   4.640 -0.4091 -0.3719 -0.0092
  142poe    c23 1696   5.291   1.790   4.547 -0.0627  0.4303  0.5271
  142poe     o2 1697   5.239   1.719   4.437  0.4964  0.3599  0.3042
  142poe    c23 1698   5.216   1.809   4.332  0.6932  0.0253 -0.0311
  142poe    c23 1699   5.173   1.719   4.215  0.2448  0.4377 -0.1899
  142poe     o2 1700   5.264   1.611   4.214 -0.2937 -0.0311  0.1966
  142poe    c23 1701   5.227   1.495   4.143  0.0996  0.0228 -0.1013
  142poe    c23 1702   5.335   1.391   4.180 -0.1766 -0.0781  0.4327
  142poe     o2 1703   5.353   1.376   4.319 -0.2496  0.1182  0.4651
  142poe    c31 1704   5.439   1.269   4.354 -0.2709 -0.0835 -0.0800
  143poe    c31 1705   5.350   5.107   1.803 -0.2204  0.4193  0.5194
  143poe     o2 1706   5.223   5.055   1.839 -0.3042  0.2355 -0.0388
  143poe    c23 1707   5.184   4.949   1.754  0.0200 -0.1012  0.2308
  143poe    c23 1708   5.030   4.957   1.751  0.0259  0.1383  0.4629
  143poe     o2 1709   4.996   4.969   1.887  0.2615 -0.0416  0.5395
  143poe    c23 1710   4.863   5.014   1.901  0.1887 -0.1196  0.1054
  143poe    c23 1711   4.853   5.033   2.053 -0.1728  0.6838 -0.0115
  143poe     o2 1712   4.967   5.109   2.084  0.1168  0.4154 -0.4080
  143poe    c23 1713   5.022   5.093   2.213 -0.4636 -0.0128 -0.2107
  143poe    c23 1714   5.136   5.196   2.223 -0.3762 -0.1488  0.2490
  143poe     o2 1715   5.213   5.171   2.108  0.0465 -0.2747  0.5580
  143poe    c31 1716   5.346   5.169   2.154  0.0888 -0.0387  0.4484
  144poe    c31 1717   6.480   2.379   5.158  0.1419  0.5545 -0.0139
  144poe     o2 1718   6.421   2.360   5.285 -0.3243 -0.3665 -0.3652
  144poe    c23 1719   6.447   2.487   5.340 -0.2183 -0.3083 -0.5501
  144poe    c23 1720   6.350   2.496   5.459  0.5123 -0.6325  0.0861
  144poe     o2 1721   6.329   2.367   5.510  0.1080 -0.6660 -0.1578
  144poe    c23 1722   6.211   2.365   5.587  0.1205  0.1396 -0.1140
  144poe    c23 1723   6.196   2.217   5.625 -0.5501  0.1294 -0.3942
  144poe     o2 1724   6.246   2.142   5.517  0.0997 -0.1176  0.0685
  144poe    c23 1725   6.333   2.042   5.566  0.0725 -0.2464 -0.1447
  144poe    c23 1726   6.429   1.990   5.457 -0.0821 -0.2406 -0.2845
  144poe     o2 1727   6.467   2.107   5.388  0.4103 -0.7836 -0.9478
  144poe    c31 1728   6.604   2.123   5.419  0.1008 -0.0869  0.1268
  145poe    c31 1729   0.119   1.649   1.449  0.4454 -0.0550 -0.2592
  145poe     o2 1730   0.195   1.767   1.433  0.3388 -0.0207 -0.5091
  145poe    c23 1731   0.133   1.858   1.345 -0.3388 -0.2415 -0.2724
  145poe    c23 1732   0.243   1.945   1.281  0.0749 -0.0993  0.6232
  145poe     o2 1733   0.298   2.045   1.364  0.5868  0.0929  0.0593
  145poe    c23 1734   0.400   2.121   1.303  0.7094 -0.2621 -0.1758
  145poe    c23 1735   0.411   2.245   1.394 -0.4538  0.1037 -0.5203
  145poe     o2 1736   0.432   2.211   1.529  0.1759 -0.0560 -0.6570
  145poe    c23 1737   0.429   2.322   1.616  0.2279 -0.2522 -0.4027
  145poe    c23 1738   0.467   2.256   1.749 -0.3657  0.2417  0.0170
  145poe     o2 1739   0.389   2.139   1.765  0.3630 -0.3060 -0.3674
  145poe    c31 1740   0.400   2.090   1.896  0.7807  1.1989  0.1819
  146poe    c31 1741   5.226   0.667   3.276  0.2141 -0.1728 -0.0211
  146poe     o2 1742   5.336   0.623   3.199  0.0321  0.0194 -0.3892
  146poe    c23 1743   5.277   0.557   3.089 -0.2206 -0.3454 -0.0380
  146poe    c23 1744   5.403   0.538   3.002  0.0698 -0.5374  0.4212
  146poe     o2 1745   5.501   0.467   3.075  0.0494  0.0219  0.9999
  146poe    c23 1746   5.623   0.473   3.006 -0.3897  0.3665  0.2415
  146poe    c23 1747   5.735   0.464   3.112  0.2476  0.3862 -0.4205
  146poe     o2 1748   5.677   0.542   3.214  0.6809 -0.1764  0.2675
  146poe    c23 1749   5.762   0.565   3.323  0.9584 -0.0404  0.0221
  146poe    c23 1750   5.685   0.656   3.421 -0.3899 -0.4241 -0.6745
  146poe     o2 1751   5.546   0.634   3.408 -0.5851  0.2851  0.1398
  146poe    c31 1752   5.483   0.688   3.522 -0.8773  0.3604 -0.0587
  147poe    c31 1753   2.592   3.037   0.412  0.1670  0.7261  0.4270
  147poe     o2 1754   2.530   2.964   0.516  0.2811  0.3441  0.2297
  147poe    c23 1755   2.587   3.011   0.636  0.0811 -0.0930  0.4962
  147poe    c23 1756   2.511   2.954   0.758 -0.1581 -0.2851  0.2607
  147poe     o2 1757   2.378   2.943   0.715 -0.0317 -0.3837 -0.1044
  147poe    c23 1758   2.296   2.841   0.768 -0.2497 -0.1010  0.1070
  147poe    c23 1759   2.346   2.703   0.721  0.2344  0.1967 -0.2683
  147poe     o2 1760   2.349   2.708   0.581  0.1734 -0.3866 -0.2928
  147poe    c23 1761   2.382   2.581   0.529  0.1445 -0.6765  0.3984
  147poe    c23 1762   2.370   2.601   0.377  0.1159 -0.1053  0.4763
  147poe     o2 1763   2.429   2.727   0.351 -0.3270  0.0311  0.1186
  147poe    c31 1764   2.458   2.731   0.213 -0.1205  0.0534  0.1624
  148poe    c31 1765   1.690   1.534   5.108  0.1556 -0.2557 -0.9077
  148poe     o2 1766   1.725   1.666   5.144  0.1247 -0.4227 -0.2457
  148poe    c23 1767   1.846   1.711   5.087 -0.1941  0.5519 -0.1737
  148poe    c23 1768   1.862   1.864   5.104  0.2400  0.4948 -0.0347
  148poe     o2 1769   1.822   1.903   5.233 -0.2282 -0.0346 -0.0150
  148poe    c23 1770   1.811   2.042   5.252  0.1510 -0.0462  0.2982
  148poe    c23 1771   1.789   2.057   5.404 -0.5543  0.2269  0.1759
  148poe     o2 1772   1.700   1.953   5.434 -0.1908 -0.2529 -0.3754
  148poe    c23 1773   1.676   1.937   5.573 -0.2713 -0.6464 -0.4328
  148poe    c23 1774   1.572   1.824   5.578 -0.1952 -0.6871  0.2619
  148poe     o2 1775   1.621   1.725   5.491 -0.0733 -0.5948  0.2258
  148poe    c31 1776   1.568   1.602   5.534  0.0124 -0.7043  0.0201
  149poe    c31 1777   1.713   3.700   3.703  0.2660  0.3530 -0.0203
  149poe     o2 1778   1.664   3.757   3.823 -0.0884 -0.1175  0.0639
  149poe    c23 1779   1.719   3.699   3.939  0.1257 -0.3759 -0.1618
  149poe    c23 1780   1.600   3.651   4.024  0.1072  0.2976  0.1997
  149poe     o2 1781   1.536   3.776   4.038  0.0576  0.2808  0.1201
  149poe    c23 1782   1.397   3.768   4.064  0.0400 -0.0758 -0.0807
  149poe    c23 1783   1.365   3.918   4.065  0.0634 -0.0731  0.1651
  149poe     o2 1784   1.430   3.978   3.955 -0.6367 -0.4442 -0.4570
  149poe    c23 1785   1.391   4.114   3.947  1.1901  0.1408  0.0904
  149poe    c23 1786   1.459   4.144   3.812  0.3153 -0.0532 -0.3959
  149poe     o2 1787   1.589   4.089   3.802  0.4419  0.1584  0.0814
  149poe    c31 1788   1.649   4.101   3.675  0.7588 -0.4697  0.1716
  150poe    c31 1789   4.485   0.349   0.939 -0.3907  0.3964 -0.4008
  150poe     o2 1790   4.453   0.456   0.852  0.0027  0.4239 -0.5152
  150poe    c23 1791   4.330   0.512   0.891  0.0881 -0.1594  0.6553
  150poe    c23 1792   4.292   0.638   0.810  0.0967 -0.3760  0.3127
  150poe     o2 1793   4.279   0.595   0.676  0.2501 -0.0025  0.1788
  150poe    c23 1794   4.230   0.708   0.607 -0.2373 -0.4666 -0.2468
  150poe    c23 1795   4.250   0.704   0.455 -0.3278 -0.0980 -0.2701
  150poe     o2 1796   4.230   0.567   0.428  0.1559 -0.1232 -0.5157
  150poe    c23 1797   4.238   0.552   0.288 -0.0962 -0.0468 -0.5393
  150poe    c23 1798   4.202   0.411   0.236 -0.3894 -0.0466 -0.3397
  150poe     o2 1799   4.295   0.320   0.290  0.0024  0.0968 -0.7688
  150poe    c31 1800   4.266   0.196   0.228  0.4738 -0.3698 -0.0733
  151poe    c31 1801   4.641   1.682   6.396 -0.2416 -0.3266  0.2251
  151poe     o2 1802   4.774   1.644   6.424 -0.2108 -0.2147  0.2276
  151poe    c23 1803   4.802   1.650   6.562 -0.0901 -0.3814  0.2109
  151poe    c23 1804   4.954   1.667   6.574 -0.1505  0.3480 -0.0390
  151poe     o2 1805   5.015   1.576   6.485 -0.7644  0.1107 -0.2210
  151poe    c23 1806   5.151   1.608   6.466 -0.7907  0.4852  0.1834
  151poe    c23 1807   5.189   1.543   6.331  0.4256  0.4253  0.5465
  151poe     o2 1808   5.094   1.596   6.242  0.2785 -0.6222  0.0696
  151poe    c23 1809   5.095   1.548   6.110  0.1818 -0.1111 -0.1194
  151poe    c23 1810   4.949   1.566   6.062  0.1354  0.0758  0.0905
  151poe     o2 1811   4.857   1.521   6.159  0.0135  0.3108  0.0847
  151poe    c31 1812   4.733   1.483   6.104 -0.0026 -0.3043  0.5324
  152poe    c31 1813   0.893   6.413   2.921  0.1885  0.1055  0.2922
  152poe     o2 1814   0.853   6.341   2.806  0.2640  0.4505  0.0464
  152poe    c23 1815   0.712   6.344   2.807  0.2544  0.2751 -0.6313
  152poe    c23 1816   0.661   6.205   2.765 -0.1522  0.3018 -0.2361
  152poe     o2 1817   0.742   6.161   2.658 -0.4529 -0.6876 -0.0645
  152poe    c23 1818   0.703   6.051   2.579 -0.1629 -0.4154 -0.5958
  152poe    c23 1819   0.783   6.064   2.448  0.1120  0.7880 -0.3178
  152poe     o2 1820   0.906   6.122   2.486  0.5553 -0.3183 -0.0204
  152poe    c23 1821   0.954   6.204   2.382 -0.4493  0.2480 -0.0541
  152poe    c23 1822   1.059   6.294   2.449 -0.1026 -0.0967 -0.1305
  152poe     o2 1823   0.997   6.352   2.561  0.7498  0.7390 -0.0739
  152poe    c31 1824   1.057   6.478   2.584  0.4016  0.9370 -0.2271
  153poe    c31 1825   4.898   0.373   3.901  0.0557  0.2575 -0.1174
  153poe     o2 1826   4.837   0.316   3.787  0.6420 -0.3449 -0.1388
  153poe    c23 1827   4.925   0.308   3.678  0.4368  0.7067 -0.3840
  153poe    c23 1828   4.868   0.211   3.572  0.1929  0.6427 -0.1946
  153poe     o2 1829   4.737   0.249   3.539 -0.0564  0.1961  0.2670
  153poe    c23 1830   4.670   0.141   3.479  0.2161  0.0507  0.2264
  153poe    c23 1831   4.523   0.142   3.525  0.0580 -0.8365 -0.2240
  153poe     o2 1832   4.551   0.143   3.663  0.1699  0.0125 -0.2456
  153poe    c23 1833   4.439   0.100   3.736  0.4193 -0.2293 -0.0026
  153poe    c23 1834   4.483   0.088   3.883 -0.4658  0.0020  0.2881
  153poe     o2 1835   4.565   0.202   3.900  0.4188 -0.5984  0.1118
  153poe    c31 1836   4.537   0.254   4.028  0.7573 -0.3097  0.0691
  154poe    c31 1837   5.732   3.049   1.970 -0.0219  0.3151 -0.2574
  154poe     o2 1838   5.867   3.067   1.936  0.0481 -0.3946 -0.3847
  154poe    c23 1839   5.916   2.935   1.932  0.1554 -0.3649 -0.1265
  154poe    c23 1840   6.069   2.927   1.943  0.1860  0.6810  0.3300
  154poe     o2 1841   6.117   3.007   1.838  0.3246  0.1938  0.0173
  154poe    c23 1842   6.250   3.050   1.854  0.3348 -0.0286  0.5338
  154poe    c23 1843   6.261   3.179   1.938 -0.0507 -0.1887  0.8331
  154poe     o2 1844   6.132   3.235   1.931  0.2145  0.3531  0.1350
  154poe    c23 1845   6.125   3.364   1.986  0.5018  0.3999  0.0631
  154poe    c23 1846   6.028   3.448   1.901  0.0373 -0.0392  0.1559
  154poe     o2 1847   5.940   3.352   1.847  0.4470 -0.3861  0.0988
  154poe    c31 1848   5.830   3.425   1.795  0.7513 -0.0459 -0.0725
  155poe    c31 1849   1.498   0.711   4.980  0.3638 -0.1073 -0.0396
  155poe     o2 1850   1.521   0.620   4.875  0.2029 -0.3062  0.0973
  155poe    c23 1851   1.516   0.691   4.753  0.1153 -0.0101  0.2728
  155poe    c23 1852   1.479   0.579   4.654 -0.2489  0.0085  0.3855
  155poe     o2 1853   1.557   0.467   4.691 -0.1811 -0.1056 -0.1013
  155poe    c23 1854   1.564   0.371   4.588 -0.7285 -0.1378 -0.1100
  155poe    c23 1855   1.568   0.234   4.659  0.5421 -0.0381  0.0365
  155poe     o2 1856   1.473   0.252   4.762  0.2587  0.0109 -0.2330
  155poe    c23 1857   1.489   0.154   4.861  0.9145  0.3598  0.0164
  155poe    c23 1858   1.412   0.209   4.983 -0.0643 -0.3214 -0.2745
  155poe     o2 1859   1.455   0.343   4.992  0.0399 -0.3539 -0.2870
  155poe    c31 1860   1.408   0.376   5.121 -0.6142  0.1383 -0.6485
  156poe    c31 1861   1.384   2.350   2.712  0.1988 -0.3033  0.6338
  156poe     o2 1862   1.477   2.359   2.606 -0.1445  0.2596  0.3772
  156poe    c23 1863   1.405   2.432   2.509 -0.3359  0.2742  0.5280
  156poe    c23 1864   1.523   2.489   2.427 -0.7082 -0.7036 -0.7228
  156poe     o2 1865   1.616   2.388   2.399  0.2418 -0.0643  0.0693
  156poe    c23 1866   1.726   2.449   2.335  0.3285 -0.4671 -0.1716
  156poe    c23 1867   1.842   2.425   2.433  0.3134  0.2542  0.0278
  156poe     o2 1868   1.821   2.297   2.489 -0.3709  0.2932 -0.1301
  156poe    c23 1869   1.905   2.290   2.603  0.1504 -0.2598 -0.5435
  156poe    c23 1870   1.836   2.179   2.685 -0.1695 -0.0945 -0.5895
  156poe     o2 1871   1.695   2.192   2.679 -0.1982 -0.0342  0.1710
  156poe    c31 1872   1.645   2.093   2.765  0.3131 -0.6381 -0.2193
  157poe    c31 1873   1.166   4.763   6.101 -0.6517 -0.5529 -0.0992
  157poe     o2 1874   1.177   4.675   5.992  0.2240 -0.4208 -0.1237
  157poe    c23 1875   1.070   4.696   5.902 -0.0963 -0.3289  0.2721
  157poe    c23 1876   1.080   4.597   5.784 -0.1382 -0.2714  0.2207
  157poe     o2 1877   1.132   4.475   5.831 -0.3165 -0.3004  0.3464
  157poe    c23 1878   1.175   4.391   5.726 -0.7651 -0.6187  0.4201
  157poe    c23 1879   1.296   4.302   5.761  0.1953  0.3424 -0.4149
  157poe     o2 1880   1.368   4.387   5.847  0.0445 -0.6658  0.7281
  157poe    c23 1881   1.479   4.334   5.916  0.6189  0.2633  0.5426
  157poe    c23 1882   1.544   4.462   5.972  0.3741  0.3998  0.5163
  157poe     o2 1883   1.446   4.555   6.014 -0.1137  0.2219 -0.2142
  157poe    c31 1884   1.516   4.660   6.076 -0.1984 -0.3172  0.8220
  158poe    c31 1885   1.983   6.357   4.533  0.0512 -0.0406 -0.5013
  158poe     o2 1886   2.087   6.451   4.516  0.2095 -0.1337 -0.0629
  158poe    c23 1887   2.155   6.417   4.397 -0.3159 -0.7468 -0.1937
  158poe    c23 1888   2.276   6.508   4.368 -0.2121 -0.6188  0.6256
  158poe     o2 1889   2.215   6.635   4.381  0.4901 -0.1499 -0.5112
  158poe    c23 1890   2.301   6.746   4.391  0.1298  0.0484  0.5531
  158poe    c23 1891   2.224   6.863   4.457  0.1094  0.2535  0.1718
  158poe     o2 1892   2.141   6.797   4.550  0.3757  0.0125  0.2418
  158poe    c23 1893   2.117   6.863   4.672 -0.1830 -0.2329  0.2671
  158poe    c23 1894   1.988   6.798   4.727 -0.2900 -0.0056  0.2838
  158poe     o2 1895   2.006   6.658   4.728  0.1252  0.0410 -0.1638
  158poe    c31 1896   1.940   6.597   4.837  0.1868  0.1654 -0.0562
  159poe    c31 1897   1.206   4.085   1.475  0.3034 -0.6935  0.0638
  159poe     o2 1898   1.216   4.155   1.353  0.4404 -0.0496  0.4452
  159poe    c23 1899   1.141   4.274   1.363 -0.3279 -0.4642 -0.2999
  159poe    c23 1900   1.156   4.366   1.240  0.2687  0.8755  0.7498
  159poe     o2 1901   1.293   4.352   1.210 -0.1195 -0.3702 -0.5627
  159poe    c23 1902   1.322   4.425   1.094  0.2340  0.2028 -0.1187
  159poe    c23 1903   1.469   4.467   1.111  0.2715 -0.1069  0.3239
  159poe     o2 1904   1.554   4.354   1.110  0.2506 -0.1351  1.0985
  159poe    c23 1905   1.684   4.372   1.059  0.0052 -0.0638  0.4869
  159poe    c23 1906   1.766   4.242   1.046 -0.3453 -0.2726  0.3561
  159poe     o2 1907   1.719   4.156   0.944  0.0456 -0.2576  0.1611
  159poe    c31 1908   1.833   4.100   0.884 -0.3712 -0.7531 -0.1765
  160poe    c31 1909   1.832   6.043   6.023  0.7176 -0.4695 -0.3412
  160poe     o2 1910   1.926   6.127   5.959  0.3973 -0.0655 -0.2876
  160poe    c23 1911   2.049   6.059   5.945  0.0054 -0.6179 -1.0896
  160poe    c23 1912   2.165   6.143   5.888  0.3739 -0.5860 -0.3054
  160poe     o2 1913   2.103   6.202   5.776  0.4222 -0.3591 -0.2114
  160poe    c23 1914   2.198   6.282   5.710  0.0748  0.1512 -0.1043
  160poe    c23 1915   2.140   6.308   5.569 -0.2461  0.0805  0.0150
  160poe     o2 1916   2.017   6.371   5.594 -0.3812 -0.3152  0.3793
  160poe    c23 1917   1.929   6.356   5.484  0.2798 -0.6007 -0.1177
  160poe    c23 1918   1.832   6.241   5.515 -0.3717  0.1077  0.5280
  160poe     o2 1919   1.803   6.233   5.653  0.3724  0.3776  0.7058
  160poe    c31 1920   1.687   6.158   5.681  0.1604  0.3819 -0.1346
  161poe    c31 1921   0.901   4.458   2.783 -0.1042 -0.0311  0.7125
  161poe     o2 1922   0.807   4.376   2.717  0.7844 -0.5167  0.0361
  161poe    c23 1923   0.781   4.400   2.581 -0.7050  1.1051  0.5672
  161poe    c23 1924   0.636   4.355   2.556 -0.3119  0.1454 -0.0730
  161poe     o2 1925   0.606   4.237   2.627 -0.4405  0.1963 -0.0426
  161poe    c23 1926   0.482   4.243   2.693 -0.7075 -0.4668 -0.4722
  161poe    c23 1927   0.469   4.128   2.796 -0.6357  0.1370  0.2162
  161poe     o2 1928   0.595   4.137   2.858 -0.3715 -0.2183 -0.2659
  161poe    c23 1929   0.602   4.062   2.978  0.1514  0.0265 -0.1393
  161poe    c23 1930   0.753   4.062   3.006  0.0864  0.2324  0.2119
  161poe     o2 1931   0.819   4.167   2.940 -0.1601  0.0374 -0.3449
  161poe    c31 1932   0.897   4.238   3.033  0.2892  0.1541 -0.8034
  162poe    c31 1933   4.253   3.707   1.238 -0.4650 -0.0232 -0.0371
  162poe     o2 1934   4.370   3.772   1.281 -0.0915 -0.3079 -0.5923
  162poe    c23 1935   4.477   3.754   1.191  0.4513 -0.6447  0.1122
  162poe    c23 1936   4.608   3.825   1.230  0.1597  0.1470 -0.3318
  162poe     o2 1937   4.577   3.960   1.255  0.4240  0.1679 -0.1165
  162poe    c23 1938   4.665   4.028   1.342  0.2429 -0.2234  0.3774
  162poe    c23 1939   4.619   4.034   1.489  0.0818  0.1099  0.3138
  162poe     o2 1940   4.480   4.055   1.489 -0.0017 -0.4256  0.2770
  162poe    c23 1941   4.422   4.183   1.475 -0.1190 -0.4828  0.2392
  162poe    c23 1942   4.285   4.168   1.407 -0.1596  0.3913  0.1151
  162poe     o2 1943   4.307   4.066   1.312  0.0578  0.2399  0.3275
  162poe    c31 1944   4.199   4.067   1.222  0.3271  0.3439  0.0047
  163poe    c31 1945   1.729   3.268   2.673 -0.1794 -0.4596 -0.6755
  163poe     o2 1946   1.608   3.223   2.729 -0.0069 -0.2499 -0.1293
  163poe    c23 1947   1.568   3.097   2.681  0.9614 -0.4894 -0.3176
  163poe    c23 1948   1.475   3.039   2.790  0.4367  0.3123 -0.3387
  163poe     o2 1949   1.388   3.146   2.822 -0.4848 -0.3796 -0.5050
  163poe    c23 1950   1.321   3.124   2.944  0.6720  0.6799  0.3379
  163poe    c23 1951   1.239   3.247   2.987 -0.0699  0.4000 -0.2421
  163poe     o2 1952   1.329   3.354   2.965 -0.1289  0.5972  0.4571
  163poe    c23 1953   1.264   3.463   2.903 -0.3390  0.2430  0.0522
  163poe    c23 1954   1.270   3.440   2.751 -0.0721  0.0977  0.0842
  163poe     o2 1955   1.396   3.392   2.709 -0.2005 -0.1166 -0.0566
  163poe    c31 1956   1.430   3.454   2.587  0.5398 -0.4533 -0.0258
  164poe    c31 1957   3.165   0.752   1.846 -0.0468  0.3742  0.5611
  164poe     o2 1958   3.136   0.877   1.905  0.1077  0.7831 -0.2162
  164poe    c23 1959   3.051   0.849   2.015  0.1313  0.2804 -0.3229
  164poe    c23 1960   3.093   0.953   2.121 -0.5198 -0.0318  0.2427
  164poe     o2 1961   3.112   1.072   2.049  0.1057 -0.2946 -0.0333
  164poe    c23 1962   3.143   1.175   2.141  0.4590  0.1497 -0.6339
  164poe    c23 1963   3.293   1.202   2.121  0.5516  0.3840  0.3209
  164poe     o2 1964   3.315   1.206   1.982 -0.3656  0.0274  0.1605
  164poe    c23 1965   3.449   1.180   1.948 -0.3830  0.4453 -0.2438
  164poe    c23 1966   3.452   1.138   1.800 -0.4043  0.4282 -0.2394
  164poe     o2 1967   3.361   1.031   1.788  0.1198 -0.0347 -0.1492
  164poe    c31 1968   3.403   0.944   1.685  0.5080 -0.2946  0.2283
  165poe    c31 1969   4.459   5.129   4.108 -0.3614  0.0269  0.3586
  165poe     o2 1970   4.421   5.035   4.010 -0.0816  0.1462  0.1357
  165poe    c23 1971   4.452   4.907   4.061  0.3853  0.0058 -0.4732
  165poe    c23 1972   4.440   4.795   3.956 -0.3140  0.0413 -0.4408
  165poe     o2 1973   4.325   4.827   3.880 -0.4130  0.2791 -0.1927
  165poe    c23 1974   4.289   4.726   3.788  0.2742  0.2571 -0.4457
  165poe    c23 1975   4.174   4.784   3.704 -0.0177  0.0456 -0.1940
  165poe     o2 1976   4.222   4.907   3.655 -0.4643  0.3119  0.0319
  165poe    c23 1977   4.113   4.992   3.622 -0.3323  0.1453 -0.8600
  165poe    c23 1978   4.182   5.129   3.609  0.1231  0.0013 -0.0490
  165poe     o2 1979   4.270   5.139   3.719 -0.1051  0.2358  0.1133
  165poe    c31 1980   4.288   5.271   3.762  0.1103  0.1627  0.2445
  166poe    c31 1981   2.022   3.345   3.434  0.6466  0.0271 -0.0753
  166poe     o2 1982   2.046   3.480   3.466  0.3692  0.1076 -0.1996
  166poe    c23 1983   1.943   3.549   3.399 -0.0991  0.1815  0.5874
  166poe    c23 1984   1.997   3.691   3.424  0.8354  0.0368 -0.5476
  166poe     o2 1985   2.061   3.697   3.549  0.1970  0.4182 -0.2337
  166poe    c23 1986   2.108   3.827   3.577 -0.5038  0.6915 -0.3173
  166poe    c23 1987   2.161   3.805   3.720  0.1947  0.6120 -0.5857
  166poe     o2 1988   2.218   3.677   3.739 -0.4065  0.4381  0.1230
  166poe    c23 1989   2.215   3.612   3.864 -0.0319  0.1466 -0.0163
  166poe    c23 1990   2.271   3.472   3.832  0.1773  0.2432 -0.0719
  166poe     o2 1991   2.235   3.440   3.699  0.2042  0.3627 -0.1089
  166poe    c31 1992   2.259   3.302   3.681  0.3982  0.4086 -0.2024
  167poe    c31 1993   5.707   5.552   2.167 -0.0499  0.6238  0.1588
  167poe     o2 1994   5.834   5.584   2.116  0.2437 -0.3307  0.2816
  167poe    c23 1995   5.923   5.615   2.220 -0.4010  0.2102  0.6804
  167poe    c23 1996   6.039   5.698   2.162 -0.4457 -0.1435  0.0815
  167poe     o2 1997   6.060   5.657   2.029 -0.1689  0.2783 -0.0061
  167poe    c23 1998   6.171   5.714   1.962 -0.0011  0.0378  0.0636
  167poe    c23 1999   6.166   5.641   1.827 -0.1969 -0.0271  0.1043
  167poe     o2 2000   6.031   5.615   1.796 -0.2493  0.3688 -0.0100
  167poe    c23 2001   6.010   5.596   1.658  0.4499  0.2213 -0.1013
  167poe    c23 2002   5.869   5.533   1.654  0.4909  0.0995  0.2985
  167poe     o2 2003   5.804   5.574   1.772 -0.1935 -0.3419  0.0801
  167poe    c31 2004   5.667   5.541   1.766 -0.2015 -0.2725 -0.1467
  168poe    c31 2005   6.659   1.732   5.020 -0.2029 -0.7418 -0.3944
  168poe     o2 2006   6.548   1.647   5.035 -0.6532 -0.0457  0.2651
  168poe    c23 2007   6.420   1.706   5.028 -0.5560  0.2000  0.5265
  168poe    c23 2008   6.324   1.587   5.047 -0.6063  0.1968  0.2536
  168poe     o2 2009   6.354   1.500   5.153  0.4517 -0.2538 -0.3962
  168poe    c23 2010   6.274   1.383   5.154  0.2666 -0.1285  0.2251
  168poe    c23 2011   6.364   1.278   5.221  0.1082 -0.2361  0.2682
  168poe     o2 2012   6.471   1.280   5.128  0.5728  1.0758  0.8073
  168poe    c23 2013   6.567   1.179   5.152 -0.0502  0.2063 -0.2491
  168poe    c23 2014   6.680   1.225   5.058 -0.1950 -0.0957 -0.5737
  168poe     o2 2015   6.679   1.366   5.064  0.1818 -0.1198  0.2044
  168poe    c31 2016   6.790   1.407   4.988  0.0653  0.5748  0.4011
  169poe    c31 2017   3.696   2.193   1.110 -0.1672 -0.4194  0.1053
  169poe     o2 2018   3.739   2.258   1.228 -0.7483  0.1158  0.0261
  169poe    c23 2019   3.861   2.322   1.198 -0.5874 -0.2032 -0.0039
  169poe    c23 2020   3.908   2.353   1.342  0.0563  0.5971 -0.3783
  169poe     o2 2021   3.802   2.420   1.406  0.1745  0.2894  0.1391
  169poe    c23 2022   3.831   2.414   1.544 -0.3085  0.2544  0.2411
  169poe    c23 2023   3.701   2.413   1.626 -0.3352  0.2715  0.1989
  169poe     o2 2024   3.624   2.316   1.558 -0.1720  0.0460  0.3335
  169poe    c23 2025   3.494   2.325   1.610 -0.0580 -0.2980  0.6823
  169poe    c23 2026   3.408   2.283   1.490  0.5504 -0.0884  0.1715
  169poe     o2 2027   3.476   2.333   1.377  0.2463  0.3431  0.1740
  169poe    c31 2028   3.381   2.300   1.278  0.0260  0.0125  0.4941
  170poe    c31 2029   2.979   3.351   5.756  0.1602  0.6573 -1.0513
  170poe     o2 2030   3.093   3.282   5.708  0.3839  0.1049  0.2430
  170poe    c23 2031   3.174   3.243   5.817  0.4517  0.0075  0.1577
  170poe    c23 2032   3.230   3.101   5.799  0.6099  0.0963 -0.0504
  170poe     o2 2033   3.279   3.101   5.667 -0.5701 -0.3840 -0.4946
  170poe    c23 2034   3.369   2.995   5.641  0.2236  0.2993 -0.5625
  170poe    c23 2035   3.335   2.943   5.500  0.7709 -0.2197 -0.5050
  170poe     o2 2036   3.331   3.054   5.413  0.0536  0.1122 -0.0607
  170poe    c23 2037   3.267   3.032   5.289  0.2834 -0.4556 -0.0827
  170poe    c23 2038   3.245   3.171   5.226 -0.5868 -0.5150  0.0781
  170poe     o2 2039   3.196   3.256   5.327 -0.3818 -0.4820  0.1515
  170poe    c31 2040   3.174   3.385   5.276  0.3327 -0.0787  0.8505
  171poe    c31 2041   3.311   4.719   0.121 -0.8514  0.7103 -0.4098
  171poe     o2 2042   3.321   4.824   0.215  0.3904 -0.1796  0.4888
  171poe    c23 2043   3.186   4.842   0.249  0.1408  0.2997 -0.7053
  171poe    c23 2044   3.175   4.924   0.379  0.6411  0.2084 -0.6058
  171poe     o2 2045   3.235   5.045   0.339  0.4631  0.5349  0.1087
  171poe    c23 2046   3.274   5.125   0.449 -0.1244 -0.5744  1.1571
  171poe    c23 2047   3.392   5.211   0.400 -0.9062 -0.1831 -0.0815
  171poe     o2 2048   3.480   5.112   0.352 -0.6929 -0.0396  0.0095
  171poe    c23 2049   3.594   5.170   0.293 -0.6906  0.1199  0.1717
  171poe    c23 2050   3.686   5.049   0.273 -0.0422  0.6238  0.0591
  171poe     o2 2051   3.609   4.946   0.213  0.2900  0.3634  0.0746
  171poe    c31 2052   3.700   4.847   0.171 -0.1979 -0.0577 -0.0039
  172poe    c31 2053   1.051   2.655   1.993 -0.2580 -0.8182  0.0380
  172poe     o2 2054   1.148   2.631   1.894 -0.6388 -0.1647 -0.5001
  172poe    c23 2055   1.128   2.718   1.784 -0.0185  0.8534  0.1793
  172poe    c23 2056   1.224   2.680   1.670 -0.4338 -0.4500  0.2481
  172poe     o2 2057   1.350   2.646   1.724 -0.0306 -0.0137 -0.3980
  172poe    c23 2058   1.432   2.562   1.647 -0.0138  0.3304 -0.7550
  172poe    c23 2059   1.547   2.532   1.745 -0.2184  0.6291 -0.4209
  172poe     o2 2060   1.488   2.515   1.872 -0.3295 -0.2029 -0.5722
  172poe    c23 2061   1.550   2.414   1.947  0.7093  0.6970 -0.1868
  172poe    c23 2062   1.479   2.436   2.082 -0.0868 -0.1578 -0.4576
  172poe     o2 2063   1.344   2.475   2.073 -0.1341 -0.1321  0.3042
  172poe    c31 2064   1.266   2.449   2.187  0.3197 -0.3640  0.5636
  173poe    c31 2065   0.777   6.291   3.913  0.0997  0.1306  0.2010
  173poe     o2 2066   0.685   6.397   3.899 -0.6481 -0.4797  0.4088
  173poe    c23 2067   0.675   6.431   3.763  0.7024 -0.4824  0.2941
  173poe    c23 2068   0.536   6.492   3.739  1.0173  0.0738 -0.1378
  173poe     o2 2069   0.510   6.583   3.844 -0.0890 -0.1681 -0.1857
  173poe    c23 2070   0.375   6.619   3.856 -0.0000  0.1413 -0.1137
  173poe    c23 2071   0.374   6.703   3.985  0.6060 -0.0529  0.0171
  173poe     o2 2072   0.441   6.618   4.076  0.1952 -0.0856  0.2932
  173poe    c23 2073   0.468   6.662   4.207  0.6724 -0.0740  0.1920
  173poe    c23 2074   0.554   6.551   4.271 -0.0855 -0.5126  0.4644
  173poe     o2 2075   0.670   6.529   4.194 -0.0044  0.1405  0.3874
  173poe    c31 2076   0.779   6.527   4.283  0.1355 -0.0306  0.2156
  174poe    c31 2077   4.828   3.605   1.787 -0.4593  0.3803  0.4013
  174poe     o2 2078   4.788   3.720   1.857 -0.4454  0.6626 -0.0511
  174poe    c23 2079   4.795   3.826   1.764  0.4852  0.2983 -0.3990
  174poe    c23 2080   4.743   3.958   1.822  0.0772 -0.0801  0.1087
  174poe     o2 2081   4.616   3.926   1.874  0.1391 -0.6384 -0.0852
  174poe    c23 2082   4.564   4.027   1.957  0.0107 -0.6998 -0.0905
  174poe    c23 2083   4.446   3.952   2.022 -0.2748  0.2187  0.4636
  174poe     o2 2084   4.488   3.829   2.076 -0.1695 -0.2836 -0.7379
  174poe    c23 2085   4.373   3.747   2.082 -0.1971 -0.1696  0.4790
  174poe    c23 2086   4.424   3.603   2.103 -0.7213 -0.4647 -0.2552
  174poe     o2 2087   4.534   3.582   2.019 -0.1825  0.0249  0.3176
  174poe    c31 2088   4.587   3.454   2.045  0.0768 -0.0003 -0.3069
  175poe    c31 2089   0.795   5.676   1.511 -0.7975 -0.0535  0.3370
  175poe     o2 2090   0.782   5.790   1.593  0.1877  0.1858  0.1842
  175poe    c23 2091   0.814   5.905   1.518 -0.3261  0.1638 -0.0732
  175poe    c23 2092   0.769   6.027   1.601 -0.0584 -0.0174  0.3379
  175poe     o2 2093   0.643   6.001   1.661  0.1456 -0.2442  0.6734
  175poe    c23 2094   0.618   6.089   1.769 -0.9779  0.5064 -0.1713
  175poe    c23 2095   0.522   6.013   1.862 -0.1170 -0.5090 -0.0934
  175poe     o2 2096   0.563   5.878   1.857  0.5426 -0.3181 -0.0185
  175poe    c23 2097   0.490   5.793   1.943  0.0923 -0.5761 -0.6433
  175poe    c23 2098   0.573   5.664   1.934 -0.3005 -0.8959  0.1862
  175poe     o2 2099   0.629   5.648   1.805 -0.1470 -0.7010  0.2279
  175poe    c31 2100   0.679   5.518   1.790 -0.4736 -0.8483  0.3919
  176poe    c31 2101   2.803   1.040   6.550 -0.5500  0.2278  0.1931
  176poe     o2 2102   2.918   1.114   6.516 -0.1676 -0.3170  0.2953
  176poe    c23 2103   3.034   1.056   6.572  0.3260  0.2387 -0.1362
  176poe    c23 2104   3.154   1.100   6.487  0.4046  0.5638  0.1437
  176poe     o2 2105   3.135   1.237   6.461 -0.2163  0.3430 -0.5742
  176poe    c23 2106   3.232   1.302   6.382  0.5890  0.1585  0.2495
  176poe    c23 2107   3.180   1.446   6.360  0.6082  0.1351  0.0432
  176poe     o2 2108   3.045   1.424   6.323  0.4610  0.6775  0.2480
  176poe    c23 2109   2.967   1.540   6.337  0.0350  0.4307 -0.0538
  176poe    c23 2110   2.825   1.485   6.316  0.3203 -0.3528  0.0345
  176poe     o2 2111   2.809   1.379   6.407  0.4573 -0.3086  0.1104
  176poe    c31 2112   2.674   1.339   6.417  0.4708 -0.1954  0.8142
  177poe    c31 2113   5.798   2.257   2.157 -0.1480 -0.6574  0.4366
  177poe     o2 2114   5.934   2.244   2.192  0.0111 -0.2704 -0.0247
  177poe    c23 2115   5.970   2.325   2.302  0.6511  0.2244 -0.5939
  177poe    c23 2116   6.116   2.277   2.321  0.3793 -0.4435 -0.1431
  177poe     o2 2117   6.188   2.250   2.203  0.2040 -0.1855 -0.3103
  177poe    c23 2118   6.313   2.194   2.234  0.3853  0.4013  0.0112
  177poe    c23 2119   6.368   2.127   2.107  0.0490 -0.4465  0.3082
  177poe     o2 2120   6.266   2.037   2.069  0.0526 -0.2239 -0.2358
  177poe    c23 2121   6.268   2.005   1.932  0.0269  0.1266 -0.3202
  177poe    c23 2122   6.134   1.936   1.900  0.0022  0.1499 -0.2660
  177poe     o2 2123   6.025   2.015   1.942 -0.2561  0.0857 -0.8117
  177poe    c31 2124   5.896   1.974   1.901 -0.3818 -0.7480  0.3710
  178poe    c31 2125   5.194   4.715   3.512  0.1104  0.1142  0.8215
  178poe     o2 2126   5.146   4.587   3.547  0.0749 -0.1107 -0.0092
  178poe    c23 2127   5.191   4.496   3.450 -0.3917  0.0842 -0.4165
  178poe    c23 2128   5.103   4.370   3.444 -0.7445  0.3163 -0.1700
  178poe     o2 2129   5.086   4.325   3.576 -0.2166  0.3069 -0.1004
  178poe    c23 2130   4.969   4.246   3.577 -0.2159  0.2944 -0.6589
  178poe    c23 2131   4.901   4.254   3.715  0.0823  0.0603 -0.4984
  178poe     o2 2132   4.903   4.391   3.745 -0.2737 -0.1360  0.4606
  178poe    c23 2133   4.900   4.411   3.885  0.0087 -0.5412  0.5263
  178poe    c23 2134   4.946   4.557   3.905 -0.5790 -0.2269 -0.3340
  178poe     o2 2135   5.057   4.589   3.823 -0.3786  0.4962  0.2128
  178poe    c31 2136   5.176   4.624   3.889 -0.3656 -0.2297  0.5805
  179poe    c31 2137   1.978   3.802   5.209  0.2099  0.0688  0.1075
  179poe     o2 2138   2.058   3.744   5.108  0.4857 -0.2077  0.4840
  179poe    c23 2139   2.064   3.603   5.108  0.3545 -0.2228 -0.5370
  179poe    c23 2140   2.044   3.557   4.963 -0.2099 -0.0279 -0.5215
  179poe     o2 2141   2.145   3.605   4.877 -0.0854  0.4233 -0.1318
  179poe    c23 2142   2.273   3.551   4.901 -0.1977  0.5225  0.7164
  179poe    c23 2143   2.377   3.630   4.820 -0.2759  0.1115  0.2107
  179poe     o2 2144   2.340   3.629   4.684 -0.2594  0.2745  0.2041
  179poe    c23 2145   2.438   3.679   4.595 -0.3849 -0.7910 -0.5557
  179poe    c23 2146   2.364   3.699   4.461 -0.5767 -0.3517 -0.3856
  179poe     o2 2147   2.236   3.751   4.486 -0.2869  0.0905  0.2290
  179poe    c31 2148   2.178   3.806   4.369 -0.3164 -0.0318  0.1863
  180poe    c31 2149   0.102   4.110   0.410 -0.2433  0.0621  0.1230
  180poe     o2 2150   0.123   4.057   0.539  0.1051 -0.0259  0.0303
  180poe    c23 2151   0.052   3.936   0.544  0.4686 -0.2406  0.0158
  180poe    c23 2152   0.027   3.904   0.693 -0.1609  0.5042  0.0748
  180poe     o2 2153   0.143   3.935   0.767 -0.1106  0.0633  0.1821
  180poe    c23 2154   0.088   3.991   0.884  0.0263 -0.1089  0.3301
  180poe    c23 2155   0.182   4.108   0.920 -0.2458  0.3113 -0.2971
  180poe     o2 2156   0.210   4.154   0.790 -0.3240 -0.1192 -0.4694
  180poe    c23 2157   0.308   4.255   0.794  0.0563 -0.4994 -0.0836
  180poe    c23 2158   0.327   4.295   0.647  0.5312  0.0131  0.1151
  180poe     o2 2159   0.364   4.176   0.582  0.1167 -0.0038 -0.0936
  180poe    c31 2160   0.448   4.203   0.471  0.3752  0.4639  0.2113
  181poe    c31 2161   5.151   5.143   6.656  0.2971  0.0126 -0.7035
  181poe     o2 2162   5.088   5.194   6.772  0.5970 -0.2578 -0.4201
  181poe    c23 2163   5.151   5.125   6.878 -0.0950 -0.1395  0.0725
  181poe    c23 2164   5.073   5.133   7.010  0.3873 -0.1406  0.3561
  181poe     o2 2165   5.045   5.271   7.016 -0.3843 -0.2844  0.0590
  181poe    c23 2166   4.956   5.287   7.124  0.2919  0.0286  0.5699
  181poe    c23 2167   4.891   5.426   7.113 -0.2685 -0.2714  0.0497
  181poe     o2 2168   4.814   5.434   6.995 -0.1041 -0.3167 -0.0622
  181poe    c23 2169   4.825   5.557   6.927  0.9010 -0.2266  0.2509
  181poe    c23 2170   4.803   5.520   6.780  0.3126  0.4348  0.1665
  181poe     o2 2171   4.913   5.451   6.724 -0.4096 -0.6481  0.0537
  181poe    c31 2172   4.928   5.462   6.585 -0.3179  0.0598  0.1168
  182poe    c31 2173   5.985   3.385   5.904 -0.4615 -0.1349 -0.2263
  182poe     o2 2174   6.049   3.511   5.905 -0.0549 -0.3310 -0.6075
  182poe    c23 2175   6.187   3.491   5.925 -0.1514  0.0531  0.5384
  182poe    c23 2176   6.245   3.594   6.023  0.1673 -0.1149  0.5264
  182poe     o2 2177   6.182   3.716   5.993  0.6546 -0.0838 -0.4022
  182poe    c23 2178   6.206   3.809   6.096  0.7815  0.5261 -0.9715
  182poe    c23 2179   6.113   3.930   6.080 -0.1055  0.0299  0.2793
  182poe     o2 2180   5.979   3.903   6.048  0.1294 -0.4733 -0.2881
  182poe    c23 2181   5.940   3.953   5.922  0.0554 -0.2206 -0.1644
  182poe    c23 2182   5.879   3.846   5.830 -0.0078  0.1023 -0.4991
  182poe     o2 2183   5.979   3.750   5.805 -0.3384 -0.4502  0.2812
  182poe    c31 2184   5.999   3.746   5.666 -0.0984 -0.2017  0.3084
  183poe    c31 2185   0.063   3.275   0.786 -0.2176 -0.2843 -0.9006
  183poe     o2 2186  -0.060   3.345   0.776 -0.3182 -0.3443 -0.0836
  183poe    c23 2187  -0.054   3.458   0.693  0.2871  0.0057  0.4292
  183poe    c23 2188  -0.202   3.498   0.685  0.3293  0.1531  0.3866
  183poe     o2 2189  -0.263   3.534   0.807 -0.1760  0.2056  0.1220
  183poe    c23 2190  -0.399   3.499   0.799 -0.1697  0.2071  0.0102
  183poe    c23 2191  -0.447   3.428   0.927  0.0909  0.5342  0.2917
  183poe     o2 2192  -0.359   3.320   0.947  0.2350  0.5393 -0.2995
  183poe    c23 2193  -0.387   3.257   1.069  0.1217  0.5637 -0.3127
  183poe    c23 2194  -0.293   3.136   1.084 -0.2323  0.2974 -0.2195
  183poe     o2 2195  -0.170   3.172   1.025 -0.0099  0.4463  0.3250
  183poe    c31 2196  -0.077   3.075   1.065  0.1562  0.4706  0.0067
  184poe    c31 2197   0.122   4.653   2.404  0.4379 -0.1895 -0.3367
  184poe     o2 2198   0.168   4.740   2.303 -0.5146  0.4566 -0.2304
  184poe    c23 2199   0.064   4.731   2.209 -0.3953  0.2450 -0.3443
  184poe    c23 2200   0.130   4.798   2.087 -0.5906  0.1058 -0.5269
  184poe     o2 2201   0.190   4.917   2.133  0.4909 -0.6104 -0.0326
  184poe    c23 2202   0.309   4.934   2.059  0.0213 -0.0995 -0.6829
  184poe    c23 2203   0.412   5.024   2.130 -0.3473 -0.0821 -0.1627
  184poe     o2 2204   0.406   4.986   2.266 -0.0551 -0.4176 -0.2408
  184poe    c23 2205   0.510   5.031   2.350 -0.5728  0.1691  0.0971
  184poe    c23 2206   0.451   5.006   2.490  0.0420 -0.0102  0.3285
  184poe     o2 2207   0.372   4.892   2.465  0.2656 -0.1154  0.0968
  184poe    c31 2208   0.313   4.862   2.589 -0.0747  0.3068  0.0418
  185poe    c31 2209   0.197   4.491   4.549 -0.1095 -0.0742 -0.1577
  185poe     o2 2210   0.298   4.475   4.646 -0.1885 -0.5279 -0.1458
  185poe    c23 2211   0.406   4.418   4.576 -0.2896 -0.2208 -0.5568
  185poe    c23 2212   0.508   4.380   4.685 -0.6110  0.2477 -0.0927
  185poe     o2 2213   0.518   4.489   4.775  0.0752  0.3484 -0.2848
  185poe    c23 2214   0.593   4.461   4.891 -0.9370 -0.3898  0.2117
  185poe    c23 2215   0.560   4.550   5.012  0.1414  0.2078  0.0775
  185poe     o2 2216   0.424   4.579   4.992 -0.0257 -0.4467  0.2394
  185poe    c23 2217   0.362   4.688   5.059 -0.3677 -0.3140 -0.2852
  185poe    c23 2218   0.220   4.703   5.003 -0.2809  0.3911 -0.3237
  185poe     o2 2219   0.219   4.696   4.862 -0.1441 -0.0844 -0.3037
  185poe    c31 2220   0.094   4.711   4.798 -0.1240  0.1621 -0.2862
  186poe    c31 2221   1.198   4.415   0.664  0.6676  0.0542 -0.6932
  186poe     o2 2222   1.116   4.318   0.727  0.4307  0.5059 -0.3014
  186poe    c23 2223   1.012   4.388   0.792 -0.2243 -0.1913 -0.5841
  186poe    c23 2224   0.907   4.289   0.846 -0.1022  0.1744  0.3317
  186poe     o2 2225   0.903   4.179   0.759  0.0053  0.4220  0.0110
  186poe    c23 2226   0.849   4.060   0.813  0.7087  0.2611  0.3754
  186poe    c23 2227   0.895   3.950   0.716  0.2899  0.6046 -0.2196
  186poe     o2 2228   1.030   3.974   0.686  0.4540 -0.3281 -0.2523
  186poe    c23 2229   1.127   3.871   0.695  0.2232 -0.4899  0.4412
  186poe    c23 2230   1.257   3.934   0.642 -0.1688  0.1335  0.1981
  186poe     o2 2231   1.264   4.073   0.664 -0.3348  0.1523  0.1294
  186poe    c31 2232   1.402   4.100   0.671 -0.1230 -0.7295 -0.5407
  187poe    c31 2233   1.172   4.068   1.009  0.5142  0.6019 -0.4698
  187poe     o2 2234   1.277   4.079   1.104  0.0457  0.0552  0.1141
  187poe    c23 2235   1.340   3.955   1.124  0.1595  0.1342  0.2388
  187poe    c23 2236   1.477   3.952   1.195  0.1935 -0.2122  0.1600
  187poe     o2 2237   1.468   4.045   1.300  0.1008  0.4661 -0.4475
  187poe    c23 2238   1.592   4.052   1.366 -0.1737 -0.3667  0.1591
  187poe    c23 2239   1.582   4.150   1.484 -0.0076  0.0396 -0.1641
  187poe     o2 2240   1.492   4.247   1.435 -0.0129 -0.0965 -0.4239
  187poe    c23 2241   1.497   4.365   1.511 -0.2420 -0.2268 -0.2073
  187poe    c23 2242   1.614   4.459   1.475  0.2575 -0.3407  1.0596
  187poe     o2 2243   1.622   4.587   1.534 -0.0417  0.1978 -0.0483
  187poe    c31 2244   1.547   4.682   1.462 -0.1444 -0.5693 -0.9765
  188poe    c31 2245   2.149   2.478   5.926 -0.3804  0.1238  0.6378
  188poe     o2 2246   2.283   2.433   5.934 -0.2487  0.2638 -0.6537
  188poe    c23 2247   2.264   2.296   5.964  0.3136  0.3328  0.0183
  188poe    c23 2248   2.388   2.250   6.042 -0.0230 -0.0316  0.3462
  188poe     o2 2249   2.505   2.296   5.977 -0.2040  0.1780  0.1679
  188poe    c23 2250   2.627   2.232   6.005  0.1319  0.6818 -0.1320
  188poe    c23 2251   2.715   2.296   5.896  0.0262  0.2886 -0.4489
  188poe     o2 2252   2.675   2.428   5.867 -0.3213  0.2708 -0.0595
  188poe    c23 2253   2.723   2.458   5.738  0.2598 -0.3754 -0.0040
  188poe    c23 2254   2.636   2.581   5.705  0.6140 -0.0136  0.3930
  188poe     o2 2255   2.506   2.554   5.751  0.5105  0.5602  0.4491
  188poe    c31 2256   2.402   2.618   5.680 -0.0912 -0.1693  0.6588
  189poe    c31 2257   4.038   6.132   2.129 -0.4961  0.0312  0.0692
  189poe     o2 2258   4.098   6.221   2.038  0.8353 -0.3264  0.5834
  189poe    c23 2259   4.141   6.137   1.933  0.5895 -0.1002  0.3011
  189poe    c23 2260   4.172   6.224   1.810 -0.5918 -0.0437  0.0291
  189poe     o2 2261   4.262   6.310   1.876 -0.2564 -0.2611 -0.1428
  189poe    c23 2262   4.318   6.411   1.794 -0.4720 -0.4033 -0.4680
  189poe    c23 2263   4.377   6.502   1.903 -0.2863 -0.6170 -0.3864
  189poe     o2 2264   4.282   6.511   2.007 -0.2572 -0.3670 -0.3810
  189poe    c23 2265   4.369   6.529   2.116 -0.3629  0.3836 -0.4130
  189poe    c23 2266   4.274   6.545   2.236  0.3234  0.3915  0.1421
  189poe     o2 2267   4.178   6.443   2.217  0.3315  0.3842  0.1406
  189poe    c31 2268   4.094   6.428   2.329  0.0787 -0.4107 -0.1425
  190poe    c31 2269   0.469   0.242   4.637  0.1377 -0.3414  0.3287
  190poe     o2 2270   0.475   0.284   4.772  0.2249 -0.7158  0.4411
  190poe    c23 2271   0.596   0.262   4.840  0.4961  0.1029  0.2242
  190poe    c23 2272   0.589   0.339   4.973  0.0724  0.1884  0.1526
  190poe     o2 2273   0.451   0.334   5.001  0.0640  0.0325  0.0830
  190poe    c23 2274   0.406   0.361   5.132  0.1853 -0.4590  0.2254
  190poe    c23 2275   0.256   0.330   5.145 -0.0400  0.5402  0.0660
  190poe     o2 2276   0.196   0.383   5.029  0.2328  0.2758 -0.1978
  190poe    c23 2277   0.082   0.311   4.989  0.5685 -0.1663 -0.3730
  190poe    c23 2278   0.048   0.356   4.845 -0.3354 -0.0348 -0.1233
  190poe     o2 2279   0.163   0.351   4.764 -0.0677 -0.2728  0.2667
  190poe    c31 2280   0.125   0.370   4.629  0.3491 -0.8486  0.0661
  191poe    c31 2281   4.286   5.514   0.050 -0.2725 -0.5632  0.6157
  191poe     o2 2282   4.179   5.434   0.006 -0.5011  0.2228 -0.2859
  191poe    c23 2283   4.058   5.490   0.053 -0.9506 -0.7092 -0.2950
  191poe    c23 2284   3.945   5.395   0.009 -1.1665 -0.5527 -0.0765
  191poe     o2 2285   3.991   5.263   0.026  0.2640 -0.1182 -0.4253
  191poe    c23 2286   3.901   5.163  -0.015 -0.4275  0.1747  0.3423
  191poe    c23 2287   3.987   5.035  -0.023  0.0724  0.5505 -0.3823
  191poe     o2 2288   4.093   5.086  -0.101  0.7179 -0.0116  0.1235
  191poe    c23 2289   4.184   4.985  -0.140  0.2748 -0.4412  0.1866
  191poe    c23 2290   4.311   5.058  -0.188  0.3674 -0.6733  0.0766
  191poe     o2 2291   4.328   5.164  -0.097  0.7121 -0.6289 -0.0374
  191poe    c31 2292   4.458   5.219  -0.104  0.1566  0.7470  0.1573
  192poe    c31 2293   3.823   6.494   5.012 -0.0815  0.1280  0.5225
  192poe     o2 2294   3.910   6.415   5.089  0.4120  0.3817  0.2325
  192poe    c23 2295   3.829   6.319   5.155  0.2986 -0.3306 -0.9155
  192poe    c23 2296   3.908   6.222   5.245 -0.3960 -0.0409  0.0170
  192poe     o2 2297   3.987   6.304   5.328 -0.2169  0.1730 -0.3630
  192poe    c23 2298   4.082   6.232   5.404 -0.3291  0.2877 -0.1146
  192poe    c23 2299   4.180   6.337   5.460  0.1516  0.0070 -0.4230
  192poe     o2 2300   4.205   6.414   5.345  0.0023  0.1853 -0.3365
  192poe    c23 2301   4.264   6.539   5.370  1.0260 -0.1534 -0.9944
  192poe    c23 2302   4.243   6.621   5.241 -0.0931  0.3054 -0.5331
  192poe     o2 2303   4.104   6.612   5.217 -0.2531  0.4334  0.3151
  192poe    c31 2304   4.060   6.741   5.183  0.1646  0.5695  0.2949
  193poe    c31 2305   4.325   5.250   5.839 -0.0743  0.3750  0.2723
  193poe     o2 2306   4.333   5.119   5.891  0.4825  0.4141  0.2879
  193poe    c23 2307   4.315   5.120   6.031 -0.0303  0.1682  0.2278
  193poe    c23 2308   4.359   4.982   6.084  0.1290  0.1525  0.0580
  193poe     o2 2309   4.307   4.889   5.993 -0.0626  0.5979 -0.2920
  193poe    c23 2310   4.358   4.757   5.996 -0.5103  0.4264 -0.1383
  193poe    c23 2311   4.292   4.684   5.878 -0.3001  0.3691 -0.2208
  193poe     o2 2312   4.285   4.771   5.768  0.0666  0.5347 -0.1149
  193poe    c23 2313   4.200   4.731   5.663 -0.2262  0.2203  0.2444
  193poe    c23 2314   4.211   4.855   5.572 -0.5488  0.1184  0.0617
  193poe     o2 2315   4.190   4.970   5.651 -0.2286  0.1328  0.1274
  193poe    c31 2316   4.168   5.080   5.567 -0.4734 -0.4137 -0.5333
  194poe    c31 2317   0.243   3.633   0.025  0.7661 -0.5867 -0.6669
  194poe     o2 2318   0.236   3.495   0.051 -0.1400 -0.5249 -0.5553
  194poe    c23 2319   0.364   3.440   0.070  0.0909  0.1252 -0.2029
  194poe    c23 2320   0.319   3.294   0.051  0.3239 -0.0857  0.8221
  194poe     o2 2321   0.230   3.265   0.157 -0.1261 -0.2458  0.4025
  194poe    c23 2322   0.168   3.140   0.135  0.1823 -0.2378 -0.5525
  194poe    c23 2323   0.046   3.151   0.228 -0.0037  0.4717 -0.8699
  194poe     o2 2324  -0.018   3.275   0.208 -0.0915  0.6285  0.3035
  194poe    c23 2325  -0.084   3.317   0.325 -0.5670 -0.3794  0.4049
  194poe    c23 2326  -0.114   3.464   0.291 -0.0253 -0.3844 -0.1024
  194poe     o2 2327   0.008   3.520   0.247 -0.2372 -0.0133 -0.2206
  194poe    c31 2328  -0.010   3.660   0.240 -0.1383  0.0341  0.4346
  195poe    c31 2329   3.829   1.694   0.478  0.2048 -0.4653 -0.2815
  195poe     o2 2330   3.697   1.738   0.455  0.3698  0.1694 -0.0202
  195poe    c23 2331   3.619   1.635   0.400 -0.5419  0.6311  0.3820
  195poe    c23 2332   3.500   1.700   0.326 -0.0494  0.3756 -0.6495
  195poe     o2 2333   3.433   1.783   0.418  0.0203 -0.3392  0.0612
  195poe    c23 2334   3.336   1.858   0.348  0.0697 -0.0146  0.3408
  195poe    c23 2335   3.227   1.897   0.450 -0.0988  0.5303 -0.0453
  195poe     o2 2336   3.304   1.951   0.555 -0.3942 -0.2270  0.5716
  195poe    c23 2337   3.328   2.089   0.566  0.0699 -0.3105  0.6009
  195poe    c23 2338   3.453   2.093   0.656  0.4289  0.2714  0.0934
  195poe     o2 2339   3.546   2.001   0.604  0.3522  0.2900 -0.0746
  195poe    c31 2340   3.674   2.021   0.659  0.3835  0.1432 -0.0950
  196poe    c31 2341   1.556   5.566   1.141  0.1157  0.2377  0.2317
  196poe     o2 2342   1.515   5.655   1.040  0.5309 -0.2689 -0.3931
  196poe    c23 2343   1.625   5.742   1.026  0.6806 -0.5341 -0.9201
  196poe    c23 2344   1.602   5.849   0.918  0.4688  0.2439 -0.1231
  196poe     o2 2345   1.589   5.800   0.786 -0.2126 -0.3862  0.1737
  196poe    c23 2346   1.471   5.853   0.731 -0.0697  0.0532  0.2917
  196poe    c23 2347   1.378   5.742   0.678  0.4998 -0.3758  0.1828
  196poe     o2 2348   1.339   5.645   0.773  0.0329  0.2462  0.6442
  196poe    c23 2349   1.213   5.590   0.743  0.1210  0.2738  0.2114
  196poe    c23 2350   1.223   5.450   0.806 -0.1868  0.1902  0.0786
  196poe     o2 2351   1.283   5.454   0.934 -0.5552  0.1025  0.2581
  196poe    c31 2352   1.258   5.343   1.017 -0.4373 -0.2017 -0.1093
  197poe    c31 2353   2.254   5.688   0.758  0.1595  0.2898 -0.3291
  197poe     o2 2354   2.197   5.632   0.642 -0.1115 -0.0066 -0.0551
  197poe    c23 2355   2.285   5.542   0.579  0.0499  0.1337 -0.0294
  197poe    c23 2356   2.206   5.429   0.511 -0.2721  0.2672  0.1226
  197poe     o2 2357   2.091   5.494   0.463 -0.6458 -0.0121  0.6254
  197poe    c23 2358   2.015   5.420   0.370 -0.4643 -0.1505  0.5869
  197poe    c23 2359   1.900   5.512   0.325  0.1301  0.3537  0.0905
  197poe     o2 2360   1.878   5.608   0.426  0.1639  0.4640 -0.0064
  197poe    c23 2361   1.816   5.731   0.401 -0.0487  0.3265 -0.1559
  197poe    c23 2362   1.814   5.811   0.532 -0.3055  0.0448  0.0134
  197poe     o2 2363   1.943   5.804   0.590 -0.4316 -0.0188  0.2875
  197poe    c31 2364   1.927   5.881   0.708 -0.5131 -0.3785  0.5109
  198poe    c31 2365   3.437   1.878   5.704  0.8193  0.3807  0.4956
  198poe     o2 2366   3.484   1.932   5.583  0.0688 -0.8127 -0.3638
  198poe    c23 2367   3.621   1.965   5.595 -0.0207 -0.6380  0.2484
  198poe    c23 2368   3.659   2.000   5.450  0.1072  0.5575  0.5639
  198poe     o2 2369   3.565   2.083   5.384  0.1550  0.0198 -0.2010
  198poe    c23 2370   3.599   2.121   5.253  0.9912 -0.1520 -0.0425
  198poe    c23 2371   3.520   2.247   5.213  0.4855 -0.4431  0.0216
  198poe     o2 2372   3.384   2.212   5.225  0.1516  0.7706 -0.0757
  198poe    c23 2373   3.297   2.288   5.144 -0.1559  0.0923 -0.3908
  198poe    c23 2374   3.151   2.241   5.138 -0.1407 -0.0445  0.2168
  198poe     o2 2375   3.147   2.117   5.071 -0.0788  0.0548  0.0282
  198poe    c31 2376   3.014   2.075   5.052 -0.0319  0.1555 -0.5558
  199poe    c31 2377   5.852   0.461   4.944 -0.3177 -0.0315  0.3908
  199poe     o2 2378   5.770   0.567   4.900 -0.3053 -0.0511  0.3199
  199poe    c23 2379   5.719   0.552   4.770 -0.3146 -0.0579  0.3243
  199poe    c23 2380   5.677   0.688   4.711 -0.1999 -0.0230  0.3215
  199poe     o2 2381   5.589   0.745   4.806 -0.4766  0.1773 -0.0491
  199poe    c23 2382   5.587   0.885   4.810  0.1725  0.1875  0.0270
  199poe    c23 2383   5.712   0.957   4.864  0.2468 -0.0209  0.1314
  199poe     o2 2384   5.753   0.878   4.974  0.7167 -0.5987 -0.4551
  199poe    c23 2385   5.881   0.913   5.020  0.3804  0.3938 -0.2424
  199poe    c23 2386   5.882   0.852   5.161 -0.4255  0.4104 -0.2251
  199poe     o2 2387   5.828   0.722   5.155 -0.3908  0.3861 -0.0256
  199poe    c31 2388   5.854   0.640   5.267 -0.4059  0.3789 -0.0274
  200poe    c31 2389   5.349   5.056   5.654 -0.5428 -0.0518  0.7528
  200poe     o2 2390   5.464   5.129   5.691 -0.5626  0.4184 -0.0826
  200poe    c23 2391   5.556   5.043   5.755 -0.2331  0.6088 -0.3016
  200poe    c23 2392   5.664   5.131   5.821 -0.0311 -0.2300  0.4914
  200poe     o2 2393   5.722   5.230   5.740 -0.4253 -0.4290 -0.0457
  200poe    c23 2394   5.804   5.182   5.636 -0.4090 -0.0258 -0.2204
  200poe    c23 2395   5.774   5.254   5.503 -0.1978 -0.0753 -0.2943
  200poe     o2 2396   5.634   5.254   5.494 -0.2004 -0.3580 -0.2705
  200poe    c23 2397   5.594   5.325   5.379  0.1118  0.4599  0.1167
  200poe    c23 2398   5.440   5.336   5.370  0.0993  0.1452 -0.0532
  200poe     o2 2399   5.388   5.353   5.500 -0.1358 -0.0443 -0.1216
  200poe    c31 2400   5.256   5.400   5.494 -0.2997 -0.3699  0.7819
  201poe    c31 2401   2.670   1.837   6.627 -0.4545  0.0860  0.3906
  201poe     o2 2402   2.698   1.966   6.579  0.2361 -0.3314 -0.3698
  201poe    c23 2403   2.611   1.981   6.469  0.1837 -0.0635 -0.2942
  201poe    c23 2404   2.603   2.134   6.453  0.2942 -0.0423 -0.1486
  201poe     o2 2405   2.729   2.195   6.470  0.2307 -0.0906  0.5342
  201poe    c23 2406   2.735   2.336   6.462 -0.4882 -0.0699  0.2793
  201poe    c23 2407   2.860   2.380   6.541 -0.6553  0.5424  0.2034
  201poe     o2 2408   2.887   2.280   6.636 -0.1420 -0.3129 -0.8208
  201poe    c23 2409   2.994   2.290   6.728 -0.5042  0.3720 -0.4670
  201poe    c23 2410   3.050   2.148   6.749 -0.2843  0.4063 -0.8164
  201poe     o2 2411   2.933   2.068   6.756 -0.0697  0.1518 -0.1341
  201poe    c31 2412   2.934   1.942   6.820 -0.2821 -0.0064 -0.4453
  202poe    c31 2413   1.031   2.559   3.364 -0.1248 -0.3726 -0.5700
  202poe     o2 2414   0.891   2.537   3.365 -0.1558 -0.1614 -0.1856
  202poe    c23 2415   0.862   2.400   3.349 -0.2035 -0.2033  0.2549
  202poe    c23 2416   0.731   2.371   3.427 -0.7299 -0.1047 -0.5810
  202poe     o2 2417   0.627   2.451   3.377 -0.3979  0.3783 -0.5128
  202poe    c23 2418   0.527   2.469   3.475 -0.1621 -0.1048 -0.1814
  202poe    c23 2419   0.445   2.588   3.422  0.1624  0.3639  0.3749
  202poe     o2 2420   0.544   2.684   3.390  0.3134  0.1440  0.1787
  202poe    c23 2421   0.512   2.766   3.279  0.0856  0.2010  0.2852
  202poe    c23 2422   0.597   2.721   3.159  0.0274 -0.6368  0.5522
  202poe     o2 2423   0.734   2.694   3.173  0.1856 -0.0137  0.2403
  202poe    c31 2424   0.796   2.677   3.047 -0.2156 -0.2292  0.0706
  203poe    c31 2425   1.142   0.099   3.114 -0.4432 -0.1082  0.1396
  203poe     o2 2426   1.192  -0.015   3.180  0.6309  0.5023  0.4104
  203poe    c23 2427   1.293  -0.075   3.104  0.1359  0.0351  0.1124
  203poe    c23 2428   1.398  -0.133   3.200  0.2573  0.1551  0.0539
  203poe     o2 2429   1.323  -0.196   3.302 -0.1486  0.5519  0.0049
  203poe    c23 2430   1.402  -0.244   3.409 -0.2262 -0.0090 -0.1834
  203poe    c23 2431   1.289  -0.309   3.491 -0.0925  0.5502  0.4562
  203poe     o2 2432   1.183  -0.218   3.508 -0.1061  0.6980 -0.3695
  203poe    c23 2433   1.193  -0.120   3.608  0.6334  0.0700  0.1834
  203poe    c23 2434   1.081  -0.020   3.576  0.5494 -0.0954 -0.0401
  203poe     o2 2435   1.091   0.014   3.440  0.4798  0.2790  0.0453
  203poe    c31 2436   1.021   0.134   3.417  0.3636  0.0262 -0.9673
  204poe    c31 2437   3.990   0.584   6.408 -0.4447  0.2057  0.0245
  204poe     o2 2438   3.947   0.716   6.431 -0.0388  0.3452 -0.0103
  204poe    c23 2439   3.971   0.794   6.316  0.1093  0.5173  0.1357
  204poe    c23 2440   3.961   0.944   6.346  0.2632  0.4784  0.3905
  204poe     o2 2441   3.845   0.961   6.424 -0.4341 -0.0545 -0.5127
  204poe    c23 2442   3.853   1.093   6.473 -0.1760 -0.4813  0.6351
  204poe    c23 2443   3.770   1.085   6.602 -0.0492  0.2079  0.7655
  204poe     o2 2444   3.814   0.963   6.658 -0.4173 -0.4661 -0.3909
  204poe    c23 2445   3.752   0.940   6.783 -0.2422 -0.5792 -0.3245
  204poe    c23 2446   3.816   0.805   6.821  0.1668 -0.3793 -0.3005
  204poe     o2 2447   3.832   0.731   6.703 -0.2747 -0.1296 -0.5201
  204poe    c31 2448   3.829   0.593   6.731 -0.3934  0.0392  0.3234
  205poe    c31 2449   3.990   2.022   5.139  0.4430  0.4625  0.3515
  205poe     o2 2450   4.009   2.082   5.013  0.5641  0.3797  0.3314
  205poe    c23 2451   3.997   2.221   5.036 -0.0361  0.3018  0.4968
  205poe    c23 2452   4.027   2.306   4.911  0.1587 -0.0887  0.2738
  205poe     o2 2453   4.143   2.247   4.856 -0.1436 -0.4638  0.0369
  205poe    c23 2454   4.138   2.287   4.721 -0.3980 -0.2670  0.1033
  205poe    c23 2455   4.179   2.159   4.646  0.1389  0.1190 -0.2699
  205poe     o2 2456   4.110   2.049   4.701 -0.2359  0.2956 -0.3812
  205poe    c23 2457   4.149   1.925   4.647  0.1875  0.2716 -0.0247
  205poe    c23 2458   4.060   1.819   4.716 -0.2653  0.3350 -0.5022
  205poe     o2 2459   4.074   1.849   4.853  0.0990 -0.5460 -0.3389
  205poe    c31 2460   3.998   1.761   4.932  0.3037 -0.2230  0.2194
  206poe    c31 2461   2.432   1.895   0.630  0.3733  0.3002 -0.4983
  206poe     o2 2462   2.543   1.972   0.671  0.1904  0.1592  0.2645
  206poe    c23 2463   2.663   1.913   0.629  0.2659  0.8294 -0.4838
  206poe    c23 2464   2.755   1.982   0.731  0.2176  0.2852 -0.0666
  206poe     o2 2465   2.731   2.121   0.719 -0.1693  0.2218 -0.0342
  206poe    c23 2466   2.782   2.185   0.833  0.5583  0.5574 -0.5435
  206poe    c23 2467   2.673   2.285   0.876 -0.0620 -0.4259  0.2073
  206poe     o2 2468   2.548   2.220   0.887 -0.0849 -0.3297  0.5481
  206poe    c23 2469   2.431   2.291   0.920  0.1000  0.1016  0.2802
  206poe    c23 2470   2.327   2.207   0.844 -0.0197  0.7776 -0.3212
  206poe     o2 2471   2.367   2.182   0.711 -0.2182 -0.1998 -0.2079
  206poe    c31 2472   2.262   2.210   0.621 -0.4200  0.3209  0.1875
  207poe    c31 2473   4.595   6.137   3.830  0.2349 -0.2929 -0.3047
  207poe     o2 2474   4.493   6.162   3.736 -0.0172 -0.4245 -0.0711
  207poe    c23 2475   4.560   6.191   3.615  0.4815 -0.6927  0.1367
  207poe    c23 2476   4.476   6.272   3.513  0.2423 -0.7478  0.2894
  207poe     o2 2477   4.363   6.189   3.501 -0.2178 -0.0955  0.1300
  207poe    c23 2478   4.266   6.251   3.419 -0.6260 -0.6087  0.2206
  207poe    c23 2479   4.142   6.159   3.429 -0.8015 -0.3818  0.1558
  207poe     o2 2480   4.117   6.132   3.565  0.3685  0.4912  0.5675
  207poe    c23 2481   4.054   6.008   3.588  0.7346  0.1889 -0.0527
  207poe    c23 2482   4.091   5.969   3.732  0.0974 -0.5595 -0.0818
  207poe     o2 2483   4.227   6.003   3.749 -0.0543 -0.1181  0.2668
  207poe    c31 2484   4.275   5.980   3.880  0.5410  0.0541  0.0815
  208poe    c31 2485   4.421   1.603   2.195 -0.1555 -0.0474  0.0897
  208poe     o2 2486   4.343   1.513   2.119 -0.2448 -0.1610  0.3145
  208poe    c23 2487   4.248   1.591   2.051 -0.4748 -0.3484  0.4194
  208poe    c23 2488   4.178   1.495   1.953  0.2048 -0.4022 -0.0188
  208poe     o2 2489   4.167   1.372   2.021  0.0014 -0.4969 -0.2215
  208poe    c23 2490   4.159   1.273   1.921 -0.4333 -0.6502 -0.0389
  208poe    c23 2491   4.209   1.138   1.976  0.3527 -0.3410  0.0277
  208poe     o2 2492   4.331   1.168   2.040  0.1549  0.2499  0.1348
  208poe    c23 2493   4.413   1.056   2.065 -0.0218 -0.0592 -0.6294
  208poe    c23 2494   4.519   1.141   2.137 -0.1730 -0.8852  0.6126
  208poe     o2 2495   4.451   1.225   2.228 -0.3710  0.1238 -0.4411
  208poe    c31 2496   4.528   1.284   2.329 -0.2180 -0.0486 -0.4564
  209poe    c31 2497   0.410   5.644   3.919 -0.2743 -0.0132 -0.0296
  209poe     o2 2498   0.273   5.613   3.903 -0.1219 -0.5515 -0.3023
  209poe    c23 2499   0.179   5.701   3.961 -0.0942 -0.6338 -0.1304
  209poe    c23 2500   0.038   5.645   3.931 -0.2100 -0.3449 -0.1252
  209poe     o2 2501   0.037   5.623   3.792  0.1958 -0.4526 -0.1124
  209poe    c23 2502  -0.081   5.562   3.746 -0.2789  0.0889  0.3852
  209poe    c23 2503  -0.055   5.411   3.754 -0.1672  0.1125  0.4858
  209poe     o2 2504   0.078   5.392   3.709 -0.2422 -0.0022  0.3095
  209poe    c23 2505   0.133   5.269   3.752  0.1947  0.1143  0.0903
  209poe    c23 2506   0.270   5.274   3.683  0.1716  0.3937  0.0630
  209poe     o2 2507   0.340   5.394   3.706  0.4788  0.2435 -0.0865
  209poe    c31 2508   0.469   5.406   3.650  0.8804 -0.2677  0.7274
  210poe    c31 2509   2.992   5.794   5.175 -0.0205  0.5318 -0.3131
  210poe     o2 2510   2.927   5.917   5.151 -0.2028  0.4271 -0.3607
  210poe    c23 2511   2.917   5.991   5.271 -0.3919  0.4647 -0.3997
  210poe    c23 2512   2.892   6.142   5.254 -0.0244  0.6202  0.4210
  210poe     o2 2513   2.802   6.144   5.146  0.5204  0.0382 -0.0504
  210poe    c23 2514   2.741   6.262   5.099  0.3938  0.0288  0.0913
  210poe    c23 2515   2.688   6.216   4.962 -0.0318 -0.3455  0.3780
  210poe     o2 2516   2.779   6.126   4.902  0.0774 -0.0376  0.0775
  210poe    c23 2517   2.732   6.053   4.790 -0.1633  0.3290 -0.0606
  210poe    c23 2518   2.843   5.954   4.751 -0.2541  0.1534  0.1260
  210poe     o2 2519   2.896   5.895   4.868  0.2526  0.0603 -0.1481
  210poe    c31 2520   2.981   5.791   4.826 -0.0653 -0.2351 -0.0746
  211poe    c31 2521   2.411   0.460   6.430 -0.6770  0.0064  0.0046
  211poe     o2 2522   2.321   0.471   6.322 -0.4244 -0.2003 -0.2311
  211poe    c23 2523   2.219   0.373   6.328 -0.4768 -0.1180  0.2659
  211poe    c23 2524   2.173   0.347   6.183  0.9868  0.4987 -0.3269
  211poe     o2 2525   2.179   0.479   6.132  0.1046  0.7126  0.1059
  211poe    c23 2526   2.106   0.514   6.017 -0.4361 -0.4880  0.0675
  211poe    c23 2527   2.127   0.665   6.003  0.6959 -0.6750 -0.3444
  211poe     o2 2528   2.254   0.696   6.057  0.2113  0.4913  0.1494
  211poe    c23 2529   2.296   0.827   6.023  0.7079  0.2546 -0.1565
  211poe    c23 2530   2.437   0.848   6.079  0.6491 -0.2321  0.1845
  211poe     o2 2531   2.442   0.777   6.201 -0.2687  0.0302  0.3784
  211poe    c31 2532   2.549   0.817   6.282  0.3303  0.3021 -0.5350
  212poe    c31 2533   0.898   0.683   3.233 -0.6584 -0.4908  0.2472
  212poe     o2 2534   0.981   0.664   3.345 -0.4853 -0.1560  0.1775
  212poe    c23 2535   1.059   0.551   3.313  0.3940  0.6148 -0.4719
  212poe    c23 2536   1.155   0.521   3.430  0.2839  0.7773 -0.3398
  212poe     o2 2537   1.099   0.500   3.558  0.4689  0.7566 -0.2626
  212poe    c23 2538   1.197   0.456   3.649  0.3132  0.0068 -0.4450
  212poe    c23 2539   1.133   0.424   3.785  0.1254  0.0575 -0.5212
  212poe     o2 2540   1.040   0.526   3.814 -0.0554 -0.3046  0.2164
  212poe    c23 2541   1.007   0.529   3.951  0.2848 -0.2280  0.2995
  212poe    c23 2542   0.907   0.632   4.007 -0.0281 -0.3172 -0.0852
  212poe     o2 2543   0.782   0.618   3.943 -0.0414  0.1996 -0.1732
  212poe    c31 2544   0.686   0.659   4.039  0.1758  0.3092 -0.0008
  213poe    c31 2545   3.083   0.201   2.874 -0.2579 -0.6169  0.1895
  213poe     o2 2546   3.012   0.084   2.843 -0.1260 -0.6199 -0.1082
  213poe    c23 2547   3.042  -0.020   2.933 -0.1296 -0.0926  0.5013
  213poe    c23 2548   2.976  -0.154   2.897  0.1494 -0.0964  0.0011
  213poe     o2 2549   3.000  -0.178   2.760 -0.1618 -0.2637 -0.0259
  213poe    c23 2550   2.935  -0.294   2.712 -0.3107  0.0252 -0.5317
  213poe    c23 2551   2.949  -0.277   2.560 -0.3687  0.2431 -0.5127
  213poe     o2 2552   2.944  -0.138   2.537  0.2686  0.4711  0.6696
  213poe    c23 2553   2.869  -0.100   2.424  0.5109  0.3883  0.4791
  213poe    c23 2554   2.891   0.049   2.395  0.7761  0.1958 -0.3395
  213poe     o2 2555   2.912   0.110   2.520  0.5288  0.0797 -0.2418
  213poe    c31 2556   2.898   0.250   2.524  0.5296  0.0616  0.7656
  214poe    c31 2557   1.667   1.155   1.318 -0.0088  0.0832  0.0708
  214poe     o2 2558   1.732   1.149   1.443  0.2869 -0.0536 -0.0877
  214poe    c23 2559   1.869   1.127   1.419  0.3725  0.3338  0.0463
  214poe    c23 2560   1.914   1.031   1.530  0.0531  0.4750  0.3002
  214poe     o2 2561   1.865   1.059   1.659  0.2510  0.5430  0.3619
  214poe    c23 2562   1.831   0.937   1.722 -0.1262  0.3242 -0.2522
  214poe    c23 2563   1.720   0.989   1.816 -0.1472 -0.1409 -0.0168
  214poe     o2 2564   1.613   1.027   1.732 -0.3897 -0.8669 -0.0406
  214poe    c23 2565   1.491   1.050   1.799 -0.2553 -0.6361  0.1304
  214poe    c23 2566   1.418   1.117   1.681  0.1766 -0.0086  0.2189
  214poe     o2 2567   1.505   1.219   1.638  0.4337 -0.3665 -0.1133
  214poe    c31 2568   1.429   1.309   1.560 -0.1889 -0.2978  0.5644
  215poe    c31 2569   1.639   1.833   0.983 -0.2072  0.5454  0.2923
  215poe     o2 2570   1.567   1.811   0.864  0.1478 -0.1990  0.2106
  215poe    c23 2571   1.494   1.926   0.828  0.2276  0.0006  0.6823
  215poe    c23 2572   1.418   1.899   0.697  0.1208 -0.0594  0.7562
  215poe     o2 2573   1.375   1.766   0.708  0.3575 -0.1662  0.3990
  215poe    c23 2574   1.315   1.723   0.588  0.3161  0.0008  0.3596
  215poe    c23 2575   1.310   1.569   0.602 -0.4365  0.0523  0.6785
  215poe     o2 2576   1.440   1.526   0.635  0.0937  0.3609 -0.9457
  215poe    c23 2577   1.520   1.493   0.524  0.2949 -0.2482 -0.6212
  215poe    c23 2578   1.660   1.526   0.580 -0.0143  0.6295 -0.3572
  215poe     o2 2579   1.664   1.653   0.642  0.1345  0.3812  0.1439
  215poe    c31 2580   1.793   1.694   0.682  0.2520  0.6506 -0.4931
  216poe    c31 2581   3.575   4.104   4.118  0.3494  0.0710  0.2438
  216poe     o2 2582   3.598   3.999   4.027  0.2536  0.4506 -0.2252
  216poe    c23 2583   3.520   4.006   3.910 -0.1970  0.0073  0.0384
  216poe    c23 2584   3.547   3.875   3.834 -0.2723 -0.2624  0.4764
  216poe     o2 2585   3.687   3.860   3.818 -0.2986 -1.0274  0.9019
  216poe    c23 2586   3.720   3.764   3.720 -0.1869 -0.1238  0.0359
  216poe    c23 2587   3.873   3.780   3.725 -0.1547 -0.4108 -0.0212
  216poe     o2 2588   3.931   3.783   3.853  0.1727 -0.0212 -0.1790
  216poe    c23 2589   3.925   3.671   3.938 -0.1017 -0.1644 -0.3868
  216poe    c23 2590   3.922   3.722   4.083 -0.4833 -0.2914 -0.3489
  216poe     o2 2591   3.818   3.814   4.105  0.1904  0.5529 -0.6507
  216poe    c31 2592   3.790   3.816   4.244  0.4678 -0.3612 -0.5734
  217poe    c31 2593   2.081   2.160   4.866  0.1609 -0.2314  0.0680
  217poe     o2 2594   2.132   2.290   4.891  0.0750 -0.2174  0.1741
  217poe    c23 2595   2.263   2.286   4.837  0.1902  0.4726  0.3999
  217poe    c23 2596   2.325   2.422   4.873  0.0571  0.7645 -0.4355
  217poe     o2 2597   2.230   2.524   4.854 -0.5947  0.2044 -0.1959
  217poe    c23 2598   2.269   2.652   4.897  0.2481  0.0531 -0.5004
  217poe    c23 2599   2.134   2.720   4.867 -0.0418 -0.3761 -0.1877
  217poe     o2 2600   2.043   2.649   4.947  0.1442  0.0345  0.4001
  217poe    c23 2601   1.911   2.692   4.922  0.0325 -0.4298  0.1684
  217poe    c23 2602   1.818   2.584   4.981 -0.3882 -0.1205  0.0736
  217poe     o2 2603   1.860   2.461   4.927 -0.2806  0.0974 -0.3439
  217poe    c31 2604   1.792   2.350   4.982  0.0592  0.0696  0.0204
  218poe    c31 2605   3.563   6.318   5.456 -0.1245  0.5248  0.3108
  218poe     o2 2606   3.459   6.226   5.477 -0.0248  0.4496  0.4731
  218poe    c23 2607   3.431   6.158   5.357 -0.2074  0.0881  0.7181
  218poe    c23 2608   3.352   6.033   5.401  0.3610 -0.5594 -0.0638
  218poe     o2 2609   3.410   5.990   5.522 -0.0192  0.2819  0.4285
  218poe    c23 2610   3.345   5.894   5.602  0.3000 -0.2329  0.0777
  218poe    c23 2611   3.448   5.880   5.715 -0.5286  0.1402  0.8915
  218poe     o2 2612   3.501   6.007   5.744 -0.3180  0.1669  0.3836
  218poe    c23 2613   3.613   5.997   5.829 -0.2442  0.3324  0.3064
  218poe    c23 2614   3.644   6.144   5.867 -0.1883  0.3290  0.2757
  218poe     o2 2615   3.680   6.209   5.748 -0.1647  0.3365  0.2871
  218poe    c31 2616   3.732   6.337   5.777  0.2916 -0.0832  1.3581
  219poe    c31 2617   2.664   0.796   4.772 -1.0217  0.3174  0.2603
  219poe     o2 2618   2.530   0.810   4.731 -0.9463 -0.7113 -0.3617
  219poe    c23 2619   2.456   0.710   4.797 -0.0720 -0.9829  0.2269
  219poe    c23 2620   2.314   0.727   4.741  0.2050  0.0129 -0.1928
  219poe     o2 2621   2.272   0.861   4.756 -0.7635 -0.2834 -0.2030
  219poe    c23 2622   2.198   0.924   4.654  0.7540  0.4139 -0.9038
  219poe    c23 2623   2.199   1.078   4.663 -0.7178  0.4060 -0.1933
  219poe     o2 2624   2.339   1.098   4.672 -0.7850  0.6157  0.4340
  219poe    c23 2625   2.380   1.229   4.642 -0.3522  0.4604  0.3375
  219poe    c23 2626   2.532   1.235   4.618 -0.3117  0.1665  0.5144
  219poe     o2 2627   2.595   1.136   4.696  0.2549  0.1436  0.0282
  219poe    c31 2628   2.731   1.129   4.660  0.2309 -0.5696  0.0778
  220poe    c31 2629   5.463   3.866   3.611  0.2964  0.3069 -0.1320
  220poe     o2 2630   5.575   3.916   3.540  0.0631  0.5256 -0.3459
  220poe    c23 2631   5.596   3.839   3.424  0.1438 -0.2409  0.1686
  220poe    c23 2632   5.644   3.942   3.320 -0.3640  0.1084  0.2803
  220poe     o2 2633   5.744   4.019   3.384 -0.0239 -0.0616 -0.0457
  220poe    c23 2634   5.870   4.018   3.321  0.1018  0.6603  0.1895
  220poe    c23 2635   5.938   4.152   3.355  0.3531  0.4563  0.5043
  220poe     o2 2636   5.919   4.181   3.492 -0.1667 -0.0660  0.5461
  220poe    c23 2637   5.842   4.297   3.517  0.4218  0.4837 -0.1453
  220poe    c23 2638   5.728   4.294   3.621  0.1930  0.5724 -0.3931
  220poe     o2 2639   5.640   4.190   3.588  0.2904  0.4103 -0.1452
  220poe    c31 2640   5.508   4.222   3.627  0.3659  0.7688 -0.1825
  221poe    c31 2641   0.989   0.726   1.581  0.2601 -0.5593  0.1051
  221poe     o2 2642   1.074   0.669   1.678  0.0359 -0.6572  0.2455
  221poe    c23 2643   1.171   0.755   1.732  0.6724 -0.8224 -0.6095
  221poe    c23 2644   1.254   0.693   1.846  0.0670  0.2980  0.4661
  221poe     o2 2645   1.339   0.591   1.799 -0.1646  0.0805  0.5248
  221poe    c23 2646   1.281   0.466   1.833  0.1062 -0.1071  0.2994
  221poe    c23 2647   1.346   0.354   1.750 -0.1039  0.3202 -0.4545
  221poe     o2 2648   1.482   0.388   1.731  0.1539 -0.3307  0.1808
  221poe    c23 2649   1.576   0.287   1.703 -0.1937 -0.4504 -0.5751
  221poe    c23 2650   1.699   0.342   1.628 -0.1337  0.3083  0.0690
  221poe     o2 2651   1.746   0.453   1.701  0.3997  0.3814 -0.3814
  221poe    c31 2652   1.867   0.510   1.655  0.9353 -0.3066  0.1558
  222poe    c31 2653   5.331   4.420   4.617  0.3618  0.1706  0.3318
  222poe     o2 2654   5.439   4.367   4.544  0.6543  0.8925  0.2332
  222poe    c23 2655   5.493   4.250   4.601  0.4625  0.7378  0.0971
  222poe    c23 2656   5.601   4.197   4.505 -0.0834  0.1807 -0.2258
  222poe     o2 2657   5.663   4.322   4.484  0.0339  0.1416 -0.1184
  222poe    c23 2658   5.774   4.309   4.397 -0.3896 -0.1004 -0.6297
  222poe    c23 2659   5.815   4.451   4.352  0.0837  0.0965  0.3985
  222poe     o2 2660   5.690   4.506   4.317 -0.1102 -0.0945  0.7751
  222poe    c23 2661   5.715   4.645   4.317 -0.1439 -0.0860  0.4244
  222poe    c23 2662   5.575   4.709   4.308  0.1559  0.5620  0.3087
  222poe     o2 2663   5.502   4.643   4.409 -0.6905 -0.0637 -0.6917
  222poe    c31 2664   5.441   4.725   4.507 -0.0558 -0.4112  0.0024
  223poe    c31 2665   1.323   6.281   5.652  0.6218  0.6128  0.1830
  223poe     o2 2666   1.292   6.310   5.518 -0.5487  0.2092  0.3572
  223poe    c23 2667   1.178   6.235   5.484 -0.4831  0.1991  0.1584
  223poe    c23 2668   1.165   6.250   5.331  0.1718 -0.3157  0.0491
  223poe     o2 2669   1.190   6.386   5.304 -0.5190 -0.1578  0.1942
  223poe    c23 2670   1.182   6.421   5.168  0.3203  0.0874  0.2040
  223poe    c23 2671   1.318   6.491   5.149  0.4088 -0.2181 -0.3159
  223poe     o2 2672   1.328   6.565   5.268  0.3102 -0.1844 -0.3287
  223poe    c23 2673   1.451   6.634   5.272 -0.2342  0.7916 -0.0616
  223poe    c23 2674   1.514   6.640   5.412 -0.6071 -0.0334  0.1476
  223poe     o2 2675   1.492   6.518   5.479 -0.0123  0.0084  0.4253
  223poe    c31 2676   1.578   6.520   5.591  0.6816  0.4887 -0.1031
  224poe    c31 2677   0.199   5.715   1.544  0.1986 -0.1802  0.6987
  224poe     o2 2678   0.108   5.610   1.570 -0.2347 -0.0361 -0.2142
  224poe    c23 2679   0.159   5.529   1.674  0.1098 -0.5838 -0.8000
  224poe    c23 2680   0.087   5.392   1.678  0.0335 -0.5360 -0.5476
  224poe     o2 2681  -0.040   5.440   1.640  0.3053  0.3399 -0.3897
  224poe    c23 2682  -0.141   5.352   1.685  0.6442 -0.0874 -0.4581
  224poe    c23 2683  -0.268   5.383   1.605  0.5937  0.1635 -0.2812
  224poe     o2 2684  -0.260   5.523   1.585 -0.4655  0.3225  0.3272
  224poe    c23 2685  -0.344   5.570   1.482 -0.3346  0.2861  0.2041
  224poe    c23 2686  -0.315   5.720   1.462 -0.1142  0.1949 -0.1755
  224poe     o2 2687  -0.177   5.747   1.464 -0.1087  0.1743 -0.2785
  224poe    c31 2688  -0.153   5.873   1.405 -0.1318 -0.1268 -0.9438
  225poe    c31 2689   4.726   4.403   4.495 -0.0442  0.2651  0.3439
  225poe     o2 2690   4.663   4.283   4.534  0.3403  0.0066  0.1726
  225poe    c23 2691   4.523   4.292   4.524  0.3272  0.3953  0.6724
  225poe    c23 2692   4.481   4.145   4.541 -0.2770  0.5413  0.4832
  225poe     o2 2693   4.568   4.081   4.632  0.2146 -0.3851 -0.6112
  225poe    c23 2694   4.547   3.943   4.652 -0.0891 -0.2922 -0.2743
  225poe    c23 2695   4.680   3.867   4.650 -0.0589 -0.2767  0.7017
  225poe     o2 2696   4.779   3.962   4.681 -0.1639 -0.1182  0.5550
  225poe    c23 2697   4.908   3.928   4.633 -0.0711  0.3516  0.4648
  225poe    c23 2698   4.991   4.056   4.650  0.0779  0.2459  0.5267
  225poe     o2 2699   4.929   4.179   4.623 -0.0628  0.0235 -0.1823
  225poe    c31 2700   5.031   4.277   4.627  0.2708 -0.3321  0.0810
  226poe    c31 2701   4.140   6.359   0.926  0.1561  0.1095 -0.2216
  226poe     o2 2702   4.089   6.407   1.048  0.9831  0.7702 -0.1304
  226poe    c23 2703   4.139   6.336   1.158  0.0108  0.4165  0.0881
  226poe    c23 2704   4.040   6.339   1.276  0.2867 -0.4644  0.3588
  226poe     o2 2705   4.002   6.475   1.285 -0.0845 -0.5551  0.2111
  226poe    c23 2706   3.907   6.508   1.383  0.2979 -0.6590  0.6223
  226poe    c23 2707   3.858   6.642   1.324 -0.0247 -1.1007 -0.1334
  226poe     o2 2708   3.853   6.638   1.184  0.9318  0.2673 -0.2228
  226poe    c23 2709   3.795   6.755   1.131  0.0467  0.0176  0.1822
  226poe    c23 2710   3.771   6.732   0.981 -0.0074  0.1609  0.1690
  226poe     o2 2711   3.877   6.649   0.938 -0.4354 -0.5498  0.4692
  226poe    c31 2712   3.868   6.616   0.801 -0.4787  0.6156  0.1805
  227poe    c31 2713   6.249   3.627   4.747  0.4459  0.1780 -0.7638
  227poe     o2 2714   6.240   3.488   4.729 -0.3891  0.0598  0.4304
  227poe    c23 2715   6.114   3.457   4.672 -0.3416  0.3496  0.1636
  227poe    c23 2716   6.114   3.306   4.643 -0.3704  0.4068 -0.1302
  227poe     o2 2717   6.240   3.263   4.597 -0.4712 -0.3283  0.2707
  227poe    c23 2718   6.239   3.122   4.601 -0.1223 -0.3440 -0.1736
  227poe    c23 2719   6.386   3.077   4.588  0.1178  0.3877 -0.0577
  227poe     o2 2720   6.452   3.183   4.652  0.5281 -0.2682  0.6280
  227poe    c23 2721   6.586   3.206   4.613  0.0360  0.5405 -0.6513
  227poe    c23 2722   6.624   3.343   4.673  0.4594 -0.0558  0.4779
  227poe     o2 2723   6.531   3.446   4.648  0.1157 -0.4773 -0.0182
  227poe    c31 2724   6.600   3.569   4.662 -0.4252 -0.2052  0.2621
  228poe    c31 2725   3.513   1.514   4.891  0.5512  0.0914  0.3459
  228poe     o2 2726   3.433   1.408   4.938 -0.0046  0.2643 -0.2002
  228poe    c23 2727   3.303   1.421   4.884 -0.2211  0.2107  0.2983
  228poe    c23 2728   3.213   1.310   4.941  0.2929 -0.2907  0.1534
  228poe     o2 2729   3.305   1.206   4.964  0.0724 -0.5272 -0.0262
  228poe    c23 2730   3.253   1.086   5.016 -0.3874 -0.1469  0.3977
  228poe    c23 2731   3.357   0.979   4.979 -0.5328 -0.1797  0.0800
  228poe     o2 2732   3.481   1.037   5.014 -0.3327 -0.0201 -0.8561
  228poe    c23 2733   3.590   0.986   4.941  0.6728  1.3008 -0.3295
  228poe    c23 2734   3.595   1.043   4.798 -0.6105  0.3021 -0.8001
  228poe     o2 2735   3.580   1.182   4.819  0.1345  0.2650  0.0320
  228poe    c31 2736   3.556   1.239   4.692  0.2189  0.1299 -0.0445
  229poe    c31 2737   3.322   2.220   4.118 -0.4033 -0.6411 -0.5449
  229poe     o2 2738   3.394   2.183   4.003 -0.0530 -0.3428 -0.4237
  229poe    c23 2739   3.526   2.224   4.031 -0.1190 -0.3596 -0.0939
  229poe    c23 2740   3.616   2.216   3.907  0.6169 -0.2708  0.4269
  229poe     o2 2741   3.588   2.091   3.849 -0.3971  0.1685 -0.0544
  229poe    c23 2742   3.630   2.083   3.715  0.4408 -0.3163  0.2268
  229poe    c23 2743   3.506   2.133   3.638  0.2767 -0.4651  0.3954
  229poe     o2 2744   3.390   2.072   3.690 -0.3925  0.4480 -0.0104
  229poe    c23 2745   3.256   2.098   3.653 -0.2853 -0.0982 -0.7854
  229poe    c23 2746   3.162   2.000   3.726 -0.1482  0.2820 -0.1005
  229poe     o2 2747   3.199   2.019   3.861  0.1113  0.0445 -0.1376
  229poe    c31 2748   3.105   1.964   3.951  0.1314  0.5079  0.1719
  230poe    c31 2749   0.086   6.103   3.203 -0.2995  0.5195 -0.4904
  230poe     o2 2750  -0.025   6.082   3.288  0.3193 -0.2677  0.1321
  230poe    c23 2751  -0.104   5.986   3.220 -0.1143  0.1699  0.0159
  230poe    c23 2752  -0.225   5.959   3.310  0.0742  0.0758  0.2421
  230poe     o2 2753  -0.177   5.939   3.441  0.3420  0.2502  0.1707
  230poe    c23 2754  -0.263   5.963   3.550  0.3075  0.3302  0.1256
  230poe    c23 2755  -0.179   5.989   3.676 -0.2124  0.3480  0.4748
  230poe     o2 2756  -0.095   6.096   3.636  0.3292 -0.1672  0.2272
  230poe    c23 2757   0.010   6.120   3.727  0.8165 -0.7737 -0.1665
  230poe    c23 2758   0.075   6.244   3.663 -0.5137  0.1453  0.2134
  230poe     o2 2759   0.096   6.215   3.526 -0.0658  0.0645  0.2969
  230poe    c31 2760   0.219   6.270   3.484  0.2762 -0.2105  0.9303
  231poe    c31 2761   3.871   0.833   0.691  0.3785 -0.3852 -0.0163
  231poe     o2 2762   3.915   0.710   0.639  0.0420 -0.5850  0.1616
  231poe    c23 2763   3.847   0.668   0.523  0.0779  0.1109 -0.1204
  231poe    c23 2764   3.858   0.514   0.517 -0.3804  0.0558  0.3268
  231poe     o2 2765   3.983   0.452   0.539 -0.1658  0.1863 -0.4818
  231poe    c23 2766   3.985   0.313   0.517  0.0691  0.1284 -0.1064
  231poe    c23 2767   4.088   0.257   0.616 -0.2122  0.5351  0.4225
  231poe     o2 2768   4.220   0.292   0.578 -0.1559 -0.2538 -0.1266
  231poe    c23 2769   4.314   0.220   0.653  0.1787 -0.1203 -0.4147
  231poe    c23 2770   4.453   0.237   0.590  0.2302  0.3277 -0.1815
  231poe     o2 2771   4.482   0.375   0.588  0.6042  0.2644  0.4446
  231poe    c31 2772   4.594   0.403   0.508  0.3302  0.2963  0.0700
  232poe    c31 2773   0.666   3.006   0.352  0.6668 -0.1766 -0.1969
  232poe     o2 2774   0.717   3.133   0.387  0.3687 -0.0965 -0.0478
  232poe    c23 2775   0.734   3.191   0.259 -0.0894  0.4269  0.1241
  232poe    c23 2776   0.760   3.339   0.289  0.0710  0.3045  0.6032
  232poe     o2 2777   0.876   3.333   0.369  0.2818 -0.1747  0.2639
  232poe    c23 2778   0.901   3.452   0.440  0.5357 -0.1817  0.1856
  232poe    c23 2779   0.950   3.413   0.581  0.4427 -0.1427  0.2283
  232poe     o2 2780   0.872   3.305   0.629  0.3140 -0.2528 -0.2292
  232poe    c23 2781   0.938   3.244   0.737  0.0686 -0.6078 -0.2782
  232poe    c23 2782   0.856   3.116   0.761 -0.5409 -0.2688 -0.5093
  232poe     o2 2783   0.839   3.054   0.635  0.0653 -0.0414 -0.7082
  232poe    c31 2784   0.851   2.915   0.655  0.0097  0.0139 -0.2776
  233poe    c31 2785   2.050   2.200   6.648  0.2867  0.0137  0.1916
  233poe     o2 2786   1.999   2.095   6.728  0.3649 -0.0340  0.1783
  233poe    c23 2787   2.066   1.973   6.705  0.4964  0.0179  0.2837
  233poe    c23 2788   1.958   1.863   6.699  0.5438 -0.0100 -0.0352
  233poe     o2 2789   1.857   1.897   6.790  0.2353  0.1634 -0.4402
  233poe    c23 2790   1.757   1.800   6.813  0.1490  0.4832  0.5935
  233poe    c23 2791   1.708   1.849   6.951 -0.0549  0.5527  0.4972
  233poe     o2 2792   1.703   1.989   6.963  0.2536  0.6214 -0.1131
  233poe    c23 2793   1.758   2.035   7.085 -0.6954 -0.3317  0.6973
  233poe    c23 2794   1.814   2.178   7.078  0.1699 -0.6843  0.1345
  233poe     o2 2795   1.920   2.182   6.986 -0.0606  0.5954 -0.1023
  233poe    c31 2796   1.999   2.297   7.001  0.2615  0.3608  0.0223
  234poe    c31 2797   0.897   0.445   5.285  0.6613 -0.0405  0.6447
  234poe     o2 2798   0.861   0.488   5.415 -0.5469 -0.3419  0.4208
  234poe    c23 2799   0.939   0.409   5.501 -0.5235 -0.6637  0.1053
  234poe    c23 2800   0.887   0.435   5.644 -0.3761 -0.2621  0.0855
  234poe     o2 2801   0.842   0.569   5.638  0.0342 -0.1054  0.4402
  234poe    c23 2802   0.797   0.617   5.762  0.2700  0.3990  0.3316
  234poe    c23 2803   0.666   0.689   5.724 -0.2223 -0.8480 -0.3903
  234poe     o2 2804   0.680   0.735   5.591  0.4874 -0.4744 -0.1930
  234poe    c23 2805   0.557   0.777   5.535  0.4044  0.0289  0.3479
  234poe    c23 2806   0.602   0.810   5.391  0.0459 -0.1699  0.1884
  234poe     o2 2807   0.666   0.695   5.340  0.5623  0.2403 -0.1030
  234poe    c31 2808   0.684   0.729   5.205 -0.0202  0.4307 -0.1351
  235poe    c31 2809   6.694   0.448   0.236 -0.4833 -0.4518 -0.3002
  235poe     o2 2810   6.676   0.528   0.122  0.1484  0.0340 -0.0630
  235poe    c23 2811   6.674   0.666   0.151  0.1562  0.2128 -0.8948
  235poe    c23 2812   6.532   0.710   0.110 -0.3779 -0.2338  0.4225
  235poe     o2 2813   6.512   0.642  -0.012  0.2074  0.2234  0.0651
  235poe    c23 2814   6.390   0.656  -0.082 -0.2069 -0.7355  0.5811
  235poe    c23 2815   6.348   0.513  -0.120 -0.1937 -0.5113 -0.3039
  235poe     o2 2816   6.468   0.443  -0.143 -0.0547 -0.3370 -0.1077
  235poe    c23 2817   6.444   0.305  -0.156  0.1012 -0.3355 -0.4161
  235poe    c23 2818   6.582   0.236  -0.152  0.1529 -0.2157 -0.1022
  235poe     o2 2819   6.671   0.290  -0.058  0.4063  0.0926 -0.5159
  235poe    c31 2820   6.790   0.215  -0.050  0.3744  0.1243  0.3767
  236poe    c31 2821   5.256   4.702   5.887 -1.0097  0.3569  0.1029
  236poe     o2 2822   5.193   4.697   5.761  0.4365  0.6274 -0.6584
  236poe    c23 2823   5.281   4.643   5.665  0.7132  0.0685 -0.1012
  236poe    c23 2824   5.214   4.657   5.527  0.3247 -0.1891  0.0627
  236poe     o2 2825   5.102   4.571   5.525  0.4756 -0.3791 -0.3712
  236poe    c23 2826   5.032   4.596   5.405  0.7375  0.3873 -0.3706
  236poe    c23 2827   4.896   4.524   5.398  0.6994  0.4314 -0.0798
  236poe     o2 2828   4.828   4.538   5.521  0.3367  0.2962 -0.2630
  236poe    c23 2829   4.710   4.462   5.531  0.2333  0.5231  0.3012
  236poe    c23 2830   4.641   4.496   5.664  0.2329 -0.4449  0.5531
  236poe     o2 2831   4.731   4.507   5.772  0.4463  0.0877  0.3204
  236poe    c31 2832   4.664   4.464   5.888  0.1258 -0.3064 -0.0099
  237poe    c31 2833   1.934   2.832   1.052  0.2723 -0.2940  0.2959
  237poe     o2 2834   1.832   2.750   1.000 -0.0429 -0.2190  0.7807
  237poe    c23 2835   1.808   2.799   0.870 -0.4369 -0.7236  0.6632
  237poe    c23 2836   1.734   2.687   0.793  0.1418 -0.3813 -0.4149
  237poe     o2 2837   1.670   2.608   0.891  0.0805  0.1962  0.0141
  237poe    c23 2838   1.602   2.495   0.840 -0.1506  0.2755  0.1426
  237poe    c23 2839   1.536   2.437   0.967 -0.0025 -0.1872  0.0107
  237poe     o2 2840   1.635   2.448   1.066  0.0874  0.1013 -0.1070
  237poe    c23 2841   1.564   2.461   1.187 -0.1788  0.4225 -0.2986
  237poe    c23 2842   1.656   2.522   1.294 -0.5879 -0.0245  0.3151
  237poe     o2 2843   1.721   2.631   1.232  0.1155 -0.3152  0.5349
  237poe    c31 2844   1.791   2.705   1.330  0.5381 -0.7032  0.5330
  238poe    c31 2845   4.804   3.234   4.290  0.0054 -0.5649 -0.2899
  238poe     o2 2846   4.839   3.191   4.420 -0.2854 -0.2766 -0.1149
  238poe    c23 2847   4.725   3.127   4.472 -0.3316 -0.0323  0.0835
  238poe    c23 2848   4.749   3.042   4.598 -0.0172  0.0619  0.0877
  238poe     o2 2849   4.827   3.119   4.687 -0.0051  0.0476  0.0894
  238poe    c23 2850   4.857   3.053   4.808 -0.2265  0.5178  0.4050
  238poe    c23 2851   4.964   3.140   4.878  0.4204  0.0395  0.0201
  238poe     o2 2852   5.053   3.182   4.777  0.0059  0.2311 -0.2671
  238poe    c23 2853   5.126   3.296   4.819  0.1631  0.0424 -0.0297
  238poe    c23 2854   5.163   3.371   4.690 -0.0780 -0.0226 -0.1397
  238poe     o2 2855   5.049   3.372   4.608 -0.0131 -0.0218 -0.2304
  238poe    c31 2856   5.052   3.471   4.508  0.6867  0.2898  0.0930
  239poe    c31 2857   0.687   3.429   2.784  0.0339 -0.2675 -0.5398
  239poe     o2 2858   0.576   3.392   2.862  0.3126 -0.3515 -0.1792
  239poe    c23 2859   0.558   3.256   2.829 -0.2685 -0.3644  0.1682
  239poe    c23 2860   0.447   3.198   2.920 -0.1658 -0.0114  0.5220
  239poe     o2 2861   0.347   3.296   2.929  0.2597  0.4259  0.5705
  239poe    c23 2862   0.266   3.257   3.038  0.1256  0.1924  0.3874
  239poe    c23 2863   0.194   3.390   3.067 -0.0903 -0.0901  1.1655
  239poe     o2 2864   0.285   3.497   3.067 -0.2662  0.0675 -0.1132
  239poe    c23 2865   0.325   3.552   3.190  0.1488 -0.1362 -0.1549
  239poe    c23 2866   0.425   3.662   3.148 -0.0062 -0.0592 -0.3241
  239poe     o2 2867   0.504   3.594   3.053  0.1943  0.2616 -0.3909
  239poe    c31 2868   0.601   3.686   3.010  0.3578  0.1264 -0.3147
  240poe    c31 2869   2.477   3.214   3.102 -0.4689 -0.4697  0.3470
  240poe     o2 2870   2.385   3.286   3.023 -0.2101 -0.5793 -0.0617
  240poe    c23 2871   2.251   3.247   3.046 -0.3542 -0.0596  0.0024
  240poe    c23 2872   2.153   3.347   2.984  0.0679  0.4248  0.1020
  240poe     o2 2873   2.202   3.377   2.855  0.6645 -0.4506  0.1182
  240poe    c23 2874   2.129   3.472   2.780  0.4250 -0.4300  0.3770
  240poe    c23 2875   2.223   3.493   2.661 -0.0356  0.5501  0.1801
  240poe     o2 2876   2.347   3.498   2.728 -0.1038  0.5857  0.3023
  240poe    c23 2877   2.452   3.507   2.635  0.1126  0.3285  0.5164
  240poe    c23 2878   2.585   3.487   2.709 -0.0508  0.5358  0.8656
  240poe     o2 2879   2.561   3.387   2.805  0.1844 -0.2766  0.0887
  240poe    c31 2880   2.678   3.309   2.814  0.0235 -0.4393  0.8623
  241poe    c31 2881   2.190   4.204   5.597 -0.0362 -0.4563  0.1426
  241poe     o2 2882   2.225   4.070   5.622 -0.0736 -0.3905  0.5511
  241poe    c23 2883   2.214   4.006   5.497 -0.0644  0.2598  0.2124
  241poe    c23 2884   2.191   3.857   5.530  0.1324  0.3000  0.5396
  241poe     o2 2885   2.304   3.807   5.597 -0.1011 -0.6945  0.2123
  241poe    c23 2886   2.296   3.689   5.673  0.3131 -0.6225  0.3742
  241poe    c23 2887   2.212   3.715   5.800 -0.2249  0.4097 -0.1763
  241poe     o2 2888   2.274   3.832   5.850 -0.2289  0.0962  0.5784
  241poe    c23 2889   2.238   3.868   5.981  0.8702  0.1782  0.8698
  241poe    c23 2890   2.311   3.994   6.032  0.9390  0.4697  0.0631
  241poe     o2 2891   2.309   4.093   5.932  0.0507  0.3330 -0.0627
  241poe    c31 2892   2.371   4.214   5.968  1.3456 -0.1720 -0.5071
  242poe    c31 2893   2.788   4.585   6.698 -0.3076  0.8099 -0.3103
  242poe     o2 2894   2.777   4.486   6.599  0.6780  0.4912 -0.1147
  242poe    c23 2895   2.811   4.549   6.478  0.1568  0.3179 -0.3549
  242poe    c23 2896   2.830   4.435   6.376 -0.4217  0.1641 -0.2970
  242poe     o2 2897   2.706   4.369   6.377 -0.0960 -0.4515 -0.0163
  242poe    c23 2898   2.702   4.267   6.280  0.7668 -0.9560  0.4679
  242poe    c23 2899   2.587   4.180   6.334  0.0403 -0.3656 -0.1168
  242poe     o2 2900   2.622   4.170   6.470  0.7368  0.5853 -0.2151
  242poe    c23 2901   2.526   4.097   6.543  0.8032  0.3230 -0.3885
  242poe    c23 2902   2.561   4.130   6.689 -0.1335  0.7679 -0.2610
  242poe     o2 2903   2.574   4.270   6.684  0.1820  0.7306 -0.4614
  242poe    c31 2904   2.581   4.322   6.815 -0.4081 -0.3695  0.0144
  243poe    c31 2905   0.478   5.402   4.559 -0.1736  0.3564  1.2197
  243poe     o2 2906   0.382   5.302   4.534  0.2744  0.2076  0.0526
  243poe    c23 2907   0.328   5.275   4.661  0.5880  0.1411  0.1728
  243poe    c23 2908   0.254   5.140   4.670  0.0666  0.4180  0.0923
  243poe     o2 2909   0.323   5.070   4.570 -0.0103 -0.4928  0.6660
  243poe    c23 2910   0.284   4.938   4.537  0.0554 -0.2839 -0.2697
  243poe    c23 2911   0.362   4.912   4.406  0.3184 -0.1539 -0.1387
  243poe     o2 2912   0.347   5.030   4.329  0.5791 -0.0192  0.0153
  243poe    c23 2913   0.425   5.047   4.213  0.0827  0.0770 -0.3035
  243poe    c23 2914   0.402   5.186   4.150 -0.6040  0.2485  0.3159
  243poe     o2 2915   0.400   5.267   4.265  0.1363  0.6056  0.0790
  243poe    c31 2916   0.396   5.400   4.219 -0.3391  0.5954  0.0904
  244poe    c31 2917   2.944   2.873   0.747 -0.0079 -0.3930 -0.2259
  244poe     o2 2918   3.080   2.910   0.748 -0.0971 -0.0635  0.0176
  244poe    c23 2919   3.086   3.051   0.739 -0.2167 -0.0695 -0.1629
  244poe    c23 2920   3.228   3.099   0.704  0.0641 -0.4277  0.4695
  244poe     o2 2921   3.290   3.008   0.617 -0.2127  0.5172 -0.7432
  244poe    c23 2922   3.428   3.035   0.626 -0.2211  0.3255 -0.0293
  244poe    c23 2923   3.507   2.937   0.537 -0.0114  0.3988  0.0726
  244poe     o2 2924   3.438   2.818   0.570  0.2145  0.2915  0.1530
  244poe    c23 2925   3.431   2.720   0.469 -0.6331  0.5195 -0.0169
  244poe    c23 2926   3.325   2.619   0.516 -0.1364  0.5530  1.2232
  244poe     o2 2927   3.205   2.683   0.554 -0.5047  0.5451  0.1153
  244poe    c31 2928   3.105   2.589   0.585 -0.0335  0.0725  0.2224
  245poe    c31 2929   6.365   5.341   4.882  0.0064  0.2116 -0.3444
  245poe     o2 2930   6.239   5.287   4.914  0.5101 -0.5397  0.3894
  245poe    c23 2931   6.168   5.385   4.987 -0.4269 -0.3862 -0.7010
  245poe    c23 2932   6.069   5.303   5.073 -0.2193  0.2934  0.2052
  245poe     o2 2933   5.995   5.231   4.976  0.3744 -0.0788  0.0230
  245poe    c23 2934   5.898   5.133   5.005  0.2383 -0.0413 -0.2978
  245poe    c23 2935   5.894   5.045   4.879 -0.2426 -0.1464 -0.2122
  245poe     o2 2936   6.028   5.009   4.853 -0.2234  0.0850 -0.4415
  245poe    c23 2937   6.033   4.922   4.742  0.3084  0.0773 -0.4160
  245poe    c23 2938   6.182   4.915   4.703  0.2044 -0.3198 -0.7517
  245poe     o2 2939   6.245   5.040   4.692  0.2067 -0.2234  0.2489
  245poe    c31 2940   6.350   5.022   4.599 -0.3429 -0.2922 -0.3693
  246poe    c31 2941   1.528   5.724   2.775 -0.6623 -0.2088 -0.1583
  246poe     o2 2942   1.494   5.791   2.656  0.1471  0.7301  0.1197
  246poe    c23 2943   1.379   5.731   2.600  0.2981  0.4547  0.1041
  246poe    c23 2944   1.354   5.810   2.471  0.0623 -0.1530 -0.2257
  246poe     o2 2945   1.361   5.948   2.497 -0.1768 -0.1129 -0.3674
  246poe    c23 2946   1.388   6.031   2.386 -0.6991  0.0460 -0.3776
  246poe    c23 2947   1.428   6.168   2.442  0.2772 -0.2472 -0.3477
  246poe     o2 2948   1.530   6.130   2.532 -0.0701 -0.2512  0.0444
  246poe    c23 2949   1.569   6.244   2.605  0.0923  0.0006 -0.4303
  246poe    c23 2950   1.668   6.187   2.708 -0.4274  0.1790  0.1736
  246poe     o2 2951   1.605   6.076   2.768  0.1562 -0.5106 -0.4822
  246poe    c31 2952   1.685   6.043   2.880 -0.7939 -0.2517  0.2893
  247poe    c31 2953   5.409   1.882   6.010  0.2545  0.2374 -0.2067
  247poe     o2 2954   5.360   2.014   5.995 -0.0306  0.1832  0.2186
  247poe    c23 2955   5.362   2.063   5.862 -0.3036  0.0656  0.1717
  247poe    c23 2956   5.261   2.174   5.828  0.1835  0.4981  0.1400
  247poe     o2 2957   5.249   2.253   5.944 -0.2644 -0.2050  0.5805
  247poe    c23 2958   5.128   2.324   5.939 -0.3779 -0.4452 -0.1623
  247poe    c23 2959   5.132   2.402   6.072  0.3031 -0.3597 -0.2300
  247poe     o2 2960   5.173   2.306   6.166  0.2991  0.2030  0.3507
  247poe    c23 2961   5.220   2.369   6.284  0.0638  0.0451  0.5272
  247poe    c23 2962   5.370   2.334   6.287  0.1107  0.1651 -0.2407
  247poe     o2 2963   5.376   2.193   6.279  0.3835  0.1463  0.2517
  247poe    c31 2964   5.508   2.147   6.295  0.2303 -0.2838  0.2923
  248poe    c31 2965   2.594   0.583   0.450  0.4597  0.3901  0.0006
  248poe     o2 2966   2.533   0.616   0.327  0.5522  0.3769 -0.0481
  248poe    c23 2967   2.499   0.752   0.341 -0.6217  0.0087  0.8098
  248poe    c23 2968   2.416   0.818   0.229 -0.4075 -0.2493  0.4963
  248poe     o2 2969   2.324   0.718   0.191 -0.0289 -0.3794 -0.0914
  248poe    c23 2970   2.226   0.752   0.096  0.3219 -0.4336 -0.4766
  248poe    c23 2971   2.160   0.616   0.064 -0.3278 -0.2156 -0.0869
  248poe     o2 2972   2.259   0.518   0.083 -0.0160  0.2456  0.7257
  248poe    c23 2973   2.184   0.404   0.119  0.5481 -0.3651  0.0038
  248poe    c23 2974   2.294   0.304   0.160  0.2776 -0.7215 -0.1324
  248poe     o2 2975   2.374   0.368   0.258  0.6571 -0.1484 -0.8017
  248poe    c31 2976   2.471   0.282   0.312 -0.2078 -0.2735  0.6076
  249poe    c31 2977   5.608   1.210   1.305 -0.5498  1.0512 -0.5111
  249poe     o2 2978   5.491   1.199   1.383 -0.0499  0.4159  0.1647
  249poe    c23 2979   5.523   1.208   1.520  0.1163  0.1866  0.1417
  249poe    c23 2980   5.398   1.275   1.580 -0.1770  0.7812 -1.0966
  249poe     o2 2981   5.289   1.207   1.522 -0.2926 -0.4985  0.5483
  249poe    c23 2982   5.164   1.252   1.567 -0.1297  0.5166  0.0031
  249poe    c23 2983   5.061   1.236   1.453 -0.5063  0.1569  0.3928
  249poe     o2 2984   5.142   1.252   1.339 -0.4631  0.4240  0.4594
  249poe    c23 2985   5.067   1.274   1.222 -0.0109 -0.1955  0.0455
  249poe    c23 2986   5.189   1.290   1.129  0.1931 -0.5404  0.2498
  249poe     o2 2987   5.269   1.178   1.159  0.0862 -0.7680 -0.2967
  249poe    c31 2988   5.359   1.149   1.055  0.4778 -0.3747 -0.0736
  250poe    c31 2989   4.858   3.640   3.789 -0.3757 -0.0230  0.4793
  250poe     o2 2990   4.948   3.580   3.880 -0.4020 -0.4616  0.2195
  250poe    c23 2991   4.954   3.441   3.856 -0.2384 -0.4426  0.1543
  250poe    c23 2992   5.011   3.373   3.982  0.7223 -0.3932 -0.2450
  250poe     o2 2993   5.129   3.440   4.022  0.2137  0.3847 -0.0297
  250poe    c23 2994   5.183   3.410   4.148  0.2903  0.1902 -0.1090
  250poe    c23 2995   5.274   3.530   4.179  0.2411  0.1044  0.3900
  250poe     o2 2996   5.212   3.644   4.124  0.3682 -0.0639 -0.1175
  250poe    c23 2997   5.311   3.743   4.103  0.2262  0.2804  0.7474
  250poe    c23 2998   5.227   3.850   4.031  0.1110 -0.1740  0.1905
  250poe     o2 2999   5.164   3.779   3.927  0.3079 -0.2887  0.1490
  250poe    c31 3000   5.123   3.877   3.835  0.4076 -0.0074  0.4053
  251poe    c31 3001   2.022   3.450   4.214  0.1319  0.4441 -0.2721
  251poe     o2 3002   1.980   3.476   4.346 -0.3098 -0.0473 -0.3137
  251poe    c23 3003   2.088   3.439   4.429 -0.5415 -0.1570 -0.0601
  251poe    c23 3004   2.040   3.450   4.575  0.6818  0.1645  0.3225
  251poe     o2 3005   2.020   3.578   4.631  0.5096  0.1177  0.3683
  251poe    c23 3006   1.891   3.632   4.614  0.3780 -0.2960  0.0350
  251poe    c23 3007   1.905   3.754   4.707  0.0010 -0.3726  0.1946
  251poe     o2 3008   2.034   3.809   4.702 -0.2929  0.3173  0.1555
  251poe    c23 3009   2.046   3.915   4.796  0.1083  0.2569  0.1729
  251poe    c23 3010   2.166   4.002   4.753  0.2204 -0.0247 -0.0923
  251poe     o2 3011   2.291   3.946   4.787  0.1907  0.0424  0.1270
  251poe    c31 3012   2.387   4.043   4.750  0.0790  0.0970 -0.0185
  252poe    c31 3013   5.950   3.591   5.145 -0.2318 -0.2905 -0.4803
  252poe     o2 3014   5.872   3.584   5.263  0.0833 -0.2186 -0.2650
  252poe    c23 3015   5.917   3.499   5.365 -0.1176  0.5118  0.4397
  252poe    c23 3016   5.801   3.469   5.462  0.0256 -0.2901  0.3643
  252poe     o2 3017   5.731   3.588   5.487 -0.0868 -0.2495 -0.1175
  252poe    c23 3018   5.631   3.551   5.580 -0.0496  0.3771  0.1826
  252poe    c23 3019   5.535   3.666   5.612 -0.3953  0.1655 -0.0867
  252poe     o2 3020   5.600   3.790   5.631 -0.0747  0.0013 -0.1034
  252poe    c23 3021   5.515   3.902   5.633  0.3319  0.3004  0.5678
  252poe    c23 3022   5.584   4.037   5.661  1.0914  0.0787 -0.1990
  252poe     o2 3023   5.650   4.041   5.785  0.7613 -0.2058 -0.0124
  252poe    c31 3024   5.652   4.176   5.826  0.1942 -0.3163  0.3901
  253poe    c31 3025   5.277   3.942   1.743 -0.3552 -0.7528 -0.5357
  253poe     o2 3026   5.335   3.984   1.621  0.9553  0.1920  0.3743
  253poe    c23 3027   5.255   4.093   1.583  0.5777 -0.2036  0.0131
  253poe    c23 3028   5.305   4.168   1.457  0.0612  0.1136 -0.0052
  253poe     o2 3029   5.340   4.069   1.363 -0.3434  0.4158 -0.4807
  253poe    c23 3030   5.381   4.118   1.238 -0.0389  0.3944 -0.3913
  253poe    c23 3031   5.457   4.004   1.169  0.0291  0.2407 -0.0638
  253poe     o2 3032   5.548   3.960   1.267  0.1116  0.1709 -0.1715
  253poe    c23 3033   5.571   3.821   1.253 -0.3977  0.0532  0.1369
  253poe    c23 3034   5.602   3.767   1.393  0.2503  0.1104  0.0181
  253poe     o2 3035   5.490   3.774   1.478  0.5786  0.2289  0.4486
  253poe    c31 3036   5.530   3.727   1.604  0.1958  0.2348  0.5725
  254poe    c31 3037   4.876   1.920   3.438  0.8880 -0.1325 -0.2663
  254poe     o2 3038   4.782   1.816   3.421  0.0289  0.5625  0.1586
  254poe    c23 3039   4.736   1.805   3.288 -0.6411  0.1606  0.4230
  254poe    c23 3040   4.754   1.656   3.255 -0.1260  0.3000  0.0649
  254poe     o2 3041   4.686   1.590   3.359  0.1018  0.0922  0.0831
  254poe    c23 3042   4.695   1.449   3.359  0.1228  0.0935 -0.1908
  254poe    c23 3043   4.795   1.399   3.466 -0.3998 -0.1636  0.1794
  254poe     o2 3044   4.789   1.505   3.558  0.4008  0.2954 -0.2826
  254poe    c23 3045   4.876   1.502   3.669 -0.5328  0.2749  0.4621
  254poe    c23 3046   4.835   1.616   3.764 -0.4152  0.3787  0.3871
  254poe     o2 3047   4.789   1.722   3.683  0.0355 -0.0032 -0.3779
  254poe    c31 3048   4.769   1.831   3.770  0.1152 -0.3303  0.0555
  255poe    c31 3049   5.276   1.139   5.698  0.4962 -0.1518 -0.5573
  255poe     o2 3050   5.284   1.235   5.595 -0.3080 -0.0716 -0.5482
  255poe    c23 3051   5.418   1.265   5.561 -0.1393 -0.0853  0.0795
  255poe    c23 3052   5.401   1.355   5.437 -0.7736 -0.4971 -0.1413
  255poe     o2 3053   5.295   1.319   5.351 -0.5018 -0.5908 -0.4395
  255poe    c23 3054   5.274   1.401   5.238  0.7123 -0.6447 -0.7216
  255poe    c23 3055   5.152   1.339   5.168 -0.2186  0.2162  0.0889
  255poe     o2 3056   5.067   1.302   5.274 -0.2019 -0.5009 -0.1388
  255poe    c23 3057   4.964   1.209   5.249 -0.3818 -0.3367 -0.0184
  255poe    c23 3058   4.911   1.163   5.386 -0.4188  0.3524  0.1976
  255poe     o2 3059   5.013   1.113   5.469 -0.5653  0.0539  0.1989
  255poe    c31 3060   4.943   1.038   5.566 -0.1797 -0.5832 -0.0102
  256poe    c31 3061   6.638   6.289   5.004  0.3112 -0.0295 -0.1031
  256poe     o2 3062   6.545   6.365   5.077  0.1149 -0.4082  0.0462
  256poe    c23 3063   6.600   6.483   5.132 -0.5400 -0.2713  0.4287
  256poe    c23 3064   6.484   6.584   5.136 -0.5789 -0.3076  0.2542
  256poe     o2 3065   6.391   6.503   5.205 -0.4666 -0.4650  0.2217
  256poe    c23 3066   6.280   6.583   5.237  0.0328  0.3251  0.0040
  256poe    c23 3067   6.188   6.474   5.296  0.3825  0.3075  0.5146
  256poe     o2 3068   6.222   6.347   5.246 -0.4800  0.2966 -0.0564
  256poe    c23 3069   6.183   6.245   5.336 -0.1636 -0.3307 -0.6175
  256poe    c23 3070   6.195   6.118   5.251 -0.3077 -0.3900 -0.5503
  256poe     o2 3071   6.327   6.126   5.201 -0.0883 -0.1684  0.0552
  256poe    c31 3072   6.338   6.019   5.110  0.4754  0.2154 -0.3334
  257poe    c31 3073   2.505   0.367   3.316 -0.1556 -0.2367 -0.5111
  257poe     o2 3074   2.414   0.472   3.342  0.1379 -0.0849 -0.0865
  257poe    c23 3075   2.479   0.589   3.385 -0.0467  0.1173 -0.3577
  257poe    c23 3076   2.379   0.706   3.394 -0.3104 -0.1340  0.0204
  257poe     o2 3077   2.270   0.657   3.468 -0.2648 -0.0955  0.1132
  257poe    c23 3078   2.146   0.714   3.431 -0.1201  0.2219  0.1136
  257poe    c23 3079   2.035   0.616   3.474  0.4848 -0.2819  0.5524
  257poe     o2 3080   2.089   0.491   3.434  0.0586 -0.3724  0.2540
  257poe    c23 3081   2.001   0.384   3.462  0.1764 -0.3998  0.5196
  257poe    c23 3082   2.023   0.297   3.338  0.1049 -0.2185  0.3785
  257poe     o2 3083   2.160   0.266   3.327  0.0982 -0.0841 -0.1200
  257poe    c31 3084   2.176   0.162   3.233 -0.3361 -0.2978  0.0433
  258poe    c31 3085   2.849   5.823   6.225 -0.4389 -0.5382 -0.4848
  258poe     o2 3086   2.868   5.698   6.162 -0.3574 -0.9399  0.3339
  258poe    c23 3087   2.771   5.678   6.062  0.3440 -0.6690 -0.4138
  258poe    c23 3088   2.753   5.525   6.071 -0.1790 -0.5689  0.3827
  258poe     o2 3089   2.876   5.459   6.086  0.3180  0.2075 -0.1764
  258poe    c23 3090   2.865   5.319   6.104 -0.5514  0.2958  0.0143
  258poe    c23 3091   3.014   5.283   6.107 -0.5492  0.2505 -0.5021
  258poe     o2 3092   3.057   5.364   6.215  0.4551  0.1299 -0.7995
  258poe    c23 3093   3.195   5.342   6.235  0.2827 -0.1164  0.1744
  258poe    c23 3094   3.236   5.454   6.332  0.1551  0.1073 -0.0287
  258poe     o2 3095   3.179   5.575   6.286  0.8654  0.3696 -0.2531
  258poe    c31 3096   3.180   5.678   6.382 -0.4850  0.5231 -0.3859
  259poe    c31 3097   4.455   3.120   0.880 -0.3748 -0.1202  0.4226
  259poe     o2 3098   4.529   3.176   0.986 -0.1666 -0.2748  0.3598
  259poe    c23 3099   4.508   3.315   0.987  0.1619 -0.2192 -0.4003
  259poe    c23 3100   4.589   3.397   1.089 -0.0984 -0.0035 -0.3665
  259poe     o2 3101   4.716   3.339   1.101 -0.1820 -0.1191 -0.0371
  259poe    c23 3102   4.775   3.340   1.230 -0.0060  0.0651 -0.1184
  259poe    c23 3103   4.866   3.216   1.234  0.4177  0.3855  0.1360
  259poe     o2 3104   4.789   3.107   1.191  0.1347  0.3415  0.7385
  259poe    c23 3105   4.857   2.984   1.179 -0.1767  0.2751 -0.4776
  259poe    c23 3106   4.896   2.972   1.030  0.4722 -1.0603 -0.2146
  259poe     o2 3107   4.786   3.004   0.948 -0.0082 -0.4979  0.6288
  259poe    c31 3108   4.820   3.000   0.811 -0.4911 -0.3052  0.5012
  260poe    c31 3109   6.252   4.795   0.169  0.4849 -0.3545 -0.4812
  260poe     o2 3110   6.326   4.730   0.269  0.4536  0.0168 -0.2153
  260poe    c23 3111   6.238   4.716   0.379 -0.2015  0.0573 -0.7269
  260poe    c23 3112   6.264   4.578   0.443 -0.0030  0.2535 -0.3831
  260poe     o2 3113   6.401   4.542   0.443  0.0259  0.3515  0.0031
  260poe    c23 3114   6.409   4.402   0.459 -0.3078  0.2881 -0.3583
  260poe    c23 3115   6.482   4.338   0.339 -0.3462  0.3469 -0.4136
  260poe     o2 3116   6.468   4.440   0.244 -0.0754  0.3584 -0.4409
  260poe    c23 3117   6.539   4.411   0.126  0.1759 -0.3127 -0.1258
  260poe    c23 3118   6.532   4.532   0.030  0.4554 -0.0170  0.2232
  260poe     o2 3119   6.544   4.653   0.101  0.1814  0.3545 -0.3628
  260poe    c31 3120   6.574   4.754   0.007  1.2450  0.1508 -0.2464
  261poe    c31 3121   2.780   3.278   6.581 -0.1718 -0.2304  0.1166
  261poe     o2 3122   2.709   3.290   6.459  0.0955 -0.1065 -0.0270
  261poe    c23 3123   2.667   3.163   6.413  0.3928 -0.4220  0.5556
  261poe    c23 3124   2.662   3.153   6.259 -0.3751 -0.4204  0.5789
  261poe     o2 3125   2.562   3.250   6.237 -0.3818 -0.4697  0.3981
  261poe    c23 3126   2.567   3.286   6.100  0.3112 -0.3397  0.4541
  261poe    c23 3127   2.509   3.427   6.078 -0.8621 -0.7742  0.6527
  261poe     o2 3128   2.558   3.489   6.195  0.4216  0.3369 -0.4358
  261poe    c23 3129   2.538   3.629   6.199 -0.4027  0.2130  0.0643
  261poe    c23 3130   2.657   3.687   6.277  0.0416  0.2998 -0.6645
  261poe     o2 3131   2.687   3.594   6.379  0.2028  0.2694 -0.7409
  261poe    c31 3132   2.782   3.630   6.477 -0.5867 -0.5447  0.3407
  262poe    c31 3133   2.402   6.597   6.239 -0.3027  0.0266 -0.0174
  262poe     o2 3134   2.410   6.484   6.323 -0.1605 -0.1731 -0.3004
  262poe    c23 3135   2.542   6.490   6.372 -0.2724  0.4157 -0.0757
  262poe    c23 3136   2.557   6.382   6.480 -0.0503  0.5321  0.0112
  262poe     o2 3137   2.441   6.376   6.560 -0.0080 -0.0108  0.0388
  262poe    c23 3138   2.447   6.258   6.637 -0.3972 -0.1315 -0.1106
  262poe    c23 3139   2.307   6.239   6.697 -0.1653 -0.6661  0.2683
  262poe     o2 3140   2.234   6.240   6.576  0.3833 -0.0724 -0.0603
  262poe    c23 3141   2.094   6.250   6.593  0.4702  0.4878  0.3914
  262poe    c23 3142   2.044   6.266   6.448 -0.1066  0.1516  0.5517
  262poe     o2 3143   2.105   6.376   6.386 -0.4460  0.0472  0.0198
  262poe    c31 3144   2.042   6.420   6.268 -0.1781 -0.3693 -0.2777
  263poe    c31 3145   2.727   3.560   1.358  0.4514 -0.3447 -0.4899
  263poe     o2 3146   2.735   3.424   1.395  0.4691 -0.0354  0.6948
  263poe    c23 3147   2.639   3.386   1.491 -0.0695  0.2183  0.2686
  263poe    c23 3148   2.611   3.235   1.500  0.2842  0.1431  0.1375
  263poe     o2 3149   2.744   3.189   1.509  0.1360 -0.2764  0.1873
  263poe    c23 3150   2.748   3.058   1.456 -0.4142 -0.2430  0.0536
  263poe    c23 3151   2.785   3.067   1.306  0.5071 -0.9415  0.2341
  263poe     o2 3152   2.898   3.152   1.298  0.3936 -0.8127  0.0242
  263poe    c23 3153   2.966   3.156   1.175  0.3609 -0.0916  0.0225
  263poe    c23 3154   3.060   3.275   1.198  0.3989 -0.1832  0.3425
  263poe     o2 3155   2.996   3.380   1.268 -0.0533 -0.3090  0.1136
  263poe    c31 3156   3.053   3.500   1.222 -0.3957 -0.2809 -0.2484
  264poe    c31 3157   2.294   4.836   3.515 -0.2077 -0.0924 -0.4842
  264poe     o2 3158   2.219   4.734   3.578 -0.5110  0.5162  0.1590
  264poe    c23 3159   2.239   4.746   3.717  0.4384  0.4860  0.0317
  264poe    c23 3160   2.176   4.619   3.779  0.4760  0.0920 -0.7191
  264poe     o2 3161   2.044   4.601   3.734  0.2556  0.4879 -0.2412
  264poe    c23 3162   1.976   4.497   3.800  0.1067  0.6710 -0.1059
  264poe    c23 3163   1.853   4.488   3.707 -0.0912 -0.3231  0.2385
  264poe     o2 3164   1.903   4.502   3.576 -0.3408 -0.0718  0.1702
  264poe    c23 3165   1.814   4.550   3.478 -0.2456 -0.1477  0.0459
  264poe    c23 3166   1.803   4.704   3.483  0.5020 -0.0501 -1.0024
  264poe     o2 3167   1.936   4.750   3.476  0.3728  0.5622  0.2431
  264poe    c31 3168   1.941   4.889   3.453  0.2203  0.4959 -0.1893
  265poe    c31 3169   1.719   5.508   2.102 -0.5238 -0.4126  0.1408
  265poe     o2 3170   1.832   5.567   2.042 -0.6464  0.0274  0.3432
  265poe    c23 3171   1.945   5.532   2.118 -0.5144  0.5865  0.4088
  265poe    c23 3172   2.063   5.631   2.106  0.0359 -0.1820 -0.7050
  265poe     o2 3173   2.029   5.674   1.977 -0.2645  0.0088 -0.5643
  265poe    c23 3174   2.134   5.741   1.910 -0.2841  0.4298 -0.1777
  265poe    c23 3175   2.070   5.757   1.770 -0.1588 -0.0830 -0.2966
  265poe     o2 3176   1.937   5.799   1.789  0.1526  0.6256  0.3971
  265poe    c23 3177   1.858   5.808   1.673  0.6106  0.4293  0.0657
  265poe    c23 3178   1.718   5.842   1.728  0.2441 -0.7050 -0.1271
  265poe     o2 3179   1.700   5.753   1.836 -0.2024  0.2862  0.6328
  265poe    c31 3180   1.567   5.748   1.883 -0.5181  0.7112 -0.2049
  266poe    c31 3181   1.445   0.666   0.758  0.0064  0.1963 -0.3367
  266poe     o2 3182   1.375   0.739   0.857 -0.1069  0.3945 -0.5626
  266poe    c23 3183   1.392   0.878   0.838 -0.0742  0.4434 -0.1862
  266poe    c23 3184   1.321   0.929   0.964 -0.0283  0.4333 -0.1559
  266poe     o2 3185   1.190   0.877   0.974  0.0706  0.2168 -0.0001
  266poe    c23 3186   1.140   0.913   1.101  0.7866 -0.4347  0.4792
  266poe    c23 3187   1.045   0.801   1.147  0.3456 -0.3174 -0.1338
  266poe     o2 3188   1.111   0.680   1.118  0.5872 -0.2905  0.3075
  266poe    c23 3189   1.038   0.560   1.129 -0.1740  0.2103  0.7853
  266poe    c23 3190   1.121   0.434   1.101 -0.4519  0.2091 -0.0505
  266poe     o2 3191   1.181   0.464   0.977  0.3476 -0.0438  0.2681
  266poe    c31 3192   1.281   0.369   0.950 -0.0873 -0.2912 -0.5215
  267poe    c31 3193   1.586   5.194   5.991  0.0483  0.2416 -0.1036
  267poe     o2 3194   1.683   5.098   6.025 -0.0015  0.4253  0.5761
  267poe    c23 3195   1.665   5.062   6.161  0.0949  0.2496  0.5436
  267poe    c23 3196   1.756   4.940   6.178  0.1456  0.1556 -0.3541
  267poe     o2 3197   1.874   4.970   6.107  0.0386  0.1135 -0.5524
  267poe    c23 3198   1.965   4.863   6.106 -0.0238  0.0618 -0.7033
  267poe    c23 3199   2.053   4.901   5.986  0.5522 -0.0291 -0.3166
  267poe     o2 3200   1.964   4.938   5.883 -0.0876 -0.3285  0.1216
  267poe    c23 3201   2.033   4.968   5.763 -0.0520  0.5014  0.3445
  267poe    c23 3202   1.926   5.042   5.679  0.1967  0.1606 -0.2762
  267poe     o2 3203   1.873   5.148   5.755  0.0619  0.1119 -0.3027
  267poe    c31 3204   1.787   5.223   5.673 -0.2629 -0.1032 -0.1658
  268poe    c31 3205   6.148   5.387   4.254  0.1946  0.0619  0.0488
  268poe     o2 3206   6.167   5.502   4.334  0.3285  0.0247  0.0711
  268poe    c23 3207   6.304   5.518   4.361  0.2864  0.0784  0.2594
  268poe    c23 3208   6.314   5.637   4.458  0.0463  0.1204  0.2319
  268poe     o2 3209   6.213   5.730   4.423  0.2630  0.0610 -0.5886
  268poe    c23 3210   6.207   5.839   4.512 -0.4868 -0.3471 -0.1294
  268poe    c23 3211   6.066   5.899   4.493 -0.2120  0.1964 -0.4804
  268poe     o2 3212   5.984   5.786   4.473  0.0223 -0.0295 -0.1665
  268poe    c23 3213   5.853   5.834   4.453 -0.1678 -0.0611  0.9109
  268poe    c23 3214   5.781   5.709   4.401  0.7737 -0.2324 -0.0199
  268poe     o2 3215   5.863   5.623   4.325  0.8071 -0.2479  0.0336
  268poe    c31 3216   5.787   5.514   4.277 -0.0824  0.3567  0.0549
  269poe    c31 3217   4.038   0.223   6.648 -0.1399  0.2536 -0.1802
  269poe     o2 3218   4.169   0.173   6.630 -0.1401  0.1915 -0.0159
  269poe    c23 3219   4.170   0.051   6.558  0.0254 -0.0080  0.3231
  269poe    c23 3220   4.307  -0.017   6.571  0.1782  0.1597 -0.3740
  269poe     o2 3221   4.314  -0.106   6.680 -0.1316  0.4276 -0.1350
  269poe    c23 3222   4.425  -0.193   6.675 -0.1992  0.3451 -0.2034
  269poe    c23 3223   4.415  -0.284   6.799 -0.0273  0.0863 -0.3785
  269poe     o2 3224   4.300  -0.363   6.784  0.3314 -0.3959 -0.6150
  269poe    c23 3225   4.305  -0.467   6.879 -0.0937  0.3976  0.2993
  269poe    c23 3226   4.181  -0.553   6.848  0.6926 -0.6058 -0.1325
  269poe     o2 3227   4.064  -0.475   6.833  1.1829  0.1734  0.0480
  269poe    c31 3228   3.952  -0.560   6.835  0.9685  0.4555  0.0499
  270poe    c31 3229   1.476   4.483   4.138  0.4150 -0.2773  0.6781
  270poe     o2 3230   1.360   4.559   4.163  0.0138 -0.5578 -0.2931
  270poe    c23 3231   1.253   4.470   4.145 -0.1986 -0.4096  0.2172
  270poe    c23 3232   1.123   4.511   4.216 -0.2340  0.4478 -0.3344
  270poe     o2 3233   1.119   4.649   4.184 -0.2466  0.4869 -0.1650
  270poe    c23 3234   1.009   4.718   4.239 -0.3223  0.0414  0.2607
  270poe    c23 3235   1.025   4.857   4.173  0.5183 -0.3374 -0.3599
  270poe     o2 3236   1.161   4.887   4.194  0.3905 -0.5182  0.8323
  270poe    c23 3237   1.202   4.990   4.106  0.1925 -0.4804  0.7835
  270poe    c23 3238   1.355   4.983   4.089  0.1170 -0.0991 -0.1509
  270poe     o2 3239   1.396   4.848   4.075  0.5761 -0.0288  0.4512
  270poe    c31 3240   1.533   4.846   4.105  0.5579  0.0266  0.5375
  271poe    c31 3241   3.083   5.375   1.706  0.6967 -0.2861 -0.1538
  271poe     o2 3242   3.130   5.423   1.830 -0.1273  0.4009 -0.0945
  271poe    c23 3243   3.048   5.531   1.869  0.1084  0.7534 -0.5681
  271poe    c23 3244   3.083   5.580   2.011  0.1620 -1.1038  0.0872
  271poe     o2 3245   3.221   5.603   1.997  0.1293 -0.8446  0.1905
  271poe    c23 3246   3.293   5.640   2.113  0.2740  0.7182 -0.3715
  271poe    c23 3247   3.440   5.605   2.082  0.0687 -0.5990  0.0485
  271poe     o2 3248   3.453   5.475   2.032 -0.5705 -0.4483 -0.5168
  271poe    c23 3249   3.580   5.438   1.981 -0.1992  0.4311 -0.2370
  271poe    c23 3250   3.558   5.292   1.938  0.6835  0.4501 -0.7707
  271poe     o2 3251   3.436   5.286   1.866  0.3308 -0.4793 -0.1028
  271poe    c31 3252   3.402   5.153   1.834 -0.0305 -0.3952 -0.0705
  272poe    c31 3253   4.855   5.940   3.446  0.0196  0.1918 -0.6324
  272poe     o2 3254   4.975   5.867   3.437  0.0737  0.1157  0.4975
  272poe    c23 3255   5.001   5.827   3.304 -0.0207  0.3123  0.4198
  272poe    c23 3256   5.150   5.796   3.286 -0.2438 -0.2814 -0.4461
  272poe     o2 3257   5.179   5.705   3.389 -0.0478  0.3175  0.0317
  272poe    c23 3258   5.315   5.693   3.425 -0.1021 -0.5112 -0.0265
  272poe    c23 3259   5.340   5.592   3.539  0.1201 -0.4288 -0.0025
  272poe     o2 3260   5.240   5.608   3.638  0.2301 -0.2304  0.0783
  272poe    c23 3261   5.264   5.698   3.743 -0.2514 -0.5684  0.4839
  272poe    c23 3262   5.126   5.714   3.808 -0.4413 -0.6608  0.1045
  272poe     o2 3263   5.040   5.743   3.700 -0.0405 -0.1280 -0.0718
  272poe    c31 3264   4.925   5.769   3.776 -0.1980 -0.2279 -0.2762
  273poe    c31 3265   0.078   5.235   0.836 -0.3682  0.6685  0.1957
  273poe     o2 3266   0.166   5.275   0.734 -0.1155  0.2031  0.2270
  273poe    c23 3267   0.185   5.179   0.632  0.2853 -0.2449  0.7169
  273poe    c23 3268   0.300   5.203   0.532  0.2221 -0.7090  0.5301
  273poe     o2 3269   0.418   5.233   0.604  0.0506  0.7398  0.2423
  273poe    c23 3270   0.525   5.199   0.519 -0.1431  0.4206  0.1250
  273poe    c23 3271   0.649   5.243   0.599  0.1807  0.6312 -0.4821
  273poe     o2 3272   0.621   5.356   0.679  0.4122  0.2037  0.2066
  273poe    c23 3273   0.749   5.407   0.709  0.4181  0.2525  0.0970
  273poe    c23 3274   0.739   5.527   0.804  0.3011  0.0099  0.3920
  273poe     o2 3275   0.670   5.504   0.925 -0.4038 -0.0174 -0.0058
  273poe    c31 3276   0.692   5.618   1.004 -0.4460  0.0846 -0.1410
  274poe    c31 3277   5.867   0.225   6.530 -1.1984 -0.0639 -0.3025
  274poe     o2 3278   5.808   0.218   6.658  0.2824 -0.4293  0.3870
  274poe    c23 3279   5.738   0.098   6.687  0.0847 -0.3765  0.1317
  274poe    c23 3280   5.612   0.120   6.773 -0.3261 -0.3367 -0.4687
  274poe     o2 3281   5.629   0.239   6.847 -0.2409 -0.4004 -0.3855
  274poe    c23 3282   5.518   0.276   6.926  0.1447  0.4778 -0.2426
  274poe    c23 3283   5.585   0.364   7.033  0.5718 -0.5334  0.3364
  274poe     o2 3284   5.677   0.453   6.976  0.1857 -0.0945  0.3978
  274poe    c23 3285   5.786   0.482   7.060  0.1987 -0.1740  0.4077
  274poe    c23 3286   5.908   0.405   7.005 -0.2927 -0.3470 -0.4461
  274poe     o2 3287   5.900   0.408   6.864  0.0928  0.6549 -0.4531
  274poe    c31 3288   6.029   0.433   6.813  0.5259 -0.1695  0.2196
  275poe    c31 3289   2.461   1.012   1.807  0.4604 -0.6031 -0.6951
  275poe     o2 3290   2.418   1.128   1.740 -0.1684 -0.4458 -0.0433
  275poe    c23 3291   2.289   1.176   1.772  0.1443  0.2367  0.2191
  275poe    c23 3292   2.260   1.290   1.674 -0.4929  0.0360  0.1688
  275poe     o2 3293   2.380   1.364   1.671 -0.4641  0.0048  0.5571
  275poe    c23 3294   2.371   1.486   1.601 -0.5144  0.0186  0.5879
  275poe    c23 3295   2.511   1.536   1.562 -0.4276 -0.5489  0.1533
  275poe     o2 3296   2.591   1.425   1.528  0.2634 -0.0360  0.0817
  275poe    c23 3297   2.577   1.377   1.396  0.7609  0.1912 -0.0565
  275poe    c23 3298   2.623   1.231   1.398 -0.3621 -0.1692  0.2244
  275poe     o2 3299   2.605   1.184   1.529 -0.3911 -0.5425  0.0885
  275poe    c31 3300   2.670   1.059   1.533  0.0997 -0.2873  0.0972
  276poe    c31 3301   0.837   0.883   4.661  0.4121 -0.4755  0.0265
  276poe     o2 3302   0.954   0.954   4.629  0.1729 -0.1497 -0.1265
  276poe    c23 3303   1.026   0.989   4.746  0.4179 -0.5248 -0.1626
  276poe    c23 3304   1.158   1.050   4.695  0.2545 -0.3668 -0.4017
  276poe     o2 3305   1.114   1.159   4.618  0.7889  0.0219 -0.1566
  276poe    c23 3306   1.218   1.227   4.550  0.6176  0.0311 -0.4093
  276poe    c23 3307   1.167   1.269   4.411  0.3398 -0.3809 -0.4318
  276poe     o2 3308   1.083   1.170   4.354  0.0344 -0.2107 -0.2802
  276poe    c23 3309   0.999   1.219   4.252 -0.3402 -0.1425  0.0585
  276poe    c23 3310   0.904   1.101   4.222 -0.0990 -0.4527  0.4948
  276poe     o2 3311   0.848   1.032   4.331 -0.3740 -0.3839  0.3972
  276poe    c31 3312   0.798   0.914   4.272 -0.4657 -0.3046  0.3158
  277poe    c31 3313   0.862   1.456   0.100 -0.0383 -0.4612 -0.5017
  277poe     o2 3314   0.915   1.564   0.027 -0.5819  0.2669  0.1670
  277poe    c23 3315   0.973   1.650   0.122  0.1750 -0.1346  0.0754
  277poe    c23 3316   1.061   1.757   0.057  0.0005  0.1039  0.2288
  277poe     o2 3317   1.156   1.691  -0.023  0.1403  0.1782  0.3332
  277poe    c23 3318   1.228   1.784  -0.102  0.0894 -0.0341  0.0354
  277poe    c23 3319   1.285   1.699  -0.217 -0.6060  0.8324 -0.9720
  277poe     o2 3320   1.189   1.597  -0.236  0.4636 -0.3925 -0.0211
  277poe    c23 3321   1.235   1.501  -0.327  0.8649 -0.1895 -0.0347
  277poe    c23 3322   1.123   1.396  -0.322  0.4989  0.2324  0.8497
  277poe     o2 3323   1.066   1.398  -0.193  0.0378  0.3762  0.6441
  277poe    c31 3324   0.959   1.307  -0.181  0.4027 -0.1561 -0.0482
  278poe    c31 3325   4.741   6.183   0.476  0.2608 -0.0126  0.0112
  278poe     o2 3326   4.866   6.129   0.441 -0.0685 -0.4140 -0.5713
  278poe    c23 3327   4.936   6.080   0.553 -0.4063 -0.1932 -0.2603
  278poe    c23 3328   5.020   6.187   0.625  0.0430 -0.4070 -0.4643
  278poe     o2 3329   5.132   6.233   0.552  0.0828 -0.1124 -0.2179
  278poe    c23 3330   5.215   6.308   0.638  0.4038 -0.5265 -0.1598
  278poe    c23 3331   5.338   6.363   0.564  0.0185 -0.5684 -0.8414
  278poe     o2 3332   5.305   6.440   0.451  0.2958  0.2171 -0.3973
  278poe    c23 3333   5.424   6.484   0.388  0.5155 -0.4648 -0.4723
  278poe    c23 3334   5.393   6.548   0.252  0.0030  0.0826 -0.1060
  278poe     o2 3335   5.279   6.628   0.271  0.1043  0.1255  0.3303
  278poe    c31 3336   5.250   6.690   0.148 -0.1707  0.2026  0.4321
  279poe    c31 3337   2.682   4.037   4.319  0.1327  0.1983 -0.1400
  279poe     o2 3338   2.655   3.926   4.235 -0.2267 -0.5024  0.8812
  279poe    c23 3339   2.536   3.939   4.161  0.3036  0.1123  0.1182
  279poe    c23 3340   2.504   3.827   4.060 -0.6015  0.3395  0.1432
  279poe     o2 3341   2.613   3.808   3.972 -0.6185 -0.0227  0.2012
  279poe    c23 3342   2.596   3.701   3.882 -0.6754  0.5717 -0.5074
  279poe    c23 3343   2.727   3.664   3.810 -0.1855 -0.0575  0.6745
  279poe     o2 3344   2.819   3.684   3.915  0.0839  0.2301  0.3827
  279poe    c23 3345   2.955   3.697   3.881  0.0424  0.0586  0.1481
  279poe    c23 3346   3.031   3.728   4.011  0.0176 -0.3192  0.2543
  279poe     o2 3347   2.949   3.787   4.109  0.0381  0.2974 -0.0951
  279poe    c31 3348   3.015   3.790   4.233  0.4326  0.0011 -0.2978
  280poe    c31 3349   2.367   5.208   3.415  0.0230  0.8093 -0.4780
  280poe     o2 3350   2.456   5.164   3.315 -0.0738  0.1109 -0.2567
  280poe    c23 3351   2.387   5.118   3.201 -0.0162  0.0571 -0.2697
  280poe    c23 3352   2.314   5.223   3.115  0.3984  0.2791 -0.3556
  280poe     o2 3353   2.246   5.179   3.000  0.4428  0.0235 -0.2863
  280poe    c23 3354   2.107   5.208   3.003  0.4768  0.1263  0.5900
  280poe    c23 3355   2.037   5.148   2.879  0.2014  0.8198  0.4071
  280poe     o2 3356   2.126   5.148   2.769  0.1903 -0.2007  0.3904
  280poe    c23 3357   2.088   5.068   2.660 -0.0595  0.4796 -0.0262
  280poe    c23 3358   2.202   5.082   2.557 -0.3013  0.4835 -0.2972
  280poe     o2 3359   2.325   5.079   2.627 -0.0605 -0.0826 -0.7440
  280poe    c31 3360   2.435   5.081   2.538  0.3359 -0.3139 -0.2599
  281poe    c31 3361   6.166   1.674   4.416 -0.0028 -0.3740  0.3684
  281poe     o2 3362   6.125   1.778   4.502  0.0026 -0.2279  0.1961
  281poe    c23 3363   6.088   1.731   4.630 -0.3520 -0.2555  0.0834
  281poe    c23 3364   5.949   1.793   4.658  0.1401  0.7688  0.3050
  281poe     o2 3365   5.934   1.906   4.575  0.7056  0.3920 -0.3213
  281poe    c23 3366   5.837   1.994   4.625  0.2285  0.0954 -0.7154
  281poe    c23 3367   5.867   2.143   4.599 -0.5908  0.4028  0.0560
  281poe     o2 3368   5.928   2.169   4.475 -0.2480  0.2097  0.1843
  281poe    c23 3369   6.042   2.251   4.462  0.2933 -0.5766 -0.1470
  281poe    c23 3370   6.170   2.180   4.508  0.2522 -0.4414  0.1857
  281poe     o2 3371   6.183   2.049   4.457 -0.3331 -0.4267 -0.0093
  281poe    c31 3372   6.320   2.023   4.436 -0.1029 -0.0201  0.9308
  282poe    c31 3373   0.345   2.300   3.988  0.0020 -0.2974 -0.4171
  282poe     o2 3374   0.216   2.315   4.042  0.1471  0.2265 -0.2100
  282poe    c23 3375   0.199   2.444   4.095  0.0677  0.0428  0.2183
  282poe    c23 3376   0.055   2.495   4.075 -0.0244 -0.2594  0.1187
  282poe     o2 3377  -0.018   2.383   4.121 -0.2217 -0.1294  0.1240
  282poe    c23 3378  -0.154   2.393   4.084 -0.2405  0.1282  0.2608
  282poe    c23 3379  -0.212   2.256   4.044 -0.1488  0.2301 -0.2236
  282poe     o2 3380  -0.098   2.183   4.004  0.0021  0.3485 -0.0104
  282poe    c23 3381  -0.139   2.051   3.977  0.1122  0.3127 -0.0041
  282poe    c23 3382  -0.021   2.002   3.892  0.0521  0.1817 -0.0119
  282poe     o2 3383   0.090   2.055   3.961 -0.1705  0.4627  0.1301
  282poe    c31 3384   0.207   1.985   3.923 -0.3734  0.0420  0.2829
  283poe    c31 3385   1.422   2.968   1.618  0.0012  0.2518 -0.0345
  283poe     o2 3386   1.364   3.089   1.574 -0.4820  0.0419  0.0255
  283poe    c23 3387   1.224   3.102   1.589 -0.4632 -0.2347  0.4657
  283poe    c23 3388   1.179   3.235   1.524  0.0622 -0.2390  0.0885
  283poe     o2 3389   1.223   3.231   1.390 -0.2363 -0.1907 -0.0108
  283poe    c23 3390   1.202   3.349   1.317  0.9959  0.0772  0.0553
  283poe    c23 3391   1.276   3.323   1.184  0.1612 -0.7725 -0.2534
  283poe     o2 3392   1.401   3.275   1.228  0.5004  0.4044  0.1117
  283poe    c23 3393   1.482   3.251   1.115  0.0297 -0.5402 -0.0336
  283poe    c23 3394   1.616   3.220   1.184  0.0590  0.2765  0.2934
  283poe     o2 3395   1.601   3.127   1.289  0.2479 -0.1074 -0.0161
  283poe    c31 3396   1.728   3.078   1.329  0.3761  0.3035  0.0814
  284poe    c31 3397   5.811   0.720   2.445  0.4835  0.1272 -0.0261
  284poe     o2 3398   5.672   0.730   2.462  0.3768 -0.2794 -0.6413
  284poe    c23 3399   5.625   0.605   2.509 -0.4132 -0.0009 -0.6656
  284poe    c23 3400   5.475   0.596   2.540 -0.3577  0.0686 -0.3770
  284poe     o2 3401   5.414   0.630   2.417 -0.2547  0.7408 -0.2503
  284poe    c23 3402   5.283   0.679   2.426 -0.4505  0.2522 -0.4005
  284poe    c23 3403   5.292   0.829   2.462 -0.2558  0.2131 -0.2849
  284poe     o2 3404   5.388   0.889   2.377 -0.3442 -0.1441 -0.6440
  284poe    c23 3405   5.391   1.029   2.362  0.9876 -0.1218 -0.2695
  284poe    c23 3406   5.504   1.063   2.263  0.2698  0.1262 -1.0098
  284poe     o2 3407   5.609   0.978   2.301 -0.1428 -0.0989 -0.3557
  284poe    c31 3408   5.737   1.039   2.301  0.2177 -0.8308  0.2701
  285poe    c31 3409   4.004   1.895   5.723 -0.4253  0.3837 -0.3386
  285poe     o2 3410   4.046   2.026   5.752  0.1349  0.1158  0.0759
  285poe    c23 3411   3.950   2.067   5.846  0.2110 -0.2985  0.3356
  285poe    c23 3412   3.965   2.216   5.883  0.1095  0.0652 -1.0331
  285poe     o2 3413   4.094   2.250   5.837  0.8005  0.0297  0.8003
  285poe    c23 3414   4.136   2.383   5.860  0.1354  0.3560  0.1675
  285poe    c23 3415   4.290   2.376   5.861  0.1182 -0.2050 -0.3176
  285poe     o2 3416   4.333   2.269   5.780 -0.4681 -0.6530 -0.0480
  285poe    c23 3417   4.377   2.316   5.655 -0.3296 -0.4234  0.0861
  285poe    c23 3418   4.383   2.199   5.555  0.2618 -0.4719  0.1714
  285poe     o2 3419   4.261   2.131   5.577 -0.1287  0.0570 -0.3306
  285poe    c31 3420   4.199   2.092   5.457 -0.4124  0.5759 -0.3551
  286poe    c31 3421   4.534   0.506   2.629  0.0835  0.2626 -0.0402
  286poe     o2 3422   4.464   0.555   2.741 -0.1355 -0.1974  0.0272
  286poe    c23 3423   4.387   0.666   2.700  0.6706  0.4649  0.2788
  286poe    c23 3424   4.336   0.759   2.811 -0.2521  0.0862  0.1769
  286poe     o2 3425   4.321   0.673   2.922 -0.0826 -0.0995  0.0561
  286poe    c23 3426   4.300   0.743   3.043  0.4160  0.1968 -0.0284
  286poe    c23 3427   4.311   0.628   3.145  0.6474 -0.0511 -0.3305
  286poe     o2 3428   4.425   0.556   3.104  0.7624 -0.2022  0.2555
  286poe    c23 3429   4.424   0.431   3.171 -0.1803 -0.4614 -0.2206
  286poe    c23 3430   4.537   0.352   3.103 -0.2557 -0.7991  0.0454
  286poe     o2 3431   4.528   0.351   2.962  0.4457  0.7358 -0.0287
  286poe    c31 3432   4.644   0.296   2.904  0.0342 -0.5222  0.3247
  287poe    c31 3433   4.701   5.816   1.954  0.7058  0.4015  0.6817
  287poe     o2 3434   4.652   5.777   2.081  0.4143 -0.9641  0.1683
  287poe    c23 3435   4.676   5.639   2.098  0.1166 -1.0094  0.2191
  287poe    c23 3436   4.626   5.619   2.242  0.6202  0.1315  0.5692
  287poe     o2 3437   4.523   5.711   2.271  0.3304  0.0195 -0.1022
  287poe    c23 3438   4.457   5.690   2.394  0.2865  0.1535 -0.1021
  287poe    c23 3439   4.380   5.821   2.417 -0.0539 -0.0400 -0.1473
  287poe     o2 3440   4.460   5.923   2.363 -0.4406 -0.0723 -0.7907
  287poe    c23 3441   4.393   6.047   2.372 -0.2665 -0.0044 -0.3916
  287poe    c23 3442   4.483   6.135   2.284  0.4945 -0.2191  0.1673
  287poe     o2 3443   4.529   6.050   2.181 -0.1982 -0.2626 -0.1093
  287poe    c31 3444   4.610   6.128   2.096 -0.4537  0.2213  0.0823
  288poe    c31 3445   6.384   4.014   3.925  0.6441  1.3137 -0.4007
  288poe     o2 3446   6.487   4.039   4.018  0.4865  0.3241  0.0534
  288poe    c23 3447   6.537   4.169   3.996  0.4411  0.3941  0.3602
  288poe    c23 3448   6.571   4.240   4.128 -0.0778  0.1730  0.6147
  288poe     o2 3449   6.653   4.151   4.200 -0.2126 -0.2033  0.3065
  288poe    c23 3450   6.647   4.167   4.340 -0.3333  0.3320  0.2402
  288poe    c23 3451   6.536   4.081   4.403  0.1976 -0.3855  0.2112
  288poe     o2 3452   6.546   3.962   4.328  0.1502 -0.1104 -0.2353
  288poe    c23 3453   6.445   3.868   4.354  0.3217 -0.1376  0.3359
  288poe    c23 3454   6.473   3.738   4.276 -0.1056 -0.0627  0.0593
  288poe     o2 3455   6.509   3.774   4.144 -0.1999 -0.0703  0.0317
  288poe    c31 3456   6.509   3.662   4.058  0.4424  0.3473 -0.5187
  289poe    c31 3457   0.775   2.032   1.247 -0.3045 -0.5312  0.1040
  289poe     o2 3458   0.823   2.124   1.152 -0.3784 -0.1743  0.4121
  289poe    c23 3459   0.875   2.050   1.044  0.1644  0.5888  0.1346
  289poe    c23 3460   0.922   2.148   0.936 -0.0021  0.3978 -0.1138
  289poe     o2 3461   1.000   2.253   0.990  0.2428 -0.0588  0.4296
  289poe    c23 3462   1.003   2.368   0.909 -0.0164  0.0491  0.5727
  289poe    c23 3463   1.027   2.494   0.995  0.2741 -0.1103  0.7269
  289poe     o2 3464   0.944   2.467   1.106 -0.1197  0.2071  0.5144
  289poe    c23 3465   0.970   2.549   1.218  0.0821  0.0379  0.5923
  289poe    c23 3466   0.860   2.511   1.319 -0.3262  0.0685  0.1623
  289poe     o2 3467   0.844   2.370   1.317 -0.0403  0.0366  0.0734
  289poe    c31 3468   0.764   2.333   1.426 -0.3549  0.0052 -0.1658
  290poe    c31 3469   5.784   6.717   5.159  0.5043  0.5454  0.1109
  290poe     o2 3470   5.848   6.817   5.234  0.1322  0.1894  0.9163
  290poe    c23 3471   5.982   6.826   5.192 -0.1146 -0.2724  0.0159
  290poe    c23 3472   6.059   6.928   5.279  0.0381 -0.2702 -0.1218
  290poe     o2 3473   6.037   6.898   5.415  0.1047  0.0143 -0.0485
  290poe    c23 3474   6.072   7.007   5.497 -0.0871 -0.0838  0.1619
  290poe    c23 3475   5.994   6.962   5.623 -0.5698 -0.8586 -0.4017
  290poe     o2 3476   5.866   6.925   5.578 -0.7368 -0.7462 -0.0247
  290poe    c23 3477   5.767   7.013   5.624 -0.2267 -0.3734  0.3630
  290poe    c23 3478   5.637   6.965   5.558 -0.3422  0.6117 -0.1472
  290poe     o2 3479   5.681   6.943   5.426  0.1089 -0.3570  0.1546
  290poe    c31 3480   5.566   6.897   5.358  0.2204 -0.1559 -0.1764
  291poe    c31 3481   4.982   3.302   3.025  0.0548  0.0396 -0.3367
  291poe     o2 3482   4.885   3.261   2.930 -0.4280 -0.3094  0.2950
  291poe    c23 3483   4.842   3.380   2.869 -0.1075 -0.0607  0.5459
  291poe    c23 3484   4.723   3.329   2.786  0.1123  0.0701  0.1466
  291poe     o2 3485   4.770   3.213   2.721  0.1521  0.2863 -0.2130
  291poe    c23 3486   4.666   3.142   2.658  0.2575  0.0031 -0.0703
  291poe    c23 3487   4.702   2.993   2.642  0.4630  0.1209 -0.7227
  291poe     o2 3488   4.739   2.963   2.774 -0.2258  0.1116 -0.5275
  291poe    c23 3489   4.797   2.836   2.793  0.0437  0.2726 -0.2681
  291poe    c23 3490   4.851   2.820   2.937  0.0757  0.1322 -0.2951
  291poe     o2 3491   4.922   2.940   2.951  0.2954 -0.0369  0.0483
  291poe    c31 3492   4.970   2.939   3.084  0.9715  0.8936 -0.1745
  292poe    c31 3493   3.897   2.398   6.666 -0.3122  0.6096 -0.6049
  292poe     o2 3494   3.835   2.308   6.576  0.2435 -0.1258 -0.2638
  292poe    c23 3495   3.784   2.400   6.482 -0.3652 -0.4952 -0.3041
  292poe    c23 3496   3.756   2.321   6.353 -0.5368  0.4996 -0.8838
  292poe     o2 3497   3.696   2.197   6.385  0.6580  0.1454  0.0365
  292poe    c23 3498   3.689   2.110   6.275  0.9095  0.1613  0.0059
  292poe    c23 3499   3.710   1.970   6.337 -0.1845  0.0333  0.1150
  292poe     o2 3500   3.819   1.989   6.424 -0.0259 -0.0676 -0.0618
  292poe    c23 3501   3.886   1.873   6.467 -0.0722 -0.1654 -0.2517
  292poe    c23 3502   3.998   1.912   6.565 -0.2760 -0.2633  0.0216
  292poe     o2 3503   3.971   2.030   6.638 -0.0074 -0.3519  0.2687
  292poe    c31 3504   4.089   2.060   6.709  0.2115 -0.0258 -0.2299
  293poe    c31 3505   0.739   1.281   1.039  0.6486 -0.2089 -0.1878
  293poe     o2 3506   0.840   1.269   0.941  0.8013  0.9783 -0.1841
  293poe    c23 3507   0.880   1.136   0.914 -0.0534  0.6165  0.2927
  293poe    c23 3508   0.980   1.126   0.798 -0.2561 -0.7653  0.2290
  293poe     o2 3509   0.947   1.227   0.705  0.2587 -0.4664  0.3674
  293poe    c23 3510   1.026   1.228   0.588 -0.1524  0.2712  0.0963
  293poe    c23 3511   0.964   1.343   0.505 -0.3165 -0.0292 -0.1980
  293poe     o2 3512   0.941   1.442   0.603  0.2214 -0.1344  0.0386
  293poe    c23 3513   0.875   1.554   0.550  1.0165  0.1777 -0.3116
  293poe    c23 3514   0.857   1.650   0.669 -0.1872 -0.2130 -0.1628
  293poe     o2 3515   0.805   1.571   0.773  0.1438 -0.1115  0.0808
  293poe    c31 3516   0.766   1.662   0.873  0.2887 -0.0261  0.0596
  294poe    c31 3517   4.651   5.724   3.183 -0.1181 -0.1704 -0.7246
  294poe     o2 3518   4.521   5.768   3.150 -0.2708  0.4006  0.6007
  294poe    c23 3519   4.523   5.909   3.138  0.4291  0.3438  0.0225
  294poe    c23 3520   4.373   5.941   3.127  0.5320  0.6670 -0.4674
  294poe     o2 3521   4.293   5.855   3.049 -0.1374  0.7650  0.0971
  294poe    c23 3522   4.311   5.882   2.912 -0.5480  0.2293 -0.0646
  294poe    c23 3523   4.266   5.754   2.839  0.0488 -0.2512  0.4004
  294poe     o2 3524   4.367   5.672   2.894 -0.2579 -0.6793  0.3299
  294poe    c23 3525   4.361   5.551   2.822  0.1952 -0.4219 -0.1419
  294poe    c23 3526   4.477   5.476   2.891  0.1503  0.1615  0.5770
  294poe     o2 3527   4.485   5.501   3.029  0.5727  0.1416  0.5588
  294poe    c31 3528   4.535   5.395   3.106 -0.9654 -1.0856 -0.0822
  295poe    c31 3529   3.316   2.678   3.326 -0.3366 -0.6442 -0.1828
  295poe     o2 3530   3.200   2.730   3.387 -0.1449 -0.7305  0.2646
  295poe    c23 3531   3.085   2.665   3.338 -0.4092  0.1064 -0.2518
  295poe    c23 3532   2.958   2.738   3.386  0.0409  0.4444  0.4425
  295poe     o2 3533   2.994   2.773   3.518 -0.2827 -0.2449  0.7131
  295poe    c23 3534   2.891   2.857   3.564 -0.0182  0.4256  0.0990
  295poe    c23 3535   2.951   2.946   3.675 -0.0905  0.4222  0.1410
  295poe     o2 3536   3.080   2.959   3.620 -0.2512  0.1167 -0.3162
  295poe    c23 3537   3.155   3.066   3.673 -0.0099 -0.1175 -0.1832
  295poe    c23 3538   3.289   3.054   3.597  0.1246  0.1191  0.0145
  295poe     o2 3539   3.335   2.925   3.565  0.0799  0.0251  0.3281
  295poe    c31 3540   3.464   2.904   3.618  0.0121  0.4758  0.6768
  296poe    c31 3541   4.985   4.699   3.080 -0.3040 -0.8063  0.0469
  296poe     o2 3542   4.880   4.788   3.111  0.4363  0.0059  0.2546
  296poe    c23 3543   4.911   4.872   3.220 -0.2777  0.5286  0.0659
  296poe    c23 3544   4.805   4.981   3.202 -0.2233  0.5144 -0.3492
  296poe     o2 3545   4.690   4.900   3.198  0.2212 -0.1260 -0.3444
  296poe    c23 3546   4.563   4.951   3.234  0.2264 -0.5490  0.2760
  296poe    c23 3547   4.471   4.855   3.156 -0.3983  0.1677  0.1258
  296poe     o2 3548   4.543   4.802   3.047 -0.8660  0.3589 -0.2824
  296poe    c23 3549   4.475   4.691   2.994 -0.2291  0.1928 -0.7678
  296poe    c23 3550   4.555   4.639   2.874  0.3964 -0.2266 -0.1783
  296poe     o2 3551   4.692   4.617   2.900  0.3818 -0.2647 -0.1351
  296poe    c31 3552   4.749   4.536   2.800  0.3688 -0.0119 -0.3476
  297poe    c31 3553   6.717   0.959   4.387  0.2338 -0.2160 -0.3771
  297poe     o2 3554   6.652   0.928   4.508  0.3844 -0.4412 -0.3536
  297poe    c23 3555   6.747   0.931   4.612 -0.3540 -0.1576  0.3231
  297poe    c23 3556   6.693   0.843   4.726  0.5113  0.0769  0.9231
  297poe     o2 3557   6.565   0.896   4.752 -0.1564 -1.2415  0.4010
  297poe    c23 3558   6.509   0.872   4.879 -0.4296  0.0406  0.5369
  297poe    c23 3559   6.359   0.902   4.862 -0.3417  0.2494  0.1165
  297poe     o2 3560   6.332   0.812   4.756 -0.3488  0.1885  0.1702
  297poe    c23 3561   6.216   0.831   4.678 -0.4484 -0.2536  0.2083
  297poe    c23 3562   6.247   0.764   4.543  0.2132 -0.0158  0.2389
  297poe     o2 3563   6.368   0.819   4.497  0.0241  0.0744 -0.1521
  297poe    c31 3564   6.370   0.779   4.361 -0.3128  0.0757 -0.1585
  298poe    c31 3565   0.685   3.382   4.549  0.2594  0.1573  0.1157
  298poe     o2 3566   0.684   3.370   4.409 -0.5381  0.3539  0.0972
  298poe    c23 3567   0.588   3.277   4.363  0.0209 -0.1919  0.0210
  298poe    c23 3568   0.505   3.337   4.248 -0.0150 -0.0078  0.1419
  298poe     o2 3569   0.590   3.418   4.170  0.1115 -0.0312  0.2550
  298poe    c23 3570   0.509   3.498   4.086 -0.1161 -0.0315  0.4725
  298poe    c23 3571   0.597   3.612   4.034 -0.0766 -0.0649  0.4658
  298poe     o2 3572   0.664   3.644   4.154  0.0222 -0.1885  0.4430
  298poe    c23 3573   0.746   3.758   4.162 -0.2502  0.1081 -0.8023
  298poe    c23 3574   0.752   3.767   4.316  0.8505 -0.0119 -0.8317
  298poe     o2 3575   0.792   3.645   4.373 -0.1210 -0.0356 -0.1892
  298poe    c31 3576   0.846   3.677   4.499  0.2709 -0.7478 -0.1684
  299poe    c31 3577   4.090   5.136   2.099 -0.1775  0.3192  0.4304
  299poe     o2 3578   4.026   5.010   2.105 -0.1492  0.2609 -0.3018
  299poe    c23 3579   3.899   5.022   2.044 -0.3287 -0.2136 -0.0252
  299poe    c23 3580   3.824   4.896   2.093 -0.4524 -0.0961  0.0886
  299poe     o2 3581   3.920   4.794   2.075 -0.6451 -0.2987  0.2160
  299poe    c23 3582   3.865   4.667   2.101 -0.4321 -0.3817  0.2584
  299poe    c23 3583   3.998   4.594   2.131 -0.2158 -0.0503  0.1065
  299poe     o2 3584   4.089   4.672   2.205 -0.3029  0.2815 -0.1348
  299poe    c23 3585   4.226   4.640   2.197 -0.2977  0.4421 -0.8404
  299poe    c23 3586   4.301   4.747   2.279  0.1054  0.0342 -0.6662
  299poe     o2 3587   4.258   4.873   2.232 -0.3822 -0.0030 -0.3320
  299poe    c31 3588   4.325   4.966   2.314 -0.4466  0.3150 -0.6360
  300poe    c31 3589   2.053   2.468   6.332  0.4414  0.2732  0.4265
  300poe     o2 3590   2.038   2.605   6.302  0.2227  0.0774 -0.3941
  300poe    c23 3591   1.987   2.631   6.174  0.3552  0.3516 -0.3931
  300poe    c23 3592   1.967   2.783   6.160 -0.1690  0.3387  0.1841
  300poe     o2 3593   2.086   2.846   6.205  0.1165  0.2085 -0.3821
  300poe    c23 3594   2.087   2.985   6.185 -0.2723  0.2998  0.2021
  300poe    c23 3595   2.176   3.036   6.301 -0.4471  0.4103  0.2874
  300poe     o2 3596   2.157   2.958   6.417 -0.3488 -0.4052 -0.2356
  300poe    c23 3597   2.063   3.021   6.502  0.3584  0.4224 -0.0549
  300poe    c23 3598   2.040   2.914   6.610 -0.9460  0.1976 -0.5322
  300poe     o2 3599   2.004   2.793   6.548 -0.3991 -0.3107  0.1256
  300poe    c31 3600   1.961   2.698   6.643  0.2017 -0.0840  0.6300
  301poe    c31 3601   3.114   3.609   0.308  0.3999  0.4024 -0.9134
  301poe     o2 3602   3.127   3.691   0.422 -0.8501  0.0589 -0.5090
  301poe    c23 3603   3.165   3.818   0.373 -0.0697  0.0365  0.0177
  301poe    c23 3604   3.099   3.937   0.444  0.5607  0.4931 -0.1512
  301poe     o2 3605   3.116   3.889   0.575 -0.1333  0.7267  0.0306
  301poe    c23 3606   3.048   3.959   0.677 -0.5263 -0.1989  0.4201
  301poe    c23 3607   3.115   3.899   0.802  0.3757 -0.5231 -0.2073
  301poe     o2 3608   3.108   3.759   0.782 -0.0632 -0.5059 -0.1888
  301poe    c23 3609   3.190   3.690   0.874 -0.3777 -0.0838  0.4234
  301poe    c23 3610   3.213   3.550   0.812 -0.1685  0.3265 -0.4435
  301poe     o2 3611   3.211   3.570   0.673 -0.4890  0.2846 -0.4449
  301poe    c31 3612   3.233   3.445   0.611  0.3096  0.2226 -0.0468
  302poe    c31 3613   1.919   4.549   6.522 -0.0782  0.2334  0.3539
  302poe     o2 3614   1.848   4.428   6.540  0.5649 -0.2499 -0.2741
  302poe    c23 3615   1.817   4.378   6.412 -0.0065 -0.5433 -0.0261
  302poe    c23 3616   1.753   4.238   6.416 -0.1961 -0.4556  0.0254
  302poe     o2 3617   1.741   4.197   6.551 -0.4506  0.0888  0.1698
  302poe    c23 3618   1.630   4.110   6.558 -0.8833  0.5658 -0.5103
  302poe    c23 3619   1.612   4.075   6.707  0.2093  0.3164 -0.4242
  302poe     o2 3620   1.615   4.189   6.789 -0.3152  0.1857 -0.2152
  302poe    c23 3621   1.582   4.145   6.919 -0.6165  0.4498 -0.1994
  302poe    c23 3622   1.592   4.229   7.047  0.1654 -0.3319  0.2672
  302poe     o2 3623   1.499   4.334   7.032 -0.0879 -0.5998 -0.0543
  302poe    c31 3624   1.519   4.429   7.135 -0.3955  0.0575 -0.5898
  303poe    c31 3625   5.811   3.212   6.693 -0.3709 -0.3427 -0.0144
  303poe     o2 3626   5.905   3.186   6.591 -0.3752  0.3913 -0.2075
  303poe    c23 3627   5.908   3.308   6.519 -1.2004  0.2808 -0.4386
  303poe    c23 3628   5.952   3.256   6.381  0.0182 -0.4991  0.2202
  303poe     o2 3629   6.080   3.199   6.391 -0.0410 -0.6280  0.2354
  303poe    c23 3630   6.129   3.139   6.274  0.2094 -0.3102  0.1760
  303poe    c23 3631   6.264   3.089   6.328  0.8655  0.3272 -0.8313
  303poe     o2 3632   6.243   3.014   6.446  0.5050  0.5471 -0.7554
  303poe    c23 3633   6.345   3.041   6.539  0.1273 -0.2385 -0.1068
  303poe    c23 3634   6.283   3.006   6.676  0.2096  0.3149  0.0719
  303poe     o2 3635   6.165   3.080   6.695 -0.1386 -0.3825  0.6575
  303poe    c31 3636   6.135   3.069   6.833  0.0338  0.3669  0.7570
  304poe    c31 3637   4.750   4.197   0.821 -0.0692  0.0494 -0.0454
  304poe     o2 3638   4.658   4.299   0.785 -0.0273  0.3423  0.6548
  304poe    c23 3639   4.742   4.394   0.724 -0.0810 -0.2076 -0.3017
  304poe    c23 3640   4.643   4.509   0.695  0.1570  0.2212  0.5616
  304poe     o2 3641   4.542   4.445   0.620 -0.2518  0.4349  0.9259
  304poe    c23 3642   4.427   4.527   0.623 -0.5557  0.0415  0.2977
  304poe    c23 3643   4.305   4.460   0.559  0.1392 -0.5245 -0.4618
  304poe     o2 3644   4.325   4.333   0.615  0.3263 -0.4070 -0.2597
  304poe    c23 3645   4.216   4.246   0.640  0.3841 -0.3561  0.1810
  304poe    c23 3646   4.239   4.188   0.780 -0.0514 -0.4921  0.1979
  304poe     o2 3647   4.377   4.158   0.780 -0.0810 -0.6656 -0.9596
  304poe    c31 3648   4.411   4.091   0.899 -0.3855 -0.6430 -0.8582
  305poe    c31 3649   3.967   4.136   6.120 -0.3434  0.3513  0.1867
  305poe     o2 3650   3.883   4.154   6.007  0.3464  0.0507 -0.3793
  305poe    c23 3651   3.857   4.029   5.949 -0.1808  0.0033 -0.0513
  305poe    c23 3652   3.766   4.036   5.825 -0.4182 -0.0933  0.1170
  305poe     o2 3653   3.694   4.156   5.841 -0.6750 -0.2536  0.1729
  305poe    c23 3654   3.650   4.193   5.713  0.5816  0.0392 -0.1944
  305poe    c23 3655   3.619   4.344   5.718 -0.5869 -0.1920 -0.0357
  305poe     o2 3656   3.732   4.389   5.789 -0.5339 -0.1605 -0.1392
  305poe    c23 3657   3.757   4.527   5.779  0.4073 -0.2892  0.2666
  305poe    c23 3658   3.864   4.568   5.881 -0.0030  0.2033  0.5074
  305poe     o2 3659   3.856   4.470   5.983 -0.2374  0.1078  0.3968
  305poe    c31 3660   3.936   4.495   6.096 -0.1292  0.5543  0.2249
  306poe    c31 3661   1.903   3.589   6.466  0.4069  0.5126  0.0437
  306poe     o2 3662   1.801   3.609   6.370  0.4228 -0.0294 -0.0902
  306poe    c23 3663   1.747   3.731   6.415  0.7930  0.1338 -0.0838
  306poe    c23 3664   1.634   3.768   6.317  0.0352 -0.4201  0.5737
  306poe     o2 3665   1.577   3.644   6.284 -0.1084 -0.2892  0.3238
  306poe    c23 3666   1.474   3.637   6.188  0.1954 -0.4520  0.0062
  306poe    c23 3667   1.546   3.614   6.055  0.3576 -0.4892  0.1010
  306poe     o2 3668   1.642   3.514   6.082  0.3017 -0.4966  0.2690
  306poe    c23 3669   1.740   3.502   5.982 -0.0931  0.2169 -0.2103
  306poe    c23 3670   1.851   3.413   6.040 -0.3007  0.2172  0.1917
  306poe     o2 3671   1.870   3.442   6.177  0.6844  0.8219 -0.0573
  306poe    c31 3672   1.995   3.389   6.214  0.0157 -0.9966 -0.3026
  307poe    c31 3673   6.336   1.527   0.393 -0.0346 -0.3209 -1.0251
  307poe     o2 3674   6.198   1.505   0.415  0.0264  0.0399 -0.2494
  307poe    c23 3675   6.203   1.402   0.512  0.1587  0.1447 -0.1448
  307poe    c23 3676   6.071   1.332   0.550  0.0141  0.6408  0.2768
  307poe     o2 3677   5.984   1.338   0.440 -0.1940  0.3232  0.4254
  307poe    c23 3678   5.869   1.256   0.447  0.0958 -0.1608 -0.2321
  307poe    c23 3679   5.780   1.295   0.327  0.1483 -0.1531 -0.2683
  307poe     o2 3680   5.820   1.427   0.296 -0.3392  0.1651  0.4390
  307poe    c23 3681   5.752   1.488   0.189 -0.3991  0.2552  0.5287
  307poe    c23 3682   5.831   1.620   0.178 -0.2062  0.0734 -0.3323
  307poe     o2 3683   5.959   1.602   0.234 -0.1799  0.6268 -0.2090
  307poe    c31 3684   6.056   1.690   0.181  0.4633  0.3774  0.5442
  308poe    c31 3685   2.737   5.480   3.302 -0.1239 -0.0684 -0.2293
  308poe     o2 3686   2.620   5.557   3.317  0.2685  0.4997 -0.0658
  308poe    c23 3687   2.534   5.539   3.207  0.1321 -0.0080  0.1181
  308poe    c23 3688   2.390   5.579   3.242 -0.0551 -0.1351 -0.4917
  308poe     o2 3689   2.405   5.702   3.309 -0.4038 -0.2132 -0.2673
  308poe    c23 3690   2.289   5.781   3.319  0.2342  0.7459 -0.3885
  308poe    c23 3691   2.288   5.858   3.453  0.2132 -0.7876  0.5069
  308poe     o2 3692   2.420   5.892   3.489 -0.0044  0.4374  0.1976
  308poe    c23 3693   2.483   6.005   3.435 -0.2392  0.3884 -0.1836
  308poe    c23 3694   2.632   5.969   3.417 -0.3546  0.0168 -0.3804
  308poe     o2 3695   2.656   5.838   3.369 -0.2786  0.0608 -0.4601
  308poe    c31 3696   2.777   5.849   3.296  0.2910 -0.2823  0.4233
  309poe    c31 3697   5.337   0.817   0.208  0.5276  0.0713  0.2460
  309poe     o2 3698   5.437   0.890   0.140 -0.0220  0.5494 -0.0556
  309poe    c23 3699   5.554   0.872   0.217  0.0450 -0.1607 -0.3154
  309poe    c23 3700   5.677   0.927   0.142  0.0001  0.7166  0.2441
  309poe     o2 3701   5.629   1.053   0.099 -0.6792  0.1847 -0.5875
  309poe    c23 3702   5.720   1.120   0.015 -0.3319  0.2896 -0.1366
  309poe    c23 3703   5.631   1.223  -0.057 -0.1500  0.4813 -0.0857
  309poe     o2 3704   5.518   1.150  -0.100 -0.0364  0.0216  0.3916
  309poe    c23 3705   5.425   1.226  -0.174  0.0831 -0.1677  0.0463
  309poe    c23 3706   5.327   1.116  -0.219 -0.1960  0.1632 -0.1601
  309poe     o2 3707   5.312   1.018  -0.119 -0.0436  0.6168  0.3090
  309poe    c31 3708   5.245   0.908  -0.175 -0.1113  0.8829 -0.1337
  310poe    c31 3709   5.054   5.881   1.731  0.3346 -0.2490  0.2740
  310poe     o2 3710   5.052   6.011   1.784 -0.6667 -0.0456 -0.2238
  310poe    c23 3711   5.020   6.001   1.921  0.3856  0.1915  0.0486
  310poe    c23 3712   5.110   6.099   1.999  0.3926  0.2123  0.0141
  310poe     o2 3713   5.169   6.191   1.909 -0.4105  0.2303 -0.5007
  310poe    c23 3714   5.300   6.233   1.940 -0.4978  0.2638 -0.1841
  310poe    c23 3715   5.349   6.318   1.822  0.0360  0.6373  0.2977
  310poe     o2 3716   5.288   6.254   1.711  0.4806  0.4376  0.1660
  310poe    c23 3717   5.368   6.182   1.619 -0.4885 -0.9901  0.4125
  310poe    c23 3718   5.276   6.183   1.495  0.4292  0.0609 -0.2853
  310poe     o2 3719   5.156   6.118   1.533  0.1723  0.4518 -0.4292
  310poe    c31 3720   5.095   6.064   1.418 -0.0275 -0.2453  0.0047
  311poe    c31 3721   4.429   2.218   1.623  0.3342 -0.6881 -0.5755
  311poe     o2 3722   4.502   2.207   1.744 -0.0510 -0.3531 -0.3120
  311poe    c23 3723   4.475   2.074   1.781 -0.0706 -0.3874 -0.4475
  311poe    c23 3724   4.535   2.043   1.919 -0.2513  0.0345 -0.2723
  311poe     o2 3725   4.587   2.166   1.965 -0.3395 -0.1661  0.3750
  311poe    c23 3726   4.585   2.184   2.105 -0.2647 -0.6901  0.4451
  311poe    c23 3727   4.631   2.325   2.145 -0.5649 -0.5072  0.1527
  311poe     o2 3728   4.587   2.399   2.033  0.1908 -0.4779 -0.1348
  311poe    c23 3729   4.623   2.534   2.013 -0.0003 -0.4085 -0.0171
  311poe    c23 3730   4.538   2.580   1.894 -0.2518  0.2341  0.4079
  311poe     o2 3731   4.572   2.489   1.792  0.0475  0.5310  0.2418
  311poe    c31 3732   4.545   2.538   1.662 -0.1058 -0.6498 -0.1801
  312poe    c31 3733   6.533   6.488   6.154 -0.2205 -0.4429  0.8359
  312poe     o2 3734   6.462   6.491   6.276 -0.4363 -0.5179  0.7145
  312poe    c23 3735   6.480   6.607   6.356  0.4486 -0.1974  0.0675
  312poe    c23 3736   6.398   6.606   6.486 -0.2005 -0.0179 -0.3363
  312poe     o2 3737   6.267   6.570   6.450 -0.2446 -0.1662 -0.0332
  312poe    c23 3738   6.164   6.591   6.543 -0.1423 -0.0240  0.0465
  312poe    c23 3739   6.036   6.528   6.485 -0.1978  0.3336 -0.2270
  312poe     o2 3740   6.060   6.535   6.346  0.3316  0.0767 -0.1521
  312poe    c23 3741   5.962   6.482   6.260 -0.2507  0.7535  0.0852
  312poe    c23 3742   6.010   6.526   6.120 -0.0815  0.4297  0.0397
  312poe     o2 3743   6.150   6.505   6.111 -0.1222  0.0028  0.3887
  312poe    c31 3744   6.196   6.552   5.987 -0.7045  0.0407  0.1827
  313poe    c31 3745   6.607   1.233   6.690 -0.8684  0.1552 -0.8803
  313poe     o2 3746   6.690   1.288   6.591 -0.0759  0.2250 -0.1873
  313poe    c23 3747   6.732   1.175   6.517 -0.2076 -0.0155  0.1051
  313poe    c23 3748   6.719   1.208   6.367  0.4886 -0.2768 -0.0160
  313poe     o2 3749   6.761   1.342   6.356 -0.0603 -0.0785  0.2737
  313poe    c23 3750   6.664   1.417   6.286  0.2525 -0.2080 -0.3005
  313poe    c23 3751   6.707   1.564   6.292 -0.7031  0.0654  0.1007
  313poe     o2 3752   6.719   1.584   6.431  0.2888  0.1016  0.0157
  313poe    c23 3753   6.770   1.713   6.457  0.1419  0.0293  0.6563
  313poe    c23 3754   6.791   1.690   6.608  0.3388  0.6099  0.7227
  313poe     o2 3755   6.831   1.558   6.637 -0.7937  0.1158  0.1089
  313poe    c31 3756   6.838   1.545   6.777  0.2457  0.6205  0.1107
  314poe    c31 3757   1.362   3.892   5.811  0.2103 -0.1631  0.0641
  314poe     o2 3758   1.229   3.906   5.767  0.3426  0.3780 -0.1661
  314poe    c23 3759   1.153   3.922   5.884 -0.0470 -0.1969 -0.3371
  314poe    c23 3760   1.013   3.983   5.861  0.3566  0.6890 -0.4749
  314poe     o2 3761   0.941   3.897   5.776  0.2592  0.6885 -0.3915
  314poe    c23 3762   0.829   3.960   5.717 -0.0053  0.4628 -0.1361
  314poe    c23 3763   0.829   3.921   5.568  0.6953 -0.5821  0.1262
  314poe     o2 3764   0.966   3.926   5.536  0.5912 -0.2679 -0.2770
  314poe    c23 3765   0.995   3.894   5.401  0.0423 -0.0797 -0.4413
  314poe    c23 3766   1.146   3.885   5.375  0.3710  1.1921  0.8171
  314poe     o2 3767   1.208   3.800   5.469 -0.2903 -0.2025  0.0275
  314poe    c31 3768   1.345   3.790   5.439 -0.1907  0.4532  0.2450
  315poe    c31 3769   3.243   0.761   6.088  0.6328  0.0024  0.4355
  315poe     o2 3770   3.310   0.645   6.046  0.0868 -0.1445 -0.0446
  315poe    c23 3771   3.221   0.568   5.969  0.0058 -0.0034 -0.0920
  315poe    c23 3772   3.289   0.430   5.956  0.2660  0.0631  0.5104
  315poe     o2 3773   3.428   0.427   5.937  0.1945  0.0793 -0.0524
  315poe    c23 3774   3.451   0.420   5.798 -0.3715 -0.3761 -0.1251
  315poe    c23 3775   3.550   0.525   5.744 -0.0325 -0.5774  0.0945
  315poe     o2 3776   3.514   0.640   5.819  0.1166 -0.2296 -0.3604
  315poe    c23 3777   3.589   0.750   5.774 -0.2622  0.0800 -0.2375
  315poe    c23 3778   3.553   0.855   5.881 -0.1989 -0.3527  0.2121
  315poe     o2 3779   3.557   0.800   6.010  0.1666 -0.1613  0.2826
  315poe    c31 3780   3.649   0.855   6.102  0.2115  0.3833 -0.0878
  316poe    c31 3781   5.843   6.264   3.207  0.3618 -0.4868 -0.3309
  316poe     o2 3782   5.891   6.362   3.118  0.8527  0.0128  0.4741
  316poe    c23 3783   5.947   6.300   3.005 -0.3658  0.1652 -0.2216
  316poe    c23 3784   6.009   6.412   2.919  0.0876 -0.2063 -0.3833
  316poe     o2 3785   5.931   6.529   2.908  0.3178 -0.0402 -0.2369
  316poe    c23 3786   6.007   6.647   2.914 -0.0238  0.1370  0.8287
  316poe    c23 3787   5.921   6.771   2.946  0.3207  0.4673  0.4740
  316poe     o2 3788   5.850   6.711   3.051 -0.3791  0.3067 -0.0815
  316poe    c23 3789   5.828   6.804   3.155  0.8064  0.2601  0.2238
  316poe    c23 3790   5.734   6.744   3.261  0.0862  0.1686 -0.4592
  316poe     o2 3791   5.800   6.625   3.301  0.0695  0.3513  0.1286
  316poe    c31 3792   5.719   6.550   3.389 -0.1741  0.5274  0.0573
  317poe    c31 3793   1.868   0.599   4.166 -0.2066  0.2861  0.1818
  317poe     o2 3794   1.813   0.690   4.258 -0.1332  0.1182  0.3940
  317poe    c23 3795   1.843   0.639   4.385 -1.1129 -0.4807  0.3908
  317poe    c23 3796   1.817   0.758   4.479  0.3790  0.3492 -0.2190
  317poe     o2 3797   1.712   0.834   4.424 -0.0226  0.0877  0.1771
  317poe    c23 3798   1.699   0.951   4.501  0.4040  0.3333 -0.1160
  317poe    c23 3799   1.625   1.057   4.418  0.3258  0.2558 -0.1457
  317poe     o2 3800   1.692   1.033   4.296 -0.6664 -0.6616 -0.5208
  317poe    c23 3801   1.656   1.118   4.190  0.3855 -0.0731 -0.4193
  317poe    c23 3802   1.720   1.051   4.067  0.2380 -0.4645 -0.2851
  317poe     o2 3803   1.725   0.911   4.079  0.3026 -0.3962  0.5373
  317poe    c31 3804   1.785   0.865   3.959  0.1800  0.1817  0.2508
  318poe    c31 3805   6.320   0.190   3.860  0.1480  0.7915  0.1790
  318poe     o2 3806   6.194   0.153   3.810  0.4578 -0.1131  0.0323
  318poe    c23 3807   6.188   0.016   3.779  0.3756 -0.0524 -0.2276
  318poe    c23 3808   6.069  -0.012   3.686 -0.3906  0.0676  0.7097
  318poe     o2 3809   5.975   0.087   3.722 -0.2170  0.4288  0.1675
  318poe    c23 3810   5.871   0.091   3.627 -0.4365  0.4667  0.4075
  318poe    c23 3811   5.797   0.224   3.650 -0.3515  0.6158 -0.1660
  318poe     o2 3812   5.891   0.328   3.667  0.1792  0.0454  0.4549
  318poe    c23 3813   5.839   0.432   3.746 -0.1886  0.3654 -0.1976
  318poe    c23 3814   5.965   0.514   3.778 -0.1115  0.1452  0.0617
  318poe     o2 3815   6.057   0.426   3.839  0.2983  0.2532 -0.4009
  318poe    c31 3816   6.158   0.498   3.906  0.1127  0.5182 -0.4040
  319poe    c31 3817   3.007   4.361   1.780  0.3589 -0.1947  0.3804
  319poe     o2 3818   3.088   4.329   1.669 -0.0679 -0.1294  0.0445
  319poe    c23 3819   3.013   4.262   1.571 -0.1770  0.3627 -0.2137
  319poe    c23 3820   3.081   4.275   1.434 -0.0523  0.3813 -0.1498
  319poe     o2 3821   3.219   4.242   1.436 -0.0419  0.4620  0.5181
  319poe    c23 3822   3.292   4.258   1.317 -0.5100 -0.1178  0.1477
  319poe    c23 3823   3.435   4.238   1.371 -0.3451 -0.4270 -0.3910
  319poe     o2 3824   3.438   4.312   1.491 -0.2547 -0.3553 -0.4368
  319poe    c23 3825   3.543   4.265   1.572 -0.6136 -0.4187 -0.0009
  319poe    c23 3826   3.509   4.309   1.716 -0.1119 -0.3344  0.0951
  319poe     o2 3827   3.371   4.291   1.739 -0.2827  0.5034 -0.2725
  319poe    c31 3828   3.359   4.360   1.861  0.4067 -0.0375  0.1054
  320poe    c31 3829   5.025   1.824   2.129 -0.0909 -0.0317  0.0276
  320poe     o2 3830   5.026   1.684   2.140 -0.0439  0.0408  1.0402
  320poe    c23 3831   4.892   1.642   2.125  0.1462 -0.1758 -0.0994
  320poe    c23 3832   4.894   1.496   2.078  0.4245 -0.1068 -0.3064
  320poe     o2 3833   4.971   1.446   2.185  0.1003  0.0697  0.0115
  320poe    c23 3834   4.989   1.309   2.215 -0.0261  0.0320 -0.0818
  320poe    c23 3835   5.017   1.307   2.366  0.0708 -0.2970 -0.1044
  320poe     o2 3836   5.120   1.403   2.376  0.0189 -0.2680  0.1535
  320poe    c23 3837   5.131   1.465   2.502 -0.3509  0.6682 -0.2720
  320poe    c23 3838   5.234   1.578   2.486  0.1413  0.2016 -0.4143
  320poe     o2 3839   5.215   1.646   2.364  0.2147  0.2218 -0.4148
  320poe    c31 3840   5.294   1.762   2.351 -0.2832  0.6519  0.3576
  321poe    c31 3841   1.311   2.667   3.776 -0.6874  0.1542  0.4211
  321poe     o2 3842   1.348   2.793   3.723 -0.3526 -0.1699 -0.1204
  321poe    c23 3843   1.388   2.787   3.588 -0.5231  0.3063 -0.1936
  321poe    c23 3844   1.390   2.930   3.532 -0.4988  0.3030 -0.2013
  321poe     o2 3845   1.410   3.024   3.635 -0.6456  0.3727 -0.2365
  321poe    c23 3846   1.355   3.153   3.617  0.1788  0.8542  0.6156
  321poe    c23 3847   1.377   3.214   3.757 -0.1447  0.7702  0.7043
  321poe     o2 3848   1.346   3.108   3.845 -0.1453 -0.0149 -0.2213
  321poe    c23 3849   1.356   3.147   3.980 -0.4166 -0.3385 -0.1058
  321poe    c23 3850   1.320   3.023   4.063 -0.2662 -0.5642 -0.3771
  321poe     o2 3851   1.375   2.913   3.993  0.2127 -0.3115 -0.4070
  321poe    c31 3852   1.389   2.803   4.080  0.2018  0.5092  0.6553
  322poe    c31 3853   6.103   6.234   2.289  0.1403  0.0283  0.0765
  322poe     o2 3854   6.136   6.344   2.372  0.4191  0.0861 -0.1095
  322poe    c23 3855   6.031   6.383   2.457  0.5697  0.6680 -0.1910
  322poe    c23 3856   6.070   6.512   2.533  0.0716  0.4390  0.4631
  322poe     o2 3857   6.209   6.503   2.555  0.0212 -0.0899  0.5803
  322poe    c23 3858   6.258   6.618   2.620  0.1909  0.5079 -0.5791
  322poe    c23 3859   6.395   6.574   2.676 -0.5949 -0.3331  0.7606
  322poe     o2 3860   6.465   6.519   2.567 -0.0722  0.2166  0.8130
  322poe    c23 3861   6.575   6.434   2.593 -0.2170 -0.2331 -0.0121
  322poe    c23 3862   6.598   6.367   2.456  0.1561  0.0740 -0.1001
  322poe     o2 3863   6.482   6.310   2.401  0.1413  0.2804 -0.2853
  322poe    c31 3864   6.530   6.230   2.295 -0.0903 -0.1384 -0.0779
  323poe    c31 3865   3.962   1.750   4.274  0.4303 -0.1760 -0.5274
  323poe     o2 3866   3.875   1.657   4.215 -0.3272 -0.0182  0.3185
  323poe    c23 3867   3.943   1.565   4.132 -0.5891  0.0875 -0.0166
  323poe    c23 3868   3.844   1.464   4.070 -0.2107 -0.3416  0.0713
  323poe     o2 3869   3.752   1.442   4.174 -0.2055 -0.5871  0.0234
  323poe    c23 3870   3.647   1.361   4.125 -0.9740  0.4309 -0.0411
  323poe    c23 3871   3.553   1.352   4.246 -0.0202 -0.2258  0.6689
  323poe     o2 3872   3.548   1.483   4.297  0.2040  0.1652 -0.2920
  323poe    c23 3873   3.518   1.489   4.435  0.5366  0.3736 -0.2250
  323poe    c23 3874   3.529   1.639   4.464 -0.2872  0.3783  0.1038
  323poe     o2 3875   3.644   1.698   4.406 -0.0309 -0.1104  0.1120
  323poe    c31 3876   3.613   1.835   4.413  0.2374 -0.0354 -0.1832
  324poe    c31 3877   1.869   1.510   6.408 -0.5906 -1.3524  0.2490
  324poe     o2 3878   1.886   1.460   6.278 -0.1827 -0.0891 -0.1943
  324poe    c23 3879   1.902   1.320   6.281  0.6539  0.0051  0.0269
  324poe    c23 3880   1.961   1.260   6.152  0.1625 -0.0978 -0.1510
  324poe     o2 3881   1.885   1.332   6.058 -0.1581 -0.3697 -0.1037
  324poe    c23 3882   1.916   1.315   5.922 -0.0519  0.4246 -0.1860
  324poe    c23 3883   1.821   1.421   5.863 -0.5461  0.0467 -0.0816
  324poe     o2 3884   1.846   1.538   5.938 -0.5215 -0.1413  0.2057
  324poe    c23 3885   1.803   1.663   5.889  0.3548  0.1611  0.1913
  324poe    c23 3886   1.860   1.758   5.996 -0.2076  0.0548  0.5865
  324poe     o2 3887   1.863   1.710   6.128 -0.0896 -0.1160  0.5206
  324poe    c31 3888   1.862   1.815   6.222 -0.0171  0.6340 -0.3141
  325poe    c31 3889   3.583   0.165   5.148 -0.4228  0.3260  0.3452
  325poe     o2 3890   3.480   0.138   5.056  0.0485 -0.1612 -0.0453
  325poe    c23 3891   3.497   0.193   4.927 -0.0133  0.1696  0.0866
  325poe    c23 3892   3.388   0.144   4.830  0.1928  0.3544 -0.2395
  325poe     o2 3893   3.269   0.131   4.905  0.3361  0.2909 -0.0235
  325poe    c23 3894   3.154   0.093   4.833  0.3717  0.9864 -0.4575
  325poe    c23 3895   3.045   0.063   4.938  0.6569  0.0906 -0.4106
  325poe     o2 3896   3.110   0.027   5.058 -0.0267 -0.3194 -0.1549
  325poe    c23 3897   3.031  -0.011   5.168 -0.0283 -0.2361 -0.1280
  325poe    c23 3898   3.120  -0.099   5.257 -0.1523  0.4585  0.6966
  325poe     o2 3899   3.248  -0.040   5.261  0.1554 -0.1550  0.0890
  325poe    c31 3900   3.343  -0.140   5.291  0.1112 -0.0689  0.5250
  326poe    c31 3901   0.120   4.315   6.064  0.6838 -0.1520  0.4236
  326poe     o2 3902   0.100   4.352   6.199  0.5262 -0.1779  0.4080
  326poe    c23 3903   0.096   4.493   6.199 -0.0993 -0.1911  0.1676
  326poe    c23 3904   0.052   4.542   6.338  0.0331  0.1520  0.0914
  326poe     o2 3905   0.125   4.457   6.423 -0.4825 -0.3792  0.0119
  326poe    c23 3906   0.133   4.515   6.552  0.6892  0.4113 -0.4013
  326poe    c23 3907   0.253   4.448   6.621 -0.0291 -0.1720  0.3026
  326poe     o2 3908   0.245   4.307   6.632 -0.3644 -0.1670  0.1510
  326poe    c23 3909   0.359   4.231   6.600  0.0674  0.4985  0.0849
  326poe    c23 3910   0.366   4.164   6.462 -0.5429  0.3971  0.1033
  326poe     o2 3911   0.328   4.247   6.354  0.2851  0.1035 -0.4242
  326poe    c31 3912   0.424   4.345   6.323  0.0262  0.6280  0.3888
  327poe    c31 3913   1.035   1.815   1.432  0.1214  0.8397 -0.1510
  327poe     o2 3914   1.155   1.764   1.488 -0.3319  0.3115  0.3557
  327poe    c23 3915   1.219   1.679   1.395 -0.4260  0.1781  0.4127
  327poe    c23 3916   1.368   1.663   1.427 -0.2871  0.4922 -0.0616
  327poe     o2 3917   1.369   1.668   1.568 -0.5615 -0.5372 -0.0163
  327poe    c23 3918   1.502   1.678   1.614 -0.5629 -0.2559 -0.0675
  327poe    c23 3919   1.498   1.714   1.764  0.0688 -0.7177  0.0647
  327poe     o2 3920   1.389   1.802   1.780  0.4005 -0.2224 -0.3477
  327poe    c23 3921   1.327   1.777   1.904  0.7377 -0.1475 -0.1648
  327poe    c23 3922   1.210   1.678   1.885  0.0031  0.6682  0.0569
  327poe     o2 3923   1.120   1.732   1.791 -0.0530  0.0632 -0.2456
  327poe    c31 3924   0.988   1.687   1.812 -0.1536  0.3989 -0.1412
  328poe    c31 3925   2.693   1.227   2.962 -0.4272  0.2577 -0.3583
  328poe     o2 3926   2.759   1.261   2.842 -0.0954  0.4140 -0.1318
  328poe    c23 3927   2.870   1.340   2.878  0.2407  0.0079 -0.2692
  328poe    c23 3928   2.909   1.421   2.753 -0.3330  0.2897 -0.2688
  328poe     o2 3929   2.924   1.322   2.654 -0.8238 -0.2427  0.1822
  328poe    c23 3930   2.935   1.395   2.534  0.6639 -0.4558  0.1763
  328poe    c23 3931   2.903   1.295   2.421 -1.4226  0.8192 -0.4172
  328poe     o2 3932   2.797   1.225   2.481 -0.7060 -0.0426 -0.1212
  328poe    c23 3933   2.778   1.116   2.394  0.2324 -0.5505  0.2931
  328poe    c23 3934   2.664   1.043   2.467 -0.0461  0.1808  0.5956
  328poe     o2 3935   2.696   1.051   2.604  0.2244  0.4696  0.5169
  328poe    c31 3936   2.582   1.021   2.681 -0.0698  0.4168  0.0638
  329poe    c31 3937   6.606   2.428   6.427  0.0149 -0.3820  0.3998
  329poe     o2 3938   6.485   2.408   6.358  0.3166  0.0283 -0.2723
  329poe    c23 3939   6.406   2.296   6.392  0.1345  0.1528 -0.2871
  329poe    c23 3940   6.349   2.220   6.270 -0.4702 -0.3140  0.2810
  329poe     o2 3941   6.286   2.321   6.194  0.2459 -0.2088 -0.1729
  329poe    c23 3942   6.225   2.282   6.073  0.1310 -0.0046 -0.1810
  329poe    c23 3943   6.176   2.412   6.007 -0.2963 -0.2290 -0.3093
  329poe     o2 3944   6.287   2.497   5.993  0.0183 -0.6581 -0.4305
  329poe    c23 3945   6.253   2.628   5.955 -0.3319 -0.5898  0.1133
  329poe    c23 3946   6.376   2.716   5.983 -0.4988 -0.4033  0.2669
  329poe     o2 3947   6.411   2.700   6.119  0.5903 -0.1537  0.0304
  329poe    c31 3948   6.502   2.796   6.166 -0.2381  0.3973  0.5372
  330poe    c31 3949   1.172   3.238   1.949 -0.1368  0.5917  0.5136
  330poe     o2 3950   1.081   3.154   2.016  0.2645 -0.3245 -0.0624
  330poe    c23 3951   1.012   3.074   1.923 -0.0630  0.1182 -0.2043
  330poe    c23 3952   0.873   3.051   1.983  0.1928 -0.2729  0.2494
  330poe     o2 3953   0.878   3.034   2.122 -0.3837 -0.2303  0.2817
  330poe    c23 3954   0.751   3.003   2.174 -0.3290 -0.0471  0.5260
  330poe    c23 3955   0.757   3.045   2.322  0.5351 -0.3053  0.5732
  330poe     o2 3956   0.823   3.170   2.324 -0.0493  0.0221 -0.1350
  330poe    c23 3957   0.846   3.217   2.455 -0.6753  0.1310 -0.0590
  330poe    c23 3958   0.942   3.334   2.427  0.0784 -0.4730 -0.0410
  330poe     o2 3959   1.030   3.309   2.320  0.0257  0.3930 -0.2987
  330poe    c31 3960   1.134   3.402   2.298  0.3784 -0.0925 -0.7054
  331poe    c31 3961   4.861   3.396   5.947  0.6575  0.5767 -0.0277
  331poe     o2 3962   4.952   3.321   5.870  0.3940  0.2735 -0.0514
  331poe    c23 3963   5.059   3.411   5.853 -0.0564  0.9191  0.4925
  331poe    c23 3964   5.194   3.340   5.830 -0.4356  0.4024 -0.1511
  331poe     o2 3965   5.178   3.239   5.732 -0.3295  0.5975 -0.3696
  331poe    c23 3966   5.266   3.130   5.741 -0.7064  0.3190 -0.0329
  331poe    c23 3967   5.204   3.019   5.654  0.7009 -0.9906  0.5791
  331poe     o2 3968   5.073   3.011   5.704  0.4816 -0.9022  0.0278
  331poe    c23 3969   4.989   2.938   5.618 -0.6283  0.3094  0.0346
  331poe    c23 3970   4.862   2.924   5.704  0.0086 -0.8023  0.8246
  331poe     o2 3971   4.850   3.054   5.758  0.2434 -0.4571  0.0519
  331poe    c31 3972   4.723   3.072   5.816  0.2111 -0.3340 -0.0563
  332poe    c31 3973   5.349   5.278   4.818  0.0750 -0.0171  0.2970
  332poe     o2 3974   5.430   5.378   4.875  0.1975  0.0773 -0.0433
  332poe    c23 3975   5.538   5.311   4.936  0.1173  0.2791  0.3240
  332poe    c23 3976   5.620   5.409   5.021 -0.5435  0.6011  0.5973
  332poe     o2 3977   5.658   5.511   4.931  0.3193 -0.1972  0.0309
  332poe    c23 3978   5.705   5.620   5.007  0.0767 -0.0770  0.0097
  332poe    c23 3979   5.698   5.740   4.910  0.5083  0.1094  0.2087
  332poe     o2 3980   5.575   5.711   4.848  0.4774 -0.0053  0.3234
  332poe    c23 3981   5.542   5.786   4.734 -0.6233 -0.1045  0.5682
  332poe    c23 3982   5.420   5.720   4.668 -0.2857  0.0513 -0.2210
  332poe     o2 3983   5.447   5.583   4.687 -0.4254  0.0351 -0.1382
  332poe    c31 3984   5.460   5.519   4.562  0.5125  0.1442 -0.0998
  333poe    c31 3985   4.793   0.948   0.520 -0.2918 -0.1790 -0.2424
  333poe     o2 3986   4.791   0.844   0.616 -0.0106  0.3695  0.3633
  333poe    c23 3987   4.658   0.815   0.651 -0.2270  0.5005 -0.3325
  333poe    c23 3988   4.654   0.710   0.763  0.1375  0.7658 -0.0681
  333poe     o2 3989   4.763   0.723   0.852  0.0258  0.0217  0.1821
  333poe    c23 3990   4.775   0.614   0.941  0.6551 -0.0505  0.0141
  333poe    c23 3991   4.902   0.645   1.023  0.1861  0.1499  0.6758
  333poe     o2 3992   4.985   0.709   0.930 -0.0630 -0.0947  0.2795
  333poe    c23 3993   5.105   0.754   0.989 -0.3272  0.3019  0.5142
  333poe    c23 3994   5.170   0.835   0.875 -0.5914  0.5721  0.5530
  333poe     o2 3995   5.066   0.907   0.814 -0.1923  0.9238  0.2810
  333poe    c31 3996   5.114   1.011   0.732  0.3490 -0.2337 -0.8923
  334poe    c31 3997   6.370   4.125   4.811  0.4801  0.1006  0.0351
  334poe     o2 3998   6.440   4.131   4.933  0.2402 -0.3401  0.1917
  334poe    c23 3999   6.394   4.035   5.026  0.4857 -0.8571 -0.2202
  334poe    c23 4000   6.491   4.050   5.145 -0.2250  0.0624  0.2502
  334poe     o2 4001   6.514   4.188   5.160  0.2379  0.0166 -0.0226
  334poe    c23 4002   6.458   4.232   5.282 -0.0916  0.2471 -0.2550
  334poe    c23 4003   6.472   4.384   5.268  0.5906  0.2167  0.0934
  334poe     o2 4004   6.414   4.404   5.142  0.0815 -0.8138  0.1576
  334poe    c23 4005   6.445   4.535   5.099 -0.7901 -0.7112 -0.1966
  334poe    c23 4006   6.406   4.539   4.950 -0.1121  0.4408 -0.3519
  334poe     o2 4007   6.461   4.437   4.871 -0.6148 -0.2106  0.1280
  334poe    c31 4008   6.435   4.460   4.734 -0.2332  0.4332  0.1627
  335poe    c31 4009   5.649   3.297   4.864 -0.8897  0.1479  0.1140
  335poe     o2 4010   5.692   3.180   4.800 -0.4051  0.0631  0.5933
  335poe    c23 4011   5.599   3.140   4.703  0.0873 -0.6079  0.3855
  335poe    c23 4012   5.667   3.034   4.614 -0.5141 -0.5823 -0.1164
  335poe     o2 4013   5.698   2.917   4.687 -0.2283 -0.2832  0.2398
  335poe    c23 4014   5.785   2.832   4.617 -0.1403 -0.0921  0.1153
  335poe    c23 4015   5.763   2.695   4.684 -0.4932 -0.0827  0.0193
  335poe     o2 4016   5.777   2.722   4.822  0.5591  0.2847 -0.1556
  335poe    c23 4017   5.755   2.605   4.897 -0.0504  0.0974 -0.6173
  335poe    c23 4018   5.764   2.618   5.050  0.0224 -0.5985 -0.5592
  335poe     o2 4019   5.894   2.653   5.093 -0.2651 -0.6645  0.3931
  335poe    c31 4020   5.911   2.693   5.227  0.1377 -0.3879  0.2631
  336poe    c31 4021   4.262   3.634   4.369 -0.0635 -0.4801 -0.4923
  336poe     o2 4022   4.213   3.504   4.392 -0.7366 -0.2896 -0.8319
  336poe    c23 4023   4.308   3.405   4.360  0.0578  0.3432 -0.4526
  336poe    c23 4024   4.241   3.268   4.381  0.4058  0.2640  0.1679
  336poe     o2 4025   4.154   3.275   4.492  0.3479 -0.2538  0.1579
  336poe    c23 4026   4.177   3.160   4.570  0.6043 -0.2488  0.0915
  336poe    c23 4027   4.082   3.164   4.691  0.2592  0.0664 -0.1896
  336poe     o2 4028   4.051   3.298   4.724  0.0370  0.0695 -0.4078
  336poe    c23 4029   3.915   3.312   4.757 -0.0636  0.3327 -0.9212
  336poe    c23 4030   3.842   3.424   4.679 -0.7247  0.3882 -0.2393
  336poe     o2 4031   3.947   3.467   4.596 -0.1619 -0.0625  0.2219
  336poe    c31 4032   3.894   3.530   4.482  0.0429  0.5702  0.4713
  337poe    c31 4033   4.857   5.780   6.155  0.0714 -0.0263 -0.7672
  337poe     o2 4034   4.978   5.817   6.218 -0.2046 -0.0471 -0.2220
  337poe    c23 4035   4.964   5.789   6.356 -0.1617  0.3316 -0.1375
  337poe    c23 4036   5.094   5.831   6.427  0.2503 -0.3504 -0.4790
  337poe     o2 4037   5.195   5.788   6.339  0.0504  0.0007 -0.8833
  337poe    c23 4038   5.325   5.797   6.394 -0.2447  0.3173 -0.2379
  337poe    c23 4039   5.425   5.763   6.282 -0.0997  0.3773 -0.1272
  337poe     o2 4040   5.376   5.815   6.160 -0.1193  0.0141 -0.2732
  337poe    c23 4041   5.435   5.936   6.119  0.0993 -0.0744 -0.2250
  337poe    c23 4042   5.321   5.996   6.034 -0.3112 -0.3304  0.1405
  337poe     o2 4043   5.198   5.960   6.094 -0.3823 -0.4291 -0.0632
  337poe    c31 4044   5.111   6.059   6.045 -0.0438 -0.1885 -0.1886
  338poe    c31 4045   0.453   0.110   6.718  0.1013 -0.3056  0.1186
  338poe     o2 4046   0.540   0.089   6.827  0.0069 -0.0005  0.2550
  338poe    c23 4047   0.624  -0.017   6.788  0.3210  0.4560 -0.3087
  338poe    c23 4048   0.768   0.034   6.809  0.4909 -0.1157 -0.0769
  338poe     o2 4049   0.769   0.118   6.922  0.4251  0.4704 -0.5102
  338poe    c23 4050   0.874   0.102   7.014  0.6186  0.2441 -0.7704
  338poe    c23 4051   0.824   0.179   7.138 -0.1785 -0.8499 -0.3967
  338poe     o2 4052   0.684   0.165   7.135 -0.2774 -0.0629  0.2092
  338poe    c23 4053   0.612   0.219   7.243 -0.3167  0.4376 -0.0622
  338poe    c23 4054   0.471   0.161   7.221 -0.5423  0.9358  0.0497
  338poe     o2 4055   0.448   0.168   7.082  0.0301  0.1483 -0.0944
  338poe    c31 4056   0.311   0.139   7.068  0.1838 -0.6918  0.1250
  339poe    c31 4057   3.588   2.766   6.530  0.3373  0.0184  0.0428
  339poe     o2 4058   3.460   2.790   6.585  0.2556  0.1562 -0.2063
  339poe    c23 4059   3.440   2.737   6.714  0.3689 -0.1043 -0.2961
  339poe    c23 4060   3.402   2.588   6.711 -0.3653  0.0757 -0.2053
  339poe     o2 4061   3.313   2.574   6.602 -0.6283 -0.2769  0.0522
  339poe    c23 4062   3.288   2.439   6.572 -0.1827 -0.2511 -0.4534
  339poe    c23 4063   3.236   2.429   6.428  0.0488  0.0603 -0.5588
  339poe     o2 4064   3.148   2.537   6.409 -0.0813 -0.0049 -0.3304
  339poe    c23 4065   3.133   2.565   6.271  0.0010  0.1026 -0.3179
  339poe    c23 4066   3.135   2.718   6.250 -0.4053  0.1578  0.0353
  339poe     o2 4067   3.216   2.776   6.350 -0.4456  0.1554  0.0696
  339poe    c31 4068   3.248   2.908   6.311  0.4958 -0.1226 -0.1226
  340poe    c31 4069   4.920   0.593   6.526  0.0907 -0.1050  0.0798
  340poe     o2 4070   4.851   0.542   6.638  0.6769 -0.2143  0.3937
  340poe    c23 4071   4.934   0.553   6.752  0.3332  1.0832  0.5330
  340poe    c23 4072   4.847   0.507   6.870  0.5232 -0.2237  0.1865
  340poe     o2 4073   4.790   0.389   6.820  0.3059 -0.1496  0.2556
  340poe    c23 4074   4.705   0.339   6.921  0.0707 -0.0789  0.0938
  340poe    c23 4075   4.595   0.256   6.852 -0.0008  0.2438 -0.1824
  340poe     o2 4076   4.550   0.353   6.760  0.0633 -0.0833 -0.5632
  340poe    c23 4077   4.453   0.304   6.671 -0.5110  0.1163 -0.0514
  340poe    c23 4078   4.437   0.411   6.562  0.1948 -0.1520 -0.4224
  340poe     o2 4079   4.568   0.458   6.538  0.2823 -0.1516  0.0661
  340poe    c31 4080   4.574   0.539   6.423  0.7296 -0.3392 -0.0452
  341poe    c31 4081   3.537   1.309   0.897 -0.1996  0.2609  0.2324
  341poe     o2 4082   3.406   1.353   0.869 -0.2368 -0.0687 -0.1140
  341poe    c23 4083   3.390   1.371   0.730  0.2788 -0.2991 -0.2054
  341poe    c23 4084   3.248   1.350   0.673  0.2783 -0.0596 -0.2949
  341poe     o2 4085   3.170   1.445   0.742  0.3331  0.1980 -0.5867
  341poe    c23 4086   3.034   1.410   0.734  0.4281 -0.3679  0.1438
  341poe    c23 4087   2.977   1.486   0.855 -0.4472 -0.7457 -0.0259
  341poe     o2 4088   3.066   1.442   0.954  0.3498  0.0817 -0.3618
  341poe    c23 4089   3.031   1.476   1.087 -0.3067  0.0706 -0.5308
  341poe    c23 4090   3.134   1.415   1.184 -0.0842  0.5413 -0.4674
  341poe     o2 4091   3.261   1.420   1.124  0.1861  0.4155  0.0867
  341poe    c31 4092   3.361   1.370   1.210 -0.3831 -0.2199  0.3940
  342poe    c31 4093   5.456   5.195   4.135 -0.2946  0.2130  0.2022
  342poe     o2 4094   5.343   5.210   4.052 -0.1866 -0.2498 -0.0283
  342poe    c23 4095   5.372   5.137   3.935  0.0027 -0.4444  0.1394
  342poe    c23 4096   5.256   5.040   3.902 -0.3391 -0.0544  0.1892
  342poe     o2 4097   5.140   5.112   3.938 -0.4183 -0.2777  0.3838
  342poe    c23 4098   5.025   5.059   3.877  0.0824 -0.3607 -0.5135
  342poe    c23 4099   4.906   5.157   3.878  0.2117 -0.2027 -0.0204
  342poe     o2 4100   4.909   5.209   4.009 -0.3183  0.0290 -0.0982
  342poe    c23 4101   4.891   5.348   4.005 -0.4133  0.0084 -0.4163
  342poe    c23 4102   4.972   5.419   4.115 -0.2515 -0.4378 -0.2484
  342poe     o2 4103   5.112   5.403   4.105 -0.2670 -0.1920 -0.8631
  342poe    c31 4104   5.165   5.505   4.186 -0.2995 -0.4350 -0.5324
  343poe    c31 4105   2.844   0.396   4.819  0.0004  1.0605  0.2510
  343poe     o2 4106   2.811   0.411   4.683 -0.2055  0.1260  0.1910
  343poe    c23 4107   2.683   0.372   4.641 -0.1129 -0.1779  0.1927
  343poe    c23 4108   2.619   0.480   4.553 -0.0764 -0.9649 -0.8249
  343poe     o2 4109   2.710   0.517   4.452 -0.1704  0.4027 -0.4432
  343poe    c23 4110   2.708   0.653   4.418  0.1791  0.5098 -0.0345
  343poe    c23 4111   2.841   0.727   4.442  0.0735  0.5799  0.3464
  343poe     o2 4112   2.904   0.667   4.552  0.4224 -0.2912 -0.3138
  343poe    c23 4113   3.019   0.740   4.591 -0.0997  0.2887  0.1655
  343poe    c23 4114   3.067   0.659   4.714  0.8239  0.4758 -0.0655
  343poe     o2 4115   3.089   0.529   4.665 -0.0552  0.0571  0.6321
  343poe    c31 4116   3.223   0.492   4.685 -0.0529 -0.1683  0.2067
  344poe    c31 4117   0.730   4.827   0.430 -0.0571  0.2522  0.1294
  344poe     o2 4118   0.855   4.793   0.374 -0.2039  0.0523 -0.0796
  344poe    c23 4119   0.932   4.754   0.485 -0.0373  0.0052 -0.2109
  344poe    c23 4120   1.074   4.759   0.427 -0.1234 -0.1617 -0.4332
  344poe     o2 4121   1.081   4.688   0.305 -0.4375 -0.4779 -0.2714
  344poe    c23 4122   1.193   4.728   0.228  0.1806 -0.7346  0.4830
  344poe    c23 4123   1.152   4.723   0.080 -0.1429 -0.2373  0.5518
  344poe     o2 4124   1.033   4.797   0.067 -0.1166 -0.3484 -0.4752
  344poe    c23 4125   0.964   4.780  -0.055 -0.0652  0.8255 -0.6701
  344poe    c23 4126   0.824   4.843  -0.051 -0.4325 -0.0189 -0.1466
  344poe     o2 4127   0.785   4.808   0.080 -0.6551  0.3507 -0.1125
  344poe    c31 4128   0.657   4.867   0.092 -0.5899  0.4586  0.0564
  345poe    c31 4129   1.482   0.917   0.216  0.1142 -0.7646  0.2456
  345poe     o2 4130   1.611   0.926   0.160  0.1148  0.0837  0.3662
  345poe    c23 4131   1.604   0.918   0.019  0.4286 -0.6347  0.3858
  345poe    c23 4132   1.750   0.904  -0.028  0.3310 -0.2200 -0.0451
  345poe     o2 4133   1.797   1.031   0.010 -0.0425 -0.0819 -0.0398
  345poe    c23 4134   1.936   1.052  -0.002  0.1358 -1.1064  0.1575
  345poe    c23 4135   1.979   1.153   0.107 -0.6530 -0.5314 -0.0537
  345poe     o2 4136   1.909   1.115   0.223 -0.5305 -0.1433  0.1495
  345poe    c23 4137   1.904   1.212   0.325 -0.1014  0.0324  0.0059
  345poe    c23 4138   1.812   1.154   0.434 -0.4042  0.3307 -0.0880
  345poe     o2 4139   1.702   1.081   0.386 -0.0318 -0.1610 -0.1914
  345poe    c31 4140   1.592   1.079   0.475  0.5566  0.0901  0.5536
  346poe    c31 4141   2.161   6.570   3.012 -0.8720  0.2216 -0.0258
  346poe     o2 4142   2.229   6.448   3.026 -0.4594  0.4698  0.1276
  346poe    c23 4143   2.354   6.472   3.088 -0.1229 -0.2269 -0.2644
  346poe    c23 4144   2.432   6.349   3.038  0.0944 -0.0537 -0.3501
  346poe     o2 4145   2.364   6.228   3.062 -0.1141  0.0903 -0.2139
  346poe    c23 4146   2.431   6.111   3.020  0.3214  0.2202  0.1059
  346poe    c23 4147   2.317   6.031   2.955  0.3515  0.5254 -0.3302
  346poe     o2 4148   2.231   6.125   2.893 -0.2060  0.2957  0.0883
  346poe    c23 4149   2.134   6.076   2.803 -0.0358  0.2361 -0.0634
  346poe    c23 4150   2.068   6.206   2.753 -0.1068  0.0689 -0.4087
  346poe     o2 4151   2.045   6.293   2.862 -0.3768 -0.6772  0.1349
  346poe    c31 4152   1.959   6.398   2.825  0.5952 -0.1403 -0.6498
  347poe    c31 4153   3.724   2.846   3.927  0.5152  0.4374 -0.0399
  347poe     o2 4154   3.831   2.858   4.019  0.3928  0.2771  0.1223
  347poe    c23 4155   3.784   2.920   4.137  0.5425 -0.7893  0.7628
  347poe    c23 4156   3.904   2.979   4.213  0.4231  0.0343  0.3313
  347poe     o2 4157   3.999   2.876   4.204 -0.0863 -0.3652 -0.5260
  347poe    c23 4158   4.135   2.911   4.215 -0.1427 -0.4061  0.3740
  347poe    c23 4159   4.191   2.930   4.072 -0.5129  0.0930  0.2951
  347poe     o2 4160   4.171   2.798   4.028 -0.3412  0.1292  0.1046
  347poe    c23 4161   4.207   2.795   3.892 -0.3734  0.3627  0.0910
  347poe    c23 4162   4.130   2.671   3.843  0.3061  0.1161 -0.3649
  347poe     o2 4163   4.014   2.650   3.919  0.5741 -0.3603 -0.0857
  347poe    c31 4164   3.939   2.539   3.873 -0.2782  0.3121 -0.3591
  348poe    c31 4165   6.138   1.641   5.404  0.0576  0.0835 -0.2913
  348poe     o2 4166   6.025   1.668   5.484  0.1638 -0.3769  0.0145
  348poe    c23 4167   5.947   1.774   5.434 -0.4071 -0.7437  0.1199
  348poe    c23 4168   5.828   1.814   5.523 -0.1153  0.3257  0.0367
  348poe     o2 4169   5.783   1.691   5.573 -0.1512  0.1716 -0.3728
  348poe    c23 4170   5.667   1.707   5.652  0.2801  0.1726  0.2618
  348poe    c23 4171   5.624   1.566   5.696  0.2882  0.1006  0.0384
  348poe     o2 4172   5.748   1.520   5.743  0.4228  0.1847 -0.2331
  348poe    c23 4173   5.761   1.380   5.750  0.8673  0.2275 -0.1766
  348poe    c23 4174   5.909   1.342   5.731  0.6651 -0.4171 -0.5141
  348poe     o2 4175   5.962   1.405   5.617  0.4611  0.2009 -0.2699
  348poe    c31 4176   6.079   1.345   5.567  0.0414 -0.6096 -0.2911
  349poe    c31 4177   0.593   4.398   3.628 -0.1460 -0.7572 -0.8517
  349poe     o2 4178   0.506   4.355   3.731 -0.0587  0.2506 -0.3430
  349poe    c23 4179   0.386   4.333   3.661 -0.2912  0.0635  0.1112
  349poe    c23 4180   0.304   4.223   3.731 -0.4708  0.3141  0.2955
  349poe     o2 4181   0.329   4.278   3.858 -0.1491  0.1509  0.3032
  349poe    c23 4182   0.258   4.199   3.952  0.2622 -0.5524  0.0309
  349poe    c23 4183   0.279   4.282   4.080  0.5592  0.3196 -0.5739
  349poe     o2 4184   0.412   4.322   4.106  0.3809  0.2428  0.5286
  349poe    c23 4185   0.496   4.223   4.162  0.0523 -0.0178  0.5646
  349poe    c23 4186   0.634   4.245   4.098 -0.1155 -0.1844  0.1398
  349poe     o2 4187   0.617   4.219   3.961 -0.0455  0.3027  0.0365
  349poe    c31 4188   0.728   4.146   3.913 -0.1598  0.0577  0.1444
  350poe    c31 4189   5.236   1.480   0.707 -0.2867 -0.1855 -0.5294
  350poe     o2 4190   5.181   1.534   0.588  0.0258  0.3991 -0.4094
  350poe    c23 4191   5.250   1.646   0.536  0.0985  0.3087 -0.5057
  350poe    c23 4192   5.185   1.695   0.405 -0.1966  0.6278 -0.2438
  350poe     o2 4193   5.045   1.696   0.415 -0.1740  0.1471  0.1442
  350poe    c23 4194   4.976   1.722   0.295 -0.2591 -0.5407  0.0387
  350poe    c23 4195   4.827   1.686   0.315 -0.3941  0.1368  0.3040
  350poe     o2 4196   4.844   1.573   0.397 -0.0540 -0.1993 -0.2187
  350poe    c23 4197   4.723   1.534   0.457 -0.0760 -0.0355 -0.1579
  350poe    c23 4198   4.734   1.568   0.607 -0.3232 -0.3321 -0.0703
  350poe     o2 4199   4.869   1.547   0.644 -0.2035  0.3672 -0.0965
  350poe    c31 4200   4.883   1.552   0.784  0.6017 -0.1595 -0.1527
  351poe    c31 4201   6.418   1.006   3.296  0.4362  0.1352 -0.3125
  351poe     o2 4202   6.290   0.977   3.245  0.2411  0.1435  0.1752
  351poe    c23 4203   6.222   1.097   3.277 -0.1015 -0.0126  0.0354
  351poe    c23 4204   6.071   1.085   3.251 -0.0908 -0.0283 -0.0195
  351poe     o2 4205   6.068   1.018   3.127  0.1172 -0.5671  0.2622
  351poe    c23 4206   5.957   0.931   3.118 -0.1418 -0.1913 -0.2656
  351poe    c23 4207   5.980   0.804   3.034  0.1914 -0.4406  0.1968
  351poe     o2 4208   6.117   0.781   3.058  0.2779  0.1109  0.2486
  351poe    c23 4209   6.169   0.667   2.992 -0.3394  0.1186 -0.2677
  351poe    c23 4210   6.317   0.646   3.032 -0.3652 -0.1795 -0.3261
  351poe     o2 4211   6.363   0.779   3.028 -0.1300 -0.2363  0.5227
  351poe    c31 4212   6.501   0.773   3.060 -0.1302 -0.0570  0.5605
  352poe    c31 4213   0.438   2.434   5.927 -0.3154  0.1422 -0.2935
  352poe     o2 4214   0.556   2.446   5.852 -0.1794  0.0563 -0.0952
  352poe    c23 4215   0.662   2.402   5.934  0.0171  0.2467 -0.2453
  352poe    c23 4216   0.794   2.446   5.868  0.2750 -0.3007 -0.1000
  352poe     o2 4217   0.783   2.382   5.743 -0.1747 -0.1261 -0.1489
  352poe    c23 4218   0.900   2.390   5.665 -0.2123  0.2163 -0.1690
  352poe    c23 4219   0.852   2.394   5.519 -0.4466 -0.8731 -0.1313
  352poe     o2 4220   0.753   2.495   5.525  0.0145 -0.4356  0.1588
  352poe    c23 4221   0.669   2.499   5.412  0.2538  0.4497  0.0009
  352poe    c23 4222   0.536   2.571   5.439  0.3147  0.5649 -0.0083
  352poe     o2 4223   0.496   2.525   5.566 -0.1534  0.4129 -0.2092
  352poe    c31 4224   0.386   2.599   5.611 -0.0607  0.4623 -0.0620
  353poe    c31 4225   3.880   3.296   2.974 -0.3886 -0.0614 -0.4083
  353poe     o2 4226   3.788   3.261   3.076  0.4486 -0.8487  0.0865
  353poe    c23 4227   3.654   3.261   3.033  0.4218  0.1107  0.1609
  353poe    c23 4228   3.580   3.325   3.152  0.0601  0.5384 -0.2879
  353poe     o2 4229   3.653   3.287   3.266  0.1771  0.5620 -0.3554
  353poe    c23 4230   3.591   3.341   3.380  0.2541 -0.1129  0.0095
  353poe    c23 4231   3.642   3.267   3.506  0.0972 -1.0124 -0.4453
  353poe     o2 4232   3.777   3.242   3.474  0.4474  0.1680  0.0548
  353poe    c23 4233   3.833   3.130   3.538 -0.2277 -0.1537  0.0934
  353poe    c23 4234   3.930   3.074   3.432 -0.7159 -0.3989 -0.2258
  353poe     o2 4235   3.872   3.083   3.304 -0.4161  0.1738 -0.3232
  353poe    c31 4236   3.923   2.975   3.230 -0.0719  0.0346  0.1213
  354poe    c31 4237   1.988   4.841   5.406 -0.0115  0.4679  0.8203
  354poe     o2 4238   1.992   4.729   5.491  0.0157 -0.1174  0.0515
  354poe    c23 4239   1.942   4.610   5.433  0.0232 -0.2265  0.2668
  354poe    c23 4240   1.927   4.517   5.555 -0.2902  0.3107  0.6423
  354poe     o2 4241   2.050   4.509   5.624  0.2789  0.3318 -0.3494
  354poe    c23 4242   2.029   4.468   5.757  0.0634 -0.3701 -0.5939
  354poe    c23 4243   2.167   4.490   5.823 -0.0099 -0.2310 -0.4893
  354poe     o2 4244   2.200   4.611   5.758  0.2757 -0.4063 -0.6725
  354poe    c23 4245   2.331   4.643   5.800 -0.2993  0.4054  0.5538
  354poe    c23 4246   2.356   4.788   5.753  0.1098  0.1693  0.0442
  354poe     o2 4247   2.330   4.802   5.615  0.6388 -0.2419 -0.1006
  354poe    c31 4248   2.363   4.925   5.555 -0.4481  0.0986 -0.0280
  355poe    c31 4249   3.098   4.081   2.289 -0.8844 -0.5862 -0.3528
  355poe     o2 4250   3.202   4.035   2.373 -0.7954 -0.2272 -0.2629
  355poe    c23 4251   3.255   3.926   2.301 -0.0523  0.0962 -0.2108
  355poe    c23 4252   3.385   3.877   2.368  0.0869  0.2514 -0.3692
  355poe     o2 4253   3.368   3.886   2.507  0.3890  0.4192 -0.3413
  355poe    c23 4254   3.485   3.853   2.578  0.3561 -0.2370 -0.5909
  355poe    c23 4255   3.448   3.875   2.725  0.6162  0.7467 -0.6611
  355poe     o2 4256   3.386   4.000   2.741 -0.1821  0.3783 -0.8458
  355poe    c23 4257   3.281   4.005   2.835  0.4388  0.3370 -0.1444
  355poe    c23 4258   3.176   4.107   2.788 -0.0600 -0.1620 -0.1221
  355poe     o2 4259   3.149   4.107   2.650  0.2848  0.0084 -0.1901
  355poe    c31 4260   3.025   4.169   2.624  0.1733 -0.1701 -0.0887
  356poe    c31 4261   2.509   1.852   3.384 -0.1079 -0.0834 -0.3983
  356poe     o2 4262   2.496   1.724   3.326 -0.2646 -0.0154 -0.5123
  356poe    c23 4263   2.412   1.653   3.414  0.2556  0.2698  0.2306
  356poe    c23 4264   2.393   1.503   3.381 -0.6194  0.3711  0.2296
  356poe     o2 4265   2.364   1.504   3.243 -0.0026 -0.2473  0.0885
  356poe    c23 4266   2.369   1.376   3.185  0.6076 -0.0884 -0.2177
  356poe    c23 4267   2.368   1.411   3.035  0.2116  0.2346 -0.1420
  356poe     o2 4268   2.460   1.517   3.021 -0.1789  0.5740 -0.1488
  356poe    c23 4269   2.445   1.577   2.894 -0.4498 -0.0921 -0.4409
  356poe    c23 4270   2.553   1.687   2.888 -0.3722 -0.1625 -0.3466
  356poe     o2 4271   2.542   1.766   3.005  0.1624 -0.0442 -0.3730
  356poe    c31 4272   2.660   1.841   3.018  0.2889 -0.3232  0.0758
  357poe    c31 4273   6.022   6.059   3.554 -0.4877 -0.2133 -0.6190
  357poe     o2 4274   5.954   5.943   3.597 -0.3031 -0.3600 -0.7200
  357poe    c23 4275   5.861   5.913   3.495 -0.2785 -0.0789 -0.8253
  357poe    c23 4276   5.793   5.780   3.534 -0.1316 -0.0246 -0.3701
  357poe     o2 4277   5.778   5.788   3.674 -0.4049 -0.2080 -0.3894
  357poe    c23 4278   5.681   5.695   3.715 -0.0500 -0.3229  0.2006
  357poe    c23 4279   5.661   5.720   3.865 -0.0145  0.5831  0.0564
  357poe     o2 4280   5.778   5.783   3.911  0.4918 -0.1368 -0.2310
  357poe    c23 4281   5.752   5.868   4.021  0.0205 -0.0347 -0.4220
  357poe    c23 4282   5.866   5.971   4.028  0.1385 -0.2092  0.2753
  357poe     o2 4283   5.903   6.009   3.897  0.2602  0.2190  0.4337
  357poe    c31 4284   5.960   6.138   3.896  0.2872  0.2057  0.2516
  358poe    c31 4285   2.064   4.025   6.431 -0.3416 -0.0561  0.2127
  358poe     o2 4286   1.993   4.070   6.544 -0.3621 -0.6232  0.4268
  358poe    c23 4287   2.089   4.130   6.629 -0.4962 -0.4234  0.4383
  358poe    c23 4288   2.034   4.183   6.763 -0.1465  0.5608  0.1932
  358poe     o2 4289   1.948   4.294   6.750 -0.2144  0.4545 -0.2781
  358poe    c23 4290   1.934   4.351   6.878  0.3553  0.0111 -0.0122
  358poe    c23 4291   1.847   4.478   6.873  0.0579 -0.1940 -0.0981
  358poe     o2 4292   1.734   4.452   6.793 -0.2708 -0.9207  0.5856
  358poe    c23 4293   1.638   4.554   6.804  0.0166 -0.5913  0.1107
  358poe    c23 4294   1.515   4.517   6.718  0.1094 -0.4220 -0.0944
  358poe     o2 4295   1.558   4.475   6.591 -0.0839  0.0152 -0.3072
  358poe    c31 4296   1.444   4.450   6.512 -0.3938 -0.1464  0.1861
  359poe    c31 4297   2.748   2.660   4.951 -0.1045  0.1891 -0.0710
  359poe     o2 4298   2.666   2.756   5.014 -0.3890  0.1215 -0.3376
  359poe    c23 4299   2.575   2.700   5.106  0.0942 -0.2083 -0.0517
  359poe    c23 4300   2.543   2.806   5.213  0.8405  0.2151 -0.2473
  359poe     o2 4301   2.505   2.931   5.160 -0.8041 -0.0893  0.1563
  359poe    c23 4302   2.492   3.014   5.273 -0.5663  0.3114 -0.1072
  359poe    c23 4303   2.528   3.154   5.218 -0.3899  0.3873  0.2022
  359poe     o2 4304   2.635   3.122   5.132 -0.4670  0.1672  0.1874
  359poe    c23 4305   2.661   3.224   5.039  0.0952  0.1047  0.2760
  359poe    c23 4306   2.798   3.180   4.983  0.0017 -0.6515  0.6284
  359poe     o2 4307   2.782   3.045   4.947 -0.1713 -0.4762  0.0267
  359poe    c31 4308   2.911   2.991   4.932 -0.1038 -0.1689 -0.4943
  360poe    c31 4309   2.871   6.498   1.929 -0.0169 -0.1092 -0.1188
  360poe     o2 4310   2.879   6.628   1.982 -0.2238 -0.0596 -0.2074
  360poe    c23 4311   2.755   6.694   1.966 -0.1699  0.0648 -0.1191
  360poe    c23 4312   2.784   6.844   1.984 -0.2208  0.0885 -0.2350
  360poe     o2 4313   2.923   6.862   1.969 -0.1227 -0.0995  0.4172
  360poe    c23 4314   2.972   6.988   2.011  0.3285 -0.1118 -0.0623
  360poe    c23 4315   3.123   6.979   2.037  0.4342 -0.1002 -0.6531
  360poe     o2 4316   3.135   6.850   2.091  0.0895  0.2879  0.3786
  360poe    c23 4317   3.268   6.819   2.126  0.1071 -0.1389 -0.0585
  360poe    c23 4318   3.271   6.666   2.148  0.4794 -0.2289 -0.7030
  360poe     o2 4319   3.188   6.605   2.052 -0.4620 -0.0997  0.0184
  360poe    c31 4320   3.200   6.465   2.041  0.1850 -0.0671  0.2526
  361poe    c31 4321   0.677   5.721   4.405  0.4787  0.5329  0.6647
  361poe     o2 4322   0.718   5.623   4.497 -0.0500 -0.4560 -0.1229
  361poe    c23 4323   0.856   5.633   4.524 -0.2374  0.1383  0.6701
  361poe    c23 4324   0.904   5.585   4.662 -0.0895 -0.6563  0.3479
  361poe     o2 4325   0.863   5.660   4.774 -0.0562 -0.3032  0.1213
  361poe    c23 4326   0.736   5.626   4.823  0.0243 -0.8761 -0.0598
  361poe    c23 4327   0.761   5.602   4.973  1.0525 -0.4652 -0.1567
  361poe     o2 4328   0.835   5.712   5.022  0.0332  0.1636  0.0018
  361poe    c23 4329   0.887   5.693   5.151  0.2874  0.1732 -0.0984
  361poe    c23 4330   0.969   5.820   5.179  0.5605 -0.0423  0.0826
  361poe     o2 4331   1.055   5.836   5.069  0.0927  0.1645 -0.2587
  361poe    c31 4332   1.160   5.920   5.112  0.2456  0.0928 -0.4891
  362poe    c31 4333   3.068   0.091   5.976  0.2576  0.1970 -0.0319
  362poe     o2 4334   2.943   0.035   5.942  0.2107  0.0086  0.4586
  362poe    c23 4335   2.904  -0.047   6.050  0.0612  0.2412  0.5813
  362poe    c23 4336   2.752  -0.058   6.022  0.0429  1.1135  0.3008
  362poe     o2 4337   2.728  -0.048   5.884 -0.1254  0.3313  0.2677
  362poe    c23 4338   2.605  -0.107   5.849  0.2763 -0.3616  0.0085
  362poe    c23 4339   2.608  -0.151   5.701  0.8394  0.4495 -0.2280
  362poe     o2 4340   2.606  -0.041   5.613  0.1256  0.6285  0.0003
  362poe    c23 4341   2.699  -0.046   5.507 -0.2954  0.1414 -0.3474
  362poe    c23 4342   2.849  -0.070   5.530 -0.1598  0.7263 -0.5915
  362poe     o2 4343   2.896   0.017   5.631  0.2389  0.5588 -0.6321
  362poe    c31 4344   3.037   0.011   5.630  0.2488  0.6585  0.1925
  363poe    c31 4345   3.553   3.940   1.993 -0.0542  0.0874  0.1272
  363poe     o2 4346   3.648   3.922   1.891 -0.1739 -0.2023  0.0663
  363poe    c23 4347   3.741   4.028   1.897 -0.3453 -0.0016 -0.6982
  363poe    c23 4348   3.842   3.986   1.790  0.4464  0.3970 -0.1148
  363poe     o2 4349   3.770   3.938   1.679  0.1876  0.3438  0.0773
  363poe    c23 4350   3.825   3.946   1.549  0.7542 -0.3863  0.2693
  363poe    c23 4351   3.773   3.836   1.455 -0.2583  0.5948 -0.3413
  363poe     o2 4352   3.647   3.798   1.505 -0.1180 -0.0871 -0.4817
  363poe    c23 4353   3.597   3.669   1.480  0.0231 -0.2299 -0.0294
  363poe    c23 4354   3.626   3.577   1.600  0.1157 -0.2074 -0.0345
  363poe     o2 4355   3.605   3.648   1.720  0.1470  0.0663 -0.1925
  363poe    c31 4356   3.654   3.582   1.834 -0.2227  0.0448 -0.0473
  364poe    c31 4357   6.005   4.857   3.982  0.1667  0.0998  0.0752
  364poe     o2 4358   6.144   4.840   3.966  0.2307  0.0008  0.7007
  364poe    c23 4359   6.199   4.934   3.876 -0.4496 -0.7463 -0.5255
  364poe    c23 4360   6.348   4.896   3.880 -0.3015 -0.0978  0.6245
  364poe     o2 4361   6.357   4.755   3.878  0.5426 -0.0467 -0.4826
  364poe    c23 4362   6.484   4.700   3.903  0.2246 -0.1367  1.0516
  364poe    c23 4363   6.484   4.553   3.858 -0.2072  0.0548  0.4176
  364poe     o2 4364   6.355   4.514   3.901 -0.1543  0.3288  0.8280
  364poe    c23 4365   6.295   4.402   3.842  0.4553  0.2283  0.3823
  364poe    c23 4366   6.154   4.391   3.903  0.0626  0.0739 -0.5310
  364poe     o2 4367   6.096   4.517   3.929 -0.1963 -0.0775 -0.3661
  364poe    c31 4368   5.960   4.494   3.957 -0.1637  0.0826 -0.0680
  365poe    c31 4369   4.321   3.938   6.472  0.2935 -0.3996 -0.3794
  365poe     o2 4370   4.347   3.840   6.570  0.1454 -0.2267 -0.1671
  365poe    c23 4371   4.229   3.837   6.647  0.0389 -0.5174 -0.3424
  365poe    c23 4372   4.224   3.720   6.747 -0.5098 -0.0453  0.1870
  365poe     o2 4373   4.355   3.717   6.800 -0.2569 -0.2478 -0.4360
  365poe    c23 4374   4.411   3.592   6.830 -0.3511 -0.1731  0.0731
  365poe    c23 4375   4.551   3.627   6.883 -0.3940  0.2302 -0.0790
  365poe     o2 4376   4.597   3.718   6.786  0.5404  0.0464  0.1861
  365poe    c23 4377   4.705   3.797   6.833  0.5624 -0.1717  0.5065
  365poe    c23 4378   4.730   3.890   6.713  0.1076 -0.4426  0.1984
  365poe     o2 4379   4.615   3.938   6.648  0.2973  0.0221  0.1996
  365poe    c31 4380   4.653   4.019   6.539  0.0111  0.2698  0.2815
  366poe    c31 4381   2.867   5.214   2.637  0.1693 -0.9164 -0.5725
  366poe     o2 4382   2.953   5.184   2.744  0.0638  0.2301 -0.1504
  366poe    c23 4383   3.089   5.171   2.707 -0.0969 -0.6217 -0.4598
  366poe    c23 4384   3.147   5.042   2.767  1.1665  0.5132  0.8304
  366poe     o2 4385   3.120   5.054   2.905  0.2171  0.3907  0.6620
  366poe    c23 4386   3.115   4.926   2.965  0.8222  0.1229  0.1524
  366poe    c23 4387   3.091   4.953   3.114  0.3094  0.7829 -0.0459
  366poe     o2 4388   2.981   5.041   3.123 -0.3143 -0.0243  0.3866
  366poe    c23 4389   2.854   4.980   3.112 -0.2195 -0.2475  0.5455
  366poe    c23 4390   2.756   5.096   3.087  0.0658 -0.2231 -0.4951
  366poe     o2 4391   2.783   5.161   2.965 -0.2135 -0.4828 -0.6962
  366poe    c31 4392   2.682   5.259   2.947  0.1632  0.0429 -0.0071
  367poe    c31 4393   3.398   2.362   5.549 -0.1011 -0.2432  0.3014
  367poe     o2 4394   3.347   2.232   5.534 -0.3212 -0.1871  0.5583
  367poe    c23 4395   3.206   2.228   5.527 -0.2873  0.2487 -0.4341
  367poe    c23 4396   3.181   2.078   5.505 -0.5412  0.2296 -0.0299
  367poe     o2 4397   3.258   2.044   5.392  0.7071  0.3743  0.7615
  367poe    c23 4398   3.250   1.906   5.367  0.3546  0.4625  0.3820
  367poe    c23 4399   3.321   1.848   5.243  0.1071  0.4433  0.2469
  367poe     o2 4400   3.269   1.863   5.113  0.4050  0.0438  0.0791
  367poe    c23 4401   3.187   1.757   5.068  0.1139  0.0883  0.4993
  367poe    c23 4402   3.191   1.773   4.915 -0.4914 -0.4882  0.4199
  367poe     o2 4403   3.175   1.909   4.882 -0.0943 -0.4167  0.5136
  367poe    c31 4404   3.157   1.929   4.743  0.7498  0.3263  0.5000
  368poe    c31 4405   3.732   1.697   5.939  0.3595 -0.1027  0.4400
  368poe     o2 4406   3.643   1.604   5.883 -0.0134  0.1682  0.5791
  368poe    c23 4407   3.729   1.524   5.805 -0.6001  0.3551 -0.2727
  368poe    c23 4408   3.649   1.425   5.719  0.0132 -0.3330 -0.0622
  368poe     o2 4409   3.549   1.382   5.809  0.1937 -0.2691  0.1681
  368poe    c23 4410   3.443   1.315   5.744  0.1366 -0.1180  0.1071
  368poe    c23 4411   3.329   1.416   5.722  0.2944  0.0528  0.0702
  368poe     o2 4412   3.326   1.489   5.843 -0.0327 -0.5208  0.4103
  368poe    c23 4413   3.214   1.573   5.858  0.3513  0.0400  0.1723
  368poe    c23 4414   3.226   1.619   6.004 -0.3558  0.1396  0.2065
  368poe     o2 4415   3.363   1.634   6.034 -0.2517 -0.4986  0.0523
  368poe    c31 4416   3.372   1.722   6.144 -0.2600 -0.4659  0.0265
  369poe    c31 4417   0.575   2.508   6.334  0.4859 -0.2240  1.2022
  369poe     o2 4418   0.451   2.571   6.353  0.2545 -0.0741 -0.5949
  369poe    c23 4419   0.340   2.507   6.294 -0.1829  0.3878 -0.2861
  369poe    c23 4420   0.224   2.596   6.245 -0.8376 -0.4257 -0.2482
  369poe     o2 4421   0.180   2.664   6.360  0.2573  0.3664 -0.2793
  369poe    c23 4422   0.111   2.785   6.336  0.0921  0.3317  0.0107
  369poe    c23 4423   0.202   2.902   6.375 -0.1998  0.3727  0.5686
  369poe     o2 4424   0.308   2.854   6.455  0.2839 -0.0920 -0.3342
  369poe    c23 4425   0.375   2.966   6.510 -0.2526  0.1846 -0.2279
  369poe    c23 4426   0.506   2.929   6.583 -0.3757  0.0078 -0.0973
  369poe     o2 4427   0.537   2.807   6.518  0.4371  0.3485 -0.3530
  369poe    c31 4428   0.659   2.752   6.563  0.2399  0.1463 -0.0582
  370poe    c31 4429   0.113   1.271   3.798  0.0485  0.2241 -0.2535
  370poe     o2 4430   0.041   1.286   3.677  0.5734  0.4248 -0.5481
  370poe    c23 4431   0.125   1.261   3.567  0.7360 -0.1300 -0.3067
  370poe    c23 4432   0.041   1.243   3.440 -0.1473 -0.5738  0.3336
  370poe     o2 4433  -0.041   1.356   3.425  0.0999 -0.4752 -0.3282
  370poe    c23 4434  -0.072   1.395   3.293 -0.4255  0.1884 -0.0231
  370poe    c23 4435  -0.191   1.492   3.291 -0.4441  0.1801  0.6135
  370poe     o2 4436  -0.173   1.570   3.407  0.0698  0.3179  0.4454
  370poe    c23 4437  -0.271   1.671   3.406  0.0062  0.2543 -0.2557
  370poe    c23 4438  -0.332   1.699   3.545  0.0060  0.0308 -0.2110
  370poe     o2 4439  -0.226   1.687   3.638 -0.0897  0.1458 -0.0877
  370poe    c31 4440  -0.261   1.725   3.770  0.1279 -0.0606  0.0303
  371poe    c31 4441   3.384   5.753   4.696  0.4581 -0.3664  0.1923
  371poe     o2 4442   3.381   5.836   4.582 -0.3453 -0.6023  0.0417
  371poe    c23 4443   3.399   5.974   4.601  0.5608 -0.6967 -0.1225
  371poe    c23 4444   3.537   6.014   4.543  0.4203 -0.1621 -0.0882
  371poe     o2 4445   3.556   5.941   4.424 -0.1823 -0.6387  0.1005
  371poe    c23 4446   3.686   5.898   4.390 -0.0215 -0.2556  0.2227
  371poe    c23 4447   3.707   5.761   4.456 -0.3259 -0.1203  0.6070
  371poe     o2 4448   3.594   5.680   4.431 -0.2896  0.0512 -0.1175
  371poe    c23 4449   3.616   5.541   4.434  0.3775  0.1461 -0.4545
  371poe    c23 4450   3.483   5.484   4.381  0.0807  0.6487 -0.2553
  371poe     o2 4451   3.374   5.561   4.425 -0.3101 -0.1877  0.2692
  371poe    c31 4452   3.247   5.505   4.401  0.0027 -0.7626 -0.0599
  372poe    c31 4453   1.914   3.039   4.678  0.0278  0.0594  0.0665
  372poe     o2 4454   1.785   3.096   4.684  0.1132  0.2222  0.3835
  372poe    c23 4455   1.739   3.084   4.817 -0.3032 -0.2392  0.2001
  372poe    c23 4456   1.590   3.122   4.812 -0.0588  0.6866 -0.4255
  372poe     o2 4457   1.545   3.025   4.720  0.0760  0.3097 -0.1013
  372poe    c23 4458   1.408   3.035   4.688 -0.0976  0.4635  0.6722
  372poe    c23 4459   1.385   3.148   4.585  0.5433  0.2747  0.3166
  372poe     o2 4460   1.502   3.137   4.507  0.0280  0.5616 -0.5090
  372poe    c23 4461   1.524   3.242   4.415 -1.0997  0.6055 -0.7443
  372poe    c23 4462   1.648   3.192   4.339 -0.2705  0.2797  0.7699
  372poe     o2 4463   1.735   3.120   4.423  0.5104  0.2571 -0.0386
  372poe    c31 4464   1.849   3.084   4.349  0.0086 -0.4106 -0.4965
  373poe    c31 4465   4.524   1.688   5.538  0.6360 -0.4658  0.5148
  373poe     o2 4466   4.621   1.657   5.439  0.4737 -0.3034  0.3053
  373poe    c23 4467   4.545   1.586   5.344 -0.2178 -0.2752  0.8234
  373poe    c23 4468   4.636   1.526   5.235 -0.3184  0.4638  0.3251
  373poe     o2 4469   4.732   1.628   5.215  0.6071 -0.2606  1.0179
  373poe    c23 4470   4.853   1.605   5.146  0.2107 -0.0672  0.2494
  373poe    c23 4471   4.918   1.745   5.136 -0.4741  0.2271 -0.1170
  373poe     o2 4472   4.909   1.801   5.265  0.4283 -0.1842  0.1317
  373poe    c23 4473   4.882   1.939   5.251  0.1767 -0.2529 -0.0680
  373poe    c23 4474   4.874   1.989   5.396 -0.3002  0.3601 -0.3017
  373poe     o2 4475   4.789   1.903   5.468  0.1578  0.2225  0.0861
  373poe    c31 4476   4.754   1.965   5.589 -0.2451  0.1648  0.0013
  374poe    c31 4477   2.389   2.925   1.694 -0.0443  0.6478  0.0717
  374poe     o2 4478   2.338   2.919   1.826 -0.2471 -0.2936 -0.0456
  374poe    c23 4479   2.402   2.824   1.908  0.0275 -0.1014 -0.0390
  374poe    c23 4480   2.350   2.864   2.047  0.0496 -0.2658  0.0166
  374poe     o2 4481   2.211   2.888   2.039  0.0593 -0.1536  0.1661
  374poe    c23 4482   2.173   2.985   2.134 -0.2483 -0.0464 -0.0647
  374poe    c23 4483   2.025   3.018   2.108 -0.0559  0.4304 -0.5993
  374poe     o2 4484   2.036   3.030   1.968 -0.4844  0.0556 -0.6673
  374poe    c23 4485   1.908   3.054   1.915 -0.5581  0.0097 -0.5134
  374poe    c23 4486   1.952   3.084   1.770  0.2580 -0.3073 -0.3347
  374poe     o2 4487   2.038   2.985   1.718  0.7894 -0.0205 -0.0092
  374poe    c31 4488   2.048   3.028   1.584 -0.0618  0.3487  0.0425
  375poe    c31 4489   2.368   1.527   5.079  0.0686 -0.2005 -0.5669
  375poe     o2 4490   2.464   1.567   4.984  0.4526  0.6245  0.1659
  375poe    c23 4491   2.573   1.480   4.962 -0.2990 -0.2464 -0.1665
  375poe    c23 4492   2.645   1.506   4.828  0.4372 -0.0397  0.2624
  375poe     o2 4493   2.679   1.642   4.844 -0.0028  0.0860  0.1649
  375poe    c23 4494   2.755   1.693   4.737 -0.4158 -0.4901 -0.4072
  375poe    c23 4495   2.778   1.840   4.775 -0.3573 -0.6255  0.0925
  375poe     o2 4496   2.651   1.889   4.811 -0.2399 -0.2799  0.0417
  375poe    c23 4497   2.662   1.987   4.912  0.0425 -0.6318  0.3568
  375poe    c23 4498   2.512   1.999   4.946  0.0315  0.2343  0.0247
  375poe     o2 4499   2.468   1.877   5.001 -0.5587  0.2157 -0.4759
  375poe    c31 4500   2.351   1.901   5.076  0.0629  0.4878  0.4187
  376poe    c31 4501   5.772   6.109   6.100  0.8919 -0.3608 -0.3350
  376poe     o2 4502   5.812   6.044   5.982  0.1560  0.1711 -0.8886
  376poe    c23 4503   5.704   5.981   5.918 -0.2739  0.2041 -0.1958
  376poe    c23 4504   5.752   5.855   5.844  0.8202  0.6435 -0.2414
  376poe     o2 4505   5.845   5.791   5.929  0.2801  0.7115  0.4042
  376poe    c23 4506   5.914   5.698   5.849 -0.3094  0.0213  0.6818
  376poe    c23 4507   6.065   5.713   5.876 -0.2199  0.4272 -0.0277
  376poe     o2 4508   6.109   5.848   5.873 -0.0337  0.3597 -0.3169
  376poe    c23 4509   6.148   5.897   5.746  0.3063  0.2364 -0.2598
  376poe    c23 4510   6.174   6.042   5.790 -0.1545  0.2210  0.0723
  376poe     o2 4511   6.069   6.095   5.868 -0.2592 -0.1109  0.1563
  376poe    c31 4512   6.109   6.219   5.921 -0.8566 -0.0475  0.4629
  377poe    c31 4513   3.886   4.593   4.299 -0.4791 -0.0435  0.3552
  377poe     o2 4514   3.806   4.683   4.372 -0.7168  0.0286  0.0097
  377poe    c23 4515   3.758   4.785   4.288 -0.1336  0.1059 -0.2335
  377poe    c23 4516   3.734   4.912   4.372  0.2179  0.1354 -0.1729
  377poe     o2 4517   3.686   4.864   4.496  0.2731 -0.0797 -0.2338
  377poe    c23 4518   3.702   4.955   4.603 -0.0618 -0.1813 -0.0960
  377poe    c23 4519   3.641   4.883   4.724 -0.3997  0.3159  0.0323
  377poe     o2 4520   3.688   4.750   4.712 -0.6835  0.2528 -0.4016
  377poe    c23 4521   3.621   4.650   4.785  0.1549  0.1756  0.2740
  377poe    c23 4522   3.681   4.516   4.738 -0.8363 -0.2164  0.0995
  377poe     o2 4523   3.693   4.511   4.598  0.7589 -0.2658  0.2191
  377poe    c31 4524   3.752   4.392   4.552  0.8503 -0.0946 -0.1129
  378poe    c31 4525   5.967   0.972   1.284  0.3016 -0.5854 -0.6965
  378poe     o2 4526   6.103   0.983   1.318  0.1212 -0.0564 -0.1323
  378poe    c23 4527   6.162   1.039   1.202  0.6446  0.1450  0.2266
  378poe    c23 4528   6.306   1.077   1.241  0.4636  0.7431  0.3233
  378poe     o2 4529   6.297   1.138   1.368 -0.2143 -0.1938  0.7454
  378poe    c23 4530   6.272   1.277   1.363  0.0278 -0.1679  0.0564
  378poe    c23 4531   6.231   1.325   1.504 -0.0227 -0.1431  0.0333
  378poe     o2 4532   6.149   1.215   1.538 -0.3697  0.1841  0.2498
  378poe    c23 4533   6.069   1.236   1.652 -0.2482  0.2038  0.3317
  378poe    c23 4534   5.975   1.115   1.666 -0.0522 -0.1020 -0.8861
  378poe     o2 4535   6.050   1.010   1.610  0.5852  0.1738 -0.5593
  378poe    c31 4536   5.993   0.893   1.667  0.4570  0.5201  0.0328
  379poe    c31 4537   3.447   0.550   0.266 -0.1797  0.2466 -0.1046
  379poe     o2 4538   3.447   0.430   0.338  0.0241  0.2638 -0.0766
  379poe    c23 4539   3.456   0.314   0.258 -0.2866  0.1345  0.0747
  379poe    c23 4540   3.323   0.260   0.202 -0.3822  0.3867  0.0549
  379poe     o2 4541   3.260   0.158   0.277  0.1406  0.3054  0.3920
  379poe    c23 4542   3.182   0.060   0.211  0.3917 -0.0076  0.5564
  379poe    c23 4543   3.161  -0.065   0.298  0.2488 -0.2807  0.1300
  379poe     o2 4544   3.149  -0.024   0.432  0.1268  0.1411 -0.0069
  379poe    c23 4545   3.051  -0.117   0.475 -0.1369  0.7196  0.6544
  379poe    c23 4546   3.065  -0.124   0.628 -0.1628 -0.1400  0.6214
  379poe     o2 4547   3.096   0.002   0.685  1.3634  0.0215 -0.4991
  379poe    c31 4548   3.106  -0.012   0.825 -0.0730 -0.2444 -0.4054
  380poe    c31 4549   1.035   5.094   1.909 -0.0011 -0.6413 -0.0785
  380poe     o2 4550   1.043   5.170   1.791  0.1222 -0.1252  0.2617
  380poe    c23 4551   1.005   5.304   1.817  0.1402 -0.1567  0.4519
  380poe    c23 4552   1.000   5.370   1.678  0.0679 -0.5957  0.2433
  380poe     o2 4553   0.939   5.283   1.585 -0.4828  0.1035 -0.0552
  380poe    c23 4554   0.945   5.325   1.451 -0.7522  0.3285  0.0002
  380poe    c23 4555   0.937   5.199   1.362  0.3280 -0.2953  0.7652
  380poe     o2 4556   1.045   5.119   1.406  0.3336 -0.6163  0.1696
  380poe    c23 4557   1.063   4.992   1.347 -0.5085 -0.6700  0.0082
  380poe    c23 4558   1.144   4.903   1.443 -0.0289  0.2721  0.4955
  380poe     o2 4559   1.094   4.926   1.573 -0.3151  0.5386  0.3406
  380poe    c31 4560   1.195   4.901   1.669  0.0793  0.1722 -0.1619
  381poe    c31 4561   3.044   6.351   6.209 -0.1137  0.1951  0.3158
  381poe     o2 4562   3.151   6.288   6.276  0.1391  0.1681 -0.1162
  381poe    c23 4563   3.145   6.153   6.234  0.0441  0.1992 -0.2020
  381poe    c23 4564   3.261   6.077   6.300 -0.6429 -0.5152  0.1925
  381poe     o2 4565   3.299   6.140   6.420  0.4038  0.2525 -0.5320
  381poe    c23 4566   3.380   6.050   6.492 -0.5808 -0.1629  0.0733
  381poe    c23 4567   3.406   6.115   6.629 -0.5621 -0.0683  0.0258
  381poe     o2 4568   3.413   6.255   6.621  0.0482 -0.0674  0.5066
  381poe    c23 4569   3.532   6.301   6.561  0.0339 -0.1704  0.3993
  381poe    c23 4570   3.510   6.403   6.448  0.1500 -0.1590  0.3873
  381poe     o2 4571   3.419   6.361   6.349  0.6261 -0.7016  0.1692
  381poe    c31 4572   3.434   6.434   6.229  0.4647  0.0406  0.5896
  382poe    c31 4573   1.006   5.145   4.567  0.3583 -0.6709 -0.3538
  382poe     o2 4574   1.016   5.066   4.683  0.4291 -0.5036 -0.2476
  382poe    c23 4575   1.021   5.154   4.794 -0.2763 -0.5311 -0.1876
  382poe    c23 4576   1.101   5.088   4.908 -0.2495  0.1355  0.1816
  382poe     o2 4577   1.047   4.960   4.932  0.4601 -0.2097 -0.0502
  382poe    c23 4578   1.144   4.871   4.982  0.5749 -0.0650 -0.0123
  382poe    c23 4579   1.078   4.733   4.958 -0.5367  0.4186  0.1874
  382poe     o2 4580   1.035   4.740   4.824  0.6631  0.1417 -0.2277
  382poe    c23 4581   0.954   4.629   4.793  0.4393  0.3203 -0.2890
  382poe    c23 4582   0.893   4.662   4.656  0.4600  0.2203 -0.3221
  382poe     o2 4583   0.877   4.800   4.633 -0.4404  0.0663 -0.6827
  382poe    c31 4584   0.787   4.829   4.528 -0.8109 -0.6442 -0.5621
  383poe    c31 4585   4.760   1.932   1.317 -0.2946  0.7528  0.3896
  383poe     o2 4586   4.695   1.933   1.192  1.0775 -0.2700 -0.3723
  383poe    c23 4587   4.670   1.801   1.150 -0.4667 -0.2618  0.4299
  383poe    c23 4588   4.611   1.799   1.008  0.4468 -0.0704  0.0429
  383poe     o2 4589   4.673   1.907   0.941  0.3570 -0.2808 -0.3779
  383poe    c23 4590   4.587   1.961   0.842  0.0281  0.7857  0.4780
  383poe    c23 4591   4.613   2.106   0.797  0.4048  0.5631 -0.0320
  383poe     o2 4592   4.633   2.178   0.917 -0.1571  0.1452  0.3193
  383poe    c23 4593   4.710   2.291   0.882 -0.0310  0.0200  0.1882
  383poe    c23 4594   4.768   2.338   1.017  0.2360  0.6656 -0.1491
  383poe     o2 4595   4.795   2.218   1.086 -0.3663  0.3270 -0.4943
  383poe    c31 4596   4.878   2.253   1.194 -0.4351 -0.0448 -0.3219
  384poe    c31 4597   6.694   2.559   0.917  0.5631  0.2575 -0.0674
  384poe     o2 4598   6.779   2.642   0.992  0.7186  0.1307 -0.1043
  384poe    c23 4599   6.794   2.571   1.114 -0.3852  0.3061  0.1407
  384poe    c23 4600   6.871   2.662   1.211 -0.3579  0.2189  0.2004
  384poe     o2 4601   6.973   2.722   1.134 -0.5457  0.5027  0.1694
  384poe    c23 4602   7.038   2.831   1.196  0.1007  0.2302 -0.0198
  384poe    c23 4603   7.113   2.906   1.085 -0.1109  0.1919 -0.1907
  384poe     o2 4604   7.020   2.901   0.980  0.1343 -0.2184 -0.3932
  384poe    c23 4605   7.072   2.928   0.851  0.0507 -0.3275 -0.4504
  384poe    c23 4606   6.956   2.907   0.753 -0.6470  0.1983  0.2451
  384poe     o2 4607   6.891   2.784   0.777 -0.4446  0.0600  0.0785
  384poe    c31 4608   6.816   2.750   0.662  0.5476 -0.2512 -0.4963
  385poe    c31 4609   6.066   2.207   1.584 -0.6143  0.5146  0.0941
  385poe     o2 4610   6.178   2.195   1.501 -0.0373 -0.2021  0.9498
  385poe    c23 4611   6.182   2.062   1.453 -0.3703  0.1817 -0.1828
  385poe    c23 4612   6.297   2.044   1.353 -0.3724 -0.3925 -0.0849
  385poe     o2 4613   6.303   2.157   1.268  0.4619  0.3524  0.9521
  385poe    c23 4614   6.407   2.132   1.176 -0.3694 -0.0286  0.1058
  385poe    c23 4615   6.410   2.263   1.095  0.1585 -0.0326  0.1141
  385poe     o2 4616   6.448   2.376   1.170  0.2039 -0.2857  0.4739
  385poe    c23 4617   6.378   2.494   1.139  0.2354 -0.3903 -0.0054
  385poe    c23 4618   6.331   2.564   1.268 -0.0869 -0.3067 -0.1667
  385poe     o2 4619   6.240   2.483   1.339 -0.0440  0.1023  0.3613
  385poe    c31 4620   6.155   2.559   1.422 -0.1903 -0.3098  0.5910
  386poe    c31 4621   6.060   5.888   3.164  0.0025 -0.2009  0.3435
  386poe     o2 4622   6.040   5.751   3.191 -0.2494 -0.2390 -0.0324
  386poe    c23 4623   5.960   5.694   3.090 -0.7912 -0.1710  0.3529
  386poe    c23 4624   5.931   5.543   3.100  0.1634 -0.4154 -0.4372
  386poe     o2 4625   6.033   5.445   3.100  0.4418 -0.1278 -0.0822
  386poe    c23 4626   5.979   5.318   3.073 -0.5338  0.2994 -0.2010
  386poe    c23 4627   6.084   5.244   2.987  0.1504  0.0876  0.7985
  386poe     o2 4628   6.206   5.261   3.056  0.7897  0.1813 -0.3294
  386poe    c23 4629   6.300   5.167   3.008  0.0688 -0.4623 -0.5108
  386poe    c23 4630   6.427   5.180   3.095 -0.3595 -0.0373  0.0586
  386poe     o2 4631   6.479   5.311   3.091 -0.2244 -0.1062 -0.4734
  386poe    c31 4632   6.611   5.301   3.139 -0.6196  0.4891  0.7711
  387poe    c31 4633   3.433   6.344   3.149  0.3422 -0.5417 -0.0580
  387poe     o2 4634   3.503   6.243   3.080 -0.2172 -1.0530  0.1143
  387poe    c23 4635   3.612   6.206   3.161  0.4906  0.6632  0.0012
  387poe    c23 4636   3.679   6.103   3.068  0.1865 -0.1847  0.7030
  387poe     o2 4637   3.588   6.010   3.014  0.4944 -0.2166  0.2310
  387poe    c23 4638   3.651   5.904   2.946 -0.2839 -0.4508 -0.1392
  387poe    c23 4639   3.547   5.826   2.864 -1.0442 -0.0513  0.4348
  387poe     o2 4640   3.501   5.906   2.757  0.0811  0.1194  0.0694
  387poe    c23 4641   3.404   5.844   2.676 -0.0904  0.3444  0.1026
  387poe    c23 4642   3.434   5.728   2.580 -0.3094  0.2925  0.0971
  387poe     o2 4643   3.449   5.614   2.662 -0.0409  0.6105  0.4929
  387poe    c31 4644   3.457   5.500   2.579  0.5036  0.4257  0.7947
  388poe    c31 4645   6.681   2.660   2.600 -0.1005 -0.2675 -0.0920
  388poe     o2 4646   6.658   2.798   2.613  0.1319 -0.2193 -0.2120
  388poe    c23 4647   6.526   2.815   2.568 -0.0396 -0.6768  0.1163
  388poe    c23 4648   6.491   2.947   2.640  0.6680 -1.0206  1.1040
  388poe     o2 4649   6.595   3.039   2.618 -0.2345 -0.2665 -0.1578
  388poe    c23 4650   6.563   3.160   2.684 -0.0186 -0.1623 -0.2425
  388poe    c23 4651   6.682   3.255   2.660  0.1075 -0.2682 -0.0412
  388poe     o2 4652   6.786   3.168   2.699  0.3423  0.1999  0.3845
  388poe    c23 4653   6.909   3.209   2.644  0.1321  0.4144  0.0748
  388poe    c23 4654   6.994   3.081   2.651 -0.2836  0.1115 -0.3308
  388poe     o2 4655   6.927   2.964   2.609 -0.1346  0.0766 -0.4704
  388poe    c31 4656   7.002   2.854   2.562  0.5912  0.5140 -0.3585
  389poe    c31 4657   4.549   1.224   5.781 -0.0743 -0.2100  0.0323
  389poe     o2 4658   4.445   1.266   5.867  0.2220 -0.1847  0.3808
  389poe    c23 4659   4.380   1.384   5.824  0.0501 -0.3036  0.3139
  389poe    c23 4660   4.281   1.432   5.931 -0.3503 -0.1617 -0.1209
  389poe     o2 4661   4.204   1.322   5.975  0.3309 -0.6312 -0.0881
  389poe    c23 4662   4.148   1.331   6.104  0.0629 -0.3248 -0.2213
  389poe    c23 4663   4.246   1.278   6.211 -0.4185 -0.0180  0.3782
  389poe     o2 4664   4.301   1.159   6.160  0.1512  0.5417 -0.3351
  389poe    c23 4665   4.421   1.119   6.223 -0.0364  0.0989 -0.2555
  389poe    c23 4666   4.454   0.985   6.153  0.6365  0.0120  0.2225
  389poe     o2 4667   4.434   1.006   6.015  0.2193 -0.2943  0.2379
  389poe    c31 4668   4.479   0.899   5.935  0.5787  0.5663 -0.7183
  390poe    c31 4669   4.663   2.398   6.206  0.2715 -0.1510  0.1133
  390poe     o2 4670   4.631   2.319   6.319 -0.1637 -0.3886 -0.1748
  390poe    c23 4671   4.526   2.231   6.284 -0.5970  0.1094 -0.1363
  390poe    c23 4672   4.508   2.122   6.391  0.0836 -0.1426 -0.2733
  390poe     o2 4673   4.519   2.191   6.513 -0.0542  0.1952 -0.4514
  390poe    c23 4674   4.502   2.107   6.625 -0.4900  0.2818 -0.4495
  390poe    c23 4675   4.510   2.209   6.740 -0.3762  0.5644 -0.7062
  390poe     o2 4676   4.607   2.301   6.696  0.2401  0.0311 -0.4688
  390poe    c23 4677   4.613   2.425   6.763  0.1793 -0.2181  0.0011
  390poe    c23 4678   4.713   2.518   6.692 -0.0308 -0.1560 -0.2162
  390poe     o2 4679   4.664   2.529   6.561 -0.6978  0.1120  0.0517
  390poe    c31 4680   4.703   2.649   6.497  0.2392 -0.3105 -0.1801
  391poe    c31 4681   1.266   1.488   4.819 -0.3802 -0.2153  0.1128
  391poe     o2 4682   1.160   1.580   4.831  0.1296  0.3498  0.3777
  391poe    c23 4683   1.195   1.711   4.791 -0.4344  0.4611  0.2399
  391poe    c23 4684   1.078   1.811   4.785 -0.1148  0.8344  0.2126
  391poe     o2 4685   1.012   1.789   4.908  0.3491 -0.5831  0.2267
  391poe    c23 4686   0.881   1.837   4.927  0.3958 -0.4102  0.1243
  391poe    c23 4687   0.835   1.745   5.042  0.4240 -0.2309  0.2792
  391poe     o2 4688   0.845   1.613   4.992 -0.4337 -0.2271  0.0811
  391poe    c23 4689   0.820   1.505   5.078  0.4750 -0.1950  0.3984
  391poe    c23 4690   0.868   1.378   5.005  0.1991  0.0543 -0.2181
  391poe     o2 4691   1.006   1.394   4.983  0.3248 -0.7383 -0.0130
  391poe    c31 4692   1.058   1.263   4.992  0.6365 -0.6290 -0.2194
  392poe    c31 4693   0.885   2.933   4.918 -0.8920 -0.4284 -0.4778
  392poe     o2 4694   0.806   2.953   5.034 -0.2684 -0.1823 -0.0936
  392poe    c23 4695   0.765   2.832   5.093 -0.8314  0.1713  0.2438
  392poe    c23 4696   0.720   2.861   5.237 -0.1107  0.3525  0.4325
  392poe     o2 4697   0.825   2.932   5.300  0.3949 -0.6135  0.7085
  392poe    c23 4698   0.789   2.987   5.425  0.2258  0.1525  0.3291
  392poe    c23 4699   0.912   3.072   5.461  0.4450 -0.0156 -0.0225
  392poe     o2 4700   0.952   3.152   5.351 -0.1697  0.3259 -0.0012
  392poe    c23 4701   1.088   3.185   5.339 -0.2317  0.7866  0.4995
  392poe    c23 4702   1.112   3.254   5.203 -0.2321 -0.3145 -0.0760
  392poe     o2 4703   1.049   3.168   5.111 -0.1425 -0.5561  0.0861
  392poe    c31 4704   1.100   3.196   4.983  0.2557 -0.2410  0.3094
  393poe    c31 4705   2.087   5.618   5.101 -0.5658 -0.2980 -0.4518
  393poe     o2 4706   2.148   5.719   5.023 -0.1749 -0.2398 -0.0714
  393poe    c23 4707   2.085   5.843   5.043  0.2979 -0.0781  0.4597
  393poe    c23 4708   2.170   5.961   4.993 -0.4893  0.1369 -0.4153
  393poe     o2 4709   2.188   5.941   4.855  0.3888  0.2260 -0.3209
  393poe    c23 4710   2.253   6.052   4.798 -0.2098  0.6338 -0.2128
  393poe    c23 4711   2.341   5.985   4.691 -0.0057  0.4248  0.0847
  393poe     o2 4712   2.426   5.890   4.752 -0.4378  0.1956  0.3411
  393poe    c23 4713   2.452   5.780   4.668 -0.4702  0.1471  0.3949
  393poe    c23 4714   2.486   5.659   4.757  0.0495  0.1234  0.1677
  393poe     o2 4715   2.374   5.634   4.838 -0.0940 -0.3640 -0.1810
  393poe    c31 4716   2.395   5.520   4.919 -0.2169 -0.1744  0.1218
  394poe    c31 4717   4.249   2.457   2.363 -0.6255  0.3862 -0.0442
  394poe     o2 4718   4.270   2.485   2.500 -0.7425 -0.3709  0.1323
  394poe    c23 4719   4.233   2.619   2.521 -0.1276 -0.2121  0.2256
  394poe    c23 4720   4.210   2.625   2.673 -0.0723 -0.4513  0.2437
  394poe     o2 4721   4.317   2.552   2.728  0.0696 -0.3458  0.1073
  394poe    c23 4722   4.289   2.544   2.866  0.1109  0.0888  0.1410
  394poe    c23 4723   4.409   2.468   2.925  0.4881  0.4611 -0.1351
  394poe     o2 4724   4.411   2.369   2.824 -0.0810  0.1620  0.1474
  394poe    c23 4725   4.504   2.264   2.836 -0.6935 -0.3343  0.7215
  394poe    c23 4726   4.476   2.163   2.723 -0.0886 -0.3137  0.5474
  394poe     o2 4727   4.449   2.244   2.611  0.3819 -0.4316  0.3467
  394poe    c31 4728   4.423   2.154   2.505 -0.2983  0.3596 -0.1737
  395poe    c31 4729   5.259   0.764   5.617  0.1293 -0.8627  0.2039
  395poe     o2 4730   5.253   0.745   5.757  0.1317  0.4178  0.3896
  395poe    c23 4731   5.123   0.761   5.808 -0.0894  0.8464 -0.3002
  395poe    c23 4732   5.134   0.771   5.961  0.4235  0.1600 -0.2848
  395poe     o2 4733   5.251   0.698   5.989  0.5653  0.2865 -0.5412
  395poe    c23 4734   5.305   0.733   6.114 -0.3803 -1.1984  0.3243
  395poe    c23 4735   5.428   0.646   6.145  0.2432 -0.3363  0.3240
  395poe     o2 4736   5.504   0.669   6.028 -0.7357 -0.5004 -0.3543
  395poe    c23 4737   5.600   0.568   6.005  0.1641  0.1970  0.2687
  395poe    c23 4738   5.660   0.620   5.873  0.3698 -0.9275 -0.0914
  395poe     o2 4739   5.564   0.652   5.775  0.3941 -0.0512  0.1660
  395poe    c31 4740   5.617   0.701   5.653  0.1463 -0.0960  0.0398
  396poe    c31 4741   4.310   5.892   5.407  0.0688 -0.0093 -0.1336
  396poe     o2 4742   4.441   5.842   5.413  0.1867  0.3167  0.0463
  396poe    c23 4743   4.505   5.851   5.287  1.0198  0.0004  0.4378
  396poe    c23 4744   4.584   5.722   5.260  0.9555  0.2345 -0.9573
  396poe     o2 4745   4.659   5.699   5.377  0.0562 -0.0915 -0.4286
  396poe    c23 4746   4.738   5.582   5.368  0.1885 -0.0009 -0.4506
  396poe    c23 4747   4.812   5.590   5.503 -0.7199  0.0099  0.0535
  396poe     o2 4748   4.724   5.634   5.605 -0.2860  0.0368  0.4186
  396poe    c23 4749   4.664   5.533   5.683 -0.3070 -0.5174 -0.2977
  396poe    c23 4750   4.539   5.603   5.740 -0.0445 -0.1751 -0.1347
  396poe     o2 4751   4.468   5.679   5.646  0.1301  0.5396  0.3014
  396poe    c31 4752   4.332   5.647   5.666  0.2030  0.0395  0.0255
  397poe    c31 4753   5.593   3.728   0.543 -0.1073 -0.2611  0.0665
  397poe     o2 4754   5.543   3.681   0.666  0.2020  0.1218  0.3407
  397poe    c23 4755   5.452   3.778   0.711 -0.0922  0.0001  0.0108
  397poe    c23 4756   5.401   3.733   0.849  0.0096 -0.1198  0.0096
  397poe     o2 4757   5.391   3.593   0.863  0.3033 -0.0931  0.5174
  397poe    c23 4758   5.372   3.541   0.992 -0.2898  0.1216  0.5221
  397poe    c23 4759   5.390   3.388   0.977 -1.3535  0.0668 -0.2669
  397poe     o2 4760   5.484   3.370   0.874 -0.7890  0.0039  0.2515
  397poe    c23 4761   5.513   3.233   0.867 -0.2758  0.1236 -0.0001
  397poe    c23 4762   5.633   3.200   0.775 -0.2731 -0.2486  0.1366
  397poe     o2 4763   5.613   3.229   0.639  0.5143 -0.8929 -0.1190
  397poe    c31 4764   5.731   3.235   0.561  0.0838  1.0706 -0.6509
  398poe    c31 4765   2.765   4.825   4.297 -0.0036 -0.0444  0.2163
  398poe     o2 4766   2.850   4.766   4.201 -0.0588  0.2288 -0.0010
  398poe    c23 4767   2.838   4.626   4.191  0.6669  0.1471  0.2385
  398poe    c23 4768   2.915   4.577   4.067  0.6469  0.1375  0.2299
  398poe     o2 4769   3.034   4.652   4.073  0.7208  0.0490 -0.0833
  398poe    c23 4770   3.117   4.642   3.960  0.0806 -0.4225 -0.5195
  398poe    c23 4771   3.233   4.740   3.985 -0.1794 -0.3162  0.3122
  398poe     o2 4772   3.179   4.859   4.038  0.1706  0.1076 -0.2646
  398poe    c23 4773   3.271   4.927   4.120  0.0729 -0.0811  0.0020
  398poe    c23 4774   3.193   5.046   4.179 -0.0954 -0.1551 -0.0707
  398poe     o2 4775   3.060   5.004   4.195 -0.2070  0.0864 -0.3634
  398poe    c31 4776   2.970   5.113   4.194 -0.2535  0.0468 -0.8580
  399poe    c31 4777   5.002   3.780   5.442 -0.1228  0.7457 -0.1606
  399poe     o2 4778   4.895   3.830   5.365 -0.3688  0.5233  0.0319
  399poe    c23 4779   4.917   3.970   5.372  0.3079  0.3902  0.7180
  399poe    c23 4780   4.784   4.037   5.412  0.2114  0.3469  0.4719
  399poe     o2 4781   4.687   3.944   5.368  0.0071  0.7812 -0.0122
  399poe    c23 4782   4.556   3.974   5.409 -0.0860  0.4569 -0.0689
  399poe    c23 4783   4.485   3.924   5.282  0.2721  0.1483 -0.1476
  399poe     o2 4784   4.533   3.796   5.246 -0.6203 -0.1628 -0.2643
  399poe    c23 4785   4.532   3.780   5.106 -0.5167 -0.3872 -0.2390
  399poe    c23 4786   4.643   3.677   5.079 -0.1765 -0.0963  0.0481
  399poe     o2 4787   4.748   3.710   5.167  0.1535 -0.5236 -0.1800
  399poe    c31 4788   4.852   3.620   5.134  0.7948  0.1165  0.0670
  400poe    c31 4789   6.586   2.610   1.942  0.0539  0.4248 -0.5213
  400poe     o2 4790   6.726   2.620   1.954  0.0499  0.0164 -0.0693
  400poe    c23 4791   6.789   2.645   1.830 -0.2643 -0.2543 -0.2852
  400poe    c23 4792   6.935   2.685   1.862 -0.3334 -0.3254  0.1276
  400poe     o2 4793   6.927   2.740   1.991 -0.3286 -0.3206  0.1258
  400poe    c23 4794   7.056   2.764   2.043  0.3331 -0.6206 -1.3508
  400poe    c23 4795   7.105   2.642   2.123 -0.0946 -0.0609 -0.2107
  400poe     o2 4796   6.992   2.582   2.181 -0.2137  0.3388 -0.0289
  400poe    c23 4797   7.005   2.442   2.194 -0.1886  0.3263 -0.1923
  400poe    c23 4798   6.869   2.388   2.240  0.1416 -0.6074 -0.2781
  400poe     o2 4799   6.766   2.459   2.174  0.4758  0.6579  0.5155
  400poe    c31 4800   6.643   2.408   2.222  0.4981 -0.0467 -0.1514
  401poe    c31 4801   5.181   4.161   6.411 -0.2928  0.3029  0.1804
  401poe     o2 4802   5.187   4.030   6.359 -0.2339  0.4265 -0.1267
  401poe    c23 4803   5.316   3.974   6.362 -0.4088  0.0337  0.2060
  401poe    c23 4804   5.297   3.834   6.299  0.2323 -0.0434  0.1743
  401poe     o2 4805   5.254   3.863   6.168 -0.4701  0.4359  0.5027
  401poe    c23 4806   5.220   3.752   6.088  0.0267  0.4928  0.2073
  401poe    c23 4807   5.116   3.811   5.992 -0.1216  0.5016  0.3717
  401poe     o2 4808   5.037   3.893   6.076  0.2575  0.7452  0.4938
  401poe    c23 4809   4.905   3.910   6.028  0.1214 -0.5092  0.3882
  401poe    c23 4810   4.819   3.969   6.141  0.3130  0.1566  0.1856
  401poe     o2 4811   4.896   4.070   6.203  0.1688  0.2141  0.2725
  401poe    c31 4812   4.825   4.183   6.246  0.2536  0.2053  0.4364
  402poe    c31 4813   0.548   6.713   2.119 -0.6208  0.0966 -0.2433
  402poe     o2 4814   0.612   6.702   1.994 -0.3833 -0.4825 -0.0757
  402poe    c23 4815   0.602   6.570   1.946 -0.0405 -0.5065 -0.0834
  402poe    c23 4816   0.699   6.524   1.836  0.2189  0.0791 -0.1040
  402poe     o2 4817   0.687   6.629   1.743  0.0649 -0.0056 -0.1794
  402poe    c23 4818   0.778   6.632   1.635  0.2913 -0.1584  0.0076
  402poe    c23 4819   0.771   6.775   1.577  0.1472 -0.1859 -0.0416
  402poe     o2 4820   0.781   6.863   1.686  0.0901 -0.4724  0.1952
  402poe    c23 4821   0.779   6.992   1.631  0.4506 -0.2490  0.7010
  402poe    c23 4822   0.906   7.054   1.569  0.2204 -0.5842 -0.1155
  402poe     o2 4823   0.954   6.993   1.451  0.7349  0.2939 -0.3687
  402poe    c31 4824   1.089   6.953   1.458  0.5132 -0.3997  0.1305
  403poe    c31 4825   6.245   4.359   5.798  0.3001 -0.4607  0.6538
  403poe     o2 4826   6.226   4.487   5.743 -0.2796 -0.5742  0.5775
  403poe    c23 4827   6.198   4.466   5.607  0.1621 -0.0956  0.4058
  403poe    c23 4828   6.144   4.594   5.541  0.2102  0.0719  0.6909
  403poe     o2 4829   6.213   4.702   5.600 -0.3196  0.4602  0.6117
  403poe    c23 4830   6.153   4.824   5.562  0.2685  0.5302 -0.1292
  403poe    c23 4831   6.194   4.924   5.671 -0.1431  0.5332  0.0250
  403poe     o2 4832   6.146   4.868   5.791  0.6337  0.2637  0.2190
  403poe    c23 4833   6.189   4.933   5.908 -0.3793 -0.0739  0.7977
  403poe    c23 4834   6.165   4.819   6.010 -0.0883 -0.7225  0.1509
  403poe     o2 4835   6.221   4.697   5.968  0.0076 -0.6520  0.0721
  403poe    c31 4836   6.173   4.616   6.073  0.3104 -0.6197  0.2375
  404poe    c31 4837   1.492   3.804   4.504  0.2223 -0.3569 -0.0180
  404poe     o2 4838   1.455   3.895   4.606  0.1718 -0.4163  0.0171
  404poe    c23 4839   1.508   4.022   4.573 -0.8279  0.0383  0.1496
  404poe    c23 4840   1.438   4.125   4.664  0.1040  0.8026  0.0031
  404poe     o2 4841   1.420   4.068   4.792 -0.0580 -0.1278 -0.4262
  404poe    c23 4842   1.325   4.151   4.856 -0.4039 -0.1379 -0.9173
  404poe    c23 4843   1.261   4.058   4.960  0.5592 -0.1857 -0.3603
  404poe     o2 4844   1.223   3.945   4.885 -0.4670 -0.2424  0.2265
  404poe    c23 4845   1.160   3.848   4.966  0.2098 -0.8239  0.0741
  404poe    c23 4846   1.135   3.723   4.879 -0.5337  0.0408 -0.9900
  404poe     o2 4847   1.248   3.699   4.799  0.2631  0.6436 -0.0703
  404poe    c31 4848   1.218   3.600   4.702 -0.9728  0.4118  0.5370
  405poe    c31 4849   3.225   6.651   3.633 -0.2000  0.1553 -0.4277
  405poe     o2 4850   3.267   6.564   3.736 -0.2406  0.0713 -0.4816
  405poe    c23 4851   3.200   6.441   3.725 -0.3152  0.0077  0.5682
  405poe    c23 4852   3.297   6.328   3.763 -0.2924 -0.0570  0.3213
  405poe     o2 4853   3.336   6.330   3.899 -0.2244 -0.1701  0.3042
  405poe    c23 4854   3.440   6.237   3.913 -0.1088 -0.0193  0.4455
  405poe    c23 4855   3.455   6.206   4.063  0.1505 -0.6146  0.2973
  405poe     o2 4856   3.476   6.331   4.125 -0.1430 -0.3904 -0.0571
  405poe    c23 4857   3.571   6.317   4.228 -0.1721 -0.1040  0.0094
  405poe    c23 4858   3.576   6.451   4.304 -0.0697 -0.1699  0.1196
  405poe     o2 4859   3.520   6.545   4.215 -0.0689 -0.2362  0.0474
  405poe    c31 4860   3.514   6.672   4.276  0.3433 -0.1686 -0.0508
  406poe    c31 4861   4.021   5.174   2.493 -0.2382 -0.2123 -0.9620
  406poe     o2 4862   3.941   5.080   2.560  0.7456 -0.3510  0.0415
  406poe    c23 4863   3.943   4.957   2.490 -0.5773 -0.3192 -0.0619
  406poe    c23 4864   3.870   4.857   2.581 -0.1662  0.0664  0.6942
  406poe     o2 4865   3.755   4.931   2.616 -0.4934  0.1808 -0.5861
  406poe    c23 4866   3.668   4.855   2.698 -0.2298 -0.4704 -0.9007
  406poe    c23 4867   3.557   4.956   2.733  0.3697 -0.2344  0.3820
  406poe     o2 4868   3.624   5.067   2.788  0.0494  0.1971 -0.0874
  406poe    c23 4869   3.534   5.175   2.806 -0.2237  0.0638 -0.6261
  406poe    c23 4870   3.637   5.289   2.819 -0.2963  0.0449  0.1695
  406poe     o2 4871   3.739   5.279   2.723 -0.3358 -0.0027  0.1326
  406poe    c31 4872   3.817   5.396   2.721 -0.3362 -0.0061 -0.2995
  407poe    c31 4873   2.940   0.329   1.459 -0.1582 -0.0062 -0.4918
  407poe     o2 4874   3.080   0.315   1.470 -0.1516  0.4195 -0.0030
  407poe    c23 4875   3.138   0.413   1.553  0.0895  0.4600 -0.2170
  407poe    c23 4876   3.245   0.344   1.639 -0.3427  0.1559  0.0826
  407poe     o2 4877   3.309   0.257   1.548 -0.1203  0.6725 -0.2538
  407poe    c23 4878   3.432   0.204   1.593  0.0848  0.6716 -0.7999
  407poe    c23 4879   3.475   0.110   1.479 -0.3090 -0.6668  0.1244
  407poe     o2 4880   3.363   0.074   1.401 -0.1484 -0.2429 -0.3093
  407poe    c23 4881   3.373  -0.023   1.300  0.0798 -0.5024 -0.0392
  407poe    c23 4882   3.224  -0.045   1.267 -0.1710 -0.1572  0.8363
  407poe     o2 4883   3.152   0.076   1.276  0.3254  0.1444  0.7763
  407poe    c31 4884   3.037   0.077   1.194  0.5699  0.3077  0.4304
  408poe    c31 4885   3.785   5.537   3.966  0.8332  0.3680 -0.2978
  408poe     o2 4886   3.789   5.510   3.828 -0.2852  0.3155 -0.3339
  408poe    c23 4887   3.918   5.529   3.773 -0.2173 -0.4746 -0.4644
  408poe    c23 4888   3.922   5.509   3.621  0.0358  0.1334 -0.5409
  408poe     o2 4889   3.837   5.398   3.605 -0.3552  0.3774 -0.1736
  408poe    c23 4890   3.801   5.368   3.472  0.0681 -0.2229 -0.1579
  408poe    c23 4891   3.668   5.444   3.466 -0.0868 -0.4959 -0.1807
  408poe     o2 4892   3.595   5.402   3.579  0.2411  0.4379  0.3908
  408poe    c23 4893   3.473   5.471   3.591  0.1116  0.1779  0.5726
  408poe    c23 4894   3.398   5.408   3.710 -0.2706 -0.2725  0.1065
  408poe     o2 4895   3.490   5.382   3.814  0.0331 -0.2898 -0.1650
  408poe    c31 4896   3.423   5.333   3.928  0.2548 -0.2151  0.0001
  409poe    c31 4897   2.094   4.930   0.470 -0.5605 -0.1941 -0.0896
  409poe     o2 4898   1.977   4.872   0.524 -0.4013 -0.0715  0.3889
  409poe    c23 4899   1.862   4.923   0.460 -0.2614 -0.2373  0.0023
  409poe    c23 4900   1.738   4.851   0.516 -0.1909 -0.2002  0.2088
  409poe     o2 4901   1.760   4.853   0.655 -0.2599  0.5156  0.2115
  409poe    c23 4902   1.660   4.771   0.712 -0.0474  0.5355  0.6172
  409poe    c23 4903   1.703   4.789   0.859 -0.1012 -0.1453  0.7205
  409poe     o2 4904   1.835   4.738   0.854 -0.1552 -0.2747  0.5986
  409poe    c23 4905   1.909   4.765   0.971  0.2011  0.4773  0.2068
  409poe    c23 4906   2.055   4.773   0.924  0.0823  0.0731 -0.2388
  409poe     o2 4907   2.067   4.847   0.805 -0.4514  0.1147 -0.2657
  409poe    c31 4908   2.206   4.866   0.793 -0.4638  0.1659 -0.3349
  410poe    c31 4909   5.983   3.036   4.876  0.4815  0.2675 -0.2462
  410poe     o2 4910   5.852   3.008   4.921  0.6843 -0.4248 -0.0633
  410poe    c23 4911   5.862   3.017   5.062  0.6248 -0.2243 -0.0708
  410poe    c23 4912   5.720   3.038   5.119  0.7706  0.1485  0.1522
  410poe     o2 4913   5.645   2.951   5.038  0.3918  0.3492  0.2856
  410poe    c23 4914   5.507   2.948   5.067  0.3716  0.0436  0.1607
  410poe    c23 4915   5.444   2.823   5.003  0.6338 -0.0968  0.1767
  410poe     o2 4916   5.466   2.825   4.864 -0.0190 -0.3390  0.0641
  410poe    c23 4917   5.370   2.746   4.799 -0.3359 -0.0765  0.2120
  410poe    c23 4918   5.380   2.725   4.647 -0.4783 -0.1417  0.2114
  410poe     o2 4919   5.484   2.642   4.600  0.1765  0.7619  0.0108
  410poe    c31 4920   5.458   2.587   4.473 -0.1039  0.0734  0.3581
  411poe    c31 4921   2.725   2.600   2.101 -0.8539 -0.2525 -0.4436
  411poe     o2 4922   2.673   2.554   2.223  0.1143 -0.1781  0.0052
  411poe    c23 4923   2.608   2.666   2.279 -0.0095 -0.2076 -0.0794
  411poe    c23 4924   2.555   2.633   2.420  0.7803 -0.6880  0.1126
  411poe     o2 4925   2.484   2.511   2.409 -0.6574  0.1345 -0.0269
  411poe    c23 4926   2.463   2.449   2.534  0.0810 -0.1653 -0.0483
  411poe    c23 4927   2.553   2.324   2.541  0.6081  0.2516  0.7258
  411poe     o2 4928   2.675   2.341   2.471  0.0041  0.2591 -0.3462
  411poe    c23 4929   2.758   2.228   2.483 -0.0755  0.2564  0.2146
  411poe    c23 4930   2.887   2.268   2.408 -0.3761 -0.0433 -0.4639
  411poe     o2 4931   2.848   2.329   2.287 -0.2578 -0.0677 -0.5134
  411poe    c31 4932   2.956   2.320   2.197  0.1348  0.0811 -0.0643
  412poe    c31 4933   2.166   4.515   1.865 -0.3899  0.0195 -0.3684
  412poe     o2 4934   2.245   4.625   1.904  0.0550 -0.2313 -0.5542
  412poe    c23 4935   2.178   4.744   1.870 -0.2471 -0.1931  0.1429
  412poe    c23 4936   2.287   4.851   1.887 -0.7049  0.2399  0.3923
  412poe     o2 4937   2.373   4.825   1.996  0.1782  0.1483 -0.3107
  412poe    c23 4938   2.444   4.941   2.034  0.6281 -0.1829 -0.1341
  412poe    c23 4939   2.429   4.959   2.187 -0.3219 -0.5180 -0.1823
  412poe     o2 4940   2.472   4.834   2.236 -0.2517 -0.2182  0.5310
  412poe    c23 4941   2.378   4.786   2.330 -0.4320 -0.1943  0.3655
  412poe    c23 4942   2.368   4.633   2.314 -0.6070 -0.1682  0.2342
  412poe     o2 4943   2.308   4.591   2.194  0.5681 -0.2558 -0.3339
  412poe    c31 4944   2.228   4.478   2.220 -0.3676  0.4122 -0.2599
  413poe    c31 4945   6.092   4.264   0.074  0.1210  0.7831 -0.1183
  413poe     o2 4946   6.091   4.160  -0.020  0.2907  0.6047  0.0777
  413poe    c23 4947   6.222   4.112  -0.045 -0.0864 -0.2301 -0.3460
  413poe    c23 4948   6.196   3.969  -0.094 -0.2061 -0.4517  0.3587
  413poe     o2 4949   6.121   3.901   0.005 -0.6603 -0.5488 -0.0481
  413poe    c23 4950   6.116   3.768  -0.042  0.5547 -0.7193  0.2601
  413poe    c23 4951   6.063   3.680   0.072 -0.0424 -0.1238  0.4461
  413poe     o2 4952   5.943   3.727   0.130 -0.0578 -0.2074  0.4811
  413poe    c23 4953   5.851   3.625   0.165 -0.7470  0.3793  0.4053
  413poe    c23 4954   5.881   3.543   0.291 -0.2496 -0.1056 -0.0194
  413poe     o2 4955   5.983   3.452   0.258  0.0036  0.2530 -0.2373
  413poe    c31 4956   6.060   3.441   0.375  0.2015 -0.6983 -0.4432
  414poe    c31 4957   6.282   3.387   4.245 -0.2486 -0.4796  0.3444
  414poe     o2 4958   6.219   3.299   4.155 -0.0682 -0.0194 -0.2463
  414poe    c23 4959   6.091   3.339   4.113  0.1191 -0.2128 -1.0216
  414poe    c23 4960   6.015   3.220   4.052 -0.3268 -0.3500 -0.2229
  414poe     o2 4961   6.099   3.181   3.946 -0.1475 -0.3175 -0.0929
  414poe    c23 4962   6.078   3.044   3.918 -0.1335 -0.1860 -0.7702
  414poe    c23 4963   6.211   2.977   3.881 -0.0164 -0.2416 -0.2534
  414poe     o2 4964   6.303   3.021   3.979  0.3101 -0.1967 -0.5774
  414poe    c23 4965   6.434   2.969   3.968  0.2378 -0.6080  0.3834
  414poe    c23 4966   6.510   3.036   4.084 -0.6555 -0.1713  0.7250
  414poe     o2 4967   6.490   3.175   4.073  0.1378 -0.0852  0.3161
  414poe    c31 4968   6.595   3.256   4.120  0.0476 -0.1621  0.6499
  415poe    c31 4969   2.469   0.291   1.519  0.0493  0.3908 -0.2731
  415poe     o2 4970   2.346   0.303   1.452 -0.0020  0.2780 -0.1984
  415poe    c23 4971   2.262   0.216   1.525 -0.2493  0.6320 -0.0558
  415poe    c23 4972   2.112   0.235   1.500 -0.3460 -0.2402 -0.1775
  415poe     o2 4973   2.098   0.228   1.360 -0.3728 -0.9073 -0.1435
  415poe    c23 4974   1.985   0.297   1.311  0.0519 -0.4370 -0.4701
  415poe    c23 4975   2.020   0.340   1.168 -0.0887  0.2364 -0.3072
  415poe     o2 4976   2.147   0.402   1.168  0.3304 -0.6074  0.4298
  415poe    c23 4977   2.190   0.438   1.038  0.0904 -0.7067  0.3221
  415poe    c23 4978   2.319   0.520   1.057 -0.3404  0.1776 -0.5144
  415poe     o2 4979   2.404   0.468   1.157  0.1715  0.8953 -0.5704
  415poe    c31 4980   2.536   0.518   1.156  0.2948  0.5957  0.1669
  416poe    c31 4981   1.606   1.366   2.380  0.1528  0.2456  0.1935
  416poe     o2 4982   1.557   1.463   2.471 -0.2055  0.7642 -0.5404
  416poe    c23 4983   1.418   1.444   2.478 -0.0885  0.0500 -0.0704
  416poe    c23 4984   1.356   1.579   2.516 -0.4369 -0.1584  0.1028
  416poe     o2 4985   1.420   1.612   2.638  0.7779  0.4447 -0.6829
  416poe    c23 4986   1.411   1.739   2.698 -0.0844 -0.1433  0.4704
  416poe    c23 4987   1.522   1.739   2.806 -0.2134 -0.0636  0.6036
  416poe     o2 4988   1.644   1.695   2.752 -0.2734  0.5062 -0.0062
  416poe    c23 4989   1.711   1.622   2.853 -0.3600 -0.4093 -0.5959
  416poe    c23 4990   1.836   1.564   2.784  0.4403  0.5091  0.0513
  416poe     o2 4991   1.795   1.533   2.652  0.3162  0.0455  0.2005
  416poe    c31 4992   1.878   1.431   2.602  0.5311  0.0781  0.4859
  417poe    c31 4993   1.694   0.747   5.299 -0.2143  0.1678 -0.2923
  417poe     o2 4994   1.766   0.839   5.220  0.1057 -0.3617 -0.6260
  417poe    c23 4995   1.862   0.777   5.137  0.4920 -0.4795 -0.0990
  417poe    c23 4996   1.930   0.889   5.057 -0.9386  0.5387  0.0788
  417poe     o2 4997   1.962   0.996   5.143 -0.3691  0.6495 -0.2619
  417poe    c23 4998   2.018   1.103   5.071  0.5717 -0.0186 -0.5316
  417poe    c23 4999   2.031   1.222   5.167 -0.1308 -0.3659  0.0023
  417poe     o2 5000   1.907   1.270   5.214 -0.0062  0.2654 -0.3019
  417poe    c23 5001   1.887   1.291   5.352 -0.3673  0.5340 -0.3923
  417poe    c23 5002   1.745   1.250   5.393  0.0031 -0.3440  0.0466
  417poe     o2 5003   1.731   1.110   5.384 -0.1412 -0.3188 -0.1307
  417poe    c31 5004   1.600   1.065   5.409 -0.2136  0.1984  0.4415
  418poe    c31 5005   2.886   3.971   1.737  0.1131 -0.0104 -0.2219
  418poe     o2 5006   2.745   3.980   1.730  0.0971  0.2667  0.3679
  418poe    c23 5007   2.716   4.021   1.598 -0.2752  0.2658  0.4505
  418poe    c23 5008   2.573   4.076   1.611 -0.2577  0.2499  0.7353
  418poe     o2 5009   2.511   3.994   1.708 -0.8440 -0.6470 -0.3666
  418poe    c23 5010   2.385   4.044   1.745 -0.4584 -0.3312  0.5583
  418poe    c23 5011   2.381   4.087   1.893 -0.5886 -0.0790  0.4833
  418poe     o2 5012   2.456   3.989   1.962 -0.5671 -0.3220  0.1183
  418poe    c23 5013   2.476   4.009   2.100 -0.1119 -0.6105  0.0963
  418poe    c23 5014   2.583   3.916   2.160  0.2593 -0.0617  0.2964
  418poe     o2 5015   2.681   3.904   2.060 -0.1887  0.2910 -0.1951
  418poe    c31 5016   2.805   3.857   2.110 -0.1542  0.1564 -0.4084
  419poe    c31 5017   5.516   1.601   2.835 -0.3401  0.0573 -0.2089
  419poe     o2 5018   5.628   1.535   2.891 -0.1804  0.5350  0.0363
  419poe    c23 5019   5.592   1.484   3.017 -0.3183  0.3562 -0.0749
  419poe    c23 5020   5.721   1.446   3.093 -0.4665  0.0733  0.0372
  419poe     o2 5021   5.812   1.390   3.001 -0.2016 -0.0588  0.3760
  419poe    c23 5022   5.947   1.379   3.040 -0.2630  0.2533  0.6746
  419poe    c23 5023   6.043   1.421   2.927 -0.3015 -0.1504  0.4922
  419poe     o2 5024   5.968   1.401   2.809 -0.4701  0.3647  0.5121
  419poe    c23 5025   6.039   1.471   2.708 -0.2569 -0.0726  0.3577
  419poe    c23 5026   5.934   1.487   2.596 -0.6384 -0.2074  0.6911
  419poe     o2 5027   5.809   1.503   2.659 -0.7161  0.1067  0.4617
  419poe    c31 5028   5.713   1.504   2.556  0.1498  0.2488 -0.3536
  420poe    c31 5029   5.017   0.370   5.563 -0.1842  0.4017  0.2783
  420poe     o2 5030   4.976   0.342   5.431  0.3211 -0.5570  0.3146
  420poe    c23 5031   5.082   0.274   5.367  0.2063 -0.7404  0.3198
  420poe    c23 5032   5.036   0.235   5.225 -0.3640 -0.4346  0.4180
  420poe     o2 5033   4.987   0.358   5.176  0.7418 -0.1930 -0.0916
  420poe    c23 5034   4.926   0.363   5.049  0.3800  0.0303  0.0891
  420poe    c23 5035   4.896   0.514   5.035 -0.1070 -0.0887 -0.1458
  420poe     o2 5036   4.840   0.543   5.161  0.1670  0.3456 -0.1221
  420poe    c23 5037   4.867   0.679   5.186  0.7595  0.1990  0.0393
  420poe    c23 5038   4.805   0.716   5.322 -0.3784 -0.1994 -0.3598
  420poe     o2 5039   4.840   0.610   5.408 -0.0964 -0.2078 -0.4829
  420poe    c31 5040   4.754   0.616   5.519 -0.0186 -0.4941 -0.4063
  421poe    c31 5041   3.765   0.619   4.121  0.0552 -0.1053 -0.3967
  421poe     o2 5042   3.630   0.626   4.079 -0.1482 -0.0243  0.2491
  421poe    c23 5043   3.583   0.496   4.047 -0.0378  0.0027 -0.0309
  421poe    c23 5044   3.465   0.519   3.951 -0.0270 -0.1040 -0.0692
  421poe     o2 5045   3.391   0.632   3.992 -1.0825 -0.9141  0.3083
  421poe    c23 5046   3.281   0.669   3.911 -0.7329 -0.5035  0.0193
  421poe    c23 5047   3.225   0.789   3.990  0.2430 -0.1584  0.2079
  421poe     o2 5048   3.327   0.877   4.031 -0.1897  0.4154  0.0590
  421poe    c23 5049   3.303   0.969   4.135 -0.3275  0.1477  0.2649
  421poe    c23 5050   3.432   0.992   4.215 -0.4696  0.2014  0.4817
  421poe     o2 5051   3.502   0.870   4.221 -0.3579  0.2432  0.0669
  421poe    c31 5052   3.564   0.839   4.343 -0.2632 -0.7759 -0.2304
  422poe    c31 5053   6.571   5.732   1.031 -0.0272 -0.1930 -0.2699
  422poe     o2 5054   6.442   5.729   0.973 -0.2267  0.1096  0.1523
  422poe    c23 5055   6.347   5.758   1.073 -0.0492 -0.0263  0.3612
  422poe    c23 5056   6.206   5.740   1.015  0.1209  0.0826 -0.0868
  422poe     o2 5057   6.208   5.617   0.946 -0.0269 -0.3064  0.5987
  422poe    c23 5058   6.083   5.592   0.886  0.0630 -0.3469  0.4273
  422poe    c23 5059   6.106   5.474   0.790 -0.1104  0.2178 -0.3186
  422poe     o2 5060   6.244   5.477   0.761 -0.0212  0.0291  0.0728
  422poe    c23 5061   6.295   5.376   0.678 -0.1335  0.1394 -0.1332
  422poe    c23 5062   6.430   5.437   0.635 -0.1568  0.5947  0.4199
  422poe     o2 5063   6.483   5.498   0.751 -0.0532 -0.2653  0.8322
  422poe    c31 5064   6.614   5.542   0.723 -0.3888  0.3885  0.2526
  423poe    c31 5065   0.096   3.411   3.792  0.3070  0.1053  0.7851
  423poe     o2 5066   0.030   3.527   3.745  0.0765 -0.3869 -0.1233
  423poe    c23 5067   0.035   3.643   3.824  0.3086 -0.1081 -0.5446
  423poe    c23 5068  -0.023   3.768   3.755  0.1217  0.0645 -0.0816
  423poe     o2 5069  -0.150   3.715   3.724  0.0447 -0.1611  0.6036
  423poe    c23 5070  -0.228   3.816   3.664  0.2659 -0.1099  0.3985
  423poe    c23 5071  -0.219   3.803   3.511  0.6220  0.2756  0.3853
  423poe     o2 5072  -0.221   3.665   3.480  0.0404  0.3270  0.1746
  423poe    c23 5073  -0.173   3.631   3.352 -0.6718 -0.2811  0.0637
  423poe    c23 5074  -0.138   3.481   3.356 -0.0128 -0.1334 -0.1071
  423poe     o2 5075  -0.078   3.458   3.482 -0.7258  0.1646  0.2904
  423poe    c31 5076  -0.021   3.330   3.464 -0.1066  0.4775  0.0247
  424poe    c31 5077   6.621   3.436   1.548 -0.2530 -0.6156  0.1400
  424poe     o2 5078   6.711   3.328   1.559 -0.0379 -0.4766 -0.2309
  424poe    c23 5079   6.656   3.205   1.600 -0.4934 -0.1682  0.1033
  424poe    c23 5080   6.748   3.089   1.557  0.0158  0.2238  0.1281
  424poe     o2 5081   6.871   3.137   1.607  0.0041  0.2147  0.1655
  424poe    c23 5082   6.985   3.067   1.562 -0.2239 -0.2553  0.3038
  424poe    c23 5083   7.100   3.147   1.628 -0.3117  0.3049 -0.2139
  424poe     o2 5084   7.072   3.281   1.595 -0.0124  0.3784 -0.1653
  424poe    c23 5085   7.139   3.378   1.673 -0.0002  0.4609 -0.2776
  424poe    c23 5086   7.056   3.508   1.667 -0.2609  0.2847 -0.5286
  424poe     o2 5087   6.922   3.472   1.689 -0.1261  0.1012  0.0065
  424poe    c31 5088   6.899   3.479   1.828  0.2319  0.7243  0.0369
  425poe    c31 5089   2.663   6.619   0.322  0.0582 -0.0940  0.3110
  425poe     o2 5090   2.733   6.741   0.331 -0.0425 -0.0222  0.1397
  425poe    c23 5091   2.723   6.787   0.464 -0.0436  0.3787  0.0019
  425poe    c23 5092   2.783   6.927   0.483 -0.5364  0.6125 -0.1391
  425poe     o2 5093   2.922   6.942   0.463 -0.4815  0.2138 -0.0602
  425poe    c23 5094   2.943   7.079   0.490 -0.1239  0.0986  0.2523
  425poe    c23 5095   3.094   7.112   0.491  0.0699 -0.7417 -0.0951
  425poe     o2 5096   3.164   7.023   0.575  0.0173 -0.4008  0.3114
  425poe    c23 5097   3.293   7.076   0.592 -0.2036 -0.0261  0.8603
  425poe    c23 5098   3.373   6.963   0.660  0.3612 -0.2887 -0.2177
  425poe     o2 5099   3.342   6.838   0.603 -0.1277 -0.4910  0.4752
  425poe    c31 5100   3.449   6.768   0.545 -0.0786 -0.1036  0.0908
  426poe    c31 5101   3.064   4.145   6.236 -0.0902 -0.8900  0.3339
  426poe     o2 5102   3.072   4.145   6.096 -0.0024  0.1529  0.3255
  426poe    c23 5103   3.051   4.274   6.044 -0.4599 -0.3599 -0.8242
  426poe    c23 5104   3.070   4.274   5.892 -0.0098  0.4858 -0.7771
  426poe     o2 5105   3.147   4.160   5.863  0.0349  0.4082 -0.3502
  426poe    c23 5106   3.168   4.153   5.724  0.6856  0.0774 -0.2421
  426poe    c23 5107   3.212   4.010   5.689  0.6214 -0.1631  0.6377
  426poe     o2 5108   3.131   3.930   5.771  0.1844  0.4523  0.8148
  426poe    c23 5109   3.168   3.797   5.802 -0.2483  0.0735 -0.2595
  426poe    c23 5110   3.276   3.792   5.911 -0.4360  0.8089 -0.0372
  426poe     o2 5111   3.248   3.892   6.006  0.0236  0.6645  0.2529
  426poe    c31 5112   3.333   3.860   6.114 -0.3642  0.2833  0.4456
  427poe    c31 5113   5.730   2.083   4.973  0.2372  0.4469  0.7507
  427poe     o2 5114   5.657   1.984   5.042  0.1594  0.2094  0.3338
  427poe    c23 5115   5.663   1.851   4.995  0.4068  0.1522  0.5253
  427poe    c23 5116   5.581   1.763   5.092 -0.2531  0.0132 -0.1486
  427poe     o2 5117   5.450   1.816   5.097 -0.2396  0.0633 -0.3124
  427poe    c23 5118   5.375   1.764   5.204 -0.1964 -0.1976 -0.4078
  427poe    c23 5119   5.282   1.875   5.258 -0.1888 -0.0111 -0.7762
  427poe     o2 5120   5.363   1.990   5.255 -0.2320  0.0451 -0.0628
  427poe    c23 5121   5.282   2.097   5.299  0.1000  0.4012 -0.3106
  427poe    c23 5122   5.368   2.225   5.285  0.2371  0.3212 -0.2056
  427poe     o2 5123   5.446   2.215   5.168  0.2546  0.1296 -0.1791
  427poe    c31 5124   5.521   2.334   5.153  0.6527 -0.1317 -0.2722
  428poe    c31 5125   2.613   4.279   0.599  0.7182  0.0045 -0.4377
  428poe     o2 5126   2.554   4.165   0.541  0.1930  0.0966 -0.0945
  428poe    c23 5127   2.644   4.056   0.546 -0.6348 -0.5725  0.3304
  428poe    c23 5128   2.610   3.984   0.414 -0.6428 -0.0826  0.0629
  428poe     o2 5129   2.470   3.981   0.400 -0.6604 -0.4410  0.3030
  428poe    c23 5130   2.422   3.926   0.279  0.1872 -0.3972 -0.0583
  428poe    c23 5131   2.269   3.934   0.269  0.2292 -0.1033 -0.4445
  428poe     o2 5132   2.220   4.065   0.289  0.6032 -0.0228 -0.0521
  428poe    c23 5133   2.117   4.068   0.385  0.1392  0.1191 -0.5503
  428poe    c23 5134   2.142   4.024   0.530 -0.0271 -0.1994 -0.6176
  428poe     o2 5135   2.265   4.073   0.579 -0.6320  0.4288  0.3092
  428poe    c31 5136   2.284   4.031   0.712 -0.0134 -0.1325  0.0530
  429poe    c31 5137   6.584   0.957   5.514  0.2940 -0.0836 -0.1283
  429poe     o2 5138   6.632   0.826   5.494  0.3422 -0.1453  0.3759
  429poe    c23 5139   6.746   0.829   5.411  0.0822  0.9081  0.0389
  429poe    c23 5140   6.792   0.682   5.419 -0.5559  0.7208  0.3686
  429poe     o2 5141   6.682   0.595   5.421  0.0827 -0.1034  0.4231
  429poe    c23 5142   6.721   0.461   5.438 -0.0148 -0.1495  0.2867
  429poe    c23 5143   6.600   0.389   5.501  0.0889 -0.2658  0.3546
  429poe     o2 5144   6.540   0.487   5.583  0.0734  0.0949 -0.0825
  429poe    c23 5145   6.454   0.441   5.684  0.1226  0.2727  0.0410
  429poe    c23 5146   6.407   0.568   5.757 -0.0195  0.7378 -0.8478
  429poe     o2 5147   6.484   0.683   5.730  0.1885  0.7004 -0.4241
  429poe    c31 5148   6.452   0.780   5.827  0.5771  0.2722  0.1456
  430poe    c31 5149   6.494   5.284   0.095  0.7158  0.6047  0.4774
  430poe     o2 5150   6.457   5.398   0.021 -0.1712 -0.3700 -0.6103
  430poe    c23 5151   6.349   5.469   0.075  0.3941  0.0280  0.0107
  430poe    c23 5152   6.339   5.604   0.002  0.2596  0.0288  0.0318
  430poe     o2 5153   6.358   5.571  -0.133 -0.6641 -0.1098 -0.0726
  430poe    c23 5154   6.385   5.685  -0.212  0.1774  0.0445  0.4314
  430poe    c23 5155   6.437   5.631  -0.347  0.1786  0.3310  0.3161
  430poe     o2 5156   6.540   5.542  -0.308 -0.0747 -0.1745 -0.1455
  430poe    c23 5157   6.618   5.477  -0.405 -0.0521 -0.3169 -0.0327
  430poe    c23 5158   6.721   5.397  -0.323  0.1118  0.7014  0.7790
  430poe     o2 5159   6.645   5.334  -0.222 -0.0168 -0.2043  0.1337
  430poe    c31 5160   6.727   5.233  -0.170 -0.0722 -0.1157  0.3932
  431poe    c31 5161   6.014   2.299   3.765 -0.4757  0.5058 -0.2995
  431poe     o2 5162   5.942   2.344   3.878 -0.2370  0.2183 -0.0297
  431poe    c23 5163   6.027   2.398   3.977 -0.3650 -0.0872  0.2483
  431poe    c23 5164   5.948   2.485   4.077 -0.1146  0.3442  0.0736
  431poe     o2 5165   5.840   2.400   4.107  0.0593  0.2823  0.5344
  431poe    c23 5166   5.789   2.434   4.234 -0.6164 -0.1754  0.3908
  431poe    c23 5167   5.638   2.415   4.207 -0.4440  0.1521 -0.8459
  431poe     o2 5168   5.634   2.289   4.144 -0.0255 -0.1740 -0.2316
  431poe    c23 5169   5.518   2.269   4.066  0.0401 -0.1964 -0.3236
  431poe    c23 5170   5.552   2.151   3.974  0.2310 -0.3990  0.0031
  431poe     o2 5171   5.676   2.178   3.911  0.4662 -0.1375  0.5726
  431poe    c31 5172   5.678   2.100   3.793 -0.5897  0.2788  0.2653
  432poe    c31 5173   1.934   0.564   2.495  0.0800  0.1174  0.1704
  432poe     o2 5174   1.969   0.626   2.616 -0.6133  0.7311  0.0626
  432poe    c23 5175   1.945   0.765   2.615 -0.0288  0.8484  1.0014
  432poe    c23 5176   1.952   0.823   2.758  0.1864  0.5095  1.1305
  432poe     o2 5177   1.865   0.735   2.825 -0.6179  0.2912 -0.1583
  432poe    c23 5178   1.840   0.736   2.964  0.8830  0.0972  0.1332
  432poe    c23 5179   1.797   0.597   3.014  0.9885  0.2547  0.6697
  432poe     o2 5180   1.895   0.516   2.952  0.1186 -0.1707 -0.1939
  432poe    c23 5181   1.872   0.378   2.962  0.3917 -0.1669  0.5654
  432poe    c23 5182   1.987   0.312   2.884  0.3193  0.3456  0.0171
  432poe     o2 5183   2.005   0.377   2.760  0.2909 -0.2608 -0.3083
  432poe    c31 5184   2.093   0.302   2.679  0.3398 -0.3867 -0.1405
  433poe    c31 5185   5.032   6.180   3.803  0.4333 -0.0583 -0.7390
  433poe     o2 5186   5.058   6.294   3.724  0.7857  0.0486 -0.4712
  433poe    c23 5187   5.006   6.282   3.594  0.2123  0.1455 -0.2538
  433poe    c23 5188   5.042   6.420   3.536  0.1128  0.1691 -0.2611
  433poe     o2 5189   5.175   6.444   3.576  0.0965 -0.1313 -0.0260
  433poe    c23 5190   5.240   6.557   3.523  0.0873 -0.0901  0.0505
  433poe    c23 5191   5.360   6.599   3.609 -0.1933  0.2059  0.3000
  433poe     o2 5192   5.316   6.556   3.736 -0.0355 -0.4783  0.1295
  433poe    c23 5193   5.413   6.558   3.839  0.2181 -0.3529 -0.1116
  433poe    c23 5194   5.330   6.523   3.963 -0.3372  0.3698 -0.2773
  433poe     o2 5195   5.250   6.413   3.926  0.7011 -0.6204  0.3516
  433poe    c31 5196   5.216   6.354   4.049  0.5448  0.3667  0.7927
  434poe    c31 5197   6.463   6.340   3.888 -0.3533  0.0716  0.1426
  434poe     o2 5198   6.499   6.454   3.963  0.8097 -0.5308  0.5208
  434poe    c23 5199   6.573   6.534   3.873  0.3546  0.0080  0.6145
  434poe    c23 5200   6.607   6.668   3.941 -0.2254  0.4205  0.0966
  434poe     o2 5201   6.651   6.629   4.069  0.0159  0.6491  0.0824
  434poe    c23 5202   6.677   6.728   4.166  0.2892  0.4742  0.1884
  434poe    c23 5203   6.708   6.654   4.298  0.1819  0.1018  0.0046
  434poe     o2 5204   6.594   6.572   4.308 -0.0775  0.4923  0.2566
  434poe    c23 5205   6.613   6.493   4.423  0.5585 -0.7914 -0.7056
  434poe    c23 5206   6.491   6.400   4.410 -0.4195  0.4339 -0.4354
  434poe     o2 5207   6.493   6.359   4.275  0.0520 -0.0597 -0.2821
  434poe    c31 5208   6.427   6.235   4.262 -0.1646 -0.0260  0.4331
  435poe    c31 5209   4.998   4.583   0.476 -0.3244  0.5841 -0.7603
  435poe     o2 5210   4.979   4.463   0.405  0.0985 -0.0144  0.1207
  435poe    c23 5211   5.105   4.403   0.387 -0.1110 -0.6481  0.7098
  435poe    c23 5212   5.090   4.286   0.289  0.2480  0.0025 -0.1411
  435poe     o2 5213   4.998   4.328   0.191 -0.9662 -0.2903  0.8467
  435poe    c23 5214   4.991   4.244   0.078  0.5922  0.5150  0.1204
  435poe    c23 5215   4.884   4.311  -0.011  0.1187 -0.3681  0.0161
  435poe     o2 5216   4.776   4.350   0.071  0.2245 -0.1109  0.0345
  435poe    c23 5217   4.688   4.443   0.013  0.2976  0.0607  0.1974
  435poe    c23 5218   4.625   4.527   0.126 -0.2904 -0.0923 -0.0103
  435poe     o2 5219   4.724   4.567   0.218 -0.1705  0.1817 -0.2573
  435poe    c31 5220   4.664   4.633   0.327  0.2873  0.3925 -0.1290
  436poe    c31 5221   3.994   2.227   0.409  0.2335  0.0799 -0.7193
  436poe     o2 5222   4.100   2.251   0.500  0.0114 -0.1418 -0.3988
  436poe    c23 5223   4.220   2.207   0.441 -0.0482 -0.5132 -0.2426
  436poe    c23 5224   4.338   2.241   0.534  0.0971 -0.7884 -0.3225
  436poe     o2 5225   4.318   2.369   0.591 -0.1086 -1.1895  0.5163
  436poe    c23 5226   4.422   2.416   0.674  0.0043 -0.2404 -0.1545
  436poe    c23 5227   4.359   2.442   0.812  0.4382  0.5902 -0.1089
  436poe     o2 5228   4.256   2.534   0.784 -0.2286  0.0485  0.5413
  436poe    c23 5229   4.154   2.531   0.882 -0.4660  0.1876  0.3009
  436poe    c23 5230   4.018   2.570   0.821 -0.5398 -0.3781  0.1042
  436poe     o2 5231   4.008   2.496   0.701  0.4711 -0.3703  0.0011
  436poe    c31 5232   3.870   2.486   0.671  0.3967  0.3361  0.0850
  437poe    c31 5233   3.230   6.713   4.085 -0.3376 -0.7988 -0.8611
  437poe     o2 5234   3.256   6.575   4.100  0.1363 -0.5726  0.4882
  437poe    c23 5235   3.138   6.497   4.107 -0.2797 -0.0320 -0.3005
  437poe    c23 5236   3.145   6.388   4.216  0.5004  0.1477 -0.1663
  437poe     o2 5237   3.112   6.426   4.348  0.2654 -0.1329 -0.1439
  437poe    c23 5238   3.165   6.322   4.426 -0.3962 -0.0102  0.4734
  437poe    c23 5239   3.159   6.396   4.561  0.0470  0.2656  0.3427
  437poe     o2 5240   3.028   6.446   4.575 -0.0794  0.0057  0.0973
  437poe    c23 5241   3.011   6.502   4.704  0.1727  0.0877  0.0958
  437poe    c23 5242   2.860   6.528   4.704  0.3077  0.9113 -0.4345
  437poe     o2 5243   2.826   6.588   4.581 -0.0503  0.3464 -0.6155
  437poe    c31 5244   2.694   6.635   4.571 -0.2386  0.2098  1.0590
  438poe    c31 5245   6.716   6.391   0.715 -0.0312  0.0048  0.0616
  438poe     o2 5246   6.695   6.527   0.684  0.5640  0.0344 -0.2362
  438poe    c23 5247   6.814   6.590   0.643  0.7034  0.3151  0.5828
  438poe    c23 5248   6.783   6.738   0.671  0.1496  0.4248 -0.5590
  438poe     o2 5249   6.650   6.781   0.655 -0.0016  0.1006 -0.1839
  438poe    c23 5250   6.613   6.902   0.718 -0.2205  0.2624 -0.6198
  438poe    c23 5251   6.461   6.906   0.696 -0.3148  0.2295  0.0161
  438poe     o2 5252   6.416   6.773   0.711 -0.1010  0.1242 -0.2718
  438poe    c23 5253   6.292   6.738   0.654 -0.3234 -0.2058  0.3963
  438poe    c23 5254   6.263   6.596   0.705 -0.8643 -0.2068  0.0884
  438poe     o2 5255   6.383   6.524   0.688 -0.5609  0.3091  0.0419
  438poe    c31 5256   6.368   6.388   0.723  0.4268  0.3086  0.4961
  439poe    c31 5257   1.036   4.642   3.365 -0.4724  0.4744 -0.2347
  439poe     o2 5258   1.113   4.750   3.414  0.0052 -0.0215  0.1149
  439poe    c23 5259   1.209   4.768   3.312 -0.0890  0.0372  0.0364
  439poe    c23 5260   1.336   4.825   3.378 -0.2457  0.1295  0.2597
  439poe     o2 5261   1.285   4.910   3.478 -0.2064  0.7705 -0.2551
  439poe    c23 5262   1.385   4.962   3.562  0.0692 -0.8419  0.4526
  439poe    c23 5263   1.308   5.024   3.680  0.2237 -0.4786  0.3629
  439poe     o2 5264   1.220   4.917   3.705 -0.1793 -0.2393 -0.0086
  439poe    c23 5265   1.114   4.971   3.781 -0.2258 -0.0756 -0.1898
  439poe    c23 5266   1.003   4.865   3.795 -0.5312  0.2082 -0.4358
  439poe     o2 5267   0.981   4.818   3.664 -0.0545  0.3174 -0.5595
  439poe    c31 5268   0.856   4.754   3.647 -0.1458  0.4321 -0.3174
  440poe    c31 5269   4.253   2.999   5.041  0.4759  0.2612 -0.0148
  440poe     o2 5270   4.258   2.859   5.059 -0.1179  0.2456  0.0597
  440poe    c23 5271   4.135   2.809   5.106  0.0042  0.2948  0.4413
  440poe    c23 5272   4.148   2.656   5.110 -0.0244  0.2819  0.0818
  440poe     o2 5273   4.253   2.617   5.196 -0.2354 -0.1706  0.1363
  440poe    c23 5274   4.301   2.486   5.174  0.1258  0.0066 -0.1288
  440poe    c23 5275   4.444   2.500   5.229  0.2412  0.1221 -0.4565
  440poe     o2 5276   4.497   2.627   5.197  0.5630  0.0188 -0.3427
  440poe    c23 5277   4.602   2.670   5.281  0.5651 -0.2965 -0.1823
  440poe    c23 5278   4.670   2.790   5.212 -0.0059 -0.1600 -0.5213
  440poe     o2 5279   4.572   2.882   5.172  0.1009  0.3766  0.4303
  440poe    c31 5280   4.628   3.010   5.150  0.6244  0.0354 -0.2499
  441poe    c31 5281   0.672   0.368   1.282  0.4321  0.3969  0.4162
  441poe     o2 5282   0.619   0.360   1.151 -0.0539  0.4552  0.6055
  441poe    c23 5283   0.668   0.467   1.074  0.4990 -0.3969 -0.2498
  441poe    c23 5284   0.623   0.446   0.928  0.4646 -0.3258 -0.2495
  441poe     o2 5285   0.487   0.416   0.945  0.3406  0.0643 -0.5248
  441poe    c23 5286   0.419   0.416   0.822 -0.3096 -0.2837 -0.1728
  441poe    c23 5287   0.269   0.414   0.857 -0.3110  0.0094 -0.1571
  441poe     o2 5288   0.255   0.317   0.959  0.6002  0.3905  0.3414
  441poe    c23 5289   0.152   0.334   1.055 -0.0136 -0.5746 -0.1351
  441poe    c23 5290   0.191   0.236   1.167 -0.0095  0.0784  0.4397
  441poe     o2 5291   0.321   0.258   1.216  0.0809  0.2682  0.1141
  441poe    c31 5292   0.340   0.180   1.332 -0.6685 -0.2704 -0.1165
  442poe    c31 5293   0.279   3.565   6.168  0.0328  0.5969 -0.4665
  442poe     o2 5294   0.172   3.637   6.110 -0.4148  0.1069 -0.2575
  442poe    c23 5295   0.108   3.713   6.209 -0.1254 -0.1787  0.1556
  442poe    c23 5296  -0.038   3.733   6.163 -0.1734 -0.1104  0.3355
  442poe     o2 5297  -0.033   3.760   6.024 -0.3213 -0.1297  0.3270
  442poe    c23 5298  -0.152   3.744   5.951 -0.0737 -0.8583  0.0832
  442poe    c23 5299  -0.120   3.807   5.814  0.2939  0.1053  0.6111
  442poe     o2 5300   0.003   3.752   5.773  0.3591  0.5372  0.2231
  442poe    c23 5301   0.030   3.789   5.640  0.1393 -0.1621 -0.0177
  442poe    c23 5302   0.071   3.935   5.614 -0.1483 -0.0347  0.2450
  442poe     o2 5303  -0.026   4.038   5.619  0.2196  0.3173  0.1941
  442poe    c31 5304   0.026   4.167   5.595  0.7936  0.0330 -0.1020
  443poe    c31 5305   0.265   5.061   5.828 -0.2670 -0.4275  0.5101
  443poe     o2 5306   0.136   5.048   5.772 -0.1497 -0.0866  0.1552
  443poe    c23 5307   0.152   5.025   5.634  0.7995  0.7657  0.1095
  443poe    c23 5308   0.021   5.020   5.555  0.2167 -0.1065  1.1069
  443poe     o2 5309  -0.051   5.137   5.588 -0.0910  0.1751 -0.4601
  443poe    c23 5310  -0.188   5.109   5.572 -0.0740 -0.3039  0.1744
  443poe    c23 5311  -0.244   5.211   5.672 -0.4943 -0.3378 -0.0257
  443poe     o2 5312  -0.190   5.178   5.798 -0.5418  0.3421  0.1819
  443poe    c23 5313  -0.219   5.276   5.895 -0.2292  0.1962  0.4226
  443poe    c23 5314  -0.172   5.225   6.033 -0.1361 -0.2444  0.2285
  443poe     o2 5315  -0.046   5.169   6.002  0.0597  0.2382  0.1454
  443poe    c31 5316  -0.004   5.101   6.119  0.6643 -0.2342 -0.3422
  444poe    c31 5317   1.140   5.435   3.660 -0.4872 -0.1011  0.1981
  444poe     o2 5318   1.057   5.540   3.704 -0.0458  0.4295 -0.2184
  444poe    c23 5319   0.956   5.496   3.791 -0.2289  0.7400 -0.2717
  444poe    c23 5320   0.880   5.619   3.845  0.3433  0.7800  0.4617
  444poe     o2 5321   0.843   5.678   3.722  0.3904  0.0510  0.0902
  444poe    c23 5322   0.785   5.807   3.725 -0.0702 -0.1419 -0.3348
  444poe    c23 5323   0.770   5.848   3.577 -0.1793  0.1492 -0.2433
  444poe     o2 5324   0.888   5.793   3.522  0.1242  0.0939  0.4477
  444poe    c23 5325   0.893   5.809   3.382  0.0545  0.0521  0.4404
  444poe    c23 5326   1.044   5.820   3.355 -0.0206  0.3198  0.1228
  444poe     o2 5327   1.096   5.707   3.423  0.1581  0.2276 -0.1639
  444poe    c31 5328   1.237   5.710   3.427  0.1691 -0.3306 -0.1515
  445poe    c31 5329   1.336   0.543   5.611  0.0059 -0.1032 -0.2536
  445poe     o2 5330   1.319   0.502   5.745 -0.0231  0.0898 -0.1976
  445poe    c23 5331   1.239   0.589   5.821  0.1015 -0.1395  0.1986
  445poe    c23 5332   1.214   0.529   5.961 -0.4665  0.2263  0.2577
  445poe     o2 5333   1.341   0.482   6.000  0.0697  0.8927 -0.6304
  445poe    c23 5334   1.354   0.447   6.136 -0.1021 -0.4439 -0.9395
  445poe    c23 5335   1.506   0.437   6.158 -0.1344  0.5374 -0.1905
  445poe     o2 5336   1.538   0.363   6.043 -0.1454 -0.1888  0.2711
  445poe    c23 5337   1.672   0.366   6.000 -0.2746  0.2743 -0.0999
  445poe    c23 5338   1.674   0.279   5.873  0.2919 -0.1669  0.2092
  445poe     o2 5339   1.582   0.318   5.773  0.1213  0.2682  0.5339
  445poe    c31 5340   1.595   0.244   5.654 -0.4872  0.6055  0.2531
  446poe    c31 5341   1.033   4.304   2.348  0.3638  0.4014 -0.3585
  446poe     o2 5342   1.151   4.379   2.334  0.4160  0.2271 -0.8856
  446poe    c23 5343   1.120   4.516   2.342  0.0643  0.1109 -0.1472
  446poe    c23 5344   1.252   4.594   2.355  0.0054  0.2624 -0.4333
  446poe     o2 5345   1.334   4.524   2.264  0.2146 -0.0991  0.0269
  446poe    c23 5346   1.473   4.545   2.256  0.0252  1.0033 -0.4660
  446poe    c23 5347   1.541   4.466   2.369 -0.1732  0.1314 -0.9502
  446poe     o2 5348   1.483   4.338   2.361  0.0429 -0.0616  0.3489
  446poe    c23 5349   1.499   4.265   2.480  0.1767  0.3686  0.5950
  446poe    c23 5350   1.429   4.128   2.472  0.4001  0.3053 -0.3512
  446poe     o2 5351   1.306   4.140   2.405 -0.1246 -0.1122  0.5260
  446poe    c31 5352   1.263   4.010   2.368 -0.4773  0.2842 -0.4837
  447poe    c31 5353   0.733   3.375   1.281  0.1465 -0.7064 -0.4363
  447poe     o2 5354   0.653   3.490   1.293  0.1738 -0.7028 -0.2749
  447poe    c23 5355   0.663   3.530   1.428  0.0326 -0.1596 -0.4213
  447poe    c23 5356   0.586   3.662   1.444  0.2966 -0.0912  0.3085
  447poe     o2 5357   0.588   3.737   1.324  0.8282  0.3459  0.5875
  447poe    c23 5358   0.489   3.836   1.331  0.4044 -0.0500  0.2674
  447poe    c23 5359   0.473   3.877   1.184 -0.2494 -0.0732  0.3294
  447poe     o2 5360   0.456   3.753   1.120  0.4278  0.0140 -0.0350
  447poe    c23 5361   0.442   3.769   0.981 -0.4243  0.1280  0.0543
  447poe    c23 5362   0.462   3.622   0.938 -0.0955  0.0968  0.3074
  447poe     o2 5363   0.554   3.546   1.014 -0.8875 -0.3698  0.8176
  447poe    c31 5364   0.584   3.424   0.949  0.0854  0.3588 -0.1474
  448poe    c31 5365   1.109   3.038   5.941  0.3217 -0.6531  0.1424
  448poe     o2 5366   1.088   3.084   6.073 -0.0456 -0.2613 -0.0528
  448poe    c23 5367   1.013   3.204   6.064  0.5074  0.0753 -0.2342
  448poe    c23 5368   0.985   3.237   6.212  0.4006 -0.4292 -0.1389
  448poe     o2 5369   1.101   3.237   6.292  0.1641 -0.1233  0.2069
  448poe    c23 5370   1.055   3.243   6.426 -0.2122  0.1873  0.0657
  448poe    c23 5371   1.143   3.136   6.495 -0.0533 -0.0246 -0.4593
  448poe     o2 5372   1.148   3.035   6.397 -0.4597  0.1295 -0.6414
  448poe    c23 5373   1.184   2.911   6.452  0.3513  0.4216 -0.5066
  448poe    c23 5374   1.187   2.803   6.342 -0.1110 -0.1920  0.0665
  448poe     o2 5375   1.235   2.859   6.221 -0.1423 -0.2564  0.0244
  448poe    c31 5376   1.265   2.763   6.123  0.3311 -0.1103  0.0259
  449poe    c31 5377   3.575   5.919   5.047  0.5542  0.0903  0.8507
  449poe     o2 5378   3.485   5.857   5.136  0.0087 -0.2289  0.0937
  449poe    c23 5379   3.442   5.733   5.085  0.6820 -0.3340 -0.2188
  449poe    c23 5380   3.409   5.628   5.193 -0.2734  0.3767  0.1887
  449poe     o2 5381   3.522   5.565   5.249 -0.5629 -0.2751  0.0402
  449poe    c23 5382   3.492   5.481   5.359 -0.1097 -0.0897  0.3082
  449poe    c23 5383   3.615   5.404   5.410  0.2331 -0.0267 -0.4006
  449poe     o2 5384   3.677   5.367   5.289 -0.3397 -0.3879 -0.5864
  449poe    c23 5385   3.782   5.274   5.308 -0.1259  0.0035  0.2190
  449poe    c23 5386   3.860   5.248   5.178  0.0518  0.2797  0.2695
  449poe     o2 5387   3.917   5.370   5.136 -0.4601  0.3873 -0.1300
  449poe    c31 5388   4.056   5.378   5.161 -0.4922  0.3299  0.0713
  450poe    c31 5389   4.106   2.198   3.815  0.0650  0.1508  0.7462
  450poe     o2 5390   4.233   2.139   3.808 -0.0476  0.0174 -0.3162
  450poe    c23 5391   4.307   2.144   3.928 -0.3275 -0.0690 -0.1408
  450poe    c23 5392   4.453   2.156   3.882 -0.0713 -0.0782  0.6579
  450poe     o2 5393   4.473   2.090   3.759 -0.0075  0.4125  0.4011
  450poe    c23 5394   4.578   2.156   3.692 -0.2309  0.1134 -0.2536
  450poe    c23 5395   4.539   2.133   3.545 -0.3081 -0.0173 -0.2125
  450poe     o2 5396   4.400   2.153   3.536 -0.2770  0.1287 -0.3632
  450poe    c23 5397   4.353   2.132   3.405 -0.6751  0.4378 -0.2728
  450poe    c23 5398   4.200   2.139   3.424 -0.7533 -0.4482 -0.5180
  450poe     o2 5399   4.175   2.060   3.538 -0.2724  0.1717  0.0248
  450poe    c31 5400   4.050   1.998   3.519 -0.1057 -0.2275  0.2233
  451poe    c31 5401   4.172   3.060   6.076  0.1980  0.2350 -0.3785
  451poe     o2 5402   4.234   3.136   6.178 -0.2325  0.3805 -0.2213
  451poe    c23 5403   4.184   3.267   6.172 -0.4936  0.2815 -0.2664
  451poe    c23 5404   4.209   3.324   6.313  0.5100 -0.1305 -0.2706
  451poe     o2 5405   4.329   3.268   6.363  0.7504 -0.0535 -0.7544
  451poe    c23 5406   4.337   3.301   6.500  0.1925 -0.5215 -0.6015
  451poe    c23 5407   4.452   3.222   6.566  0.3862 -0.0586 -0.3784
  451poe     o2 5408   4.451   3.105   6.488 -0.4662 -0.3733  0.0827
  451poe    c23 5409   4.578   3.048   6.465 -0.3230  0.0549 -0.2070
  451poe    c23 5410   4.625   3.110   6.331  1.1744 -0.0164  0.2702
  451poe     o2 5411   4.531   3.073   6.233  0.2014  0.2664  1.0732
  451poe    c31 5412   4.585   3.123   6.113  0.3570  0.2940  1.1543
  452poe    c31 5413   3.080   4.433   4.852 -0.0425  0.3971  0.3837
  452poe     o2 5414   3.047   4.410   4.717 -0.6233 -0.2034  0.6233
  452poe    c23 5415   2.948   4.496   4.666  0.0207  0.0861 -0.1605
  452poe    c23 5416   2.880   4.432   4.544  0.2299  0.6563 -0.5790
  452poe     o2 5417   2.975   4.368   4.463  0.5346  0.4023 -0.0179
  452poe    c23 5418   2.929   4.275   4.368  0.6167  0.2371  0.1027
  452poe    c23 5419   3.053   4.185   4.351  0.3327 -0.2000  0.3427
  452poe     o2 5420   3.115   4.175   4.478  0.3012  0.3024  0.3993
  452poe    c23 5421   3.218   4.078   4.484  0.3122  0.3114  0.3527
  452poe    c23 5422   3.291   4.105   4.617  0.6200 -0.0091  0.2488
  452poe     o2 5423   3.284   4.243   4.644 -0.3211  0.0533 -0.2680
  452poe    c31 5424   3.396   4.256   4.728 -0.2652  0.2482 -0.3721
  453poe    c31 5425   1.801   2.629   3.450  0.2729 -0.2913 -0.0305
  453poe     o2 5426   1.863   2.710   3.352 -0.5159 -0.0772 -0.3625
  453poe    c23 5427   1.788   2.829   3.340  0.2860  0.5199  0.3712
  453poe    c23 5428   1.828   2.923   3.225  0.1625  0.0498 -0.0600
  453poe     o2 5429   1.896   2.841   3.132  0.6062 -0.1356  0.4216
  453poe    c23 5430   1.942   2.909   3.017  0.1888 -0.2957  0.1555
  453poe    c23 5431   2.045   2.815   2.951  0.4744  0.2562 -0.1959
  453poe     o2 5432   2.009   2.685   2.990  0.0680  0.4651  0.1411
  453poe    c23 5433   2.116   2.597   2.962 -0.3901  0.0737 -0.4145
  453poe    c23 5434   2.075   2.471   3.040  0.5218 -0.2523 -0.4538
  453poe     o2 5435   2.017   2.514   3.161  0.7826  0.2079 -0.4892
  453poe    c31 5436   1.956   2.406   3.228  0.1143  0.7496 -0.2219
  454poe    c31 5437   6.469   5.045   2.094 -0.2682 -0.1822  0.8956
  454poe     o2 5438   6.584   5.127   2.095 -0.2871 -0.1269 -0.2505
  454poe    c23 5439   6.654   5.088   1.979 -0.5859  0.0813 -0.5005
  454poe    c23 5440   6.776   5.179   1.957 -0.2716 -0.1225  0.3762
  454poe     o2 5441   6.780   5.278   2.058 -0.2797  0.4793 -0.2112
  454poe    c23 5442   6.898   5.354   2.067  0.3007 -0.4108 -0.2500
  454poe    c23 5443   6.861   5.491   2.126  0.4778 -0.4163 -0.1217
  454poe     o2 5444   6.764   5.468   2.227  0.6576  0.0427  0.1577
  454poe    c23 5445   6.685   5.583   2.250 -0.4488 -0.6450 -0.1299
  454poe    c23 5446   6.552   5.540   2.315 -1.0910  0.2248 -0.8458
  454poe     o2 5447   6.517   5.425   2.241 -0.3804 -0.2200 -0.5065
  454poe    c31 5448   6.377   5.406   2.254 -0.3460 -0.3285 -0.2821
  455poe    c31 5449   3.421   2.235   2.025  0.3555  0.4730 -0.4537
  455poe     o2 5450   3.519   2.256   2.124  0.1495 -0.0868 -0.1248
  455poe    c23 5451   3.601   2.142   2.135 -0.3830 -0.4118  0.4971
  455poe    c23 5452   3.686   2.166   2.262  0.1817 -0.5296  0.1422
  455poe     o2 5453   3.738   2.293   2.229 -0.6859 -0.3673 -0.6481
  455poe    c23 5454   3.818   2.355   2.328 -0.6684 -0.5415 -0.5532
  455poe    c23 5455   3.846   2.492   2.264 -0.0285 -0.4995 -0.1883
  455poe     o2 5456   3.723   2.539   2.213  0.1134 -0.6573 -0.6740
  455poe    c23 5457   3.742   2.630   2.107 -0.1834  0.3310  0.1096
  455poe    c23 5458   3.595   2.670   2.083 -0.3544  0.0509  0.6803
  455poe     o2 5459   3.526   2.548   2.063  0.2998 -0.1247 -0.6455
  455poe    c31 5460   3.393   2.575   2.024 -0.3592 -0.8105  1.0252
  456poe    c31 5461   0.029   4.457   2.872  0.2663  0.1923 -0.1542
  456poe     o2 5462  -0.058   4.490   2.978  0.5063 -0.4679  0.2519
  456poe    c23 5463  -0.117   4.618   2.988 -0.2053 -0.7940  0.3475
  456poe    c23 5464  -0.264   4.614   2.942 -0.3690  0.8207  0.6600
  456poe     o2 5465  -0.327   4.520   3.026  0.2399 -0.2841 -0.0967
  456poe    c23 5466  -0.459   4.479   3.000  0.3472 -0.5698 -0.2049
  456poe    c23 5467  -0.446   4.341   2.934 -0.2921 -0.8420  0.2241
  456poe     o2 5468  -0.343   4.280   3.009  0.0963  0.2946  0.6368
  456poe    c23 5469  -0.302   4.155   2.958 -0.2261  0.3355  0.2774
  456poe    c23 5470  -0.188   4.124   3.055 -0.2357 -0.1563  0.1315
  456poe     o2 5471  -0.085   4.219   3.045  0.1989 -0.5765  0.5106
  456poe    c31 5472   0.037   4.179   3.104 -0.0537 -1.4739  0.4412
  457poe    c31 5473   3.901   4.532   1.313 -0.1236 -0.8344 -0.0212
  457poe     o2 5474   3.937   4.518   1.178  0.3380 -0.1698  0.0276
  457poe    c23 5475   3.905   4.394   1.119  0.3038 -0.5525  0.8460
  457poe    c23 5476   3.986   4.395   0.988 -0.3047  0.1091  0.4666
  457poe     o2 5477   3.972   4.522   0.928 -0.1359 -0.2470 -0.3423
  457poe    c23 5478   4.057   4.541   0.817  0.3966 -0.2265  0.0612
  457poe    c23 5479   4.037   4.690   0.783  0.3198 -0.2085  0.1841
  457poe     o2 5480   4.064   4.748   0.909  0.1954 -0.0337  0.1310
  457poe    c23 5481   4.048   4.887   0.917  0.5929 -0.0066  0.4935
  457poe    c23 5482   3.907   4.907   0.975  0.2308 -0.1203 -0.3344
  457poe     o2 5483   3.889   4.807   1.072  0.7192 -0.1346 -0.2573
  457poe    c31 5484   3.818   4.865   1.180  0.5775  0.1123 -0.4819
  458poe    c31 5485   0.920   1.397   6.077  0.1498  0.3256  0.1613
  458poe     o2 5486   1.025   1.307   6.051  0.1700  0.5224 -0.4623
  458poe    c23 5487   1.036   1.285   5.912 -0.2805 -0.2428 -0.3835
  458poe    c23 5488   1.056   1.135   5.883 -0.0189 -0.1717 -0.5723
  458poe     o2 5489   1.187   1.108   5.927 -0.1471 -0.2438 -0.2352
  458poe    c23 5490   1.264   1.027   5.841 -0.2514 -0.0721 -0.4890
  458poe    c23 5491   1.407   1.012   5.897 -0.4819  0.2584  0.2046
  458poe     o2 5492   1.391   1.005   6.037  0.1028 -0.2626  0.2478
  458poe    c23 5493   1.510   0.965   6.101  0.2404 -0.2284  0.0165
  458poe    c23 5494   1.501   0.982   6.254 -0.0889 -0.5609  0.0320
  458poe     o2 5495   1.440   1.103   6.293  0.3457 -0.3374  0.0198
  458poe    c31 5496   1.459   1.138   6.428 -0.7695  0.4230 -0.0069
  459poe    c31 5497   2.849   0.238   0.099  0.2622  0.0005 -0.3068
  459poe     o2 5498   2.838   0.224  -0.041  0.3684 -0.3683 -0.2787
  459poe    c23 5499   2.716   0.165  -0.078  0.0274  0.2944 -0.2156
  459poe    c23 5500   2.705   0.174  -0.231 -0.4503 -0.0644 -0.2053
  459poe     o2 5501   2.739   0.304  -0.274  0.0731 -0.0869  0.1303
  459poe    c23 5502   2.756   0.314  -0.413  0.0929  0.5859  0.1770
  459poe    c23 5503   2.870   0.409  -0.454  0.1964  0.3917  0.0107
  459poe     o2 5504   2.970   0.394  -0.356 -0.0424 -0.0067  0.1946
  459poe    c23 5505   3.062   0.500  -0.363  0.1955 -0.2387 -0.2054
  459poe    c23 5506   3.158   0.485  -0.243 -0.4023  0.1528  0.3304
  459poe     o2 5507   3.081   0.435  -0.136 -0.2687 -0.5623  0.1041
  459poe    c31 5508   3.163   0.481  -0.030 -0.1050 -0.2633 -0.1478
  460poe    c31 5509   5.925   0.865   0.648 -0.2452  0.6724 -0.0134
  460poe     o2 5510   5.882   0.774   0.747 -0.0829  0.6733  0.0589
  460poe    c23 5511   5.828   0.855   0.849 -0.6361  0.3869 -0.0051
  460poe    c23 5512   5.813   0.770   0.977  0.2988  0.4479  0.1473
  460poe     o2 5513   5.931   0.696   1.000  0.2008  0.3225  0.2546
  460poe    c23 5514   5.942   0.600   1.103 -0.2267  0.2909  0.2686
  460poe    c23 5515   6.067   0.518   1.070  0.1356  0.9390  0.0031
  460poe     o2 5516   6.041   0.480   0.936 -0.6281 -0.7930  0.6093
  460poe    c23 5517   6.156   0.423   0.876 -0.3109  0.4294  0.0246
  460poe    c23 5518   6.121   0.427   0.726  0.9137  0.3084 -0.2676
  460poe     o2 5519   6.071   0.557   0.705 -0.3110 -0.1256 -0.1134
  460poe    c31 5520   6.059   0.572   0.566 -0.1740 -0.1565 -0.1285
  461poe    c31 5521   6.290   1.989   0.701  0.2613  0.1747  0.3833
  461poe     o2 5522   6.283   2.075   0.589 -0.5997 -0.3833 -0.0010
  461poe    c23 5523   6.194   2.015   0.498 -0.8859 -0.2875  0.2119
  461poe    c23 5524   6.218   2.046   0.349 -0.3067  0.1067  0.3860
  461poe     o2 5525   6.195   2.179   0.309  0.2008  0.0566 -0.0778
  461poe    c23 5526   6.153   2.193   0.175 -0.2870 -0.1199  0.0544
  461poe    c23 5527   6.069   2.320   0.151 -0.1761 -0.0869 -0.1728
  461poe     o2 5528   6.139   2.435   0.192 -0.1607 -0.0922 -0.1853
  461poe    c23 5529   6.058   2.544   0.154 -0.1727 -0.0218  0.0427
  461poe    c23 5530   6.143   2.670   0.173  0.1241 -0.1510 -0.4154
  461poe     o2 5531   6.212   2.654   0.295 -0.0887  0.3937 -0.2191
  461poe    c31 5532   6.303   2.760   0.317  0.2675 -0.0229  0.3462
  462poe    c31 5533   6.446   1.041   4.079  0.0925 -0.1422 -0.4155
  462poe     o2 5534   6.467   1.177   4.107  0.3607 -0.3925  0.6256
  462poe    c23 5535   6.603   1.208   4.128  0.3483  0.1127 -0.0160
  462poe    c23 5536   6.612   1.340   4.207  0.3370  0.4267 -0.5335
  462poe     o2 5537   6.511   1.416   4.145 -0.0428  0.7584  0.4577
  462poe    c23 5538   6.513   1.549   4.192 -0.3124  0.8099  0.3271
  462poe    c23 5539   6.373   1.600   4.153 -0.5970  0.0624  0.3590
  462poe     o2 5540   6.285   1.493   4.180 -0.4260 -0.2870 -0.4402
  462poe    c23 5541   6.159   1.516   4.122 -0.5124  0.0970 -0.1013
  462poe    c23 5542   6.085   1.382   4.137  0.0145 -0.1355  0.4376
  462poe     o2 5543   6.179   1.280   4.111  0.1937  0.2198 -0.3472
  462poe    c31 5544   6.118   1.152   4.113  0.8236 -0.0810 -0.0486
  463poe    c31 5545   6.238   2.715   3.054 -0.1975 -0.7314 -0.5253
  463poe     o2 5546   6.220   2.582   3.096 -0.2945 -0.4719  0.2763
  463poe    c23 5547   6.342   2.515   3.076 -0.1985 -0.0381 -0.6747
  463poe    c23 5548   6.314   2.364   3.093 -0.5479 -0.0006 -0.9088
  463poe     o2 5549   6.219   2.360   3.198  0.3217 -0.6229 -0.1243
  463poe    c23 5550   6.153   2.236   3.214 -0.0072 -0.3561  0.6142
  463poe    c23 5551   6.037   2.271   3.308 -0.2849  0.3145  0.0359
  463poe     o2 5552   5.988   2.399   3.277  0.1514  0.4625 -0.0404
  463poe    c23 5553   5.924   2.454   3.389 -0.1589 -0.4970  0.2604
  463poe    c23 5554   5.875   2.592   3.341  0.7374 -0.1547  0.3204
  463poe     o2 5555   5.979   2.672   3.289  0.4591 -0.0030 -0.0057
  463poe    c31 5556   5.983   2.793   3.361  0.1825  0.0622 -0.0986
  464poe    c31 5557   0.776   2.837   4.028 -0.1907 -0.2576  0.1651
  464poe     o2 5558   0.710   2.876   3.910 -0.0657 -0.3027  0.0795
  464poe    c23 5559   0.612   2.785   3.865 -0.1113 -0.3763  0.3262
  464poe    c23 5560   0.486   2.873   3.853 -0.0287 -0.3282 -0.2038
  464poe     o2 5561   0.529   2.990   3.787 -0.3905 -0.3998 -0.5688
  464poe    c23 5562   0.442   3.100   3.770  0.2154  0.1421 -0.1929
  464poe    c23 5563   0.520   3.230   3.742  0.1256  0.3713  0.5811
  464poe     o2 5564   0.620   3.254   3.837 -0.2406 -0.1362  1.0993
  464poe    c23 5565   0.728   3.333   3.792 -1.0500  0.5365  0.3298
  464poe    c23 5566   0.853   3.269   3.853 -1.1248  0.1262  0.0578
  464poe     o2 5567   0.866   3.130   3.833 -0.0508  0.2381 -0.0900
  464poe    c31 5568   0.998   3.089   3.860 -0.1959 -0.1601  0.0215
  465poe    c31 5569   1.762   6.620   6.650 -0.3548  0.3946 -0.2103
  465poe     o2 5570   1.708   6.495   6.687  0.4099  0.0219 -0.3311
  465poe    c23 5571   1.797   6.425   6.771  0.3312 -0.6161 -0.7709
  465poe    c23 5572   1.726   6.308   6.841  0.4783 -0.5191 -0.4584
  465poe     o2 5573   1.612   6.281   6.762  0.2109 -0.0361 -0.2412
  465poe    c23 5574   1.524   6.198   6.834  0.0870  0.2338 -0.0787
  465poe    c23 5575   1.411   6.156   6.739  0.0397  0.3106 -0.0564
  465poe     o2 5576   1.378   6.267   6.660  0.0064  0.3531  0.0177
  465poe    c23 5577   1.376   6.234   6.523  0.0369 -0.1173  0.1299
  465poe    c23 5578   1.400   6.359   6.436  0.4275 -0.0187  0.3765
  465poe     o2 5579   1.506   6.427   6.498  0.3889  0.1902  0.2144
  465poe    c31 5580   1.520   6.539   6.413  0.8115  0.2058  0.2985
  466poe    c31 5581   4.879   0.154   2.040  0.7496 -0.4963 -0.5656
  466poe     o2 5582   4.974   0.191   2.137  0.3009  0.6253 -0.5433
  466poe    c23 5583   4.931   0.303   2.211 -0.8821 -0.1364 -0.0518
  466poe    c23 5584   5.031   0.334   2.325 -0.7213 -0.3078 -0.1452
  466poe     o2 5585   5.062   0.216   2.395  0.4660 -0.0892 -0.2951
  466poe    c23 5586   5.186   0.229   2.461  0.1695  0.1762  0.2081
  466poe    c23 5587   5.235   0.085   2.484  0.6076  0.2454 -0.2777
  466poe     o2 5588   5.220   0.017   2.362  0.0103  0.1806 -0.1698
  466poe    c23 5589   5.232  -0.124   2.364  0.0583  0.1887  0.1918
  466poe    c23 5590   5.226  -0.163   2.215  0.1558 -0.4646  0.3571
  466poe     o2 5591   5.107  -0.113   2.158  0.1876 -0.2584  0.4720
  466poe    c31 5592   5.076  -0.174   2.035  1.0169  0.4862 -0.1200
  467poe    c31 5593   2.903   3.448   2.119 -0.4990 -0.0403  0.4594
  467poe     o2 5594   2.986   3.402   2.224  0.0370  0.9790  0.4949
  467poe    c23 5595   3.112   3.464   2.228  0.5238  0.0441 -0.1894
  467poe    c23 5596   3.170   3.468   2.371 -0.6372  0.2635  0.2820
  467poe     o2 5597   3.143   3.335   2.410 -0.0880  0.0601 -0.0179
  467poe    c23 5598   3.150   3.323   2.551 -0.5568  0.1737  0.0180
  467poe    c23 5599   3.107   3.179   2.584 -0.0385 -0.0013 -0.0484
  467poe     o2 5600   3.014   3.145   2.484  0.2822  0.0572 -0.3688
  467poe    c23 5601   2.897   3.080   2.530  0.0768  0.6731 -0.0086
  467poe    c23 5602   2.795   3.072   2.416 -0.2618  0.3650  0.3140
  467poe     o2 5603   2.811   3.188   2.337  0.0457  0.3651  0.3769
  467poe    c31 5604   2.692   3.213   2.265  0.4300  0.0513 -0.3893
  468poe    c31 5605   1.267   2.367   4.982 -0.5990 -0.0139 -0.0596
  468poe     o2 5606   1.313   2.376   5.115 -0.6155  0.0693 -0.0600
  468poe    c23 5607   1.451   2.402   5.130 -0.6543  0.2732 -0.0552
  468poe    c23 5608   1.485   2.444   5.275 -0.0629 -0.1960 -0.0597
  468poe     o2 5609   1.430   2.336   5.347  0.6894 -0.3626  0.2794
  468poe    c23 5610   1.450   2.329   5.486  0.2446 -0.1932  0.3531
  468poe    c23 5611   1.349   2.215   5.512  0.3801 -0.5318 -0.5552
  468poe     o2 5612   1.225   2.235   5.448  0.2202 -0.4537 -0.2231
  468poe    c23 5613   1.149   2.116   5.443  0.1121 -0.4001  0.1268
  468poe    c23 5614   1.041   2.145   5.338  0.2705  0.5558  0.2219
  468poe     o2 5615   1.117   2.186   5.227  0.3149  0.3690  0.1847
  468poe    c31 5616   1.030   2.167   5.117  0.4910  0.2708  0.0608
  469poe    c31 5617   5.680   3.107   5.799 -0.0380  0.0624 -0.1342
  469poe     o2 5618   5.641   2.988   5.865  0.8053 -0.2645 -0.2122
  469poe    c23 5619   5.681   2.998   6.000  0.5327  0.4071 -0.1754
  469poe    c23 5620   5.653   2.862   6.066  0.0421  0.4030 -0.3877
  469poe     o2 5621   5.690   2.759   5.977  0.9371  0.0493  0.3753
  469poe    c23 5622   5.683   2.623   6.013  0.3122  0.0082  0.1081
  469poe    c23 5623   5.551   2.569   5.953  0.0194  0.2013  0.5730
  469poe     o2 5624   5.555   2.605   5.816 -0.1665 -0.2357  0.4509
  469poe    c23 5625   5.426   2.602   5.759  0.0526 -0.0044 -0.0659
  469poe    c23 5626   5.426   2.682   5.628  0.0760 -0.2955 -0.2433
  469poe     o2 5627   5.503   2.797   5.655 -0.0845 -0.2074 -0.1592
  469poe    c31 5628   5.513   2.883   5.544  0.0178  0.2269  0.1866
  470poe    c31 5629   4.176   5.659   0.464 -0.1166 -0.1099 -0.4482
  470poe     o2 5630   4.268   5.561   0.509 -0.0377  0.0688 -0.2148
  470poe    c23 5631   4.392   5.625   0.491  0.0279  0.0750  0.2616
  470poe    c23 5632   4.500   5.533   0.552 -0.2760 -0.0760  0.5772
  470poe     o2 5633   4.461   5.398   0.548  0.3175 -0.2386  0.1532
  470poe    c23 5634   4.505   5.332   0.665 -0.0095 -0.3444  0.2163
  470poe    c23 5635   4.416   5.214   0.707 -0.4317 -0.0175  0.2560
  470poe     o2 5636   4.292   5.280   0.723 -0.3307  0.2499 -0.0673
  470poe    c23 5637   4.192   5.219   0.802 -0.1905  0.3835  0.2130
  470poe    c23 5638   4.072   5.313   0.786 -0.3655  0.1582  0.2104
  470poe     o2 5639   4.072   5.378   0.660  0.1838 -0.0263  0.1161
  470poe    c31 5640   3.955   5.450   0.629  0.2358  0.1877  0.4110
  471poe    c31 5641   0.408   5.973   4.413  0.1726 -1.1057  0.6551
  471poe     o2 5642   0.316   6.000   4.517 -0.0904  0.1005  0.1227
  471poe    c23 5643   0.345   6.129   4.566  0.1267  0.2461 -0.3842
  471poe    c23 5644   0.248   6.166   4.679 -0.2419 -0.1576 -0.5691
  471poe     o2 5645   0.126   6.098   4.658 -0.0618 -0.6164 -0.1435
  471poe    c23 5646   0.010   6.172   4.688  0.3773 -0.0318  0.1247
  471poe    c23 5647  -0.111   6.078   4.671  0.6035 -0.2729 -0.1590
  471poe     o2 5648  -0.065   6.008   4.557 -0.2077 -0.1268 -0.5833
  471poe    c23 5649  -0.123   5.880   4.564  0.1094 -0.2426  0.0356
  471poe    c23 5650  -0.058   5.796   4.453  0.2245  0.1709 -0.2125
  471poe     o2 5651   0.079   5.812   4.483  0.2070 -0.6149  0.3374
  471poe    c31 5652   0.149   5.718   4.404 -0.2488 -0.4821 -0.2283
  472poe    c31 5653   5.306   4.618   2.910  0.4674  0.1737 -0.6614
  472poe     o2 5654   5.416   4.550   2.854  0.6793 -0.0214 -0.0091
  472poe    c23 5655   5.427   4.594   2.721 -0.1224 -0.0023 -0.0687
  472poe    c23 5656   5.560   4.539   2.665 -0.0283  0.1524  0.0045
  472poe     o2 5657   5.561   4.400   2.686  0.2483  0.1551  0.0046
  472poe    c23 5658   5.693   4.353   2.671  0.3254  0.2362  0.4064
  472poe    c23 5659   5.707   4.246   2.782 -0.1483  0.3335  0.5601
  472poe     o2 5660   5.650   4.308   2.895 -0.0703  0.6897  0.4077
  472poe    c23 5661   5.681   4.242   3.016 -0.1015 -0.0492  0.0205
  472poe    c23 5662   5.634   4.339   3.126 -0.3286 -0.2592  0.1089
  472poe     o2 5663   5.525   4.415   3.080  0.2401  0.3321 -0.2833
  472poe    c31 5664   5.485   4.518   3.168  0.8557  0.4367 -0.1260
  473poe    c31 5665   5.953   2.461   0.546 -0.0829 -0.2626 -1.0333
  473poe     o2 5666   6.087   2.443   0.504  0.3639  0.4126  0.0538
  473poe    c23 5667   6.161   2.469   0.621  0.3830  0.2166  0.0848
  473poe    c23 5668   6.296   2.397   0.600  0.6421  0.6625  0.1904
  473poe     o2 5669   6.336   2.429   0.469 -0.2761  0.8958 -0.0426
  473poe    c23 5670   6.433   2.343   0.413 -0.8108  0.6596 -0.6258
  473poe    c23 5671   6.526   2.398   0.303  0.3852 -0.0872 -0.0163
  473poe     o2 5672   6.447   2.470   0.210  0.0335 -0.5184 -0.0593
  473poe    c23 5673   6.523   2.500   0.095 -0.0026  0.4480  0.1569
  473poe    c23 5674   6.601   2.632   0.084  0.5745  0.1300  0.4002
  473poe     o2 5675   6.517   2.741   0.054  0.6671  0.0366 -0.2119
  473poe    c31 5676   6.586   2.861   0.077  0.4479  0.3119 -0.9651
  474poe    c31 5677   5.405   0.380   1.582 -0.2048 -0.0055 -0.0588
  474poe     o2 5678   5.538   0.388   1.536 -0.2207  0.1594 -0.0779
  474poe    c23 5679   5.635   0.339   1.625 -0.4005 -0.6273 -0.3118
  474poe    c23 5680   5.763   0.342   1.539 -0.0075 -0.6666  0.2686
  474poe     o2 5681   5.737   0.281   1.415  0.5800 -0.3481 -0.0191
  474poe    c23 5682   5.843   0.286   1.322  0.0578  0.4884 -0.5820
  474poe    c23 5683   5.791   0.261   1.180  0.4890  0.1579 -0.6817
  474poe     o2 5684   5.677   0.343   1.169  0.2123 -0.1469 -0.1611
  474poe    c23 5685   5.606   0.312   1.051  0.1758 -0.5141 -0.0416
  474poe    c23 5686   5.480   0.400   1.054 -0.0432 -0.8063 -0.4659
  474poe     o2 5687   5.428   0.379   1.184 -0.2113  0.4538 -0.3214
  474poe    c31 5688   5.302   0.443   1.193 -0.2986  0.2506 -0.0881
  475poe    c31 5689   5.508   4.241   2.342  0.1248 -0.2574  0.0439
  475poe     o2 5690   5.619   4.179   2.280  0.1743 -0.3534  0.2294
  475poe    c23 5691   5.654   4.256   2.168 -0.3473  0.0107  0.3116
  475poe    c23 5692   5.737   4.169   2.071  0.3485  0.2885  0.6474
  475poe     o2 5693   5.710   4.034   2.102  0.5937  0.1450  0.2440
  475poe    c23 5694   5.757   3.938   2.010  0.0334 -0.0301  0.1373
  475poe    c23 5695   5.707   3.795   2.037 -0.1880  0.2063  1.0474
  475poe     o2 5696   5.571   3.769   2.012  0.0034  0.1702 -0.0374
  475poe    c23 5697   5.551   3.630   2.019  0.2052  0.1518  0.1880
  475poe    c23 5698   5.427   3.572   1.948  0.6185  0.2193 -0.6049
  475poe     o2 5699   5.305   3.620   2.000  0.5990 -0.2638 -0.1915
  475poe    c31 5700   5.193   3.579   1.926 -0.2250  0.3718  0.6782
  476poe    c31 5701   2.260   4.344   2.734  0.2071 -0.0734  1.0355
  476poe     o2 5702   2.126   4.303   2.733  0.1469  0.1164 -0.0249
  476poe    c23 5703   2.059   4.414   2.678  0.1272 -0.0259 -0.2854
  476poe    c23 5704   1.911   4.394   2.717  0.2682 -0.2564  0.1344
  476poe     o2 5705   1.878   4.260   2.689 -0.2018 -0.1675  0.2542
  476poe    c23 5706   1.761   4.211   2.752 -0.1846 -0.2448  0.2256
  476poe    c23 5707   1.799   4.136   2.881  0.3511  0.3084  0.3932
  476poe     o2 5708   1.927   4.086   2.848  0.2463  0.0527  0.3783
  476poe    c23 5709   1.973   3.960   2.893 -0.2420 -0.4441 -0.4780
  476poe    c23 5710   2.126   3.967   2.877 -0.1921 -0.5151 -0.0373
  476poe     o2 5711   2.148   4.017   2.748 -0.5626 -0.4957 -0.0952
  476poe    c31 5712   2.262   3.955   2.693 -0.7418 -0.4546 -0.5193
  477poe    c31 5713   6.726   0.737   1.099 -0.0168  0.6034 -0.0869
  477poe     o2 5714   6.729   0.656   1.214 -0.1453  0.2655 -0.3195
  477poe    c23 5715   6.614   0.577   1.233  0.1206 -0.1338 -0.3590
  477poe    c23 5716   6.663   0.477   1.340 -0.5314  0.1149  0.1787
  477poe     o2 5717   6.714   0.559   1.442 -0.1118 -0.0573  0.1108
  477poe    c23 5718   6.755   0.494   1.560  0.2075 -0.1465 -0.0487
  477poe    c23 5719   6.808   0.607   1.650 -0.2913 -0.3480  0.5017
  477poe     o2 5720   6.913   0.661   1.574 -0.1592 -0.4978  0.5785
  477poe    c23 5721   6.974   0.774   1.632 -0.3471 -0.3789  0.5446
  477poe    c23 5722   6.895   0.889   1.566 -0.0033 -0.4847 -0.0617
  477poe     o2 5723   6.818   0.846   1.456  0.0844 -0.7327 -0.0264
  477poe    c31 5724   6.724   0.940   1.411  0.3911 -0.3267  0.1716
  478poe    c31 5725   2.373   1.387   4.020 -0.0605 -0.1106  0.2894
  478poe     o2 5726   2.273   1.442   4.102  0.0741  0.4247  0.1017
  478poe    c23 5727   2.280   1.583   4.108  0.1982  0.4158  0.1547
  478poe    c23 5728   2.203   1.615   4.237  0.5523 -0.2151  0.5293
  478poe     o2 5729   2.090   1.532   4.252  0.0961  0.4251  0.6832
  478poe    c23 5730   2.051   1.531   4.387  0.0783 -0.2692  0.6748
  478poe    c23 5731   1.967   1.406   4.419 -0.2123 -0.2805 -0.1124
  478poe     o2 5732   2.003   1.327   4.308  0.3306  0.3849 -0.4133
  478poe    c23 5733   1.988   1.192   4.343  0.3423  0.4094 -0.3124
  478poe    c23 5734   2.027   1.108   4.220 -0.0932 -0.1249 -0.0907
  478poe     o2 5735   2.130   1.177   4.153 -0.0440 -0.3742 -0.2749
  478poe    c31 5736   2.174   1.096   4.046  0.0347 -0.3428 -0.2664
  479poe    c31 5737   1.834   0.949   3.319  0.5403 -0.1175 -0.6809
  479poe     o2 5738   1.758   1.045   3.390  0.3175 -0.8403  0.0821
  479poe    c23 5739   1.662   0.982   3.471  0.0472  0.1386  0.5389
  479poe    c23 5740   1.616   1.087   3.574  0.0399  0.4811  0.1838
  479poe     o2 5741   1.592   1.205   3.501 -0.1408  0.3758  0.0715
  479poe    c23 5742   1.575   1.312   3.592 -0.0341  0.2519  0.2373
  479poe    c23 5743   1.625   1.440   3.523 -0.1894  0.0438 -0.2694
  479poe     o2 5744   1.748   1.397   3.468  0.1279  0.1971  0.3095
  479poe    c23 5745   1.824   1.497   3.404  0.3988 -0.0303  0.2802
  479poe    c23 5746   1.949   1.423   3.350  0.2218 -0.1075 -0.0268
  479poe     o2 5747   1.905   1.310   3.277  0.2249 -0.2751  0.2253
  479poe    c31 5748   1.998   1.267   3.180  0.1300  0.5294 -0.2352
  480poe    c31 5749   5.477   4.707   1.557  0.6323  0.0574 -0.4758
  480poe     o2 5750   5.604   4.675   1.506  0.6109 -0.4093 -0.2450
  480poe    c23 5751   5.591   4.567   1.416 -0.3518 -0.2456 -0.3212
  480poe    c23 5752   5.708   4.592   1.319  0.1243  0.3358  0.3900
  480poe     o2 5753   5.818   4.632   1.397  0.4129 -0.4964  0.4260
  480poe    c23 5754   5.921   4.687   1.318  0.0572 -0.0774  0.2453
  480poe    c23 5755   6.010   4.748   1.428 -0.6244 -0.0307  0.7780
  480poe     o2 5756   5.928   4.829   1.508 -0.5332  0.5355  0.3083
  480poe    c23 5757   5.976   4.885   1.628  0.2420 -0.1557  0.3284
  480poe    c23 5758   5.848   4.906   1.711 -0.1927 -0.1395 -0.3380
  480poe     o2 5759   5.766   4.791   1.712  0.0430 -0.3058 -0.0041
  480poe    c31 5760   5.689   4.788   1.830  0.0795  0.2657  0.0355
  481poe    c31 5761   1.554   5.870   6.216  0.1659  0.2385  0.1628
  481poe     o2 5762   1.536   5.764   6.308 -0.4566  0.2215  0.0259
  481poe    c23 5763   1.402   5.726   6.325 -0.3509 -0.5372 -0.7428
  481poe    c23 5764   1.396   5.638   6.452  0.2463  0.1710 -0.2156
  481poe     o2 5765   1.511   5.558   6.435  0.1847  0.1034 -0.3192
  481poe    c23 5766   1.540   5.467   6.539 -0.1401 -0.0142 -0.3304
  481poe    c23 5767   1.624   5.545   6.642  0.1921 -0.2949 -0.3902
  481poe     o2 5768   1.724   5.615   6.571 -0.1335 -0.2180 -0.7737
  481poe    c23 5769   1.816   5.683   6.653  0.0089 -0.1318 -1.0034
  481poe    c23 5770   1.841   5.816   6.579 -0.3602  0.1547 -0.6142
  481poe     o2 5771   1.719   5.861   6.524 -0.4846  0.3980 -0.1506
  481poe    c31 5772   1.718   6.002   6.525  0.0168  0.4053 -0.3886
  482poe    c31 5773   6.556   5.597   5.394 -0.4208  0.0931  0.7070
  482poe     o2 5774   6.673   5.519   5.394 -0.3139  0.2526  0.1801
  482poe    c23 5775   6.645   5.382   5.378  0.2003  0.1752 -0.1020
  482poe    c23 5776   6.751   5.329   5.280  0.1702 -0.1757  0.0537
  482poe     o2 5777   6.875   5.385   5.319  0.3380 -0.8118  0.4656
  482poe    c23 5778   6.958   5.406   5.207  0.4384 -0.7701  0.5485
  482poe    c23 5779   7.053   5.522   5.244  0.0706 -0.0405 -0.7546
  482poe     o2 5780   6.977   5.621   5.309  0.6942  0.2207 -0.4135
  482poe    c23 5781   7.069   5.712   5.364  0.1094  0.0661  0.8656
  482poe    c23 5782   6.985   5.825   5.426  0.0498  0.5803 -0.1412
  482poe     o2 5783   6.867   5.775   5.485  0.2419  0.2290 -0.0557
  482poe    c31 5784   6.807   5.847   5.590 -0.1694 -0.4746  0.2002
  483poe    c31 5785   0.568   3.244   5.921 -0.3827 -0.4337  0.2233
  483poe     o2 5786   0.521   3.261   5.789  0.0172 -0.6458  0.0518
  483poe    c23 5787   0.623   3.317   5.709  0.1772 -0.2749  0.5084
  483poe    c23 5788   0.575   3.361   5.570  0.8264 -0.4052  0.2373
  483poe     o2 5789   0.478   3.263   5.539  0.0936  0.5014 -0.4161
  483poe    c23 5790   0.408   3.282   5.418 -1.0413  0.0818  0.1641
  483poe    c23 5791   0.335   3.149   5.391 -0.2183 -0.2527 -0.4419
  483poe     o2 5792   0.265   3.105   5.505 -0.2625  0.4661 -0.1893
  483poe    c23 5793   0.260   2.965   5.515 -0.9512  0.4840 -0.2298
  483poe    c23 5794   0.224   2.940   5.663  0.1166 -0.0663 -0.0491
  483poe     o2 5795   0.313   3.024   5.733  0.1678 -0.4162  0.3098
  483poe    c31 5796   0.298   2.999   5.871  0.0628 -0.8354  0.2237
  484poe    c31 5797   3.193   1.422   3.520 -0.2434 -0.2858 -0.6857
  484poe     o2 5798   3.160   1.328   3.620  0.0273  0.1287 -0.1976
  484poe    c23 5799   3.272   1.253   3.660 -0.0578 -0.1407 -0.4564
  484poe    c23 5800   3.210   1.139   3.743  0.3831  0.0741  0.1767
  484poe     o2 5801   3.121   1.196   3.835 -0.0905 -0.3540 -0.0139
  484poe    c23 5802   3.036   1.095   3.885 -0.0246 -0.2115  0.3894
  484poe    c23 5803   2.940   1.180   3.970 -0.1812  0.0921 -0.0877
  484poe     o2 5804   2.893   1.285   3.889 -0.6784  0.1799  0.3111
  484poe    c23 5805   2.853   1.398   3.964 -0.1689  0.2782  0.4345
  484poe    c23 5806   2.867   1.520   3.871  0.0933 -0.0496  0.0396
  484poe     o2 5807   2.989   1.524   3.800  0.0352  0.1371 -0.0488
  484poe    c31 5808   2.989   1.633   3.710  0.9957  0.4568  0.3266
  485poe    c31 5809   1.799   6.460   0.934  0.0747 -0.1723 -0.1303
  485poe     o2 5810   1.896   6.556   0.900  0.3852 -0.3584  0.2241
  485poe    c23 5811   1.846   6.687   0.912 -0.0853 -0.4809 -0.3586
  485poe    c23 5812   1.953   6.774   0.844 -0.3313 -0.1740 -0.3545
  485poe     o2 5813   1.996   6.721   0.721 -0.3322  0.4605 -0.6319
  485poe    c23 5814   2.112   6.793   0.684  0.2598 -0.2645 -0.2128
  485poe    c23 5815   2.172   6.711   0.569 -0.0359  0.0237 -0.5736
  485poe     o2 5816   2.172   6.573   0.596 -0.5497  0.0546 -0.4163
  485poe    c23 5817   2.286   6.549   0.676 -0.6944  0.2264 -0.1552
  485poe    c23 5818   2.265   6.437   0.780  0.1376 -0.2726 -0.5159
  485poe     o2 5819   2.155   6.472   0.860  0.2541 -0.4095 -0.2967
  485poe    c31 5820   2.152   6.408   0.986  0.8883  0.5556  0.2153
  486poe    c31 5821   1.209   1.325   3.352 -0.0607  0.7134  0.0819
  486poe     o2 5822   1.201   1.206   3.276 -0.0110  0.7710 -0.0139
  486poe    c23 5823   1.233   1.087   3.346 -0.2678  0.5466 -0.2760
  486poe    c23 5824   1.182   0.963   3.272  0.7314 -0.0857  0.0790
  486poe     o2 5825   1.218   0.993   3.139  1.0380  0.0514  0.1917
  486poe    c23 5826   1.198   0.881   3.056  0.5180 -0.1487  0.5822
  486poe    c23 5827   1.237   0.945   2.922  0.1431 -0.1553  0.4703
  486poe     o2 5828   1.177   1.072   2.917  0.0874 -0.1756  0.6342
  486poe    c23 5829   1.233   1.146   2.811 -0.9172 -0.2461  0.0441
  486poe    c23 5830   1.174   1.281   2.857 -0.7075 -0.1720  0.0949
  486poe     o2 5831   1.199   1.308   2.993  0.3170  0.1172 -0.1415
  486poe    c31 5832   1.128   1.424   3.030 -0.0150  0.0559 -0.5684
  487poe    c31 5833   6.642   4.938   0.907  0.4802 -0.0233  0.1320
  487poe     o2 5834   6.555   4.827   0.914  0.1255  0.2705  0.4180
  487poe    c23 5835   6.457   4.816   0.813  0.2886 -0.4349  0.3307
  487poe    c23 5836   6.321   4.860   0.870  0.2193 -0.2609  0.0351
  487poe     o2 5837   6.322   4.769   0.978  0.3166 -0.3917 -0.0741
  487poe    c23 5838   6.262   4.840   1.085 -0.4717 -0.5045 -0.4312
  487poe    c23 5839   6.315   4.778   1.216 -0.2403  0.6206  0.0180
  487poe     o2 5840   6.454   4.757   1.205 -0.3375 -0.0514  0.0405
  487poe    c23 5841   6.521   4.694   1.312 -0.3576  0.4243  0.3346
  487poe    c23 5842   6.668   4.715   1.272 -0.4183 -0.4882 -0.4041
  487poe     o2 5843   6.666   4.706   1.132 -0.6966 -0.3243 -0.4112
  487poe    c31 5844   6.799   4.688   1.090 -0.4993 -0.7970  0.3966
  488poe    c31 5845   5.622   3.303   3.634  0.3033 -0.1940 -0.0191
  488poe     o2 5846   5.573   3.194   3.559  0.1826 -0.2247  0.1048
  488poe    c23 5847   5.571   3.220   3.421 -0.0540  0.1355  0.1741
  488poe    c23 5848   5.479   3.118   3.351  0.2458 -0.1782  0.2344
  488poe     o2 5849   5.479   3.002   3.431 -0.1064 -0.0088  0.4826
  488poe    c23 5850   5.375   2.909   3.405  0.1317 -0.0844 -0.2098
  488poe    c23 5851   5.266   2.954   3.503 -0.0001 -0.5374 -0.1477
  488poe     o2 5852   5.327   3.020   3.612 -0.5174 -0.0076 -0.1737
  488poe    c23 5853   5.243   3.046   3.722  0.4564  0.0677  0.5635
  488poe    c23 5854   5.300   3.097   3.856  0.2290  0.1106  0.6440
  488poe     o2 5855   5.377   3.215   3.845  0.1224  0.1257  0.0136
  488poe    c31 5856   5.455   3.232   3.961  0.8118  0.0135 -0.4307
  489poe    c31 5857   5.158   5.129   6.196 -0.4151 -0.0928 -0.6583
  489poe     o2 5858   5.038   5.065   6.231 -0.1275 -0.0322  0.4730
  489poe    c23 5859   4.937   5.117   6.148  0.3371 -0.2803 -0.2537
  489poe    c23 5860   4.817   5.040   6.206  0.0587  0.1111 -0.3010
  489poe     o2 5861   4.850   4.903   6.202  0.3752  0.1350  0.8738
  489poe    c23 5862   4.737   4.828   6.241 -0.0114  0.0453 -0.3736
  489poe    c23 5863   4.794   4.686   6.231 -0.4967 -0.1480 -0.4541
  489poe     o2 5864   4.922   4.697   6.290 -0.7527  0.2848  0.0236
  489poe    c23 5865   5.015   4.611   6.228 -0.1702  0.3348  0.8106
  489poe    c23 5866   5.156   4.656   6.270  0.1834 -0.0418  0.0411
  489poe     o2 5867   5.163   4.797   6.281 -0.1112 -0.0396  0.2041
  489poe    c31 5868   5.300   4.831   6.287 -0.1091 -0.0987  0.5228
  490poe    c31 5869   4.611   0.945   4.344  0.2359 -0.1529  1.0532
  490poe     o2 5870   4.569   1.079   4.350 -0.0045 -0.1985  0.5068
  490poe    c23 5871   4.507   1.114   4.228 -0.3636 -0.4739  0.6089
  490poe    c23 5872   4.424   1.241   4.251  0.4416  0.2231 -0.2792
  490poe     o2 5873   4.496   1.311   4.350  0.0857 -0.0625  0.1863
  490poe    c23 5874   4.415   1.412   4.407 -0.3284 -0.2655 -0.0370
  490poe    c23 5875   4.456   1.429   4.555 -0.2861 -0.0512 -0.0735
  490poe     o2 5876   4.493   1.300   4.600 -0.3210  0.0262  0.1727
  490poe    c23 5877   4.526   1.310   4.737 -0.2383 -0.1191  0.1623
  490poe    c23 5878   4.663   1.241   4.751 -0.5958 -0.6774  1.0561
  490poe     o2 5879   4.668   1.151   4.642 -0.2102  0.3689  0.1856
  490poe    c31 5880   4.734   1.037   4.694 -0.6784  0.1046  0.1993
  491poe    c31 5881   4.630   6.427   5.266 -0.0960  0.0450  0.2253
  491poe     o2 5882   4.707   6.456   5.381 -0.4518  0.0910  0.4535
  491poe    c23 5883   4.833   6.398   5.353 -0.4564  0.1497  0.3130
  491poe    c23 5884   4.932   6.454   5.457 -0.1612  0.3428 -0.0676
  491poe     o2 5885   4.866   6.468   5.581 -0.1255  0.0702 -0.0166
  491poe    c23 5886   4.960   6.499   5.680 -0.2159 -0.3180  0.1911
  491poe    c23 5887   4.889   6.554   5.805  0.0035  0.0455  0.1560
  491poe     o2 5888   4.791   6.464   5.850 -0.2897  0.2417 -0.0927
  491poe    c23 5889   4.723   6.514   5.963 -0.5651  0.5658 -0.3993
  491poe    c23 5890   4.650   6.388   6.014  0.4809  0.0399 -0.1692
  491poe     o2 5891   4.730   6.282   6.061 -0.1688 -0.3116  0.1671
  491poe    c31 5892   4.658   6.167   6.098 -0.3942 -0.1969  0.0889
  492poe    c31 5893   0.914   6.493   6.016 -0.5452 -0.5613 -0.4812
  492poe     o2 5894   0.872   6.359   6.033 -0.1493 -0.5553  0.6301
  492poe    c23 5895   0.890   6.282   5.917 -0.0466  0.2304  0.1131
  492poe    c23 5896   0.807   6.152   5.926 -0.5237  0.5235  0.0093
  492poe     o2 5897   0.803   6.112   6.061 -0.3245 -0.2879 -0.2194
  492poe    c23 5898   0.914   6.037   6.105 -0.0186  0.3590  0.1275
  492poe    c23 5899   0.910   6.027   6.259  0.1111 -0.0866  0.1043
  492poe     o2 5900   0.890   6.163   6.290  0.3838 -0.0568  0.1481
  492poe    c23 5901   0.889   6.185   6.429 -0.6210  0.3286  0.0880
  492poe    c23 5902   0.911   6.336   6.454 -0.7116  0.3060  0.3058
  492poe     o2 5903   0.888   6.419   6.343 -0.5388  0.6893  0.5575
  492poe    c31 5904   0.957   6.540   6.366  0.4823  0.1980  0.1587
  493poe    c31 5905   1.657   5.204   2.668  0.1409  0.0354  0.5369
  493poe     o2 5906   1.588   5.238   2.550 -0.0926 -0.3391  0.5631
  493poe    c23 5907   1.647   5.345   2.481 -0.1067 -0.7691 -0.1259
  493poe    c23 5908   1.530   5.398   2.396  0.1754 -0.3367 -0.2538
  493poe     o2 5909   1.446   5.298   2.342  0.3591 -0.3653 -0.4831
  493poe    c23 5910   1.495   5.240   2.223  0.3011 -0.2426 -0.5675
  493poe    c23 5911   1.456   5.091   2.226 -0.5503 -0.0035  0.6268
  493poe     o2 5912   1.486   5.042   2.355 -0.8370  0.3506  0.8302
  493poe    c23 5913   1.445   4.908   2.370  0.0998 -0.1070 -0.5417
  493poe    c23 5914   1.483   4.870   2.514 -0.2785  0.0884 -0.3885
  493poe     o2 5915   1.448   4.978   2.598  0.3862  0.1871 -0.2349
  493poe    c31 5916   1.458   4.916   2.725 -0.5734  0.7107  0.1026
  494poe    c31 5917   3.515   5.981   3.517  0.2111  0.0901 -0.3278
  494poe     o2 5918   3.426   5.978   3.408  0.1371  0.1745 -0.2696
  494poe    c23 5919   3.442   5.851   3.349  0.2618 -0.0161  0.1709
  494poe    c23 5920   3.334   5.824   3.242  0.0609  0.3990  0.2679
  494poe     o2 5921   3.328   5.938   3.159 -0.1877 -0.1439 -0.4745
  494poe    c23 5922   3.212   5.908   3.085 -0.4467 -0.1096 -0.0860
  494poe    c23 5923   3.160   6.039   3.023 -0.2745 -0.1387 -0.2930
  494poe     o2 5924   3.266   6.100   2.952 -0.2380  0.0302 -0.0967
  494poe    c23 5925   3.229   6.207   2.869 -0.4137  0.2990  0.3235
  494poe    c23 5926   3.343   6.232   2.768 -0.3756  0.0126  0.2947
  494poe     o2 5927   3.468   6.199   2.824 -0.3527 -0.3863  0.0167
  494poe    c31 5928   3.579   6.243   2.750 -0.1293  0.0068  0.5754
  495poe    c31 5929   4.573   4.860   5.091 -0.1114 -0.1205 -0.1074
  495poe     o2 5930   4.688   4.857   5.009 -0.0327 -0.4822  0.0153
  495poe    c23 5931   4.650   4.836   4.875  0.3628  0.0944 -0.1870
  495poe    c23 5932   4.774   4.806   4.788  0.1787 -0.1348 -0.3692
  495poe     o2 5933   4.864   4.910   4.817  0.2628 -0.4339  0.4735
  495poe    c23 5934   4.992   4.895   4.760  0.1970  0.2033  0.1485
  495poe    c23 5935   5.092   4.856   4.870  0.1108  0.2107  0.2306
  495poe     o2 5936   5.036   4.905   4.990 -0.1089  0.1351  0.1583
  495poe    c23 5937   5.112   4.870   5.104  0.2243 -0.5622 -0.2720
  495poe    c23 5938   5.040   4.960   5.205 -0.2764 -0.4972 -0.6781
  495poe     o2 5939   4.906   4.964   5.161 -0.4889  0.1535 -0.0045
  495poe    c31 5940   4.832   5.038   5.255 -0.4476 -0.5234  0.5731
  496poe    c31 5941   3.338   3.690   3.438 -1.1286 -0.3571  0.5502
  496poe     o2 5942   3.253   3.773   3.363 -0.2535  0.0250 -0.0341
  496poe    c23 5943   3.320   3.867   3.282  0.1177 -0.3420 -0.1574
  496poe    c23 5944   3.225   3.975   3.226  0.1680  0.0717  0.5378
  496poe     o2 5945   3.116   3.905   3.172  0.1957  0.1885  0.3285
  496poe    c23 5946   3.005   3.984   3.135 -0.1043 -0.3389  0.0767
  496poe    c23 5947   2.885   3.888   3.139 -0.0858 -0.3456  0.5793
  496poe     o2 5948   2.910   3.818   3.258  0.2723  0.0608  0.7462
  496poe    c23 5949   2.814   3.724   3.301 -0.3585  0.3450 -0.0187
  496poe    c23 5950   2.881   3.636   3.408 -0.1487  0.2479 -0.2324
  496poe     o2 5951   3.013   3.605   3.368 -0.0873 -0.1830  0.2910
  496poe    c31 5952   3.064   3.494   3.438  0.2128 -0.0869  0.2238
  497poe    c31 5953   1.989   0.131   5.464  0.6708  0.0749  0.5298
  497poe     o2 5954   2.045   0.257   5.434  0.2101  0.0023 -0.6858
  497poe    c23 5955   1.948   0.344   5.488  0.2554 -0.1860 -0.3017
  497poe    c23 5956   2.009   0.482   5.456 -0.2356  0.1704  0.2676
  497poe     o2 5957   2.146   0.468   5.486 -0.2153 -0.1851  0.0196
  497poe    c23 5958   2.225   0.584   5.464 -0.4042 -0.0737 -0.0691
  497poe    c23 5959   2.366   0.526   5.479 -0.6643 -0.3608  1.3775
  497poe     o2 5960   2.359   0.402   5.411  0.5046  0.6076 -0.6004
  497poe    c23 5961   2.461   0.310   5.440  0.1063  0.1183 -0.7497
  497poe    c23 5962   2.448   0.191   5.343 -0.2292 -0.1902 -0.3341
  497poe     o2 5963   2.312   0.171   5.312 -0.3049 -0.2280  0.0244
  497poe    c31 5964   2.304   0.098   5.192 -0.0144  0.2139 -0.2653
  498poe    c31 5965   0.359   5.883   6.325  0.1606  0.2464 -0.0795
  498poe     o2 5966   0.330   5.914   6.191  0.4142 -0.7097 -0.3628
  498poe    c23 5967   0.453   5.911   6.122  0.3883 -0.1343 -0.4368
  498poe    c23 5968   0.441   6.018   6.012 -0.1146  0.1162 -0.1451
  498poe     o2 5969   0.317   5.980   5.958 -0.2844 -0.1259  0.4139
  498poe    c23 5970   0.267   6.089   5.883  0.2580 -0.1676 -0.0076
  498poe    c23 5971   0.118   6.123   5.898  0.2605 -0.1053 -0.1233
  498poe     o2 5972   0.110   6.121   6.039  0.3816 -0.4831 -0.1193
  498poe    c23 5973  -0.020   6.129   6.094  0.3561  0.0816 -0.2459
  498poe    c23 5974   0.002   6.086   6.240  0.3685  0.5486 -0.1099
  498poe     o2 5975   0.052   5.954   6.237  0.3558  0.5315  0.4335
  498poe    c31 5976  -0.028   5.861   6.306  0.3049  0.2257 -0.0400
  499poe    c31 5977   0.805   2.411   6.684 -0.1887 -0.7687  0.4193
  499poe     o2 5978   0.757   2.423   6.816  0.1885 -0.3639  0.5214
  499poe    c23 5979   0.828   2.516   6.895 -0.3227  0.2340  0.2810
  499poe    c23 5980   0.833   2.475   7.044  0.1646 -0.1564  0.1598
  499poe     o2 5981   0.700   2.430   7.063  0.0000  0.3649  0.2653
  499poe    c23 5982   0.664   2.401   7.196  0.4767 -0.2438  0.2678
  499poe    c23 5983   0.519   2.352   7.189  0.3374  0.1735  0.1830
  499poe     o2 5984   0.508   2.285   7.065 -0.3282  0.0053  0.3280
  499poe    c23 5985   0.393   2.207   7.042 -0.3623  0.2585 -0.3796
  499poe    c23 5986   0.439   2.105   6.936 -0.2984  0.3460 -0.4360
  499poe     o2 5987   0.483   2.182   6.826 -0.2054  0.3469 -0.3984
  499poe    c31 5988   0.509   2.111   6.706 -0.3946  0.2914 -0.4079
  500poe    c31 5989   5.138   0.047   1.034  0.0134 -0.4386 -0.5401
  500poe     o2 5990   5.064  -0.067   1.073 -0.3114 -0.1297 -0.2349
  500poe    c23 5991   5.119  -0.171   0.996 -0.0082 -0.1228 -0.0293
  500poe    c23 5992   5.099  -0.307   1.066  0.2628  0.1473  0.5755
  500poe     o2 5993   4.960  -0.306   1.090  0.1462 -0.2910 -0.0671
  500poe    c23 5994   4.926  -0.359   1.216 -0.2590  0.0960 -0.0138
  500poe    c23 5995   4.783  -0.313   1.250 -0.1170  0.1222  0.5477
  500poe     o2 5996   4.788  -0.173   1.266 -0.0756  0.1734  0.0788
  500poe    c23 5997   4.660  -0.116   1.254 -0.2991 -0.4006 -0.3233
  500poe    c23 5998   4.684   0.035   1.230 -0.4754 -0.3014  0.1300
  500poe     o2 5999   4.806   0.061   1.166 -0.6057 -0.0619 -0.0219
  500poe    c31 6000   4.828   0.200   1.151 -0.1033 -0.2216 -0.8128
  501poe    c31 6001   4.357   1.785   2.519  0.1420  0.2747 -0.0047
  501poe     o2 6002   4.218   1.791   2.496  0.1606 -0.2012 -0.2529
  501poe    c23 6003   4.191   1.889   2.398  0.3281 -0.2790 -0.3773
  501poe    c23 6004   4.043   1.930   2.407  0.4574  0.2264 -0.5216
  501poe     o2 6005   3.967   1.812   2.397  0.5938  0.0079  0.8346
  501poe    c23 6006   3.836   1.807   2.447  0.1774  0.1651 -0.2081
  501poe    c23 6007   3.795   1.673   2.512  0.2872  0.1014 -0.2705
  501poe     o2 6008   3.895   1.652   2.610 -0.0328  0.1067  0.0572
  501poe    c23 6009   3.884   1.526   2.670 -0.0633 -0.0232 -0.2202
  501poe    c23 6010   4.006   1.524   2.764 -0.1065 -0.4312 -0.1705
  501poe     o2 6011   4.118   1.569   2.692  0.0148 -0.5963 -0.0866
  501poe    c31 6012   4.237   1.545   2.763  0.2518 -0.3096 -0.3870
  502poe    c31 6013   3.489   1.529   2.829  0.9948  0.3750  0.5825
  502poe     o2 6014   3.423   1.585   2.940 -0.5011  0.0490 -0.1095
  502poe    c23 6015   3.290   1.538   2.946 -0.3337 -0.4193  0.0549
  502poe    c23 6016   3.237   1.587   3.082 -0.1535  0.0844 -0.0551
  502poe     o2 6017   3.284   1.719   3.098  0.2560 -0.1083  0.3256
  502poe    c23 6018   3.238   1.756   3.226  0.1176 -0.2341  0.3127
  502poe    c23 6019   3.278   1.905   3.232  0.5877 -0.3342 -0.2976
  502poe     o2 6020   3.414   1.935   3.214  0.5838  0.0059  0.2192
  502poe    c23 6021   3.431   2.074   3.228  0.4920  0.0804 -0.3644
  502poe    c23 6022   3.571   2.127   3.265  0.4641 -0.1920  0.1499
  502poe     o2 6023   3.652   2.128   3.149  0.3754  0.1504  0.0912
  502poe    c31 6024   3.780   2.169   3.190  0.6020 -0.1626 -0.2969
  503poe    c31 6025   1.684   2.112   4.745 -0.5811  0.0141  0.0661
  503poe     o2 6026   1.643   2.149   4.615  0.0205  0.8799  0.1151
  503poe    c23 6027   1.511   2.191   4.641 -0.3667 -0.2335  0.0340
  503poe    c23 6028   1.460   2.270   4.518  0.2773  0.0785 -0.0383
  503poe     o2 6029   1.532   2.210   4.412 -0.1159 -0.2638 -0.1177
  503poe    c23 6030   1.518   2.296   4.301  0.2869  0.1633  0.1551
  503poe    c23 6031   1.614   2.254   4.189  0.3867  0.7764  0.0057
  503poe     o2 6032   1.724   2.221   4.272 -0.0309 -0.4157  0.1093
  503poe    c23 6033   1.842   2.203   4.198  0.0567 -0.2352  0.2042
  503poe    c23 6034   1.950   2.155   4.297  0.0645  0.4460  0.5310
  503poe     o2 6035   1.884   2.067   4.386 -0.1279  0.4921  0.4351
  503poe    c31 6036   1.971   1.999   4.474  0.1216  0.4477  0.1553
  504poe    c31 6037   4.586   3.428   3.419  0.2795  0.0682 -0.4143
  504poe     o2 6038   4.628   3.297   3.453 -0.2548 -0.0265 -0.0998
  504poe    c23 6039   4.750   3.266   3.390 -0.4907 -0.2447 -0.4481
  504poe    c23 6040   4.807   3.153   3.478 -0.5548  0.4119  0.4444
  504poe     o2 6041   4.711   3.051   3.481 -0.2259  0.0867  0.0268
  504poe    c23 6042   4.745   2.939   3.560 -0.5277  0.2145  0.3377
  504poe    c23 6043   4.620   2.849   3.557 -0.1203 -0.3786  0.9224
  504poe     o2 6044   4.510   2.933   3.584  0.2057  0.3476  0.0368
  504poe    c23 6045   4.399   2.876   3.518  0.4204 -0.1402  0.0910
  504poe    c23 6046   4.298   2.992   3.508  0.4509 -0.1351 -0.1434
  504poe     o2 6047   4.360   3.114   3.473  0.1713  0.2553  0.7114
  504poe    c31 6048   4.272   3.223   3.451 -0.1846 -0.1709 -0.0211
  505poe    c31 6049   0.543   5.658   2.953 -0.4037  0.0643  0.4669
  505poe     o2 6050   0.435   5.745   2.927  0.1366  0.5444 -0.1918
  505poe    c23 6051   0.455   5.860   3.006  0.0316  0.3286  0.1482
  505poe    c23 6052   0.384   5.974   2.931 -0.1075  0.1086 -0.0555
  505poe     o2 6053   0.252   5.928   2.912  0.1302 -0.6632  0.0876
  505poe    c23 6054   0.177   5.997   2.814  0.7988 -0.8321 -0.5512
  505poe    c23 6055   0.069   5.889   2.795 -0.3518  0.2714 -0.4088
  505poe     o2 6056   0.123   5.781   2.722 -0.6761 -0.1667 -0.0056
  505poe    c23 6057   0.036   5.672   2.703 -0.2635 -0.4138 -0.4907
  505poe    c23 6058   0.131   5.550   2.708 -0.0544 -0.2318  0.1956
  505poe     o2 6059   0.208   5.565   2.825  0.1023  0.4629  0.0070
  505poe    c31 6060   0.228   5.436   2.879 -0.1459  0.4449  0.0552
  506poe    c31 6061   2.465   3.775   5.342  0.3639 -0.2955 -0.1294
  506poe     o2 6062   2.560   3.861   5.284  0.3836 -0.1351  0.1372
  506poe    c23 6063   2.484   3.941   5.196  0.0993 -0.6838 -0.1205
  506poe    c23 6064   2.585   4.040   5.136 -0.4422 -0.0525  0.0003
  506poe     o2 6065   2.651   4.099   5.246  0.1331 -0.0541 -0.3400
  506poe    c23 6066   2.760   4.182   5.212 -0.2991  0.4961 -0.3924
  506poe    c23 6067   2.863   4.159   5.324 -1.0006  0.1301  0.1852
  506poe     o2 6068   2.875   4.024   5.363  0.2559  0.2352  0.2045
  506poe    c23 6069   2.984   3.964   5.296  0.3471  0.4566  0.1531
  506poe    c23 6070   2.976   3.820   5.351 -0.7070  0.5705  0.3353
  506poe     o2 6071   2.840   3.789   5.369 -0.6726  0.3482  0.2175
  506poe    c31 6072   2.845   3.664   5.432 -0.5221  0.1799 -0.1239
  507poe    c31 6073   3.347   0.811   3.182 -0.5257 -0.0997 -0.4106
  507poe     o2 6074   3.258   0.784   3.077 -0.5907  0.2144 -0.4361
  507poe    c23 6075   3.319   0.679   3.005  0.1483  0.3425 -0.0013
  507poe    c23 6076   3.225   0.640   2.889  1.0072 -0.9716 -0.2727
  507poe     o2 6077   3.102   0.625   2.956  0.6878  0.0839 -0.6115
  507poe    c23 6078   2.995   0.588   2.873  0.1791 -0.4085  0.2462
  507poe    c23 6079   2.873   0.592   2.967  0.0059 -0.1314  0.0115
  507poe     o2 6080   2.860   0.726   3.011 -0.3409  0.1007 -0.7683
  507poe    c23 6081   2.791   0.750   3.132  0.1858 -0.0528 -0.4302
  507poe    c23 6082   2.839   0.881   3.198 -0.2822  0.2254 -0.6353
  507poe     o2 6083   2.978   0.857   3.195 -0.3771 -0.3880 -0.3332
  507poe    c31 6084   3.040   0.957   3.273 -0.3454 -0.3886 -0.3577
  508poe    c31 6085   1.320   6.633   4.513 -0.0552  0.1519  0.3088
  508poe     o2 6086   1.188   6.680   4.526 -0.1350 -0.0848  0.3539
  508poe    c23 6087   1.100   6.570   4.536 -0.3347  0.0894  0.5364
  508poe    c23 6088   0.970   6.632   4.589 -0.4910  0.0596  0.1927
  508poe     o2 6089   0.936   6.731   4.495 -0.0122  0.1390  0.1041
  508poe    c23 6090   0.814   6.793   4.529 -0.0844 -0.1660  0.4088
  508poe    c23 6091   0.793   6.913   4.435 -0.0916 -0.0504  0.5578
  508poe     o2 6092   0.915   6.984   4.432 -0.0528 -0.1276  0.1340
  508poe    c23 6093   0.947   7.040   4.307 -0.0447  0.3431  0.3419
  508poe    c23 6094   1.099   7.064   4.296 -0.0893  0.3983 -0.2052
  508poe     o2 6095   1.168   6.946   4.327 -0.1922  0.2282 -0.6158
  508poe    c31 6096   1.309   6.957   4.332 -0.2062  0.2283 -0.1768
  509poe    c31 6097   6.437   4.027   2.317 -0.2648 -0.1890  0.2373
  509poe     o2 6098   6.554   3.952   2.294 -0.2705 -0.1261  0.0092
  509poe    c23 6099   6.668   4.012   2.351 -0.3336  0.3398 -0.3501
  509poe    c23 6100   6.788   3.957   2.271  0.0429  0.0880  0.3778
  509poe     o2 6101   6.767   3.819   2.288 -0.4499  0.1704  0.4559
  509poe    c23 6102   6.855   3.734   2.217 -0.1054  0.2409  0.7947
  509poe    c23 6103   6.804   3.591   2.238  0.1644 -0.0571 -0.4820
  509poe     o2 6104   6.664   3.572   2.230  0.2020 -0.6778  0.1633
  509poe    c23 6105   6.633   3.486   2.337  0.0142 -0.3390  0.3832
  509poe    c23 6106   6.495   3.522   2.395 -0.1924 -0.6516  0.0944
  509poe     o2 6107   6.488   3.663   2.403 -0.3831 -0.6596  0.0858
  509poe    c31 6108   6.392   3.703   2.498  0.2022 -0.1994  0.4896
  510poe    c31 6109   5.298   5.621   1.042 -0.1836  0.1176 -0.6817
  510poe     o2 6110   5.388   5.654   1.146 -0.6073  0.2750 -0.3598
  510poe    c23 6111   5.333   5.695   1.269 -0.5136 -0.7641  0.0388
  510poe    c23 6112   5.449   5.715   1.369 -0.1407  0.0416 -0.5406
  510poe     o2 6113   5.559   5.767   1.298  0.3051 -0.4793 -0.2356
  510poe    c23 6114   5.688   5.784   1.351  0.1765 -0.0036 -0.0675
  510poe    c23 6115   5.775   5.820   1.229  0.4856  0.5182  0.3031
  510poe     o2 6116   5.735   5.727   1.131  0.4914 -0.1612  0.9389
  510poe    c23 6117   5.767   5.759   0.998 -0.3348  0.0672  0.7865
  510poe    c23 6118   5.737   5.631   0.918 -0.1672  0.5851 -0.1145
  510poe     o2 6119   5.604   5.587   0.936 -0.1046  0.2605 -0.4187
  510poe    c31 6120   5.565   5.515   0.822 -0.4476  0.2332 -0.2869
  511poe    c31 6121   1.359   0.249   0.504 -0.6132 -0.4216 -0.2458
  511poe     o2 6122   1.421   0.279   0.381 -0.2858 -0.0856  0.0011
  511poe    c23 6123   1.343   0.383   0.325  0.5303  0.6398  0.1807
  511poe    c23 6124   1.365   0.367   0.174  0.0477  0.2651  0.1448
  511poe     o2 6125   1.504   0.343   0.173 -0.0389 -0.2532  0.2545
  511poe    c23 6126   1.566   0.350   0.046  0.1299 -0.1418  0.3425
  511poe    c23 6127   1.707   0.291   0.059  0.1973 -0.1675 -0.4371
  511poe     o2 6128   1.701   0.185   0.151 -0.0573  0.2978  0.0939
  511poe    c23 6129   1.811   0.184   0.240 -0.3629 -0.1833  0.4704
  511poe    c23 6130   1.779   0.090   0.358 -0.3997 -0.6509  0.0944
  511poe     o2 6131   1.675   0.158   0.424 -0.2045 -0.0708 -0.1864
  511poe    c31 6132   1.668   0.097   0.551 -0.0154 -0.1915 -0.2349
  512poe    c31 6133   4.927   2.266   2.873  0.3002  1.0852 -0.2264
  512poe     o2 6134   5.040   2.267   2.790  0.4199 -0.0181 -0.0899
  512poe    c23 6135   5.160   2.205   2.831 -0.1265 -0.7567  0.4015
  512poe    c23 6136   5.242   2.192   2.702  0.1484 -0.8344  0.5840
  512poe     o2 6137   5.248   2.326   2.659 -0.3841 -1.1501 -0.4934
  512poe    c23 6138   5.351   2.339   2.564 -0.3348  0.1886 -0.2785
  512poe    c23 6139   5.414   2.479   2.562 -0.4895  0.2659  0.2557
  512poe     o2 6140   5.319   2.566   2.505 -0.3768  0.0676 -0.2360
  512poe    c23 6141   5.292   2.678   2.586 -0.0861  0.0227 -0.0754
  512poe    c23 6142   5.151   2.672   2.648  0.0943  0.4670  0.3788
  512poe     o2 6143   5.112   2.560   2.724 -0.2219  0.2150 -0.1498
  512poe    c31 6144   5.145   2.571   2.860 -0.3063 -0.1002 -0.1033
  513poe    c31 6145   1.441   6.023   3.372 -0.5681 -0.9234  0.8164
  513poe     o2 6146   1.558   5.949   3.400 -0.3514 -0.8315  0.1678
  513poe    c23 6147   1.601   5.862   3.297 -0.0175 -0.3757 -0.0786
  513poe    c23 6148   1.714   5.772   3.350  0.0494 -0.3677 -0.2068
  513poe     o2 6149   1.788   5.848   3.443 -0.4464 -0.1356  0.0021
  513poe    c23 6150   1.876   5.783   3.532 -0.1087  0.6789  0.2752
  513poe    c23 6151   1.928   5.887   3.631  0.1203  0.1795  0.6844
  513poe     o2 6152   1.824   5.964   3.687 -0.1397  0.3909 -0.0780
  513poe    c23 6153   1.879   6.058   3.777  0.3438 -0.1410  0.1881
  513poe    c23 6154   1.912   6.021   3.923 -0.2890  0.2194  0.4253
  513poe     o2 6155   2.032   6.064   3.983 -0.0804  0.2490 -0.0096
  513poe    c31 6156   2.008   6.120   4.110 -0.1251  0.1776  0.0130
  514poe    c31 6157   3.369   3.686   6.489  0.0598 -0.1209  0.4330
  514poe     o2 6158   3.464   3.585   6.512  0.0574 -0.0053  0.9754
  514poe    c23 6159   3.585   3.604   6.440 -0.3475 -0.1774  0.2384
  514poe    c23 6160   3.685   3.520   6.521  0.4871  0.4526 -0.1188
  514poe     o2 6161   3.633   3.388   6.522 -0.0004  0.6444 -0.0878
  514poe    c23 6162   3.694   3.298   6.611 -0.1518  0.1452 -0.4818
  514poe    c23 6163   3.591   3.187   6.638  0.2411 -0.2206 -0.4839
  514poe     o2 6164   3.483   3.266   6.681  0.2491 -0.4347 -0.0658
  514poe    c23 6165   3.367   3.185   6.687 -0.5080  0.6199 -0.1336
  514poe    c23 6166   3.255   3.275   6.742 -0.1057  0.8391  0.3388
  514poe     o2 6167   3.261   3.396   6.670 -0.5449  0.2269 -0.7381
  514poe    c31 6168   3.150   3.482   6.684  0.1296  1.0326 -0.2784
  515poe    c31 6169   0.628   4.050   5.029  0.2129  0.2609 -0.4797
  515poe     o2 6170   0.527   3.972   5.089  0.1510  0.5814 -0.1603
  515poe    c23 6171   0.516   4.002   5.226  0.7327 -0.4660  0.1236
  515poe    c23 6172   0.410   3.900   5.271  0.0727  0.2015  0.1156
  515poe     o2 6173   0.355   3.825   5.165  0.2574  0.0401  0.1317
  515poe    c23 6174   0.244   3.745   5.197  0.3328 -0.1321 -0.0389
  515poe    c23 6175   0.210   3.654   5.077  0.3001 -0.0568 -0.0865
  515poe     o2 6176   0.255   3.720   4.961 -0.4544 -0.2704 -0.5047
  515poe    c23 6177   0.288   3.621   4.866  0.3539 -0.2129 -0.2876
  515poe    c23 6178   0.389   3.677   4.764  0.3917  0.5690  0.1759
  515poe     o2 6179   0.485   3.754   4.834  0.5977  0.1406  0.3668
  515poe    c31 6180   0.577   3.812   4.744 -0.1586  0.7452 -0.0254
  516poe    c31 6181   4.769   2.212   4.650  0.5404  0.1074 -0.4349
  516poe     o2 6182   4.776   2.086   4.588 -0.5378 -0.2742  0.1911
  516poe    c23 6183   4.844   2.000   4.677  0.0031 -0.0622 -0.0100
  516poe    c23 6184   4.900   1.877   4.603  0.5568  0.2998 -0.1992
  516poe     o2 6185   4.798   1.861   4.508  0.3711 -0.0407  0.0564
  516poe    c23 6186   4.814   1.749   4.423  0.2626 -0.0262  0.0160
  516poe    c23 6187   4.672   1.749   4.364  0.1359  0.4473  0.3112
  516poe     o2 6188   4.637   1.885   4.346  0.1530  0.4801  0.5295
  516poe    c23 6189   4.502   1.903   4.312  0.1173 -0.0589  0.3658
  516poe    c23 6190   4.472   2.054   4.307 -0.0514 -0.1251 -0.7920
  516poe     o2 6191   4.538   2.100   4.422  0.3042 -0.3362 -0.9074
  516poe    c31 6192   4.486   2.231   4.428  0.6527 -0.2286  0.0763
  517poe    c31 6193   1.007   2.075   2.438 -0.2277  0.6587 -0.0088
  517poe     o2 6194   0.941   2.142   2.543 -0.5550 -0.1510  0.3096
  517poe    c23 6195   0.980   2.276   2.523  0.0866 -0.3712  0.0759
  517poe    c23 6196   0.849   2.355   2.535 -0.3369 -0.9813 -0.5071
  517poe     o2 6197   0.795   2.324   2.661 -0.1786 -0.4656 -0.3124
  517poe    c23 6198   0.655   2.331   2.679 -0.1745 -0.4860 -0.2720
  517poe    c23 6199   0.602   2.224   2.776 -0.3683  0.0014  0.1611
  517poe     o2 6200   0.645   2.099   2.727 -0.0490 -0.0032  0.4453
  517poe    c23 6201   0.616   1.987   2.807 -0.4187 -0.1485  0.1074
  517poe    c23 6202   0.682   1.860   2.749 -0.3128  0.1400 -0.4071
  517poe     o2 6203   0.816   1.878   2.709 -0.0477 -0.2325  0.3093
  517poe    c31 6204   0.872   1.769   2.639 -0.1900  0.5449 -1.0423
  518poe    c31 6205   5.273   6.723   0.627 -0.2741  0.6269  0.2408
  518poe     o2 6206   5.187   6.684   0.522 -0.1422  0.2502  0.2708
  518poe    c23 6207   5.052   6.678   0.563 -0.1804  0.0733  0.1208
  518poe    c23 6208   4.962   6.648   0.441 -0.3046  0.1541  0.1923
  518poe     o2 6209   5.022   6.548   0.362  0.1696 -0.2442  1.0317
  518poe    c23 6210   4.930   6.498   0.268  0.3422  0.6643  0.3591
  518poe    c23 6211   5.011   6.411   0.170 -0.0459  0.4076  0.2616
  518poe     o2 6212   5.051   6.289   0.229 -0.3907 -0.1376 -0.6064
  518poe    c23 6213   5.168   6.235   0.171  0.0515  0.2331 -0.0726
  518poe    c23 6214   5.227   6.113   0.243 -0.1219  0.3572  0.2800
  518poe     o2 6215   5.116   6.030   0.271  0.1869  0.0614  0.6540
  518poe    c31 6216   5.147   5.893   0.284  0.7540  0.1098 -0.0975
  519poe    c31 6217   5.805   5.491   6.341 -0.4959 -0.1386 -0.2884
  519poe     o2 6218   5.806   5.366   6.405  0.2687  0.0632  0.1049
  519poe    c23 6219   5.804   5.258   6.314 -0.3419  0.1985 -0.0410
  519poe    c23 6220   5.761   5.137   6.399 -0.6883  0.2179 -0.1840
  519poe     o2 6221   5.845   5.127   6.512 -0.4600  0.1011 -0.3633
  519poe    c23 6222   5.798   5.040   6.612  0.6998 -0.1386 -0.0163
  519poe    c23 6223   5.870   5.093   6.738  0.2460  0.2798  0.0682
  519poe     o2 6224   5.860   5.233   6.720  0.3050  0.3388  0.4823
  519poe    c23 6225   5.915   5.302   6.829  0.5195  0.2344  0.4408
  519poe    c23 6226   5.846   5.434   6.789  0.0048 -0.1942 -0.1004
  519poe     o2 6227   5.912   5.450   6.666  0.8272  0.2119  0.3882
  519poe    c31 6228   5.928   5.589   6.647 -0.7219  0.4151  0.4338
  520poe    c31 6229   0.194   2.375   4.505 -0.2028  0.3620  0.0122
  520poe     o2 6230   0.123   2.324   4.615  0.5765  0.3936  0.5382
  520poe    c23 6231   0.011   2.410   4.625 -0.0215 -0.2939 -0.1571
  520poe    c23 6232  -0.083   2.308   4.693 -0.2636  0.1079  0.1105
  520poe     o2 6233  -0.022   2.255   4.808 -0.1027  0.2168  0.0762
  520poe    c23 6234  -0.092   2.147   4.865  0.3222 -0.0962  0.0118
  520poe    c23 6235  -0.013   2.136   4.997  0.0440 -0.8232  0.1206
  520poe     o2 6236   0.125   2.149   4.971  0.0020  0.3249  0.4302
  520poe    c23 6237   0.187   2.232   5.066  0.4701  0.2567  0.1886
  520poe    c23 6238   0.311   2.296   5.002  0.2434  0.7395  0.2272
  520poe     o2 6239   0.270   2.321   4.869 -0.0234  0.2422  0.2128
  520poe    c31 6240   0.372   2.406   4.823  0.3856 -0.2780  0.1498
  521poe    c31 6241   2.203   1.955   1.802  0.1203 -0.3233 -0.1801
  521poe     o2 6242   2.112   2.010   1.710  0.0924 -0.2393 -0.1021
  521poe    c23 6243   2.176   2.012   1.585  0.3623 -0.0502  0.0396
  521poe    c23 6244   2.071   1.991   1.475  0.4969 -1.0134  0.0850
  521poe     o2 6245   1.982   2.101   1.478  0.5256 -1.0010  0.5608
  521poe    c23 6246   1.864   2.082   1.402  0.5507  0.4169  0.1471
  521poe    c23 6247   1.759   2.118   1.509  0.1973  0.4146 -0.1980
  521poe     o2 6248   1.789   2.069   1.638 -0.1273 -0.3672 -0.4153
  521poe    c23 6249   1.710   2.122   1.741  0.5279 -0.3804  0.1011
  521poe    c23 6250   1.755   2.062   1.876 -0.3845 -0.0012  0.5903
  521poe     o2 6251   1.890   2.100   1.895 -0.3603  0.1315  0.1741
  521poe    c31 6252   1.919   2.081   2.032  0.0461  1.2045  0.2451
  522poe    c31 6253   1.591   3.434   2.228  0.2900  0.0966 -0.5281
  522poe     o2 6254   1.621   3.564   2.180  0.5853  0.0579 -0.4499
  522poe    c23 6255   1.501   3.624   2.138  0.3858  0.0222  0.0540
  522poe    c23 6256   1.529   3.770   2.097  0.3916  0.3279  1.1160
  522poe     o2 6257   1.649   3.755   2.023 -0.2204 -0.1571  0.2003
  522poe    c23 6258   1.702   3.882   1.989 -0.5299 -0.0488  0.1153
  522poe    c23 6259   1.840   3.853   1.927 -0.4577  0.7984 -0.1239
  522poe     o2 6260   1.891   3.756   2.016  0.6343  1.0474 -0.4668
  522poe    c23 6261   2.026   3.719   2.003  0.4150 -0.0155  0.2145
  522poe    c23 6262   2.058   3.622   2.119  0.1320 -0.3537  0.0115
  522poe     o2 6263   1.957   3.524   2.114 -0.4980  0.2673  0.3725
  522poe    c31 6264   1.988   3.415   2.197  0.5115  0.0289 -0.2980
  523poe    c31 6265   2.472   1.016   6.656  0.5054  0.2574 -0.3832
  523poe     o2 6266   2.526   1.038   6.785  0.1413 -0.1066 -0.1670
  523poe    c23 6267   2.562   1.174   6.799 -0.0184 -0.0763 -0.0429
  523poe    c23 6268   2.613   1.201   6.942 -0.1863  0.3299 -0.0597
  523poe     o2 6269   2.744   1.159   6.973 -0.3009  0.1760  0.2119
  523poe    c23 6270   2.751   1.177   7.113 -0.3764 -0.1326  0.2578
  523poe    c23 6271   2.822   1.063   7.188 -0.1069  0.1962  0.5058
  523poe     o2 6272   2.946   1.068   7.122 -0.1361 -0.1651  0.4242
  523poe    c23 6273   3.037   0.977   7.182 -0.3728 -0.5984  0.1353
  523poe    c23 6274   3.170   0.995   7.107 -0.5745  0.3865 -0.0043
  523poe     o2 6275   3.138   1.016   6.971  0.1009  0.3437 -0.1730
  523poe    c31 6276   3.254   1.014   6.892  0.2049  0.3926 -0.0232
  524poe    c31 6277   0.640   5.338   5.581 -0.0531  0.2980  0.0417
  524poe     o2 6278   0.765   5.309   5.641 -0.2227 -0.0268  0.2460
  524poe    c23 6279   0.756   5.240   5.763 -0.1415 -0.6522 -0.0989
  524poe    c23 6280   0.890   5.173   5.798  0.0154 -0.0238  0.5099
  524poe     o2 6281   1.004   5.256   5.789 -0.0469  0.0265  0.2037
  524poe    c23 6282   1.109   5.177   5.739  0.4277  0.4994  0.4447
  524poe    c23 6283   1.244   5.245   5.769  0.8136 -0.1486  0.2028
  524poe     o2 6284   1.238   5.378   5.722 -0.3289 -0.5261 -0.7679
  524poe    c23 6285   1.374   5.416   5.714 -0.3704 -0.2151 -0.0765
  524poe    c23 6286   1.408   5.556   5.661 -0.6539 -0.0328  0.2228
  524poe     o2 6287   1.335   5.592   5.546 -0.1460 -0.2769 -0.1810
  524poe    c31 6288   1.395   5.713   5.504 -0.3958 -0.1172 -0.0795
  525poe    c31 6289   2.792   4.719   1.308  0.3411  0.2209 -0.8912
  525poe     o2 6290   2.667   4.665   1.271  0.3224 -0.4300  0.1044
  525poe    c23 6291   2.624   4.572   1.369 -0.0197 -0.1259  0.2421
  525poe    c23 6292   2.482   4.519   1.340  0.1326 -0.1642 -0.4568
  525poe     o2 6293   2.464   4.493   1.203  0.1967  0.1384 -0.5222
  525poe    c23 6294   2.334   4.489   1.150  0.0438  0.1939 -0.1499
  525poe    c23 6295   2.356   4.508   0.999 -0.1872  1.2477 -0.0537
  525poe     o2 6296   2.448   4.613   0.978 -0.0607  1.0657 -0.3995
  525poe    c23 6297   2.530   4.586   0.866 -0.3178  0.2713 -0.4033
  525poe    c23 6298   2.622   4.710   0.860 -0.0155  0.0481 -0.4005
  525poe     o2 6299   2.673   4.713   0.991 -0.1252  0.2680 -0.3634
  525poe    c31 6300   2.783   4.801   0.985 -0.0367  0.1835 -0.0307
  526poe    c31 6301   2.735   6.487   0.898  0.4803 -0.5497 -0.0874
  526poe     o2 6302   2.817   6.411   0.984  0.1153 -0.5179  0.2924
  526poe    c23 6303   2.927   6.476   1.044  0.2079 -0.5412  0.1468
  526poe    c23 6304   3.041   6.376   1.071  0.1645 -0.6186  0.0403
  526poe     o2 6305   2.974   6.260   1.115 -0.2166 -0.4395 -0.0616
  526poe    c23 6306   3.074   6.178   1.172  0.3373  0.6530  0.5660
  526poe    c23 6307   3.024   6.054   1.248 -0.4972  0.6513  0.0346
  526poe     o2 6308   2.948   5.980   1.155 -0.0413 -0.0790  0.2303
  526poe    c23 6309   2.815   5.973   1.203 -0.0429 -0.1769  0.2107
  526poe    c23 6310   2.704   6.025   1.110 -0.3763 -0.0820  0.6596
  526poe     o2 6311   2.709   6.166   1.104 -0.6137 -0.1113 -0.4162
  526poe    c31 6312   2.596   6.208   1.176 -0.1418  0.1993  0.1491
  527poe    c31 6313   0.527   1.922   4.971 -0.7450  0.1943  0.0734
  527poe     o2 6314   0.494   1.823   4.875  0.6460 -0.1309 -0.0882
  527poe    c23 6315   0.412   1.728   4.940  0.4305  0.2281  0.1743
  527poe    c23 6316   0.433   1.603   4.852 -0.0520  0.2410  0.0386
  527poe     o2 6317   0.383   1.630   4.723 -0.2543 -0.2368  0.0189
  527poe    c23 6318   0.341   1.509   4.664  0.7414 -0.2107 -0.7694
  527poe    c23 6319   0.290   1.520   4.519 -0.3305  0.4114 -0.3565
  527poe     o2 6320   0.388   1.527   4.418 -0.2968  0.5468 -0.3143
  527poe    c23 6321   0.353   1.632   4.330  0.0345  0.6055 -0.3778
  527poe    c23 6322   0.464   1.638   4.224  0.5961 -0.1642  0.1527
  527poe     o2 6323   0.470   1.511   4.164  0.5940 -0.0262 -0.1460
  527poe    c31 6324   0.528   1.513   4.036 -0.3029  0.2555 -0.5602
  528poe    c31 6325   3.938   5.867   6.503 -0.2431  0.0653 -0.5869
  528poe     o2 6326   3.998   5.877   6.376 -0.1894  0.0193 -0.5648
  528poe    c23 6327   3.899   5.847   6.280  0.1964 -0.3959 -0.8392
  528poe    c23 6328   3.956   5.865   6.139 -0.0543  0.7124 -0.8075
  528poe     o2 6329   4.082   5.804   6.153 -0.4167  0.1596  0.0546
  528poe    c23 6330   4.160   5.837   6.041  0.1262 -0.0288  0.3747
  528poe    c23 6331   4.309   5.825   6.078  0.0970 -0.1647  0.4479
  528poe     o2 6332   4.311   5.861   6.214 -0.3465  0.9283  0.1744
  528poe    c23 6333   4.433   5.901   6.273 -0.1436  0.0315  0.3760
  528poe    c23 6334   4.377   5.947   6.409 -0.1275  0.0683  0.3700
  528poe     o2 6335   4.279   5.859   6.458  0.3546 -0.4429  0.4311
  528poe    c31 6336   4.311   5.833   6.593  0.0987  0.2388  0.6235
  529poe    c31 6337   6.169   3.666   3.265 -0.2554  0.8478 -0.4303
  529poe     o2 6338   6.074   3.566   3.236  0.1151  0.2992  0.2216
  529poe    c23 6339   6.039   3.507   3.359 -0.4738  0.4605  0.1359
  529poe    c23 6340   5.895   3.458   3.333 -0.3099 -0.4421  0.8604
  529poe     o2 6341   5.918   3.371   3.224 -0.5996  0.0181  0.4259
  529poe    c23 6342   5.810   3.311   3.156 -0.2093  0.1876 -0.3533
  529poe    c23 6343   5.882   3.223   3.052 -0.5562  0.4942 -0.8564
  529poe     o2 6344   5.989   3.299   3.002 -0.0689 -0.0631 -0.6674
  529poe    c23 6345   6.104   3.225   2.968  0.3154  0.0945  0.2433
  529poe    c23 6346   6.217   3.325   2.937  0.1264  0.1744 -0.1955
  529poe     o2 6347   6.209   3.430   3.032 -0.0481 -0.1075  0.1029
  529poe    c31 6348   6.332   3.496   3.013  0.0959 -0.4984 -0.3707
  530poe    c31 6349   0.376   4.692   5.464 -0.4523  0.2339  0.4236
  530poe     o2 6350   0.449   4.581   5.512  0.3055  0.2661 -0.6139
  530poe    c23 6351   0.385   4.460   5.479  0.9749 -0.1555 -0.3948
  530poe    c23 6352   0.452   4.344   5.554  0.3896 -0.3937 -0.2311
  530poe     o2 6353   0.591   4.371   5.556  0.4666 -0.7159 -0.8223
  530poe    c23 6354   0.660   4.315   5.666 -0.0210 -0.2389 -0.2643
  530poe    c23 6355   0.648   4.409   5.788  0.1572  0.0405 -0.4607
  530poe     o2 6356   0.693   4.537   5.751  0.2014  0.2021  0.1447
  530poe    c23 6357   0.662   4.635   5.847  0.9949  0.3333  0.2767
  530poe    c23 6358   0.686   4.776   5.789 -0.3100  0.6114  0.3781
  530poe     o2 6359   0.630   4.762   5.660 -0.1024  0.1942  0.3307
  530poe    c31 6360   0.649   4.879   5.583 -0.4146 -0.0236 -0.0831
  531poe    c31 6361   3.788   3.494   0.731 -0.0567 -0.1363 -0.0375
  531poe     o2 6362   3.738   3.610   0.669 -0.3029 -0.1172  0.1957
  531poe    c23 6363   3.602   3.626   0.699 -0.1520 -0.2382  0.9577
  531poe    c23 6364   3.535   3.744   0.626  0.2488 -0.3788  0.3643
  531poe     o2 6365   3.642   3.837   0.627  0.2776 -0.4094  0.1815
  531poe    c23 6366   3.613   3.967   0.581  0.4157 -0.3780  0.1836
  531poe    c23 6367   3.753   4.027   0.602  0.4977 -0.6685  0.4825
  531poe     o2 6368   3.839   3.931   0.545  0.1414 -0.5098 -0.3430
  531poe    c23 6369   3.972   3.977   0.538 -0.0985  0.2722  0.0497
  531poe    c23 6370   4.056   3.848   0.521 -0.6574 -0.0249 -0.5077
  531poe     o2 6371   4.027   3.757   0.625 -0.1910  0.2068 -0.1725
  531poe    c31 6372   4.118   3.649   0.626 -0.3658  0.0599 -0.1064
  532poe    c31 6373   0.726   5.200   2.836 -0.3771 -0.3325  0.5187
  532poe     o2 6374   0.820   5.252   2.927 -0.3027 -0.0963  0.3063
  532poe    c23 6375   0.834   5.389   2.897  0.6294 -0.2229  0.1342
  532poe    c23 6376   0.958   5.452   2.964  0.3121 -0.5203  1.0108
  532poe     o2 6377   1.060   5.356   2.977  0.5036 -0.5046 -0.2385
  532poe    c23 6378   1.171   5.430   3.025 -0.0183  0.0078  0.1862
  532poe    c23 6379   1.294   5.339   3.008 -0.0646 -0.1033  0.4421
  532poe     o2 6380   1.238   5.211   3.029  0.4258 -0.4322 -0.2393
  532poe    c23 6381   1.325   5.104   2.999 -0.0651 -0.8481 -0.1775
  532poe    c23 6382   1.243   4.973   2.996  0.0616 -0.9155 -0.6765
  532poe     o2 6383   1.112   5.009   2.960  0.0852 -0.4115 -0.2628
  532poe    c31 6384   1.041   4.895   2.918  0.2675 -0.6402  0.0566
  533poe    c31 6385   4.816   0.925   1.714  0.1421  0.8603 -0.4707
  533poe     o2 6386   4.895   0.819   1.762 -0.1651  0.3466 -1.0851
  533poe    c23 6387   4.849   0.691   1.723 -0.0813  0.0887 -0.3634
  533poe    c23 6388   4.976   0.605   1.728 -0.3203 -0.2407  0.1026
  533poe     o2 6389   5.037   0.632   1.852 -0.2081  0.1999 -0.0468
  533poe    c23 6390   5.144   0.549   1.891 -0.0351  0.1671 -0.5918
  533poe    c23 6391   5.265   0.642   1.866  0.1073 -0.0522 -0.7302
  533poe     o2 6392   5.229   0.767   1.921  0.1357 -0.4251  0.1516
  533poe    c23 6393   5.327   0.865   1.895  0.1758 -0.5093 -0.0166
  533poe    c23 6394   5.264   1.003   1.919  0.3358 -0.4199 -0.1048
  533poe     o2 6395   5.141   1.005   1.849 -0.0451 -0.1871  0.5590
  533poe    c31 6396   5.068   1.119   1.888  0.1149 -0.1016  0.6118
  534poe    c31 6397   5.692   1.496   3.722  0.1748 -0.3049  0.0851
  534poe     o2 6398   5.669   1.360   3.694 -0.9001 -0.1940  0.3825
  534poe    c23 6399   5.676   1.328   3.556  0.2122 -0.4921  0.5010
  534poe    c23 6400   5.626   1.187   3.518  0.5404 -0.3301 -0.5356
  534poe     o2 6401   5.670   1.100   3.620  0.4563 -0.2683 -0.4472
  534poe    c23 6402   5.776   1.019   3.576  0.6255 -0.0718 -0.4066
  534poe    c23 6403   5.849   0.963   3.699 -0.9547 -0.5343  0.3455
  534poe     o2 6404   5.805   1.047   3.804  0.3865  0.1753  0.3658
  534poe    c23 6405   5.849   1.015   3.934 -0.2922 -1.0703  0.3035
  534poe    c23 6406   5.754   1.085   4.033 -0.0751  0.0168 -0.2467
  534poe     o2 6407   5.742   1.215   3.979 -0.2599  0.1790  0.1792
  534poe    c31 6408   5.706   1.305   4.082 -0.3696  0.1572  0.1592
  535poe    c31 6409   2.288   4.832   4.093 -0.4374  0.1807 -0.2568
  535poe     o2 6410   2.244   4.869   4.222 -0.0230 -0.2047  0.0040
  535poe    c23 6411   2.352   4.921   4.295 -0.2529 -0.1198  0.2855
  535poe    c23 6412   2.290   5.016   4.399  0.5884 -0.0399  0.7229
  535poe     o2 6413   2.167   4.954   4.425  0.4688 -0.0087  0.2467
  535poe    c23 6414   2.097   5.009   4.535  0.0286 -0.0332 -0.0207
  535poe    c23 6415   2.009   4.895   4.589  0.0342  0.0627  0.1892
  535poe     o2 6416   1.948   4.833   4.478 -0.1741 -0.2489  0.4757
  535poe    c23 6417   1.901   4.704   4.510 -0.4022 -0.2517  0.1363
  535poe    c23 6418   1.884   4.625   4.379  0.7377 -0.4584  0.1011
  535poe     o2 6419   1.999   4.661   4.306  0.6406 -0.2403  0.0548
  535poe    c31 6420   2.019   4.581   4.191 -0.0753  0.4021 -0.5331
  536poe    c31 6421   5.217   0.336   4.315  0.0943  0.8360  0.2083
  536poe     o2 6422   5.206   0.475   4.333  0.3984  0.7867  0.7902
  536poe    c23 6423   5.290   0.544   4.243 -0.4208  0.1564 -0.4850
  536poe    c23 6424   5.258   0.694   4.240 -0.3095  0.1922  0.0385
  536poe     o2 6425   5.240   0.730   4.376  0.4540 -0.2092  0.2505
  536poe    c23 6426   5.162   0.846   4.393  0.6854 -0.0038 -0.0829
  536poe    c23 6427   5.168   0.868   4.545  0.3176  0.4152 -0.1259
  536poe     o2 6428   5.130   0.742   4.597  0.8917  0.1666 -0.3044
  536poe    c23 6429   5.184   0.726   4.726  0.5952  0.3259 -0.1596
  536poe    c23 6430   5.208   0.575   4.748 -0.5030  0.1515 -0.0851
  536poe     o2 6431   5.271   0.527   4.631 -0.1334  0.1800  0.1014
  536poe    c31 6432   5.357   0.422   4.668 -0.2388 -0.0193 -0.2177
  537poe    c31 6433   5.650   2.142   3.337 -0.6676 -0.1883  0.5247
  537poe     o2 6434   5.573   2.028   3.367 -0.5472 -0.5788 -0.6160
  537poe    c23 6435   5.668   1.929   3.399 -0.5695 -0.1297  0.9170
  537poe    c23 6436   5.616   1.791   3.444 -0.1223 -0.6083 -0.0033
  537poe     o2 6437   5.572   1.801   3.577  0.4377 -0.1671  0.1536
  537poe    c23 6438   5.434   1.776   3.592  0.3032  0.3649 -0.1767
  537poe    c23 6439   5.357   1.896   3.652  0.1595  0.0209  0.3337
  537poe     o2 6440   5.342   2.004   3.563  0.3914 -0.4348 -0.2679
  537poe    c23 6441   5.241   2.097   3.595  0.3969 -0.5621  0.1145
  537poe    c23 6442   5.280   2.229   3.527 -0.0173 -0.4111  0.1650
  537poe     o2 6443   5.306   2.175   3.399 -0.3541 -0.1611 -0.0089
  537poe    c31 6444   5.292   2.277   3.302 -0.1137  0.1418  0.2717
  538poe    c31 6445   0.422   1.228   5.730  0.0796 -0.0525  0.4263
  538poe     o2 6446   0.394   1.144   5.839 -0.1484 -0.6349 -0.0765
  538poe    c23 6447   0.487   1.040   5.860  0.4016 -0.1461 -0.0941
  538poe    c23 6448   0.427   0.914   5.923  0.0368 -0.0219 -0.1937
  538poe     o2 6449   0.329   0.972   6.006 -0.1110 -0.2229 -0.2249
  538poe    c23 6450   0.222   0.886   6.037 -0.3364  0.1677  0.0935
  538poe    c23 6451   0.103   0.932   5.951 -0.4636 -0.3978 -0.0407
  538poe     o2 6452   0.120   1.070   5.924 -0.0051 -0.2766  0.8400
  538poe    c23 6453   0.000   1.143   5.912  0.2216 -0.0002  0.2252
  538poe    c23 6454   0.027   1.286   5.862  0.1469 -0.2861 -0.6458
  538poe     o2 6455   0.127   1.343   5.944 -0.3419 -0.1186 -0.1592
  538poe    c31 6456   0.117   1.484   5.939  0.3810 -0.0221  0.8247
  539poe    c31 6457   0.642   0.348   6.004 -0.3555  0.0991  0.3755
  539poe     o2 6458   0.591   0.246   5.921  0.0120  0.1122  0.1299
  539poe    c23 6459   0.688   0.152   5.882 -0.4396 -0.4952  0.4501
  539poe    c23 6460   0.610   0.057   5.790 -0.7981 -0.4706  0.7265
  539poe     o2 6461   0.495   0.019   5.861 -0.7549 -0.7547  0.6454
  539poe    c23 6462   0.406  -0.061   5.785 -0.9739  0.4951 -0.4566
  539poe    c23 6463   0.278  -0.084   5.867 -0.0200  0.0703  0.9422
  539poe     o2 6464   0.237   0.049   5.886  0.8540  0.4367  0.3380
  539poe    c23 6465   0.147   0.054   5.994  0.3051 -0.1255 -0.0842
  539poe    c23 6466   0.159   0.193   6.059  0.0815 -0.0681 -0.1653
  539poe     o2 6467   0.290   0.245   6.051 -0.1011  0.3591 -0.4035
  539poe    c31 6468   0.298   0.352   6.143 -0.4996 -0.1479  0.2241
  540poe    c31 6469   3.958   6.672   3.118  0.8884  0.2120  0.5709
  540poe     o2 6470   3.882   6.720   3.227 -0.2741  0.3910 -0.2954
  540poe    c23 6471   3.934   6.681   3.352 -0.3062  0.1612 -0.3544
  540poe    c23 6472   3.922   6.805   3.443 -0.0319  0.1345 -0.2828
  540poe     o2 6473   3.798   6.861   3.409 -0.1084 -0.1246 -0.4351
  540poe    c23 6474   3.776   6.996   3.445 -0.1971 -0.2150 -0.1490
  540poe    c23 6475   3.636   7.044   3.404 -0.2856 -0.0656  0.3149
  540poe     o2 6476   3.628   6.986   3.275 -0.0849  0.1692  0.1977
  540poe    c23 6477   3.495   6.946   3.255 -0.1226  0.3647  0.0524
  540poe    c23 6478   3.493   6.860   3.127 -0.0786 -0.4237  0.5718
  540poe     o2 6479   3.617   6.796   3.105 -0.2005 -0.4387 -0.1058
  540poe    c31 6480   3.605   6.718   2.989  0.1159 -1.4525  0.5339
  541lim     li 6481   6.543   2.966   5.187  0.0589  0.2217 -0.2289
  542lim     li 6482   6.633   1.478   3.560  0.2577  0.6055  0.2558
  543lim     li 6483   0.601   1.886   5.812  1.1336  0.7673  0.4250
  544lim     li 6484   2.283   6.393   6.467 -0.5340  0.6890 -0.3079
  545lim     li 6485   2.233   5.579   5.432 -0.9768  1.3899 -0.1065
  546lim     li 6486   0.332   2.074   1.590 -0.0180 -0.4747 -0.6942
  547lim     li 6487   2.362   1.717   2.231 -0.2573  0.4491  0.3550
  548lim     li 6488   6.239   4.649   3.950  0.3048 -0.4444 -0.1921
  549lim     li 6489   0.451   5.355   0.734 -0.2928 -0.2510 -0.3488
  550lim     li 6490   5.441   6.015   2.763  0.7642  0.4792  0.1131
  551lim     li 6491   4.126   6.413   0.040 -0.6166  0.7219 -0.7266
  552lim     li 6492   2.312   0.590   6.184  0.4217 -0.6129 -0.1259
  553lim     li 6493   5.700   4.035   3.557 -0.5851  0.4783 -0.9088
  554lim     li 6494   2.145   2.924   1.882 -0.5124  0.8083  0.1761
  555lim     li 6495   2.964   5.149   2.924 -0.2240 -1.1546  1.4429
  556lim     li 6496   4.170   0.366   1.605 -0.1871 -0.2085 -1.6799
  557lim     li 6497   5.835   0.155   2.074 -0.3356  0.1169 -0.2803
  558lim     li 6498   2.037   4.615   3.565  0.9885  0.9879 -0.2582
  559lim     li 6499   2.894   4.827   2.083  0.1599 -0.2580 -0.6595
  560lim     li 6500   1.278   4.522   5.948  0.4762  0.6486  1.4675
  561lim     li 6501   5.798   2.255   4.012  0.3971  0.7140  0.8390
  562lim     li 6502   6.556   0.663   5.550  0.0231 -0.1000  0.7336
  563lim     li 6503   1.641   1.587   2.591 -0.7196 -0.1154  0.6863
  564lim     li 6504   0.417   3.463   2.941 -0.5278 -0.3763  0.4829
  565lim     li 6505   4.578   5.752   5.524 -0.2526  0.9472  0.9421
  566lim     li 6506   3.250   4.292   1.602 -0.4594 -0.9730  0.5575
  567lim     li 6507   0.156   2.221   4.774  0.2466  0.1890 -0.5396
  568lim     li 6508   3.614   3.848   1.703 -0.2687  0.9493  2.2197
  569lim     li 6509   5.529   4.449   4.406  1.1786 -0.0013  0.1184
  570lim     li 6510   2.156   3.666   4.693  0.4754 -0.3242 -0.1667
  571lim     li 6511   5.773   4.982   3.477  0.0008 -0.3229  0.0531
  572lim     li 6512   0.934   2.534   4.464 -0.3840  0.0135 -0.3562
  573lim     li 6513   4.276   3.560   5.778 -0.5149  0.0714  0.1315
  574lim     li 6514   0.139   0.642   3.613 -0.0479 -0.3109 -0.2883
  575lim     li 6515   3.136   4.332   4.561 -0.6130 -0.3642  0.6688
  576lim     li 6516   5.989   3.164   1.847 -0.8894 -1.7831 -0.5471
  577lim     li 6517   6.522   4.711   1.047 -0.4433 -0.6497  0.9693
  578lim     li 6518   2.254   5.749   4.878  0.4755 -0.1433 -0.4193
  579lim     li 6519   2.115   3.384   0.622 -0.4468  0.0839  0.5555
  580lim     li 6520   5.724   2.915   4.871  0.2339  0.5871 -0.3990
  581lim     li 6521   3.816   0.810   6.530 -0.6546  0.7704 -1.5112
  582lim     li 6522   5.988   5.974   5.962  0.1051 -0.1822 -0.5461
  583lim     li 6523   5.576   5.648   1.142 -0.1035 -1.6692 -0.3525
  584lim     li 6524   0.833   6.312   6.203 -0.8667 -0.5631 -0.3675
  585lim     li 6525   5.264   2.155   6.123 -0.0885  0.2119 -0.6793
  586lim     li 6526   1.967   2.096   1.723 -0.0766  0.3446  0.2697
  587lim     li 6527   2.163   3.541   3.587  0.1860  0.2502  0.1639
  588lim     li 6528   0.609   5.293   6.390 -0.3397 -0.2261  0.7441
  589lim     li 6529   4.049   0.918   1.315  0.3933  0.6191 -0.4130
  590lim     li 6530   2.672   2.403   2.310 -0.0195 -1.5566  0.1126
  591lim     li 6531   3.425   3.427   6.593  0.5841 -0.1188 -0.5409
  592lim     li 6532   3.220   3.197   5.519  0.3112  0.5469 -0.5790
  593lim     li 6533   0.559   4.682   1.528 -0.4875 -1.8366  0.1820
  594lim     li 6534   5.628   2.773   5.796 -1.1130 -0.3943 -0.3786
  595lim     li 6535   2.547   1.253   1.677  0.1844  0.0836  0.4774
  596lim     li 6536   0.339   4.534   4.816 -0.2700  0.5618  1.5097
  597lim     li 6537   1.548   6.414   6.666 -0.1199 -0.0817 -0.0457
  598lim     li 6538   1.496   5.981   2.647  1.0601  0.4758  0.5394
  599lim     li 6539   4.258   5.402   0.573 -0.5361  0.6400 -0.4506
  600lim     li 6540   0.605   2.434   5.667  0.4127  0.4737 -0.4084
  601lim     li 6541   5.718   3.831   4.248  0.4806 -1.0944  0.8196
  602lim     li 6542   0.597   0.184   0.262  0.6768 -0.0643 -1.2300
  603lim     li 6543   6.045   3.464   3.093  0.3859  0.1751 -0.8206
  604lim     li 6544   1.022   5.093   1.607  0.3800  1.2639  1.9434
  605lim     li 6545   5.899   2.854   2.521  0.1462 -0.4554  0.4405
  606lim     li 6546   4.321   1.318   2.134 -0.1646 -1.4927  0.1053
  607lim     li 6547   2.991   6.717   2.660 -0.2186 -0.4186 -0.0465
  608lim     li 6548   6.701   5.117   5.824 -1.0626  0.3351  0.1186
  609lim     li 6549   5.035   4.525   3.665  0.6769 -0.3859 -0.3301
  610lim     li 6550   0.751   2.636   3.351 -0.7683 -0.6191  0.0314
  611lim     li 6551   4.643   2.322   6.507 -0.5638  0.5339 -0.5210
  612lim     li 6552   2.412   0.492   2.260  0.1299 -0.7233  0.2296
  613lim     li 6553   2.961   1.287   6.439 -0.2287 -0.1762  0.6066
  614lim     li 6554   1.349   6.283   1.299  0.3142 -0.3049 -0.1205
  615lim     li 6555   4.691   6.489   5.567  0.2618  0.5640  0.1411
  616lim     li 6556   4.392   5.670   3.069  0.5414  0.8046 -0.4535
  617lim     li 6557   5.847   6.540   3.071 -0.9299 -1.2096 -0.2379
  618lim     li 6558   0.457   1.346   1.907  0.2555  0.1902  0.5830
  619lim     li 6559   3.768   0.093   2.449  0.6332 -0.3143 -0.0255
  620lim     li 6560   2.558   4.675   1.124  0.4963  0.7438  1.2259
  621lim     li 6561   2.502   2.455   5.924  0.0186 -0.4666  0.4926
  622lim     li 6562   3.425   5.751   4.434  0.0741 -0.1822 -0.0529
  623lim     li 6563   6.683   6.105   3.467 -0.1000  0.1655  0.8364
  624lim     li 6564   5.509   3.038   3.609  1.4287 -0.5589  0.0906
  625lim     li 6565   4.325   6.128   3.682  1.3537  0.6939  0.1595
  626lim     li 6566   4.210   2.132   5.756 -1.0327 -0.2594  0.1177
  627lim     li 6567   1.664   1.158   1.618 -0.8956  0.8599 -0.7174
  628lim     li 6568   4.689   2.067   1.055 -1.6553 -0.3326 -0.0359
  629lim     li 6569   1.282   4.754   4.199 -0.1048 -0.3223  0.6168
  630lim     li 6570   2.751   2.410   1.538  0.1384 -0.9771 -0.4422
  631lim     li 6571   4.058   6.419   5.217 -0.2175 -0.7785 -0.4974
  632lim     li 6572   3.515   0.762   4.059 -1.1368 -0.0038  0.5680
  633lim     li 6573   0.909   6.234   2.650  0.0095  0.3330 -0.2022
  634lim     li 6574   1.508   1.668   0.774  0.4208 -0.2234 -0.5585
  635lim     li 6575   2.010   6.539   0.765  0.3726 -0.0320  0.4853
  636lim     li 6576   1.934   4.806   0.692 -1.1480 -0.2167  0.0746
  637lim     li 6577   4.325   4.627   1.577  0.5693 -0.0144 -0.2932
  638lim     li 6578   1.687   1.799   5.331 -0.3515  0.0382 -0.8290
  639lim     li 6579   3.979   0.994   3.658  1.0691  0.4058  0.5128
  640lim     li 6580   3.728   2.890   5.880  0.2190 -0.1799  0.0065
  641lim     li 6581   0.174   2.161   3.211  1.1343 -0.3945  0.1636
  642lim     li 6582   6.498   5.450   6.577  0.7191  0.8538  0.8926
  643lim     li 6583   4.166   0.488   4.711 -0.1421  0.5019  0.1960
  644lim     li 6584   2.919   1.081   0.221 -0.7367  0.6686 -0.1824
  645lim     li 6585   3.758   4.707   4.552 -0.2004  0.6737 -0.8161
  646lim     li 6586   4.534   3.117   3.533 -0.1561  0.4965 -1.1953
  647lim     li 6587   4.333   1.354   0.058  0.3562 -0.7075  0.0553
  648lim     li 6588   0.025   2.956   2.651 -1.0036 -0.2401  0.9212
  649lim     li 6589   3.646   4.183   6.707  0.0768  0.0652  0.2355
  650lim     li 6590   0.158   3.328   1.581  0.1748 -0.7531 -1.7724
  651lim     li 6591   5.446   2.320   1.844 -0.2399  0.8074  0.3261
  652lim     li 6592   0.781   0.648   5.474 -1.3971  0.4690 -0.2401
  653lim     li 6593   2.886   3.297   1.409 -0.0943  0.0750  1.0846
  654lim     li 6594   6.597   3.551   3.626  0.1590  0.9396 -0.4882
  655lim     li 6595   3.971   3.196   2.274  0.1215  0.3473 -1.0754
  656lim     li 6596   6.058   0.249   3.754  0.8764  0.4616  0.0105
  657lim     li 6597   1.231   0.697   0.970  0.7483 -0.1868  0.4338
  658lim     li 6598   3.267   2.006   5.003  0.6486  0.2819 -0.0979
  659lim     li 6599   1.758   6.701   2.297 -0.2837 -0.3055 -1.0476
  660lim     li 6600   0.435   0.297   1.081  0.7891 -0.5623 -0.8352
  661lim     li 6601   4.926   3.018   1.925  0.2644 -0.3254  0.7059
  662lim     li 6602   5.396   2.022   3.391  0.1898  1.1934 -1.3575
  663lim     li 6603   5.088   2.395   2.675 -0.9555  1.3709  0.7723
  664lim     li 6604   6.383   6.322   5.173  0.7012 -0.5623 -0.2771
  665lim     li 6605   0.965   0.570   3.660  0.2222  1.0910  0.6815
  666lim     li 6606   6.455   1.495   2.203  0.0155  0.3812  0.0024
  667lim     li 6607   4.174   5.807   6.317  0.4715 -1.3008 -0.6550
  668lim     li 6608   6.375   2.501   6.169 -0.6365 -1.3784  0.3233
  669lim     li 6609   6.060   4.000   1.138 -0.2018  0.1910 -0.0302
  670lim     li 6610   6.219   5.419   3.112  0.7978  0.5763  0.1098
  671lim     li 6611   1.633   2.268   2.530  0.4966 -0.2424 -0.6329
  672lim     li 6612   4.653   5.872   1.189 -0.3349  0.5625  0.4760
  673lim     li 6613   4.879   2.657   4.195 -0.3218 -0.1513  0.5900
  674lim     li 6614   6.593   3.944   4.150 -0.3406  0.4347 -0.9209
  675lim     li 6615   5.130   6.177   1.733  0.8994  0.6290 -0.0638
  676lim     li 6616   2.845   6.012   5.020  0.3296 -0.6017 -0.2669
  677lim     li 6617   1.458   2.543   6.686 -0.4061  0.0351  0.8964
  678lim     li 6618   4.702   0.414   6.657 -1.0830 -0.4174 -0.9312
  679lim     li 6619   6.516   2.905   3.423  0.3793 -1.4765  0.2602
  680lim     li 6620   2.770   3.787   4.052  0.2280  0.0235 -0.5501
  681lim     li 6621   2.102   2.777   6.386  0.7564 -1.0572 -0.3087
  682lim     li 6622   3.647   2.329   1.367  1.7248  0.0710  0.6812
  683lim     li 6623   1.705   3.510   6.249  0.1711 -0.6641  0.1766
  684lim     li 6624   0.524   6.458   5.185 -0.5210  0.1429  0.6732
  685lim     li 6625   0.745   4.205   2.784  0.2231 -0.0809  1.0029
  686lim     li 6626   1.193   3.055   6.219 -0.1130  0.0101  0.1667
  687lim     li 6627   3.588   3.767   5.099  0.5370  1.3428 -0.7699
  688lim     li 6628   4.708   6.332   4.763  0.8692  0.9138  0.8716
  689lim     li 6629   1.578   3.897   3.911 -0.5543 -1.1707  0.6318
  690lim     li 6630   1.225   1.721   4.095 -0.6495  0.5992 -0.2092
  691lim     li 6631   3.758   0.124   3.221 -0.7687  0.4411  0.4144
  692lim     li 6632   5.994   1.446   0.307  0.0157 -0.1490 -0.4710
  693lim     li 6633   4.577   5.882   2.230 -1.6856 -0.2981 -0.9563
  694lim     li 6634   4.450   0.507   2.916  0.8180  0.2115 -0.1659
  695lim     li 6635   6.474   4.627   0.266 -0.0772  0.8846  0.8064
  696lim     li 6636   2.157   4.666   5.597 -0.2993  0.2380 -0.7790
  697lim     li 6637   4.979   3.569   0.546  0.5194 -0.4514 -0.6657
  698lim     li 6638   2.723   3.932   5.349  0.3573 -1.2706 -0.2875
  699lim     li 6639   4.773   1.036   2.841 -0.8659 -0.9241  0.3404
  700lim     li 6640   5.510   3.507   0.756  0.2288 -0.8006 -0.0999
  701lim     li 6641   2.542   5.719   3.412 -1.3395 -0.6802 -0.1198
  702lim     li 6642   0.287   5.745   2.830  0.0747  0.0368  0.3467
  703lim     li 6643   1.302   6.474   5.434 -0.0705  0.9120 -1.0414
  704lim     li 6644   4.070   1.683   2.547  0.3977  0.4348  0.4321
  705lim     li 6645   1.930   6.709   3.822  0.1472  0.2723  0.2680
  706lim     li 6646   6.167   1.055   1.469  1.9937  0.0451 -0.3284
  707lim     li 6647   5.484   5.548   4.859 -0.7301  0.5036  1.0207
  708lim     li 6648   1.081   0.111   4.473 -0.4084 -0.6371 -0.2769
  709lim     li 6649   1.698   5.991   3.528  0.2538 -1.5683  0.1884
  710lim     li 6650   5.077   3.617   4.017  0.2726 -0.2158  0.8722
  711lim     li 6651   0.150   5.955   4.565  0.1722 -1.2377  0.4145
  712lim     li 6652   3.595   2.423   2.173 -0.7341  1.4546 -0.5980
  713lim     li 6653   0.824   2.094   2.658 -0.6047 -0.9319 -0.0254
  714lim     li 6654   1.746   2.602   1.054  0.0181  0.7993  0.9222
  715lim     li 6655   3.182   1.041   1.870 -0.3477  0.3780  0.0031
  716lim     li 6656   1.238   1.788   1.657 -0.0858  0.9594 -0.0773
  717lim     li 6657   1.163   6.598   3.328 -0.8301  0.0219 -1.5823
  718lim     li 6658   0.691   5.818   1.744  0.6737  0.7703 -0.3337
  719lim     li 6659   4.833   3.081   2.872  0.4082 -0.0065 -0.4261
  720lim     li 6660   5.397   1.840   1.263 -0.1936 -0.6926 -0.3651
  721lim     li 6661   4.403   3.923   1.375  0.2541 -0.2486 -0.6915
  722lim     li 6662   6.044   1.674   6.202  0.0446 -0.5709 -0.5320
  723lim     li 6663   5.506   0.554   3.260  0.4220  0.1292 -0.3864
  724lim     li 6664   0.658   0.224   2.684  0.6923  0.6028 -0.6342
  725lim     li 6665   0.385   3.849   4.993 -0.8301 -0.8327 -0.0813
  726lim     li 6666   1.047   1.577   4.961  0.1543 -0.1205 -0.8373
  727lim     li 6667   6.249   0.910   3.085 -0.1412  0.1988  1.2528
  728lim     li 6668   0.546   1.166   2.606 -0.4375 -0.7859  1.1315
  729lim     li 6669   3.255   1.447   0.931 -0.4391  0.7508 -0.9533
  730lim     li 6670   3.084   3.755   3.279 -1.1157 -0.2870 -0.2056
  731lim     li 6671   6.053   5.637   4.387 -0.4622 -0.0798  0.3796
  732lim     li 6672   0.965   4.900   4.766  0.1323 -0.3606  0.8778
  733lim     li 6673   5.921   5.606   1.937  0.3118  0.2416  0.7481
  734lim     li 6674   4.700   3.784   5.326  0.2010  1.2848  1.3536
  735lim     li 6675   0.915   2.296   1.180 -0.3170  0.5804  0.6091
  736lim     li 6676   2.456   1.665   3.150  0.7535  0.1370 -0.8528
  737lim     li 6677   5.074   5.708   3.528  0.7138  0.3745 -0.6315
  738lim     li 6678   1.348   1.989   3.334 -0.8745  0.4333  0.9719
  739lim     li 6679   0.725   3.500   4.282  0.9533  0.7866 -0.6550
  740lim     li 6680   5.017   5.354   0.102 -0.9208 -0.1146 -0.8018
  741lim     li 6681   3.320   4.559   0.806  0.8229  0.8559 -0.6739
  742lim     li 6682   4.500   4.276   0.684 -0.5943  0.7455  0.4507
  743lim     li 6683   0.196   6.038   0.154 -0.4332 -0.1424 -0.6664
  744lim     li 6684   2.447   0.976   4.737  0.2177 -0.2545  0.3893
  745lim     li 6685   5.932   2.105   2.712 -0.9465  0.2384 -0.9639
  746lim     li 6686   6.371   3.364   4.689 -1.1636  0.2551 -0.0986
  747lim     li 6687   2.144   5.325   1.435 -0.1467 -0.2631  0.3109
  748lim     li 6688   6.365   5.572   0.884  0.8140  0.8820  0.6523
  749lim     li 6689   0.114   0.690   1.387  0.0036  0.2360 -0.3050
  750lim     li 6690   6.692   6.563   1.742  0.1416  0.6535  0.7759
  751lim     li 6691   4.215   2.983   0.438 -0.0164  0.0666 -0.0391
  752lim     li 6692   4.795   1.723   5.379 -0.0773 -0.0121  0.2981
  753lim     li 6693   5.732   3.688   5.342  0.2501 -0.0458  0.2210
  754lim     li 6694   6.079   2.152   2.102  0.0200  0.3740  0.1352
  755lim     li 6695   4.706   1.688   3.518  0.6770  0.3655 -0.9738
  756lim     li 6696   0.200   5.531   3.736  0.9683 -0.3855 -0.1995
  757lim     li 6697   0.391   0.950   0.458 -0.8352 -0.1895  0.9324
  758lim     li 6698   1.752   1.046   0.207 -0.4511 -0.8800 -0.5594
  759lim     li 6699   1.834   2.059   0.099 -0.8422  0.4291 -0.2292
  760lim     li 6700   6.583   3.756   2.288  0.1720 -0.7550 -0.0576
  761lim     li 6701   6.353   1.325   4.131  0.8035  0.3374  0.3838
  762lim     li 6702   1.762   4.318   6.675 -0.0894  0.0666 -0.2849
  763lim     li 6703   6.001   3.669   5.956  0.4130 -0.3716  0.8795
  764lim     li 6704   1.960   0.572   2.785  0.1346  0.8701 -0.9845
  765lim     li 6705   1.372   4.199   1.270 -0.0022  0.0808 -0.0544
  766lim     li 6706   1.932   6.252   5.771  0.5530  1.0598  0.5585
  767lim     li 6707   6.494   4.280   5.010  0.1765  0.2831  0.4011
  768lim     li 6708   0.187   5.945   6.089 -0.1165 -0.5973 -0.1872
  769lim     li 6709   5.546   0.806   2.334  0.4558 -0.0013 -0.4477
  770lim     li 6710   5.205   6.416   3.750  0.7347 -1.0299  0.3938
  771lim     li 6711   4.172   5.243   6.703  0.7514 -0.3306  0.4317
  772lim     li 6712   3.467   6.129   5.622 -0.5259 -0.8717  0.3109
  773lim     li 6713   5.438   1.031   0.022  0.8548 -0.3533 -0.5570
  774lim     li 6714   4.961   4.534   5.648  0.5335  0.0346  0.9436
  775lim     li 6715   3.436   1.784   3.023 -0.2234  0.2442 -0.1536
  776lim     li 6716   0.061   2.201   4.068 -0.5074 -0.4362 -0.3810
  777lim     li 6717   1.400   2.014   6.174  0.0063 -0.7094  0.3266
  778lim     li 6718   5.181   5.801   6.161 -0.8077 -0.6119  0.1651
  779lim     li 6719   4.324   2.052   3.678 -0.4150 -0.8605 -0.9120
  780lim     li 6720   4.842   4.964   4.993  0.2585 -0.6934 -0.8445
  781lim     li 6721   4.902   1.532   6.349  1.2550 -0.2449  1.1576
  782lim     li 6722   4.874   4.456   0.240  0.2118  0.3841 -0.5648
  783lim     li 6723   5.727   4.357   6.587 -0.1849 -0.3807  0.1635
  784lim     li 6724   1.092   1.537   6.647 -0.6221  0.4169  0.8348
  785lim     li 6725   5.310   1.161   1.346  0.8657  0.3681 -0.4802
  786lim     li 6726   0.587   1.469   3.280  0.2546  0.2704  0.5199
  787lim     li 6727   5.167   1.247   5.466 -0.2449 -0.2712  0.5220
  788lim     li 6728   2.100   5.430   3.965 -1.2635 -0.3963  0.0219
  789lim     li 6729   2.806   5.024   5.020  0.1718 -0.3903  0.6729
  790lim     li 6730   4.387   2.426   2.626  0.5769  1.5541 -0.1655
  791lim     li 6731   1.144   4.815   3.572  0.3800 -0.1841 -0.6410
  792lim     li 6732   3.259   6.316   6.418  0.5964 -1.1688 -0.5825
  793lim     li 6733   4.985   1.530   0.522  0.0416  0.5006  0.1063
  794lim     li 6734   4.113   5.407   1.506 -0.5348  0.5201  1.8713
  795lim     li 6735   1.195   1.156   3.098  0.4847 -0.7454  0.0521
  796lim     li 6736   5.008   4.876   6.281 -0.4784 -0.3232  1.0422
  797lim     li 6737   5.471   2.023   5.117  1.4225  0.8004  0.5000
  798lim     li 6738   2.144   6.395   1.547 -0.5591 -0.3082 -0.1165
  799lim     li 6739   3.427   4.677   3.517 -0.6199  0.2362  0.1106
  800lim     li 6740   0.893   3.076   5.171 -0.7265 -0.3851 -0.6521
  801lim     li 6741   4.399   4.041   3.933  0.5380 -0.2195  0.4333
  802lim     li 6742   2.256   0.449   3.422 -0.0016  0.5280  0.0030
  803lim     li 6743   2.546   2.136   0.702  0.5974  0.5888 -0.5857
  804lim     li 6744   3.844   4.430   3.137  0.3157  1.7575 -0.3039
  805lim     li 6745   4.895   0.828   0.791 -0.4113  0.1909  0.3556
  806lim     li 6746   4.897   4.467   2.302  0.5692 -0.3312 -0.6662
  807lim     li 6747   3.143   4.028   5.985  0.1910 -0.0627 -0.9327
  808lim     li 6748   1.928   4.422   4.999 -0.9591  1.0724 -0.1430
  809lim     li 6749   0.262   4.048   0.658 -1.0370 -1.3594 -0.0370
  810lim     li 6750   2.184   6.283   2.985 -0.0466 -0.6049 -1.6310
  811lim     li 6751   3.219   5.580   1.154  1.6086 -0.0451  0.1407
  812lim     li 6752   1.863   5.725   1.930  0.4435  0.1760  0.1949
  813lim     li 6753   4.967   3.213   4.600  0.0430  0.1703  0.0790
  814lim     li 6754   0.717   3.036   3.807  0.9547 -0.7312 -1.3368
  815lim     li 6755   4.553   5.414   4.674  0.5014  0.7634 -0.0594
  816lim     li 6756   2.063   2.467   4.910 -0.3981  0.7043  0.0356
  817lim     li 6757   0.304   6.196   1.254 -0.2755  0.2279  1.5031
  818lim     li 6758   0.382   2.693   6.470  0.3649 -0.4802 -0.2684
  819lim     li 6759   1.326   4.326   2.295 -0.1221 -0.0715 -0.4050
  820lim     li 6760   0.455   1.401   4.295  0.8334 -0.6377 -0.7579
  821lim     li 6761   2.036   4.151   2.711 -0.5150 -1.4540 -0.1330
  822lim     li 6762   3.434   4.937   0.278  0.8163 -0.8372  0.8128
  823lim     li 6763   4.318   1.143   5.970  0.1833 -0.3615 -0.9452
  824lim     li 6764   2.888   0.905   5.618  1.0386  0.2448 -0.0674
  825lim     li 6765   5.509   4.404   2.909 -0.4811 -1.2008 -0.8871
  826lim     li 6766   4.989   3.181   5.738  0.7289  0.0370 -0.3933
  827lim     li 6767   0.398   0.178   5.917 -0.3910 -0.1884 -0.8304
  828lim     li 6768   1.504   0.432   4.848  0.4008 -0.3186 -0.2234
  829lim     li 6769   0.918   4.741   0.206  0.5467 -0.9137 -2.1940
  830lim     li 6770   1.068   4.153   0.659  0.0816  0.6809 -0.4182
  831lim     li 6771   6.324   6.407   2.426  0.0021 -0.3701  0.6290
  832lim     li 6772   2.826   0.055   5.785  0.0967  0.7845  0.1747
  833lim     li 6773   5.372   6.602   6.249  1.4560  0.7632 -0.6961
  834lim     li 6774   4.925   6.663   1.187  0.5770  0.1708  0.9100
  835lim     li 6775   3.408   2.091   5.446  0.3967 -0.5593  0.1517
  836lim     li 6776   3.451   6.099   2.975 -0.1823 -0.3689  0.0418
  837lim     li 6777   6.063   4.650   2.316 -0.2907 -1.9242 -0.7592
  838lim     li 6778   3.194   0.168   1.424 -0.2057 -0.1836  0.0043
  839lim     li 6779   2.071   6.621   4.538  0.9552 -0.8855  0.8465
  840lim     li 6780   2.920   0.343   6.563  0.2034  0.1260  0.3264
  841lim     li 6781   0.595   6.529   4.000 -1.7364  0.0934 -0.2878
  842lim     li 6782   3.004   5.534   6.189 -0.7041 -0.2947 -0.4622
  843lim     li 6783   4.033   0.031   6.012  0.1659  0.1106 -0.5272
  844lim     li 6784   0.615   4.579   5.580 -0.6321 -0.1655 -0.3149
  845lim     li 6785   0.331   5.193   4.409 -1.8569 -0.3132 -0.4513
  846lim     li 6786   1.449   5.171   2.480 -0.6900 -0.6832 -0.5755
  847lim     li 6787   2.068   5.618   5.974 -0.8781  0.7444 -0.5605
  848lim     li 6788   6.083   3.083   6.538  0.2416 -0.0930  0.5562
  849lim     li 6789   0.389   3.193   5.692  0.6755 -0.2850 -0.3510
  850lim     li 6790   0.327   0.364   4.868 -0.4581 -0.0261  0.2664
  851lim     li 6791   1.747   4.644   1.641 -0.7810 -1.6961  0.2466
  852lim     li 6792   2.084   4.825   4.322 -1.0356 -0.1834  0.4056
  853lim     li 6793   3.407   6.479   4.062  0.9977  0.3855 -0.5520
  854lim     li 6794   3.120   0.707   1.127 -0.1949  0.1590 -0.5898
  855lim     li 6795   5.732   0.380   0.100 -1.4367  1.0682  0.5118
  856lim     li 6796   2.790   2.118   6.622 -0.0277  0.8638 -0.5541
  857lim     li 6797   5.075   4.933   1.105  0.5554  0.7674 -0.1609
  858lim     li 6798   0.692   0.065   1.841 -0.4226  0.6474  0.4959
  859lim     li 6799   5.609   3.990   2.237  1.2954  0.0584  0.2362
  860lim     li 6800   5.421   6.485   4.548 -0.4817  0.5330 -1.5986
  861lim     li 6801   4.678   6.564   2.819  1.0388 -0.2162 -0.7761
  862lim     li 6802   3.706   1.596   4.262 -0.2978 -0.0845 -0.0941
  863lim     li 6803   1.900   1.531   6.108  0.2078  0.6304 -0.2625
  864lim     li 6804   5.061   0.824   1.877  0.4104 -0.6554  0.2345
  865lim     li 6805   1.717   0.847   4.239  0.6037 -0.7707  0.0303
  866lim     li 6806   1.358   3.884   4.769  1.0275  0.9672 -0.6266
  867lim     li 6807   0.699   3.988   1.882  0.1344  0.6905 -0.3994
  868lim     li 6808   2.609   3.426   6.372 -0.2647 -0.8786  0.0269
  869lim     li 6809   5.335   3.462   2.754 -0.2643  0.0596  0.1042
  870lim     li 6810   6.662   5.594   1.553  0.1611  0.2179  0.6017
  871lim     li 6811   5.507   5.288   5.613 -0.1365 -1.2774 -0.2776
  872lim     li 6812   6.637   4.216   1.791  0.3924  0.0335  0.8021
  873lim     li 6813   6.289   3.188   4.027  0.4963 -0.4397 -0.0811
  874lim     li 6814   3.025   3.325   4.394 -0.5724  1.5407 -0.8718
  875lim     li 6815   2.818   1.165   2.653 -0.6612 -1.1156 -0.4007
  876lim     li 6816   1.784   3.655   2.118  1.5363 -0.2482  0.4082
  877lim     li 6817   2.436   1.608   5.826  0.5495  0.2770 -1.1139
  878lim     li 6818   6.591   0.492   6.690  0.5263  0.5495  0.5841
  879lim     li 6819   5.561   0.323   1.317  0.5704  0.5105 -0.6346
  880lim     li 6820   3.004   3.245   2.328  0.8893 -0.0433  0.6115
  881lim     li 6821   5.188   6.559   0.394  0.3282  0.2336  0.3986
  882lim     li 6822   0.854   3.177   0.489  0.0732  0.7218  0.4041
  883lim     li 6823   6.536   6.616   0.680 -0.2363 -0.4630 -0.2963
  884lim     li 6824   3.173   0.129   0.546  1.2987 -1.0530  0.2326
  885lim     li 6825   4.267   4.973   5.821 -1.1843 -0.3020 -0.2811
  886lim     li 6826   5.956   1.724   1.007  0.6505  0.7980 -1.0449
  887lim     li 6827   2.833   5.729   3.928 -0.0988  1.2424  0.4313
  888lim     li 6828   6.236   6.526   6.267 -0.0744  0.1954  0.1982
  889lim     li 6829   2.917   0.480   4.556  0.4738 -0.1353  0.0891
  890lim     li 6830   3.095   4.811   5.728 -0.8905  0.0462  0.8355
  891lim     li 6831   5.114   1.558   2.228 -0.4778 -0.9534  0.0609
  892lim     li 6832   3.790   5.099   2.697 -0.1444 -1.0017  0.3465
  893lim     li 6833   2.637   4.352   6.542  0.1857 -0.1711 -0.9314
  894lim     li 6834   3.012   4.836   4.117 -1.4429  0.2276 -0.6443
  895lim     li 6835   4.663   0.254   3.749  1.2350  0.5730 -0.1897
  896lim     li 6836   4.107   3.414   4.582 -0.9905 -0.6661  0.3759
  897lim     li 6837   2.702   5.941   2.460  0.9623 -0.0859  0.8112
  898lim     li 6838   5.403   0.713   5.873  0.3946  0.1289  0.9712
  899lim     li 6839   3.835   3.249   3.262 -0.3315 -0.2911 -0.3787
  900lim     li 6840   4.717   4.790   3.044 -0.3810  0.1227 -0.4536
  901lim     li 6841   3.108   1.650   1.713  0.4552 -0.0528 -0.9193
  902lim     li 6842   6.164   5.135   4.831  0.1283 -0.1218 -0.7676
  903lim     li 6843   6.241   4.669   5.789 -0.2706 -1.0944 -0.1434
  904lim     li 6844   1.355   3.344   0.331  0.0273 -0.0869 -1.2504
  905lim     li 6845   0.238   4.845   3.258  0.2544 -0.8077 -0.6758
  906lim     li 6846   4.972   6.132   0.294 -0.0563  0.3646  0.8770
  907lim     li 6847   1.108   3.827   5.627  1.1194  0.6475  1.5687
  908lim     li 6848   0.966   5.735   4.892 -0.2349 -0.4156 -0.0900
  909lim     li 6849   2.310   5.144   2.808 -0.0945 -0.0604 -0.3787
  910lim     li 6850   3.115   3.704   0.612 -0.1648  1.3778 -0.8282
  911lim     li 6851   2.825   6.241   1.000  0.6945 -1.3248  0.6627
  912lim     li 6852   1.702   2.109   4.416 -0.6178 -0.1806  0.4018
  913lim     li 6853   6.234   2.297   1.357 -1.5049 -1.3998 -0.2425
  914lim     li 6854   0.122   5.558   5.401 -0.1681  0.2503  0.5809
  915lim     li 6855   2.600   2.544   4.223 -0.5020 -0.0391 -0.4184
  916lim     li 6856   5.256   3.211   6.696  0.1144  0.8446  0.7063
  917lim     li 6857   6.200   2.487   0.356 -0.1249  0.5442  0.9657
  918lim     li 6858   2.027   5.637   0.558 -0.2866 -0.8931 -0.0373
  919lim     li 6859   5.646   4.610   0.643  0.2419 -0.0478  0.1114
  920lim     li 6860   3.988   2.744   4.062  0.0786  0.3728 -0.5658
  921lim     li 6861   1.561   0.197   0.272  1.2377 -0.5594 -0.4729
  922lim     li 6862   4.420   2.789   5.104 -0.6822 -0.3439 -0.8657
  923lim     li 6863   3.672   5.038   6.122  0.4014  0.7437 -0.6747
  924lim     li 6864   1.834   0.995   5.275  0.0080 -0.5142  0.8668
  925lim     li 6865   1.746   1.233   3.383 -0.0192 -0.4594 -1.4059
  926lim     li 6866   6.127   2.515   3.223 -0.0746  0.3754 -0.1965
  927lim     li 6867   1.430   0.392   5.862 -0.4628 -0.3142 -0.2176
  928lim     li 6868   4.181   1.724   1.180  0.2152 -0.0798 -0.3675
  929lim     li 6869   2.480   5.649   6.473  0.1653 -0.0552  0.6888
  930lim     li 6870   4.026   3.054   1.529  0.4812  0.4796  0.1206
  931lim     li 6871   5.123   3.982   6.203 -0.4864 -0.5791  0.5425
  932lim     li 6872   3.309   5.409   1.915  0.2229 -0.6443 -0.3298
  933lim     li 6873   4.193   6.317   4.439  0.6036 -1.2179 -0.8284
  934lim     li 6874   3.449   1.843   0.576  0.3799  0.5086 -0.7463
  935lim     li 6875   6.537   6.491   4.161 -0.2569  0.4421  0.6426
  936lim     li 6876   6.539   3.318   0.918 -0.6261 -0.4815  0.1532
  937lim     li 6877   6.532   1.459   5.109  0.1449  0.0782 -0.2513
  938lim     li 6878   6.049   0.831   6.251  0.8408 -0.8767  0.3611
  939lim     li 6879   3.786   4.298   5.948  1.1092 -0.7182  0.0605
  940lim     li 6880   1.480   3.298   2.844 -0.9913 -0.5432 -0.0816
  941lim     li 6881   1.291   0.657   2.455 -0.6151  0.3269  0.6632
  942lim     li 6882   4.478   3.821   6.700  0.1438 -0.1835  0.0801
  943lim     li 6883   2.930   6.547   4.449 -0.4146  0.7265 -0.1048
  944lim     li 6884   0.485   4.333   3.909 -0.9506  0.8678 -1.0223
  945lim     li 6885   3.020   1.328   3.736 -0.4056  0.3607 -0.7646
  946lim     li 6886   3.040   6.704   2.001  0.3284  1.0027 -0.4359
  947lim     li 6887   4.283   4.988   3.823 -0.0299 -0.4060  1.3443
  948lim     li 6888   5.155   0.566   4.498  0.0014 -0.3011  0.3530
  949lim     li 6889   4.130   3.965   2.639  0.0925 -0.1330 -0.9367
  950lim     li 6890   0.585   3.617   1.178  0.9877  0.5289 -0.5418
  951lim     li 6891   0.197   2.711   0.947  0.1577 -1.3899 -0.8018
  952lim     li 6892   2.202   0.337   5.376 -1.4333 -0.0836  0.1195
  953lim     li 6893   0.742   0.624   6.521  0.9501 -0.2002 -0.1736
  954lim     li 6894   3.953   6.620   3.929  0.1147  0.7446  0.8978
  955lim     li 6895   4.025   0.621   5.456  0.1893 -0.4565 -0.7100
  956lim     li 6896   6.176   0.153   4.543 -0.3000  0.7816  0.8974
  957lim     li 6897   4.347   3.098   6.316 -0.3787  0.9028  0.6677
  958lim     li 6898   3.822   3.774   0.606  0.2569  0.7046  0.7531
  959lim     li 6899   2.534   4.301   3.619  0.2400 -1.5539 -0.6718
  960lim     li 6900   2.388   2.869   0.505 -1.1791  1.2634  0.5766
  961lim     li 6901   2.605   3.941   1.861  0.2229  1.2290  0.0785
  962lim     li 6902   5.381   6.040   5.386  0.5453  0.3985  0.2182
  963lim     li 6903   2.699   0.334   3.743 -0.2066 -0.8883  0.0071
  964lim     li 6904   3.236   2.671   6.490  0.0223 -0.3886  0.1430
  965lim     li 6905   0.987   5.668   3.607  1.1366  0.8503  0.5889
  966lim     li 6906   3.235   2.983   1.825  1.2904  1.0411  0.8295
  967lim     li 6907   3.786   2.136   6.537  1.6797 -0.6168 -0.6227
  968lim     li 6908   1.042   5.409   5.716 -0.5748  0.1132 -0.5116
  969lim     li 6909   5.926   6.082   0.255 -0.9119  0.7029 -0.3932
  970lim     li 6910   0.786   6.298   0.544  0.3791  0.1106 -0.0468
  971lim     li 6911   0.265   4.898   2.316  0.0883  0.3792 -0.5471
  972lim     li 6912   4.312   0.448   0.568  0.3963 -0.6334  0.0271
  973lim     li 6913   5.297   5.362   2.803  0.2236 -1.3842 -0.7610
  974lim     li 6914   6.483   0.906   4.594 -0.7620 -0.0137  1.2786
  975lim     li 6915   2.289   0.384   1.277 -0.0091  0.8867  0.1527
  976lim     li 6916   0.872   1.395   0.762  0.5314 -0.6018 -0.1271
  977lim     li 6917   4.123   2.042   4.882  0.7272 -0.7271 -0.2912
  978lim     li 6918   2.507   2.284   3.430  0.0496 -0.4303  0.3742
  979lim     li 6919   6.539   4.375   3.042  0.0053 -0.9964  0.4562
  980lim     li 6920   1.735   5.266   5.032  0.2980  0.2905 -0.9941
  981lim     li 6921   2.188   3.550   1.253  0.7909 -0.6133 -0.5048
  982lim     li 6922   1.472   5.901   4.796 -0.8334  1.1761 -0.5228
  983lim     li 6923   0.056   1.534   0.896 -0.4792 -0.0812 -0.3826
  984lim     li 6924   3.712   5.503   5.183 -0.0365 -0.6733  0.1420
  985lim     li 6925   0.077   1.433   6.515 -0.5207 -0.3439  0.2859
  986lim     li 6926   0.997   5.541   6.710 -0.2418  0.0802  0.5947
  987lim     li 6927   3.485   1.251   4.989 -0.1231  0.7910  0.4259
  988lim     li 6928   2.393   4.138   0.465  1.0045 -0.2767  1.0574
  989lim     li 6929   5.310   1.545   4.397  0.1609 -1.2042  0.3691
  990lim     li 6930   4.710   2.010   4.450 -1.1457  0.0771  0.0492
  991lim     li 6931   3.478   1.528   5.937 -0.4303  0.5426  0.1658
  992lim     li 6932   3.541   2.561   4.695 -0.9250 -0.0716  0.5315
  993lim     li 6933   5.049   0.064   2.282  0.4740  0.9399  0.0767
  994lim     li 6934   3.174   2.813   3.562 -0.4950 -0.4680 -0.1085
  995lim     li 6935   3.776   1.036   2.640 -0.0620  0.3253  0.1204
  996lim     li 6936   2.518   1.707   4.899  0.7712 -0.9906 -0.5548
  997lim     li 6937   1.418   3.198   1.386  0.0061 -0.5862 -0.1312
  998lim     li 6938   3.268   4.046   2.540 -0.7451 -0.2708  0.4358
  999lim     li 6939   4.656   3.091   1.069 -0.9501 -0.3854 -0.8129
 1000lim     li 6940   5.876   5.310   6.561  0.2926  0.1503  0.2265
 1001lim     li 6941   1.898   3.008   5.579 -0.4202 -0.2138 -0.2283
 1002lim     li 6942   6.350   2.239   5.386  0.4511  0.2705 -0.1910
 1003lim     li 6943   4.878   0.446   5.302 -0.1634 -0.2989 -0.6111
 1004lim     li 6944   2.113   1.372   4.165 -0.8266 -0.1778  0.3679
 1005lim     li 6945   1.243   2.303   5.274  0.2601 -0.1224 -0.3303
 1006lim     li 6946   6.005   0.639   0.834  0.7319  0.1485  0.1908
 1007lim     li 6947   1.274   6.007   4.303 -0.2744 -0.1766 -0.9835
 1008lim     li 6948   4.611   1.200   4.493  0.1685  0.0307 -0.7926
 1009lim     li 6949   5.680   1.184   3.789  0.2645 -0.1058 -0.6144
 1010lim     li 6950   4.156   6.387   2.036 -0.4597  0.5175  0.4562
 1011lim     li 6951   2.358   4.655   2.044  0.4391 -0.3225  0.4593
 1012lim     li 6952   5.790   4.682   1.569  0.7164  0.7380 -0.6082
 1013lim     li 6953   5.103   5.115   1.968 -0.7251 -0.0864  1.2280
 1014lim     li 6954   1.833   5.067   5.944  0.4704  0.0622 -0.1993
 1015lim     li 6955   0.971   3.161   2.221 -0.3447  0.0135  0.8575
 1016lim     li 6956   5.362   2.379   0.145 -0.4002  0.3015 -0.9124
 1017lim     li 6957   2.467   4.952   6.543  0.5836 -0.4736  0.0619
 1018lim     li 6958   2.867   5.621   0.241 -0.1924 -0.4392 -0.3316
 1019lim     li 6959   5.781   2.993   1.277  0.8200  0.8069  0.6473
 1020lim     li 6960   0.992   1.046   4.479 -0.1712  0.0763  0.1174
 1021lim     li 6961   1.278   1.123   6.126 -0.7828  0.5078  0.9664
 1022lim     li 6962   5.973   3.903   0.105  2.1224 -0.6668  0.5271
 1023lim     li 6963   6.575   0.585   2.302 -0.3858 -1.2770 -0.3494
 1024lim     li 6964   1.425   5.562   0.909  0.7428  1.4181 -0.1384
 1025lim     li 6965   5.957   6.379   1.269 -0.1143 -0.1066 -0.4390
 1026lim     li 6966   5.835   0.108   5.418 -0.2279 -0.2559 -0.5595
 1027lim     li 6967   3.690   5.382   3.735 -1.7005  0.4882 -0.5712
 1028lim     li 6968   4.541   3.976   2.995 -0.7595  0.4038 -0.6156
 1029lim     li 6969   6.029   1.938   4.438 -0.0534 -0.0351 -0.7233
 1030lim     li 6970   1.955   2.679   3.178 -0.5687 -0.6220  0.2124
 1031lim     li 6971   0.094   3.393   0.116 -0.2015 -0.8311 -0.1330
 1032lim     li 6972   0.615   2.339   0.199 -0.0922  0.1942  0.1770
 1033lim     li 6973   3.402   5.964   1.740  0.5572 -0.1762  0.2245
 1034lim     li 6974   4.138   2.422   0.604 -1.1065 -0.3334 -0.7592
 1035lim     li 6975   4.006   6.556   1.114 -0.1493 -0.2764  0.8747
 1036lim     li 6976   3.743   3.919   3.980 -1.0110 -0.6177  0.1320
 1037lim     li 6977   1.411   2.936   3.812  1.1684  0.0399  0.6093
 1038lim     li 6978   2.322   3.968   5.754  0.8882 -0.8452  0.5814
 1039lim     li 6979   4.084   4.838   2.112 -1.1357  0.0367 -0.3568
 1040lim     li 6980   0.098   2.624   2.112 -0.2907  0.3145 -0.6989
 1041lim     li 6981   3.252   2.832   0.642 -0.9813 -0.7769  0.0458
 1042lim     li 6982   3.749   6.085   0.705 -0.5166  0.5015 -0.4141
 1043lim     li 6983   0.990   3.799   6.483 -0.1172 -0.7189  0.5212
 1044lim     li 6984   1.063   5.182   2.948 -0.9378  0.2702 -0.0158
 1045lim     li 6985   3.474   0.637   6.011 -1.1783  0.4010  0.4105
 1046lim     li 6986   3.066   0.759   3.069 -1.0189 -0.9117  0.7193
 1047lim     li 6987   2.236   1.338   0.813 -0.1602  0.2475 -0.3488
 1048lim     li 6988   1.081   3.812   3.400 -0.1487 -0.2028  0.1300
 1049lim     li 6989   3.993   4.652   1.066  0.5069 -1.0119 -0.9944
 1050lim     li 6990   5.894   5.882   3.769  0.2287 -0.5214  1.3213
 1051lim     li 6991   5.345   2.608   0.866 -0.2526 -0.1164 -0.1955
 1052lim     li 6992   0.144   4.283   6.354  0.5121 -1.3080 -0.3273
 1053lim     li 6993   2.185   2.564   3.777  1.6606  0.4185  0.0548
 1054lim     li 6994   3.394   2.043   3.871 -0.2781  0.9646  0.2262
 1055lim     li 6995   5.161   5.219   4.076  0.0230 -0.3630  0.4286
 1056lim     li 6996   4.205   4.422   5.160  0.5441 -0.7169 -0.0949
 1057lim     li 6997   5.911   1.570   5.611 -0.8717 -0.6983  0.4689
 1058lim     li 6998   0.277   1.148   5.968  0.3551  0.1948  0.2820
 1059lim     li 6999   3.494   2.928   1.261  0.1401 -0.2664 -0.5130
 1060lim     li 7000   0.122   3.694   5.940 -0.8547 -0.3182 -0.1132
 1061lim     li 7001   6.646   5.282   2.190 -0.5789 -0.7889 -0.1882
 1062lim     li 7002   0.524   1.820   4.677  0.0421  1.8363 -0.7943
 1063lim     li 7003   4.745   4.149   4.646 -0.1589 -0.1674  0.3754
 1064lim     li 7004   0.000   0.071   3.154 -0.4518 -0.7195 -0.0495
 1065lim     li 7005   4.898   0.945   3.686  0.1679  0.8434 -0.5154
 1066lim     li 7006   1.328   2.586   1.912  0.0623  0.5705  0.5901
 1067lim     li 7007   4.590   2.316   1.859 -0.1618 -0.1442  0.2932
 1068lim     li 7008   5.373   3.905   1.457  0.2134 -0.3366  0.7451
 1069lim     li 7009   2.385   0.548   0.226  1.1402 -0.5194  0.3808
 1070lim     li 7010   1.654   3.050   4.571  0.3329 -0.6135  0.1188
 1071lim     li 7011   3.447   2.655   2.897 -0.4574 -0.3361  0.8342
 1072lim     li 7012   5.645   4.374   5.141 -0.8425 -0.7950  0.1271
 1073lim     li 7013   2.389   3.401   2.879  0.3197 -1.1267 -0.5391
 1074lim     li 7014   1.642   5.693   6.420 -0.4308  0.1645 -0.8333
 1075lim     li 7015   2.648   2.961   5.047  0.6977 -0.4941 -0.2962
 1076lim     li 7016   5.698   0.695   4.995 -0.5921 -0.3540 -0.8236
 1077lim     li 7017   3.302   0.121   5.094  1.1072 -0.1364 -0.8816
 1078lim     li 7018   5.783   1.436   2.828  0.4388 -0.2421 -1.1517
 1079lim     li 7019   4.630   3.722   1.940  0.0995 -0.2666 -0.5293
 1080lim     li 7020   1.516   0.552   1.737 -1.0499 -0.5092 -0.2652
 1081ntf    cn1 7021   5.427   2.906   3.000 -0.0411 -0.2098  0.0233
 1081ntf    sn2 7022   5.412   3.074   2.931  0.4465 -0.2048 -0.0687
 1081ntf    nn3 7023   5.316   3.049   2.809  0.0054  0.0160  0.2320
 1081ntf    sn2 7024   5.204   3.135   2.742  0.1552  0.1157  0.1089
 1081ntf    cn1 7025   5.239   3.100   2.567 -0.0600 -0.0835  0.1052
 1081ntf    fn4 7026   5.537   2.898   3.072 -0.1228 -0.4921  0.1188
 1081ntf    fn4 7027   5.328   2.873   3.082  0.3570 -0.8177  0.2597
 1081ntf    fn4 7028   5.428   2.807   2.911  0.4149 -0.2802  0.1043
 1081ntf    on5 7029   5.362   3.157   3.036 -0.5423 -0.7289 -0.1197
 1081ntf    on5 7030   5.551   3.092   2.893  0.3163  0.5494 -0.1918
 1081ntf    on5 7031   5.072   3.081   2.762  0.3590 -0.4275 -0.0116
 1081ntf    on5 7032   5.218   3.279   2.740 -0.3775  0.1693 -0.2130
 1081ntf    fn4 7033   5.367   3.127   2.546  0.0675 -0.7014  0.0578
 1081ntf    fn4 7034   5.153   3.157   2.485 -0.1694 -0.6931 -0.2118
 1081ntf    fn4 7035   5.230   2.969   2.548  0.1576 -0.0882  0.0268
 1082ntf    cn1 7036   2.327   2.238   2.093 -0.2386 -0.0956  0.1504
 1082ntf    sn2 7037   2.503   2.244   2.049 -0.2235 -0.0993  0.2112
 1082ntf    nn3 7038   2.522   2.089   2.038  0.4149 -0.0107  0.0324
 1082ntf    sn2 7039   2.537   1.981   2.150  0.0248 -0.1867 -0.0825
 1082ntf    cn1 7040   2.700   1.920   2.097  0.1404  0.1119 -0.0744
 1082ntf    fn4 7041   2.308   2.177   2.209  0.1668  0.0802  0.3115
 1082ntf    fn4 7042   2.260   2.352   2.093 -0.2746 -0.1154  0.4142
 1082ntf    fn4 7043   2.267   2.163   2.001  0.1922  0.1454 -0.3311
 1082ntf    on5 7044   2.503   2.314   1.923  0.0696  0.1413  0.3423
 1082ntf    on5 7045   2.578   2.301   2.158  0.1222 -0.0379 -0.0576
 1082ntf    on5 7046   2.571   2.029   2.282 -0.3183  0.3185 -0.1790
 1082ntf    on5 7047   2.443   1.872   2.138 -0.1991 -0.0233  0.1638
 1082ntf    fn4 7048   2.796   2.010   2.103  0.1790  0.0655  0.0013
 1082ntf    fn4 7049   2.701   1.885   1.969 -0.0540  0.3495 -0.1417
 1082ntf    fn4 7050   2.744   1.815   2.163 -0.0850  0.1131  0.0775
 1083ntf    cn1 7051   4.777   4.899   6.665  0.1374  0.2673 -0.2945
 1083ntf    sn2 7052   4.926   4.822   6.594  0.0727 -0.1975  0.0722
 1083ntf    nn3 7053   5.028   4.851   6.710  0.5778 -0.4489 -0.3084
 1083ntf    sn2 7054   5.083   4.742   6.809  0.0185 -0.0001  0.4957
 1083ntf    cn1 7055   5.211   4.661   6.711 -0.1246  0.0802  0.2414
 1083ntf    fn4 7056   4.677   4.853   6.592  0.1627  0.3123 -0.3577
 1083ntf    fn4 7057   4.757   4.871   6.793 -0.8486  0.4347 -0.4051
 1083ntf    fn4 7058   4.776   5.030   6.649 -0.1729  0.3602  0.4364
 1083ntf    on5 7059   4.901   4.680   6.582 -0.0893 -0.1613 -0.0219
 1083ntf    on5 7060   4.961   4.899   6.478  0.1543  0.1654  0.3380
 1083ntf    on5 7061   5.153   4.806   6.918 -0.3145  0.5069  0.4193
 1083ntf    on5 7062   4.995   4.636   6.853  0.2584 -0.4130 -0.0247
 1083ntf    fn4 7063   5.307   4.749   6.687 -0.1599 -0.0133 -0.2554
 1083ntf    fn4 7064   5.175   4.601   6.598 -0.2561 -0.2495  0.4557
 1083ntf    fn4 7065   5.265   4.563   6.783  0.2350 -0.0788 -0.2341
 1084ntf    cn1 7066   1.387   4.646   5.426 -0.1774  0.0954 -0.0064
 1084ntf    sn2 7067   1.543   4.706   5.498 -0.1644 -0.0554  0.0940
 1084ntf    nn3 7068   1.497   4.853   5.529 -0.3243 -0.0573 -0.1394
 1084ntf    sn2 7069   1.510   4.939   5.660  0.0014 -0.1856 -0.0872
 1084ntf    cn1 7070   1.352   4.890   5.737 -0.0044  0.2189  0.1607
 1084ntf    fn4 7071   1.407   4.521   5.388  0.6529  0.2408 -0.0807
 1084ntf    fn4 7072   1.286   4.653   5.512 -0.1313  0.3591  0.0266
 1084ntf    fn4 7073   1.354   4.724   5.325  0.3047 -0.0395 -0.2726
 1084ntf    on5 7074   1.567   4.628   5.617  0.3110  0.1042  0.1062
 1084ntf    on5 7075   1.644   4.697   5.395  0.0704  0.0889  0.3085
 1084ntf    on5 7076   1.606   4.906   5.762 -0.0204  0.3293  0.1030
 1084ntf    on5 7077   1.489   5.080   5.640  0.1628 -0.1096  0.2784
 1084ntf    fn4 7078   1.255   4.913   5.651 -0.1706 -0.9274  0.0231
 1084ntf    fn4 7079   1.315   4.968   5.836  0.3839  0.9492 -0.2601
 1084ntf    fn4 7080   1.344   4.761   5.763 -0.2765  0.2087  0.0312
 1085ntf    cn1 7081   0.257   2.401   0.004 -0.2612  0.2338  0.0821
 1085ntf    sn2 7082   0.369   2.535   0.053  0.2575 -0.0974 -0.1954
 1085ntf    nn3 7083   0.283   2.607   0.162 -0.1415  0.2479 -0.7347
 1085ntf    sn2 7084   0.282   2.756   0.211  0.2860  0.0007  0.0320
 1085ntf    cn1 7085   0.373   2.724   0.365  0.2762  0.0817  0.0550
 1085ntf    fn4 7086   0.152   2.463  -0.047 -0.2239  0.0849 -0.1786
 1085ntf    fn4 7087   0.308   2.321  -0.088  0.1081  0.3233  0.2056
 1085ntf    fn4 7088   0.219   2.331   0.109  0.3627 -0.5150 -0.1820
 1085ntf    on5 7089   0.482   2.472   0.116  0.1379 -0.0154  0.1011
 1085ntf    on5 7090   0.385   2.622  -0.061  0.1247  0.2341  0.0368
 1085ntf    on5 7091   0.359   2.851   0.135  0.2963 -0.2338 -0.2480
 1085ntf    on5 7092   0.161   2.802   0.275  0.1814 -0.0697 -0.1166
 1085ntf    fn4 7093   0.316   2.637   0.447 -0.1567  0.5913  0.2973
 1085ntf    fn4 7094   0.394   2.838   0.429 -0.3350  0.3071 -0.1462
 1085ntf    fn4 7095   0.498   2.687   0.341  0.2750  0.3268 -0.3278
 1086ntf    cn1 7096   3.583   0.041   3.782 -0.3995 -0.1914  0.0145
 1086ntf    sn2 7097   3.627  -0.124   3.843  0.2808  0.0451  0.1834
 1086ntf    nn3 7098   3.593  -0.218   3.722 -0.2942  1.3068 -0.6478
 1086ntf    sn2 7099   3.696  -0.275   3.617 -0.1979 -0.0181  0.1438
 1086ntf    cn1 7100   3.686  -0.448   3.671  0.2238 -0.0517  0.1192
 1086ntf    fn4 7101   3.644   0.078   3.671 -0.5431 -0.1308 -0.0441
 1086ntf    fn4 7102   3.454   0.065   3.769 -0.2566  0.3791 -0.3910
 1086ntf    fn4 7103   3.605   0.131   3.877 -0.1924  0.2340 -0.4341
 1086ntf    on5 7104   3.761  -0.113   3.895  0.2969  0.0229  0.1469
 1086ntf    on5 7105   3.529  -0.148   3.947 -0.0078 -0.1649 -0.1352
 1086ntf    on5 7106   3.648  -0.280   3.481  0.2282 -0.0217 -0.0080
 1086ntf    on5 7107   3.835  -0.239   3.633 -0.1966  0.1405 -0.2203
 1086ntf    fn4 7108   3.691  -0.463   3.803  0.0645  0.6767  0.2147
 1086ntf    fn4 7109   3.782  -0.512   3.608  0.1699  0.0509 -0.0660
 1086ntf    fn4 7110   3.577  -0.510   3.627  0.4594 -0.3600 -0.0306
 1087ntf    cn1 7111   1.140   0.797   5.327 -0.0006  0.0584  0.1371
 1087ntf    sn2 7112   1.043   0.865   5.465  0.0849  0.5216 -0.0314
 1087ntf    nn3 7113   1.001   1.007   5.411  0.7129  0.5404 -0.4794
 1087ntf    sn2 7114   0.896   1.101   5.480  0.1547 -0.3741 -0.0644
 1087ntf    cn1 7115   1.009   1.242   5.504 -0.1072 -0.2037  0.1777
 1087ntf    fn4 7116   1.084   0.817   5.209  0.3388  0.2883  0.0143
 1087ntf    fn4 7117   1.254   0.862   5.312  0.0195  0.0201  0.1251
 1087ntf    fn4 7118   1.173   0.670   5.343  0.4596  0.1856  0.2241
 1087ntf    on5 7119   0.929   0.776   5.465  0.6304 -0.1856 -0.5274
 1087ntf    on5 7120   1.141   0.851   5.569  0.4309 -0.4812 -0.4828
 1087ntf    on5 7121   0.804   1.154   5.384  0.5255  0.6814  0.1499
 1087ntf    on5 7122   0.848   1.074   5.613 -0.2029 -0.3068 -0.1790
 1087ntf    fn4 7123   1.063   1.272   5.387  0.3516 -0.1758  0.3962
 1087ntf    fn4 7124   1.110   1.210   5.584 -0.0837 -0.5928 -0.0023
 1087ntf    fn4 7125   0.952   1.350   5.554 -0.5136 -0.1311 -0.4283
 1088ntf    cn1 7126   5.023   3.686   6.584  0.1641  0.1732 -0.2437
 1088ntf    sn2 7127   4.928   3.708   6.431 -0.0212 -0.0543 -0.1607
 1088ntf    nn3 7128   4.780   3.689   6.480 -0.0209 -0.0277 -0.1490
 1088ntf    sn2 7129   4.672   3.580   6.447 -0.2090  0.1119  0.0065
 1088ntf    cn1 7130   4.631   3.640   6.280  0.4507 -0.0495 -0.2153
 1088ntf    fn4 7131   5.017   3.778   6.679  0.5151 -0.0970  0.0443
 1088ntf    fn4 7132   4.998   3.569   6.640 -0.2386  0.2236 -0.3222
 1088ntf    fn4 7133   5.151   3.692   6.549  0.2562  0.0812  0.0663
 1088ntf    on5 7134   4.955   3.842   6.384 -0.8717  0.2937  0.3100
 1088ntf    on5 7135   4.983   3.608   6.344  0.1338  0.4022 -0.5920
 1088ntf    on5 7136   4.706   3.441   6.435 -0.0866  0.1111  0.3694
 1088ntf    on5 7137   4.553   3.613   6.522 -0.4540 -0.5307 -0.0921
 1088ntf    fn4 7138   4.512   3.601   6.235  0.2856 -0.5897  0.6806
 1088ntf    fn4 7139   4.714   3.589   6.190  0.0468 -0.3690 -0.4155
 1088ntf    fn4 7140   4.637   3.771   6.263 -0.1346 -0.0321 -0.3162
 1089ntf    cn1 7141   6.223   6.425   1.793  0.2368 -0.3222  0.1099
 1089ntf    sn2 7142   6.335   6.543   1.875  0.0601  0.0546 -0.1868
 1089ntf    nn3 7143   6.305   6.509   2.026 -0.5117  0.2558 -0.2504
 1089ntf    sn2 7144   6.330   6.609   2.144  0.3534 -0.0784 -0.1427
 1089ntf    cn1 7145   6.163   6.670   2.181  0.2776 -0.3853  0.0298
 1089ntf    fn4 7146   6.096   6.463   1.790  0.5165  0.6501  0.0780
 1089ntf    fn4 7147   6.258   6.414   1.666 -0.4186  0.6577 -0.1688
 1089ntf    fn4 7148   6.220   6.306   1.850  0.3100 -0.1883  0.3968
 1089ntf    on5 7149   6.463   6.504   1.823  0.0033 -0.4210  0.0181
 1089ntf    on5 7150   6.284   6.674   1.841  0.0961  0.0895 -0.1063
 1089ntf    on5 7151   6.357   6.534   2.265 -0.5570 -0.3046 -0.0739
 1089ntf    on5 7152   6.402   6.730   2.113  0.0873  0.2162  0.3759
 1089ntf    fn4 7153   6.163   6.738   2.294 -0.2924 -0.5293  0.1168
 1089ntf    fn4 7154   6.068   6.580   2.197 -0.2002  0.1631  0.3338
 1089ntf    fn4 7155   6.111   6.752   2.090 -0.1066 -0.0458  0.5510
 1090ntf    cn1 7156   6.451   0.703   6.236  0.3993  0.0550 -0.3447
 1090ntf    sn2 7157   6.615   0.780   6.250  0.5093 -0.2192 -0.1132
 1090ntf    nn3 7158   6.646   0.753   6.402 -0.0474 -0.1572  0.0165
 1090ntf    sn2 7159   6.770   0.675   6.459  0.2592  0.3275  0.0213
 1090ntf    cn1 7160   6.863   0.816   6.527  0.3963  0.3691 -0.2510
 1090ntf    fn4 7161   6.368   0.788   6.295  0.3451 -0.3580  0.1846
 1090ntf    fn4 7162   6.411   0.684   6.111 -0.3208  0.2273 -0.1496
 1090ntf    fn4 7163   6.445   0.588   6.302 -0.3691  0.1383 -0.2542
 1090ntf    on5 7164   6.686   0.705   6.150 -0.1675 -0.0236 -0.7492
 1090ntf    on5 7165   6.575   0.916   6.222  0.7632 -0.0282  0.4284
 1090ntf    on5 7166   6.732   0.596   6.574  0.1809  0.1673 -0.1145
 1090ntf    on5 7167   6.860   0.614   6.365 -0.3563  0.0610 -0.4006
 1090ntf    fn4 7168   6.975   0.772   6.583  0.0742  0.3297  0.3689
 1090ntf    fn4 7169   6.808   0.886   6.624  0.0253 -0.1932 -0.0471
 1090ntf    fn4 7170   6.894   0.899   6.429 -0.2316  0.4467 -0.3845
 1091ntf    cn1 7171   5.380   6.189   1.022  0.1278 -0.3228 -0.3411
 1091ntf    sn2 7172   5.272   6.061   0.952  0.1076 -0.2409 -0.4589
 1091ntf    nn3 7173   5.332   6.062   0.807  0.0711  0.0481 -0.4719
 1091ntf    sn2 7174   5.441   5.963   0.752 -0.0268 -0.1436 -0.3220
 1091ntf    cn1 7175   5.342   5.840   0.663  0.0515 -0.3698 -0.0965
 1091ntf    fn4 7176   5.386   6.301   0.952 -0.4606 -0.1934 -0.1833
 1091ntf    fn4 7177   5.347   6.222   1.145 -0.4847 -0.2617 -0.5204
 1091ntf    fn4 7178   5.505   6.147   1.038  0.2246  0.0365 -0.1447
 1091ntf    on5 7179   5.282   5.943   1.034 -0.1311  0.2556  0.2916
 1091ntf    on5 7180   5.140   6.117   0.948  0.2231  0.0378 -0.3561
 1091ntf    on5 7181   5.523   6.020   0.648  0.2318 -0.2928 -0.2002
 1091ntf    on5 7182   5.510   5.882   0.849  0.3713  0.1431 -0.3607
 1091ntf    fn4 7183   5.418   5.748   0.606  0.0946 -0.6497  0.4054
 1091ntf    fn4 7184   5.274   5.895   0.564 -0.2681  0.1227  0.3943
 1091ntf    fn4 7185   5.249   5.785   0.739 -0.0873 -0.1890 -0.1347
 1092ntf    cn1 7186   4.153   5.213   2.913  0.0106 -0.1541  0.1124
 1092ntf    sn2 7187   4.050   5.067   2.947 -0.2973  0.0532  0.0799
 1092ntf    nn3 7188   3.984   5.107   3.084 -0.2345  0.3618  0.0190
 1092ntf    sn2 7189   4.019   5.063   3.230 -0.1813 -0.0103 -0.1039
 1092ntf    cn1 7190   3.850   5.055   3.296 -0.0832 -0.4499  0.0994
 1092ntf    fn4 7191   4.093   5.327   2.945  0.0870 -0.1046  0.0785
 1092ntf    fn4 7192   4.250   5.210   3.003  0.2628  0.0731 -0.1511
 1092ntf    fn4 7193   4.219   5.219   2.799 -0.4631  0.2029 -0.1483
 1092ntf    on5 7194   3.956   5.066   2.838  0.3600  0.4957 -0.5035
 1092ntf    on5 7195   4.147   4.960   2.953 -0.1580  0.1838  0.1771
 1092ntf    on5 7196   4.057   4.925   3.240 -0.6315 -0.1491 -0.2928
 1092ntf    on5 7197   4.086   5.167   3.304 -0.5671  0.0297  0.1930
 1092ntf    fn4 7198   3.787   5.172   3.295  0.3910 -0.1939 -0.3499
 1092ntf    fn4 7199   3.848   5.014   3.422 -0.3221 -0.4970  0.0813
 1092ntf    fn4 7200   3.771   4.978   3.223 -0.5669 -0.4025  0.5707
 1093ntf    cn1 7201   1.826   2.924   3.711 -0.1573  0.3966 -0.0359
 1093ntf    sn2 7202   1.737   2.951   3.867 -0.2879 -0.2746  0.0078
 1093ntf    nn3 7203   1.723   3.107   3.858  0.3726 -0.2271 -0.2244
 1093ntf    sn2 7204   1.796   3.217   3.943 -0.0108  0.1158 -0.3338
 1093ntf    cn1 7205   1.854   3.324   3.807  0.4781  0.2318 -0.0391
 1093ntf    fn4 7206   1.893   2.811   3.697 -0.2962  0.2843  0.1901
 1093ntf    fn4 7207   1.740   2.929   3.611 -0.1947  0.2384 -0.0110
 1093ntf    fn4 7208   1.920   3.015   3.689  0.3404 -0.0470  0.2425
 1093ntf    on5 7209   1.612   2.884   3.843 -0.3664 -0.1519  0.0723
 1093ntf    on5 7210   1.820   2.890   3.968  0.2865 -0.4566 -0.5719
 1093ntf    on5 7211   1.702   3.298   4.016 -0.3198 -0.2668 -0.3041
 1093ntf    on5 7212   1.920   3.176   4.004 -0.1381  0.2277  0.0047
 1093ntf    fn4 7213   1.942   3.268   3.726 -0.2025  0.1162 -0.7125
 1093ntf    fn4 7214   1.905   3.437   3.851  0.3359  0.2727  0.0219
 1093ntf    fn4 7215   1.758   3.360   3.723  0.4974  0.1140 -0.1122
 1094ntf    cn1 7216   1.002   1.931   6.312 -0.0385 -0.1516 -0.1639
 1094ntf    sn2 7217   1.103   2.072   6.257 -0.3834  0.1507 -0.0281
 1094ntf    nn3 7218   1.034   2.188   6.336  0.2710  0.6921 -0.2451
 1094ntf    sn2 7219   0.910   2.276   6.296 -0.4771 -0.1184  0.2776
 1094ntf    cn1 7220   0.967   2.436   6.359 -0.2242 -0.0268 -0.1822
 1094ntf    fn4 7221   0.983   1.939   6.443  0.2780 -0.3169 -0.1059
 1094ntf    fn4 7222   0.883   1.933   6.255  0.0916  0.0593 -0.4288
 1094ntf    fn4 7223   1.053   1.814   6.278 -0.2289 -0.1727 -0.3827
 1094ntf    on5 7224   1.237   2.043   6.304 -0.5498 -0.0235  0.3446
 1094ntf    on5 7225   1.101   2.073   6.113 -0.8693  0.4578 -0.0178
 1094ntf    on5 7226   0.904   2.295   6.154 -0.4918  0.1363  0.3123
 1094ntf    on5 7227   0.787   2.246   6.366 -0.5226 -0.3619  0.0945
 1094ntf    fn4 7228   1.078   2.480   6.302 -0.4272  0.1249 -0.4616
 1094ntf    fn4 7229   0.996   2.430   6.488 -0.2956 -0.2924 -0.1792
 1094ntf    fn4 7230   0.881   2.535   6.348 -0.1870 -0.0456 -0.6610
 1095ntf    cn1 7231   2.981   3.623   5.035  0.0722  0.1062  0.0092
 1095ntf    sn2 7232   2.823   3.699   4.986  0.0419  0.0897  0.0807
 1095ntf    nn3 7233   2.873   3.844   4.955 -0.6404  0.3158  0.0184
 1095ntf    sn2 7234   2.901   3.910   4.816  0.2658  0.2330  0.1534
 1095ntf    cn1 7235   2.876   4.086   4.855 -0.1831  0.2060 -0.0075
 1095ntf    fn4 7236   2.978   3.507   5.098 -0.7063  0.2565  0.2574
 1095ntf    fn4 7237   3.049   3.598   4.924  0.4651  0.2440  0.2202
 1095ntf    fn4 7238   3.048   3.705   5.114  0.7626 -0.1128 -0.3378
 1095ntf    on5 7239   2.774   3.621   4.875 -0.0260 -0.2601  0.3539
 1095ntf    on5 7240   2.742   3.701   5.106 -0.1459 -0.3906 -0.0315
 1095ntf    on5 7241   3.040   3.917   4.778  0.2896 -0.8011  0.0284
 1095ntf    on5 7242   2.802   3.890   4.713 -0.0722 -0.0184  0.5262
 1095ntf    fn4 7243   2.896   4.164   4.750  0.7665 -0.0618 -0.0323
 1095ntf    fn4 7244   2.961   4.124   4.949 -0.1427  0.3147 -0.0897
 1095ntf    fn4 7245   2.757   4.105   4.911 -0.1924 -0.3638  0.1708
 1096ntf    cn1 7246   4.570   6.527   3.248  0.2704  0.0755 -0.3469
 1096ntf    sn2 7247   4.712   6.544   3.136 -0.1313 -0.0795 -0.8804
 1096ntf    nn3 7248   4.737   6.390   3.115  0.0648 -0.1734  0.0308
 1096ntf    sn2 7249   4.801   6.278   3.204  0.0322 -0.1456  0.0896
 1096ntf    cn1 7250   4.977   6.310   3.169 -0.0876  0.2085 -0.2004
 1096ntf    fn4 7251   4.599   6.489   3.371  0.0153 -0.4872 -0.4569
 1096ntf    fn4 7252   4.500   6.638   3.259 -0.0264 -0.1696  0.2863
 1096ntf    fn4 7253   4.478   6.439   3.210  0.1566  0.0498 -0.0169
 1096ntf    on5 7254   4.663   6.602   3.013  0.3501 -0.1886 -1.1286
 1096ntf    on5 7255   4.800   6.621   3.220 -0.8386 -0.0246 -0.1758
 1096ntf    on5 7256   4.783   6.281   3.347 -0.3955  0.3328  0.0293
 1096ntf    on5 7257   4.788   6.149   3.141 -0.2939  0.2311 -0.6170
 1096ntf    fn4 7258   5.007   6.435   3.200  0.5245 -0.0202  0.1525
 1096ntf    fn4 7259   4.998   6.298   3.039  0.2648  0.0358 -0.1303
 1096ntf    fn4 7260   5.066   6.233   3.231  0.0723  0.1750 -0.4703
 1097ntf    cn1 7261   0.375   0.984   5.146 -0.4592  0.0411  0.2740
 1097ntf    sn2 7262   0.297   0.842   5.064 -0.1989 -0.0360  0.1596
 1097ntf    nn3 7263   0.390   0.829   4.938  0.1020 -0.1326  0.3916
 1097ntf    sn2 7264   0.427   0.693   4.869 -0.0415  0.0508 -0.0496
 1097ntf    cn1 7265   0.408   0.742   4.695 -0.0868  0.0336 -0.0504
 1097ntf    fn4 7266   0.372   1.098   5.079 -0.0132 -0.1762 -0.1206
 1097ntf    fn4 7267   0.311   1.008   5.259 -0.3057  0.0054  0.3702
 1097ntf    fn4 7268   0.503   0.966   5.175 -0.3486  0.0885 -0.1789
 1097ntf    on5 7269   0.309   0.733   5.158  0.1929 -0.1677 -0.0399
 1097ntf    on5 7270   0.162   0.890   5.046 -0.4007 -0.3895  0.7235
 1097ntf    on5 7271   0.567   0.660   4.872 -0.2270 -0.7289  0.6312
 1097ntf    on5 7272   0.333   0.584   4.886  0.1248 -0.0635  0.1434
 1097ntf    fn4 7273   0.511   0.811   4.648 -0.0072 -0.1537 -0.1520
 1097ntf    fn4 7274   0.302   0.820   4.679 -0.0878 -0.0146 -0.2826
 1097ntf    fn4 7275   0.405   0.642   4.610 -0.0812  0.1520 -0.1903
 1098ntf    cn1 7276   0.533   6.313   5.646 -0.2713 -0.3024 -0.9208
 1098ntf    sn2 7277   0.684   6.282   5.549  0.1908 -0.1173 -0.2612
 1098ntf    nn3 7278   0.679   6.127   5.529  0.1487 -0.1422 -0.0609
 1098ntf    sn2 7279   0.754   6.039   5.423  0.0856  0.1357 -0.3359
 1098ntf    cn1 7280   0.873   5.962   5.537 -0.0925  0.0333 -0.2182
 1098ntf    fn4 7281   0.548   6.306   5.777 -0.3689 -0.1053 -0.8988
 1098ntf    fn4 7282   0.474   6.429   5.621 -0.0735  0.0019 -0.0055
 1098ntf    fn4 7283   0.437   6.227   5.618 -0.9720 -0.0160  0.5245
 1098ntf    on5 7284   0.662   6.362   5.431 -0.1388  0.1706 -0.0060
 1098ntf    on5 7285   0.787   6.325   5.641 -0.1239 -0.1169  0.0926
 1098ntf    on5 7286   0.678   5.928   5.370 -0.6866  0.2209  0.5677
 1098ntf    on5 7287   0.838   6.118   5.336  0.1534  0.7648  0.3014
 1098ntf    fn4 7288   0.932   6.052   5.613  0.1163 -0.3624  0.0917
 1098ntf    fn4 7289   0.963   5.897   5.464 -0.0182 -0.3488  0.2142
 1098ntf    fn4 7290   0.818   5.867   5.611  0.2316  0.2510  0.2994
 1099ntf    cn1 7291   3.080   6.182   4.885 -0.2710  0.3784  0.2034
 1099ntf    sn2 7292   3.250   6.198   4.946 -0.1396  0.1297 -0.0936
 1099ntf    nn3 7293   3.291   6.318   4.853  0.1656 -0.1145 -0.2746
 1099ntf    sn2 7294   3.438   6.363   4.817  0.3142 -0.3355  0.0540
 1099ntf    cn1 7295   3.416   6.543   4.829 -0.6105 -0.4410  0.0296
 1099ntf    fn4 7296   3.003   6.096   4.950  0.0672 -0.0105  0.0952
 1099ntf    fn4 7297   3.014   6.297   4.888  0.2714  0.6912  0.3045
 1099ntf    fn4 7298   3.088   6.143   4.759  0.2042  0.5899  0.1653
 1099ntf    on5 7299   3.235   6.233   5.085 -0.0833 -0.7674  0.1383
 1099ntf    on5 7300   3.305   6.070   4.911  0.4436  0.3195  0.1183
 1099ntf    on5 7301   3.532   6.324   4.919  0.2060 -0.0482  0.2655
 1099ntf    on5 7302   3.480   6.346   4.680 -0.4601 -0.1886 -0.2094
 1099ntf    fn4 7303   3.354   6.577   4.940 -0.0893  0.3457  0.0826
 1099ntf    fn4 7304   3.354   6.595   4.724  0.3131  0.3499 -0.1395
 1099ntf    fn4 7305   3.529   6.611   4.834 -0.7221 -0.2668  0.1740
 1100ntf    cn1 7306   1.526   5.798   3.849 -0.2875 -0.1150  0.0399
 1100ntf    sn2 7307   1.467   5.953   3.774  0.1337 -0.1067 -0.2835
 1100ntf    nn3 7308   1.334   5.909   3.703 -0.1435  0.0005  0.1662
 1100ntf    sn2 7309   1.187   5.923   3.758 -0.3505 -0.2868 -0.3022
 1100ntf    cn1 7310   1.136   6.081   3.684 -0.4286 -0.0167  0.3143
 1100ntf    fn4 7311   1.431   5.737   3.917 -0.1495 -0.2151  0.1450
 1100ntf    fn4 7312   1.565   5.704   3.764  0.1621  0.3550 -0.2867
 1100ntf    fn4 7313   1.627   5.817   3.933  0.0141 -0.4229 -0.2477
 1100ntf    on5 7314   1.461   6.053   3.878  0.1270 -0.3403 -0.0576
 1100ntf    on5 7315   1.562   5.978   3.668  0.0346 -0.0130 -0.3509
 1100ntf    on5 7316   1.107   5.818   3.702 -0.0166 -0.7347  0.0470
 1100ntf    on5 7317   1.168   5.944   3.900 -0.2008 -0.2107 -0.2926
 1100ntf    fn4 7318   1.213   6.182   3.723 -0.6974  0.5510 -0.5905
 1100ntf    fn4 7319   1.013   6.117   3.715 -0.5095  0.1028 -0.1263
 1100ntf    fn4 7320   1.145   6.082   3.551 -0.5590  1.0635  0.3025
 1101ntf    cn1 7321   0.663   6.169   3.339  0.1851 -0.1909 -0.5255
 1101ntf    sn2 7322   0.600   6.327   3.276  0.0185 -0.0953 -0.1181
 1101ntf    nn3 7323   0.733   6.404   3.248  0.3150 -0.4119  0.4077
 1101ntf    sn2 7324   0.821   6.503   3.333  0.1367 -0.0438  0.1661
 1101ntf    cn1 7325   0.739   6.661   3.296  0.1798 -0.0804 -0.0899
 1101ntf    fn4 7326   0.749   6.111   3.256 -0.0353 -0.5637 -0.4926
 1101ntf    fn4 7327   0.728   6.184   3.454  0.1359  0.1177 -0.5370
 1101ntf    fn4 7328   0.564   6.082   3.349 -0.1695  0.2974  0.2959
 1101ntf    on5 7329   0.525   6.281   3.162 -0.1297 -0.8123  0.2589
 1101ntf    on5 7330   0.516   6.388   3.377  0.1876  0.2773 -0.1988
 1101ntf    on5 7331   0.803   6.492   3.476  0.4544 -0.1432  0.1978
 1101ntf    on5 7332   0.958   6.528   3.298  0.1171  0.3824  0.3829
 1101ntf    fn4 7333   0.606   6.660   3.302  0.2067 -0.0220  0.6223
 1101ntf    fn4 7334   0.763   6.724   3.183 -0.1507  0.0584 -0.0861
 1101ntf    fn4 7335   0.771   6.748   3.391 -0.0968  0.1394 -0.1950
 1102ntf    cn1 7336   1.051   2.333   2.959  0.1974 -0.0696 -0.3405
 1102ntf    sn2 7337   0.947   2.186   2.984  0.1107  0.0362 -0.0737
 1102ntf    nn3 7338   1.046   2.113   3.082 -0.1362 -0.2908 -0.0654
 1102ntf    sn2 7339   1.152   2.005   3.039  0.4404  0.2798 -0.1017
 1102ntf    cn1 7340   1.053   1.853   3.053  0.4944  0.2514 -0.0327
 1102ntf    fn4 7341   1.170   2.314   2.905  0.3268 -0.9626  0.2477
 1102ntf    fn4 7342   0.986   2.418   2.881  0.2987 -0.1099 -0.4690
 1102ntf    fn4 7343   1.075   2.389   3.077 -0.5333 -0.3015 -0.0728
 1102ntf    on5 7344   0.826   2.216   3.056  0.2157 -0.1385  0.1759
 1102ntf    on5 7345   0.928   2.134   2.851  0.0840  0.5542 -0.2751
 1102ntf    on5 7346   1.192   2.015   2.901 -0.4027 -0.0702 -0.3793
 1102ntf    on5 7347   1.254   1.985   3.138  0.2062  0.2553  0.1370
 1102ntf    fn4 7348   0.992   1.849   3.170 -0.1015 -0.7145 -0.3634
 1102ntf    fn4 7349   1.126   1.744   3.037  0.4724  0.2329 -0.0051
 1102ntf    fn4 7350   0.955   1.832   2.967  0.5610 -0.0768 -0.0308
 1103ntf    cn1 7351   5.428   0.317   2.195 -0.1580  0.5600  0.1463
 1103ntf    sn2 7352   5.516   0.334   2.037 -0.0873 -0.4025  0.0737
 1103ntf    nn3 7353   5.522   0.490   2.022  0.6292 -0.4264  0.0785
 1103ntf    sn2 7354   5.623   0.601   2.068  0.2393 -0.0089 -0.0618
 1103ntf    cn1 7355   5.679   0.664   1.907  0.0096  0.3739  0.0076
 1103ntf    fn4 7356   5.308   0.372   2.195 -0.1091  0.6813 -0.7117
 1103ntf    fn4 7357   5.415   0.190   2.231 -0.4862  0.5128 -0.1384
 1103ntf    fn4 7358   5.505   0.361   2.293  0.2396  0.5738 -0.1702
 1103ntf    on5 7359   5.648   0.279   2.055  0.0929  0.0013 -0.0043
 1103ntf    on5 7360   5.433   0.270   1.938  0.2799 -0.5104 -0.1626
 1103ntf    on5 7361   5.560   0.715   2.130 -0.1522  0.0604 -0.5760
 1103ntf    on5 7362   5.743   0.553   2.132  0.2443  0.1830  0.0750
 1103ntf    fn4 7363   5.776   0.754   1.916  0.4435 -0.0717 -0.2227
 1103ntf    fn4 7364   5.573   0.724   1.854 -0.0872 -0.0038 -0.2267
 1103ntf    fn4 7365   5.718   0.570   1.823  0.0023 -0.0533  0.4789
 1104ntf    cn1 7366   1.672   1.740   2.181  0.1152 -0.4742  0.3089
 1104ntf    sn2 7367   1.667   1.823   2.343 -0.0441 -0.2867  0.2079
 1104ntf    nn3 7368   1.516   1.868   2.348 -0.0692 -0.3153 -0.2710
 1104ntf    sn2 7369   1.458   2.011   2.374  0.1594 -0.2704 -0.0060
 1104ntf    cn1 7370   1.439   2.065   2.202 -0.4034  0.3165  0.2376
 1104ntf    fn4 7371   1.632   1.813   2.079  0.1808 -0.3843  0.3467
 1104ntf    fn4 7372   1.801   1.712   2.168  0.1176 -0.2331 -0.1856
 1104ntf    fn4 7373   1.605   1.627   2.182 -0.5518 -0.0810  0.3284
 1104ntf    on5 7374   1.682   1.717   2.439 -0.0224 -0.1553  0.3496
 1104ntf    on5 7375   1.767   1.926   2.334 -0.1669 -0.2296 -0.5564
 1104ntf    on5 7376   1.322   2.012   2.423 -0.1409 -0.1769 -0.8264
 1104ntf    on5 7377   1.540   2.111   2.438 -0.4511  0.3735 -0.2196
 1104ntf    fn4 7378   1.358   2.167   2.180 -0.4150  0.3071  0.2375
 1104ntf    fn4 7379   1.395   1.965   2.128  0.3574  0.1585 -0.0111
 1104ntf    fn4 7380   1.560   2.094   2.156 -0.3287 -0.6558 -0.1953
 1105ntf    cn1 7381   5.296   5.121   4.450 -0.2338 -0.0228 -0.0204
 1105ntf    sn2 7382   5.121   5.110   4.404 -0.2242  0.0340 -0.0719
 1105ntf    nn3 7383   5.087   4.964   4.450 -0.3003 -0.0580 -0.4177
 1105ntf    sn2 7384   5.068   4.836   4.361 -0.1037 -0.3768  0.0017
 1105ntf    cn1 7385   4.891   4.853   4.323 -0.1753 -0.7448  0.1652
 1105ntf    fn4 7386   5.308   5.105   4.581  0.5093  0.5639 -0.0074
 1105ntf    fn4 7387   5.370   5.023   4.399 -0.1536  0.3531 -0.6328
 1105ntf    fn4 7388   5.352   5.238   4.422  0.4718 -0.1956  0.6238
 1105ntf    on5 7389   5.062   5.212   4.488 -0.2523  0.2783 -0.3828
 1105ntf    on5 7390   5.118   5.137   4.262 -0.1667 -0.1409 -0.1068
 1105ntf    on5 7391   5.138   4.834   4.236  0.0689 -0.1957  0.0942
 1105ntf    on5 7392   5.076   4.717   4.442  0.8799 -0.0914  0.3412
 1105ntf    fn4 7393   4.875   4.976   4.278  0.2862 -0.4820  0.7138
 1105ntf    fn4 7394   4.814   4.846   4.430 -0.1866 -0.0265  0.2046
 1105ntf    fn4 7395   4.840   4.778   4.226 -0.0260 -0.3956 -0.1867
 1106ntf    cn1 7396   4.789   6.457   2.301 -0.4236 -0.1946 -0.7641
 1106ntf    sn2 7397   4.750   6.635   2.299 -0.0707 -0.1113 -0.2780
 1106ntf    nn3 7398   4.670   6.642   2.434  0.1698  0.2893 -0.1539
 1106ntf    sn2 7399   4.665   6.759   2.538  0.5825 -0.0821  0.2894
 1106ntf    cn1 7400   4.499   6.816   2.489  0.5157 -0.3749  0.1733
 1106ntf    fn4 7401   4.681   6.380   2.303  0.1435 -0.9753  0.3841
 1106ntf    fn4 7402   4.862   6.421   2.197  0.1340 -0.2993 -0.3370
 1106ntf    fn4 7403   4.849   6.421   2.413 -0.4989  0.3408 -0.5498
 1106ntf    on5 7404   4.886   6.683   2.306 -0.1841  0.0863  0.7642
 1106ntf    on5 7405   4.680   6.662   2.176 -0.8003 -0.0382  0.1516
 1106ntf    on5 7406   4.653   6.726   2.678  0.0122  0.3920  0.3598
 1106ntf    on5 7407   4.748   6.875   2.517  0.3497  0.0949  0.3324
 1106ntf    fn4 7408   4.405   6.724   2.475 -0.5074  0.6856 -0.1041
 1106ntf    fn4 7409   4.506   6.873   2.370  0.2041 -0.4677  0.1102
 1106ntf    fn4 7410   4.447   6.906   2.570 -0.5552 -0.5411 -0.3110
 1107ntf    cn1 7411   5.258   0.497   6.698 -0.5783 -0.7571 -0.3003
 1107ntf    sn2 7412   5.344   0.493   6.538 -0.3384  0.1757 -0.2055
 1107ntf    nn3 7413   5.439   0.616   6.560 -0.1847 -0.0995  0.7017
 1107ntf    sn2 7414   5.589   0.613   6.604  0.0241  0.2100  0.0249
 1107ntf    cn1 7415   5.678   0.555   6.456  0.1427  0.1961  0.1006
 1107ntf    fn4 7416   5.176   0.394   6.712 -0.7161 -0.6286 -0.1588
 1107ntf    fn4 7417   5.349   0.497   6.794 -0.7094  0.5533 -0.1540
 1107ntf    fn4 7418   5.189   0.610   6.706  0.1272 -0.3109 -0.4111
 1107ntf    on5 7419   5.405   0.362   6.541 -0.3208  0.1803 -0.3360
 1107ntf    on5 7420   5.241   0.507   6.438 -0.0295  0.1780 -0.5243
 1107ntf    on5 7421   5.644   0.745   6.618 -0.5058  0.3663  0.6821
 1107ntf    on5 7422   5.617   0.512   6.704  0.5780  0.3718  0.0395
 1107ntf    fn4 7423   5.612   0.454   6.401 -0.5197  0.6415  0.0651
 1107ntf    fn4 7424   5.797   0.506   6.486  0.0795 -0.0711 -0.0819
 1107ntf    fn4 7425   5.692   0.638   6.354 -0.0314  0.1557  0.0444
 1108ntf    cn1 7426   3.244   3.495   2.921 -0.0206 -0.0303 -0.4837
 1108ntf    sn2 7427   3.116   3.484   3.050  0.2588 -0.3844 -0.2339
 1108ntf    nn3 7428   3.174   3.372   3.142 -0.2137 -0.0619  0.4685
 1108ntf    sn2 7429   3.151   3.216   3.148  0.1898 -0.1247  0.4121
 1108ntf    cn1 7430   2.990   3.199   3.231  0.0351 -0.0656  0.1253
 1108ntf    fn4 7431   3.354   3.549   2.970  0.0344 -0.5582 -0.0247
 1108ntf    fn4 7432   3.287   3.381   2.871  0.4611  0.0236 -0.1973
 1108ntf    fn4 7433   3.207   3.579   2.826 -0.6062  0.1753 -0.0845
 1108ntf    on5 7434   3.115   3.615   3.111 -0.2091 -0.1875 -0.6559
 1108ntf    on5 7435   2.992   3.458   2.981 -0.0589  0.1721  0.1146
 1108ntf    on5 7436   3.130   3.150   3.022  0.7601 -0.3175  0.4165
 1108ntf    on5 7437   3.245   3.168   3.246  0.1019 -0.2447  0.4371
 1108ntf    fn4 7438   2.979   3.264   3.346  0.1559 -0.2345  0.2335
 1108ntf    fn4 7439   2.970   3.071   3.258 -0.2186  0.0124  0.3063
 1108ntf    fn4 7440   2.887   3.243   3.161  0.1956  0.0332 -0.0506
 1109ntf    cn1 7441   0.677   2.964   6.188 -0.2420 -0.3975  0.0575
 1109ntf    sn2 7442   0.600   2.840   6.081 -0.2992 -0.3646  0.0604
 1109ntf    nn3 7443   0.604   2.909   5.940 -0.5788  0.0750  0.2658
 1109ntf    sn2 7444   0.648   2.859   5.798  0.0180  0.3809  0.3397
 1109ntf    cn1 7445   0.824   2.896   5.822  0.0512  0.3292  0.1776
 1109ntf    fn4 7446   0.716   2.903   6.299  0.2981  0.0826  0.1367
 1109ntf    fn4 7447   0.779   3.028   6.132 -0.5777 -0.3496 -0.5081
 1109ntf    fn4 7448   0.586   3.050   6.231  0.2331 -0.0496  0.3898
 1109ntf    on5 7449   0.690   2.727   6.089 -0.0555 -0.1871 -0.1544
 1109ntf    on5 7450   0.472   2.823   6.145 -0.0539  0.0088  0.6586
 1109ntf    on5 7451   0.636   2.718   5.772 -0.0282  0.3102  0.7413
 1109ntf    on5 7452   0.604   2.948   5.693  0.1555  0.2065  0.1346
 1109ntf    fn4 7453   0.850   3.025   5.814  0.1662  0.2812 -0.2797
 1109ntf    fn4 7454   0.897   2.834   5.730 -0.6295 -0.0817 -0.0897
 1109ntf    fn4 7455   0.873   2.853   5.937 -0.5393 -0.3382  0.1848
 1110ntf    cn1 7456   4.108   4.731   4.803 -0.4247  0.0977 -0.2382
 1110ntf    sn2 7457   4.092   4.689   4.627 -0.0422 -0.2835 -0.1825
 1110ntf    nn3 7458   4.209   4.761   4.551 -0.2061 -0.3835 -0.5321
 1110ntf    sn2 7459   4.363   4.765   4.582 -0.3002  0.0251 -0.1088
 1110ntf    cn1 7460   4.451   4.682   4.447 -0.0746  0.3095 -0.1373
 1110ntf    fn4 7461   4.168   4.846   4.828 -0.1629 -0.1002  0.0451
 1110ntf    fn4 7462   3.992   4.725   4.867  0.0016 -0.3291  0.5105
 1110ntf    fn4 7463   4.181   4.636   4.859 -0.3412  0.3630  0.1076
 1110ntf    on5 7464   4.104   4.545   4.628 -0.4445 -0.3177  0.2444
 1110ntf    on5 7465   3.959   4.735   4.596  0.1697  0.4730  0.0300
 1110ntf    on5 7466   4.417   4.899   4.577  0.6724 -0.3580 -0.0578
 1110ntf    on5 7467   4.396   4.691   4.701  0.2634  0.0139 -0.2699
 1110ntf    fn4 7468   4.394   4.699   4.329 -0.5406  0.0921  0.0569
 1110ntf    fn4 7469   4.432   4.554   4.474  0.1657  0.1460 -0.7218
 1110ntf    fn4 7470   4.580   4.713   4.442  0.0195  0.0100  0.3753
 1111ntf    cn1 7471   4.575   0.225   4.584  0.1442 -0.1525 -0.0752
 1111ntf    sn2 7472   4.639   0.381   4.653 -0.2133  0.0068 -0.1023
 1111ntf    nn3 7473   4.765   0.398   4.561  0.3334  0.0010  0.6360
 1111ntf    sn2 7474   4.845   0.529   4.531 -0.0665  0.0867 -0.0773
 1111ntf    cn1 7475   4.778   0.562   4.365  0.1069  0.5222 -0.0643
 1111ntf    fn4 7476   4.669   0.133   4.571 -0.3945 -0.7760  0.3515
 1111ntf    fn4 7477   4.492   0.159   4.663 -0.3468 -0.0458 -0.4983
 1111ntf    fn4 7478   4.516   0.247   4.468  0.6645  0.2853 -0.2612
 1111ntf    on5 7479   4.534   0.477   4.629  0.3894  0.7720  0.2808
 1111ntf    on5 7480   4.676   0.340   4.786  0.2391 -0.1180 -0.2636
 1111ntf    on5 7481   4.822   0.647   4.611  0.1774 -0.1242  0.3012
 1111ntf    on5 7482   4.983   0.497   4.504 -0.2583 -0.7719 -0.0562
 1111ntf    fn4 7483   4.833   0.674   4.323 -0.0204  0.4429 -0.4452
 1111ntf    fn4 7484   4.647   0.581   4.357 -0.0258 -0.1595  0.3728
 1111ntf    fn4 7485   4.809   0.476   4.269  0.8365  0.0470  0.5879
 1112ntf    cn1 7486   1.341   2.970   2.439  0.1941  0.0378  0.5626
 1112ntf    sn2 7487   1.242   2.929   2.292  0.2732 -0.1457  0.5598
 1112ntf    nn3 7488   1.351   2.939   2.179  0.3805 -0.0505  0.6717
 1112ntf    sn2 7489   1.454   2.832   2.128  0.2154  0.1205 -0.0299
 1112ntf    cn1 7490   1.602   2.932   2.094  0.2475  0.3114  0.6408
 1112ntf    fn4 7491   1.271   2.988   2.549 -0.4971 -0.0896  0.1466
 1112ntf    fn4 7492   1.432   2.880   2.473  0.7736  0.2880 -0.2903
 1112ntf    fn4 7493   1.418   3.077   2.428 -0.0201  0.1457  0.1071
 1112ntf    on5 7494   1.189   2.798   2.317 -0.2701 -0.1133 -0.3773
 1112ntf    on5 7495   1.149   3.038   2.274 -0.0486 -0.3066  1.2055
 1112ntf    on5 7496   1.502   2.744   2.231  0.1985 -0.1407 -0.2462
 1112ntf    on5 7497   1.423   2.770   2.002  0.0216  0.7407 -0.2944
 1112ntf    fn4 7498   1.612   2.994   1.977  0.1301 -0.1011  0.4089
 1112ntf    fn4 7499   1.711   2.859   2.111  0.1212 -0.0037  0.1335
 1112ntf    fn4 7500   1.603   3.031   2.181  0.0921  0.4276  0.5121
 1113ntf    cn1 7501   3.456   0.556   1.353 -0.1359 -0.0842 -0.5103
 1113ntf    sn2 7502   3.355   0.478   1.224 -0.4002 -0.2139 -0.2255
 1113ntf    nn3 7503   3.460   0.468   1.108 -0.2354 -0.4564 -0.0581
 1113ntf    sn2 7504   3.566   0.357   1.078  0.0856 -0.1852  0.0610
 1113ntf    cn1 7505   3.717   0.452   1.045 -0.1204  0.1542  0.0960
 1113ntf    fn4 7506   3.548   0.473   1.400 -0.0354  0.5254  0.3837
 1113ntf    fn4 7507   3.529   0.658   1.310 -0.1486  0.1052 -0.0845
 1113ntf    fn4 7508   3.382   0.594   1.456  0.0121 -0.6533 -0.1869
 1113ntf    on5 7509   3.312   0.348   1.270  0.1373 -0.1622  0.4355
 1113ntf    on5 7510   3.253   0.577   1.201  0.2741  0.3520 -0.8453
 1113ntf    on5 7511   3.604   0.268   1.185 -0.7131 -0.6665 -0.0481
 1113ntf    on5 7512   3.545   0.293   0.950 -0.2115 -0.6298  0.3294
 1113ntf    fn4 7513   3.815   0.370   1.011  0.1310  0.4534  0.0854
 1113ntf    fn4 7514   3.764   0.500   1.159  0.5519  0.2123 -0.1963
 1113ntf    fn4 7515   3.708   0.553   0.960 -0.4697  0.3504  0.3621
 1114ntf    cn1 7516   2.693   4.926   3.824  0.1839 -0.4747  0.2544
 1114ntf    sn2 7517   2.874   4.904   3.821  0.1859 -0.4358  0.1116
 1114ntf    nn3 7518   2.914   5.022   3.725  0.3543 -0.4684  0.1425
 1114ntf    sn2 7519   3.037   5.119   3.723 -0.1886  0.2237  0.0487
 1114ntf    cn1 7520   2.995   5.204   3.568 -0.4245  0.0110 -0.0043
 1114ntf    fn4 7521   2.647   4.846   3.918  0.4881  0.1321  0.9342
 1114ntf    fn4 7522   2.661   5.050   3.858  0.0628 -0.2842 -0.5549
 1114ntf    fn4 7523   2.632   4.903   3.709 -0.3298  0.1983  0.3868
 1114ntf    on5 7524   2.917   4.915   3.958 -0.0648 -0.5766  0.2031
 1114ntf    on5 7525   2.886   4.772   3.764 -0.0809 -0.3231 -0.2117
 1114ntf    on5 7526   3.035   5.227   3.819  0.0713  0.6114 -0.3774
 1114ntf    on5 7527   3.164   5.058   3.691  0.1153  0.1179  1.3985
 1114ntf    fn4 7528   2.866   5.217   3.543 -0.1838  0.7468 -0.9265
 1114ntf    fn4 7529   3.045   5.136   3.466 -0.2415  0.1059  0.0207
 1114ntf    fn4 7530   3.045   5.327   3.568  0.7149 -0.4339 -0.3167
 1115ntf    cn1 7531   0.914   1.570   2.216  0.4829 -0.2346  0.2693
 1115ntf    sn2 7532   1.061   1.465   2.195  0.5195 -0.1765  0.2327
 1115ntf    nn3 7533   1.038   1.395   2.056  0.1922  0.1800  0.1057
 1115ntf    sn2 7534   1.091   1.250   2.028  0.3423  0.2503  0.0281
 1115ntf    cn1 7535   1.264   1.269   2.080  0.3409  0.0356  0.1093
 1115ntf    fn4 7536   0.923   1.662   2.311 -0.2479  0.4961 -0.3552
 1115ntf    fn4 7537   0.901   1.644   2.106 -0.0341 -0.8025 -0.0536
 1115ntf    fn4 7538   0.803   1.499   2.227  0.2567  0.0868  0.0886
 1115ntf    on5 7539   1.164   1.565   2.184 -0.0596  0.4512  0.4504
 1115ntf    on5 7540   1.060   1.388   2.317 -0.2762 -0.7843 -0.1532
 1115ntf    on5 7541   1.041   1.145   2.114  1.2762 -0.0947  0.1587
 1115ntf    on5 7542   1.097   1.221   1.887 -0.2197  0.1573  0.0206
 1115ntf    fn4 7543   1.328   1.153   2.071  0.0856 -0.0974 -0.0075
 1115ntf    fn4 7544   1.283   1.314   2.203 -0.4087 -0.1437  0.2944
 1115ntf    fn4 7545   1.337   1.354   2.010 -0.3001  0.0693 -0.5207
 1116ntf    cn1 7546   4.842   4.127   4.143  0.0446 -0.2027 -0.2643
 1116ntf    sn2 7547   4.704   4.011   4.119 -0.0127 -0.1224 -0.3285
 1116ntf    nn3 7548   4.786   3.879   4.093  0.2760  0.0260 -0.1724
 1116ntf    sn2 7549   4.825   3.761   4.189  0.0428 -0.0964 -0.2290
 1116ntf    cn1 7550   4.681   3.650   4.177  0.0055 -0.1041  0.2981
 1116ntf    fn4 7551   4.897   4.125   4.263 -0.3277  0.5449 -0.0783
 1116ntf    fn4 7552   4.942   4.115   4.057  0.0532 -0.2873 -0.2432
 1116ntf    fn4 7553   4.812   4.255   4.131  0.4376 -0.0864 -0.0263
 1116ntf    on5 7554   4.631   4.008   4.243  0.4971 -0.1125 -0.0242
 1116ntf    on5 7555   4.646   4.069   4.001  0.1332 -0.2972 -0.4883
 1116ntf    on5 7556   4.932   3.681   4.135 -0.1205 -0.2553 -0.3178
 1116ntf    on5 7557   4.836   3.790   4.330 -0.0471  0.3150 -0.3068
 1116ntf    fn4 7558   4.707   3.531   4.229  0.2133 -0.1517  0.0859
 1116ntf    fn4 7559   4.628   3.643   4.056  0.1183  0.7654  0.1892
 1116ntf    fn4 7560   4.590   3.702   4.258 -0.2032 -0.0533  0.0331
 1117ntf    cn1 7561   1.163   1.732   5.342 -0.1654  0.0671 -0.0324
 1117ntf    sn2 7562   1.261   1.682   5.198 -0.1457 -0.0143  0.0090
 1117ntf    nn3 7563   1.289   1.826   5.141 -0.1343  0.1396  0.4021
 1117ntf    sn2 7564   1.423   1.908   5.139  0.0792 -0.2181 -0.2554
 1117ntf    cn1 7565   1.479   1.879   4.968  0.1635  0.1302 -0.2884
 1117ntf    fn4 7566   1.039   1.764   5.309 -0.0695 -0.0674 -0.5278
 1117ntf    fn4 7567   1.147   1.636   5.432  0.1381  0.5035  0.4935
 1117ntf    fn4 7568   1.214   1.838   5.403 -0.1293  0.1158 -0.1475
 1117ntf    on5 7569   1.377   1.617   5.253  0.1977  0.1583 -0.5046
 1117ntf    on5 7570   1.169   1.602   5.121 -0.1554 -0.1356  0.1478
 1117ntf    on5 7571   1.401   2.050   5.146 -0.1483 -0.2851  0.4594
 1117ntf    on5 7572   1.529   1.858   5.223 -0.3090 -0.2963  0.1923
 1117ntf    fn4 7573   1.404   1.929   4.872  0.0771  0.2716 -0.1471
 1117ntf    fn4 7574   1.507   1.751   4.946  0.5682  0.0667  0.5514
 1117ntf    fn4 7575   1.595   1.943   4.966  0.3061 -0.0932  0.3870
 1118ntf    cn1 7576   4.263   1.107   3.543 -0.0178  0.3313 -0.4081
 1118ntf    sn2 7577   4.309   1.094   3.368  0.1474  0.1518 -0.3517
 1118ntf    nn3 7578   4.188   1.170   3.303 -0.0332  0.4443  0.3122
 1118ntf    sn2 7579   4.137   1.216   3.162 -0.3148  0.2886  0.3636
 1118ntf    cn1 7580   4.146   1.396   3.179 -0.0621  0.3009  0.1020
 1118ntf    fn4 7581   4.147   1.050   3.572  0.0998  0.3783  0.1702
 1118ntf    fn4 7582   4.358   1.060   3.623 -0.4669  0.1898  0.0502
 1118ntf    fn4 7583   4.238   1.231   3.581  0.7212  0.2721  0.3189
 1118ntf    on5 7584   4.435   1.164   3.362  0.3034  0.0021  0.8870
 1118ntf    on5 7585   4.309   0.952   3.343 -0.1562  0.0012  0.4708
 1118ntf    on5 7586   4.226   1.182   3.053 -0.7870 -0.1979  0.1226
 1118ntf    on5 7587   3.996   1.196   3.135 -0.1526 -0.1484 -0.1946
 1118ntf    fn4 7588   4.268   1.446   3.159 -0.1675  0.6505  0.3215
 1118ntf    fn4 7589   4.104   1.426   3.301  0.0764  0.0320  0.2175
 1118ntf    fn4 7590   4.063   1.458   3.096 -0.2264 -0.5224 -0.3545
 1119ntf    cn1 7591   5.240   1.222   3.615 -0.1301  0.1091  0.2180
 1119ntf    sn2 7592   5.161   1.121   3.744  0.4871 -0.0996  0.4385
 1119ntf    nn3 7593   5.265   1.004   3.756 -0.2955 -0.8364  0.1454
 1119ntf    sn2 7594   5.394   0.993   3.844 -0.1989 -0.4105  0.0573
 1119ntf    cn1 7595   5.331   0.967   4.012 -0.1495  0.1699  0.1681
 1119ntf    fn4 7596   5.363   1.261   3.645  0.0064  0.6649 -0.9893
 1119ntf    fn4 7597   5.244   1.155   3.500 -0.0855 -0.0077  0.2873
 1119ntf    fn4 7598   5.171   1.330   3.584 -0.0183  0.2327  0.4033
 1119ntf    on5 7599   5.150   1.207   3.858 -0.1559 -0.0974  0.3781
 1119ntf    on5 7600   5.040   1.080   3.675  0.1582  1.1448  0.2486
 1119ntf    on5 7601   5.477   0.877   3.823  0.3755  0.0194 -0.1010
 1119ntf    on5 7602   5.470   1.116   3.847 -0.4927 -0.1703 -1.3941
 1119ntf    fn4 7603   5.272   1.080   4.047  0.1076  0.4230 -0.2054
 1119ntf    fn4 7604   5.427   0.944   4.101 -0.1715 -0.0062  0.1458
 1119ntf    fn4 7605   5.248   0.865   4.021 -0.5132  0.4351 -0.1927
 1120ntf    cn1 7606   0.025   0.069   2.742 -0.3269  0.1845 -0.0471
 1120ntf    sn2 7607   0.176  -0.010   2.680 -0.3186  0.1513  0.0157
 1120ntf    nn3 7608   0.133  -0.101   2.559 -0.4484  0.4192 -0.1392
 1120ntf    sn2 7609   0.219  -0.138   2.433  0.0165 -0.2992  0.3818
 1120ntf    cn1 7610   0.276  -0.305   2.478  0.2312 -0.2930  0.1332
 1120ntf    fn4 7611  -0.078  -0.013   2.730  0.0842 -0.4054  0.4100
 1120ntf    fn4 7612   0.039   0.102   2.869 -0.4467 -0.2278  0.0730
 1120ntf    fn4 7613  -0.008   0.184   2.685 -0.3202  0.4504  0.4746
 1120ntf    on5 7614   0.257   0.103   2.642  0.2132  0.0012  0.6751
 1120ntf    on5 7615   0.230  -0.085   2.792  0.0610  0.2520 -0.0980
 1120ntf    on5 7616   0.137  -0.171   2.319  0.5060 -0.0072 -0.0592
 1120ntf    on5 7617   0.345  -0.072   2.410 -0.2487  0.0138 -0.1858
 1120ntf    fn4 7618   0.363  -0.308   2.578  0.5062  0.3281 -0.0821
 1120ntf    fn4 7619   0.341  -0.356   2.375  0.2825  0.4121 -0.1916
 1120ntf    fn4 7620   0.175  -0.377   2.525  0.3011 -0.1573  0.4938
 1121ntf    cn1 7621   3.520   1.122   5.375 -0.2997  0.0427  0.0485
 1121ntf    sn2 7622   3.481   1.284   5.302 -0.0830  0.0991  0.0559
 1121ntf    nn3 7623   3.551   1.384   5.400  0.0052  0.0908  0.0006
 1121ntf    sn2 7624   3.612   1.525   5.364 -0.1917  0.1701 -0.0220
 1121ntf    cn1 7625   3.790   1.488   5.372 -0.0671  0.6796 -0.3959
 1121ntf    fn4 7626   3.471   1.024   5.301  0.1527 -0.2543  0.1402
 1121ntf    fn4 7627   3.649   1.097   5.392 -0.2985  0.0583  0.0610
 1121ntf    fn4 7628   3.466   1.111   5.495  0.4838 -0.1816  0.3839
 1121ntf    on5 7629   3.539   1.272   5.171 -0.2739 -0.2851  0.0060
 1121ntf    on5 7630   3.337   1.289   5.306 -0.0957  0.3057 -0.5847
 1121ntf    on5 7631   3.594   1.567   5.227 -0.0829 -0.1275 -0.1293
 1121ntf    on5 7632   3.596   1.620   5.471 -0.1844  0.5758 -0.3799
 1121ntf    fn4 7633   3.834   1.489   5.497 -0.2829  0.0474 -0.3089
 1121ntf    fn4 7634   3.872   1.577   5.319  0.2367  0.7413  0.1676
 1121ntf    fn4 7635   3.814   1.372   5.314 -0.0877  0.1523  0.6366
 1122ntf    cn1 7636   3.911   2.039   1.899 -0.0697  0.1132 -0.2910
 1122ntf    sn2 7637   4.075   2.089   1.960 -0.1494  0.2052 -0.1546
 1122ntf    nn3 7638   4.116   2.199   1.856 -0.2893  0.0456 -0.3800
 1122ntf    sn2 7639   4.094   2.355   1.860 -0.0252  0.0816 -0.2913
 1122ntf    cn1 7640   4.217   2.395   1.987 -0.2130  0.3711 -0.2015
 1122ntf    fn4 7641   3.913   1.962   1.791 -0.5070  0.0951 -0.2889
 1122ntf    fn4 7642   3.836   1.980   1.990  0.2033  0.0578 -0.0987
 1122ntf    fn4 7643   3.831   2.137   1.863 -0.3569  0.1018  0.3127
 1122ntf    on5 7644   4.047   2.131   2.095 -0.5197 -0.3189 -0.0641
 1122ntf    on5 7645   4.146   1.966   1.938 -0.2007  0.2869 -0.7811
 1122ntf    on5 7646   4.159   2.413   1.745  0.0387  0.4321 -0.0789
 1122ntf    on5 7647   3.969   2.411   1.902  0.1839  0.5207 -0.2552
 1122ntf    fn4 7648   4.169   2.358   2.104 -0.0825  0.5860 -0.0777
 1122ntf    fn4 7649   4.241   2.525   1.993  0.4489  0.2420  0.1350
 1122ntf    fn4 7650   4.332   2.333   1.964 -0.2539  0.2562 -0.0947
 1123ntf    cn1 7651   0.215   1.658   3.798  0.4928 -0.5206 -0.3136
 1123ntf    sn2 7652   0.170   1.662   3.622  0.0488 -0.0836 -0.1909
 1123ntf    nn3 7653   0.292   1.600   3.547  0.0494 -0.7339  0.3382
 1123ntf    sn2 7654   0.420   1.665   3.482 -0.1059 -0.3202  0.4459
 1123ntf    cn1 7655   0.547   1.645   3.611  0.0414 -0.5480  0.2661
 1123ntf    fn4 7656   0.301   1.563   3.832  0.0774 -0.6322  0.4602
 1123ntf    fn4 7657   0.286   1.764   3.834 -0.0069 -0.3188  0.0986
 1123ntf    fn4 7658   0.118   1.647   3.888  0.5040  0.0338 -0.2310
 1123ntf    on5 7659   0.056   1.573   3.621 -0.0810  0.0699  0.3253
 1123ntf    on5 7660   0.134   1.799   3.592  0.2263 -0.0209 -0.1158
 1123ntf    on5 7661   0.472   1.589   3.372 -0.2496 -0.0233  0.1732
 1123ntf    on5 7662   0.428   1.808   3.467  0.0243 -0.3738 -0.0068
 1123ntf    fn4 7663   0.544   1.527   3.670 -0.3827 -0.5788  0.1874
 1123ntf    fn4 7664   0.520   1.734   3.705  0.0677 -0.1094 -0.1343
 1123ntf    fn4 7665   0.671   1.666   3.569 -0.0741 -0.1922  0.0945
 1124ntf    cn1 7666   1.324   6.224   2.927 -0.0385  0.0376 -0.0449
 1124ntf    sn2 7667   1.301   6.045   2.904 -0.0182  0.0810 -0.4098
 1124ntf    nn3 7668   1.153   6.031   2.954  0.2294 -0.5219  0.1602
 1124ntf    sn2 7669   1.012   6.019   2.887  0.2539 -0.0433  0.0175
 1124ntf    cn1 7670   1.008   5.848   2.825  0.0783 -0.1729  0.3848
 1124ntf    fn4 7671   1.364   6.246   3.051 -0.1146 -0.5495  0.0871
 1124ntf    fn4 7672   1.424   6.277   2.858  0.5282 -0.3600  0.4605
 1124ntf    fn4 7673   1.212   6.293   2.916 -0.3807 -0.3301  1.0359
 1124ntf    on5 7674   1.336   6.020   2.766  0.1700 -0.0599 -0.3362
 1124ntf    on5 7675   1.398   5.994   2.998  0.2571 -0.1523 -0.8138
 1124ntf    on5 7676   0.906   6.022   2.985  0.2924  0.3635  0.0489
 1124ntf    on5 7677   0.998   6.105   2.772  0.4862 -0.4198 -0.2942
 1124ntf    fn4 7678   0.890   5.817   2.774  0.1127 -0.0765  0.2482
 1124ntf    fn4 7679   1.035   5.761   2.921  0.7589  0.3164  0.6471
 1124ntf    fn4 7680   1.093   5.822   2.728 -0.2179 -0.0781  0.0972
 1125ntf    cn1 7681   6.256   1.737   5.812 -0.1826  0.4564  0.2724
 1125ntf    sn2 7682   6.136   1.615   5.874  0.1591 -0.1172 -0.1891
 1125ntf    nn3 7683   6.209   1.479   5.842  0.3140 -0.0152 -0.2738
 1125ntf    sn2 7684   6.333   1.412   5.911  0.3588  0.1325 -0.2093
 1125ntf    cn1 7685   6.335   1.271   5.796  0.1300 -0.1813  0.1678
 1125ntf    fn4 7686   6.213   1.861   5.830  0.2900  0.6382  0.1658
 1125ntf    fn4 7687   6.372   1.730   5.876 -0.1050 -0.7822  0.0181
 1125ntf    fn4 7688   6.286   1.716   5.685  0.1714 -0.0960  0.4433
 1125ntf    on5 7689   6.132   1.643   6.015 -0.3760  0.2638 -0.2808
 1125ntf    on5 7690   6.022   1.642   5.791 -0.1503 -0.5116  0.1028
 1125ntf    on5 7691   6.457   1.484   5.896  0.3520  0.0113 -0.8729
 1125ntf    on5 7692   6.300   1.353   6.038  0.5708  0.3189 -0.0679
 1125ntf    fn4 7693   6.346   1.301   5.668  0.3383  0.3354  0.3028
 1125ntf    fn4 7694   6.224   1.200   5.803 -0.1237  0.2411  0.5131
 1125ntf    fn4 7695   6.436   1.191   5.825  0.4050  0.1626  0.1651
 1126ntf    cn1 7696   3.370   2.276   4.549  0.5000  0.0703  0.0279
 1126ntf    sn2 7697   3.433   2.258   4.718 -0.3421 -0.0115  0.3371
 1126ntf    nn3 7698   3.512   2.123   4.709 -0.6494 -0.1495 -0.2838
 1126ntf    sn2 7699   3.535   2.001   4.805  0.0231  0.2028  0.0057
 1126ntf    cn1 7700   3.706   2.022   4.863  0.1272  0.1856 -0.2912
 1126ntf    fn4 7701   3.468   2.321   4.472  0.1048 -0.0176 -0.5347
 1126ntf    fn4 7702   3.323   2.164   4.496  0.1553  0.2613 -0.0712
 1126ntf    fn4 7703   3.271   2.364   4.546  0.0600 -0.4114  0.3678
 1126ntf    on5 7704   3.520   2.372   4.736 -0.1160 -0.2214  0.5948
 1126ntf    on5 7705   3.313   2.250   4.798 -0.5379  0.2523  0.0732
 1126ntf    on5 7706   3.448   1.996   4.920 -0.2553  0.1192 -0.2075
 1126ntf    on5 7707   3.528   1.875   4.736 -0.1330 -0.0599  0.4996
 1126ntf    fn4 7708   3.734   1.976   4.984  0.1431  0.5326 -0.1594
 1126ntf    fn4 7709   3.747   2.148   4.870 -0.3706  0.3282  0.1419
 1126ntf    fn4 7710   3.784   1.958   4.778 -0.4350  0.1111 -0.7568
 1127ntf    cn1 7711   6.636   3.179   6.011  0.4211 -0.1809  0.0694
 1127ntf    sn2 7712   6.607   3.268   5.856  0.1283 -0.3129  0.0480
 1127ntf    nn3 7713   6.751   3.259   5.794  0.1268 -0.0393  0.0022
 1127ntf    sn2 7714   6.849   3.377   5.762 -0.1167  0.1810  0.0762
 1127ntf    cn1 7715   6.788   3.434   5.600  0.0104 -0.1467 -0.0876
 1127ntf    fn4 7716   6.745   3.218   6.075  0.1921  0.2579  0.1936
 1127ntf    fn4 7717   6.529   3.195   6.087  0.2617 -0.1585 -0.1585
 1127ntf    fn4 7718   6.644   3.048   5.992 -0.3284 -0.2511  0.2213
 1127ntf    on5 7719   6.506   3.187   5.794  0.2039 -0.7410  0.4795
 1127ntf    on5 7720   6.571   3.400   5.900  0.8262 -0.1827  0.2449
 1127ntf    on5 7721   6.836   3.486   5.855 -1.0703 -0.1473  0.3423
 1127ntf    on5 7722   6.979   3.322   5.737 -0.4052 -0.6417  0.3502
 1127ntf    fn4 7723   6.659   3.465   5.596  0.0156 -0.1758 -0.4736
 1127ntf    fn4 7724   6.814   3.342   5.508  0.1202  0.1063 -0.3112
 1127ntf    fn4 7725   6.859   3.543   5.573 -0.1156 -0.0392  0.0135
 1128ntf    cn1 7726   4.259   2.118   1.308 -0.2114 -0.1875  0.1233
 1128ntf    sn2 7727   4.322   2.036   1.158  0.2809  0.3306  0.0449
 1128ntf    nn3 7728   4.233   2.107   1.049  0.4336  0.2361 -0.1414
 1128ntf    sn2 7729   4.116   2.050   0.961 -0.0749  0.3188  0.4731
 1128ntf    cn1 7730   4.205   1.963   0.829 -0.1751  0.3518  0.3830
 1128ntf    fn4 7731   4.292   2.245   1.324  0.6803 -0.3878 -0.0575
 1128ntf    fn4 7732   4.129   2.100   1.326 -0.2568 -0.0468 -0.0692
 1128ntf    fn4 7733   4.309   2.050   1.411 -0.0577  0.1788  0.2914
 1128ntf    on5 7734   4.460   2.074   1.144  0.3204  0.0754 -0.2733
 1128ntf    on5 7735   4.286   1.898   1.177 -0.3149  0.4701 -0.0531
 1128ntf    on5 7736   4.036   1.950   1.027 -0.2353 -0.3616 -0.7261
 1128ntf    on5 7737   4.050   2.154   0.885 -0.1749 -0.3365 -0.3558
 1128ntf    fn4 7738   4.129   1.909   0.735 -0.5828  0.2229  0.7824
 1128ntf    fn4 7739   4.288   1.870   0.875 -0.4229 -0.1357 -0.1319
 1128ntf    fn4 7740   4.286   2.048   0.768  0.3239 -0.2894  0.1343
 1129ntf    cn1 7741   2.281   4.334   5.009 -0.1665 -0.5729  0.2107
 1129ntf    sn2 7742   2.220   4.345   5.179 -0.3245 -0.1357  0.1266
 1129ntf    nn3 7743   2.329   4.429   5.254 -0.3809  0.1375 -0.0976
 1129ntf    sn2 7744   2.319   4.577   5.306 -0.0345  0.0891  0.1118
 1129ntf    cn1 7745   2.495   4.624   5.296  0.0439 -0.1896  0.1757
 1129ntf    fn4 7746   2.306   4.458   4.970  0.0225 -0.6510  0.0778
 1129ntf    fn4 7747   2.393   4.265   4.991  0.0674  0.0538 -0.8567
 1129ntf    fn4 7748   2.201   4.275   4.921  0.4433 -0.2021 -0.6064
 1129ntf    on5 7749   2.089   4.404   5.165 -0.1847  0.1703  0.1136
 1129ntf    on5 7750   2.217   4.206   5.218  0.0534 -0.1894 -0.0338
 1129ntf    on5 7751   2.257   4.664   5.209 -0.2463 -0.3902 -0.1830
 1129ntf    on5 7752   2.274   4.589   5.442  0.1790 -0.7195  0.2587
 1129ntf    fn4 7753   2.514   4.753   5.320 -0.0979 -0.1840  0.2587
 1129ntf    fn4 7754   2.537   4.598   5.174  0.0368  0.2813  0.0718
 1129ntf    fn4 7755   2.566   4.553   5.382  0.0761 -0.0548  0.2619
 1130ntf    cn1 7756   0.710   1.056   3.100 -0.2876 -0.0082  0.0038
 1130ntf    sn2 7757   0.829   1.182   3.043 -0.1684 -0.1456 -0.0518
 1130ntf    nn3 7758   0.749   1.312   3.081  0.2385  0.1147 -0.0783
 1130ntf    sn2 7759   0.648   1.397   2.997 -0.2087 -0.0191  0.3196
 1130ntf    cn1 7760   0.756   1.515   2.910 -0.0909 -0.2710  0.1229
 1130ntf    fn4 7761   0.590   1.094   3.059 -0.3863 -0.1030  0.2025
 1130ntf    fn4 7762   0.733   0.937   3.047  0.1274 -0.1666  0.5325
 1130ntf    fn4 7763   0.706   1.054   3.232 -0.2894 -0.2072  0.0009
 1130ntf    on5 7764   0.938   1.165   3.136  0.1671 -0.3063 -0.4707
 1130ntf    on5 7765   0.843   1.155   2.903 -1.5132 -0.5593 -0.1240
 1130ntf    on5 7766   0.584   1.331   2.885  0.1285  0.3831 -0.1132
 1130ntf    on5 7767   0.567   1.471   3.090 -0.0600 -0.2087  0.5998
 1130ntf    fn4 7768   0.829   1.582   2.997 -0.4094  0.3683 -0.1012
 1130ntf    fn4 7769   0.687   1.609   2.849  0.0291 -0.0905  0.2659
 1130ntf    fn4 7770   0.837   1.461   2.821  0.3819  0.1352  0.3061
 1131ntf    cn1 7771   2.761   1.604   0.258  0.1521  0.2297 -0.1735
 1131ntf    sn2 7772   2.940   1.573   0.275  0.0820 -0.1924 -0.2040
 1131ntf    nn3 7773   2.976   1.526   0.129  0.4886  0.3340 -0.2746
 1131ntf    sn2 7774   3.003   1.384   0.067 -0.2014 -0.1181  0.4369
 1131ntf    cn1 7775   3.185   1.389   0.067 -0.1991 -0.2208  0.1066
 1131ntf    fn4 7776   2.708   1.645   0.372  0.2085  0.1263 -0.1087
 1131ntf    fn4 7777   2.740   1.711   0.183  0.0058  0.3433  0.0279
 1131ntf    fn4 7778   2.701   1.500   0.202 -0.2423  0.6304 -0.4987
 1131ntf    on5 7779   2.999   1.700   0.305 -0.0643 -0.2461  0.3146
 1131ntf    on5 7780   2.941   1.477   0.383 -0.1876  0.1268  0.0838
 1131ntf    on5 7781   2.981   1.268   0.149  0.1112 -0.5506 -0.0846
 1131ntf    on5 7782   2.967   1.364  -0.071  0.7758  0.0253  0.1555
 1131ntf    fn4 7783   3.237   1.278   0.016  0.7525  0.2278  0.0768
 1131ntf    fn4 7784   3.227   1.419   0.189 -0.0833 -0.3336  0.0943
 1131ntf    fn4 7785   3.234   1.489  -0.004  0.8145 -0.5137  0.3768
 1132ntf    cn1 7786   3.336   6.334   0.823 -0.1701  0.3273 -0.3412
 1132ntf    sn2 7787   3.440   6.418   0.946 -0.1910  0.0636 -0.1435
 1132ntf    nn3 7788   3.580   6.359   0.905  0.2943  0.7565  0.4765
 1132ntf    sn2 7789   3.635   6.226   0.967 -0.5758  0.1645  0.0078
 1132ntf    cn1 7790   3.700   6.305   1.117 -0.2106 -0.4555  0.1804
 1132ntf    fn4 7791   3.335   6.207   0.859 -0.5882  0.4955  0.2583
 1132ntf    fn4 7792   3.211   6.377   0.816 -0.3336 -0.2075 -0.7293
 1132ntf    fn4 7793   3.385   6.347   0.701 -0.0041  0.4625 -0.2600
 1132ntf    on5 7794   3.418   6.558   0.918 -0.1871  0.0436 -0.2441
 1132ntf    on5 7795   3.392   6.377   1.076 -0.2048 -0.1473 -0.2146
 1132ntf    on5 7796   3.545   6.123   1.012  0.2928 -0.7092 -0.2002
 1132ntf    on5 7797   3.753   6.188   0.893 -0.8926 -0.3614 -0.2309
 1132ntf    fn4 7798   3.608   6.352   1.200 -0.5753 -0.2922 -0.3143
 1132ntf    fn4 7799   3.782   6.403   1.083 -0.2279 -0.5436 -0.1128
 1132ntf    fn4 7800   3.779   6.222   1.184 -0.2136 -0.5454  0.0711
 1133ntf    cn1 7801   0.774   3.213   3.179 -0.4640 -0.4823 -0.1016
 1133ntf    sn2 7802   0.686   3.146   3.324  0.1173 -0.1755  0.4007
 1133ntf    nn3 7803   0.761   3.010   3.346  0.1938 -0.1710  0.1699
 1133ntf    sn2 7804   0.815   2.946   3.478  0.2315  0.0497  0.2616
 1133ntf    cn1 7805   0.995   2.964   3.470  0.2594 -0.2035  0.3131
 1133ntf    fn4 7806   0.904   3.203   3.200 -0.3748  0.0328 -0.4107
 1133ntf    fn4 7807   0.752   3.140   3.071 -0.7964  0.1126 -0.4369
 1133ntf    fn4 7808   0.748   3.339   3.150 -0.0445 -0.4399 -0.2940
 1133ntf    on5 7809   0.704   3.248   3.424 -0.3535  0.2656  0.0446
 1133ntf    on5 7810   0.552   3.128   3.271  0.3850 -0.2717 -0.2591
 1133ntf    on5 7811   0.771   2.997   3.606  0.4060  0.3921  0.1835
 1133ntf    on5 7812   0.809   2.802   3.474 -0.6652  0.0943 -0.3020
 1133ntf    fn4 7813   1.052   2.902   3.368  0.0572  0.2615 -0.0850
 1133ntf    fn4 7814   1.051   2.917   3.581  0.4799  0.0487  0.3096
 1133ntf    fn4 7815   1.025   3.093   3.463  0.1514 -0.1875  0.1470
 1134ntf    cn1 7816   3.128   6.295   3.336  0.0013  0.4913  0.5464
 1134ntf    sn2 7817   2.972   6.239   3.411 -0.1539 -0.0294 -0.1579
 1134ntf    nn3 7818   2.883   6.367   3.388 -0.0958  0.0206 -0.1046
 1134ntf    sn2 7819   2.772   6.392   3.279 -0.2167 -0.3685 -0.0722
 1134ntf    cn1 7820   2.727   6.563   3.323  0.3375 -0.1101 -0.4935
 1134ntf    fn4 7821   3.228   6.238   3.400  0.3497  0.2974 -0.1608
 1134ntf    fn4 7822   3.136   6.268   3.207 -1.3540  0.5546  0.4303
 1134ntf    fn4 7823   3.148   6.425   3.349 -0.3365  0.5675  0.3264
 1134ntf    on5 7824   2.935   6.129   3.325  0.4743 -0.0504 -0.4059
 1134ntf    on5 7825   3.002   6.207   3.548 -0.4343 -0.2514 -0.1471
 1134ntf    on5 7826   2.828   6.401   3.147  0.5558  0.7012  0.3080
 1134ntf    on5 7827   2.652   6.312   3.289 -0.3366 -0.1879 -0.0687
 1134ntf    fn4 7828   2.671   6.562   3.443  0.3449  0.1544 -0.4874
 1134ntf    fn4 7829   2.646   6.630   3.242 -0.1714  0.5585  0.5590
 1134ntf    fn4 7830   2.838   6.633   3.336  0.1321  0.1249 -0.0088
 1135ntf    cn1 7831   6.416   5.894   1.798 -0.0304 -0.3912 -0.2468
 1135ntf    sn2 7832   6.553   5.794   1.862  0.1557  0.0964  0.1234
 1135ntf    nn3 7833   6.648   5.912   1.903 -0.2342  0.2422  0.6217
 1135ntf    sn2 7834   6.805   5.910   1.918 -0.1670 -0.2611 -0.0922
 1135ntf    cn1 7835   6.824   5.999   2.075  0.0902 -0.2177 -0.1494
 1135ntf    fn4 7836   6.344   5.941   1.899  0.1414 -0.7047  0.0229
 1135ntf    fn4 7837   6.462   5.997   1.729  0.3312 -0.4541 -0.1013
 1135ntf    fn4 7838   6.335   5.829   1.715  0.2377 -0.2268 -0.6398
 1135ntf    on5 7839   6.497   5.716   1.970  0.1968 -0.1153 -0.0076
 1135ntf    on5 7840   6.591   5.728   1.739  0.6654  0.2457  0.1994
 1135ntf    on5 7841   6.866   5.783   1.947  0.0084 -0.0069  0.6779
 1135ntf    on5 7842   6.865   5.992   1.816 -0.5516 -0.1689 -0.2473
 1135ntf    fn4 7843   6.774   6.120   2.056  0.0495 -0.1548  0.3481
 1135ntf    fn4 7844   6.950   6.011   2.116  0.1656 -0.5565 -0.2753
 1135ntf    fn4 7845   6.757   5.952   2.179 -0.3137  0.7953  0.0637
 1136ntf    cn1 7846   1.493   1.449   3.106  0.1971  0.0344 -0.3704
 1136ntf    sn2 7847   1.548   1.276   3.109  0.1820  0.0336 -0.1223
 1136ntf    nn3 7848   1.608   1.272   2.964  0.1462 -0.6058 -0.1261
 1136ntf    sn2 7849   1.615   1.159   2.855 -0.2250 -0.2836 -0.4891
 1136ntf    cn1 7850   1.795   1.132   2.859 -0.1869  0.0232 -0.0136
 1136ntf    fn4 7851   1.596   1.526   3.137  0.3264 -0.1093 -0.4430
 1136ntf    fn4 7852   1.433   1.486   2.994  0.2524  0.2133 -0.3408
 1136ntf    fn4 7853   1.401   1.471   3.199  0.4117 -0.8753  0.0656
 1136ntf    on5 7854   1.650   1.267   3.210  0.0953 -0.4079 -0.0704
 1136ntf    on5 7855   1.423   1.206   3.127  0.1242  0.2038  0.1403
 1136ntf    on5 7856   1.561   1.029   2.886 -0.4600  0.0181  0.4236
 1136ntf    on5 7857   1.586   1.213   2.725 -0.3578 -0.4893 -0.5438
 1136ntf    fn4 7858   1.834   1.053   2.957 -0.1280  0.0626 -0.0053
 1136ntf    fn4 7859   1.856   1.248   2.877 -0.1837  0.1077 -0.5584
 1136ntf    fn4 7860   1.840   1.083   2.745  0.3959 -0.5904  0.4682
 1137ntf    cn1 7861   4.622   5.106   5.554 -0.0702 -0.2300 -0.0557
 1137ntf    sn2 7862   4.636   5.016   5.711 -0.1383 -0.0708  0.0417
 1137ntf    nn3 7863   4.743   4.910   5.667  0.5577  0.7754 -0.3393
 1137ntf    sn2 7864   4.843   4.840   5.766  0.2148  0.3053 -0.3187
 1137ntf    cn1 7865   4.978   4.959   5.795  0.3328  0.0960 -0.0045
 1137ntf    fn4 7866   4.532   5.203   5.558  0.0717 -0.0979 -0.1083
 1137ntf    fn4 7867   4.736   5.155   5.509  0.0235  0.0821  0.5254
 1137ntf    fn4 7868   4.579   5.028   5.455  0.0370  0.2483 -0.4826
 1137ntf    on5 7869   4.700   5.115   5.793 -0.0480  0.0257 -0.1432
 1137ntf    on5 7870   4.503   4.967   5.738 -0.1851  0.0502  0.0295
 1137ntf    on5 7871   4.789   4.814   5.897 -0.1230 -0.3663 -0.5876
 1137ntf    on5 7872   4.908   4.725   5.709  0.3177  0.1115  0.1843
 1137ntf    fn4 7873   4.938   5.064   5.865 -0.2330  0.1875 -0.4533
 1137ntf    fn4 7874   5.027   5.008   5.683  0.4656 -0.0047  0.0095
 1137ntf    fn4 7875   5.072   4.909   5.873  0.4092 -0.0953 -0.2190
 1138ntf    cn1 7876   3.555   2.287   5.902  0.2593 -0.2827  0.0029
 1138ntf    sn2 7877   3.600   2.421   6.015 -0.1052 -0.0148 -0.1681
 1138ntf    nn3 7878   3.559   2.547   5.931  0.1411 -0.0495 -0.3407
 1138ntf    sn2 7879   3.500   2.681   5.987  0.1098 -0.2129  0.0183
 1138ntf    cn1 7880   3.324   2.660   5.947  0.2003 -0.2868 -0.3444
 1138ntf    fn4 7881   3.428   2.299   5.869  0.2357 -0.5884 -0.0194
 1138ntf    fn4 7882   3.613   2.288   5.783 -0.6430  0.2359 -0.4434
 1138ntf    fn4 7883   3.569   2.162   5.943  0.2452 -0.3537 -0.2060
 1138ntf    on5 7884   3.524   2.394   6.135 -0.6499  0.3925 -0.4179
 1138ntf    on5 7885   3.744   2.417   6.023 -0.0993  0.4216 -0.0017
 1138ntf    on5 7886   3.508   2.693   6.131  0.4271 -0.6668  0.0397
 1138ntf    on5 7887   3.545   2.793   5.908 -0.2903  0.0542  0.1633
 1138ntf    fn4 7888   3.306   2.640   5.818 -0.0985  0.3629 -0.4092
 1138ntf    fn4 7889   3.253   2.769   5.974  0.5428 -0.1868  0.1755
 1138ntf    fn4 7890   3.273   2.560   6.018 -0.5280  0.5568  0.3480
 1139ntf    cn1 7891   5.923   6.183   5.580  0.0607 -0.1306 -0.2982
 1139ntf    sn2 7892   5.796   6.289   5.654  0.2196 -0.0238 -0.1784
 1139ntf    nn3 7893   5.808   6.410   5.555 -0.2627 -0.1205 -0.3566
 1139ntf    sn2 7894   5.859   6.555   5.588  0.0439 -0.2544 -0.2432
 1139ntf    cn1 7895   5.766   6.597   5.738  0.4617  0.0250 -0.0604
 1139ntf    fn4 7896   5.924   6.059   5.626  0.4844 -0.2298 -0.5699
 1139ntf    fn4 7897   5.904   6.174   5.449  0.7926  0.6019 -0.4633
 1139ntf    fn4 7898   6.044   6.231   5.602  0.1586 -0.4775 -0.0679
 1139ntf    on5 7899   5.673   6.215   5.639  0.1215  0.1125 -0.0543
 1139ntf    on5 7900   5.834   6.325   5.789  0.7191  0.0979 -0.3504
 1139ntf    on5 7901   5.996   6.558   5.632  0.0578 -0.1726 -0.2916
 1139ntf    on5 7902   5.812   6.644   5.484  0.5046 -0.7308 -0.8725
 1139ntf    fn4 7903   5.722   6.721   5.739  0.3807 -0.0042  0.0158
 1139ntf    fn4 7904   5.829   6.581   5.853 -0.0052 -0.7000  0.1001
 1139ntf    fn4 7905   5.657   6.523   5.749  0.5026 -0.0920 -0.4168
 1140ntf    cn1 7906   6.174   3.452   3.717 -0.0290 -0.2292 -0.3139
 1140ntf    sn2 7907   6.324   3.349   3.720  0.2039  0.1202  0.1087
 1140ntf    nn3 7908   6.285   3.223   3.635 -0.4626  0.3346  0.0897
 1140ntf    sn2 7909   6.309   3.184   3.485  0.0453  0.1386  0.2192
 1140ntf    cn1 7910   6.143   3.131   3.434  0.0895  0.3764 -0.1797
 1140ntf    fn4 7911   6.185   3.553   3.632 -0.2182 -0.1274 -0.2186
 1140ntf    fn4 7912   6.071   3.373   3.694  0.0189 -0.2659 -0.4049
 1140ntf    fn4 7913   6.153   3.521   3.828 -0.3414 -0.3849 -0.2749
 1140ntf    on5 7914   6.425   3.435   3.662  0.0001  0.0716 -0.3233
 1140ntf    on5 7915   6.340   3.313   3.858 -0.2477  0.4395  0.2479
 1140ntf    on5 7916   6.315   3.295   3.392 -0.1423  0.0058  0.0492
 1140ntf    on5 7917   6.393   3.069   3.464 -0.1296  0.0619 -0.0787
 1140ntf    fn4 7918   6.132   3.120   3.303 -0.5351 -0.4460 -0.0682
 1140ntf    fn4 7919   6.042   3.210   3.469 -0.0219  0.3731 -0.4892
 1140ntf    fn4 7920   6.120   3.011   3.485 -0.0719  0.2303 -0.5893
 1141ntf    cn1 7921   6.036   3.887   3.802 -0.2312  0.2597 -0.2264
 1141ntf    sn2 7922   5.875   3.820   3.750 -0.3892  0.4131  0.0612
 1141ntf    nn3 7923   5.802   3.794   3.887 -0.5524 -0.0361 -0.1084
 1141ntf    sn2 7924   5.805   3.665   3.976  0.1346 -0.1381 -0.2723
 1141ntf    cn1 7925   5.668   3.567   3.907  0.1076 -0.2907 -0.0055
 1141ntf    fn4 7926   6.032   4.015   3.833  0.4298  0.2687 -0.1794
 1141ntf    fn4 7927   6.095   3.824   3.902 -0.1912  0.3531 -0.1919
 1141ntf    fn4 7928   6.114   3.861   3.699  0.3570 -0.2987  0.3507
 1141ntf    on5 7929   5.807   3.931   3.689 -0.2356  0.2591 -0.3887
 1141ntf    on5 7930   5.892   3.708   3.660 -0.5563  0.5660 -0.1602
 1141ntf    on5 7931   5.923   3.583   3.981 -0.4571 -0.9931  0.1565
 1141ntf    on5 7932   5.744   3.693   4.104 -0.5564 -0.8212 -0.4388
 1141ntf    fn4 7933   5.574   3.641   3.851  0.2439 -0.1615 -0.0630
 1141ntf    fn4 7934   5.610   3.486   3.994  0.0050 -0.1757  0.0323
 1141ntf    fn4 7935   5.708   3.492   3.805  0.1088 -0.4885  0.1411
 1142ntf    cn1 7936   1.471   1.281   1.034 -0.3369 -0.4529  0.2431
 1142ntf    sn2 7937   1.434   1.455   0.995  0.1326 -0.4441 -0.1799
 1142ntf    nn3 7938   1.292   1.434   0.931 -0.1263  0.3678  0.1148
 1142ntf    sn2 7939   1.154   1.503   0.959 -0.3046  0.0503  0.0179
 1142ntf    cn1 7940   1.122   1.401   1.106  0.1037  0.0502  0.1092
 1142ntf    fn4 7941   1.460   1.200   0.930 -0.2315 -0.1130 -0.0334
 1142ntf    fn4 7942   1.600   1.269   1.062 -0.2392 -0.0917 -0.0494
 1142ntf    fn4 7943   1.404   1.235   1.138 -0.2155 -0.3768  0.3556
 1142ntf    on5 7944   1.436   1.516   1.126  0.3395  0.6624 -0.6907
 1142ntf    on5 7945   1.531   1.494   0.896 -0.1741  0.6403 -0.0668
 1142ntf    on5 7946   1.157   1.640   1.003  0.5780  0.0524 -0.0339
 1142ntf    on5 7947   1.047   1.453   0.876 -0.0088 -0.1310 -0.2579
 1142ntf    fn4 7948   1.006   1.438   1.159  0.1237  0.0135  0.1788
 1142ntf    fn4 7949   1.214   1.416   1.199  0.1627  0.0986  0.0427
 1142ntf    fn4 7950   1.121   1.271   1.079  0.9211  0.0173  0.2159
 1143ntf    cn1 7951   5.105   4.235   0.832 -0.0429  0.4686 -0.0392
 1143ntf    sn2 7952   5.258   4.189   0.744 -0.1349 -0.0247  0.0544
 1143ntf    nn3 7953   5.337   4.324   0.749 -0.0481 -0.0796  0.1393
 1143ntf    sn2 7954   5.477   4.352   0.815 -0.0209  0.3285 -0.0889
 1143ntf    cn1 7955   5.432   4.430   0.973 -0.0813  0.1917 -0.0379
 1143ntf    fn4 7956   5.133   4.294   0.947 -0.0254 -0.5076  0.4703
 1143ntf    fn4 7957   5.019   4.304   0.760 -0.4682 -0.0467 -0.0329
 1143ntf    fn4 7958   5.041   4.127   0.875  0.2209  0.2408 -0.2099
 1143ntf    on5 7959   5.311   4.077   0.817 -0.3565 -0.2660 -0.1501
 1143ntf    on5 7960   5.214   4.153   0.611 -0.7227 -0.0928  0.2606
 1143ntf    on5 7961   5.552   4.237   0.861 -0.5617 -0.2389 -0.6112
 1143ntf    on5 7962   5.549   4.458   0.748 -0.4604  0.0570 -1.0008
 1143ntf    fn4 7963   5.358   4.539   0.979 -0.7701 -0.2664 -0.1865
 1143ntf    fn4 7964   5.536   4.467   1.047 -0.0922 -0.3761  0.2662
 1143ntf    fn4 7965   5.363   4.346   1.048 -0.3716  0.6191  0.1772
 1144ntf    cn1 7966   2.878   2.816   6.694  0.0852 -0.0310  0.1440
 1144ntf    sn2 7967   3.036   2.767   6.770  0.0522 -0.1272  0.1494
 1144ntf    nn3 7968   3.065   2.890   6.863 -0.1973  0.1616 -0.1547
 1144ntf    sn2 7969   3.007   2.918   7.007  0.2817  0.0475  0.0601
 1144ntf    cn1 7970   2.971   3.096   6.999 -0.1785 -0.0666 -0.4908
 1144ntf    fn4 7971   2.834   2.729   6.606  0.2222  0.2440 -0.1993
 1144ntf    fn4 7972   2.778   2.830   6.780  0.0972  0.4392  0.0857
 1144ntf    fn4 7973   2.898   2.930   6.629 -0.3070  0.0764  0.2084
 1144ntf    on5 7974   3.014   2.639   6.835  0.1711 -0.0929  0.2568
 1144ntf    on5 7975   3.130   2.762   6.661 -0.1295  0.3838 -0.0318
 1144ntf    on5 7976   2.877   2.863   7.033  0.2927 -0.0302 -0.0434
 1144ntf    on5 7977   3.112   2.891   7.102  0.1750 -0.5698  0.0084
 1144ntf    fn4 7978   2.917   3.132   7.114 -0.2703 -0.2169 -0.4868
 1144ntf    fn4 7979   2.901   3.128   6.891  0.1056 -0.0827 -0.6840
 1144ntf    fn4 7980   3.080   3.171   6.992 -0.3813  0.2930  0.1586
 1145ntf    cn1 7981   1.958   4.590   1.334  0.3951  0.1310  0.1545
 1145ntf    sn2 7982   2.007   4.527   1.497  0.0883 -0.0047  0.1957
 1145ntf    nn3 7983   1.950   4.383   1.469  0.3167 -0.0822  0.1256
 1145ntf    sn2 7984   2.017   4.243   1.493  0.0275 -0.2243  0.1071
 1145ntf    cn1 7985   2.116   4.224   1.342 -0.2052  0.2539 -0.1075
 1145ntf    fn4 7986   1.991   4.718   1.325 -0.2043  0.2467 -0.5533
 1145ntf    fn4 7987   2.028   4.528   1.241  0.0549  0.6467 -0.4499
 1145ntf    fn4 7988   1.833   4.568   1.297  0.4722 -0.1650  0.0674
 1145ntf    on5 7989   2.151   4.539   1.489  0.0390  0.4136 -0.0816
 1145ntf    on5 7990   1.935   4.611   1.590  0.3235 -0.2554  0.6115
 1145ntf    on5 7991   2.121   4.239   1.592 -0.3926  0.2578  0.5745
 1145ntf    on5 7992   1.921   4.137   1.473  0.0240 -0.2742  0.3944
 1145ntf    fn4 7993   2.041   4.214   1.233  0.0421 -0.5652 -0.2104
 1145ntf    fn4 7994   2.193   4.117   1.344 -0.0926  0.3383  0.1448
 1145ntf    fn4 7995   2.198   4.327   1.323 -0.4915  0.5577  0.3028
 1146ntf    cn1 7996   0.692   3.695   0.032 -0.0076  0.4061 -0.1463
 1146ntf    sn2 7997   0.797   3.575  -0.055 -0.2380 -0.0302  0.1741
 1146ntf    nn3 7998   0.693   3.468  -0.105  0.1165 -0.2000 -0.2021
 1146ntf    sn2 7999   0.679   3.411  -0.251 -0.1062  0.0859 -0.2939
 1146ntf    cn1 8000   0.533   3.503  -0.308 -0.2772  0.0770  0.1231
 1146ntf    fn4 8001   0.624   3.632   0.127 -0.1786 -0.2516 -0.6917
 1146ntf    fn4 8002   0.755   3.798   0.085  0.2221  0.1670  0.0489
 1146ntf    fn4 8003   0.598   3.741  -0.049  0.3679  0.7984 -0.3611
 1146ntf    on5 8004   0.859   3.655  -0.157  0.4808 -0.0551  0.5836
 1146ntf    on5 8005   0.882   3.536   0.056 -0.3584 -0.1803  0.2143
 1146ntf    on5 8006   0.779   3.445  -0.349  0.0204  0.0965 -0.1624
 1146ntf    on5 8007   0.630   3.276  -0.244  0.3792 -0.0635  0.3104
 1146ntf    fn4 8008   0.421   3.477  -0.243 -0.4401  0.2699 -0.0768
 1146ntf    fn4 8009   0.512   3.495  -0.438  0.1491  0.2924  0.0371
 1146ntf    fn4 8010   0.553   3.632  -0.286  0.8904 -0.0882  0.1267
 1147ntf    cn1 8011   4.120   3.583   3.345  0.0138  0.3754 -0.1469
 1147ntf    sn2 8012   3.974   3.530   3.250 -0.0344 -0.1605  0.2264
 1147ntf    nn3 8013   3.849   3.594   3.320 -0.4342 -0.3755 -0.2873
 1147ntf    sn2 8014   3.796   3.736   3.277  0.2313 -0.1017 -0.2102
 1147ntf    cn1 8015   3.680   3.684   3.147  0.0060  0.0134 -0.0564
 1147ntf    fn4 8016   4.131   3.715   3.356 -0.8075  0.4099  0.3382
 1147ntf    fn4 8017   4.112   3.532   3.466  0.4953  0.3566 -0.1203
 1147ntf    fn4 8018   4.231   3.545   3.285 -0.1161 -0.1672 -0.0535
 1147ntf    on5 8019   3.999   3.566   3.113 -0.1298 -0.2200  0.1932
 1147ntf    on5 8020   3.965   3.387   3.268  0.1161 -0.1442  0.4396
 1147ntf    on5 8021   3.706   3.793   3.375  0.5592  0.4341 -0.2153
 1147ntf    on5 8022   3.882   3.830   3.210 -0.0962  0.4766  0.1639
 1147ntf    fn4 8023   3.599   3.584   3.177 -0.0391  0.0443 -0.0767
 1147ntf    fn4 8024   3.757   3.646   3.047 -0.3061 -0.6707 -0.0404
 1147ntf    fn4 8025   3.617   3.787   3.094  0.2132 -0.0092 -0.3478
 1148ntf    cn1 8026   5.375   5.327   6.454  0.3163  0.2940 -0.4181
 1148ntf    sn2 8027   5.459   5.410   6.592 -0.0411  0.1143 -0.0923
 1148ntf    nn3 8028   5.343   5.392   6.696  0.2640  0.1297  0.2556
 1148ntf    sn2 8029   5.296   5.479   6.818  0.2022 -0.1401  0.4251
 1148ntf    cn1 8030   5.395   5.399   6.947  0.5582 -0.3303  0.0367
 1148ntf    fn4 8031   5.267   5.394   6.417  0.1218 -0.0120 -0.4061
 1148ntf    fn4 8032   5.451   5.314   6.346  0.1610 -0.3892 -0.4515
 1148ntf    fn4 8033   5.344   5.202   6.483 -0.0476  0.3511 -0.5568
 1148ntf    on5 8034   5.576   5.328   6.617 -0.0466  0.0386 -0.3162
 1148ntf    on5 8035   5.489   5.542   6.543  0.0963  0.3175  0.5336
 1148ntf    on5 8036   5.340   5.616   6.806 -0.0269 -0.0917  0.1137
 1148ntf    on5 8037   5.157   5.471   6.854  0.0790  0.5401  0.1301
 1148ntf    fn4 8038   5.388   5.267   6.951 -0.1930 -0.2773  0.8168
 1148ntf    fn4 8039   5.365   5.438   7.070  0.6788 -0.3884  0.0843
 1148ntf    fn4 8040   5.522   5.435   6.937  0.5185 -0.1442  0.1871
 1149ntf    cn1 8041   2.199   6.709   5.762 -0.2857  0.2485  0.0153
 1149ntf    sn2 8042   2.093   6.766   5.899 -0.3170  0.1061  0.0504
 1149ntf    nn3 8043   2.039   6.626   5.945  0.0423  0.1752  0.7094
 1149ntf    sn2 8044   1.906   6.557   5.897  0.2752  0.1268  0.1193
 1149ntf    cn1 8045   1.803   6.592   6.043  0.3004  0.1936  0.1212
 1149ntf    fn4 8046   2.284   6.611   5.790  0.1087  0.5295 -0.1895
 1149ntf    fn4 8047   2.123   6.660   5.666 -0.0492 -0.1565  0.0351
 1149ntf    fn4 8048   2.277   6.806   5.718  0.3515 -0.2041  0.1349
 1149ntf    on5 8049   2.179   6.831   5.996 -0.2377  0.3777 -0.2004
 1149ntf    on5 8050   2.000   6.851   5.830 -0.4290 -0.1019 -0.0545
 1149ntf    on5 8051   1.828   6.613   5.789 -0.0328 -0.3309  0.1033
 1149ntf    on5 8052   1.916   6.413   5.900  0.1770  0.1185  0.0710
 1149ntf    fn4 8053   1.836   6.708   6.099 -0.0219 -0.0273  0.7795
 1149ntf    fn4 8054   1.829   6.499   6.134  0.2691 -0.1550 -0.2241
 1149ntf    fn4 8055   1.674   6.585   6.016  0.4350 -0.2622 -0.4024
 1150ntf    cn1 8056   6.276   6.239   4.740  0.0610  0.4941 -0.4217
 1150ntf    sn2 8057   6.174   6.307   4.874 -0.1458 -0.2875 -0.1762
 1150ntf    nn3 8058   6.091   6.188   4.934 -0.1155 -0.1295  0.1783
 1150ntf    sn2 8059   5.952   6.131   4.887  0.1057 -0.1533 -0.4617
 1150ntf    cn1 8060   5.828   6.241   4.962  0.3279 -0.2739  0.0858
 1150ntf    fn4 8061   6.200   6.214   4.634 -0.3221 -0.3614  0.0409
 1150ntf    fn4 8062   6.375   6.315   4.698  0.3422  0.1544 -0.3758
 1150ntf    fn4 8063   6.327   6.120   4.770  0.2769  0.7999  0.4235
 1150ntf    on5 8064   6.274   6.354   4.965 -0.8118 -0.0122  0.4226
 1150ntf    on5 8065   6.092   6.409   4.813 -0.0709 -0.2719 -0.2512
 1150ntf    on5 8066   5.922   6.132   4.746 -0.5023  0.0134 -0.3359
 1150ntf    on5 8067   5.922   6.008   4.957 -0.5046 -0.0338 -0.5107
 1150ntf    fn4 8068   5.706   6.218   4.917  0.2358  0.4154 -0.0229
 1150ntf    fn4 8069   5.849   6.365   4.921  0.4372 -0.2250  0.2869
 1150ntf    fn4 8070   5.812   6.242   5.094  0.0709 -0.3403  0.0547
 1151ntf    cn1 8071   6.267   5.253   1.145 -0.4257  0.7533  0.0794
 1151ntf    sn2 8072   6.432   5.302   1.089 -0.1574 -0.1997  0.0189
 1151ntf    nn3 8073   6.507   5.348   1.219 -0.0960 -0.0441 -0.0706
 1151ntf    sn2 8074   6.658   5.365   1.257 -0.2866  0.0690  0.6573
 1151ntf    cn1 8075   6.694   5.198   1.319 -0.0723 -0.0771  0.1531
 1151ntf    fn4 8076   6.268   5.153   1.231 -0.0672 -0.0354 -0.8348
 1151ntf    fn4 8077   6.207   5.357   1.202 -0.0255  0.6591  0.6836
 1151ntf    fn4 8078   6.188   5.208   1.049  0.0940  0.1496 -0.0682
 1151ntf    on5 8079   6.484   5.187   1.019  0.3335 -0.1755  0.3369
 1151ntf    on5 8080   6.409   5.415   1.001  0.1558 -0.1212  0.0338
 1151ntf    on5 8081   6.760   5.379   1.155 -0.3816 -0.7457  0.4493
 1151ntf    on5 8082   6.681   5.457   1.366  0.3383  0.7327 -0.0124
 1151ntf    fn4 8083   6.656   5.104   1.234  0.3747  0.5849 -0.7905
 1151ntf    fn4 8084   6.634   5.184   1.436 -0.4517  0.0080 -0.0277
 1151ntf    fn4 8085   6.823   5.179   1.342  0.0060  0.7651  0.4508
 1152ntf    cn1 8086   2.801   2.673   1.131  0.1029  0.2190  0.2210
 1152ntf    sn2 8087   2.668   2.770   1.055  0.1012  0.0602  0.0194
 1152ntf    nn3 8088   2.575   2.813   1.174 -0.3801 -0.0164 -0.3215
 1152ntf    sn2 8089   2.435   2.882   1.188 -0.1016  0.4418  0.2729
 1152ntf    cn1 8090   2.326   2.736   1.201  0.1015  0.2949  0.3346
 1152ntf    fn4 8091   2.902   2.646   1.049  0.5522  0.0052  0.8382
 1152ntf    fn4 8092   2.851   2.747   1.229  0.4273  0.3437 -0.0363
 1152ntf    fn4 8093   2.758   2.557   1.178  0.1036  0.0575 -0.1713
 1152ntf    on5 8094   2.734   2.889   1.006 -0.4174  0.4752  0.3081
 1152ntf    on5 8095   2.609   2.679   0.959 -0.4424  0.1348  0.2787
 1152ntf    on5 8096   2.416   2.953   1.312 -0.7706 -0.0045  0.4334
 1152ntf    on5 8097   2.385   2.952   1.073  0.2607 -0.6294 -0.5553
 1152ntf    fn4 8098   2.333   2.659   1.094 -0.7117  0.7560 -0.0550
 1152ntf    fn4 8099   2.200   2.775   1.195  0.2180  0.6133 -0.0938
 1152ntf    fn4 8100   2.356   2.666   1.309 -0.6461 -0.2271  0.2098
 1153ntf    cn1 8101   2.980   3.472   6.115 -0.1790  0.3249 -0.2671
 1153ntf    sn2 8102   3.101   3.498   6.248 -0.2199  0.0299 -0.1703
 1153ntf    nn3 8103   3.230   3.438   6.183 -0.2896 -0.0399 -0.2448
 1153ntf    sn2 8104   3.332   3.337   6.246  0.1405  0.4957 -0.0694
 1153ntf    cn1 8105   3.485   3.386   6.161 -0.0605  0.2248 -0.5872
 1153ntf    fn4 8106   2.950   3.343   6.107 -0.4419  0.3609  0.1519
 1153ntf    fn4 8107   2.863   3.534   6.115 -0.5070 -0.2880 -0.1019
 1153ntf    fn4 8108   3.030   3.501   5.996  0.4794 -0.3401 -0.1594
 1153ntf    on5 8109   3.114   3.641   6.264 -0.1603  0.0086 -0.0254
 1153ntf    on5 8110   3.054   3.417   6.358  0.0060  0.2304  0.0760
 1153ntf    on5 8111   3.356   3.345   6.388  0.9932 -0.3940 -0.1480
 1153ntf    on5 8112   3.314   3.202   6.197 -0.0810  0.3661  0.3585
 1153ntf    fn4 8113   3.591   3.315   6.194 -0.6561 -0.6652 -0.5375
 1153ntf    fn4 8114   3.501   3.517   6.173 -0.4602  0.2268 -0.0314
 1153ntf    fn4 8115   3.481   3.367   6.030 -0.7638 -0.4876 -0.4754
 1154ntf    cn1 8116   5.050   2.603   5.111 -0.2886 -0.2340  0.1756
 1154ntf    sn2 8117   5.152   2.640   5.257  0.1447  0.1919 -0.2303
 1154ntf    nn3 8118   5.111   2.519   5.348  0.0225  0.6224  0.2913
 1154ntf    sn2 8119   5.008   2.512   5.466 -0.0394 -0.4125  0.1879
 1154ntf    cn1 8120   4.982   2.333   5.489  0.3302 -0.4791  0.0960
 1154ntf    fn4 8121   5.083   2.683   5.011  0.3528 -0.0128  0.5577
 1154ntf    fn4 8122   5.069   2.479   5.067 -0.3712 -0.0031 -0.5225
 1154ntf    fn4 8123   4.920   2.615   5.129 -0.3072  0.6317 -0.5059
 1154ntf    on5 8124   5.279   2.629   5.190 -0.0490  0.2844 -0.6150
 1154ntf    on5 8125   5.108   2.767   5.307  0.1725 -0.1644  0.7136
 1154ntf    on5 8126   5.066   2.545   5.594 -0.7918 -0.8228  0.6428
 1154ntf    on5 8127   4.877   2.560   5.431 -0.1117 -0.6372  0.1517
 1154ntf    fn4 8128   4.875   2.311   5.564 -0.2782  0.3024 -0.5227
 1154ntf    fn4 8129   5.086   2.271   5.542  0.4150 -0.3229  0.1133
 1154ntf    fn4 8130   4.946   2.269   5.380 -0.5930 -0.2358  0.2449
 1155ntf    cn1 8131   3.742   5.887   5.409 -0.1810 -0.1757 -0.1088
 1155ntf    sn2 8132   3.851   5.742   5.403  0.1931  0.0947  0.1258
 1155ntf    nn3 8133   3.819   5.705   5.552 -0.3949  0.8066  0.1792
 1155ntf    sn2 8134   3.909   5.724   5.679  0.3976 -0.3200 -0.2041
 1155ntf    cn1 8135   4.002   5.568   5.674  0.4828 -0.2795  0.0777
 1155ntf    fn4 8136   3.731   5.961   5.300  0.2558  0.3428  0.1908
 1155ntf    fn4 8137   3.619   5.860   5.451  0.0026 -0.2144  0.4073
 1155ntf    fn4 8138   3.788   5.981   5.490 -0.3019 -0.0210 -0.2189
 1155ntf    on5 8139   3.790   5.663   5.299  0.6211  0.1988 -0.2072
 1155ntf    on5 8140   3.980   5.798   5.373  0.2638  0.1044  0.4421
 1155ntf    on5 8141   4.018   5.819   5.679  0.0034  0.1393  0.1909
 1155ntf    on5 8142   3.834   5.723   5.802  0.5528 -0.3092 -0.1083
 1155ntf    fn4 8143   4.094   5.564   5.769 -0.1344  0.2170  0.7063
 1155ntf    fn4 8144   4.065   5.555   5.558  0.1847  0.0387 -0.1218
 1155ntf    fn4 8145   3.927   5.459   5.681 -0.3946  0.3315  0.2771
 1156ntf    cn1 8146   2.595   0.093   4.951 -0.2845  0.0621  0.0367
 1156ntf    sn2 8147   2.631  -0.053   5.053  0.0143  0.1395  0.0422
 1156ntf    nn3 8148   2.490  -0.123   5.045  0.1423 -0.1168  0.0090
 1156ntf    sn2 8149   2.436  -0.203   4.921 -0.1265 -0.3873  0.2999
 1156ntf    cn1 8150   2.260  -0.189   4.965 -0.2162  0.0545 -0.1842
 1156ntf    fn4 8151   2.571   0.070   4.823  0.1194  0.0794 -0.0420
 1156ntf    fn4 8152   2.501   0.175   4.994 -0.1311  0.5378 -0.5183
 1156ntf    fn4 8153   2.705   0.166   4.946  0.3183 -0.8188  0.2974
 1156ntf    on5 8154   2.740  -0.125   4.992 -0.2699 -0.1781 -0.0991
 1156ntf    on5 8155   2.647   0.002   5.185 -0.2719 -0.7116  0.4432
 1156ntf    on5 8156   2.445  -0.146   4.789 -0.0387 -0.4280  0.2877
 1156ntf    on5 8157   2.465  -0.343   4.935 -0.1007 -0.4262 -0.1297
 1156ntf    fn4 8158   2.227  -0.244   5.081 -0.0279  0.8349  0.2467
 1156ntf    fn4 8159   2.193  -0.252   4.870 -0.5262 -0.4979  0.3952
 1156ntf    fn4 8160   2.218  -0.064   4.972 -0.5019 -0.0582  0.1477
 1157ntf    cn1 8161   4.931   0.016   4.177 -0.0338  0.1975 -0.6242
 1157ntf    sn2 8162   4.857  -0.138   4.114 -0.0539 -0.0451 -0.0181
 1157ntf    nn3 8163   4.921  -0.164   3.973  0.0448 -0.0164  0.0217
 1157ntf    sn2 8164   4.893  -0.080   3.844 -0.0730 -0.0332  0.0360
 1157ntf    cn1 8165   4.769  -0.178   3.755  0.0313 -0.2350  0.1127
 1157ntf    fn4 8166   5.063   0.023   4.179 -0.0406  0.2737 -0.2568
 1157ntf    fn4 8167   4.886   0.124   4.116 -0.2465  0.1873 -0.4856
 1157ntf    fn4 8168   4.897   0.028   4.304  0.3608  0.4436 -0.5399
 1157ntf    on5 8169   4.915  -0.233   4.206  0.2444  0.0782 -0.0772
 1157ntf    on5 8170   4.715  -0.113   4.120 -0.0975 -0.2427 -0.2194
 1157ntf    on5 8171   4.816   0.041   3.858  0.3797  0.2297  0.3161
 1157ntf    on5 8172   5.005  -0.078   3.752 -0.1257  0.1793 -0.0244
 1157ntf    fn4 8173   4.812  -0.303   3.750  0.7557 -0.0070  0.5550
 1157ntf    fn4 8174   4.748  -0.140   3.630 -0.2558 -0.4738  0.0890
 1157ntf    fn4 8175   4.660  -0.176   3.830 -0.0346 -0.8360  0.0372
 1158ntf    cn1 8176   2.081   2.405   1.188  0.1136  0.0488 -0.1397
 1158ntf    sn2 8177   2.016   2.410   1.018 -0.2140 -0.3149 -0.0266
 1158ntf    nn3 8178   2.022   2.259   0.976 -0.0289 -0.2681 -0.1700
 1158ntf    sn2 8179   1.904   2.157   0.985 -0.3352  0.0684 -0.3529
 1158ntf    cn1 8180   1.822   2.174   0.824 -0.1540 -0.1946 -0.4735
 1158ntf    fn4 8181   2.198   2.344   1.199 -0.0000 -0.0883  0.2826
 1158ntf    fn4 8182   2.100   2.529   1.230 -0.2326  0.1604 -0.3088
 1158ntf    fn4 8183   1.998   2.342   1.268  0.4601 -0.0613  0.1350
 1158ntf    on5 8184   1.886   2.469   1.039 -0.1488 -0.3257  0.4060
 1158ntf    on5 8185   2.113   2.485   0.941 -0.2649  0.0399  0.2531
 1158ntf    on5 8186   1.951   2.021   0.982 -0.8555 -0.1369  0.3158
 1158ntf    on5 8187   1.807   2.185   1.089 -0.0651  0.5612 -0.2290
 1158ntf    fn4 8188   1.823   2.297   0.776  0.0268 -0.0613 -0.1314
 1158ntf    fn4 8189   1.699   2.125   0.824 -0.1922 -0.0979 -0.1654
 1158ntf    fn4 8190   1.890   2.106   0.733  0.1233  0.1762 -0.5428
 1159ntf    cn1 8191   5.541   4.911   3.136 -0.2549 -0.2348 -0.8425
 1159ntf    sn2 8192   5.717   4.957   3.138 -0.3265  0.0297  0.2056
 1159ntf    nn3 8193   5.795   4.824   3.106  0.2970  0.4708 -0.1253
 1159ntf    sn2 8194   5.824   4.756   2.968 -0.0664  0.0923 -0.0144
 1159ntf    cn1 8195   5.998   4.806   2.957 -0.0386  0.0281  0.1296
 1159ntf    fn4 8196   5.458   5.006   3.175  0.3149 -0.1055  0.1040
 1159ntf    fn4 8197   5.496   4.862   3.022 -0.7115  0.1353 -0.8252
 1159ntf    fn4 8198   5.515   4.815   3.224 -0.2538  0.2638 -0.2946
 1159ntf    on5 8199   5.732   5.057   3.035  0.1416  0.1674  0.4026
 1159ntf    on5 8200   5.746   4.991   3.275  0.0877  1.0310 -0.1254
 1159ntf    on5 8201   5.818   4.612   2.981 -0.4472  0.0928 -0.1647
 1159ntf    on5 8202   5.760   4.812   2.852  0.4294  0.1246 -0.2745
 1159ntf    fn4 8203   6.073   4.755   3.053 -0.1889  0.3886  0.4413
 1159ntf    fn4 8204   6.017   4.937   2.960  0.3040 -0.0141 -0.0946
 1159ntf    fn4 8205   6.051   4.763   2.843  0.3606  0.7345  0.0435
 1160ntf    cn1 8206   4.336   4.249   0.203  0.3474  0.2303  0.5887
 1160ntf    sn2 8207   4.424   4.092   0.228 -0.0055 -0.1209 -0.2907
 1160ntf    nn3 8208   4.569   4.151   0.247 -0.0405 -0.2609  0.4742
 1160ntf    sn2 8209   4.648   4.185   0.378  0.2155 -0.1483  0.2918
 1160ntf    cn1 8210   4.747   4.033   0.390  0.2030 -0.1800  0.0084
 1160ntf    fn4 8211   4.368   4.296   0.083  0.1014 -0.5794  0.1985
 1160ntf    fn4 8212   4.204   4.245   0.201  0.3456  0.4093 -0.2020
 1160ntf    fn4 8213   4.367   4.343   0.290 -0.0295  1.2463 -0.3418
 1160ntf    on5 8214   4.360   4.035   0.344 -0.0174 -0.2182 -0.3450
 1160ntf    on5 8215   4.415   4.020   0.104 -0.3285 -0.2518 -0.1902
 1160ntf    on5 8216   4.742   4.291   0.351  0.2403 -0.2114  0.1297
 1160ntf    on5 8217   4.574   4.199   0.501  0.8741  0.6849  0.5995
 1160ntf    fn4 8218   4.677   3.924   0.362 -0.2224  0.0187  0.2802
 1160ntf    fn4 8219   4.792   4.031   0.515  0.2086  0.3816  0.0180
 1160ntf    fn4 8220   4.852   4.038   0.310  0.3598  0.2375  0.2330
 1161ntf    cn1 8221   2.783   5.415   6.614 -0.3502  0.5308  0.4217
 1161ntf    sn2 8222   2.767   5.536   6.479  0.3124 -0.5274 -0.6260
 1161ntf    nn3 8223   2.808   5.667   6.553 -0.0309 -0.9211  0.2720
 1161ntf    sn2 8224   2.722   5.744   6.660  0.3044  0.0679 -0.1596
 1161ntf    cn1 8225   2.793   5.910   6.636  0.4122  0.0297 -0.1085
 1161ntf    fn4 8226   2.910   5.396   6.643 -0.2946 -0.3259 -0.3285
 1161ntf    fn4 8227   2.713   5.455   6.719 -0.5191 -0.3349  0.6520
 1161ntf    fn4 8228   2.744   5.293   6.576  0.0692  0.5133  0.0361
 1161ntf    on5 8229   2.867   5.499   6.381  0.8064  0.4356 -0.4935
 1161ntf    on5 8230   2.628   5.526   6.442  0.1283  0.3693 -0.1825
 1161ntf    on5 8231   2.581   5.749   6.634  0.3014  0.2875 -0.1020
 1161ntf    on5 8232   2.763   5.710   6.794  0.1641 -0.0928 -0.1581
 1161ntf    fn4 8233   2.761   5.983   6.741 -0.7005 -0.2738 -0.2237
 1161ntf    fn4 8234   2.750   5.968   6.525 -0.4473 -0.0094  0.1991
 1161ntf    fn4 8235   2.925   5.909   6.629  0.4194  0.0373  0.0414
 1162ntf    cn1 8236   4.732   4.844   3.645 -0.0572  0.0087  0.0273
 1162ntf    sn2 8237   4.712   4.666   3.614  0.0251 -0.0135  0.0971
 1162ntf    nn3 8238   4.637   4.661   3.476  0.4901 -0.4107 -0.1459
 1162ntf    sn2 8239   4.615   4.542   3.376 -0.0594 -0.2756 -0.1867
 1162ntf    cn1 8240   4.435   4.549   3.350 -0.0216  0.1574 -0.3490
 1162ntf    fn4 8241   4.812   4.875   3.746  0.6260 -0.0308 -0.5030
 1162ntf    fn4 8242   4.778   4.906   3.538  0.1091  0.1507  0.1803
 1162ntf    fn4 8243   4.616   4.900   3.674  0.1389  0.2296  0.3995
 1162ntf    on5 8244   4.850   4.624   3.608  0.0506  0.0980 -0.1299
 1162ntf    on5 8245   4.633   4.625   3.727  0.1343  0.4266  0.3362
 1162ntf    on5 8246   4.669   4.567   3.244  0.2629 -0.6310 -0.1221
 1162ntf    on5 8247   4.636   4.413   3.435 -0.5218 -0.1806  0.1910
 1162ntf    fn4 8248   4.369   4.498   3.453  0.6245 -0.3901 -0.2007
 1162ntf    fn4 8249   4.399   4.482   3.242  0.0455 -0.1617 -0.1756
 1162ntf    fn4 8250   4.397   4.676   3.338 -0.2268  0.1456  0.1472
 1163ntf    cn1 8251   0.374   5.786   4.919 -0.0628  0.3150  0.1612
 1163ntf    sn2 8252   0.241   5.723   4.812  0.0564 -0.0587  0.2305
 1163ntf    nn3 8253   0.142   5.685   4.928 -0.5495  0.0330 -0.2532
 1163ntf    sn2 8254   0.041   5.772   5.010 -0.1553  0.2612 -0.0075
 1163ntf    cn1 8255  -0.122   5.717   4.951 -0.1013  0.1472 -0.0476
 1163ntf    fn4 8256   0.472   5.846   4.854  0.2156 -0.2489  0.0461
 1163ntf    fn4 8257   0.333   5.864   5.017  0.4890  0.3806  0.3430
 1163ntf    fn4 8258   0.445   5.688   4.973 -0.0659 -0.0472 -0.4774
 1163ntf    on5 8259   0.191   5.830   4.730  0.2017 -0.0845  0.1087
 1163ntf    on5 8260   0.302   5.615   4.739  0.2894  0.3153 -0.1326
 1163ntf    on5 8261   0.038   5.720   5.145 -0.3762 -0.1568 -0.1736
 1163ntf    on5 8262   0.034   5.913   4.981 -0.1111  0.2682  0.0173
 1163ntf    fn4 8263  -0.225   5.792   4.985 -0.3141  0.0225 -0.4071
 1163ntf    fn4 8264  -0.155   5.598   4.998  0.4304  0.0469  0.0865
 1163ntf    fn4 8265  -0.123   5.700   4.819  0.3521  0.6636 -0.1220
 1164ntf    cn1 8266   3.013   4.262   1.056  0.2636  0.2019  0.2200
 1164ntf    sn2 8267   2.859   4.235   0.962  0.5000  0.0593 -0.1289
 1164ntf    nn3 8268   2.836   4.085   1.000  0.2596  0.0204 -0.4289
 1164ntf    sn2 8269   2.730   4.035   1.105  0.3293  0.4563 -0.1514
 1164ntf    cn1 8270   2.808   3.877   1.148 -0.4436  0.0728 -0.1420
 1164ntf    fn4 8271   3.128   4.218   1.008  0.2138 -0.2417  0.4952
 1164ntf    fn4 8272   3.029   4.392   1.069  0.4929  0.1602  0.3614
 1164ntf    fn4 8273   2.998   4.202   1.173 -0.6696  0.5152  0.2742
 1164ntf    on5 8274   2.770   4.338   1.010  0.2404  0.0792 -0.6511
 1164ntf    on5 8275   2.896   4.248   0.823 -0.4232  0.1693 -0.3698
 1164ntf    on5 8276   2.730   4.094   1.237 -0.4423 -0.4432  0.2636
 1164ntf    on5 8277   2.601   3.986   1.062  0.3435  0.2312  0.0625
 1164ntf    fn4 8278   2.805   3.784   1.054 -0.1211  0.1434 -0.2243
 1164ntf    fn4 8279   2.746   3.831   1.256  0.5582  0.3429  0.5674
 1164ntf    fn4 8280   2.936   3.886   1.180 -0.4215  0.1172 -0.2448
 1165ntf    cn1 8281   6.219   1.506   1.874  0.6914  0.4221 -0.1606
 1165ntf    sn2 8282   6.301   1.355   1.933 -0.1964  0.0091  0.0416
 1165ntf    nn3 8283   6.402   1.329   1.815  0.1049  0.0057  0.2968
 1165ntf    sn2 8284   6.556   1.299   1.815  0.0834 -0.1028  0.0617
 1165ntf    cn1 8285   6.549   1.203   1.661  0.0191 -0.3572  0.2232
 1165ntf    fn4 8286   6.298   1.612   1.863  0.1057  0.8522 -0.2890
 1165ntf    fn4 8287   6.161   1.492   1.756 -0.3491 -0.6507  0.4542
 1165ntf    fn4 8288   6.130   1.533   1.968  0.1952  0.4080 -0.6213
 1165ntf    on5 8289   6.375   1.410   2.044 -0.4416 -0.0405  0.2304
 1165ntf    on5 8290   6.196   1.259   1.954 -0.4552  0.3340  0.2427
 1165ntf    on5 8291   6.631   1.420   1.793 -0.0827 -0.0596 -0.2789
 1165ntf    on5 8292   6.597   1.210   1.920 -0.5864 -0.3559  0.1109
 1165ntf    fn4 8293   6.670   1.155   1.636  0.3689  0.5020  0.2247
 1165ntf    fn4 8294   6.503   1.259   1.550 -0.0495  0.2145  0.5401
 1165ntf    fn4 8295   6.474   1.097   1.684 -0.4459 -0.0226  0.2558
 1166ntf    cn1 8296   3.140   1.994   0.904  0.1921 -0.3415 -0.0259
 1166ntf    sn2 8297   3.290   1.954   0.999  0.1116 -0.0768  0.2162
 1166ntf    nn3 8298   3.379   1.881   0.892  0.4247 -0.0145  0.4340
 1166ntf    sn2 8299   3.414   1.729   0.876 -0.3803 -0.1644  0.0603
 1166ntf    cn1 8300   3.574   1.718   0.960 -0.1886 -0.2062 -0.3077
 1166ntf    fn4 8301   3.155   2.079   0.804 -0.3622 -0.3643 -0.1354
 1166ntf    fn4 8302   3.085   1.890   0.843  0.1337 -0.2407 -0.1446
 1166ntf    fn4 8303   3.046   2.052   0.978 -0.2510 -0.5137 -0.4512
 1166ntf    on5 8304   3.344   2.079   1.046 -0.2097  0.1449  0.0019
 1166ntf    on5 8305   3.251   1.863   1.104  0.1010  0.1282  0.3906
 1166ntf    on5 8306   3.332   1.626   0.936 -0.7287  0.0438 -0.0521
 1166ntf    on5 8307   3.456   1.706   0.740  0.2199  0.1495  0.1891
 1166ntf    fn4 8308   3.583   1.811   1.054  0.1443 -0.3949 -0.1500
 1166ntf    fn4 8309   3.685   1.727   0.888  0.0839 -0.1403  0.1142
 1166ntf    fn4 8310   3.590   1.605   1.027  0.1590 -0.1715 -0.3300
 1167ntf    cn1 8311   5.433   6.610   3.131 -0.3982  0.0053 -0.2502
 1167ntf    sn2 8312   5.507   6.495   3.011 -0.1640 -0.0822 -0.0209
 1167ntf    nn3 8313   5.425   6.543   2.886  0.4682  0.2646 -0.3115
 1167ntf    sn2 8314   5.409   6.475   2.745 -0.0982 -0.0355 -0.1054
 1167ntf    cn1 8315   5.550   6.539   2.651 -0.0009 -0.2370 -0.0970
 1167ntf    fn4 8316   5.473   6.731   3.094  0.3567 -0.2960 -0.4221
 1167ntf    fn4 8317   5.301   6.601   3.126 -0.3799 -0.5551  0.2391
 1167ntf    fn4 8318   5.451   6.596   3.261  0.0092  0.2007 -0.2831
 1167ntf    on5 8319   5.647   6.530   3.014 -0.2506  0.2572  0.1120
 1167ntf    on5 8320   5.473   6.369   3.070 -0.2735 -0.3041 -0.5528
 1167ntf    on5 8321   5.425   6.332   2.758 -0.1433 -0.0258  0.0721
 1167ntf    on5 8322   5.293   6.525   2.675  0.0070  0.5770  0.1544
 1167ntf    fn4 8323   5.549   6.527   2.519  0.1626 -0.0283 -0.1181
 1167ntf    fn4 8324   5.670   6.505   2.693 -0.2634 -0.7427  0.2491
 1167ntf    fn4 8325   5.557   6.668   2.679 -0.0987 -0.0691 -0.8303
 1168ntf    cn1 8326   5.572   5.104   1.455 -0.6428  0.1204  0.5263
 1168ntf    sn2 8327   5.682   5.078   1.312 -0.6548  0.2800  0.4881
 1168ntf    nn3 8328   5.655   5.212   1.235 -0.1448 -0.1375 -0.4318
 1168ntf    sn2 8329   5.706   5.357   1.266 -0.0854 -0.2101 -0.1847
 1168ntf    cn1 8330   5.855   5.367   1.163  0.1547 -0.1669  0.1636
 1168ntf    fn4 8331   5.546   4.994   1.523 -0.3391  0.1145  0.6309
 1168ntf    fn4 8332   5.620   5.187   1.545 -0.0878  0.0188  0.3303
 1168ntf    fn4 8333   5.452   5.146   1.416 -0.6019 -0.3892 -0.1760
 1168ntf    on5 8334   5.815   5.068   1.366 -0.3456 -0.4977 -0.3870
 1168ntf    on5 8335   5.621   4.960   1.256  0.1967 -0.2306  0.6160
 1168ntf    on5 8336   5.627   5.463   1.209  0.2518  0.5271  0.7051
 1168ntf    on5 8337   5.755   5.374   1.400 -0.4486  0.0654 -0.0863
 1168ntf    fn4 8338   5.955   5.283   1.186 -0.0001 -0.5664 -0.5697
 1168ntf    fn4 8339   5.913   5.486   1.170 -0.4628  0.2043 -0.7133
 1168ntf    fn4 8340   5.818   5.334   1.040  0.4013 -0.0379  0.0535
 1169ntf    cn1 8341   3.973   6.635   1.744 -0.2786 -0.0255 -0.0894
 1169ntf    sn2 8342   3.887   6.562   1.886 -0.2201  0.1229  0.0226
 1169ntf    nn3 8343   3.789   6.462   1.816 -0.1733  0.0569  0.0510
 1169ntf    sn2 8344   3.632   6.472   1.815 -0.1717  0.0717 -0.2045
 1169ntf    cn1 8345   3.602   6.376   1.664 -0.1387  0.1240 -0.2445
 1169ntf    fn4 8346   3.893   6.679   1.648 -0.1052  0.0688 -0.1927
 1169ntf    fn4 8347   4.061   6.727   1.779  0.2296 -0.3193 -0.5629
 1169ntf    fn4 8348   4.053   6.549   1.682  0.1446 -0.0202  0.4419
 1169ntf    on5 8349   3.994   6.502   1.963 -0.1117  0.3832  0.0769
 1169ntf    on5 8350   3.830   6.680   1.947 -0.1371  0.1915 -0.0322
 1169ntf    on5 8351   3.557   6.392   1.909  0.3261 -0.0915  0.0571
 1169ntf    on5 8352   3.589   6.604   1.776  0.0608  0.2754  0.2173
 1169ntf    fn4 8353   3.654   6.430   1.556  0.1278 -0.2741 -0.3199
 1169ntf    fn4 8354   3.472   6.362   1.644 -0.2865  0.1092  0.6761
 1169ntf    fn4 8355   3.659   6.257   1.675 -0.3037  0.0439 -0.2506
 1170ntf    cn1 8356   5.718   6.357   0.018  0.3867 -0.0829 -0.1369
 1170ntf    sn2 8357   5.555   6.392  -0.056  0.2425 -0.2690  0.0925
 1170ntf    nn3 8358   5.577   6.338  -0.201 -0.3735 -0.2812  0.0024
 1170ntf    sn2 8359   5.483   6.331  -0.327 -0.0341 -0.1724 -0.2587
 1170ntf    cn1 8360   5.393   6.177  -0.292  0.3444 -0.2756  0.2663
 1170ntf    fn4 8361   5.823   6.415  -0.037  0.4490  0.4131  0.5051
 1170ntf    fn4 8362   5.713   6.390   0.145  0.0106 -0.0263 -0.1638
 1170ntf    fn4 8363   5.742   6.227   0.012  0.6953 -0.0125 -0.4668
 1170ntf    on5 8364   5.457   6.314   0.015  0.3235  0.0705  0.5837
 1170ntf    on5 8365   5.542   6.534  -0.032  0.0350 -0.2847  0.0774
 1170ntf    on5 8366   5.393   6.444  -0.334  0.4096  0.2088  0.0943
 1170ntf    on5 8367   5.552   6.300  -0.449 -0.0950 -0.1124 -0.3081
 1170ntf    fn4 8368   5.355   6.117  -0.404 -0.3114  0.4006  0.1221
 1170ntf    fn4 8369   5.282   6.195  -0.223  0.0882 -0.0589 -0.2023
 1170ntf    fn4 8370   5.472   6.102  -0.216  0.4357 -0.2378  0.2092
 1171ntf    cn1 8371   5.496   6.631   1.273 -0.1634 -0.0132 -0.1975
 1171ntf    sn2 8372   5.439   6.750   1.399  0.5286  0.0419  0.0654
 1171ntf    nn3 8373   5.292   6.699   1.421  0.2151  0.6206 -0.6702
 1171ntf    sn2 8374   5.159   6.781   1.430 -0.0171  0.2064 -0.2877
 1171ntf    cn1 8375   5.119   6.754   1.605  0.2405 -0.2632 -0.2998
 1171ntf    fn4 8376   5.439   6.650   1.155 -0.0038 -0.2399 -0.3106
 1171ntf    fn4 8377   5.627   6.629   1.255 -0.1618 -0.1532 -0.1725
 1171ntf    fn4 8378   5.454   6.513   1.316 -0.4587  0.2472  0.2402
 1171ntf    on5 8379   5.523   6.717   1.512  0.2399 -0.2289  0.2034
 1171ntf    on5 8380   5.462   6.877   1.337  0.3078  0.3887  0.6814
 1171ntf    on5 8381   5.175   6.924   1.417  0.1648  0.2547  0.4450
 1171ntf    on5 8382   5.051   6.720   1.357  0.4591 -0.6810 -0.2554
 1171ntf    fn4 8383   5.211   6.810   1.682  0.1533 -0.9568  0.3134
 1171ntf    fn4 8384   5.126   6.628   1.642  0.3660 -0.0223  0.5146
 1171ntf    fn4 8385   5.001   6.802   1.641  0.2384 -0.2417 -0.3338
 1172ntf    cn1 8386   1.185   0.073   6.001 -0.3296  0.1882 -0.3666
 1172ntf    sn2 8387   1.193   0.145   5.834  0.0223  0.1330 -0.3748
 1172ntf    nn3 8388   1.199   0.011   5.753 -0.0638 -0.1074  0.0114
 1172ntf    sn2 8389   1.146  -0.003   5.606  0.0033  0.2175 -0.0454
 1172ntf    cn1 8390   0.977  -0.060   5.640  0.0664  0.0005 -0.0925
 1172ntf    fn4 8391   1.071   0.009   6.021 -0.4322  0.4043 -0.2550
 1172ntf    fn4 8392   1.284  -0.013   6.016 -0.1786  0.3141 -0.6348
 1172ntf    fn4 8393   1.207   0.168   6.091 -0.6174  0.3772 -0.4926
 1172ntf    on5 8394   1.071   0.223   5.826 -0.2367 -0.2307 -0.0091
 1172ntf    on5 8395   1.321   0.211   5.838  0.3734 -0.5842  0.8243
 1172ntf    on5 8396   1.127   0.121   5.534  0.6535  0.4114  0.1116
 1172ntf    on5 8397   1.202  -0.113   5.532 -0.6004  0.1724 -0.4449
 1172ntf    fn4 8398   0.974  -0.155   5.731 -0.3972  0.0472 -0.0575
 1172ntf    fn4 8399   0.913  -0.103   5.532 -0.0532 -0.2813  0.0883
 1172ntf    fn4 8400   0.901   0.038   5.687  0.8451  0.5210  0.0918
 1173ntf    cn1 8401   4.873   1.960   6.183  0.0566 -0.2667  0.3380
 1173ntf    sn2 8402   5.028   2.001   6.269  0.1126  0.1049  0.0616
 1173ntf    nn3 8403   4.970   2.126   6.345  0.7961  0.1295  0.5470
 1173ntf    sn2 8404   4.909   2.141   6.489 -0.2396 -0.0685  0.1362
 1173ntf    cn1 8405   5.063   2.164   6.583  0.0564  0.0899 -0.3849
 1173ntf    fn4 8406   4.818   2.057   6.111  0.2023  0.0550  0.6587
 1173ntf    fn4 8407   4.906   1.859   6.103 -0.1141 -0.3181  0.3310
 1173ntf    fn4 8408   4.782   1.918   6.269 -0.2368 -0.0865  0.1154
 1173ntf    on5 8409   5.063   1.883   6.344  0.4786  0.3414  0.2653
 1173ntf    on5 8410   5.115   2.038   6.160 -0.3737 -0.4388 -0.5212
 1173ntf    on5 8411   4.825   2.258   6.504 -0.4417 -0.1830 -0.0939
 1173ntf    on5 8412   4.865   2.022   6.557 -0.0415  0.0020  0.3888
 1173ntf    fn4 8413   5.155   2.070   6.570 -0.0432 -0.0018 -0.4299
 1173ntf    fn4 8414   5.037   2.174   6.712 -0.1504 -0.4629 -0.3830
 1173ntf    fn4 8415   5.124   2.275   6.545 -0.0874  0.5567  0.7251
 1174ntf    cn1 8416   3.061   2.824   2.198  0.4671  0.6735  0.4361
 1174ntf    sn2 8417   3.048   2.982   2.109 -0.1125  0.3222 -0.1052
 1174ntf    nn3 8418   2.897   2.972   2.070 -0.1990 -0.3893  0.3810
 1174ntf    sn2 8419   2.845   2.956   1.922  0.1866 -0.0649  0.2098
 1174ntf    cn1 8420   2.739   3.104   1.917 -0.0590 -0.2491  0.0015
 1174ntf    fn4 8421   3.006   2.723   2.134 -0.4612  1.2207  0.3529
 1174ntf    fn4 8422   3.187   2.787   2.215  0.1774 -0.6969 -0.2646
 1174ntf    fn4 8423   3.013   2.823   2.322  0.1417 -0.6284  0.3123
 1174ntf    on5 8424   3.082   3.087   2.201 -0.4274  0.4489 -0.1349
 1174ntf    on5 8425   3.140   2.960   2.000  0.0325  0.3665  0.0079
 1174ntf    on5 8426   2.942   2.980   1.818  0.0026 -0.5913 -0.0835
 1174ntf    on5 8427   2.752   2.847   1.910  0.3187 -0.2363  0.7194
 1174ntf    fn4 8428   2.801   3.214   1.954 -0.4258  0.0074 -0.1418
 1174ntf    fn4 8429   2.640   3.092   2.004 -0.2221  0.4837 -0.0742
 1174ntf    fn4 8430   2.686   3.123   1.797 -0.2699 -0.1619  0.1070
 1175ntf    cn1 8431   1.128   3.432   4.328 -0.0178  0.0006  0.0104
 1175ntf    sn2 8432   1.015   3.302   4.270  0.1612 -0.1016 -0.1095
 1175ntf    nn3 8433   0.980   3.223   4.401  0.0905  0.0297 -0.0492
 1175ntf    sn2 8434   1.003   3.071   4.430 -0.3480 -0.0283  0.0033
 1175ntf    cn1 8435   0.869   2.976   4.353 -0.3101 -0.1907  0.1356
 1175ntf    fn4 8436   1.194   3.484   4.226  0.4813  0.4794  0.5720
 1175ntf    fn4 8437   1.078   3.538   4.389 -0.3640 -0.4241  0.4741
 1175ntf    fn4 8438   1.221   3.383   4.408  0.1511  0.5402  0.1460
 1175ntf    on5 8439   0.899   3.378   4.230  0.3042 -0.0460 -0.4264
 1175ntf    on5 8440   1.078   3.222   4.167 -0.2478 -0.4132 -0.1177
 1175ntf    on5 8441   1.134   3.024   4.392 -0.3524 -0.2559  0.2573
 1175ntf    on5 8442   0.969   3.039   4.567 -0.6958 -0.1895 -0.1192
 1175ntf    fn4 8443   0.832   3.026   4.236  0.1371  0.1712  0.1456
 1175ntf    fn4 8444   0.763   2.968   4.432 -0.2822 -0.0554  0.1859
 1175ntf    fn4 8445   0.904   2.852   4.324 -0.3961 -0.1124 -0.3172
 1176ntf    cn1 8446   3.749   0.851   2.029  0.2571  0.0611 -0.0459
 1176ntf    sn2 8447   3.724   0.674   1.996 -0.2145  0.0247  0.5000
 1176ntf    nn3 8448   3.567   0.663   1.986 -0.1758 -0.0267 -0.0686
 1176ntf    sn2 8449   3.474   0.538   2.000 -0.1019 -0.0483  0.2300
 1176ntf    cn1 8450   3.374   0.584   2.145 -0.5621 -0.3375  0.0089
 1176ntf    fn4 8451   3.702   0.883   2.148 -0.3876 -0.0386 -0.2707
 1176ntf    fn4 8452   3.875   0.889   2.017  0.3303 -0.2154 -0.1728
 1176ntf    fn4 8453   3.678   0.919   1.941  0.1027 -0.0245  0.0112
 1176ntf    on5 8454   3.784   0.663   1.866  0.4604  0.0442  0.8092
 1176ntf    on5 8455   3.797   0.608   2.102  0.1589 -0.5979 -0.1366
 1176ntf    on5 8456   3.371   0.525   1.900  0.3359 -0.0242 -0.2251
 1176ntf    on5 8457   3.528   0.412   2.045  0.3991  0.3161  0.6639
 1176ntf    fn4 8458   3.343   0.712   2.131 -0.2986 -0.2671  0.0521
 1176ntf    fn4 8459   3.438   0.576   2.261  0.0258  0.8896 -0.2124
 1176ntf    fn4 8460   3.257   0.525   2.158 -0.4469 -0.5769 -0.0450
 1177ntf    cn1 8461   1.500   1.449   4.327 -0.3839  0.1521  0.3527
 1177ntf    sn2 8462   1.406   1.602   4.353 -0.3542  0.2089  0.1231
 1177ntf    nn3 8463   1.525   1.699   4.385 -0.1112  0.0476 -0.2842
 1177ntf    sn2 8464   1.525   1.832   4.469 -0.2922 -0.3542  0.3543
 1177ntf    cn1 8465   1.566   1.759   4.631  0.1478 -0.1398  0.3392
 1177ntf    fn4 8466   1.539   1.426   4.203  0.1136 -0.6102  0.6432
 1177ntf    fn4 8467   1.604   1.463   4.406 -0.0144  0.1836 -0.1357
 1177ntf    fn4 8468   1.432   1.344   4.371 -0.4044 -0.0814 -0.2284
 1177ntf    on5 8469   1.365   1.622   4.216  0.3041 -0.3614 -0.1657
 1177ntf    on5 8470   1.306   1.569   4.451 -0.4314  0.0575 -0.0051
 1177ntf    on5 8471   1.634   1.924   4.447 -0.3449 -0.3216  0.2286
 1177ntf    on5 8472   1.398   1.897   4.490 -0.3139 -0.3764  0.2912
 1177ntf    fn4 8473   1.680   1.691   4.624  0.0398 -0.2723 -0.2335
 1177ntf    fn4 8474   1.473   1.682   4.684  0.1236 -0.5155 -0.2383
 1177ntf    fn4 8475   1.593   1.843   4.729 -0.4751 -0.3518  0.6979
 1178ntf    cn1 8476   5.633   1.241   0.771 -0.0220  0.0586  0.3669
 1178ntf    sn2 8477   5.733   1.363   0.862  0.2060 -0.0547  0.2688
 1178ntf    nn3 8478   5.794   1.441   0.741 -0.2069 -0.2368 -0.0627
 1178ntf    sn2 8479   5.822   1.596   0.736 -0.0021 -0.2799 -0.2735
 1178ntf    cn1 8480   5.659   1.659   0.685  0.0273 -0.3376 -0.4432
 1178ntf    fn4 8481   5.566   1.161   0.852  0.0799  0.0289  0.4206
 1178ntf    fn4 8482   5.549   1.301   0.687 -0.0457 -0.3587  0.0880
 1178ntf    fn4 8483   5.704   1.156   0.699 -0.1939 -0.1060  0.3903
 1178ntf    on5 8484   5.629   1.433   0.933  0.2063 -0.0930  0.3066
 1178ntf    on5 8485   5.826   1.280   0.934 -0.1317  0.1060  0.8984
 1178ntf    on5 8486   5.848   1.654   0.865 -0.0796 -0.2838 -0.2564
 1178ntf    on5 8487   5.916   1.637   0.634  0.1653 -0.2145 -0.0918
 1178ntf    fn4 8488   5.618   1.599   0.575  0.4590 -0.8896 -0.3042
 1178ntf    fn4 8489   5.659   1.790   0.661 -0.3078 -0.2229  0.1686
 1178ntf    fn4 8490   5.569   1.649   0.781  0.0788 -0.3067 -0.3910
 1179ntf    cn1 8491   1.391   0.664   4.022 -0.4391 -0.0341 -0.0116
 1179ntf    sn2 8492   1.412   0.669   4.202 -0.0153 -0.2621 -0.0523
 1179ntf    nn3 8493   1.275   0.730   4.248  0.1388 -0.0053  0.0658
 1179ntf    sn2 8494   1.248   0.803   4.385  0.1951 -0.2043  0.1819
 1179ntf    cn1 8495   1.202   0.650   4.471 -0.1493  0.0530  0.4555
 1179ntf    fn4 8496   1.507   0.666   3.958 -0.4502  0.2542 -0.0249
 1179ntf    fn4 8497   1.330   0.554   3.980  0.2360 -0.2620 -0.4151
 1179ntf    fn4 8498   1.322   0.766   3.974  0.4754  0.3632 -0.5190
 1179ntf    on5 8499   1.438   0.531   4.236 -0.2736 -0.3354 -0.1496
 1179ntf    on5 8500   1.525   0.758   4.210 -0.0298 -0.2284 -0.2215
 1179ntf    on5 8501   1.363   0.847   4.460  0.2388 -0.1209  0.0664
 1179ntf    on5 8502   1.137   0.894   4.389  0.6921  0.4038  0.3003
 1179ntf    fn4 8503   1.282   0.550   4.436 -0.4094 -0.1191  0.3519
 1179ntf    fn4 8504   1.083   0.608   4.433 -0.1423  0.2738  0.1919
 1179ntf    fn4 8505   1.197   0.662   4.603 -0.3730 -0.2178  0.4726
 1180ntf    cn1 8506   3.235   3.843   1.516  0.3292 -0.1756 -0.1898
 1180ntf    sn2 8507   3.279   3.912   1.678  0.1670 -0.0560 -0.1966
 1180ntf    nn3 8508   3.172   3.837   1.765  0.2932 -0.2207 -0.1844
 1180ntf    sn2 8509   3.193   3.737   1.885 -0.1293  0.1114  0.1691
 1180ntf    cn1 8510   3.243   3.583   1.802  0.1812  0.1919  0.2056
 1180ntf    fn4 8511   3.320   3.860   1.416  0.5486 -0.1120  0.0080
 1180ntf    fn4 8512   3.217   3.713   1.532  0.3293 -0.0711  0.6911
 1180ntf    fn4 8513   3.120   3.890   1.470  0.5487 -0.1170 -0.6860
 1180ntf    on5 8514   3.419   3.883   1.691  0.0402 -0.4861  0.2353
 1180ntf    on5 8515   3.258   4.053   1.654  0.1072 -0.0040  0.1528
 1180ntf    on5 8516   3.296   3.765   1.982  0.1556  0.4756 -0.2299
 1180ntf    on5 8517   3.062   3.704   1.936 -0.0983  0.1216  0.2551
 1180ntf    fn4 8518   3.149   3.519   1.735  0.5764 -0.2196  0.0403
 1180ntf    fn4 8519   3.295   3.488   1.878 -0.3503 -0.3655 -0.1234
 1180ntf    fn4 8520   3.341   3.598   1.714  0.0977  0.1951  0.1137
 1181ntf    cn1 8521   3.350   4.453   2.559 -0.0231 -0.3197 -0.0405
 1181ntf    sn2 8522   3.473   4.328   2.510  0.2302 -0.0914  0.0110
 1181ntf    nn3 8523   3.535   4.408   2.391  0.0286  0.1523  0.0699
 1181ntf    sn2 8524   3.472   4.425   2.248  0.1189 -0.0990  0.0005
 1181ntf    cn1 8525   3.589   4.320   2.157 -0.0842  0.0804 -0.4749
 1181ntf    fn4 8526   3.253   4.470   2.470 -0.1728 -0.3392  0.1190
 1181ntf    fn4 8527   3.292   4.414   2.671 -0.1103 -0.8164 -0.2510
 1181ntf    fn4 8528   3.396   4.573   2.589 -0.4520 -0.1076 -0.2174
 1181ntf    on5 8529   3.558   4.321   2.627 -0.1634  0.3069  0.3238
 1181ntf    on5 8530   3.383   4.217   2.490  0.2686 -0.1203  0.0009
 1181ntf    on5 8531   3.345   4.360   2.225  0.1652 -0.0096 -0.5229
 1181ntf    on5 8532   3.490   4.552   2.182 -0.1545 -0.2209 -0.3115
 1181ntf    fn4 8533   3.550   4.291   2.035 -0.4274 -0.3100 -0.2734
 1181ntf    fn4 8534   3.599   4.200   2.213  0.3475  0.3317  0.0054
 1181ntf    fn4 8535   3.709   4.375   2.143 -0.0596  0.0779 -0.2742
 1182ntf    cn1 8536   5.186   4.199   5.598 -0.4206 -0.4531 -0.3633
 1182ntf    sn2 8537   5.062   4.232   5.727 -0.0567  0.1570 -0.1633
 1182ntf    nn3 8538   5.153   4.190   5.848 -0.0332  0.4539 -0.0784
 1182ntf    sn2 8539   5.156   4.246   5.995  0.2282  0.3349 -0.0374
 1182ntf    cn1 8540   5.312   4.338   5.984  0.3323  0.1470 -0.1235
 1182ntf    fn4 8541   5.296   4.268   5.623 -0.6236 -0.2397 -0.0590
 1182ntf    fn4 8542   5.217   4.071   5.588  0.3639 -0.3048  0.0850
 1182ntf    fn4 8543   5.148   4.242   5.478 -0.0784 -0.6599 -0.5474
 1182ntf    on5 8544   5.042   4.373   5.706  0.2480  0.2698  0.3058
 1182ntf    on5 8545   4.962   4.132   5.701 -0.2627  0.1852  0.5103
 1182ntf    on5 8546   5.058   4.347   6.027  0.2017  0.4388 -0.4331
 1182ntf    on5 8547   5.184   4.138   6.085  0.6039 -0.0233 -0.5758
 1182ntf    fn4 8548   5.326   4.422   6.085  0.6425  0.0087 -0.0476
 1182ntf    fn4 8549   5.312   4.405   5.870 -0.0772  0.2295 -0.0748
 1182ntf    fn4 8550   5.414   4.253   5.977 -0.1475 -0.4659  0.2395
 1183ntf    cn1 8551   1.658   0.044   2.890  0.2614 -0.1041 -0.2320
 1183ntf    sn2 8552   1.673   0.045   2.709 -0.5538  0.2215 -0.3025
 1183ntf    nn3 8553   1.540  -0.027   2.671 -0.4693 -0.3306  0.4327
 1183ntf    sn2 8554   1.499  -0.099   2.537 -0.0432  0.2037  0.0111
 1183ntf    cn1 8555   1.381   0.020   2.466 -0.4532 -0.1518  0.0899
 1183ntf    fn4 8556   1.750   0.107   2.961  0.1453 -0.4320  0.2132
 1183ntf    fn4 8557   1.541   0.098   2.920  0.7417  0.9135 -0.1392
 1183ntf    fn4 8558   1.653  -0.078   2.942 -0.1262 -0.0471 -0.1350
 1183ntf    on5 8559   1.674   0.185   2.675  0.2636  0.1820 -0.4794
 1183ntf    on5 8560   1.795  -0.032   2.702 -0.2876  0.6110 -0.0082
 1183ntf    on5 8561   1.605  -0.108   2.440 -0.0431  0.4229 -0.0101
 1183ntf    on5 8562   1.428  -0.222   2.563 -0.1944  0.2627 -0.1208
 1183ntf    fn4 8563   1.299   0.076   2.553  0.7130  0.9733  0.5027
 1183ntf    fn4 8564   1.303  -0.025   2.370 -0.4126 -0.0491  0.0097
 1183ntf    fn4 8565   1.444   0.127   2.419  0.3537 -0.4956  0.3666
 1184ntf    cn1 8566   1.107   4.576   1.892 -0.2689 -0.2666 -0.0136
 1184ntf    sn2 8567   1.220   4.454   1.820 -0.3191 -0.2719 -0.0833
 1184ntf    nn3 8568   1.213   4.328   1.913 -0.0915  0.0166  0.3304
 1184ntf    sn2 8569   1.327   4.237   1.971 -0.0466 -0.1492 -0.0143
 1184ntf    cn1 8570   1.257   4.070   1.957  0.1681 -0.1930 -0.5948
 1184ntf    fn4 8571   0.986   4.526   1.913 -0.2173 -0.2773  0.2732
 1184ntf    fn4 8572   1.153   4.627   2.005  0.0732  0.1596 -0.3421
 1184ntf    fn4 8573   1.086   4.676   1.808  0.4660  0.0605  0.1826
 1184ntf    on5 8574   1.150   4.420   1.699  0.5541 -0.6724 -0.4851
 1184ntf    on5 8575   1.343   4.528   1.811  0.1054 -0.9844 -0.2017
 1184ntf    on5 8576   1.445   4.227   1.888  0.0999  0.1360  0.1553
 1184ntf    on5 8577   1.338   4.257   2.113  0.6208 -0.0819 -0.0724
 1184ntf    fn4 8578   1.175   4.040   2.056  0.5771 -0.0546 -0.2104
 1184ntf    fn4 8579   1.341   3.967   1.961 -0.3907 -0.6612 -0.7858
 1184ntf    fn4 8580   1.193   4.058   1.842 -0.3260 -0.1950 -0.3228
 1185ntf    cn1 8581   5.602   4.698   4.821 -0.1396 -0.2025  0.0518
 1185ntf    sn2 8582   5.533   4.683   4.989 -0.0844 -0.2280  0.0719
 1185ntf    nn3 8583   5.612   4.793   5.067 -0.5299  0.3421 -0.2693
 1185ntf    sn2 8584   5.586   4.878   5.197  0.1490  0.0586  0.0573
 1185ntf    cn1 8585   5.747   4.867   5.280  0.2319  0.0067 -0.1097
 1185ntf    fn4 8586   5.574   4.584   4.760  0.2337 -0.4342  0.3089
 1185ntf    fn4 8587   5.560   4.796   4.743 -0.7046 -0.3045  0.2224
 1185ntf    fn4 8588   5.733   4.711   4.830 -0.1446  0.0077 -0.1756
 1185ntf    on5 8589   5.394   4.718   4.972 -0.0372  0.1719  0.4819
 1185ntf    on5 8590   5.561   4.550   5.037  0.0430 -0.0340  0.5342
 1185ntf    on5 8591   5.569   5.019   5.176 -0.7060 -0.0320  0.0767
 1185ntf    on5 8592   5.498   4.817   5.294 -0.1524  0.1478 -0.1565
 1185ntf    fn4 8593   5.770   4.741   5.315  0.3328  0.0066 -0.1762
 1185ntf    fn4 8594   5.750   4.943   5.388  0.2487  0.8176 -0.6772
 1185ntf    fn4 8595   5.847   4.894   5.197  0.3592 -0.5078 -0.1291
 1186ntf    cn1 8596   3.553   3.377   2.552  0.1407  0.2319  0.2016
 1186ntf    sn2 8597   3.718   3.441   2.508 -0.0122  0.4209 -0.1017
 1186ntf    nn3 8598   3.689   3.592   2.478 -0.2848  0.4252  0.1777
 1186ntf    sn2 8599   3.778   3.670   2.376 -0.0220  0.0345  0.1065
 1186ntf    cn1 8600   3.712   3.624   2.213 -0.2584  0.4503  0.0844
 1186ntf    fn4 8601   3.503   3.447   2.652  0.2936  0.0621  0.3987
 1186ntf    fn4 8602   3.469   3.385   2.451  0.6922  0.2840 -0.2597
 1186ntf    fn4 8603   3.552   3.249   2.587  0.3491  0.0396 -0.4662
 1186ntf    on5 8604   3.791   3.426   2.632  0.0435  0.0132 -0.1818
 1186ntf    on5 8605   3.768   3.363   2.398 -0.3016 -0.2054  0.2034
 1186ntf    on5 8606   3.751   3.812   2.383  0.1779  0.0593  0.4384
 1186ntf    on5 8607   3.919   3.640   2.369 -0.0403 -0.0740  0.2098
 1186ntf    fn4 8608   3.680   3.497   2.197  0.2008  0.3497 -0.0316
 1186ntf    fn4 8609   3.793   3.665   2.117 -0.0844  0.0052  0.0385
 1186ntf    fn4 8610   3.598   3.686   2.186 -0.3254  0.5253  0.5301
 1187ntf    cn1 8611   4.232   5.462   3.436  0.2274  0.1263  0.0841
 1187ntf    sn2 8612   4.275   5.626   3.368  0.0762  0.0385 -0.2221
 1187ntf    nn3 8613   4.409   5.640   3.449 -0.0621 -0.7545  0.1561
 1187ntf    sn2 8614   4.420   5.720   3.583 -0.0282 -0.0082 -0.2861
 1187ntf    cn1 8615   4.558   5.624   3.653  0.1249  0.2409 -0.2441
 1187ntf    fn4 8616   4.122   5.415   3.380  0.1114  0.1995  0.2526
 1187ntf    fn4 8617   4.324   5.368   3.429  0.1322 -0.0037  0.5702
 1187ntf    fn4 8618   4.202   5.483   3.563 -0.0809  0.0083  0.0308
 1187ntf    on5 8619   4.304   5.611   3.227  0.2926 -0.1400 -0.1587
 1187ntf    on5 8620   4.158   5.701   3.405  0.1211 -0.0995  0.2024
 1187ntf    on5 8621   4.476   5.853   3.579 -0.4262  0.1793  0.2314
 1187ntf    on5 8622   4.313   5.701   3.677 -0.2039  0.2409 -0.4344
 1187ntf    fn4 8623   4.676   5.653   3.601  0.2309 -0.1313 -0.2092
 1187ntf    fn4 8624   4.546   5.493   3.641 -0.0492  0.2579 -0.2636
 1187ntf    fn4 8625   4.574   5.644   3.783  0.2835 -0.5885 -0.1343
 1188ntf    cn1 8626   3.434   4.420   6.216 -0.2758  0.0081  0.3267
 1188ntf    sn2 8627   3.520   4.271   6.158 -0.2936  0.1415 -0.0414
 1188ntf    nn3 8628   3.579   4.217   6.293 -0.1256  0.0988 -0.1301
 1188ntf    sn2 8629   3.523   4.108   6.391 -0.4150  0.3075 -0.0594
 1188ntf    cn1 8630   3.630   3.971   6.335 -0.1511  0.5054 -0.0406
 1188ntf    fn4 8631   3.405   4.498   6.113  0.0128 -0.2356  0.0610
 1188ntf    fn4 8632   3.313   4.403   6.267 -0.2527 -0.0098  0.3756
 1188ntf    fn4 8633   3.512   4.491   6.296 -0.4014  0.3242  0.1697
 1188ntf    on5 8634   3.425   4.186   6.089  0.0520  0.0702 -0.4348
 1188ntf    on5 8635   3.636   4.316   6.085  0.2083  0.2234  0.7951
 1188ntf    on5 8636   3.565   4.112   6.529 -0.7336 -0.0407  0.0500
 1188ntf    on5 8637   3.391   4.060   6.360 -0.3623  0.2772 -0.2396
 1188ntf    fn4 8638   3.757   4.004   6.351  0.0840 -0.3621 -0.0942
 1188ntf    fn4 8639   3.602   3.947   6.208 -0.2533  0.2412  0.0303
 1188ntf    fn4 8640   3.606   3.858   6.399  0.0391  0.5001  0.0213
 1189ntf    cn1 8641   2.135   3.705   6.697  0.1739  0.1599  0.0742
 1189ntf    sn2 8642   2.299   3.732   6.625  0.3607 -0.0227  0.4283
 1189ntf    nn3 8643   2.379   3.606   6.673  0.8765  0.1290 -0.0227
 1189ntf    sn2 8644   2.371   3.464   6.607  0.0364  0.1995 -0.0786
 1189ntf    cn1 8645   2.424   3.348   6.736  0.3922  0.5381  0.0797
 1189ntf    fn4 8646   2.125   3.728   6.827 -0.3864 -0.1119  0.0822
 1189ntf    fn4 8647   2.039   3.780   6.645 -0.1529 -0.1522  0.2152
 1189ntf    fn4 8648   2.098   3.579   6.680  0.7037 -0.0124  0.1778
 1189ntf    on5 8649   2.281   3.720   6.482  0.2778 -0.4920  0.4781
 1189ntf    on5 8650   2.335   3.859   6.685 -0.1575  0.5385 -0.4274
 1189ntf    on5 8651   2.241   3.419   6.561  0.1352 -0.2089  0.0334
 1189ntf    on5 8652   2.478   3.460   6.511  0.0072  0.1052 -0.1077
 1189ntf    fn4 8653   2.544   3.367   6.788  0.5999 -0.6289  0.0495
 1189ntf    fn4 8654   2.418   3.226   6.687  0.1141  0.6015 -0.0460
 1189ntf    fn4 8655   2.347   3.344   6.844  0.2866 -0.4132 -0.0228
 1190ntf    cn1 8656   5.978   0.848   5.586  0.0865 -0.2674  0.2319
 1190ntf    sn2 8657   6.136   0.885   5.503 -0.0200  0.0821  0.1834
 1190ntf    nn3 8658   6.146   0.759   5.409  0.0751 -0.0147  0.3218
 1190ntf    sn2 8659   6.265   0.675   5.352 -0.4590 -0.3659 -0.2896
 1190ntf    cn1 8660   6.290   0.747   5.187  0.0124 -0.6753 -0.3562
 1190ntf    fn4 8661   5.951   0.930   5.686 -0.2004 -0.4639  0.3168
 1190ntf    fn4 8662   5.876   0.851   5.501  0.6468 -0.3438 -0.4555
 1190ntf    fn4 8663   5.990   0.728   5.642  0.3837 -0.3266  0.0438
 1190ntf    on5 8664   6.115   1.002   5.422 -0.2596 -0.3933 -0.4490
 1190ntf    on5 8665   6.232   0.891   5.610  0.0003  0.0755  0.1657
 1190ntf    on5 8666   6.390   0.695   5.421 -0.3792  0.1986 -0.5899
 1190ntf    on5 8667   6.228   0.537   5.335 -0.9204 -0.2391 -0.3064
 1190ntf    fn4 8668   6.374   0.667   5.123  0.4332 -0.2243 -0.3753
 1190ntf    fn4 8669   6.336   0.870   5.199 -0.4323 -0.5119 -0.2818
 1190ntf    fn4 8670   6.174   0.759   5.123  0.1304 -0.0632 -0.4573
 1191ntf    cn1 8671   5.644   0.813   1.455  0.1937 -0.0884  0.4443
 1191ntf    sn2 8672   5.521   0.735   1.346  0.2642  0.2240  0.1417
 1191ntf    nn3 8673   5.403   0.744   1.449  0.4707  0.5739  0.3542
 1191ntf    sn2 8674   5.280   0.842   1.457  0.1543  0.2330 -0.2190
 1191ntf    cn1 8675   5.162   0.745   1.358 -0.1516  0.1698  0.2030
 1191ntf    fn4 8676   5.664   0.751   1.570 -0.0709  0.3756  0.7443
 1191ntf    fn4 8677   5.758   0.824   1.389 -0.1602  0.1172 -0.1410
 1191ntf    fn4 8678   5.613   0.937   1.491 -0.3979  0.0393 -0.4901
 1191ntf    on5 8679   5.512   0.817   1.228  0.2941  0.1429  0.0832
 1191ntf    on5 8680   5.579   0.604   1.329  0.0883  0.1584  0.0526
 1191ntf    on5 8681   5.225   0.848   1.590  0.1521 -0.2881 -0.1934
 1191ntf    on5 8682   5.294   0.966   1.385  0.4753  0.6226  0.5018
 1191ntf    fn4 8683   5.223   0.703   1.248  0.1167 -0.2976  0.5259
 1191ntf    fn4 8684   5.064   0.824   1.320 -0.1521  0.1005  0.0596
 1191ntf    fn4 8685   5.109   0.639   1.416 -0.1819  0.0009 -0.1322
 1192ntf    cn1 8686   3.019   6.435   0.043  0.0829 -0.3617 -0.5398
 1192ntf    sn2 8687   3.004   6.476  -0.133 -0.1721  0.5902 -0.3046
 1192ntf    nn3 8688   3.034   6.630  -0.134  0.7027  0.4314  0.3933
 1192ntf    sn2 8689   3.069   6.724  -0.255 -0.2283  0.2266 -0.0417
 1192ntf    cn1 8690   3.249   6.742  -0.242 -0.2019  0.0265 -0.1281
 1192ntf    fn4 8691   2.952   6.512   0.128  0.1518 -0.2518 -0.5850
 1192ntf    fn4 8692   2.984   6.309   0.061 -0.0746 -0.2194  0.2130
 1192ntf    fn4 8693   3.146   6.445   0.079  0.0018  0.0791 -0.3638
 1192ntf    on5 8694   3.106   6.403  -0.204  0.2142  0.8592 -0.0292
 1192ntf    on5 8695   2.866   6.444  -0.156 -0.0596 -0.1110 -0.0247
 1192ntf    on5 8696   3.063   6.658  -0.382 -0.5596 -0.0187  0.1002
 1192ntf    on5 8697   3.021   6.860  -0.245  0.7990  0.5631  0.4331
 1192ntf    fn4 8698   3.319   6.632  -0.263 -0.2239 -0.0204  0.0416
 1192ntf    fn4 8699   3.282   6.789  -0.123 -0.8819 -0.0897  0.1126
 1192ntf    fn4 8700   3.294   6.822  -0.337 -0.1578 -0.0425 -0.1650
 1193ntf    cn1 8701   1.799   2.802   0.462  0.2617 -0.2222  0.4806
 1193ntf    sn2 8702   1.953   2.766   0.373 -0.0515 -0.0570 -0.1329
 1193ntf    nn3 8703   2.000   2.905   0.317 -0.2231  0.1381  0.2063
 1193ntf    sn2 8704   2.119   2.993   0.367  0.3161 -0.3029 -0.2915
 1193ntf    cn1 8705   2.156   3.068   0.205  0.2237 -0.2642 -0.2939
 1193ntf    fn4 8706   1.820   2.883   0.564  0.0545  0.5715 -0.0974
 1193ntf    fn4 8707   1.714   2.856   0.376  0.6284 -0.2791  0.0792
 1193ntf    fn4 8708   1.744   2.690   0.507 -0.2131 -0.3526 -0.4109
 1193ntf    on5 8709   2.042   2.710   0.471 -0.5687 -0.3165  0.1898
 1193ntf    on5 8710   1.909   2.678   0.267  0.5329  0.0135 -0.4386
 1193ntf    on5 8711   2.070   3.104   0.445  0.4733 -0.2793 -0.2240
 1193ntf    on5 8712   2.244   2.927   0.396 -0.0179 -0.8971 -0.1883
 1193ntf    fn4 8713   2.205   2.982   0.118 -0.3731 -0.4936 -0.4099
 1193ntf    fn4 8714   2.247   3.163   0.221  0.3103 -0.4440  0.3252
 1193ntf    fn4 8715   2.047   3.122   0.152  0.3073 -0.3752 -0.5762
 1194ntf    cn1 8716   2.195   0.668   1.640 -0.1447 -0.3768  0.3987
 1194ntf    sn2 8717   2.172   0.691   1.461  0.0728 -0.1744  0.3967
 1194ntf    nn3 8718   2.283   0.798   1.429  0.0404 -0.2894 -0.1082
 1194ntf    sn2 8719   2.268   0.922   1.333  0.2533 -0.1215  0.0756
 1194ntf    cn1 8720   2.384   0.879   1.200  0.4613  0.1039  0.1835
 1194ntf    fn4 8721   2.321   0.645   1.674 -0.1224 -0.4865  0.2475
 1194ntf    fn4 8722   2.165   0.775   1.711 -0.0374 -0.2402  0.2402
 1194ntf    fn4 8723   2.127   0.569   1.695 -0.8697 -0.1220 -0.0263
 1194ntf    on5 8724   2.202   0.559   1.413  0.0746  0.0303 -0.1772
 1194ntf    on5 8725   2.035   0.735   1.461  0.0895 -0.0909 -0.5401
 1194ntf    on5 8726   2.146   0.920   1.257 -0.0714  0.3522  0.5753
 1194ntf    on5 8727   2.314   1.049   1.384  0.4202 -0.2801  0.3233
 1194ntf    fn4 8728   2.383   0.962   1.097  0.1468 -0.1445 -0.0175
 1194ntf    fn4 8729   2.361   0.764   1.140  0.4052  0.1434  0.1293
 1194ntf    fn4 8730   2.510   0.878   1.243  0.4887  0.4165  0.1145
 1195ntf    cn1 8731   5.140   5.892   4.183 -0.0806  0.3543  0.1556
 1195ntf    sn2 8732   5.321   5.872   4.177 -0.1190  0.1231 -0.2703
 1195ntf    nn3 8733   5.362   6.022   4.201 -0.1165  0.0196  0.3805
 1195ntf    sn2 8734   5.392   6.087   4.341  0.7072  0.0957  0.1736
 1195ntf    cn1 8735   5.570   6.061   4.360  0.7398 -0.2013 -0.4849
 1195ntf    fn4 8736   5.100   5.930   4.303 -0.2115 -0.3571  0.3400
 1195ntf    fn4 8737   5.090   5.975   4.093  0.0797  0.2750 -0.0072
 1195ntf    fn4 8738   5.066   5.786   4.159 -0.0030  0.2941  0.1829
 1195ntf    on5 8739   5.346   5.775   4.280 -1.4260  0.2172  0.1565
 1195ntf    on5 8740   5.350   5.822   4.045 -0.3704 -0.0504 -0.2607
 1195ntf    on5 8741   5.377   6.230   4.329 -0.6017 -0.0148  0.3427
 1195ntf    on5 8742   5.326   6.028   4.454  0.1584 -0.0835 -0.2351
 1195ntf    fn4 8743   5.645   6.153   4.302 -0.0013  0.1309 -0.9210
 1195ntf    fn4 8744   5.613   5.942   4.322  0.7172 -0.6679  0.8654
 1195ntf    fn4 8745   5.603   6.072   4.488 -0.2317  0.6335 -0.2973
 1196ntf    cn1 8746   4.714   2.551   3.205 -0.3615 -0.1679 -0.1847
 1196ntf    sn2 8747   4.885   2.530   3.263 -0.4125  0.1891  0.0925
 1196ntf    nn3 8748   4.853   2.543   3.416  0.1727 -0.0861  0.2414
 1196ntf    sn2 8749   4.877   2.451   3.540  0.3147 -0.5439 -0.1221
 1196ntf    cn1 8750   5.030   2.524   3.607 -0.1152 -0.1802  0.4759
 1196ntf    fn4 8751   4.693   2.555   3.074  0.2481 -0.2892 -0.2914
 1196ntf    fn4 8752   4.646   2.448   3.254  0.5227 -0.8592 -0.3676
 1196ntf    fn4 8753   4.661   2.659   3.260 -0.3032 -0.3066  0.1454
 1196ntf    on5 8754   4.919   2.398   3.216 -0.0460  0.2573  0.1659
 1196ntf    on5 8755   4.959   2.641   3.208 -0.2920  0.0646  0.0032
 1196ntf    on5 8756   4.780   2.486   3.641  0.1240  0.3262 -0.5990
 1196ntf    on5 8757   4.906   2.313   3.510  0.7074 -0.4315 -0.2709
 1196ntf    fn4 8758   5.015   2.642   3.666  0.4958  0.2582 -0.2170
 1196ntf    fn4 8759   5.128   2.531   3.518  0.0919 -0.2621  0.6968
 1196ntf    fn4 8760   5.084   2.448   3.700  0.5941 -0.1766  0.0738
 1197ntf    cn1 8761   0.156   4.906   0.206 -0.0430  0.2003 -0.2251
 1197ntf    sn2 8762   0.191   4.772   0.324  0.1310  0.2361 -0.2351
 1197ntf    nn3 8763   0.106   4.831   0.442  0.0555 -0.2910 -0.0235
 1197ntf    sn2 8764  -0.033   4.778   0.493 -0.0859  0.1541  0.0636
 1197ntf    cn1 8765   0.014   4.642   0.604  0.2092  0.0876 -0.1418
 1197ntf    fn4 8766   0.144   5.023   0.267  0.6166  0.3014 -0.2817
 1197ntf    fn4 8767   0.254   4.935   0.122  0.0641 -0.1666 -0.2262
 1197ntf    fn4 8768   0.038   4.895   0.148 -0.2466  0.1369  0.1939
 1197ntf    on5 8769   0.134   4.653   0.267 -0.5092  0.4644 -0.0903
 1197ntf    on5 8770   0.333   4.771   0.350 -0.0733 -0.2546  0.9203
 1197ntf    on5 8771  -0.092   4.881   0.575  0.6498  0.5415  0.1124
 1197ntf    on5 8772  -0.118   4.712   0.397 -0.1296 -0.5060  0.5497
 1197ntf    fn4 8773   0.071   4.681   0.717 -0.1906  0.4074 -0.0517
 1197ntf    fn4 8774   0.092   4.555   0.542  0.4998 -0.1448  0.5323
 1197ntf    fn4 8775  -0.093   4.571   0.637  0.3670  0.0601  0.3130
 1198ntf    cn1 8776   1.432   5.952   5.855 -0.0945  0.1216 -0.0276
 1198ntf    sn2 8777   1.271   5.988   5.930  0.0061  0.1727  0.1622
 1198ntf    nn3 8778   1.276   6.142   5.961  0.0091  0.1377  0.3389
 1198ntf    sn2 8779   1.317   6.220   6.090  0.5391 -0.0643  0.2946
 1198ntf    cn1 8780   1.322   6.395   6.043 -0.3788 -0.0183  0.3635
 1198ntf    fn4 8781   1.443   5.821   5.838  0.1380  0.1619 -0.2094
 1198ntf    fn4 8782   1.459   5.996   5.733  0.5743  0.5134  0.2525
 1198ntf    fn4 8783   1.537   5.985   5.928 -0.2378  0.1786  0.1529
 1198ntf    on5 8784   1.182   5.949   5.823 -0.2733 -0.8965  0.7635
 1198ntf    on5 8785   1.276   5.906   6.049 -0.1390 -0.0424  0.0222
 1198ntf    on5 8786   1.197   6.219   6.170  0.0251  0.3706 -0.4651
 1198ntf    on5 8787   1.447   6.196   6.148  0.2237 -0.2574  0.9266
 1198ntf    fn4 8788   1.413   6.424   5.952 -0.6339 -0.6994 -0.1133
 1198ntf    fn4 8789   1.351   6.468   6.150  0.6796 -0.5511  0.4494
 1198ntf    fn4 8790   1.209   6.429   5.983 -0.2490 -0.3797 -0.0880
 1199ntf    cn1 8791   0.884   0.703   2.652  0.1818  0.3715  0.0868
 1199ntf    sn2 8792   1.028   0.610   2.709  0.0945  0.0789 -0.1659
 1199ntf    nn3 8793   0.975   0.467   2.671 -0.3844  0.1564  0.2054
 1199ntf    sn2 8794   0.957   0.344   2.767  0.0297 -0.0378  0.0378
 1199ntf    cn1 8795   1.091   0.230   2.722  0.0249 -0.0355  0.0173
 1199ntf    fn4 8796   0.889   0.833   2.674 -0.1906  0.3461  0.3251
 1199ntf    fn4 8797   0.855   0.690   2.523  0.2260 -0.0345  0.1158
 1199ntf    fn4 8798   0.781   0.641   2.709  0.2248  0.1180 -0.1090
 1199ntf    on5 8799   1.129   0.658   2.618 -0.1322  0.6153 -0.1355
 1199ntf    on5 8800   1.039   0.648   2.848 -0.3732  0.2720 -0.1830
 1199ntf    on5 8801   0.973   0.365   2.908 -1.1016  0.2851  0.1276
 1199ntf    on5 8802   0.840   0.265   2.733 -0.3600  0.6719 -0.2861
 1199ntf    fn4 8803   1.085   0.195   2.595  0.6173  0.0893 -0.0465
 1199ntf    fn4 8804   1.078   0.115   2.787  0.1716  0.1795  0.4297
 1199ntf    fn4 8805   1.212   0.278   2.747  0.1307 -0.1254 -0.3153
 1200ntf    cn1 8806   1.544   5.267   0.649 -0.1503 -0.1936 -0.4407
 1200ntf    sn2 8807   1.627   5.321   0.801 -0.1206 -0.3679 -0.3949
 1200ntf    nn3 8808   1.780   5.325   0.765  0.1210 -0.3993  0.5930
 1200ntf    sn2 8809   1.875   5.441   0.809  0.0757 -0.1605  0.0691
 1200ntf    cn1 8810   2.021   5.346   0.862  0.5716  0.0834 -0.8369
 1200ntf    fn4 8811   1.590   5.151   0.606  0.2937 -0.4483  0.7011
 1200ntf    fn4 8812   1.416   5.241   0.672 -0.1450 -0.0769 -0.2823
 1200ntf    fn4 8813   1.549   5.359   0.554 -0.0290  0.8704  0.5799
 1200ntf    on5 8814   1.565   5.450   0.822  0.0504 -0.3804  0.2152
 1200ntf    on5 8815   1.588   5.227   0.903 -0.3919 -0.2002 -0.3413
 1200ntf    on5 8816   1.925   5.529   0.706  0.1339 -0.1787  0.0813
 1200ntf    on5 8817   1.837   5.499   0.936 -0.4184  0.0374 -0.1672
 1200ntf    fn4 8818   2.129   5.419   0.883  0.4339  0.0550 -0.0245
 1200ntf    fn4 8819   2.064   5.255   0.776  0.5945 -0.4721 -0.2442
 1200ntf    fn4 8820   1.990   5.289   0.977  0.0502 -0.0013 -1.0132
 1201ntf    cn1 8821   6.675   4.586   5.544 -0.3459 -0.5767  0.1009
 1201ntf    sn2 8822   6.705   4.538   5.717  0.4609 -0.1512  0.0823
 1201ntf    nn3 8823   6.705   4.678   5.787  0.0071 -0.2545  0.2929
 1201ntf    sn2 8824   6.591   4.772   5.841  0.0634  0.0764 -0.1515
 1201ntf    cn1 8825   6.595   4.742   6.021 -0.4187 -0.1803 -0.1821
 1201ntf    fn4 8826   6.664   4.478   5.468 -0.3312 -0.4238 -0.1193
 1201ntf    fn4 8827   6.563   4.657   5.535  0.1603  0.1453 -0.5356
 1201ntf    fn4 8828   6.769   4.662   5.490 -0.5264  0.1217  0.7541
 1201ntf    on5 8829   6.589   4.457   5.745  0.1071  0.3041 -0.0404
 1201ntf    on5 8830   6.838   4.483   5.721  0.2245 -0.7296  0.0802
 1201ntf    on5 8831   6.610   4.915   5.839 -0.2921  0.1182 -0.4447
 1201ntf    on5 8832   6.459   4.726   5.807  0.0425 -0.1189  0.1797
 1201ntf    fn4 8833   6.712   4.788   6.062 -0.3540  0.3402 -0.9192
 1201ntf    fn4 8834   6.597   4.610   6.031  0.4231 -0.2003 -0.5189
 1201ntf    fn4 8835   6.506   4.801   6.099  0.1015  0.4515 -0.0581
 1202ntf    cn1 8836   2.501   6.016   6.106  0.2143 -0.0910 -0.1433
 1202ntf    sn2 8837   2.421   5.997   6.268 -0.2286  0.0607 -0.3413
 1202ntf    nn3 8838   2.297   5.913   6.221 -0.7041  0.3670  0.3414
 1202ntf    sn2 8839   2.255   5.766   6.257  0.1577  0.0770  0.1940
 1202ntf    cn1 8840   2.129   5.790   6.385  0.1178 -0.4930  0.2617
 1202ntf    fn4 8841   2.576   5.908   6.088  0.3667 -0.0339  0.1406
 1202ntf    fn4 8842   2.419   6.019   6.002  0.0343 -0.0948 -0.0021
 1202ntf    fn4 8843   2.577   6.124   6.103 -0.1700  0.1877  0.2530
 1202ntf    on5 8844   2.512   5.922   6.351 -0.4318 -0.1951 -0.3494
 1202ntf    on5 8845   2.386   6.131   6.309  0.5191  0.3072 -0.4824
 1202ntf    on5 8846   2.182   5.710   6.146 -0.1232  0.5120  0.1556
 1202ntf    on5 8847   2.352   5.682   6.322 -0.0555 -0.0247  0.3783
 1202ntf    fn4 8848   2.044   5.886   6.353  0.0926 -0.5062  0.2887
 1202ntf    fn4 8849   2.183   5.823   6.501  0.3710  0.1192 -0.0240
 1202ntf    fn4 8850   2.055   5.682   6.407 -0.0048 -0.5071 -0.2167
 1203ntf    cn1 8851   4.504   3.047   1.904 -0.0364 -0.1351  0.2552
 1203ntf    sn2 8852   4.481   3.026   2.083 -0.4120 -0.3183  0.1872
 1203ntf    nn3 8853   4.325   3.038   2.097 -0.4068 -0.2032  0.1515
 1203ntf    sn2 8854   4.232   2.958   2.195 -0.7732  0.0082 -0.0226
 1203ntf    cn1 8855   4.305   2.994   2.357 -0.3973  0.3625 -0.2694
 1203ntf    fn4 8856   4.427   2.965   1.833 -0.0094  0.0971 -0.0416
 1203ntf    fn4 8857   4.481   3.173   1.874  0.0049 -0.2004 -0.0593
 1203ntf    fn4 8858   4.625   3.013   1.862  0.0556  0.3988  0.0895
 1203ntf    on5 8859   4.534   2.895   2.111 -0.3781 -0.2297  0.5409
 1203ntf    on5 8860   4.550   3.139   2.140 -0.5365  0.1742 -0.6111
 1203ntf    on5 8861   4.106   3.027   2.208 -0.7218  0.2298 -0.6326
 1203ntf    on5 8862   4.232   2.814   2.182  0.2467  0.0636 -0.7122
 1203ntf    fn4 8863   4.328   3.119   2.393 -0.0332  0.3215 -0.3536
 1203ntf    fn4 8864   4.426   2.941   2.363 -0.5348  0.0877  0.1866
 1203ntf    fn4 8865   4.233   2.943   2.456 -0.1065 -0.0795 -0.2811
 1204ntf    cn1 8866   3.493   1.598   2.234  0.4252 -0.2415  0.2583
 1204ntf    sn2 8867   3.379   1.579   2.374 -0.2772  0.1712 -0.2471
 1204ntf    nn3 8868   3.246   1.623   2.305 -0.3149  0.1901 -0.1627
 1204ntf    sn2 8869   3.127   1.700   2.373 -0.1933  0.1633  0.0829
 1204ntf    cn1 8870   3.155   1.871   2.318 -0.3461  0.1941  0.0998
 1204ntf    fn4 8871   3.448   1.534   2.128  0.4917  0.0488  0.0509
 1204ntf    fn4 8872   3.508   1.722   2.189  0.1843 -0.0472  0.7120
 1204ntf    fn4 8873   3.617   1.556   2.256  0.2459 -0.6289  0.5362
 1204ntf    on5 8874   3.386   1.436   2.395  0.9472  0.2896  0.2734
 1204ntf    on5 8875   3.430   1.672   2.472 -0.5000  0.3376 -0.2887
 1204ntf    on5 8876   3.006   1.652   2.311  0.1579 -0.5464 -0.0635
 1204ntf    on5 8877   3.116   1.696   2.516 -0.2655  0.3424  0.0824
 1204ntf    fn4 8878   3.286   1.892   2.311 -0.3685  0.3943  0.2745
 1204ntf    fn4 8879   3.105   1.958   2.404 -0.4905  0.5229 -0.3128
 1204ntf    fn4 8880   3.097   1.889   2.201 -0.1115  0.2276 -0.0136
 1205ntf    cn1 8881   1.416   2.898   5.213  0.0218  0.1484  0.0711
 1205ntf    sn2 8882   1.271   2.817   5.139 -0.0743 -0.0273  0.4521
 1205ntf    nn3 8883   1.258   2.694   5.237 -0.2903  0.6721  1.3123
 1205ntf    sn2 8884   1.131   2.611   5.278 -0.2662  0.0499  0.1679
 1205ntf    cn1 8885   1.111   2.688   5.442  0.0439  0.4004  0.0432
 1205ntf    fn4 8886   1.523   2.828   5.183  0.1026  0.0316  0.6319
 1205ntf    fn4 8887   1.438   3.016   5.157  0.0597  0.0128 -0.1969
 1205ntf    fn4 8888   1.414   2.919   5.344  0.1758  0.8378 -0.0283
 1205ntf    on5 8889   1.168   2.916   5.155 -0.0285  0.1188 -0.1473
 1205ntf    on5 8890   1.309   2.775   5.007  0.7435 -0.0303  0.6786
 1205ntf    on5 8891   1.010   2.615   5.200 -0.0644  0.2526 -0.1383
 1205ntf    on5 8892   1.165   2.476   5.317 -0.4251  0.0769  0.4071
 1205ntf    fn4 8893   1.204   2.643   5.524 -0.3093  0.2768  0.3771
 1205ntf    fn4 8894   0.998   2.657   5.503 -0.0236  0.3840 -0.0907
 1205ntf    fn4 8895   1.124   2.819   5.453 -0.2311  0.4072  0.2973
 1206ntf    cn1 8896   5.683   2.792   3.908  0.0821 -0.6317  0.0517
 1206ntf    sn2 8897   5.682   2.798   3.726 -0.0098  0.1750  0.0730
 1206ntf    nn3 8898   5.558   2.709   3.687  0.0809  0.1987 -0.2718
 1206ntf    sn2 8899   5.530   2.556   3.702 -0.1289  0.2693  0.0877
 1206ntf    cn1 8900   5.359   2.553   3.763 -0.2281  0.3039 -0.1889
 1206ntf    fn4 8901   5.716   2.676   3.961  0.2090 -0.2879  0.7374
 1206ntf    fn4 8902   5.770   2.877   3.961 -0.9783  0.4910  0.0452
 1206ntf    fn4 8903   5.566   2.819   3.962  0.2465 -0.3505  0.2728
 1206ntf    on5 8904   5.639   2.934   3.703 -0.6118  0.0362  0.3401
 1206ntf    on5 8905   5.813   2.754   3.685  0.0520  0.2122  0.2285
 1206ntf    on5 8906   5.530   2.486   3.576  0.3949 -0.1746  0.3262
 1206ntf    on5 8907   5.612   2.484   3.797 -0.3100  0.3932  0.3364
 1206ntf    fn4 8908   5.319   2.435   3.806  0.6007  0.0243 -0.1618
 1206ntf    fn4 8909   5.279   2.593   3.666 -0.0877 -0.3916 -0.5972
 1206ntf    fn4 8910   5.342   2.636   3.865 -0.4419  0.0469 -0.0150
 1207ntf    cn1 8911   2.628   1.274   3.607  0.2352 -0.0469  0.1283
 1207ntf    sn2 8912   2.773   1.299   3.500 -0.0462  0.1045 -0.2197
 1207ntf    nn3 8913   2.738   1.433   3.427 -0.6536  0.0503 -0.0343
 1207ntf    sn2 8914   2.790   1.467   3.283 -0.0981  0.2961  0.2226
 1207ntf    cn1 8915   2.897   1.609   3.322  0.2553  0.0863  0.0161
 1207ntf    fn4 8916   2.643   1.174   3.693 -0.1079 -0.6333 -0.4793
 1207ntf    fn4 8917   2.604   1.379   3.684  0.3146  0.2159 -0.2041
 1207ntf    fn4 8918   2.515   1.256   3.541  0.1193 -0.0924  0.3384
 1207ntf    on5 8919   2.873   1.310   3.603 -0.2473  0.0718 -0.0185
 1207ntf    on5 8920   2.762   1.182   3.416  0.3986  0.2419 -0.4707
 1207ntf    on5 8921   2.882   1.372   3.225 -0.3967  0.2547 -0.1869
 1207ntf    on5 8922   2.695   1.527   3.192 -0.1783 -0.0100  0.1053
 1207ntf    fn4 8923   2.910   1.698   3.225  0.1877  0.1235  0.0415
 1207ntf    fn4 8924   3.019   1.573   3.360 -0.0799 -0.3209  0.7179
 1207ntf    fn4 8925   2.834   1.671   3.420 -0.2924 -0.2201 -0.1433
 1208ntf    cn1 8926   3.540   1.504   3.671 -0.1238 -0.3212  0.0667
 1208ntf    sn2 8927   3.536   1.679   3.717 -0.0184 -0.2651 -0.1324
 1208ntf    nn3 8928   3.571   1.656   3.869 -0.4162  0.2002  0.0353
 1208ntf    sn2 8929   3.521   1.729   3.998  0.0760  0.0011  0.3423
 1208ntf    cn1 8930   3.371   1.633   4.032 -0.0618  0.1339  0.1096
 1208ntf    fn4 8931   3.481   1.479   3.555  0.0437 -0.5423  0.0259
 1208ntf    fn4 8932   3.666   1.464   3.657  0.0757  0.2688  0.1794
 1208ntf    fn4 8933   3.487   1.422   3.760  0.3631 -0.1775  0.4937
 1208ntf    on5 8934   3.640   1.733   3.634  0.0410  0.4197  0.3782
 1208ntf    on5 8935   3.398   1.714   3.696  0.0076 -0.1258 -0.0729
 1208ntf    on5 8936   3.611   1.708   4.109  0.2729 -0.1729  0.1511
 1208ntf    on5 8937   3.468   1.862   3.977  0.6303  0.1075 -0.4209
 1208ntf    fn4 8938   3.321   1.655   4.152 -0.0080  0.1132  0.1358
 1208ntf    fn4 8939   3.387   1.502   4.025 -0.0837  0.1428 -0.1396
 1208ntf    fn4 8940   3.273   1.664   3.948  0.1437  0.2614 -0.0825
 1209ntf    cn1 8941   0.607   4.523   3.312 -0.1403 -0.3817 -0.4023
 1209ntf    sn2 8942   0.631   4.550   3.134  0.4169  0.1392 -0.2535
 1209ntf    nn3 8943   0.515   4.651   3.099  0.1272 -0.1600 -0.1610
 1209ntf    sn2 8944   0.368   4.617   3.055 -0.0037 -0.3871  0.4417
 1209ntf    cn1 8945   0.373   4.676   2.884  0.3515 -0.2465  0.4999
 1209ntf    fn4 8946   0.693   4.442   3.373 -0.1261 -0.3024 -0.3165
 1209ntf    fn4 8947   0.610   4.633   3.386 -0.6118 -0.4304 -0.3103
 1209ntf    fn4 8948   0.492   4.462   3.335 -0.3170 -0.0681 -0.4545
 1209ntf    on5 8949   0.760   4.614   3.134 -0.0630  1.1370  0.4212
 1209ntf    on5 8950   0.615   4.420   3.073 -0.2003 -0.0374  0.2714
 1209ntf    on5 8951   0.328   4.481   3.026  0.6180 -0.4195 -0.2771
 1209ntf    on5 8952   0.275   4.703   3.123  0.3814  0.0323  0.4440
 1209ntf    fn4 8953   0.474   4.631   2.811  0.3197  0.3661  0.0625
 1209ntf    fn4 8954   0.390   4.807   2.882 -0.1238 -0.1818  0.5338
 1209ntf    fn4 8955   0.259   4.643   2.825  0.3409  0.2482  0.2342
 1210ntf    cn1 8956   5.729   1.000   5.818  0.6646  0.0983  0.0072
 1210ntf    sn2 8957   5.599   1.004   5.945  0.6289  0.2165 -0.0324
 1210ntf    nn3 8958   5.679   0.946   6.067  0.2135 -0.4557 -0.0677
 1210ntf    sn2 8959   5.761   0.998   6.191 -0.0954 -0.0233 -0.0425
 1210ntf    cn1 8960   5.635   1.000   6.322 -0.1742 -0.0513 -0.1173
 1210ntf    fn4 8961   5.791   0.883   5.816  0.0153 -0.2515 -0.0171
 1210ntf    fn4 8962   5.694   1.024   5.693  0.1078 -0.3863  0.0654
 1210ntf    fn4 8963   5.822   1.090   5.841  0.1006  0.5791  0.4284
 1210ntf    on5 8964   5.575   1.146   5.949  0.5698  0.2292 -0.7054
 1210ntf    on5 8965   5.498   0.912   5.896  0.4235  0.6916 -0.5140
 1210ntf    on5 8966   5.854   0.905   6.249 -0.0866  0.2002  0.3060
 1210ntf    on5 8967   5.798   1.137   6.187 -0.5017  0.0753 -0.5298
 1210ntf    fn4 8968   5.545   1.095   6.298  0.5128  0.6163 -0.0924
 1210ntf    fn4 8969   5.690   1.015   6.441 -0.0306 -0.6550 -0.1058
 1210ntf    fn4 8970   5.563   0.890   6.316  0.0076 -0.1869  0.1793
 1211ntf    cn1 8971   5.317   3.951   0.146  0.2326  0.0907  0.1868
 1211ntf    sn2 8972   5.419   4.092   0.092 -0.1885  0.3188 -0.0250
 1211ntf    nn3 8973   5.562   4.026   0.093 -0.1565  0.3772 -0.4702
 1211ntf    sn2 8974   5.685   4.064   0.004 -0.0375 -0.0043 -0.4687
 1211ntf    cn1 8975   5.632   4.008  -0.161  0.0759 -0.0516 -0.4905
 1211ntf    fn4 8976   5.382   3.883   0.238  0.4384  0.1353  0.0764
 1211ntf    fn4 8977   5.203   3.990   0.200 -0.0453  0.0227 -0.3378
 1211ntf    fn4 8978   5.289   3.865   0.050  0.8483  0.0314  0.0597
 1211ntf    on5 8979   5.363   4.119  -0.038  0.2927 -0.1548 -0.3345
 1211ntf    on5 8980   5.394   4.190   0.195 -0.4740 -0.1682  0.3754
 1211ntf    on5 8981   5.702   4.207  -0.011 -0.4583  0.2147  1.0349
 1211ntf    on5 8982   5.808   3.995   0.034  0.1342  0.7709  0.6642
 1211ntf    fn4 8983   5.568   3.893  -0.149 -0.2062  0.0517 -0.9589
 1211ntf    fn4 8984   5.731   3.980  -0.243  0.1839 -0.3189 -0.2688
 1211ntf    fn4 8985   5.552   4.082  -0.236 -0.0231  0.4205  0.0720
 1212ntf    cn1 8986   1.993   2.950   2.517 -0.2344  0.1188 -0.1331
 1212ntf    sn2 8987   2.124   3.075   2.532  0.0084 -0.1166 -0.2766
 1212ntf    nn3 8988   2.239   3.007   2.449  0.2425  0.7192 -0.6539
 1212ntf    sn2 8989   2.384   2.996   2.507  0.0648  0.1200 -0.3124
 1212ntf    cn1 8990   2.362   2.849   2.612 -0.0396  0.4759  0.1711
 1212ntf    fn4 8991   2.045   2.831   2.542 -0.9557 -0.0846  0.4374
 1212ntf    fn4 8992   1.885   2.965   2.592  0.0261 -0.7822  0.4401
 1212ntf    fn4 8993   1.947   2.936   2.394 -0.7291 -0.2955  0.0909
 1212ntf    on5 8994   2.059   3.183   2.462 -0.5734 -0.2621  0.0312
 1212ntf    on5 8995   2.143   3.087   2.674 -0.8192 -0.4804 -0.1306
 1212ntf    on5 8996   2.472   2.949   2.403 -0.1890 -0.5691 -0.2253
 1212ntf    on5 8997   2.429   3.101   2.595 -0.5120 -0.0890  0.2490
 1212ntf    fn4 8998   2.277   2.865   2.712 -0.3801  0.1653 -0.0639
 1212ntf    fn4 8999   2.473   2.800   2.663 -0.0010  0.4651  0.0775
 1212ntf    fn4 9000   2.303   2.757   2.536 -0.3032  0.4236  0.4375
 1213ntf    cn1 9001   6.685   5.369   4.484  0.1682  0.2444 -0.1761
 1213ntf    sn2 9002   6.719   5.206   4.413 -0.2085  0.1631 -0.1729
 1213ntf    nn3 9003   6.598   5.207   4.313 -0.0792 -0.6114 -0.3446
 1213ntf    sn2 9004   6.597   5.267   4.168  0.1827  0.0299 -0.0844
 1213ntf    cn1 9005   6.580   5.119   4.064 -0.1970  0.0931 -0.1131
 1213ntf    fn4 9006   6.564   5.369   4.536  0.0406 -0.2497 -0.4636
 1213ntf    fn4 9007   6.771   5.393   4.581 -0.1513  0.3286  0.0876
 1213ntf    fn4 9008   6.692   5.468   4.396 -0.0548  0.7842  0.4107
 1213ntf    on5 9009   6.857   5.219   4.371 -0.0183  0.1916  0.4484
 1213ntf    on5 9010   6.685   5.110   4.515 -0.2885  0.3156 -0.0560
 1213ntf    on5 9011   6.480   5.347   4.145  0.0556  0.0037  0.4668
 1213ntf    on5 9012   6.723   5.318   4.120  0.0065  0.0766 -0.5043
 1213ntf    fn4 9013   6.694   5.051   4.066 -0.6394 -0.6596  0.1491
 1213ntf    fn4 9014   6.543   5.131   3.937 -0.7185 -0.2512  0.0041
 1213ntf    fn4 9015   6.499   5.032   4.122 -0.1021  0.1186  0.0587
 1214ntf    cn1 9016   1.251   2.315   5.925  0.0626  0.0172  0.2247
 1214ntf    sn2 9017   1.423   2.262   5.947  0.1303  0.0462 -0.2249
 1214ntf    nn3 9018   1.479   2.393   6.014  0.0900  0.2572 -0.5980
 1214ntf    sn2 9019   1.602   2.487   5.988  0.0147  0.4356 -0.3188
 1214ntf    cn1 9020   1.559   2.587   5.842 -0.4397  0.6678 -0.0286
 1214ntf    fn4 9021   1.240   2.430   5.860  0.4510  0.0119  0.1507
 1214ntf    fn4 9022   1.179   2.226   5.858 -0.0238 -0.0592  0.4203
 1214ntf    fn4 9023   1.186   2.335   6.038 -0.0817  0.3230  0.0894
 1214ntf    on5 9024   1.417   2.143   6.028 -0.1257  0.0083 -0.2999
 1214ntf    on5 9025   1.473   2.234   5.814  0.6149  0.8643 -0.2216
 1214ntf    on5 9026   1.622   2.575   6.100 -0.0740 -0.0419  0.0734
 1214ntf    on5 9027   1.719   2.412   5.950 -0.5940 -0.4347 -0.5054
 1214ntf    fn4 9028   1.460   2.670   5.871 -0.7017  0.2124  0.3910
 1214ntf    fn4 9029   1.503   2.519   5.743 -0.4381  0.2357  0.2640
 1214ntf    fn4 9030   1.664   2.657   5.801 -0.0816  0.0343 -0.2182
 1215ntf    cn1 9031   1.954   1.063   5.679  0.2744  0.2404  0.1948
 1215ntf    sn2 9032   1.983   0.913   5.579  0.2550  0.2039  0.2441
 1215ntf    nn3 9033   1.855   0.829   5.613  0.5934 -0.3251  0.2162
 1215ntf    sn2 9034   1.824   0.742   5.740 -0.1805  0.0360  0.2802
 1215ntf    cn1 9035   1.653   0.701   5.694 -0.1374 -0.0111  0.1648
 1215ntf    fn4 9036   2.038   1.159   5.644  0.4124 -0.0437 -0.2644
 1215ntf    fn4 9037   1.834   1.111   5.653  0.1636 -0.0565  0.1565
 1215ntf    fn4 9038   1.962   1.036   5.808  0.1591 -0.5775  0.0384
 1215ntf    on5 9039   1.971   0.959   5.443 -0.3036  0.1404  0.2684
 1215ntf    on5 9040   2.109   0.858   5.622  0.1432 -0.2162  0.0328
 1215ntf    on5 9041   1.895   0.618   5.752  0.5020  0.3904 -0.0234
 1215ntf    on5 9042   1.796   0.815   5.862  0.2066  0.3291  0.1996
 1215ntf    fn4 9043   1.649   0.658   5.569 -0.8355  0.3438  0.0642
 1215ntf    fn4 9044   1.555   0.788   5.707 -0.2321 -0.0699 -0.1327
 1215ntf    fn4 9045   1.611   0.607   5.777 -0.6953 -0.0711 -0.1803
 1216ntf    cn1 9046   6.233   1.271   4.584 -0.2587  0.1879 -0.0002
 1216ntf    sn2 9047   6.390   1.215   4.511 -0.3715 -0.3398  0.1614
 1216ntf    nn3 9048   6.472   1.348   4.507  0.0122 -0.5940 -0.6696
 1216ntf    sn2 9049   6.571   1.399   4.617 -0.3664 -0.1684 -0.5228
 1216ntf    cn1 9050   6.502   1.564   4.650  0.2234 -0.0602  0.2101
 1216ntf    fn4 9051   6.249   1.300   4.712  0.0691  0.4726 -0.1029
 1216ntf    fn4 9052   6.178   1.369   4.514 -0.2040  0.4825  0.3684
 1216ntf    fn4 9053   6.142   1.177   4.569 -0.3905  0.3358 -0.1332
 1216ntf    on5 9054   6.434   1.104   4.592 -0.0944 -0.5672 -0.2977
 1216ntf    on5 9055   6.359   1.182   4.374  0.2690  0.3643 -0.1570
 1216ntf    on5 9056   6.569   1.334   4.746  0.1605  0.7048 -0.0659
 1216ntf    on5 9057   6.702   1.430   4.567 -0.2544  0.4704  0.1405
 1216ntf    fn4 9058   6.448   1.631   4.549  0.5551  0.2308  0.2256
 1216ntf    fn4 9059   6.598   1.644   4.693 -0.1098  0.0649  0.7342
 1216ntf    fn4 9060   6.406   1.550   4.740  0.1778 -0.0809  0.1587
 1217ntf    cn1 9061   0.445   5.226   1.533 -0.1167  0.1098  0.2739
 1217ntf    sn2 9062   0.465   5.155   1.699  0.0400 -0.1904  0.1290
 1217ntf    nn3 9063   0.616   5.113   1.690  0.2341  0.5611 -0.1694
 1217ntf    sn2 9064   0.684   4.974   1.664  0.0453  0.4373 -0.0086
 1217ntf    cn1 9065   0.679   4.912   1.834 -0.2551 -0.1656 -0.2354
 1217ntf    fn4 9066   0.479   5.143   1.436 -0.4947  0.1782  0.0825
 1217ntf    fn4 9067   0.322   5.270   1.517  0.0529  0.4988  0.0377
 1217ntf    fn4 9068   0.523   5.331   1.514  0.1959 -0.0181  0.8190
 1217ntf    on5 9069   0.447   5.265   1.791  0.4516  0.0404 -0.0615
 1217ntf    on5 9070   0.363   5.053   1.697 -0.1033 -0.0373 -0.3914
 1217ntf    on5 9071   0.597   4.888   1.588  0.1070  0.3837 -0.0182
 1217ntf    on5 9072   0.825   4.977   1.635  0.1008  0.3544  0.2529
 1217ntf    fn4 9073   0.764   4.966   1.920 -0.0640 -0.2289 -0.3840
 1217ntf    fn4 9074   0.680   4.779   1.833  0.5262 -0.1686 -0.2256
 1217ntf    fn4 9075   0.560   4.935   1.885  0.0837 -0.0807  0.5342
 1218ntf    cn1 9076   1.136   5.309   0.385  0.1494 -0.4420  0.1759
 1218ntf    sn2 9077   0.969   5.263   0.330  0.1623 -0.1664 -0.0962
 1218ntf    nn3 9078   0.892   5.393   0.372  1.4314  0.4753  0.3011
 1218ntf    sn2 9079   0.862   5.521   0.286 -0.0400  0.1152  0.2415
 1218ntf    cn1 9080   0.695   5.487   0.223  0.2129 -0.4258 -0.1512
 1218ntf    fn4 9081   1.196   5.409   0.324 -0.2177 -0.2348  0.1513
 1218ntf    fn4 9082   1.135   5.346   0.512  0.0771 -0.1213  0.0829
 1218ntf    fn4 9083   1.211   5.201   0.378  0.2464 -0.3685  0.0779
 1218ntf    on5 9084   0.994   5.241   0.190  0.5362 -0.2632 -0.0163
 1218ntf    on5 9085   0.930   5.150   0.410 -0.3799 -0.3795 -0.6478
 1218ntf    on5 9086   0.855   5.646   0.356 -0.1472  0.1752  0.1230
 1218ntf    on5 9087   0.937   5.524   0.163  0.1804 -0.2331  0.3660
 1218ntf    fn4 9088   0.636   5.398   0.300  0.0374 -0.0156  0.1943
 1218ntf    fn4 9089   0.702   5.434   0.102 -0.1410  0.5535 -0.6191
 1218ntf    fn4 9090   0.622   5.597   0.222  0.1988 -0.4355 -0.2824
 1219ntf    cn1 9091   5.102   5.559   5.099 -0.0258  0.1620  0.7466
 1219ntf    sn2 9092   5.241   5.673   5.070 -0.3154  0.3463  0.0724
 1219ntf    nn3 9093   5.167   5.810   5.047 -0.3561  0.1798 -0.8108
 1219ntf    sn2 9094   5.196   5.946   5.120 -0.1897 -0.0846 -0.3792
 1219ntf    cn1 9095   5.302   6.034   5.001  0.0032  0.1505 -0.0338
 1219ntf    fn4 9096   5.060   5.570   5.224 -0.1789 -0.0706  0.7148
 1219ntf    fn4 9097   4.998   5.591   5.024  0.2693 -0.0710  0.2321
 1219ntf    fn4 9098   5.131   5.431   5.082  0.1596  0.3261 -0.2255
 1219ntf    on5 9099   5.317   5.657   5.192 -0.1624 -0.6675 -0.1458
 1219ntf    on5 9100   5.306   5.624   4.951  0.1289 -0.4399  0.6270
 1219ntf    on5 9101   5.082   6.033   5.130 -0.7025 -0.8075  0.1101
 1219ntf    on5 9102   5.284   5.946   5.234 -0.4566 -0.6928 -0.1684
 1219ntf    fn4 9103   5.326   6.158   5.038  0.1122 -0.1009  0.7541
 1219ntf    fn4 9104   5.248   6.034   4.880 -0.2521 -0.5856  0.0719
 1219ntf    fn4 9105   5.420   5.976   4.984  0.0848  0.4230 -0.3948
 1220ntf    cn1 9106   6.187   2.522   1.844 -0.4018  0.5781  0.1335
 1220ntf    sn2 9107   6.051   2.439   1.932 -0.1162  0.2157  0.2378
 1220ntf    nn3 9108   5.936   2.455   1.827 -0.0980  0.0414  0.1917
 1220ntf    sn2 9109   5.788   2.504   1.844 -0.0559  0.2488 -0.0346
 1220ntf    cn1 9110   5.775   2.605   1.693 -0.3312  0.2465 -0.0143
 1220ntf    fn4 9111   6.227   2.451   1.740  0.0752  0.0088  0.7008
 1220ntf    fn4 9112   6.140   2.640   1.808  0.3405  0.8026 -0.1114
 1220ntf    fn4 9113   6.296   2.543   1.915 -0.1781  0.4507 -0.1696
 1220ntf    on5 9114   6.094   2.303   1.949  0.1854  0.2062 -0.6028
 1220ntf    on5 9115   6.034   2.519   2.052  0.2739 -0.3519  0.6758
 1220ntf    on5 9116   5.693   2.397   1.825 -0.2224  0.4075 -0.1032
 1220ntf    on5 9117   5.762   2.606   1.942  0.2359  0.0365  0.2633
 1220ntf    fn4 9118   5.775   2.542   1.577 -0.3990  0.4421 -0.1218
 1220ntf    fn4 9119   5.878   2.689   1.684  0.2586 -0.5195 -0.5002
 1220ntf    fn4 9120   5.672   2.688   1.703 -0.3381  0.2261  0.0876
 1221ntf    cn1 9121   1.706   4.501   3.117  0.2898 -0.0582 -0.0532
 1221ntf    sn2 9122   1.609   4.603   3.003  0.2626 -0.1791 -0.1388
 1221ntf    nn3 9123   1.520   4.495   2.933 -0.5169 -0.2120  0.8794
 1221ntf    sn2 9124   1.379   4.506   2.863  0.0099 -0.0360 -0.1736
 1221ntf    cn1 9125   1.288   4.429   3.001  0.1211  0.1017 -0.0226
 1221ntf    fn4 9126   1.621   4.458   3.209  0.2140 -0.2048 -0.1911
 1221ntf    fn4 9127   1.764   4.396   3.061 -0.0011 -0.2167 -0.0564
 1221ntf    fn4 9128   1.800   4.570   3.179  0.1481  0.7030 -0.6771
 1221ntf    on5 9129   1.543   4.706   3.080 -0.0262 -0.4807  0.0207
 1221ntf    on5 9130   1.714   4.644   2.913  0.0760 -0.1239 -0.3336
 1221ntf    on5 9131   1.328   4.639   2.845  0.3484  0.1369  0.1353
 1221ntf    on5 9132   1.357   4.415   2.753 -0.1072  0.2624 -0.3955
 1221ntf    fn4 9133   1.267   4.512   3.101  0.1436  0.2732 -0.1584
 1221ntf    fn4 9134   1.353   4.326   3.053 -0.1164  0.1810  0.4336
 1221ntf    fn4 9135   1.169   4.383   2.965  0.3350 -0.5056  0.0241
 1222ntf    cn1 9136   1.180   3.986   4.364  0.2136 -0.2426  0.3319
 1222ntf    sn2 9137   1.099   4.042   4.516 -0.0589  0.1717  0.0369
 1222ntf    nn3 9138   0.949   4.040   4.471  0.1393 -0.4966 -0.6145
 1222ntf    sn2 9139   0.860   4.162   4.428  0.0668 -0.2615  0.1716
 1222ntf    cn1 9140   0.828   4.238   4.590 -0.2829 -0.0147 -0.0123
 1222ntf    fn4 9141   1.312   3.978   4.377  0.2303 -0.1190  0.2428
 1222ntf    fn4 9142   1.128   3.869   4.329  0.1635 -0.0880 -0.1198
 1222ntf    fn4 9143   1.165   4.068   4.261  0.1592 -0.0640  0.4820
 1222ntf    on5 9144   1.129   3.934   4.607  0.8268 -0.0772 -0.5430
 1222ntf    on5 9145   1.163   4.168   4.545 -0.0213  0.1659 -0.0207
 1222ntf    on5 9146   0.924   4.262   4.346 -0.6857 -0.0432 -0.1593
 1222ntf    on5 9147   0.728   4.120   4.389  0.0003  0.4720 -0.4176
 1222ntf    fn4 9148   0.779   4.360   4.583 -0.1495  0.0621  0.3949
 1222ntf    fn4 9149   0.942   4.253   4.655 -0.2436  0.4025 -0.1777
 1222ntf    fn4 9150   0.752   4.163   4.668  0.1885 -0.2167  0.2542
 1223ntf    cn1 9151   4.234   3.544   4.960 -0.1302  0.1394 -0.3257
 1223ntf    sn2 9152   4.305   3.576   4.795  0.2887 -0.0014 -0.1743
 1223ntf    nn3 9153   4.445   3.519   4.837 -0.0237 -0.5963  0.0892
 1223ntf    sn2 9154   4.523   3.399   4.773  0.3215 -0.2933 -0.0607
 1223ntf    cn1 9155   4.695   3.459   4.762  0.2081 -0.0423 -0.5354
 1223ntf    fn4 9156   4.115   3.602   4.960 -0.0428  0.3250  0.1961
 1223ntf    fn4 9157   4.212   3.416   4.985 -0.3100  0.2501  0.0840
 1223ntf    fn4 9158   4.299   3.589   5.066 -0.5447 -0.2980  0.1175
 1223ntf    on5 9159   4.224   3.507   4.697 -0.1890  0.1369  0.1170
 1223ntf    on5 9160   4.307   3.720   4.792 -0.4768  0.0134 -0.1890
 1223ntf    on5 9161   4.533   3.283   4.858  0.3302 -0.2273  0.0278
 1223ntf    on5 9162   4.489   3.375   4.635  0.2559  0.3421 -0.1587
 1223ntf    fn4 9163   4.755   3.468   4.880 -0.6864 -0.2158 -0.0584
 1223ntf    fn4 9164   4.696   3.573   4.695 -0.0550 -0.1270 -0.6871
 1223ntf    fn4 9165   4.776   3.380   4.694  0.6999 -0.1654  0.1785
 1224ntf    cn1 9166   0.227   1.299   5.328 -0.2603  0.0488  0.0587
 1224ntf    sn2 9167   0.261   1.477   5.348  0.2297 -0.0735  0.3158
 1224ntf    nn3 9168   0.121   1.538   5.316  0.2866 -0.2392 -0.2650
 1224ntf    sn2 9169  -0.007   1.527   5.407  0.1731  0.1529 -0.3721
 1224ntf    cn1 9170  -0.041   1.702   5.439 -0.2128  0.0165 -0.0348
 1224ntf    fn4 9171   0.320   1.224   5.386 -0.0507  0.2149 -0.0624
 1224ntf    fn4 9172   0.118   1.267   5.396  0.1478 -0.3531  0.5370
 1224ntf    fn4 9173   0.212   1.261   5.202  0.1179  0.1740 -0.0239
 1224ntf    on5 9174   0.313   1.496   5.481  0.6243 -0.2766  0.1933
 1224ntf    on5 9175   0.353   1.503   5.240  0.2498  0.2028  0.3999
 1224ntf    on5 9176  -0.123   1.494   5.328 -0.1624 -0.4028  0.3352
 1224ntf    on5 9177   0.016   1.468   5.536 -0.0112  0.6553 -0.1066
 1224ntf    fn4 9178   0.041   1.752   5.530  0.0170  0.0831 -0.2792
 1224ntf    fn4 9179  -0.164   1.729   5.483 -0.2924 -0.4180  0.0138
 1224ntf    fn4 9180  -0.023   1.780   5.334  0.0051 -0.1275 -0.1033
 1225ntf    cn1 9181   2.450   2.597   6.574 -0.2500 -0.2434  0.2346
 1225ntf    sn2 9182   2.430   2.727   6.449  0.1088 -0.2359  0.1836
 1225ntf    nn3 9183   2.517   2.666   6.333  0.3332  0.4544 -0.0157
 1225ntf    sn2 9184   2.527   2.710   6.183 -0.2543  0.1533 -0.1475
 1225ntf    cn1 9185   2.698   2.770   6.175 -0.0869 -0.3389 -0.3121
 1225ntf    fn4 9186   2.580   2.578   6.595 -0.1276  0.2933 -0.0120
 1225ntf    fn4 9187   2.385   2.617   6.688 -0.4882  0.0441  0.0480
 1225ntf    fn4 9188   2.409   2.476   6.538 -0.0194 -0.3495  0.3250
 1225ntf    on5 9189   2.289   2.720   6.420  0.0503 -0.6347  0.5557
 1225ntf    on5 9190   2.487   2.849   6.500 -0.1520 -0.1391  0.2419
 1225ntf    on5 9191   2.520   2.594   6.097  0.6638  0.1365 -0.2069
 1225ntf    on5 9192   2.442   2.819   6.142 -0.3437  0.0477 -0.2436
 1225ntf    fn4 9193   2.729   2.805   6.051  0.5834  1.0640  0.2240
 1225ntf    fn4 9194   2.787   2.674   6.194  0.2951 -0.0552 -0.6402
 1225ntf    fn4 9195   2.735   2.864   6.261 -0.3426 -0.3115 -0.2331
 1226ntf    cn1 9196   2.690   3.610   0.417 -0.1620  0.2637  0.1266
 1226ntf    sn2 9197   2.805   3.523   0.528 -0.1203  0.1174 -0.0309
 1226ntf    nn3 9198   2.707   3.470   0.639  0.0123 -0.0882 -0.0112
 1226ntf    sn2 9199   2.734   3.455   0.793  0.0975 -0.0504 -0.0226
 1226ntf    cn1 9200   2.663   3.613   0.846  0.5386  0.0356  0.3242
 1226ntf    fn4 9201   2.616   3.685   0.497 -0.0332  0.6303 -0.0940
 1226ntf    fn4 9202   2.740   3.689   0.324  0.3732  0.3925  0.5129
 1226ntf    fn4 9203   2.613   3.526   0.351  0.3510 -0.2912  0.2204
 1226ntf    on5 9204   2.866   3.417   0.451  0.1193  0.3435 -0.1539
 1226ntf    on5 9205   2.889   3.632   0.570 -0.1535  0.3993 -0.6902
 1226ntf    on5 9206   2.652   3.348   0.843  0.3045 -0.3309 -0.2757
 1226ntf    on5 9207   2.872   3.463   0.836 -0.1131  0.0655  0.6381
 1226ntf    fn4 9208   2.544   3.645   0.796  0.4807  0.0422  0.4645
 1226ntf    fn4 9209   2.750   3.707   0.814  0.3166  0.1555  0.0653
 1226ntf    fn4 9210   2.644   3.625   0.976  0.0111 -0.0002  0.2561
 1227ntf    cn1 9211   3.506   4.439   4.114  0.1350 -0.3412 -0.0807
 1227ntf    sn2 9212   3.344   4.407   4.189 -0.1010  0.1525 -0.3727
 1227ntf    nn3 9213   3.295   4.542   4.252 -0.7441 -0.1219 -0.2744
 1227ntf    sn2 9214   3.258   4.578   4.400  0.0094  0.0472 -0.1247
 1227ntf    cn1 9215   3.409   4.664   4.454 -0.0672 -0.0301  0.2173
 1227ntf    fn4 9216   3.549   4.353   4.023  0.4161  0.0225 -0.2976
 1227ntf    fn4 9217   3.507   4.553   4.045 -0.2280 -0.0267  0.4313
 1227ntf    fn4 9218   3.607   4.445   4.199 -0.0362 -0.4891  0.1334
 1227ntf    on5 9219   3.265   4.361   4.077 -0.0995 -0.0986 -0.2707
 1227ntf    on5 9220   3.373   4.301   4.283 -0.2610  0.1279 -0.3503
 1227ntf    on5 9221   3.157   4.680   4.409 -0.4774 -0.4240 -0.2482
 1227ntf    on5 9222   3.250   4.472   4.499  0.1134  0.1346 -0.0217
 1227ntf    fn4 9223   3.424   4.789   4.415  0.8433 -0.1573  0.1219
 1227ntf    fn4 9224   3.523   4.616   4.407 -0.4021 -0.1865 -0.4484
 1227ntf    fn4 9225   3.413   4.679   4.585 -0.4879  0.0079  0.2253
 1228ntf    cn1 9226   3.478   5.341   4.780 -0.3134  0.0193  0.2861
 1228ntf    sn2 9227   3.637   5.338   4.869 -0.0017 -0.0804 -0.2677
 1228ntf    nn3 9228   3.719   5.455   4.804  0.3266 -0.1459  0.0249
 1228ntf    sn2 9229   3.762   5.594   4.861 -0.0868 -0.0211  0.0338
 1228ntf    cn1 9230   3.942   5.601   4.836 -0.1536 -0.0590 -0.4578
 1228ntf    fn4 9231   3.402   5.240   4.816  0.6917 -0.5977  0.6993
 1228ntf    fn4 9232   3.407   5.446   4.819 -0.1690  0.1787  0.1263
 1228ntf    fn4 9233   3.481   5.337   4.648 -0.2582  0.4145  0.2725
 1228ntf    on5 9234   3.593   5.369   5.003  0.2833 -0.1955 -0.1462
 1228ntf    on5 9235   3.688   5.206   4.839  0.6688  0.1070  0.0301
 1228ntf    on5 9236   3.705   5.699   4.780  0.0765 -0.3421 -0.4983
 1228ntf    on5 9237   3.753   5.606   5.005 -0.1150  0.1934  0.0151
 1228ntf    fn4 9238   3.989   5.478   4.824  0.3266  0.0707  0.0797
 1228ntf    fn4 9239   4.007   5.668   4.929  0.2798 -0.3717 -0.5348
 1228ntf    fn4 9240   3.981   5.664   4.726 -0.1966 -0.1176 -0.5079
 1229ntf    cn1 9241   0.109   1.840   4.643  0.1346  0.2097  0.4607
 1229ntf    sn2 9242   0.231   1.954   4.571  0.3022 -0.2055  0.0841
 1229ntf    nn3 9243   0.173   1.948   4.425  0.2086 -0.0152  0.1133
 1229ntf    sn2 9244   0.056   2.030   4.360  0.0110 -0.3593  0.0304
 1229ntf    cn1 9245  -0.045   1.895   4.291 -0.1644 -0.1740 -0.0751
 1229ntf    fn4 9246   0.079   1.744   4.557 -0.7699  0.0743  0.9225
 1229ntf    fn4 9247   0.151   1.777   4.752  0.7366  0.3455  0.3117
 1229ntf    fn4 9248  -0.004   1.898   4.680  0.3932  0.8586  0.2341
 1229ntf    on5 9249   0.212   2.069   4.655 -0.0612 -0.1129 -0.1216
 1229ntf    on5 9250   0.356   1.883   4.586  0.4000 -0.0008  0.2245
 1229ntf    on5 9251  -0.033   2.103   4.447 -0.2365  0.0033 -0.5242
 1229ntf    on5 9252   0.099   2.099   4.241  0.0644 -0.4595 -0.0081
 1229ntf    fn4 9253   0.010   1.835   4.187 -0.3637  0.0435 -0.3080
 1229ntf    fn4 9254  -0.157   1.948   4.245 -0.1347 -0.0035  0.0450
 1229ntf    fn4 9255  -0.081   1.807   4.383  0.1882 -0.0940  0.1445
 1230ntf    cn1 9256   0.964   4.696   5.348  0.0447  0.2982  0.2407
 1230ntf    sn2 9257   0.862   4.548   5.375  0.2854  0.0528 -0.1846
 1230ntf    nn3 9258   0.882   4.483   5.234 -0.0828 -0.0522 -0.1896
 1230ntf    sn2 9259   0.880   4.328   5.209 -0.1204 -0.0771 -0.0328
 1230ntf    cn1 9260   1.059   4.306   5.185 -0.0723  0.0668  0.1916
 1230ntf    fn4 9261   0.941   4.745   5.227 -0.4957 -0.1548  0.1581
 1230ntf    fn4 9262   0.943   4.795   5.434 -0.5156  0.0490  0.3944
 1230ntf    fn4 9263   1.091   4.661   5.351  0.0199  0.1841 -0.0342
 1230ntf    on5 9264   0.920   4.485   5.491 -0.2893 -0.1831 -0.0225
 1230ntf    on5 9265   0.727   4.590   5.403  0.2416  0.0190 -0.3441
 1230ntf    on5 9266   0.837   4.235   5.310 -0.0140 -0.0013  0.0832
 1230ntf    on5 9267   0.825   4.301   5.078 -0.7438 -0.8475  0.3806
 1230ntf    fn4 9268   1.088   4.188   5.132  0.6736  0.3221  0.0061
 1230ntf    fn4 9269   1.127   4.325   5.297  0.6061 -0.2656 -0.1574
 1230ntf    fn4 9270   1.113   4.400   5.110  0.6793 -0.5109 -0.0050
 1231ntf    cn1 9271   1.001   5.913   0.039  0.2039 -0.0883 -0.0969
 1231ntf    sn2 9272   1.146   5.827  -0.030  0.0246 -0.3005 -0.2118
 1231ntf    nn3 9273   1.256   5.844   0.081  0.0752 -0.0140 -0.3073
 1231ntf    sn2 9274   1.358   5.748   0.151 -0.1783 -0.2889 -0.3174
 1231ntf    cn1 9275   1.267   5.725   0.307  0.2735  0.0316 -0.0036
 1231ntf    fn4 9276   1.010   5.936   0.169 -0.1557 -0.0396 -0.0800
 1231ntf    fn4 9277   0.985   6.029  -0.022 -0.0722 -0.2760 -0.3835
 1231ntf    fn4 9278   0.896   5.832   0.033  0.0203  0.0706  0.8701
 1231ntf    on5 9279   1.112   5.688  -0.051 -0.3483 -0.2337 -0.0621
 1231ntf    on5 9280   1.182   5.911  -0.141 -0.0717 -0.4267 -0.3381
 1231ntf    on5 9281   1.380   5.628   0.074  0.6234 -0.3654  0.0249
 1231ntf    on5 9282   1.477   5.816   0.193  0.1430 -0.6908 -0.5648
 1231ntf    fn4 9283   1.137   5.705   0.286  0.3095 -0.1850 -0.0144
 1231ntf    fn4 9284   1.286   5.835   0.378 -0.0200  0.1674 -0.1313
 1231ntf    fn4 9285   1.304   5.626   0.386 -0.6150  0.0776  0.4801
 1232ntf    cn1 9286   0.120   0.526   5.801  0.0909 -0.2478  0.2552
 1232ntf    sn2 9287   0.287   0.569   5.746  0.0367 -0.2769  0.0670
 1232ntf    nn3 9288   0.312   0.486   5.615 -0.3389 -0.0233 -0.1663
 1232ntf    sn2 9289   0.334   0.331   5.610  0.0874  0.0136  0.4466
 1232ntf    cn1 9290   0.499   0.311   5.536 -0.0705 -0.0589  0.1121
 1232ntf    fn4 9291   0.107   0.397   5.828 -0.3147 -0.1906  0.3464
 1232ntf    fn4 9292   0.085   0.593   5.910  0.4077  0.2651  0.0399
 1232ntf    fn4 9293   0.029   0.548   5.708  0.2002 -0.3468  0.1252
 1232ntf    on5 9294   0.263   0.704   5.701  0.3890 -0.2316  0.0114
 1232ntf    on5 9295   0.378   0.552   5.856 -0.5434  0.5902  0.6999
 1232ntf    on5 9296   0.353   0.267   5.737  0.2424 -0.1399  0.3476
 1232ntf    on5 9297   0.259   0.262   5.508  0.5001  0.4723 -0.1774
 1232ntf    fn4 9298   0.538   0.185   5.537  0.8667  0.2203 -0.3186
 1232ntf    fn4 9299   0.589   0.371   5.612  0.0988 -0.1802  0.0069
 1232ntf    fn4 9300   0.507   0.357   5.412  0.4894  0.2689  0.2683
 1233ntf    cn1 9301   5.656   4.937   0.330 -0.0366 -0.1411 -0.2551
 1233ntf    sn2 9302   5.818   4.867   0.374  0.0397  0.0260 -0.2665
 1233ntf    nn3 9303   5.914   4.990   0.388 -0.1150  0.0738  0.4076
 1233ntf    sn2 9304   5.999   5.047   0.507  0.1558  0.2783  0.1200
 1233ntf    cn1 9305   6.151   5.094   0.420  0.0526 -0.0104 -0.2185
 1233ntf    fn4 9306   5.605   5.018   0.422  0.8314  0.4323 -0.2641
 1233ntf    fn4 9307   5.669   5.012   0.222 -0.0337 -0.2206 -0.3096
 1233ntf    fn4 9308   5.566   4.848   0.290 -0.3221  0.0298  0.0007
 1233ntf    on5 9309   5.795   4.787   0.492  0.0788  0.3663 -0.0259
 1233ntf    on5 9310   5.850   4.798   0.251  0.3096  0.0689 -0.2203
 1233ntf    on5 9311   5.961   5.175   0.562 -0.3184  0.2637 -0.1708
 1233ntf    on5 9312   6.045   4.949   0.603  0.2776  0.0033 -0.2198
 1233ntf    fn4 9313   6.241   4.997   0.434  0.1862  0.2075  0.4968
 1233ntf    fn4 9314   6.205   5.205   0.468  0.2127 -0.0445 -0.3171
 1233ntf    fn4 9315   6.132   5.111   0.291  0.1676  0.0273 -0.2309
 1234ntf    cn1 9316   3.154   1.062   4.623 -0.3668  0.0496 -0.0531
 1234ntf    sn2 9317   3.090   1.160   4.484  0.2423  0.0563 -0.3318
 1234ntf    nn3 9318   2.985   1.243   4.566 -0.1107 -0.0769 -0.6476
 1234ntf    sn2 9319   3.007   1.389   4.621 -0.1838 -0.2975 -0.0289
 1234ntf    cn1 9320   2.925   1.480   4.487  0.0324  0.0027  0.0423
 1234ntf    fn4 9321   3.060   1.009   4.699 -0.0914 -0.0262  0.2363
 1234ntf    fn4 9322   3.229   0.961   4.579  0.1051  0.4916 -0.2805
 1234ntf    fn4 9323   3.225   1.130   4.711 -0.4742 -0.0699  0.1250
 1234ntf    on5 9324   3.207   1.228   4.432  0.7840 -0.1545  0.5837
 1234ntf    on5 9325   3.035   1.056   4.401 -0.1860 -0.1438  0.2020
 1234ntf    on5 9326   2.920   1.414   4.733  0.2982  0.0172  0.2773
 1234ntf    on5 9327   3.140   1.444   4.628 -0.3465  0.1360 -0.3036
 1234ntf    fn4 9328   2.895   1.604   4.523  0.6153  0.2891 -0.4331
 1234ntf    fn4 9329   2.810   1.427   4.447 -0.0462  0.1331  0.0938
 1234ntf    fn4 9330   3.002   1.491   4.380 -0.0494 -0.2310 -0.0409
 1235ntf    cn1 9331   3.793   1.234   1.150 -0.1575 -0.0536  0.1150
 1235ntf    sn2 9332   3.929   1.235   1.270 -0.1531  0.0858  0.1081
 1235ntf    nn3 9333   3.855   1.330   1.370  0.5340  0.1020  0.6072
 1235ntf    sn2 9334   3.731   1.294   1.459  0.4418 -0.0906  0.4005
 1235ntf    cn1 9335   3.812   1.307   1.621  0.5440 -0.4820  0.3835
 1235ntf    fn4 9336   3.709   1.133   1.164 -0.1213 -0.0926  0.0507
 1235ntf    fn4 9337   3.720   1.344   1.148 -0.1870 -0.0774 -0.1776
 1235ntf    fn4 9338   3.836   1.222   1.025 -0.0614  0.0118  0.1417
 1235ntf    on5 9339   3.945   1.099   1.312  0.1624  0.3425  0.8300
 1235ntf    on5 9340   4.042   1.297   1.203  0.1168 -0.1230  0.3687
 1235ntf    on5 9341   3.639   1.404   1.457  0.1615 -0.3269  0.1196
 1235ntf    on5 9342   3.674   1.161   1.456  1.0761 -0.3636  0.1780
 1235ntf    fn4 9343   3.723   1.302   1.719  0.5373 -0.3361  0.3857
 1235ntf    fn4 9344   3.878   1.421   1.636  0.0844 -0.2153  0.4238
 1235ntf    fn4 9345   3.909   1.219   1.640  0.8413 -0.2160  0.1166
 1236ntf    cn1 9346   4.799   6.509   6.513 -0.0918  0.5258 -0.0656
 1236ntf    sn2 9347   4.851   6.667   6.587  0.1482  0.1926  0.4860
 1236ntf    nn3 9348   4.833   6.754   6.457 -0.0750 -0.0257  0.3688
 1236ntf    sn2 9349   4.742   6.881   6.443 -0.2293 -0.1791 -0.0133
 1236ntf    cn1 9350   4.805   6.956   6.290  0.2228 -0.0603  0.2315
 1236ntf    fn4 9351   4.889   6.455   6.432 -0.7835 -0.6087 -0.0865
 1236ntf    fn4 9352   4.770   6.414   6.600  0.2878  0.5124  0.0500
 1236ntf    fn4 9353   4.688   6.515   6.441 -0.2029 -0.2403  0.0393
 1236ntf    on5 9354   4.758   6.694   6.694  0.0641  0.0322  0.4527
 1236ntf    on5 9355   4.986   6.647   6.631  0.3088 -0.0237 -0.0874
 1236ntf    on5 9356   4.604   6.857   6.409 -0.1721 -0.0458 -0.3460
 1236ntf    on5 9357   4.765   6.977   6.548  0.1013 -0.3039  0.0278
 1236ntf    fn4 9358   4.804   6.872   6.188 -0.0627 -0.2858  0.4202
 1236ntf    fn4 9359   4.928   7.000   6.309  0.2169 -0.0564  0.2595
 1236ntf    fn4 9360   4.731   7.056   6.243 -0.1360 -0.1405  0.6206
 1237ntf    cn1 9361   4.371   5.162   5.022  0.0902  0.0026 -0.1344
 1237ntf    sn2 9362   4.453   5.299   5.110 -0.2021  0.2180 -0.1968
 1237ntf    nn3 9363   4.606   5.271   5.088 -0.2074  0.1385 -0.1305
 1237ntf    sn2 9364   4.686   5.277   4.953 -0.2011 -0.0801 -0.1381
 1237ntf    cn1 9365   4.815   5.402   4.981  0.0029 -0.3352  0.0618
 1237ntf    fn4 9366   4.447   5.130   4.919  0.2047 -0.1929  0.0091
 1237ntf    fn4 9367   4.338   5.054   5.091 -1.0844  0.3305 -0.1699
 1237ntf    fn4 9368   4.257   5.203   4.970  0.0673 -0.4477 -0.4456
 1237ntf    on5 9369   4.414   5.426   5.055 -0.3527  0.2763  0.0450
 1237ntf    on5 9370   4.420   5.271   5.247 -0.1034 -0.5415 -0.3220
 1237ntf    on5 9371   4.758   5.153   4.938 -0.5734 -0.3113 -0.0190
 1237ntf    on5 9372   4.624   5.334   4.836 -0.2532 -0.0255 -0.0834
 1237ntf    fn4 9373   4.757   5.520   4.995  0.0702 -0.2687 -0.2283
 1237ntf    fn4 9374   4.902   5.409   4.882 -0.0830  0.5141  0.0408
 1237ntf    fn4 9375   4.882   5.381   5.094  0.1142  0.3225  0.1220
 1238ntf    cn1 9376   5.948   2.293   5.188 -0.1099  0.1586 -0.0123
 1238ntf    sn2 9377   6.124   2.271   5.145 -0.0345  0.3822  0.1838
 1238ntf    nn3 9378   6.102   2.183   5.017  0.2385 -0.3997  0.6651
 1238ntf    sn2 9379   6.184   2.058   4.970  0.3295  0.0261 -0.3598
 1238ntf    cn1 9380   6.131   1.933   5.091  0.4938  0.2588 -0.0449
 1238ntf    fn4 9381   5.890   2.175   5.206 -0.6230  0.4240  0.0631
 1238ntf    fn4 9382   5.942   2.365   5.298  0.2831  0.1136  0.0413
 1238ntf    fn4 9383   5.885   2.358   5.092  0.2065  0.1623 -0.2220
 1238ntf    on5 9384   6.171   2.403   5.110  0.5591 -0.0309 -0.6132
 1238ntf    on5 9385   6.182   2.204   5.258 -1.0676  0.3975  0.7382
 1238ntf    on5 9386   6.125   2.003   4.851 -0.0734 -0.0620 -0.1215
 1238ntf    on5 9387   6.328   2.066   4.967  0.2968  0.5730 -0.4215
 1238ntf    fn4 9388   6.143   1.808   5.049 -0.3345  0.0997  0.1724
 1238ntf    fn4 9389   6.003   1.950   5.123  0.5290  0.2646  0.0918
 1238ntf    fn4 9390   6.195   1.940   5.206 -0.0303  0.0173  0.2683
 1239ntf    cn1 9391   1.038   4.409   6.299 -0.2217  0.0643 -0.1456
 1239ntf    sn2 9392   1.143   4.313   6.187 -0.1125 -0.0907  0.0889
 1239ntf    nn3 9393   1.220   4.224   6.291  0.1450  0.3521  0.2768
 1239ntf    sn2 9394   1.224   4.069   6.318  0.2099  0.2702 -0.2061
 1239ntf    cn1 9395   1.349   4.011   6.200 -0.0807 -0.5588 -0.1124
 1239ntf    fn4 9396   0.952   4.478   6.226  0.0803  0.3469 -0.2390
 1239ntf    fn4 9397   0.963   4.342   6.385  0.4857 -0.5584 -0.0079
 1239ntf    fn4 9398   1.092   4.507   6.370 -0.0819  0.0889 -0.2862
 1239ntf    on5 9399   1.060   4.237   6.097  0.3993 -0.2711 -0.2338
 1239ntf    on5 9400   1.230   4.415   6.133  0.2044 -0.5068 -0.1978
 1239ntf    on5 9401   1.283   4.036   6.445 -0.0963  0.8919  0.1020
 1239ntf    on5 9402   1.104   4.004   6.272  0.0957 -0.1681  0.6973
 1239ntf    fn4 9403   1.334   3.880   6.206  0.1940 -0.5622  0.5768
 1239ntf    fn4 9404   1.471   4.040   6.244 -0.3786  0.6194 -0.0190
 1239ntf    fn4 9405   1.338   4.058   6.077 -0.2967 -0.1201  0.0742
 1240ntf    cn1 9406   2.695   4.196   5.679 -0.1516  0.0230  0.1816
 1240ntf    sn2 9407   2.646   4.021   5.677 -0.0944  0.0031  0.5263
 1240ntf    nn3 9408   2.768   3.967   5.760  0.1627 -0.1089  0.0777
 1240ntf    sn2 9409   2.781   3.939   5.914 -0.1350 -0.1472  0.0970
 1240ntf    cn1 9410   2.757   3.759   5.903 -0.1456 -0.1269 -0.2371
 1240ntf    fn4 9411   2.802   4.222   5.606 -0.6699 -0.0896 -0.6264
 1240ntf    fn4 9412   2.602   4.274   5.628 -0.3933 -0.4805 -0.1505
 1240ntf    fn4 9413   2.713   4.236   5.804  0.2425 -0.2536  0.2151
 1240ntf    on5 9414   2.514   4.000   5.731 -0.2687  0.2937  0.2157
 1240ntf    on5 9415   2.653   3.988   5.537 -0.2349 -0.4225  0.6175
 1240ntf    on5 9416   2.914   3.945   5.970 -0.2833 -0.1894  0.4579
 1240ntf    on5 9417   2.670   3.989   5.991  0.2511  0.0257  0.5530
 1240ntf    fn4 9418   2.638   3.726   5.855 -0.0598 -0.7856 -0.0030
 1240ntf    fn4 9419   2.757   3.701   6.022 -0.6543 -0.3009 -0.3185
 1240ntf    fn4 9420   2.849   3.703   5.827  0.0764 -0.3231  0.1701
 1241ntf    cn1 9421   3.114   0.773   2.499  0.4795 -0.0483  0.0361
 1241ntf    sn2 9422   3.229   0.911   2.531  0.3151  0.1124 -0.0627
 1241ntf    nn3 9423   3.210   0.925   2.686  0.2095  0.1141 -0.0753
 1241ntf    sn2 9424   3.098   0.992   2.773  0.0010  0.1203 -0.3483
 1241ntf    cn1 9425   3.192   1.141   2.819 -0.0311 -0.0559  0.3051
 1241ntf    fn4 9426   3.111   0.736   2.372  0.4745 -0.1645  0.0708
 1241ntf    fn4 9427   3.141   0.661   2.564 -0.1183 -0.1629  0.0926
 1241ntf    fn4 9428   2.990   0.808   2.529  0.4429 -0.2272  0.0950
 1241ntf    on5 9429   3.359   0.857   2.502  0.5348  0.7014 -0.1808
 1241ntf    on5 9430   3.187   1.024   2.453  0.1692  0.2420  0.2024
 1241ntf    on5 9431   2.978   1.039   2.707 -0.4173 -0.1437  0.2102
 1241ntf    on5 9432   3.091   0.922   2.899 -0.0602  0.3592 -0.2180
 1241ntf    fn4 9433   3.204   1.214   2.709  0.0515 -0.3496  0.1184
 1241ntf    fn4 9434   3.316   1.121   2.859  0.1180 -0.2285 -0.2287
 1241ntf    fn4 9435   3.136   1.222   2.907 -0.5451 -0.3496  0.2549
 1242ntf    cn1 9436   0.066   4.366   3.468 -0.2241 -0.1879 -0.0731
 1242ntf    sn2 9437  -0.090   4.289   3.517 -0.1155 -0.2625  0.1559
 1242ntf    nn3 9438  -0.180   4.417   3.502 -0.1714 -0.3310 -0.1143
 1242ntf    sn2 9439  -0.256   4.468   3.375 -0.1634  0.1994  0.0894
 1242ntf    cn1 9440  -0.430   4.435   3.418 -0.0785  0.2096  0.4501
 1242ntf    fn4 9441   0.166   4.279   3.474  0.1569  0.2433 -0.0426
 1242ntf    fn4 9442   0.072   4.417   3.346 -0.4770 -0.2860 -0.1261
 1242ntf    fn4 9443   0.094   4.464   3.552  0.4578 -0.3949 -0.0505
 1242ntf    on5 9444  -0.127   4.185   3.424  1.0492 -0.7529  0.2336
 1242ntf    on5 9445  -0.073   4.259   3.657  0.1702  0.1721  0.2144
 1242ntf    on5 9446  -0.246   4.607   3.339  0.0974  0.0086 -0.5776
 1242ntf    on5 9447  -0.247   4.380   3.261 -0.5750 -0.2546  0.3981
 1242ntf    fn4 9448  -0.457   4.330   3.494  0.1343 -0.0574  0.1616
 1242ntf    fn4 9449  -0.495   4.416   3.304  0.6231 -0.0398  0.0850
 1242ntf    fn4 9450  -0.485   4.544   3.469  0.0016  0.5556 -0.1900
 1243ntf    cn1 9451   0.838   5.055   3.351  0.1906 -0.1046  0.3584
 1243ntf    sn2 9452   0.958   5.185   3.310 -0.1976  0.1762  0.1074
 1243ntf    nn3 9453   0.866   5.311   3.288 -0.1427  0.1922 -0.0378
 1243ntf    sn2 9454   0.818   5.395   3.412  0.2526  0.1745  0.1311
 1243ntf    cn1 9455   0.679   5.484   3.335  0.1153 -0.3017 -0.1782
 1243ntf    fn4 9456   0.747   5.085   3.443 -0.3897 -0.4704 -0.0885
 1243ntf    fn4 9457   0.773   5.014   3.243  0.6625 -0.0720  0.0613
 1243ntf    fn4 9458   0.896   4.946   3.398  0.3317 -0.1051  0.1831
 1243ntf    on5 9459   1.049   5.190   3.421  0.1728 -0.6190 -0.1535
 1243ntf    on5 9460   1.007   5.139   3.182 -0.0426  0.0234  0.2217
 1243ntf    on5 9461   0.753   5.320   3.517  0.0604  0.3188  0.1149
 1243ntf    on5 9462   0.898   5.507   3.454  0.3167  0.1808 -0.0054
 1243ntf    fn4 9463   0.597   5.411   3.261 -0.1272 -0.4032  0.1851
 1243ntf    fn4 9464   0.724   5.574   3.249 -0.2243 -0.1527 -0.2017
 1243ntf    fn4 9465   0.603   5.541   3.427  0.6873 -0.4877  0.4131
 1244ntf    cn1 9466   0.786   0.818   6.087 -0.0317 -0.0779 -0.0346
 1244ntf    sn2 9467   0.893   0.726   6.202  0.1507 -0.1669 -0.2733
 1244ntf    nn3 9468   1.027   0.808   6.200  0.0686 -0.0278 -0.1426
 1244ntf    sn2 9469   1.075   0.923   6.296 -0.0773 -0.2058  0.1435
 1244ntf    cn1 9470   1.187   0.824   6.399 -0.1354 -0.2957  0.1201
 1244ntf    fn4 9471   0.851   0.832   5.972  0.4709  0.0124  0.2580
 1244ntf    fn4 9472   0.673   0.751   6.068 -0.0491  0.0462 -0.3807
 1244ntf    fn4 9473   0.751   0.936   6.134  0.0452 -0.1326  0.1620
 1244ntf    on5 9474   0.824   0.732   6.329  0.0656 -0.4216 -0.3085
 1244ntf    on5 9475   0.904   0.592   6.152 -0.7517 -0.2296 -0.3286
 1244ntf    on5 9476   1.160   1.023   6.237 -0.3640  0.2644  0.5214
 1244ntf    on5 9477   0.980   0.966   6.395 -0.1407  0.1658 -0.0786
 1244ntf    fn4 9478   1.281   0.761   6.330  0.1118 -0.1413  0.3139
 1244ntf    fn4 9479   1.131   0.729   6.473  0.2550 -0.2811  0.4384
 1244ntf    fn4 9480   1.248   0.894   6.493 -0.2132 -0.4677  0.2986
 1245ntf    cn1 9481   4.653   4.965   2.641  0.0794 -0.0625 -0.0371
 1245ntf    sn2 9482   4.750   5.015   2.786  0.0659 -0.0539 -0.0312
 1245ntf    nn3 9483   4.890   5.053   2.726 -0.0552  0.1279 -0.2008
 1245ntf    sn2 9484   5.013   4.960   2.698  0.0534  0.1589  0.1616
 1245ntf    cn1 9485   5.121   5.024   2.829 -0.2298  0.0939  0.4287
 1245ntf    fn4 9486   4.523   4.951   2.664  0.0885  0.1264  0.1315
 1245ntf    fn4 9487   4.652   5.047   2.538  0.3847 -0.1380 -0.1004
 1245ntf    fn4 9488   4.693   4.848   2.593  0.5752 -0.0775  0.4020
 1245ntf    on5 9489   4.679   5.127   2.842 -0.4302 -0.0955 -0.5636
 1245ntf    on5 9490   4.737   4.906   2.880 -0.3992 -0.1093 -0.1544
 1245ntf    on5 9491   4.998   4.818   2.720  0.3826  0.1427  0.2880
 1245ntf    on5 9492   5.077   5.008   2.578 -0.0124 -0.2526 -0.0408
 1245ntf    fn4 9493   5.152   5.151   2.811  0.2946 -0.0828  0.0415
 1245ntf    fn4 9494   5.238   4.963   2.840 -0.2719 -0.1066 -0.1926
 1245ntf    fn4 9495   5.067   5.012   2.949 -0.4339 -0.2453  0.3026
 1246ntf    cn1 9496   4.889   4.061   5.013  0.5670  0.0461  0.0988
 1246ntf    sn2 9497   4.760   4.186   4.983  0.5490  0.0368  0.1388
 1246ntf    nn3 9498   4.819   4.318   5.046  0.8113  0.0063 -0.0411
 1246ntf    sn2 9499   4.868   4.452   4.980 -0.0989  0.2868 -0.1688
 1246ntf    cn1 9500   5.047   4.437   5.009 -0.0743 -0.1072 -0.5080
 1246ntf    fn4 9501   4.832   3.946   4.981  0.5363  0.0510  0.1344
 1246ntf    fn4 9502   4.996   4.081   4.940  0.1529  0.4005 -0.4162
 1246ntf    fn4 9503   4.918   4.054   5.142 -0.5066  0.0482  0.3553
 1246ntf    on5 9504   4.744   4.192   4.840  0.3190 -0.4493  0.1437
 1246ntf    on5 9505   4.649   4.136   5.060  0.2452 -0.0933 -0.3797
 1246ntf    on5 9506   4.865   4.465   4.837  0.4375 -0.0333 -0.2130
 1246ntf    on5 9507   4.823   4.563   5.060  0.1175 -0.1101  0.5183
 1246ntf    fn4 9508   5.073   4.446   5.139 -0.3074  0.4930 -0.4979
 1246ntf    fn4 9509   5.107   4.539   4.949  0.3758  0.2654  0.5485
 1246ntf    fn4 9510   5.101   4.327   4.962  0.4306  0.0473 -0.2998
 1247ntf    cn1 9511   5.963   2.833   4.276  0.2795 -0.0718 -0.1314
 1247ntf    sn2 9512   6.111   2.800   4.376  0.1931  0.0446  0.0347
 1247ntf    nn3 9513   6.147   2.653   4.334  0.0589  0.0673 -0.1626
 1247ntf    sn2 9514   6.262   2.606   4.237  0.0157 -0.0243 -0.1691
 1247ntf    cn1 9515   6.416   2.646   4.325 -0.2767  0.2826  0.2066
 1247ntf    fn4 9516   5.872   2.737   4.279  0.2023  0.0158  0.5767
 1247ntf    fn4 9517   5.896   2.938   4.321  0.7372 -0.1322  0.7034
 1247ntf    fn4 9518   6.002   2.864   4.153  0.1112  0.1717 -0.1261
 1247ntf    on5 9519   6.200   2.901   4.325  0.1293 -0.0492 -0.2659
 1247ntf    on5 9520   6.078   2.804   4.516 -0.1091 -0.3535 -0.0232
 1247ntf    on5 9521   6.259   2.463   4.216 -0.4995 -0.0918  0.3250
 1247ntf    on5 9522   6.257   2.683   4.115 -0.5325  0.0034 -0.1326
 1247ntf    fn4 9523   6.510   2.704   4.253 -0.4624 -0.0038 -0.2769
 1247ntf    fn4 9524   6.469   2.534   4.371 -0.4956  0.3068  0.5265
 1247ntf    fn4 9525   6.394   2.722   4.431 -0.0617 -0.1720  0.5797
 1248ntf    cn1 9526   2.828   1.362   2.004 -0.0801  0.1848 -0.1015
 1248ntf    sn2 9527   2.801   1.273   1.847 -0.0621 -0.1891  0.1049
 1248ntf    nn3 9528   2.896   1.350   1.749 -0.3816 -0.3400 -0.3230
 1248ntf    sn2 9529   3.039   1.307   1.700 -0.1442  0.1305 -0.0434
 1248ntf    cn1 9530   3.010   1.263   1.526  0.3546 -0.1423 -0.0608
 1248ntf    fn4 9531   2.791   1.299   2.115 -0.4058 -0.2333 -0.4403
 1248ntf    fn4 9532   2.957   1.391   2.014 -0.1820  0.8922 -0.7824
 1248ntf    fn4 9533   2.772   1.482   2.001  0.1314  0.2807 -0.2534
 1248ntf    on5 9534   2.835   1.136   1.876 -0.9122 -0.4721 -0.2139
 1248ntf    on5 9535   2.666   1.313   1.815 -0.0710 -0.4727 -0.2108
 1248ntf    on5 9536   3.120   1.425   1.682  0.4285 -0.2895 -0.2588
 1248ntf    on5 9537   3.110   1.191   1.748 -0.2914 -0.0908 -0.3581
 1248ntf    fn4 9538   3.118   1.272   1.451  0.2496  0.2223 -0.1731
 1248ntf    fn4 9539   2.922   1.351   1.479  0.4022  0.0968  0.2904
 1248ntf    fn4 9540   2.958   1.142   1.516 -0.1214  0.0144  0.4188
 1249ntf    cn1 9541   6.326   3.909   0.318  0.3146 -0.4994  0.0544
 1249ntf    sn2 9542   6.294   3.921   0.497  0.2474 -0.4466  0.0390
 1249ntf    nn3 9543   6.137   3.929   0.491  0.2798  0.2538  0.1113
 1249ntf    sn2 9544   6.050   4.035   0.414  0.0380  0.0347  0.0847
 1249ntf    cn1 9545   5.898   4.048   0.513  0.0364  0.2738  0.0500
 1249ntf    fn4 9546   6.453   3.882   0.293  0.3982 -0.0597 -0.0103
 1249ntf    fn4 9547   6.244   3.818   0.269 -0.1379 -0.1963  0.2395
 1249ntf    fn4 9548   6.312   4.026   0.258  0.1724 -0.7012 -0.3060
 1249ntf    on5 9549   6.345   3.796   0.547 -0.1612 -0.3915  0.6039
 1249ntf    on5 9550   6.351   4.045   0.544  0.0550 -0.3449  0.0068
 1249ntf    on5 9551   6.105   4.168   0.409  0.2378 -0.0421  0.2158
 1249ntf    on5 9552   6.002   3.985   0.287  0.6743 -0.6476  0.1050
 1249ntf    fn4 9553   5.827   3.937   0.509 -0.6357  0.6998 -0.0810
 1249ntf    fn4 9554   5.821   4.144   0.465 -0.1345  0.1497  0.0765
 1249ntf    fn4 9555   5.918   4.077   0.640  0.4521 -0.4371  0.1526
 1250ntf    cn1 9556   0.933   2.535   3.734  0.2037 -0.1976  0.1632
 1250ntf    sn2 9557   0.993   2.367   3.769  0.1067 -0.1846  0.3923
 1250ntf    nn3 9558   0.889   2.327   3.879  0.3002  0.3950  0.7917
 1250ntf    sn2 9559   0.821   2.191   3.919 -0.1185  0.3999  0.0999
 1250ntf    cn1 9560   0.691   2.162   3.795  0.0994 -0.1941  0.0106
 1250ntf    fn4 9561   0.926   2.619   3.836 -0.0918 -0.2579  0.1909
 1250ntf    fn4 9562   0.996   2.593   3.633  0.2678 -0.8099 -0.1545
 1250ntf    fn4 9563   0.806   2.524   3.700  0.2883 -0.3437 -0.1096
 1250ntf    on5 9564   0.977   2.311   3.637  0.2799  0.6452  0.0074
 1250ntf    on5 9565   1.129   2.376   3.817  0.1960 -0.1856  0.1435
 1250ntf    on5 9566   0.894   2.067   3.908  0.0832  0.5405 -0.1673
 1250ntf    on5 9567   0.734   2.215   4.032 -0.3095 -0.3619  0.1166
 1250ntf    fn4 9568   0.632   2.276   3.762  0.2377 -0.1147  0.0364
 1250ntf    fn4 9569   0.596   2.079   3.835 -0.0126 -0.2173 -0.2978
 1250ntf    fn4 9570   0.739   2.116   3.680 -0.4496  0.8846 -0.6707
 1251ntf    cn1 9571   6.599   4.737   4.366  0.1384 -0.6230 -0.1966
 1251ntf    sn2 9572   6.544   4.565   4.346 -0.4368 -0.4671  0.0251
 1251ntf    nn3 9573   6.392   4.577   4.382 -0.2848 -0.2616  0.6095
 1251ntf    sn2 9574   6.264   4.592   4.292  0.3427 -0.2864 -0.2954
 1251ntf    cn1 9575   6.203   4.421   4.302 -0.6171  0.0922  0.5125
 1251ntf    fn4 9576   6.720   4.765   4.320  0.3711 -0.1396  0.6878
 1251ntf    fn4 9577   6.516   4.827   4.315  0.2246 -0.3446  0.1523
 1251ntf    fn4 9578   6.597   4.772   4.493  0.2116 -0.5310 -0.2203
 1251ntf    on5 9579   6.567   4.539   4.206  0.7559 -0.8284  0.2729
 1251ntf    on5 9580   6.615   4.482   4.441 -0.1135 -0.4098 -0.1659
 1251ntf    on5 9581   6.158   4.661   4.360  0.6957  0.4477 -0.4806
 1251ntf    on5 9582   6.279   4.617   4.151 -0.3763 -0.1906 -0.3562
 1251ntf    fn4 9583   6.086   4.398   4.244 -0.5573  0.3189  0.2993
 1251ntf    fn4 9584   6.195   4.376   4.426 -0.0829 -0.5906  0.3041
 1251ntf    fn4 9585   6.281   4.332   4.242 -0.6011  0.2412  0.3134
 1252ntf    cn1 9586   6.083   1.533   3.750  0.3004  0.0708  0.0309
 1252ntf    sn2 9587   6.111   1.369   3.677 -0.1478 -0.2060  0.4724
 1252ntf    nn3 9588   6.266   1.371   3.651 -0.2151  0.2370  0.1099
 1252ntf    sn2 9589   6.380   1.323   3.748 -0.2850  0.3014  0.2255
 1252ntf    cn1 9590   6.378   1.143   3.726 -0.3880  0.2886  0.3380
 1252ntf    fn4 9591   5.989   1.551   3.842  0.7320 -0.1076  0.5158
 1252ntf    fn4 9592   6.198   1.570   3.803  0.3007  1.0241 -0.6140
 1252ntf    fn4 9593   6.058   1.629   3.663  0.2575  0.2153  0.2033
 1252ntf    on5 9594   6.065   1.269   3.771  0.1527 -0.9066 -0.1142
 1252ntf    on5 9595   6.040   1.371   3.552  0.5324  0.0172  0.0835
 1252ntf    on5 9596   6.507   1.367   3.694 -0.1561 -0.7504 -0.3495
 1252ntf    on5 9597   6.356   1.342   3.889  0.5076 -0.2333  0.4432
 1252ntf    fn4 9598   6.471   1.080   3.797 -0.3424  0.2785  0.2701
 1252ntf    fn4 9599   6.396   1.113   3.598  0.7407  0.7420  0.3797
 1252ntf    fn4 9600   6.263   1.087   3.758 -0.4999  0.2008 -0.2086
 1253ntf    cn1 9601   5.781   3.197   2.353  0.0654 -0.4453 -0.3169
 1253ntf    sn2 9602   5.956   3.164   2.390  0.1341 -0.0669 -0.2989
 1253ntf    nn3 9603   5.987   3.281   2.490 -0.4696  0.1429 -0.3525
 1253ntf    sn2 9604   6.094   3.394   2.477 -0.0362 -0.2406 -0.1568
 1253ntf    cn1 9605   5.994   3.532   2.539 -0.0220 -0.2102 -0.2009
 1253ntf    fn4 9606   5.761   3.311   2.290 -0.5068  0.0611  0.7646
 1253ntf    fn4 9607   5.731   3.102   2.275 -0.0085 -0.5302 -0.1643
 1253ntf    fn4 9608   5.709   3.205   2.463  0.2166 -0.2538 -0.2314
 1253ntf    on5 9609   5.947   3.040   2.463 -0.2399 -0.0243 -0.2710
 1253ntf    on5 9610   6.021   3.166   2.261  0.5115  0.6272 -0.0994
 1253ntf    on5 9611   6.197   3.376   2.577 -0.5271  0.2880  0.4499
 1253ntf    on5 9612   6.135   3.440   2.346  0.1654 -0.5384 -0.1992
 1253ntf    fn4 9613   5.949   3.512   2.662 -0.0928  0.1825 -0.1620
 1253ntf    fn4 9614   5.887   3.553   2.463 -0.0676 -0.4108 -0.1930
 1253ntf    fn4 9615   6.064   3.644   2.538  0.7042 -0.6617 -0.5104
 1254ntf    cn1 9616   3.618   2.598   5.336 -0.0547 -0.3012 -0.0573
 1254ntf    sn2 9617   3.789   2.642   5.296 -0.1354  0.2355  0.1872
 1254ntf    nn3 9618   3.849   2.588   5.431 -0.3565 -0.0075  0.1878
 1254ntf    sn2 9619   3.946   2.466   5.453  0.0425  0.2521 -0.1254
 1254ntf    cn1 9620   4.103   2.558   5.456  0.2153 -0.0567  0.3980
 1254ntf    fn4 9621   3.531   2.632   5.242 -0.4042  0.5067  0.5482
 1254ntf    fn4 9622   3.604   2.468   5.361 -0.3087 -0.3370 -0.3724
 1254ntf    fn4 9623   3.570   2.665   5.439 -0.7798 -0.6128 -0.1821
 1254ntf    on5 9624   3.805   2.573   5.171 -0.0584  0.2464  0.1909
 1254ntf    on5 9625   3.791   2.786   5.284 -0.8941  0.2062 -0.3726
 1254ntf    on5 9626   3.936   2.400   5.580 -0.5246 -0.2919 -0.4452
 1254ntf    on5 9627   3.956   2.381   5.337 -0.1820  0.0696 -0.0120
 1254ntf    fn4 9628   4.122   2.605   5.578  0.5162  0.2906  0.2202
 1254ntf    fn4 9629   4.106   2.661   5.373  0.2087 -0.6432 -0.3397
 1254ntf    fn4 9630   4.201   2.474   5.429  0.4752  0.4812 -0.3836
 1255ntf    cn1 9631   0.533   1.393   6.563 -0.0134  0.0890  0.2787
 1255ntf    sn2 9632   0.396   1.292   6.499 -0.1850  0.4469  0.0761
 1255ntf    nn3 9633   0.441   1.261   6.352  0.1010  0.4506  0.1626
 1255ntf    sn2 9634   0.413   1.349   6.226  0.0883  0.1283 -0.0615
 1255ntf    cn1 9635   0.583   1.382   6.170  0.1858 -0.2760 -0.0059
 1255ntf    fn4 9636   0.579   1.480   6.475  0.2063  0.1965  0.4978
 1255ntf    fn4 9637   0.508   1.459   6.675 -0.2916  0.6699 -0.1198
 1255ntf    fn4 9638   0.633   1.309   6.583  0.0026 -0.0937 -0.5508
 1255ntf    on5 9639   0.414   1.179   6.586 -0.0778  0.1922 -0.2756
 1255ntf    on5 9640   0.271   1.363   6.509 -0.4540 -0.0063 -0.0630
 1255ntf    on5 9641   0.350   1.277   6.118 -0.2902  0.1140  0.1683
 1255ntf    on5 9642   0.363   1.483   6.247 -0.8036 -0.2182  0.0594
 1255ntf    fn4 9643   0.590   1.444   6.053  0.2727  0.0594  0.1780
 1255ntf    fn4 9644   0.665   1.279   6.154  0.3290 -0.0961 -0.4488
 1255ntf    fn4 9645   0.650   1.446   6.264 -0.0310  0.4291 -0.3275
 1256ntf    cn1 9646   3.380   5.173   0.817  0.2942 -0.1448  0.2865
 1256ntf    sn2 9647   3.441   5.344   0.825  0.7718 -0.3078  0.1789
 1256ntf    nn3 9648   3.542   5.326   0.943 -0.0944 -0.4669  0.9061
 1256ntf    sn2 9649   3.698   5.307   0.958  0.0571  0.0374  0.0490
 1256ntf    cn1 9650   3.682   5.197   1.102  0.1849 -0.1932 -0.1149
 1256ntf    fn4 9651   3.416   5.099   0.921 -0.3363  0.0929  0.6731
 1256ntf    fn4 9652   3.250   5.153   0.830  0.2509 -0.1256 -0.1097
 1256ntf    fn4 9653   3.422   5.100   0.715  0.3092 -0.0299  0.2098
 1256ntf    on5 9654   3.490   5.379   0.693  0.7158 -0.7148  0.0470
 1256ntf    on5 9655   3.322   5.418   0.857  0.4912 -0.3443 -0.7343
 1256ntf    on5 9656   3.755   5.215   0.863 -0.3947  0.1468 -0.3317
 1256ntf    on5 9657   3.768   5.425   1.004 -0.0093  0.2032 -0.2685
 1256ntf    fn4 9658   3.797   5.142   1.137  0.0716 -0.0699  0.4580
 1256ntf    fn4 9659   3.603   5.092   1.085  0.8437 -0.7066 -0.0379
 1256ntf    fn4 9660   3.643   5.262   1.210  0.0307 -0.8466  0.2308
 1257ntf    cn1 9661   0.335   2.112   5.540 -0.0605  0.0662  0.4329
 1257ntf    sn2 9662   0.516   2.112   5.555 -0.0563  0.0041  0.3855
 1257ntf    nn3 9663   0.554   2.074   5.408 -0.2616 -0.4060  0.4373
 1257ntf    sn2 9664   0.678   1.989   5.363  0.0323  0.2348  0.0313
 1257ntf    cn1 9665   0.607   1.823   5.353  0.0300  0.2152  0.3620
 1257ntf    fn4 9666   0.297   2.206   5.456  0.6752 -0.3225 -0.3524
 1257ntf    fn4 9667   0.278   1.997   5.505 -0.0318  0.1932 -0.0366
 1257ntf    fn4 9668   0.284   2.148   5.657 -0.3123 -0.4880  0.5000
 1257ntf    on5 9669   0.547   2.250   5.585  0.9029 -0.2305  0.5249
 1257ntf    on5 9670   0.542   2.010   5.654  0.2095 -0.1860  0.1175
 1257ntf    on5 9671   0.719   2.014   5.227 -0.5528  0.1231 -0.1670
 1257ntf    on5 9672   0.787   1.977   5.458 -0.0240 -1.1439 -0.0611
 1257ntf    fn4 9673   0.549   1.816   5.234  0.1404 -0.4185  0.3397
 1257ntf    fn4 9674   0.508   1.800   5.438 -0.2475  0.3857  0.0859
 1257ntf    fn4 9675   0.692   1.722   5.360 -0.6099 -0.3279  0.5365
 1258ntf    cn1 9676   3.544   3.054   4.387  0.0342 -0.0931 -0.1665
 1258ntf    sn2 9677   3.655   3.083   4.528  0.2222 -0.2571 -0.2806
 1258ntf    nn3 9678   3.562   3.057   4.651  0.7165  0.4522  0.2551
 1258ntf    sn2 9679   3.480   3.141   4.755  0.0492 -0.2235  0.2825
 1258ntf    cn1 9680   3.572   3.117   4.910  0.1248  0.2390  0.3110
 1258ntf    fn4 9681   3.596   3.083   4.269  0.2904  0.5757  0.1040
 1258ntf    fn4 9682   3.519   2.925   4.373 -0.0795 -0.1268  0.3181
 1258ntf    fn4 9683   3.427   3.116   4.389  0.1374  0.1157 -0.4950
 1258ntf    on5 9684   3.752   2.977   4.514  0.3203 -0.2565  0.3557
 1258ntf    on5 9685   3.695   3.221   4.509  0.4587 -0.2764  0.0734
 1258ntf    on5 9686   3.488   3.284   4.745  0.7089 -0.2543  0.3610
 1258ntf    on5 9687   3.345   3.092   4.773  0.1560 -0.6748 -0.1049
 1258ntf    fn4 9688   3.606   2.993   4.942 -0.0023  0.2468  0.4787
 1258ntf    fn4 9689   3.488   3.152   5.006 -0.1140 -0.1834  0.2587
 1258ntf    fn4 9690   3.682   3.190   4.904  0.4807 -0.2545  0.7413
 1259ntf    cn1 9691   4.699   3.186   3.928  0.0805 -0.3620  0.2304
 1259ntf    sn2 9692   4.534   3.138   3.867 -0.0328 -0.1355  0.3601
 1259ntf    nn3 9693   4.449   3.240   3.951 -0.1733  0.1902 -0.1694
 1259ntf    sn2 9694   4.368   3.366   3.903 -0.2890  0.2770  0.2459
 1259ntf    cn1 9695   4.227   3.284   3.822 -0.0500 -0.0695  0.1770
 1259ntf    fn4 9696   4.734   3.130   4.042 -0.0734  0.5410  0.7287
 1259ntf    fn4 9697   4.798   3.151   3.847 -0.0123  0.1216 -0.0945
 1259ntf    fn4 9698   4.706   3.316   3.951  0.0103 -0.3421  0.1436
 1259ntf    on5 9699   4.538   3.164   3.725 -0.2346  0.5614  0.4751
 1259ntf    on5 9700   4.520   3.004   3.918 -0.1413 -0.1157  0.3827
 1259ntf    on5 9701   4.316   3.441   4.014 -0.0308  0.5887  0.1566
 1259ntf    on5 9702   4.427   3.445   3.797  0.2457 -0.2957  0.1041
 1259ntf    fn4 9703   4.152   3.348   3.734 -0.4808 -0.3372  0.3484
 1259ntf    fn4 9704   4.139   3.240   3.911  0.2279 -0.5214  0.2317
 1259ntf    fn4 9705   4.261   3.171   3.763 -0.4855 -0.1291  0.0373
 1260ntf    cn1 9706   3.718   1.242   6.043 -0.0981 -0.1045  0.0387
 1260ntf    sn2 9707   3.600   1.309   6.164  0.0326  0.1041  0.0514
 1260ntf    nn3 9708   3.701   1.359   6.272 -0.5022 -0.0603  0.6330
 1260ntf    sn2 9709   3.741   1.501   6.327  0.0592  0.0233  0.0209
 1260ntf    cn1 9710   3.653   1.473   6.484  0.2306 -0.0429  0.1052
 1260ntf    fn4 9711   3.805   1.335   6.008 -0.6118  0.1615 -0.5546
 1260ntf    fn4 9712   3.792   1.150   6.103  0.3568  0.1526 -0.1256
 1260ntf    fn4 9713   3.666   1.198   5.929 -0.3522  0.7992 -0.1992
 1260ntf    on5 9714   3.527   1.413   6.095 -0.3472 -0.0031  0.2861
 1260ntf    on5 9715   3.524   1.196   6.211  0.3276 -0.2408 -0.2953
 1260ntf    on5 9716   3.880   1.510   6.366  0.2631 -0.1781 -0.6456
 1260ntf    on5 9717   3.680   1.619   6.273  0.1844 -0.0134 -0.2020
 1260ntf    fn4 9718   3.529   1.436   6.459  0.2703  0.0465 -0.2294
 1260ntf    fn4 9719   3.641   1.577   6.565 -0.1775 -0.2069  0.2562
 1260ntf    fn4 9720   3.709   1.366   6.539 -0.1118 -0.2982 -0.0415
 1261ntf    cn1 9721   5.280   3.178   1.771 -0.0226 -0.0459 -0.2516
 1261ntf    sn2 9722   5.267   3.027   1.872 -0.0916  0.3572  0.3488
 1261ntf    nn3 9723   5.373   3.067   1.981 -0.1525 -0.1239  0.5866
 1261ntf    sn2 9724   5.361   3.085   2.136 -0.5596 -0.0894  0.5528
 1261ntf    cn1 9725   5.422   2.920   2.180  0.1555  0.1042  0.3007
 1261ntf    fn4 9726   5.236   3.280   1.843  0.2152 -0.0398 -0.1165
 1261ntf    fn4 9727   5.403   3.221   1.746  0.2485 -0.6300  0.0762
 1261ntf    fn4 9728   5.213   3.170   1.657 -0.3336 -0.2724 -0.0546
 1261ntf    on5 9729   5.127   3.023   1.903 -0.2067 -0.3621 -0.2356
 1261ntf    on5 9730   5.316   2.928   1.780  0.4705  0.3848  0.6137
 1261ntf    on5 9731   5.455   3.181   2.189 -0.0307 -0.3199  0.0424
 1261ntf    on5 9732   5.225   3.081   2.183 -0.4997 -0.8288  0.6725
 1261ntf    fn4 9733   5.551   2.901   2.158  0.1554  0.3546  0.0731
 1261ntf    fn4 9734   5.358   2.821   2.119  0.1767  0.4171 -0.2339
 1261ntf    fn4 9735   5.406   2.892   2.308 -0.1875  0.3242  0.3053
 1262ntf    cn1 9736   1.935   5.902   5.342 -0.3825  0.2236 -0.1567
 1262ntf    sn2 9737   2.075   5.868   5.453 -0.2812  0.4735 -0.2067
 1262ntf    nn3 9738   1.993   5.837   5.584  0.8598  0.2613  0.4654
 1262ntf    sn2 9739   1.946   5.700   5.645  0.1031  0.2998 -0.0206
 1262ntf    cn1 9740   1.765   5.712   5.640  0.0649 -0.3493 -0.2166
 1262ntf    fn4 9741   1.904   5.793   5.274 -0.2634 -0.4670  0.8665
 1262ntf    fn4 9742   1.822   5.922   5.409 -0.6488 -0.6167 -0.3429
 1262ntf    fn4 9743   1.956   6.002   5.258 -0.1245  0.3636  0.0735
 1262ntf    on5 9744   2.139   5.753   5.395 -0.5046  0.3176 -0.1498
 1262ntf    on5 9745   2.145   5.994   5.458  0.4296  0.0736 -0.0241
 1262ntf    on5 9746   1.975   5.578   5.575  0.0715  0.0745  0.3519
 1262ntf    on5 9747   1.976   5.706   5.786 -0.1639  0.3099  0.0362
 1262ntf    fn4 9748   1.706   5.600   5.681  0.4101 -0.4651 -0.0341
 1262ntf    fn4 9749   1.730   5.756   5.521  0.3346 -0.2863 -0.2726
 1262ntf    fn4 9750   1.714   5.806   5.718  0.0524 -0.7490  0.2682
 1263ntf    cn1 9751   5.920   0.042   0.632  0.1178 -0.3243 -0.1490
 1263ntf    sn2 9752   5.743   0.080   0.649  0.1453 -0.0431 -0.4860
 1263ntf    nn3 9753   5.691  -0.019   0.759  0.2679 -0.0982 -0.4768
 1263ntf    sn2 9754   5.636  -0.166   0.747 -0.2545 -0.0076  0.7165
 1263ntf    cn1 9755   5.736  -0.244   0.878  0.0339 -0.0599  0.4668
 1263ntf    fn4 9756   5.976   0.024   0.750 -0.8088  0.4178  0.4192
 1263ntf    fn4 9757   5.947  -0.061   0.552  0.2319 -0.0871 -0.4178
 1263ntf    fn4 9758   5.987   0.136   0.567 -0.3589 -0.0157 -0.1980
 1263ntf    on5 9759   5.748   0.216   0.697 -0.3266  0.0075 -0.5747
 1263ntf    on5 9760   5.693   0.054   0.516 -0.0030 -0.0013 -0.4382
 1263ntf    on5 9761   5.498  -0.171   0.790 -0.5820 -0.6319 -0.3866
 1263ntf    on5 9762   5.677  -0.251   0.638 -0.5319  0.2230  0.4302
 1263ntf    fn4 9763   5.716  -0.374   0.888  0.1823 -0.1379 -0.2006
 1263ntf    fn4 9764   5.720  -0.198   1.001 -0.3770 -0.3549  0.5252
 1263ntf    fn4 9765   5.862  -0.213   0.856 -0.0689  0.3086  0.3891
 1264ntf    cn1 9766   3.206   4.076   3.671  0.2649  0.2070  0.1090
 1264ntf    sn2 9767   3.029   4.062   3.632  0.3353  0.0491 -0.1590
 1264ntf    nn3 9768   2.973   4.022   3.773  0.2496  0.2907 -0.1236
 1264ntf    sn2 9769   2.857   4.081   3.861  0.0055  0.1153 -0.3265
 1264ntf    cn1 9770   2.940   4.227   3.931  0.1665 -0.1660  0.0717
 1264ntf    fn4 9771   3.216   4.148   3.781  0.0298  0.5144 -0.0680
 1264ntf    fn4 9772   3.256   3.955   3.690 -0.2305 -0.0546 -0.2470
 1264ntf    fn4 9773   3.280   4.134   3.578  0.4369 -0.1431  0.0267
 1264ntf    on5 9774   2.993   4.193   3.581 -0.5030 -0.1372 -0.0641
 1264ntf    on5 9775   3.040   3.960   3.531  0.7882 -0.0584 -0.0035
 1264ntf    on5 9776   2.749   4.141   3.787 -0.1763 -0.3813 -0.4646
 1264ntf    on5 9777   2.832   3.996   3.974 -0.0782  0.0412 -0.4009
 1264ntf    fn4 9778   3.012   4.289   3.839  0.1721 -0.0535  0.1511
 1264ntf    fn4 9779   3.027   4.193   4.025 -0.0097 -0.0419  0.2840
 1264ntf    fn4 9780   2.857   4.312   3.990  0.0255 -0.3654  0.1584
 1265ntf    cn1 9781   1.275   5.525   4.671 -0.1371  0.1677 -0.2248
 1265ntf    sn2 9782   1.280   5.625   4.823 -0.0959 -0.1133 -0.0402
 1265ntf    nn3 9783   1.376   5.546   4.918 -0.0566 -0.3025 -0.2370
 1265ntf    sn2 9784   1.329   5.444   5.028  0.0632 -0.0584  0.0402
 1265ntf    cn1 9785   1.349   5.551   5.174  0.3348  0.3634 -0.3018
 1265ntf    fn4 9786   1.194   5.421   4.680  0.0856 -0.0250 -0.4366
 1265ntf    fn4 9787   1.221   5.592   4.570  0.0948 -0.2054 -0.6010
 1265ntf    fn4 9788   1.395   5.488   4.630  0.1028  0.3026  0.3451
 1265ntf    on5 9789   1.335   5.753   4.788 -0.7620  0.2136  0.0872
 1265ntf    on5 9790   1.144   5.634   4.870 -0.0656 -0.2302  0.0702
 1265ntf    on5 9791   1.193   5.398   5.040  0.2315 -0.6562 -0.3065
 1265ntf    on5 9792   1.427   5.341   5.049  0.7036  0.5150 -0.0896
 1265ntf    fn4 9793   1.264   5.652   5.183 -0.4364 -0.3130  0.1609
 1265ntf    fn4 9794   1.470   5.605   5.181  0.6223 -0.3110  0.1691
 1265ntf    fn4 9795   1.329   5.483   5.286  0.1229  0.3106 -0.3727
 1266ntf    cn1 9796   6.543   4.305   0.832  0.0208 -0.3978 -0.0025
 1266ntf    sn2 9797   6.510   4.373   0.998  0.1163  0.2626 -0.2507
 1266ntf    nn3 9798   6.372   4.301   1.018  0.0158  0.5493  0.0999
 1266ntf    sn2 9799   6.286   4.275   1.147 -0.0411  0.0048 -0.0432
 1266ntf    cn1 9800   6.180   4.423   1.142 -0.2169 -0.1051  0.4281
 1266ntf    fn4 9801   6.456   4.346   0.741  0.4187  0.6466  0.0669
 1266ntf    fn4 9802   6.661   4.350   0.791  0.2300 -0.2701  0.7256
 1266ntf    fn4 9803   6.555   4.174   0.837  0.1755 -0.4053 -0.5381
 1266ntf    on5 9804   6.617   4.326   1.082 -0.2149 -0.4674 -0.2270
 1266ntf    on5 9805   6.494   4.515   0.976 -0.2865  0.2138 -0.2798
 1266ntf    on5 9806   6.193   4.165   1.141  0.2515 -0.2377 -0.2097
 1266ntf    on5 9807   6.358   4.300   1.269  0.0481 -0.3241 -0.0266
 1266ntf    fn4 9808   6.135   4.446   1.020 -0.0863  0.3031  0.4557
 1266ntf    fn4 9809   6.238   4.533   1.186 -0.1699  0.2395 -0.4746
 1266ntf    fn4 9810   6.077   4.402   1.222 -0.5173 -0.0259  0.0611
 1267ntf    cn1 9811   3.117   2.836   1.422  0.1821  0.0486 -0.1489
 1267ntf    sn2 9812   3.248   2.935   1.498  0.2286  0.0097 -0.1788
 1267ntf    nn3 9813   3.180   3.074   1.472  0.5320  0.2262  0.1627
 1267ntf    sn2 9814   3.147   3.185   1.578 -0.0967  0.3331 -0.1406
 1267ntf    cn1 9815   3.287   3.297   1.549  0.0882  0.1933  0.2033
 1267ntf    fn4 9816   3.103   2.857   1.293  0.5075  0.2483 -0.1514
 1267ntf    fn4 9817   3.147   2.708   1.434 -0.0517  0.0393  0.3783
 1267ntf    fn4 9818   3.001   2.853   1.485  0.2164 -0.2008 -0.0149
 1267ntf    on5 9819   3.249   2.890   1.635  0.8623  0.2243 -0.1082
 1267ntf    on5 9820   3.368   2.913   1.421  0.0341 -0.6068 -0.3032
 1267ntf    on5 9821   3.026   3.253   1.539 -0.7579 -0.2896  0.7804
 1267ntf    on5 9822   3.157   3.144   1.716  0.2576  0.1829 -0.2105
 1267ntf    fn4 9823   3.260   3.382   1.451  0.0268 -0.1841 -0.1092
 1267ntf    fn4 9824   3.401   3.238   1.518 -0.1838 -0.0179 -0.4264
 1267ntf    fn4 9825   3.321   3.372   1.653 -0.0393 -0.0773  0.4378
 1268ntf    cn1 9826   0.941   3.829   3.857 -0.1597  0.1010  0.2985
 1268ntf    sn2 9827   1.028   3.669   3.857 -0.0642  0.1539 -0.1379
 1268ntf    nn3 9828   1.177   3.709   3.826  0.0972 -0.2701  0.0829
 1268ntf    sn2 9829   1.247   3.733   3.687 -0.0762  0.4529  0.1165
 1268ntf    cn1 9830   1.304   3.561   3.671 -0.3808  0.3910 -0.3010
 1268ntf    fn4 9831   0.930   3.896   3.744  0.1901  0.1192  0.2735
 1268ntf    fn4 9832   0.817   3.813   3.902 -0.4685  0.3246 -0.4613
 1268ntf    fn4 9833   0.994   3.919   3.939 -0.0519  0.2738  0.0383
 1268ntf    on5 9834   1.013   3.635   3.996  0.5402  0.2625 -0.0409
 1268ntf    on5 9835   0.956   3.588   3.761 -0.4806  0.2767  0.0691
 1268ntf    on5 9836   1.154   3.749   3.579 -0.5054 -0.3181  0.3665
 1268ntf    on5 9837   1.361   3.821   3.696  0.4262 -0.2010  0.2021
 1268ntf    fn4 9838   1.201   3.479   3.676 -0.0670 -0.0099 -0.3994
 1268ntf    fn4 9839   1.385   3.531   3.771 -0.0545  0.3572 -0.5738
 1268ntf    fn4 9840   1.374   3.540   3.561  0.0286 -0.0189  0.0355
 1269ntf    cn1 9841   5.557   5.861   2.085  0.0646 -0.1534  0.1470
 1269ntf    sn2 9842   5.661   5.911   1.945  0.0695 -0.3763  0.0721
 1269ntf    nn3 9843   5.709   6.055   1.984 -0.1604 -0.2402 -0.1466
 1269ntf    sn2 9844   5.733   6.185   1.900  0.2910 -0.3706 -0.2188
 1269ntf    cn1 9845   5.915   6.189   1.904  0.2945 -0.4300 -0.3240
 1269ntf    fn4 9846   5.450   5.938   2.099  0.2466  0.1213  0.0421
 1269ntf    fn4 9847   5.508   5.740   2.068 -0.6989  0.1846 -0.1175
 1269ntf    fn4 9848   5.632   5.867   2.193  0.2461  0.6068 -0.0113
 1269ntf    on5 9849   5.766   5.812   1.946  0.0345 -0.4126  0.1405
 1269ntf    on5 9850   5.573   5.907   1.830 -0.2405 -1.1365  0.3279
 1269ntf    on5 9851   5.704   6.181   1.759  0.3091  0.0711 -0.2387
 1269ntf    on5 9852   5.691   6.304   1.971 -0.4158 -0.6051 -0.2384
 1269ntf    fn4 9853   5.970   6.174   2.024 -0.6768  0.0476  0.1899
 1269ntf    fn4 9854   5.957   6.300   1.846  0.5283 -0.3268  0.0390
 1269ntf    fn4 9855   5.957   6.086   1.833 -0.3845 -0.4862 -0.6505
 1270ntf    cn1 9856   5.128   2.886   6.486  0.2951  0.2394 -0.3994
 1270ntf    sn2 9857   5.144   2.776   6.342 -0.1302 -0.1646 -0.1394
 1270ntf    nn3 9858   5.089   2.877   6.236  0.0609 -0.0854 -0.1642
 1270ntf    sn2 9859   5.145   2.918   6.096  0.0626  0.1744 -0.0892
 1270ntf    cn1 9860   5.175   3.089   6.149 -0.2893  0.3717 -0.5197
 1270ntf    fn4 9861   5.191   3.001   6.468  0.4997  0.2480  0.3427
 1270ntf    fn4 9862   4.999   2.914   6.494  0.3197  0.3167 -0.2657
 1270ntf    fn4 9863   5.169   2.837   6.602  0.1268  0.4195 -0.2629
 1270ntf    on5 9864   5.285   2.744   6.343 -0.0142  0.3325  0.6150
 1270ntf    on5 9865   5.049   2.675   6.382 -0.2897  0.0912  0.1315
 1270ntf    on5 9866   5.268   2.855   6.052  0.2980  0.4684  0.1425
 1270ntf    on5 9867   5.033   2.925   6.006 -0.2785  0.1979  0.3361
 1270ntf    fn4 9868   5.063   3.148   6.190 -0.0140  0.2294  0.4514
 1270ntf    fn4 9869   5.235   3.164   6.059  0.1074  0.2664 -0.3412
 1270ntf    fn4 9870   5.262   3.090   6.248 -0.2576  0.1255 -0.5459
 1271ntf    cn1 9871   2.269   4.943   1.509  0.0705  0.4417  0.4508
 1271ntf    sn2 9872   2.232   5.018   1.348 -0.0999 -0.1644  0.2054
 1271ntf    nn3 9873   2.376   5.068   1.310 -0.2874 -0.2866 -0.7122
 1271ntf    sn2 9874   2.485   5.000   1.220  0.2172 -0.1539 -0.2097
 1271ntf    cn1 9875   2.450   5.093   1.068 -0.3557 -0.1193 -0.0599
 1271ntf    fn4 9876   2.352   5.028   1.568  0.3923  0.3806  0.0903
 1271ntf    fn4 9877   2.165   4.934   1.590 -0.3626  0.0644 -0.1425
 1271ntf    fn4 9878   2.336   4.829   1.506 -0.4042  0.1705 -0.0770
 1271ntf    on5 9879   2.171   4.918   1.263 -0.0461 -0.2653  0.2857
 1271ntf    on5 9880   2.151   5.134   1.375  0.5496  0.3316  0.0494
 1271ntf    on5 9881   2.616   5.043   1.261 -0.0567  0.2166  0.2983
 1271ntf    on5 9882   2.467   4.861   1.186  0.2755 -0.0982 -0.4680
 1271ntf    fn4 9883   2.434   5.018   0.960  0.3448  0.2001 -0.3877
 1271ntf    fn4 9884   2.546   5.181   1.048 -0.1722 -0.0688  0.9986
 1271ntf    fn4 9885   2.337   5.162   1.075 -0.3779 -0.1206 -0.3710
 1272ntf    cn1 9886   2.512   3.411   3.438  0.0950  0.1872 -0.1774
 1272ntf    sn2 9887   2.466   3.587   3.431 -0.3755  0.0695 -0.0919
 1272ntf    nn3 9888   2.493   3.606   3.278 -0.0058  0.5861  0.0376
 1272ntf    sn2 9889   2.394   3.644   3.162 -0.1863 -0.1604 -0.0542
 1272ntf    cn1 9890   2.448   3.817   3.146  0.0590 -0.2635 -0.3528
 1272ntf    fn4 9891   2.475   3.360   3.554  0.5363 -0.4636 -0.3148
 1272ntf    fn4 9892   2.445   3.345   3.345  0.1067  0.3894 -0.3308
 1272ntf    fn4 9893   2.634   3.371   3.408 -0.1796 -0.3307 -0.6304
 1272ntf    on5 9894   2.329   3.582   3.477 -0.0745 -0.6717  0.7542
 1272ntf    on5 9895   2.566   3.643   3.519  0.3778 -0.2818 -0.7075
 1272ntf    on5 9896   2.425   3.585   3.034 -0.0181  0.0113 -0.0937
 1272ntf    on5 9897   2.253   3.655   3.189 -0.0646 -0.7749  0.9000
 1272ntf    fn4 9898   2.383   3.884   3.053  0.1525  0.2275 -0.0662
 1272ntf    fn4 9899   2.577   3.832   3.124  0.2477 -0.0741  0.7903
 1272ntf    fn4 9900   2.440   3.879   3.263  0.3051  0.4945 -0.7360
 1273ntf    cn1 9901   2.411   6.667   1.066 -0.3738 -0.0535 -0.1196
 1273ntf    sn2 9902   2.398   6.846   1.041  0.1068 -0.0056 -0.0346
 1273ntf    nn3 9903   2.544   6.874   0.988 -0.0342 -0.4633 -0.6817
 1273ntf    sn2 9904   2.601   6.876   0.842  0.0242  0.2196 -0.6512
 1273ntf    cn1 9905   2.602   7.055   0.811  0.0759  0.3187 -0.0883
 1273ntf    fn4 9906   2.305   6.606   1.117 -0.4380  0.2146  0.0693
 1273ntf    fn4 9907   2.445   6.601   0.956  0.3635  0.2581 -0.0890
 1273ntf    fn4 9908   2.506   6.642   1.155 -0.6093 -0.1159  0.1160
 1273ntf    on5 9909   2.290   6.870   0.949  0.0817 -0.2528 -0.0695
 1273ntf    on5 9910   2.375   6.900   1.172 -0.8499 -0.0816 -0.1646
 1273ntf    on5 9911   2.741   6.840   0.833 -0.0396 -0.1659 -0.1355
 1273ntf    on5 9912   2.507   6.827   0.745 -0.1559 -0.3451 -0.1935
 1273ntf    fn4 9913   2.622   7.090   0.685 -0.2447  0.1027 -0.2001
 1273ntf    fn4 9914   2.691   7.110   0.892 -0.3645  0.4775  0.2937
 1273ntf    fn4 9915   2.481   7.097   0.847 -0.1086 -0.2138 -0.0773
 1274ntf    cn1 9916   1.054   5.686   1.216  0.2830 -0.1032 -0.1299
 1274ntf    sn2 9917   1.081   5.859   1.166 -0.0374 -0.0353 -0.0710
 1274ntf    nn3 9918   0.984   5.873   1.043 -0.0158 -0.0583 -0.0907
 1274ntf    sn2 9919   0.971   5.990   0.939 -0.3389  0.2400  0.2795
 1274ntf    cn1 9920   0.817   6.069   0.994 -0.4173  0.2851 -0.0014
 1274ntf    fn4 9921   1.132   5.646   1.315  0.0318 -0.0327  0.0976
 1274ntf    fn4 9922   0.935   5.667   1.270  0.2514 -0.0019 -0.1631
 1274ntf    fn4 9923   1.078   5.601   1.118 -0.3726  0.1231 -0.4937
 1274ntf    on5 9924   1.044   5.940   1.279 -0.1270  0.0722 -0.1775
 1274ntf    on5 9925   1.220   5.858   1.129 -0.0075  0.6568  0.0201
 1274ntf    on5 9926   1.068   6.095   0.960 -0.1671  0.1059  0.1630
 1274ntf    on5 9927   0.940   5.946   0.805  0.1672  0.5798  0.0457
 1274ntf    fn4 9928   0.777   6.165   0.913 -0.4425  0.2220 -0.0637
 1274ntf    fn4 9929   0.828   6.117   1.117  0.4745 -0.3990  0.1991
 1274ntf    fn4 9930   0.721   5.978   0.991  0.2490 -0.4464  0.5562
 1275ntf    cn1 9931   0.326   3.410   0.636 -0.5195  0.2628  0.0511
 1275ntf    sn2 9932   0.403   3.509   0.504 -0.0678 -0.0561  0.0750
 1275ntf    nn3 9933   0.416   3.646   0.581 -0.3488  0.2099 -0.3469
 1275ntf    sn2 9934   0.420   3.791   0.522  0.2730  0.2569 -0.1970
 1275ntf    cn1 9935   0.596   3.823   0.489  0.4450  0.1530  0.5886
 1275ntf    fn4 9936   0.226   3.469   0.699 -0.5457 -0.4855  0.7241
 1275ntf    fn4 9937   0.272   3.297   0.595  0.1484 -0.0681  0.0734
 1275ntf    fn4 9938   0.417   3.381   0.727 -0.1345  0.5228 -0.2491
 1275ntf    on5 9939   0.526   3.445   0.463 -0.0257 -0.3036  0.5712
 1275ntf    on5 9940   0.311   3.517   0.393  0.3062  0.3176 -0.2101
 1275ntf    on5 9941   0.364   3.819   0.393  0.4283 -0.3077 -0.3895
 1275ntf    on5 9942   0.384   3.886   0.625  0.1681 -0.0476  0.0498
 1275ntf    fn4 9943   0.610   3.929   0.411  0.8465 -0.1336  0.2630
 1275ntf    fn4 9944   0.655   3.718   0.434 -0.9269 -0.3215 -0.0369
 1275ntf    fn4 9945   0.663   3.851   0.600  0.5970  0.2514  0.4729
 1276ntf    cn1 9946   0.805   1.943   0.319 -0.0547  0.0875  0.4533
 1276ntf    sn2 9947   0.871   2.092   0.238 -0.2668  0.0606  0.2300
 1276ntf    nn3 9948   0.948   2.154   0.361  0.1471  0.3069 -0.1507
 1276ntf    sn2 9949   1.103   2.148   0.387  0.0707 -0.2190  0.1983
 1276ntf    cn1 9950   1.113   2.286   0.506  0.0744 -0.1885  0.1625
 1276ntf    fn4 9951   0.726   1.980   0.419 -0.7424  0.3597 -0.1874
 1276ntf    fn4 9952   0.739   1.856   0.246  0.4673  0.1318 -0.0832
 1276ntf    fn4 9953   0.897   1.867   0.377  0.2666 -0.4008 -0.6731
 1276ntf    on5 9954   0.957   2.050   0.130 -0.3449  0.2301  0.1012
 1276ntf    on5 9955   0.752   2.164   0.200 -0.8984 -0.9483  0.2796
 1276ntf    on5 9956   1.145   2.036   0.468  0.2222 -0.4712 -0.2247
 1276ntf    on5 9957   1.188   2.187   0.278 -0.4996  0.1917 -0.1089
 1276ntf    fn4 9958   1.220   2.278   0.584  0.0778 -0.1289  0.1637
 1276ntf    fn4 9959   1.011   2.286   0.589 -0.2425  0.5105 -0.2211
 1276ntf    fn4 9960   1.112   2.402   0.443 -0.0408 -0.1115  0.3078
 1277ntf    cn1 9961   3.474   4.917   2.288 -0.3894  0.1977  0.2229
 1277ntf    sn2 9962   3.467   5.098   2.309 -0.2150  0.1998  0.2643
 1277ntf    nn3 9963   3.371   5.135   2.190  0.5935  0.1027 -0.4339
 1277ntf    sn2 9964   3.261   5.247   2.190  0.0275 -0.4364  0.2607
 1277ntf    cn1 9965   3.118   5.161   2.260 -0.3394 -0.0923 -0.0628
 1277ntf    fn4 9966   3.523   4.887   2.169  0.0335  0.2047  0.3949
 1277ntf    fn4 9967   3.548   4.865   2.384  0.3328 -0.2776 -0.5751
 1277ntf    fn4 9968   3.353   4.864   2.280 -0.1393 -0.3728  0.2077
 1277ntf    on5 9969   3.427   5.112   2.447  0.1338 -0.0167  0.3898
 1277ntf    on5 9970   3.608   5.121   2.287 -0.2140 -0.2546 -0.2178
 1277ntf    on5 9971   3.288   5.349   2.289 -0.1093  0.4923 -0.6491
 1277ntf    on5 9972   3.206   5.285   2.063  0.6586 -0.2969  0.0256
 1277ntf    fn4 9973   3.010   5.235   2.239 -0.7156 -0.7238 -0.3941
 1277ntf    fn4 9974   3.125   5.129   2.388 -0.2911 -0.3174 -0.1208
 1277ntf    fn4 9975   3.087   5.043   2.208 -0.5306 -0.2371  0.3708
 1278ntf    cn1 9976   2.326   5.821   3.823 -0.0049  0.1185 -0.2154
 1278ntf    sn2 9977   2.326   5.642   3.787 -0.3366  0.0411  0.1571
 1278ntf    nn3 9978   2.471   5.600   3.828 -0.2730  0.0671 -0.0403
 1278ntf    sn2 9979   2.593   5.587   3.729 -0.0591  0.1298  0.2142
 1278ntf    cn1 9980   2.600   5.408   3.699 -0.2203  0.2046 -0.2712
 1278ntf    fn4 9981   2.211   5.885   3.809  0.0621  0.1983 -0.3985
 1278ntf    fn4 9982   2.365   5.840   3.948  0.0178  0.4336 -0.2702
 1278ntf    fn4 9983   2.412   5.886   3.747  0.1211 -0.1461 -0.3016
 1278ntf    on5 9984   2.223   5.595   3.876  0.0054  0.2073  0.6419
 1278ntf    on5 9985   2.287   5.625   3.649  0.3729 -0.4851  0.0206
 1278ntf    on5 9986   2.580   5.641   3.596  0.0431  0.0295  0.1633
 1278ntf    on5 9987   2.714   5.612   3.804  0.2191 -0.1260 -0.1475
 1278ntf    fn4 9988   2.663   5.377   3.586 -0.3968 -0.3423 -0.2208
 1278ntf    fn4 9989   2.480   5.353   3.691 -0.1912  0.0981  0.0323
 1278ntf    fn4 9990   2.665   5.347   3.796 -0.5726  0.6057  0.2200
 1279ntf    cn1 9991   1.891   2.623   2.000  0.1453  0.4904 -0.3654
 1279ntf    sn2 9992   1.946   2.649   1.829  0.1440  0.2039 -0.4093
 1279ntf    nn3 9993   1.972   2.498   1.794  0.6986  0.2465 -0.1949
 1279ntf    sn2 9994   1.953   2.415   1.662  0.1444  0.1999 -0.0876
 1279ntf    cn1 9995   2.085   2.496   1.568 -0.0985  0.2918 -0.3508
 1279ntf    fn4 9996   1.964   2.525   2.050  0.1407  0.1809 -0.9585
 1279ntf    fn4 9997   1.900   2.730   2.078  0.2247  0.1812  0.0510
 1279ntf    fn4 9998   1.762   2.594   2.004  0.1424  0.5541  0.1913
 1279ntf    on5 9999   1.842   2.715   1.753  0.1068  0.3921 -0.1962
 1279ntf    on510000   2.069   2.721   1.847  0.1963  0.0368 -0.0934
 1279ntf    on510001   1.994   2.280   1.693 -0.3097 -0.0615 -0.6061
 1279ntf    on510002   1.828   2.428   1.591  0.0623 -0.8023 -0.1443
 1279ntf    fn410003   2.099   2.446   1.447  0.2244 -0.3867 -0.0370
 1279ntf    fn410004   2.194   2.475   1.640 -0.1597  0.1056 -0.3126
 1279ntf    fn410005   2.072   2.628   1.562  0.1373  0.3157 -0.3557
 1280ntf    cn110006   4.503   2.944   1.455  0.4542 -0.1723 -0.2033
 1280ntf    sn210007   4.413   3.035   1.326  0.0866  0.0570  0.2149
 1280ntf    nn310008   4.356   2.911   1.249 -0.1853  0.2820  0.0511
 1280ntf    sn210009   4.423   2.844   1.124 -0.0782  0.4283  0.0300
 1280ntf    cn110010   4.422   2.669   1.174 -0.1699  0.3872 -0.1156
 1280ntf    fn410011   4.594   3.019   1.516  0.0218  0.0779  0.1381
 1280ntf    fn410012   4.428   2.897   1.554  0.3135  0.2700 -0.0982
 1280ntf    fn410013   4.560   2.841   1.395 -0.1073 -0.4271 -0.3011
 1280ntf    on510014   4.308   3.106   1.396 -0.4810 -0.3142 -0.2500
 1280ntf    on510015   4.514   3.115   1.261 -0.0694  0.0102 -0.0825
 1280ntf    on510016   4.340   2.840   1.006  0.5287 -0.4083 -0.3772
 1280ntf    on510017   4.559   2.882   1.098  0.1388 -0.5088 -0.2321
 1280ntf    fn410018   4.463   2.646   1.297  0.0417  0.6273 -0.1410
 1280ntf    fn410019   4.499   2.587   1.104  0.6437  0.2612  0.9097
 1280ntf    fn410020   4.300   2.618   1.174  0.3833 -0.9567 -0.3480
 1281ntf    cn110021   6.077   4.054   4.265  0.0212  0.0936  0.2842
 1281ntf    sn210022   6.019   3.905   4.352  0.1086 -0.1060  0.0017
 1281ntf    nn310023   5.984   3.969   4.491 -0.0647  0.1695 -0.1683
 1281ntf    sn210024   6.070   3.966   4.621  0.0652 -0.2842 -0.2644
 1281ntf    cn110025   5.969   3.845   4.712  0.0102  0.1995  0.3193
 1281ntf    fn410026   5.994   4.095   4.171 -0.0482  0.0910  0.3441
 1281ntf    fn410027   6.098   4.156   4.347 -0.0546  0.5054 -0.2056
 1281ntf    fn410028   6.196   4.039   4.209 -0.2038 -0.1446 -0.1321
 1281ntf    on510029   5.899   3.879   4.276  0.0485  0.1895 -0.0043
 1281ntf    on510030   6.130   3.814   4.343 -0.3648 -0.6338 -0.5857
 1281ntf    on510031   6.205   3.914   4.609  0.0952 -0.2359 -0.1412
 1281ntf    on510032   6.063   4.085   4.702  0.8935 -0.3293 -0.1084
 1281ntf    fn410033   6.016   3.827   4.835 -0.2480 -0.1248  0.3729
 1281ntf    fn410034   5.967   3.735   4.640  0.4915  0.4635 -0.1070
 1281ntf    fn410035   5.845   3.889   4.727 -0.1408  0.2433 -0.9943
 1282ntf    cn110036   1.241   6.618   0.195 -0.0011 -0.3087 -0.2389
 1282ntf    sn210037   1.388   6.682   0.109 -0.0374 -0.1729 -0.2006
 1282ntf    nn310038   1.325   6.786   0.010 -0.0910  0.0336  0.0496
 1282ntf    sn210039   1.291   6.785  -0.143  0.2892  0.2387 -0.0387
 1282ntf    cn110040   1.148   6.896  -0.132  0.0919  0.0354 -0.5169
 1282ntf    fn410041   1.135   6.599   0.119 -0.1255  0.5518 -0.2889
 1282ntf    fn410042   1.264   6.499   0.248  0.2227  0.1009  0.6083
 1282ntf    fn410043   1.207   6.700   0.293  0.2780  0.0242 -0.4203
 1282ntf    on510044   1.455   6.751   0.217 -0.0660  0.1422 -0.3830
 1282ntf    on510045   1.449   6.565   0.052 -0.2451 -0.4131  0.0656
 1282ntf    on510046   1.385   6.859  -0.223  0.2919 -0.1270 -0.3757
 1282ntf    on510047   1.239   6.656  -0.183  0.4219  0.2250 -0.1673
 1282ntf    fn410048   1.049   6.858  -0.053  0.6034  0.0259  0.1196
 1282ntf    fn410049   1.097   6.925  -0.251 -0.3527 -0.1008 -0.3618
 1282ntf    fn410050   1.179   7.015  -0.082 -0.5231 -0.1406  0.3136
 1283ntf    cn110051   5.451   0.341   3.838  0.1757  0.5055 -0.1705
 1283ntf    sn210052   5.309   0.327   3.726  0.1916  0.3544 -0.1715
 1283ntf    nn310053   5.382   0.369   3.593 -0.3354 -0.3070 -0.6845
 1283ntf    sn210054   5.429   0.285   3.470 -0.0964 -0.3556 -0.5614
 1283ntf    cn110055   5.266   0.232   3.410 -0.4194  0.1857 -0.1723
 1283ntf    fn410056   5.560   0.272   3.810  0.1528  0.3637  0.0887
 1283ntf    fn410057   5.489   0.466   3.862  0.5255  0.2692  0.5160
 1283ntf    fn410058   5.410   0.297   3.955 -0.2565  0.1735 -0.4420
 1283ntf    on510059   5.270   0.188   3.727  0.2195  0.3499  0.1932
 1283ntf    on510060   5.210   0.426   3.760  0.1079  0.4370 -0.6463
 1283ntf    on510061   5.476   0.365   3.360 -0.2527  0.1446 -0.2657
 1283ntf    on510062   5.505   0.166   3.500  0.1892  0.0275  0.2520
 1283ntf    fn410063   5.212   0.128   3.471 -0.4494  0.2160 -0.1472
 1283ntf    fn410064   5.269   0.206   3.280 -0.9135 -0.2253 -0.1045
 1283ntf    fn410065   5.175   0.327   3.416 -0.1392  0.4626 -0.3239
 1284ntf    cn110066   1.421   3.712   1.648 -0.2290  0.3039  0.2773
 1284ntf    sn210067   1.524   3.629   1.523 -0.1931  0.2212  0.3617
 1284ntf    nn310068   1.611   3.531   1.611 -0.3656 -0.0121  0.2742
 1284ntf    sn210069   1.637   3.377   1.596 -0.1934  0.0591 -0.1781
 1284ntf    cn110070   1.624   3.342   1.774  0.3014 -0.2008 -0.1928
 1284ntf    fn410071   1.500   3.752   1.747  0.5001  0.3387 -0.3051
 1284ntf    fn410072   1.370   3.824   1.600  0.2850  0.4390  0.0361
 1284ntf    fn410073   1.323   3.638   1.696  0.3170 -0.1815  0.6583
 1284ntf    on510074   1.419   3.569   1.444  0.4724 -0.1259 -0.2780
 1284ntf    on510075   1.590   3.742   1.463 -0.1067  0.2121  0.4385
 1284ntf    on510076   1.531   3.299   1.537 -0.3663  0.3758 -0.2892
 1284ntf    on510077   1.773   3.343   1.566 -0.2387 -0.0239 -0.2891
 1284ntf    fn410078   1.716   3.396   1.852 -0.0107  0.7450 -0.4662
 1284ntf    fn410079   1.625   3.212   1.801 -0.1801 -0.2563 -0.4302
 1284ntf    fn410080   1.508   3.385   1.821  0.2106 -0.1282 -0.4809
 1285ntf    cn110081   6.533   6.159   2.898  0.0947 -0.4637 -0.6573
 1285ntf    sn210082   6.357   6.122   2.923  0.1031 -0.0103  0.0994
 1285ntf    nn310083   6.319   6.016   2.815 -0.4280  0.0741  0.2026
 1285ntf    sn210084   6.200   6.036   2.714 -0.1125 -0.5009 -0.2901
 1285ntf    cn110085   6.192   5.879   2.622  0.6249 -0.4736 -0.4020
 1285ntf    fn410086   6.583   6.249   2.982 -0.6228 -0.3318 -0.3638
 1285ntf    fn410087   6.603   6.047   2.908  0.6101 -0.0983 -0.0738
 1285ntf    fn410088   6.558   6.203   2.776 -0.0879  0.0589 -0.5085
 1285ntf    on510089   6.356   6.064   3.055 -0.6967  0.1016  0.1434
 1285ntf    on510090   6.305   6.256   2.910  0.1995  0.0017 -0.1627
 1285ntf    on510091   6.067   6.040   2.770 -0.0732  0.0290 -0.2369
 1285ntf    on510092   6.237   6.133   2.614  0.4176 -0.2943  0.1061
 1285ntf    fn410093   6.101   5.883   2.527 -0.1619  0.5100  0.3702
 1285ntf    fn410094   6.159   5.786   2.710  0.0233  0.2882  0.1904
 1285ntf    fn410095   6.308   5.845   2.568  0.4306 -0.1720 -1.0086
 1286ntf    cn110096   1.107   2.187   1.724  0.2305 -0.1413 -0.0011
 1286ntf    sn210097   1.238   2.119   1.618  0.3822 -0.0069  0.1005
 1286ntf    nn310098   1.164   2.132   1.481  0.7294 -0.0682 -0.0947
 1286ntf    sn210099   1.196   2.212   1.349 -0.1280 -0.2482 -0.4218
 1286ntf    cn110100   1.292   2.087   1.258  0.1449 -0.1823 -0.2265
 1286ntf    fn410101   1.145   2.204   1.850 -0.6484  0.1073  0.2377
 1286ntf    fn410102   1.073   2.311   1.690  0.4199 -0.0750  0.0513
 1286ntf    fn410103   0.994   2.119   1.724 -0.1715  0.5112 -0.5552
 1286ntf    on510104   1.348   2.211   1.639  0.5970 -0.2116 -0.1289
 1286ntf    on510105   1.252   1.986   1.672  0.4036 -0.0396  0.0135
 1286ntf    on510106   1.077   2.222   1.268 -0.1774 -0.1687 -0.3393
 1286ntf    on510107   1.276   2.331   1.362 -0.1441 -0.2641 -0.1717
 1286ntf    fn410108   1.405   2.069   1.325 -0.0750 -0.1376  0.1581
 1286ntf    fn410109   1.329   2.131   1.139  0.1968 -0.1916 -0.2140
 1286ntf    fn410110   1.231   1.971   1.243 -0.2069 -0.1341  0.7199
 1287ntf    cn110111   1.477   1.139   4.894 -0.2745 -0.1327  0.3670
 1287ntf    sn210112   1.653   1.121   4.936 -0.1161  0.7304  0.0883
 1287ntf    nn310113   1.715   1.261   4.899  0.1320  0.6850  0.3299
 1287ntf    sn210114   1.780   1.310   4.764  0.0175  0.0433  0.0351
 1287ntf    cn110115   1.812   1.482   4.814  0.1948  0.0986 -0.2680
 1287ntf    fn410116   1.448   1.120   4.767  0.8094  0.1401  0.0697
 1287ntf    fn410117   1.408   1.048   4.961 -0.6134 -0.0644  0.1116
 1287ntf    fn410118   1.424   1.256   4.927 -0.0838  0.1713 -0.3806
 1287ntf    on510119   1.663   1.077   5.073 -0.4124  0.0994 -0.0889
 1287ntf    on510120   1.694   1.024   4.838 -0.6511  0.0521  0.5296
 1287ntf    on510121   1.913   1.259   4.740 -0.2460 -0.5047 -0.2784
 1287ntf    on510122   1.692   1.323   4.651  0.7961  0.3622 -0.5435
 1287ntf    fn410123   1.895   1.486   4.917 -0.0576  0.6109 -0.0792
 1287ntf    fn410124   1.700   1.541   4.851  0.1356 -0.3545  0.2975
 1287ntf    fn410125   1.859   1.555   4.714  0.2043  0.2132 -0.1796
 1288ntf    cn110126   6.106   3.045   0.621 -0.3155 -0.4446 -0.0394
 1288ntf    sn210127   6.196   2.942   0.741 -0.0204  0.2417  0.3332
 1288ntf    nn310128   6.338   2.936   0.673 -0.2127 -0.3688 -0.0213
 1288ntf    sn210129   6.464   3.015   0.723 -0.2795 -0.3121  0.0579
 1288ntf    cn110130   6.562   3.005   0.570 -0.0254 -0.4980  0.2324
 1288ntf    fn410131   6.128   2.996   0.500  0.6759 -0.3194  0.0764
 1288ntf    fn410132   5.976   3.054   0.639 -0.2818  0.0816 -0.0492
 1288ntf    fn410133   6.156   3.167   0.625 -0.0018 -0.5614 -0.3359
 1288ntf    on510134   6.193   3.021   0.862 -0.1411  0.1271  0.4044
 1288ntf    on510135   6.115   2.823   0.735  0.2695  0.0386  0.4283
 1288ntf    on510136   6.455   3.157   0.743  0.1017 -0.2891  0.0754
 1288ntf    on510137   6.547   2.946   0.819 -0.0290 -0.2504 -0.1133
 1288ntf    fn410138   6.682   3.060   0.580 -0.1265 -0.3228  0.5019
 1288ntf    fn410139   6.506   3.059   0.463  0.6416 -0.1475  0.0539
 1288ntf    fn410140   6.587   2.880   0.534  0.4807 -0.3836  0.1780
 1289ntf    cn110141   4.822   4.933   0.548 -0.0102  0.3001 -0.1008
 1289ntf    sn210142   4.895   4.935   0.715 -0.2395 -0.1233  0.0068
 1289ntf    nn310143   4.995   5.055   0.703 -0.4239  0.0077 -0.2235
 1289ntf    sn210144   5.112   5.085   0.803 -0.2091 -0.4727 -0.3257
 1289ntf    cn110145   5.079   5.264   0.813  0.0354 -0.4396 -0.1073
 1289ntf    fn410146   4.749   4.824   0.529 -0.0946  0.3509 -0.0687
 1289ntf    fn410147   4.736   5.030   0.522 -0.7050 -0.2005  0.2933
 1289ntf    fn410148   4.906   4.926   0.446  0.4994  0.1350  0.3247
 1289ntf    on510149   4.778   4.945   0.799  0.1439  0.2033  0.5063
 1289ntf    on510150   4.965   4.810   0.731  0.0993  0.1074  0.3504
 1289ntf    on510151   5.096   5.029   0.935  0.0032  0.0621 -0.0698
 1289ntf    on510152   5.238   5.077   0.734 -0.5353  0.5706 -1.0751
 1289ntf    fn410153   5.166   5.321   0.895 -0.0749 -0.1724 -0.1772
 1289ntf    fn410154   4.956   5.287   0.858  0.0723  0.3441 -0.3912
 1289ntf    fn410155   5.090   5.327   0.698 -0.7805  0.3270  0.2196
 1290ntf    cn110156   2.167   1.147   3.649 -0.1466 -0.2200 -0.1961
 1290ntf    sn210157   1.996   1.193   3.689 -0.0312  0.0589 -0.0167
 1290ntf    nn310158   2.018   1.336   3.750  0.7819 -0.3433  0.6577
 1290ntf    sn210159   1.940   1.404   3.867  0.0191  0.0102 -0.0442
 1290ntf    cn110160   1.944   1.577   3.811  0.1698  0.0111 -0.0299
 1290ntf    fn410161   2.221   1.239   3.571 -0.2445  0.1033  0.1164
 1290ntf    fn410162   2.239   1.133   3.759 -0.0592  0.5947 -0.1416
 1290ntf    fn410163   2.175   1.032   3.584  0.2185 -0.3926  0.1493
 1290ntf    on510164   1.924   1.206   3.564 -0.6921 -0.5957  0.2831
 1290ntf    on510165   1.948   1.093   3.781 -0.0422  0.4229  0.3735
 1290ntf    on510166   1.800   1.369   3.881  0.0122  0.0715  0.0424
 1290ntf    on510167   2.015   1.403   3.990  0.1144  0.4130 -0.0977
 1290ntf    fn410168   1.882   1.657   3.897  0.0991 -0.4617  0.3685
 1290ntf    fn410169   1.893   1.601   3.692 -0.7858  0.1218  0.3938
 1290ntf    fn410170   2.069   1.619   3.810  0.1699  0.0159  0.0812
 1291ntf    cn110171   4.168   2.965   5.514 -0.0997  0.4877  0.2071
 1291ntf    sn210172   4.339   2.904   5.531 -0.3036 -0.0911  0.2007
 1291ntf    nn310173   4.326   2.794   5.643  0.3380 -0.1319  0.2356
 1291ntf    sn210174   4.358   2.794   5.796 -0.1518  0.0633  0.3381
 1291ntf    cn110175   4.520   2.712   5.797 -0.0870  0.1865  0.0209
 1291ntf    fn410176   4.131   2.994   5.390  0.2742 -0.1236 -0.0517
 1291ntf    fn410177   4.085   2.872   5.556  0.1165  0.0151 -0.4000
 1291ntf    fn410178   4.133   3.067   5.591 -0.4970  0.3244  0.2418
 1291ntf    on510179   4.373   2.853   5.401  0.1952  0.3482  0.1547
 1291ntf    on510180   4.407   3.024   5.574 -1.1305  0.2439  0.6165
 1291ntf    on510181   4.370   2.924   5.858 -0.5828  0.4207 -0.3146
 1291ntf    on510182   4.275   2.706   5.875 -0.2954 -0.1996 -0.1074
 1291ntf    fn410183   4.566   2.716   5.921 -0.4041  0.2468  0.1396
 1291ntf    fn410184   4.599   2.769   5.707 -0.3911  0.1661 -0.2595
 1291ntf    fn410185   4.509   2.583   5.769 -0.5406  0.3292 -0.4897
 1292ntf    cn110186   1.092   5.398   2.552 -0.2448 -0.1161 -0.2794
 1292ntf    sn210187   1.142   5.228   2.597 -0.1905  0.0727  0.3864
 1292ntf    nn310188   1.092   5.132   2.483 -0.8909  0.3880  0.4244
 1292ntf    sn210189   1.014   4.997   2.498 -0.1179 -0.1042  0.0804
 1292ntf    cn110190   0.909   5.017   2.350  0.2747 -0.2437 -0.2164
 1292ntf    fn410191   1.122   5.422   2.426 -0.6779 -0.8971 -0.5360
 1292ntf    fn410192   0.962   5.415   2.570 -0.0581  0.3277  0.7052
 1292ntf    fn410193   1.160   5.483   2.628 -0.5765 -0.0639 -0.0394
 1292ntf    on510194   1.286   5.237   2.598 -0.2098  0.5357 -0.2373
 1292ntf    on510195   1.077   5.225   2.725 -0.8610  0.3842  0.0582
 1292ntf    on510196   1.095   4.881   2.473 -0.1951 -0.1126 -0.1331
 1292ntf    on510197   0.920   4.995   2.608  0.0206  1.1441  0.2367
 1292ntf    fn410198   0.831   4.912   2.329 -0.1607  0.0783 -0.2085
 1292ntf    fn410199   0.982   5.045   2.244  0.2326 -0.0323 -0.1882
 1292ntf    fn410200   0.824   5.117   2.363  0.3732 -0.1255 -0.4779
 1293ntf    cn110201   0.269   0.224   1.721 -0.1580 -0.0144 -0.1895
 1293ntf    sn210202   0.370   0.084   1.780 -0.0900  0.1135 -0.0017
 1293ntf    nn310203   0.349  -0.011   1.657 -0.1442 -0.2374  0.2759
 1293ntf    sn210204   0.280  -0.150   1.637 -0.2093 -0.1510 -0.1263
 1293ntf    cn110205   0.276  -0.164   1.456  0.4059  0.0425 -0.1575
 1293ntf    fn410206   0.139   0.198   1.719 -0.1277 -0.2440  0.4846
 1293ntf    fn410207   0.279   0.323   1.808  0.0228  0.2262 -0.4874
 1293ntf    fn410208   0.301   0.265   1.600 -0.0702  0.1725 -0.1026
 1293ntf    on510209   0.503   0.140   1.780 -0.2342  0.4596  0.0128
 1293ntf    on510210   0.311   0.046   1.906 -0.1799 -0.0967 -0.1068
 1293ntf    on510211   0.350  -0.267   1.685 -0.1238 -0.2007 -0.3746
 1293ntf    on510212   0.140  -0.149   1.671 -0.1789  0.1844 -0.0056
 1293ntf    fn410213   0.384  -0.132   1.386  0.4667  0.3453  0.0766
 1293ntf    fn410214   0.178  -0.087   1.411 -0.0650 -0.4727 -0.0327
 1293ntf    fn410215   0.248  -0.289   1.423 -0.2660  0.1699 -0.0909
 1294ntf    cn110216   4.233   2.425   4.163  0.2408 -0.0594  0.3072
 1294ntf    sn210217   4.078   2.440   4.258  0.1081  0.3024  0.0354
 1294ntf    nn310218   4.005   2.317   4.195 -0.5729  0.3034  0.8110
 1294ntf    sn210219   4.005   2.167   4.241 -0.1816  0.0421 -0.0176
 1294ntf    cn110220   3.876   2.158   4.368 -0.0497  0.4350  0.1466
 1294ntf    fn410221   4.311   2.531   4.178 -0.1817  0.2866  0.0870
 1294ntf    fn410222   4.307   2.317   4.184 -0.4960 -0.5630  0.3671
 1294ntf    fn410223   4.210   2.424   4.033 -0.1512 -0.1058  0.3773
 1294ntf    on510224   4.111   2.437   4.398 -0.6274 -0.4396  0.1945
 1294ntf    on510225   4.019   2.562   4.209  0.5295  0.3215 -0.4360
 1294ntf    on510226   3.952   2.081   4.138  0.1263 -0.3801  0.1738
 1294ntf    on510227   4.128   2.124   4.303  0.0942  0.9283  0.0569
 1294ntf    fn410228   3.877   2.256   4.457  0.2392  0.2316  0.3671
 1294ntf    fn410229   3.888   2.045   4.436  0.0006  0.1211 -0.3836
 1294ntf    fn410230   3.761   2.171   4.303  0.0660  0.4578 -0.0526
 1295ntf    cn110231   1.821   4.947   6.661 -0.0197 -0.0504 -0.2818
 1295ntf    sn210232   1.701   4.993   6.789  0.1495  0.0193 -0.1487
 1295ntf    nn310233   1.582   5.043   6.700  0.0382 -0.1910 -0.1187
 1295ntf    sn210234   1.443   4.983   6.658 -0.2447  0.2738  0.1516
 1295ntf    cn110235   1.428   5.070   6.499 -0.3708 -0.5583 -0.2964
 1295ntf    fn410236   1.844   5.039   6.570 -0.3105  0.0765 -0.2292
 1295ntf    fn410237   1.929   4.906   6.725  0.0512  0.6295  0.0348
 1295ntf    fn410238   1.768   4.843   6.597  0.2109 -0.0975 -0.3966
 1295ntf    on510239   1.677   4.865   6.851  0.0313 -0.3306 -0.9047
 1295ntf    on510240   1.763   5.099   6.865  0.3887 -0.4528  0.3168
 1295ntf    on510241   1.435   4.850   6.604 -0.5014  0.5500 -0.5031
 1295ntf    on510242   1.340   5.052   6.733  0.0941  0.8985  0.0488
 1295ntf    fn410243   1.533   5.055   6.419 -0.4208  0.3247 -0.5389
 1295ntf    fn410244   1.423   5.201   6.516 -0.0468 -0.6170  0.2805
 1295ntf    fn410245   1.316   5.040   6.436 -0.4651  0.5817 -0.6957
 1296ntf    cn110246   6.172   1.773   3.119  0.4060 -0.0687  0.4526
 1296ntf    sn210247   6.002   1.818   3.165  0.3078  0.1266 -0.0912
 1296ntf    nn310248   5.958   1.897   3.037  0.3040 -0.1398 -0.2563
 1296ntf    sn210249   5.855   1.865   2.923  0.0322  0.0333 -0.0621
 1296ntf    cn110250   5.699   1.882   3.014  0.0737 -0.1173  0.0365
 1296ntf    fn410251   6.177   1.702   3.008  0.2468 -0.2739  0.5761
 1296ntf    fn410252   6.249   1.880   3.105 -0.4453  0.5332  0.2658
 1296ntf    fn410253   6.215   1.696   3.217  0.8619 -0.7615 -0.2817
 1296ntf    on510254   5.940   1.690   3.191  0.4367  0.0868  0.0215
 1296ntf    on510255   6.011   1.901   3.282 -0.4976  0.2670 -0.1220
 1296ntf    on510256   5.849   1.972   2.826 -0.2476  0.2760  0.2215
 1296ntf    on510257   5.842   1.730   2.874 -0.1407 -0.2060  0.6420
 1296ntf    fn410258   5.664   1.775   3.084 -0.0262 -0.1177 -0.0137
 1296ntf    fn410259   5.598   1.908   2.932 -0.1068 -0.4130  0.1620
 1296ntf    fn410260   5.702   1.972   3.111  0.1668  0.2143 -0.2715
 1297ntf    cn110261   5.662   1.882   2.569 -0.2582 -0.0073 -0.3199
 1297ntf    sn210262   5.725   2.025   2.476  0.0218 -0.0062 -0.1293
 1297ntf    nn310263   5.792   1.951   2.355 -0.2701  0.2693 -0.4628
 1297ntf    sn210264   5.935   1.893   2.325 -0.1274  0.4336 -0.0979
 1297ntf    cn110265   5.880   1.753   2.224 -0.0845  0.2337  0.1538
 1297ntf    fn410266   5.591   1.922   2.673  0.2769 -0.0480  0.0630
 1297ntf    fn410267   5.585   1.804   2.495 -0.0936  0.0919 -0.5976
 1297ntf    fn410268   5.761   1.809   2.617 -0.4919 -0.0776  0.0624
 1297ntf    on510269   5.603   2.089   2.433 -0.1484 -0.0321  0.3125
 1297ntf    on510270   5.820   2.092   2.562  0.0018  0.1189 -0.2045
 1297ntf    on510271   6.014   1.972   2.234  0.1201  0.3073  0.0066
 1297ntf    on510272   5.992   1.823   2.437 -0.6573 -0.3833 -0.3325
 1297ntf    fn410273   5.980   1.700   2.155 -0.1962  0.0157  0.1615
 1297ntf    fn410274   5.792   1.794   2.134 -0.1949 -0.5304 -0.0945
 1297ntf    fn410275   5.825   1.651   2.287  0.2242 -0.0636 -0.0567
 1298ntf    cn110276   0.100   2.906   4.237 -0.3013  0.0627  0.1995
 1298ntf    sn210277   0.270   2.877   4.293 -0.2857 -0.3071 -0.0336
 1298ntf    nn310278   0.273   2.956   4.429 -0.4384 -0.2673 -0.0537
 1298ntf    sn210279   0.256   2.904   4.576  0.5488 -0.0993  0.1268
 1298ntf    cn110280   0.362   3.023   4.663 -0.2050  0.3431  0.4507
 1298ntf    fn410281   0.084   3.026   4.184 -0.5724 -0.0394  0.0478
 1298ntf    fn410282   0.073   2.813   4.147 -0.2457 -0.3164  0.5671
 1298ntf    fn410283   0.009   2.883   4.331 -1.1263  0.3593 -0.5092
 1298ntf    on510284   0.268   2.734   4.301 -0.2690 -0.2858  0.3980
 1298ntf    on510285   0.340   2.943   4.185 -0.1269  0.4452  0.5133
 1298ntf    on510286   0.129   2.942   4.632  0.4599 -0.2138  0.0049
 1298ntf    on510287   0.317   2.777   4.609  0.1580 -0.1344  0.7262
 1298ntf    fn410288   0.361   3.016   4.795 -0.1732  0.0014  0.4353
 1298ntf    fn410289   0.334   3.151   4.644 -0.3894  0.3433  0.7180
 1298ntf    fn410290   0.488   3.008   4.627 -0.3868 -0.0180 -0.0518
 1299ntf    cn110291   4.774   1.640   1.756  0.5347  0.0869  0.4953
 1299ntf    sn210292   4.667   1.586   1.620  0.3253  0.6270  0.4441
 1299ntf    nn310293   4.576   1.484   1.697  0.2338  0.0816 -0.3751
 1299ntf    sn210294   4.604   1.344   1.763 -0.4671  0.0091 -0.2226
 1299ntf    cn110295   4.498   1.241   1.657 -0.2204 -0.3360 -0.1344
 1299ntf    fn410296   4.863   1.727   1.710  0.2625 -0.2317 -0.6694
 1299ntf    fn410297   4.714   1.708   1.853 -0.3169 -0.3301  0.2679
 1299ntf    fn410298   4.847   1.542   1.807  0.5357 -0.2014 -0.0514
 1299ntf    on510299   4.598   1.709   1.590  0.1260  0.3774 -0.1287
 1299ntf    on510300   4.749   1.530   1.515 -0.2813  1.0456 -0.2676
 1299ntf    on510301   4.737   1.295   1.741 -0.2731  0.5655 -0.3149
 1299ntf    on510302   4.540   1.323   1.890  0.0696 -0.2789  0.0013
 1299ntf    fn410303   4.524   1.261   1.528  0.0073  0.3754  0.0193
 1299ntf    fn410304   4.372   1.270   1.681  0.0945  0.6219  0.4225
 1299ntf    fn410305   4.515   1.111   1.677 -0.5860 -0.3693 -0.0413
 1300ntf    cn110306   1.669   6.264   3.241 -0.5191 -0.2477  0.4623
 1300ntf    sn210307   1.770   6.300   3.387  0.2234  0.3786 -0.1960
 1300ntf    nn310308   1.907   6.327   3.315  0.3224  0.3421 -0.0243
 1300ntf    sn210309   2.013   6.215   3.287  0.1379  0.1727 -0.0431
 1300ntf    cn110310   2.136   6.262   3.412  0.3278 -0.1148 -0.1209
 1300ntf    fn410311   1.703   6.151   3.181  0.6563  0.2508  0.1763
 1300ntf    fn410312   1.544   6.260   3.285 -0.6119  0.0209  0.2295
 1300ntf    fn410313   1.678   6.355   3.145 -0.1914 -0.5434  0.2128
 1300ntf    on510314   1.716   6.419   3.447 -0.1366  0.0344  0.1689
 1300ntf    on510315   1.757   6.181   3.468 -0.5566  0.4599 -0.1936
 1300ntf    on510316   1.990   6.078   3.328  0.0200  0.0733 -0.4406
 1300ntf    on510317   2.077   6.242   3.161  0.2418 -0.5930 -0.1644
 1300ntf    fn410318   2.245   6.190   3.392  0.3224  0.0001 -0.6068
 1300ntf    fn410319   2.102   6.252   3.539 -0.3132  0.1012 -0.2705
 1300ntf    fn410320   2.171   6.388   3.388 -0.3649  0.0693 -0.1810
 1301ntf    cn110321   3.493   5.551   6.684 -0.6123  0.2093 -0.2471
 1301ntf    sn210322   3.581   5.708   6.710 -0.2065 -0.0952  0.2270
 1301ntf    nn310323   3.701   5.674   6.805  0.2360  0.6036 -0.0774
 1301ntf    sn210324   3.709   5.694   6.961 -0.0937  0.1262  0.0025
 1301ntf    cn110325   3.785   5.859   6.971 -0.4521  0.3019 -0.1369
 1301ntf    fn410326   3.577   5.470   6.621 -0.1480  0.3650  0.1712
 1301ntf    fn410327   3.456   5.496   6.798 -0.5893  0.3402 -0.1768
 1301ntf    fn410328   3.384   5.568   6.611 -0.5270 -0.0262 -0.4282
 1301ntf    on510329   3.631   5.738   6.578 -0.1681 -0.4228  0.1669
 1301ntf    on510330   3.474   5.791   6.759 -0.0320  0.5815 -0.5136
 1301ntf    on510331   3.582   5.696   7.029 -0.0961 -0.4718  0.0180
 1301ntf    on510332   3.805   5.603   7.018 -0.0650  0.2450  0.1437
 1301ntf    fn410333   3.703   5.963   6.975 -0.5052  0.2510  0.1211
 1301ntf    fn410334   3.865   5.891   6.871  0.1064  0.2941  0.2974
 1301ntf    fn410335   3.861   5.863   7.080 -0.0264 -0.8136 -0.3789
 1302ntf    cn110336   1.956   6.227   0.468  0.2217  0.4753  0.2887
 1302ntf    sn210337   1.857   6.375   0.505 -0.0542  0.3244  0.1614
 1302ntf    nn310338   1.709   6.327   0.487  0.0175  0.1347  0.0698
 1302ntf    sn210339   1.582   6.357   0.575  0.0238 -0.0746  0.1527
 1302ntf    cn110340   1.463   6.414   0.449  0.0764 -0.1365  0.0743
 1302ntf    fn410341   2.082   6.240   0.505  0.3431 -0.6704  0.3279
 1302ntf    fn410342   1.914   6.110   0.513 -0.5597  0.4159 -0.5586
 1302ntf    fn410343   1.962   6.210   0.337 -0.1045 -0.3930  0.3744
 1302ntf    on510344   1.898   6.416   0.637  0.1790  0.2281  0.1200
 1302ntf    on510345   1.895   6.462   0.397 -0.1095  0.3743  0.1830
 1302ntf    on510346   1.533   6.232   0.627 -0.5336  0.2925  0.5195
 1302ntf    on510347   1.587   6.457   0.678 -0.4433 -0.2514  0.3495
 1302ntf    fn410348   1.442   6.326   0.353  0.1142 -0.2062  0.1289
 1302ntf    fn410349   1.510   6.526   0.398 -0.2880 -0.0540 -0.0844
 1302ntf    fn410350   1.343   6.429   0.502  0.1988 -0.3522  0.4176
 1303ntf    cn110351   2.854   3.681   2.448  0.3485 -0.1096 -0.2752
 1303ntf    sn210352   2.886   3.785   2.594 -0.0274 -0.0800 -0.2133
 1303ntf    nn310353   2.785   3.901   2.561 -0.2994 -0.1670  0.3021
 1303ntf    sn210354   2.632   3.918   2.592 -0.3666 -0.0612 -0.0873
 1303ntf    cn110355   2.641   4.084   2.665  0.2554 -0.1367  0.0117
 1303ntf    fn410356   2.910   3.719   2.334 -0.1176  0.5377 -0.2992
 1303ntf    fn410357   2.899   3.559   2.473  0.0328 -0.1572  0.0676
 1303ntf    fn410358   2.725   3.676   2.420  0.2115  0.2218  0.2812
 1303ntf    on510359   2.862   3.709   2.715  0.3443  0.3387  0.1269
 1303ntf    on510360   3.023   3.830   2.587 -0.0061 -0.1977 -0.5477
 1303ntf    on510361   2.556   3.944   2.472 -0.5746 -0.3298 -0.0143
 1303ntf    on510362   2.565   3.839   2.692  0.3592 -0.6651 -0.0725
 1303ntf    fn410363   2.731   4.096   2.761  0.2616  0.4870 -0.0626
 1303ntf    fn410364   2.526   4.128   2.714  0.2839  0.2449 -0.2572
 1303ntf    fn410365   2.682   4.171   2.574 -0.4853  0.2356  0.0209
 1304ntf    cn110366   2.941   0.677   3.627  0.4398  0.5385  0.4080
 1304ntf    sn210367   2.877   0.547   3.517  0.1236  0.3733  0.7840
 1304ntf    nn310368   3.011   0.487   3.462 -0.5809 -0.3095 -0.2193
 1304ntf    sn210369   3.074   0.489   3.318 -0.0841  0.1972 -0.0012
 1304ntf    cn110370   2.968   0.372   3.227  0.4272 -0.4484  0.2256
 1304ntf    fn410371   2.981   0.787   3.565  0.1051  0.6914  0.4606
 1304ntf    fn410372   2.842   0.709   3.708 -0.0453  0.1985 -0.0460
 1304ntf    fn410373   3.032   0.619   3.702  0.5115 -0.1416 -0.1952
 1304ntf    on510374   2.803   0.454   3.599 -0.4222 -0.2569 -0.3941
 1304ntf    on510375   2.790   0.607   3.419  0.4110 -0.0733  0.2496
 1304ntf    on510376   3.063   0.608   3.238 -0.0253 -0.2111 -0.6315
 1304ntf    on510377   3.208   0.436   3.325  0.1507  0.7336 -0.3203
 1304ntf    fn410378   2.842   0.412   3.215  0.6801  0.2223 -0.2530
 1304ntf    fn410379   2.949   0.253   3.281  0.0049 -0.5360 -0.1106
 1304ntf    fn410380   3.006   0.352   3.102 -0.4079 -0.1009 -0.0863
 1305ntf    cn110381   3.402   2.025   6.591 -0.1333  0.1417 -0.0564
 1305ntf    sn210382   3.529   1.986   6.716 -0.0749  0.3458 -0.0522
 1305ntf    nn310383   3.472   2.072   6.835  0.1460  0.0572  0.2620
 1305ntf    sn210384   3.473   2.228   6.854 -0.1075  0.0936 -0.0123
 1305ntf    cn110385   3.590   2.239   6.993 -0.1655 -0.1923  0.0616
 1305ntf    fn410386   3.397   2.150   6.549 -0.1150  0.1088 -0.1571
 1305ntf    fn410387   3.428   1.959   6.479 -0.2606  0.4212 -0.2521
 1305ntf    fn410388   3.284   1.981   6.631  0.3482 -0.5587  0.6154
 1305ntf    on510389   3.521   1.848   6.755  0.2182  0.3387 -0.0198
 1305ntf    on510390   3.656   2.031   6.666  0.0261  0.0568 -0.0564
 1305ntf    on510391   3.528   2.301   6.743 -0.1562  0.4920  0.2227
 1305ntf    on510392   3.354   2.277   6.919 -0.4209 -0.4582 -0.1566
 1305ntf    fn410393   3.590   2.351   7.064 -0.2514 -0.0443 -0.1688
 1305ntf    fn410394   3.712   2.230   6.942 -0.1823 -0.0247 -0.0106
 1305ntf    fn410395   3.576   2.135   7.073  0.3056 -0.4617 -0.1983
 1306ntf    cn110396   0.096   2.163   6.182 -0.4038 -0.2858  0.0557
 1306ntf    sn210397   0.025   2.171   6.015  0.1851 -0.2376 -0.1956
 1306ntf    nn310398   0.050   2.320   5.972  0.2618  0.1826  1.2565
 1306ntf    sn210399  -0.052   2.439   5.975 -0.0579 -0.0526  0.0792
 1306ntf    cn110400  -0.114   2.458   5.805 -0.0101 -0.0119  0.0664
 1306ntf    fn410401   0.042   2.250   6.266 -0.0761  0.0711 -0.1001
 1306ntf    fn410402   0.087   2.047   6.244 -0.0045 -0.3490 -0.0032
 1306ntf    fn410403   0.225   2.194   6.182 -0.5082  0.1517  0.2551
 1306ntf    on510404   0.100   2.069   5.945  0.1842 -0.3727 -0.0010
 1306ntf    on510405  -0.117   2.150   6.032  0.1505  0.1357 -0.0178
 1306ntf    on510406  -0.170   2.432   6.057 -0.5614  0.4188 -0.5942
 1306ntf    on510407   0.023   2.560   5.998  0.0348 -0.1006  0.0334
 1306ntf    fn410408  -0.173   2.347   5.765  0.0787  0.2385 -0.7935
 1306ntf    fn410409  -0.015   2.473   5.718  0.0324 -0.9435 -0.0529
 1306ntf    fn410410  -0.200   2.558   5.793  0.0304 -0.0270 -0.3754
 1307ntf    cn110411   4.309   0.739   1.598  0.0187  0.2469  0.2845
 1307ntf    sn210412   4.271   0.644   1.448 -0.3013  0.2096  0.3892
 1307ntf    nn310413   4.411   0.599   1.395 -0.5247  0.1434 -0.1599
 1307ntf    sn210414   4.495   0.634   1.267 -0.2350 -0.1721 -0.0594
 1307ntf    cn110415   4.590   0.766   1.346  0.2647 -0.5579 -0.0128
 1307ntf    fn410416   4.313   0.868   1.570  0.0513  0.1505 -0.1722
 1307ntf    fn410417   4.224   0.720   1.698 -0.3605 -0.8284 -0.2231
 1307ntf    fn410418   4.424   0.699   1.650 -0.1340 -0.3274  0.1868
 1307ntf    on510419   4.192   0.531   1.492  0.0433 -0.1801  0.0144
 1307ntf    on510420   4.191   0.728   1.362 -0.1040  0.1282  0.1263
 1307ntf    on510421   4.596   0.536   1.237  0.2953  0.2687  0.2760
 1307ntf    on510422   4.433   0.702   1.156 -0.1435  0.5857  0.3521
 1307ntf    fn410423   4.694   0.810   1.276  0.1329 -0.0170  0.1232
 1307ntf    fn410424   4.644   0.731   1.462  0.4542  0.5621  0.2528
 1307ntf    fn410425   4.517   0.874   1.371 -0.1006 -0.8764  0.3146
 1308ntf    cn110426   0.007   3.340   6.418  0.0785  0.0377 -0.2848
 1308ntf    sn210427  -0.075   3.287   6.570  0.3532  0.1527 -0.0944
 1308ntf    nn310428  -0.223   3.321   6.530  0.2021 -0.0799  0.2482
 1308ntf    sn210429  -0.324   3.409   6.610  0.2605  0.3044 -0.0943
 1308ntf    cn110430  -0.293   3.575   6.541  0.5507  0.1507 -0.3301
 1308ntf    fn410431   0.135   3.363   6.445 -0.0881  0.0833  0.4760
 1308ntf    fn410432   0.001   3.242   6.329 -0.1336 -0.4285  0.2414
 1308ntf    fn410433  -0.038   3.454   6.367 -0.7053  0.0217  0.3585
 1308ntf    on510434  -0.047   3.145   6.577 -0.2663  0.0187 -0.2366
 1308ntf    on510435  -0.006   3.371   6.664 -0.7637  0.2629  0.6433
 1308ntf    on510436  -0.459   3.382   6.568  0.1374  0.5819  0.1136
 1308ntf    on510437  -0.293   3.434   6.749  0.1080 -0.3226  0.0529
 1308ntf    fn410438  -0.380   3.659   6.593 -0.0495 -0.3083 -0.5801
 1308ntf    fn410439  -0.301   3.570   6.409 -0.1547 -0.5068 -0.2716
 1308ntf    fn410440  -0.176   3.626   6.577  0.6430 -0.3556  0.1237
 1309ntf    cn110441   6.212   0.502   4.902  0.3129 -0.3934  0.3283
 1309ntf    sn210442   6.293   0.389   4.785  0.1207 -0.0150 -0.1737
 1309ntf    nn310443   6.404   0.314   4.866  0.2754 -0.7501 -1.0442
 1309ntf    sn210444   6.386   0.188   4.959  0.0841  0.0614  0.0439
 1309ntf    cn110445   6.408   0.274   5.118  0.1287 -0.0708  0.1092
 1309ntf    fn410446   6.304   0.587   4.945  0.1155 -0.0068 -0.0040
 1309ntf    fn410447   6.111   0.567   4.847  0.5060 -0.7649 -0.4887
 1309ntf    fn410448   6.170   0.437   5.009  0.4834 -0.1611  0.5374
 1309ntf    on510449   6.192   0.297   4.740 -0.1406 -0.0205  0.4258
 1309ntf    on510450   6.348   0.480   4.687 -0.4482  0.1890 -0.3084
 1309ntf    on510451   6.256   0.131   4.984 -0.1442  0.5284 -0.0531
 1309ntf    on510452   6.500   0.099   4.954  0.2663  0.3170 -0.4202
 1309ntf    fn410453   6.518   0.347   5.124 -0.1091  0.2856  0.1376
 1309ntf    fn410454   6.396   0.196   5.224 -0.3442 -0.1855 -0.0240
 1309ntf    fn410455   6.308   0.360   5.130 -0.2427 -0.4589 -0.1220
 1310ntf    cn110456   4.239   5.664   1.033  0.1465 -0.0878 -0.3037
 1310ntf    sn210457   4.335   5.663   0.879  0.2229  0.1886 -0.2583
 1310ntf    nn310458   4.446   5.556   0.910 -0.1744 -0.1607 -0.0228
 1310ntf    sn210459   4.596   5.584   0.946 -0.1633 -0.2259 -0.0166
 1310ntf    cn110460   4.634   5.435   1.042  0.6280 -0.0171  0.0004
 1310ntf    fn410461   4.147   5.759   1.033  0.2867  0.0490 -0.1317
 1310ntf    fn410462   4.163   5.557   1.054 -0.1081  0.1878  0.2026
 1310ntf    fn410463   4.314   5.686   1.140 -0.0718 -0.3920 -0.0852
 1310ntf    on510464   4.232   5.623   0.786  0.4058 -0.6562 -0.1062
 1310ntf    on510465   4.392   5.795   0.867  0.0028  0.3677  0.5865
 1310ntf    on510466   4.677   5.582   0.827  0.1269  0.2718  0.1696
 1310ntf    on510467   4.613   5.687   1.046 -0.4628 -0.7299  0.5592
 1310ntf    fn410468   4.595   5.460   1.166  0.4135 -0.0054 -0.0696
 1310ntf    fn410469   4.764   5.411   1.043  0.6175 -0.0719  0.2958
 1310ntf    fn410470   4.574   5.325   0.999  0.3722  0.4069 -0.7311
 1311ntf    cn110471   2.157   5.204   4.932  0.0923  0.2081  0.1478
 1311ntf    sn210472   2.075   5.182   5.093 -0.2899  0.1776 -0.0506
 1311ntf    nn310473   2.158   5.279   5.185 -0.5433 -0.0563  0.4272
 1311ntf    sn210474   2.184   5.261   5.339  0.5861 -0.6054  0.1789
 1311ntf    cn110475   2.359   5.212   5.331  0.8198  0.2365  0.0719
 1311ntf    fn410476   2.198   5.090   4.880 -0.4832  0.3027 -0.5121
 1311ntf    fn410477   2.079   5.267   4.846  0.1846  0.0680 -0.0394
 1311ntf    fn410478   2.266   5.277   4.952  0.1502  0.1209  0.1508
 1311ntf    on510479   1.940   5.230   5.088 -0.3545 -0.0499 -0.5618
 1311ntf    on510480   2.094   5.041   5.120 -0.3830  0.1918  0.0884
 1311ntf    on510481   2.196   5.390   5.402 -0.1272 -0.5847  0.2743
 1311ntf    on510482   2.125   5.148   5.406 -0.1557 -0.1179  0.3512
 1311ntf    fn410483   2.438   5.299   5.270  0.1782  0.4866 -0.4160
 1311ntf    fn410484   2.377   5.095   5.273  0.3289 -0.1802  0.7456
 1311ntf    fn410485   2.407   5.204   5.455  0.4939 -0.4337  0.1580
 1312ntf    cn110486   1.836   5.687   2.450 -0.2787  0.1089 -0.0327
 1312ntf    sn210487   1.897   5.858   2.446  0.1810 -0.0426  0.4668
 1312ntf    nn310488   1.932   5.877   2.294 -0.4100  0.1622  0.3565
 1312ntf    sn210489   1.852   5.951   2.181 -0.1695  0.0977  0.1429
 1312ntf    cn110490   1.962   6.089   2.137 -0.0865 -0.0674 -0.1688
 1312ntf    fn410491   1.763   5.659   2.557  0.6816 -0.8291  0.3967
 1312ntf    fn410492   1.762   5.658   2.344 -0.2548 -0.4354  0.0991
 1312ntf    fn410493   1.932   5.596   2.449 -0.0082  0.3913  0.1114
 1312ntf    on510494   1.787   5.937   2.496 -0.0983 -0.2153  0.1281
 1312ntf    on510495   2.012   5.860   2.533  0.6306 -0.2127 -0.1125
 1312ntf    on510496   1.831   5.866   2.066  0.3200  0.0654  0.0774
 1312ntf    on510497   1.734   6.020   2.226 -0.0852  0.1277  0.3161
 1312ntf    fn410498   2.006   6.169   2.232 -0.2233 -0.3181  0.1099
 1312ntf    fn410499   1.894   6.173   2.060  0.4312  0.0848 -0.4613
 1312ntf    fn410500   2.072   6.048   2.076 -0.1617 -0.1044 -0.2799
 1313ntf    cn110501   4.353   2.579   6.547  0.2035 -0.2213  0.1111
 1313ntf    sn210502   4.253   2.618   6.401  0.1489  0.5320  0.3482
 1313ntf    nn310503   4.149   2.724   6.453 -0.4846  0.0477  0.0728
 1313ntf    sn210504   4.171   2.874   6.492  0.2410 -0.1282  0.3481
 1313ntf    cn110505   4.005   2.948   6.484  0.2836 -0.0044  0.6009
 1313ntf    fn410506   4.425   2.677   6.599 -0.1461  0.1246 -0.0496
 1313ntf    fn410507   4.275   2.521   6.637 -0.0318  0.0208  0.0626
 1313ntf    fn410508   4.440   2.482   6.523  0.1176 -0.2408 -0.1242
 1313ntf    on510509   4.354   2.669   6.311 -0.5125 -0.2537 -0.8617
 1313ntf    on510510   4.203   2.487   6.368  0.0821  0.5001  0.5731
 1313ntf    on510511   4.201   2.896   6.632  0.4518  0.2785  0.2386
 1313ntf    on510512   4.244   2.942   6.388  0.0161  0.3190  0.4828
 1313ntf    fn410513   3.940   2.897   6.381 -0.0841  0.7037  0.4773
 1313ntf    fn410514   4.013   3.078   6.462 -0.3054 -0.1808 -0.7397
 1313ntf    fn410515   3.934   2.917   6.592 -0.4850 -0.1316  0.0645
 1314ntf    cn110516   6.583   3.167   3.128 -0.0972  0.1059 -0.0695
 1314ntf    sn210517   6.557   2.988   3.106  0.3433  0.0910 -0.4988
 1314ntf    nn310518   6.695   2.933   3.057  0.5310 -0.4781  0.6293
 1314ntf    sn210519   6.729   2.818   2.956  0.2275  0.2643 -0.3343
 1314ntf    cn110520   6.871   2.737   3.034 -0.5791 -0.2839  0.5838
 1314ntf    fn410521   6.685   3.177   3.212 -0.0183  0.2504 -0.1821
 1314ntf    fn410522   6.610   3.239   3.020 -0.1118  0.2866  0.0470
 1314ntf    fn410523   6.476   3.225   3.181 -0.2740 -0.4404  0.1752
 1314ntf    on510524   6.525   2.942   3.239 -0.0369  0.8818 -0.3086
 1314ntf    on510525   6.450   2.991   3.009 -0.0115  0.2866 -0.1050
 1314ntf    on510526   6.632   2.711   2.944  0.0951  0.4045 -0.5157
 1314ntf    on510527   6.788   2.867   2.834  0.7950 -0.0469 -0.1869
 1314ntf    fn410528   6.852   2.712   3.163 -0.3979  0.3108  0.7267
 1314ntf    fn410529   6.981   2.810   3.030 -0.3384 -0.6687  0.1396
 1314ntf    fn410530   6.899   2.618   2.982 -0.6046  0.1638 -0.4608
 1315ntf    cn110531   1.606   0.508   1.088  0.2520  0.3662  0.2828
 1315ntf    sn210532   1.528   0.650   1.171 -0.0054  0.2472  0.2460
 1315ntf    nn310533   1.548   0.614   1.322  0.4464 -0.1000  0.1057
 1315ntf    sn210534   1.522   0.716   1.438  0.1075 -0.0996  0.0279
 1315ntf    cn110535   1.350   0.762   1.399  0.0972 -0.2060 -0.0495
 1315ntf    fn410536   1.737   0.498   1.102  0.2464  0.2979  0.2882
 1315ntf    fn410537   1.556   0.396   1.137  0.2954  0.2147 -0.0199
 1315ntf    fn410538   1.583   0.513   0.958 -0.0373  0.5734  0.3404
 1315ntf    on510539   1.598   0.761   1.110 -0.2353  0.1246 -0.2489
 1315ntf    on510540   1.391   0.641   1.129  0.0197  0.2286  0.1660
 1315ntf    on510541   1.509   0.653   1.567  0.1186  0.1548  0.1540
 1315ntf    on510542   1.600   0.837   1.434 -0.1047  0.0342 -0.1012
 1315ntf    fn410543   1.268   0.662   1.370 -0.4420  0.1330  0.2862
 1315ntf    fn410544   1.350   0.853   1.303  0.0681  0.4773  0.5880
 1315ntf    fn410545   1.290   0.825   1.498  0.3324  0.2952 -0.2258
 1316ntf    cn110546   1.881   3.548   3.013 -0.0038  0.0815  0.1301
 1316ntf    sn210547   1.711   3.604   3.042 -0.0573  0.1551 -0.3177
 1316ntf    nn310548   1.680   3.499   3.154 -0.3305  0.3545 -0.2044
 1316ntf    sn210549   1.662   3.345   3.130  0.4188  0.2528 -0.1237
 1316ntf    cn110550   1.561   3.307   3.276  0.1261  0.0418 -0.3772
 1316ntf    fn410551   1.953   3.629   2.937 -0.3260  0.0538 -0.2083
 1316ntf    fn410552   1.945   3.546   3.128  0.4035 -0.3541 -0.0978
 1316ntf    fn410553   1.884   3.430   2.953  0.1532  0.0464  0.2065
 1316ntf    on510554   1.737   3.734   3.098 -0.2921  0.0313  0.0859
 1316ntf    on510555   1.627   3.592   2.925  0.0150 -0.3277 -0.3224
 1316ntf    on510556   1.572   3.296   3.028  0.4722 -0.4483  0.1618
 1316ntf    on510557   1.782   3.266   3.141  0.1558 -0.1421 -0.0585
 1316ntf    fn410558   1.454   3.385   3.281 -0.0387 -0.2131  0.1176
 1316ntf    fn410559   1.627   3.319   3.390 -0.0649 -0.1568 -0.2448
 1316ntf    fn410560   1.513   3.184   3.283  0.1992  0.0268 -0.1225
 1317ntf    cn110561   0.364   6.636   0.967 -0.0101 -0.0691  0.0955
 1317ntf    sn210562   0.517   6.730   0.938 -0.0386 -0.0805 -0.0982
 1317ntf    nn310563   0.618   6.638   1.015 -0.2271 -0.2413 -0.0417
 1317ntf    sn210564   0.689   6.666   1.153 -0.3179 -0.4510  0.0472
 1317ntf    cn110565   0.850   6.728   1.098 -0.4549  0.1207  0.2871
 1317ntf    fn410566   0.260   6.694   0.910 -0.0132 -0.1475  0.0198
 1317ntf    fn410567   0.373   6.512   0.922 -0.3542 -0.1255  0.1827
 1317ntf    fn410568   0.337   6.616   1.094  0.5701 -0.0304  0.2314
 1317ntf    on510569   0.529   6.723   0.795 -0.5680 -0.1668 -0.1392
 1317ntf    on510570   0.493   6.861   0.995 -0.3917 -0.0292 -0.3598
 1317ntf    on510571   0.627   6.765   1.237  0.0100 -0.2050  0.0016
 1317ntf    on510572   0.719   6.543   1.222 -0.4440 -0.2329  0.4915
 1317ntf    fn410573   0.900   6.656   0.998 -0.1736  0.0300  0.4918
 1317ntf    fn410574   0.946   6.738   1.189 -0.2562 -0.4331  0.1409
 1317ntf    fn410575   0.843   6.853   1.053  0.4499 -0.1007 -0.5200
 1318ntf    cn110576   0.162   0.893   3.028  0.0922 -0.3352 -0.1605
 1318ntf    sn210577   0.152   0.816   3.193  0.0538  0.0881  0.0345
 1318ntf    nn310578   0.302   0.806   3.236  0.0702 -0.2071 -0.0927
 1318ntf    sn210579   0.360   0.710   3.347  0.1489  0.0265  0.0692
 1318ntf    cn110580   0.404   0.563   3.249  0.3225  0.0222  0.1528
 1318ntf    fn410581   0.223   1.010   3.027 -0.5917  0.0213 -0.0180
 1318ntf    fn410582   0.244   0.820   2.954  0.1947 -0.0041 -0.3722
 1318ntf    fn410583   0.048   0.908   2.964 -0.0816  0.1255  0.2528
 1318ntf    on510584   0.077   0.913   3.270 -0.5237 -0.1174 -0.2665
 1318ntf    on510585   0.094   0.686   3.170 -0.0061 -0.0822  1.1036
 1318ntf    on510586   0.490   0.755   3.392  0.1944  0.0025 -0.0380
 1318ntf    on510587   0.267   0.665   3.448  0.1781 -0.1192  0.0313
 1318ntf    fn410588   0.506   0.583   3.167  0.1511  0.1519 -0.0311
 1318ntf    fn410589   0.300   0.516   3.182  0.0989 -0.3248  0.7383
 1318ntf    fn410590   0.442   0.460   3.322  0.3480  0.0628  0.1966
 1319ntf    cn110591   1.081   2.781   2.712 -0.4279  0.3752 -0.1791
 1319ntf    sn210592   0.947   2.901   2.691 -0.5639  0.2694  0.0805
 1319ntf    nn310593   0.820   2.810   2.703  0.0211 -0.7007 -0.9235
 1319ntf    sn210594   0.672   2.842   2.661 -0.0664  0.4453  0.2228
 1319ntf    cn110595   0.663   2.738   2.513 -0.6476  0.6298  0.1264
 1319ntf    fn410596   1.196   2.842   2.684 -0.2072  0.0618  0.0369
 1319ntf    fn410597   1.083   2.748   2.840  0.1126 -0.0807 -0.2977
 1319ntf    fn410598   1.077   2.675   2.633 -0.6066 -0.2454  0.6477
 1319ntf    on510599   0.968   2.990   2.802 -0.3374 -0.2813  0.4818
 1319ntf    on510600   0.975   2.947   2.557 -0.5417  0.8292  0.2745
 1319ntf    on510601   0.566   2.786   2.741  0.2179  0.0292  0.3082
 1319ntf    on510602   0.641   2.977   2.619 -0.1345  0.5773  0.6914
 1319ntf    fn410603   0.786   2.729   2.465 -0.4965 -0.0484  0.6308
 1319ntf    fn410604   0.598   2.785   2.408 -0.2052  0.2803 -0.3107
 1319ntf    fn410605   0.612   2.620   2.546  0.3294  0.1534 -0.0528
 1320ntf    cn110606   3.081   2.462   1.891 -0.2477 -0.1408 -0.3030
 1320ntf    sn210607   3.046   2.388   1.729 -0.2828  0.0287 -0.3731
 1320ntf    nn310608   3.015   2.239   1.766 -0.1130  0.0725 -0.0543
 1320ntf    sn210609   3.103   2.120   1.713 -0.1543 -0.0691  0.1945
 1320ntf    cn110610   3.026   1.979   1.799 -0.0261 -0.2996 -0.0683
 1320ntf    fn410611   3.115   2.590   1.884  0.0975 -0.2334 -0.3432
 1320ntf    fn410612   2.977   2.460   1.973 -0.1239  0.3039 -0.1286
 1320ntf    fn410613   3.176   2.404   1.961 -0.3732 -0.6940 -0.5875
 1320ntf    on510614   2.923   2.454   1.696 -0.5018  0.2182  0.8094
 1320ntf    on510615   3.163   2.421   1.650  0.2759 -1.1690 -0.0624
 1320ntf    on510616   3.089   2.088   1.573 -0.2462  0.3570  0.1070
 1320ntf    on510617   3.238   2.119   1.763 -0.1035  0.0433  0.0568
 1320ntf    fn410618   3.089   1.868   1.766  0.1606 -0.1445 -0.2351
 1320ntf    fn410619   2.896   1.963   1.777 -0.0371  0.2375 -0.4227
 1320ntf    fn410620   3.032   1.997   1.930 -0.5946 -0.6407  0.0118
 1321ntf    cn110621   3.844   4.446   0.513  0.0584  0.4432  0.1361
 1321ntf    sn210622   3.666   4.465   0.545  0.0187  0.0680  0.1411
 1321ntf    nn310623   3.634   4.604   0.479  0.1699  0.0292 -0.0157
 1321ntf    sn210624   3.532   4.708   0.538  0.0141  0.1191 -0.4356
 1321ntf    cn110625   3.647   4.793   0.651 -0.1986 -0.3321  0.1265
 1321ntf    fn410626   3.924   4.550   0.534  0.6601 -0.1125  0.6428
 1321ntf    fn410627   3.903   4.353   0.586  0.1663 -0.1602 -0.7003
 1321ntf    fn410628   3.865   4.405   0.389  0.3165 -0.0490  0.3401
 1321ntf    on510629   3.612   4.354   0.471  0.4340  0.1003 -0.2172
 1321ntf    on510630   3.667   4.458   0.689  0.0518  0.6245  0.1693
 1321ntf    on510631   3.490   4.811   0.446 -0.5977 -0.2614 -0.5879
 1321ntf    on510632   3.439   4.650   0.631  0.5361 -0.0382 -0.0036
 1321ntf    fn410633   3.749   4.839   0.580 -0.0995 -0.1925  0.3604
 1321ntf    fn410634   3.703   4.709   0.737  0.0043 -0.2033  0.1202
 1321ntf    fn410635   3.596   4.893   0.721  0.5149 -0.0070  0.1863
 1322ntf    cn110636   3.957   3.605   0.214  0.2487  0.3601 -0.1307
 1322ntf    sn210637   3.816   3.552   0.314  0.1368  0.0080 -0.4720
 1322ntf    nn310638   3.715   3.529   0.196 -0.0631 -0.4274 -0.2186
 1322ntf    sn210639   3.559   3.539   0.198 -0.0812 -0.6833 -0.2484
 1322ntf    cn110640   3.501   3.388   0.281 -0.4844 -0.3494  0.0835
 1322ntf    fn410641   4.024   3.704   0.272  0.2138  0.3164 -0.0162
 1322ntf    fn410642   4.050   3.518   0.179 -0.0690 -0.0865  0.1311
 1322ntf    fn410643   3.910   3.645   0.096 -0.0201 -0.0699 -0.1703
 1322ntf    on510644   3.861   3.433   0.383 -0.0744  0.0886 -0.1933
 1322ntf    on510645   3.789   3.673   0.388 -0.1710 -0.2165 -0.2114
 1322ntf    on510646   3.516   3.644   0.287  1.0565 -0.5441  0.1537
 1322ntf    on510647   3.487   3.543   0.073 -0.3837 -0.1860 -0.0653
 1322ntf    fn410648   3.558   3.375   0.400 -0.4350  0.8426  0.2098
 1322ntf    fn410649   3.534   3.273   0.226 -0.5798 -0.3691  0.0675
 1322ntf    fn410650   3.371   3.393   0.304 -0.5359 -0.2550 -0.2340
 1323ntf    cn110651   5.840   5.391   4.746  0.1715 -0.1025 -0.0353
 1323ntf    sn210652   5.957   5.342   4.615  0.2286 -0.1277  0.0246
 1323ntf    nn310653   5.865   5.300   4.496 -0.4536 -0.1724  0.5581
 1323ntf    sn210654   5.782   5.168   4.477 -0.0168 -0.3672 -0.0202
 1323ntf    cn110655   5.898   5.063   4.383 -0.2437 -0.3415 -0.3292
 1323ntf    fn410656   5.897   5.445   4.853 -0.2004 -0.3888  0.3092
 1323ntf    fn410657   5.758   5.477   4.688  0.3801  0.2908  0.2420
 1323ntf    fn410658   5.760   5.293   4.782 -0.4229  0.5146  0.3491
 1323ntf    on510659   6.022   5.469   4.592  0.0775 -0.0848 -0.1627
 1323ntf    on510660   6.037   5.243   4.682 -0.3349 -0.2451  0.5336
 1323ntf    on510661   5.753   5.093   4.596 -0.2967 -0.1236  0.0656
 1323ntf    on510662   5.675   5.181   4.381  0.2180  0.6928 -0.1530
 1323ntf    fn410663   5.829   4.970   4.319  0.1409 -0.7844 -0.1025
 1323ntf    fn410664   5.984   5.005   4.464 -0.3040 -0.4571 -0.3471
 1323ntf    fn410665   5.964   5.134   4.293  0.0750  0.0021  0.1729
 1324ntf    cn110666   6.356   0.278   0.220  0.1243  0.1481 -0.0204
 1324ntf    sn210667   6.306   0.103   0.209 -0.1480  0.2180  0.0786
 1324ntf    nn310668   6.394   0.041   0.324 -0.7451 -0.4539  0.1805
 1324ntf    sn210669   6.471  -0.096   0.336 -0.1707 -0.1527  0.0114
 1324ntf    cn110670   6.619  -0.072   0.234 -0.0275 -0.1631  0.2167
 1324ntf    fn410671   6.321   0.331   0.336  0.1506  0.0931  0.0126
 1324ntf    fn410672   6.487   0.288   0.209  0.1028  0.0997 -0.3408
 1324ntf    fn410673   6.308   0.353   0.122  0.1280  0.2776  0.0767
 1324ntf    on510674   6.166   0.107   0.243 -0.1821 -0.4816  0.0389
 1324ntf    on510675   6.340   0.074   0.072 -0.8405  0.4422 -0.1411
 1324ntf    on510676   6.518  -0.119   0.470  0.3228  0.7941  0.0083
 1324ntf    on510677   6.406  -0.209   0.275 -0.1762 -0.2165  0.1350
 1324ntf    fn410678   6.692  -0.182   0.228  0.0854 -0.0669 -0.1839
 1324ntf    fn410679   6.692   0.025   0.286 -0.2702  0.0518  0.1527
 1324ntf    fn410680   6.589  -0.035   0.111  0.2750  0.8528  0.4455
 1325ntf    cn110681   4.396   4.232   5.731 -0.0080  0.1139  0.1752
 1325ntf    sn210682   4.244   4.284   5.644 -0.0522 -0.2731  0.0199
 1325ntf    nn310683   4.232   4.170   5.537 -0.2929 -0.4998  0.2844
 1325ntf    sn210684   4.180   4.181   5.389  0.1030 -0.0985  0.1715
 1325ntf    cn110685   4.000   4.159   5.409  0.1325 -0.0672  0.4783
 1325ntf    fn410686   4.503   4.238   5.653 -0.1683  0.7480 -0.0034
 1325ntf    fn410687   4.418   4.310   5.835 -0.3329 -0.3752  0.6146
 1325ntf    fn410688   4.381   4.108   5.774  0.5983  0.1160  0.3916
 1325ntf    on510689   4.138   4.278   5.742  0.0427 -0.7931  0.0935
 1325ntf    on510690   4.280   4.416   5.600 -0.3852 -0.2218 -0.1045
 1325ntf    on510691   4.181   4.312   5.328 -0.8000 -0.1273  0.0798
 1325ntf    on510692   4.211   4.067   5.307  0.2983  0.2157 -0.1985
 1325ntf    fn410693   3.950   4.248   5.493 -0.7726 -0.0554 -0.0544
 1325ntf    fn410694   3.964   4.037   5.444  0.7068 -0.6077 -0.7413
 1325ntf    fn410695   3.936   4.170   5.294 -0.4842 -0.7663  0.7525
 1326ntf    cn110696   1.130   5.775   1.898 -0.0500 -0.0913  0.0429
 1326ntf    sn210697   0.982   5.853   1.969  0.0075  0.2084 -0.1636
 1326ntf    nn310698   1.037   5.996   2.002  0.2645  0.0809 -0.0434
 1326ntf    sn210699   1.034   6.122   1.909  0.0801  0.0097 -0.1343
 1326ntf    cn110700   1.197   6.187   1.957  0.2373 -0.0482 -0.5857
 1326ntf    fn410701   1.241   5.806   1.965 -0.3293  0.2046  0.3760
 1326ntf    fn410702   1.124   5.644   1.914  0.0545 -0.1055 -0.0317
 1326ntf    fn410703   1.149   5.800   1.770 -0.4146  0.1031  0.0278
 1326ntf    on510704   0.889   5.835   1.860 -0.4629  0.1417  0.2422
 1326ntf    on510705   0.948   5.773   2.084 -0.0516 -0.2409 -0.4905
 1326ntf    on510706   1.036   6.092   1.768 -0.2628  0.0697 -0.1525
 1326ntf    on510707   0.947   6.221   1.967  0.0023  0.2584 -0.6739
 1326ntf    fn410708   1.190   6.232   2.081  0.0880 -0.3675 -0.4766
 1326ntf    fn410709   1.229   6.299   1.895  0.0955  0.2047 -0.2037
 1326ntf    fn410710   1.293   6.096   1.962  0.0315 -0.2034  0.8783
 1327ntf    cn110711   5.582   2.359   0.537  0.1445  0.0349  0.0988
 1327ntf    sn210712   5.500   2.490   0.441  0.0604 -0.1750 -0.1171
 1327ntf    nn310713   5.619   2.592   0.439  0.0741 -0.1937 -0.2605
 1327ntf    sn210714   5.639   2.705   0.331  0.3035  0.0968  0.0801
 1327ntf    cn110715   5.631   2.856   0.430  0.4470  0.1160  0.0627
 1327ntf    fn410716   5.694   2.314   0.483 -0.3146 -0.8159 -0.1638
 1327ntf    fn410717   5.620   2.400   0.656  0.5946 -0.5254  0.1522
 1327ntf    fn410718   5.504   2.255   0.558  0.0015  0.0900 -0.1488
 1327ntf    on510719   5.464   2.418   0.321  0.9799 -1.2724  0.2557
 1327ntf    on510720   5.389   2.532   0.523  0.1722 -0.1774  0.0355
 1327ntf    on510721   5.772   2.697   0.276  0.1841 -0.1951 -0.1730
 1327ntf    on510722   5.533   2.717   0.233  0.6483  0.1591 -0.2883
 1327ntf    fn410723   5.708   2.853   0.537  0.0568 -0.5103  0.3325
 1327ntf    fn410724   5.509   2.886   0.473  0.4731  0.0566  0.1796
 1327ntf    fn410725   5.670   2.962   0.361  0.3726 -0.2360 -0.5214
 1328ntf    cn110726   6.116   3.949   2.764  0.0734  0.3225  0.1561
 1328ntf    sn210727   6.013   3.925   2.913 -0.2923 -0.0904 -0.1598
 1328ntf    nn310728   5.978   3.773   2.906 -0.1498 -0.1118 -0.4416
 1328ntf    sn210729   5.852   3.702   2.968  0.0235  0.0636  0.1214
 1328ntf    cn110730   5.739   3.706   2.825  0.0629  0.2166  0.0948
 1328ntf    fn410731   6.147   4.077   2.750  0.5076  0.1392 -0.5663
 1328ntf    fn410732   6.228   3.881   2.782  0.2340  0.5298 -0.0703
 1328ntf    fn410733   6.062   3.917   2.648 -0.0970  0.4350  0.2041
 1328ntf    on510734   6.110   3.946   3.018 -0.8827  0.6117  0.2541
 1328ntf    on510735   5.912   4.024   2.884  0.6706  1.0409  0.2372
 1328ntf    on510736   5.889   3.564   2.984 -0.6730 -0.0362  0.9312
 1328ntf    on510737   5.783   3.770   3.074  0.1928  0.2211  0.1315
 1328ntf    fn410738   5.766   3.804   2.740  0.1359  0.0977 -0.0195
 1328ntf    fn410739   5.611   3.720   2.858  0.0149 -0.0786  0.0299
 1328ntf    fn410740   5.743   3.612   2.732 -0.3355  0.1460  0.1490
 1329ntf    cn110741   2.440   0.867   5.155  0.3262  0.2530 -0.3828
 1329ntf    sn210742   2.462   1.031   5.080 -0.0831  0.3739 -0.2385
 1329ntf    nn310743   2.600   1.076   5.138 -0.2198  0.6527 -0.1270
 1329ntf    sn210744   2.743   1.064   5.074 -0.1467  0.0398  0.1419
 1329ntf    cn110745   2.859   1.099   5.210 -0.2460 -0.2458  0.3016
 1329ntf    fn410746   2.470   0.868   5.284  0.2479  0.3357 -0.3650
 1329ntf    fn410747   2.318   0.818   5.149  0.3367  0.2377 -0.4624
 1329ntf    fn410748   2.517   0.778   5.093  0.0166  0.0229 -0.4378
 1329ntf    on510749   2.463   0.999   4.939  0.2706 -0.1850 -0.1114
 1329ntf    on510750   2.354   1.116   5.124 -0.0697  0.1194  0.2920
 1329ntf    on510751   2.782   0.935   5.023  0.6621  0.1825  0.3880
 1329ntf    on510752   2.770   1.172   4.983  0.3029 -0.1817  0.0106
 1329ntf    fn410753   2.976   1.126   5.155 -0.5103  0.0156 -0.1453
 1329ntf    fn410754   2.876   0.999   5.294 -0.5212 -0.1258  0.5014
 1329ntf    fn410755   2.822   1.207   5.276 -0.3182 -0.3165  0.3760
 1330ntf    cn110756   5.829   1.047   2.729  0.0230 -0.1785 -0.1977
 1330ntf    sn210757   5.667   1.115   2.773  0.1590 -0.0286  0.0717
 1330ntf    nn310758   5.635   1.056   2.915  0.1625  0.4094  0.2565
 1330ntf    sn210759   5.569   0.918   2.951  0.1867  0.3983  0.2575
 1330ntf    cn110760   5.397   0.975   2.971  0.0464  0.0789 -0.0253
 1330ntf    fn410761   5.925   1.126   2.775 -0.0680  0.1750 -0.6127
 1330ntf    fn410762   5.853   0.923   2.770  0.6771  0.0575  0.1487
 1330ntf    fn410763   5.849   1.059   2.599  0.5778  0.2618 -0.0716
 1330ntf    on510764   5.694   1.257   2.779  0.0817 -0.0196  0.2168
 1330ntf    on510765   5.583   1.069   2.665  0.2412 -0.4276  0.1753
 1330ntf    on510766   5.555   0.825   2.842  0.5661  0.0260  0.5246
 1330ntf    on510767   5.616   0.864   3.075  0.3063  0.1496  0.1047
 1330ntf    fn410768   5.310   0.884   3.012 -0.2506  0.3507 -0.0457
 1330ntf    fn410769   5.349   1.030   2.861  0.3605  0.1787 -0.1155
 1330ntf    fn410770   5.409   1.074   3.058  0.1637  0.1273 -0.0961
 1331ntf    cn110771   4.638   1.535   2.835 -0.0867 -0.0137 -0.5666
 1331ntf    sn210772   4.724   1.539   2.675  0.4186  0.0523 -0.2951
 1331ntf    nn310773   4.777   1.686   2.692 -0.1998  0.2444 -0.0146
 1331ntf    sn210774   4.845   1.778   2.585  0.0490  0.2808  0.1709
 1331ntf    cn110775   4.989   1.836   2.678  0.2757  0.3260 -0.2038
 1331ntf    fn410776   4.726   1.543   2.934 -0.4794  0.3775 -0.2456
 1331ntf    fn410777   4.555   1.638   2.843  0.3401  0.2970 -0.1141
 1331ntf    fn410778   4.572   1.422   2.853 -0.5397  0.3611  0.1729
 1331ntf    on510779   4.834   1.448   2.692 -0.0354 -0.4722 -0.1481
 1331ntf    on510780   4.622   1.520   2.575 -0.1197  0.5192  0.1522
 1331ntf    on510781   4.907   1.706   2.477  0.2191  0.6436  0.0242
 1331ntf    on510782   4.758   1.890   2.556  0.6911  0.7680  0.1089
 1331ntf    fn410783   4.955   1.897   2.791  0.3590  0.1354 -0.0743
 1331ntf    fn410784   5.062   1.920   2.607 -0.2946  0.4512 -0.6474
 1331ntf    fn410785   5.067   1.735   2.712 -0.2545 -0.0187 -0.0044
 1332ntf    cn110786   5.907   3.645   0.688  0.2973  0.1173 -0.0276
 1332ntf    sn210787   5.850   3.566   0.841  0.1887  0.0905 -0.0818
 1332ntf    nn310788   5.860   3.677   0.951  0.2447  0.2290 -0.2258
 1332ntf    sn210789   5.878   3.671   1.107 -0.1034 -0.1039 -0.1972
 1332ntf    cn110790   6.040   3.589   1.121  0.0300  0.1253 -0.3965
 1332ntf    fn410791   6.039   3.658   0.681  0.3063 -0.1570 -0.3559
 1332ntf    fn410792   5.873   3.579   0.579 -0.3793 -0.8020  0.7258
 1332ntf    fn410793   5.859   3.768   0.672  0.3415  0.1311 -0.0533
 1332ntf    on510794   5.711   3.533   0.822  0.1147  0.2338  0.2195
 1332ntf    on510795   5.927   3.445   0.854  0.3426  0.2262  0.2674
 1332ntf    on510796   5.908   3.801   1.161  0.7218 -0.3609 -0.0173
 1332ntf    on510797   5.780   3.589   1.174  0.0659  0.1526  0.3709
 1332ntf    fn410798   6.041   3.457   1.119 -0.2405  0.1194 -0.1798
 1332ntf    fn410799   6.107   3.627   1.227  0.6052 -0.1406 -0.6601
 1332ntf    fn410800   6.120   3.625   1.022  0.2378 -0.3427 -0.4009
 1333ntf    cn110801   0.294   5.744   2.383 -0.3964  0.4501  0.1931
 1333ntf    sn210802   0.449   5.738   2.477  0.0175  0.1275 -0.4998
 1333ntf    nn310803   0.513   5.602   2.432 -0.7994 -0.2646 -0.4919
 1333ntf    sn210804   0.519   5.469   2.514 -0.2245  0.1331  0.1186
 1333ntf    cn110805   0.668   5.390   2.446 -0.2483  0.2143 -0.0282
 1333ntf    fn410806   0.228   5.855   2.414  0.0455  0.7363  0.1237
 1333ntf    fn410807   0.316   5.755   2.253 -0.3600  0.0636  0.1678
 1333ntf    fn410808   0.208   5.647   2.407  0.1098 -0.0537 -0.0089
 1333ntf    on510809   0.522   5.854   2.431 -0.1814  0.4510 -0.0112
 1333ntf    on510810   0.398   5.753   2.612  0.5193  0.0569 -0.3005
 1333ntf    on510811   0.537   5.477   2.657 -0.4222 -0.1311  0.1590
 1333ntf    on510812   0.417   5.375   2.475 -0.0960  0.2279 -0.4423
 1333ntf    fn410813   0.757   5.484   2.419 -0.1227 -0.1247 -0.8051
 1333ntf    fn410814   0.651   5.321   2.334 -1.1215  0.2328  0.0876
 1333ntf    fn410815   0.725   5.306   2.531  0.1005  0.8507  0.3740
 1334ntf    cn110816   4.433   3.281   0.585  0.2811 -0.4393  0.0303
 1334ntf    sn210817   4.438   3.438   0.493  0.0766 -0.2380  0.3618
 1334ntf    nn310818   4.472   3.550   0.598  0.1240 -0.0439  0.1414
 1334ntf    sn210819   4.616   3.608   0.625  0.0539  0.1312  0.1434
 1334ntf    cn110820   4.579   3.773   0.692 -0.4160  0.1186 -0.0760
 1334ntf    fn410821   4.347   3.281   0.685  0.5037 -0.1699  0.2237
 1334ntf    fn410822   4.390   3.189   0.500  0.1910 -0.0243 -0.3780
 1334ntf    fn410823   4.551   3.243   0.631  0.3436 -0.1732  0.0959
 1334ntf    on510824   4.542   3.402   0.400  0.2978  0.3517  0.3701
 1334ntf    on510825   4.306   3.462   0.440  0.5200  0.1527 -0.5860
 1334ntf    on510826   4.669   3.548   0.745 -0.3550 -0.7254 -0.0938
 1334ntf    on510827   4.705   3.630   0.514 -0.0960 -0.9486 -0.2070
 1334ntf    fn410828   4.692   3.832   0.727 -0.3167 -0.1398  0.0436
 1334ntf    fn410829   4.503   3.769   0.800 -0.5536  0.3198 -0.1661
 1334ntf    fn410830   4.516   3.856   0.611  0.0925 -0.0697 -0.6810
 1335ntf    cn110831   4.679   2.675   2.423  0.1375 -0.2042  0.3830
 1335ntf    sn210832   4.696   2.524   2.523  0.3989 -0.4752 -0.0666
 1335ntf    nn310833   4.740   2.407   2.429 -0.3699 -0.7934 -0.0352
 1335ntf    sn210834   4.883   2.344   2.413  0.1657  0.5180 -0.4852
 1335ntf    cn110835   4.974   2.455   2.301  0.7640  0.4060 -0.1145
 1335ntf    fn410836   4.563   2.739   2.428  0.2604  0.0278  0.2865
 1335ntf    fn410837   4.771   2.767   2.447 -0.0823  0.1597 -0.1453
 1335ntf    fn410838   4.698   2.643   2.296 -0.1058  0.4675  0.1743
 1335ntf    on510839   4.796   2.560   2.621  0.5257 -0.3586 -0.2376
 1335ntf    on510840   4.560   2.514   2.569  0.2737 -0.2802 -0.3916
 1335ntf    on510841   4.962   2.346   2.534 -0.1987  0.2593 -0.2427
 1335ntf    on510842   4.881   2.221   2.338  0.4317 -0.2165  0.6847
 1335ntf    fn410843   5.099   2.414   2.287  0.8765  0.8235 -0.3376
 1335ntf    fn410844   4.965   2.582   2.338 -0.6711  0.2340  0.1843
 1335ntf    fn410845   4.929   2.452   2.176 -0.4050  0.0620  0.3006
 1336ntf    cn110846   5.324   3.026   4.464 -0.0531  0.3101  0.3538
 1336ntf    sn210847   5.150   2.984   4.436  0.0921  0.1136 -0.2777
 1336ntf    nn310848   5.130   3.024   4.286 -0.8824  0.2225 -0.1284
 1336ntf    sn210849   5.079   2.934   4.167 -0.0681 -0.1535 -0.2012
 1336ntf    cn110850   5.236   2.857   4.116  0.1730  0.2498 -0.0749
 1336ntf    fn410851   5.355   3.154   4.447  0.6225  0.1077  0.0074
 1336ntf    fn410852   5.368   3.010   4.588  0.4318 -0.4977  0.0818
 1336ntf    fn410853   5.409   2.958   4.388 -0.2491 -0.2432  0.6278
 1336ntf    on510854   5.146   2.842   4.464  0.2436 -0.0273 -0.9670
 1336ntf    on510855   5.068   3.075   4.512 -0.4384 -0.3575 -0.2745
 1336ntf    on510856   4.992   2.827   4.205  0.5099 -0.4602  0.2779
 1336ntf    on510857   5.028   3.010   4.055 -0.3574 -0.4567 -0.2740
 1336ntf    fn410858   5.218   2.768   4.019 -0.2945 -0.0965  0.3292
 1336ntf    fn410859   5.295   2.791   4.213 -0.2197  0.1116  0.0714
 1336ntf    fn410860   5.329   2.946   4.083  0.3471  0.1690  0.1949
 1337ntf    cn110861   0.538   1.214   4.659  0.0611 -0.2795 -0.2047
 1337ntf    sn210862   0.650   1.293   4.539  0.0665  0.1451  0.0749
 1337ntf    nn310863   0.666   1.437   4.599  0.3889  0.0635  0.1872
 1337ntf    sn210864   0.717   1.572   4.537  0.0583 -0.1404 -0.5436
 1337ntf    cn110865   0.888   1.575   4.598 -0.1023 -0.1647 -0.0903
 1337ntf    fn410866   0.417   1.269   4.663 -0.0396 -0.5537  0.4980
 1337ntf    fn410867   0.519   1.087   4.627 -0.0284 -0.3758  0.2288
 1337ntf    fn410868   0.591   1.223   4.779 -0.0663  0.6352 -0.2044
 1337ntf    on510869   0.774   1.222   4.555 -0.2277 -0.2931  0.4306
 1337ntf    on510870   0.578   1.288   4.413  0.5529  0.5141 -0.2220
 1337ntf    on510871   0.723   1.570   4.393 -0.4444  0.1439 -0.5677
 1337ntf    on510872   0.656   1.684   4.603  0.6298 -0.1868  0.0691
 1337ntf    fn410873   0.949   1.692   4.587  0.0192 -0.2135  0.0549
 1337ntf    fn410874   0.970   1.495   4.532  0.0912  0.6467 -0.8508
 1337ntf    fn410875   0.899   1.554   4.728 -1.0808  0.2507  0.0683
 1338ntf    cn110876   5.517   6.551   4.957 -0.3014  0.0458  0.0138
 1338ntf    sn210877   5.451   6.664   4.831 -0.0221 -0.0517 -0.2188
 1338ntf    nn310878   5.335   6.730   4.913 -0.1305  0.4894 -0.7989
 1338ntf    sn210879   5.193   6.674   4.949  0.1167  0.3883  0.0393
 1338ntf    cn110880   5.219   6.661   5.128 -0.0495  0.2212  0.0525
 1338ntf    fn410881   5.438   6.446   4.969 -0.3512  0.0887  0.0702
 1338ntf    fn410882   5.637   6.507   4.924 -0.2026  0.2533  0.0897
 1338ntf    fn410883   5.529   6.605   5.078  0.6135  0.4193 -0.2306
 1338ntf    on510884   5.561   6.750   4.795 -0.0508 -0.1560 -0.5583
 1338ntf    on510885   5.416   6.563   4.733 -0.8664  0.2676 -0.2493
 1338ntf    on510886   5.084   6.768   4.944  0.3284  0.5980 -0.6851
 1338ntf    on510887   5.166   6.535   4.920 -0.3973  0.5147 -0.0975
 1338ntf    fn410888   5.116   6.593   5.175  0.3533  0.1018  0.7920
 1338ntf    fn410889   5.225   6.762   5.214  0.2369  0.5006 -0.2936
 1338ntf    fn410890   5.326   6.590   5.159 -0.4595 -0.3032  0.2855
 1339ntf    cn110891   1.196   3.857   2.776 -0.2250 -0.1442  0.4078
 1339ntf    sn210892   1.050   3.754   2.745 -0.2495 -0.1011  0.3796
 1339ntf    nn310893   0.939   3.865   2.736  0.1641  0.3033  0.2442
 1339ntf    sn210894   0.873   3.935   2.612  0.3005  0.0527  0.0293
 1339ntf    cn110895   0.720   3.838   2.605  0.3697 -0.0828  0.3907
 1339ntf    fn410896   1.212   3.946   2.680 -0.2238 -0.4269  0.1455
 1339ntf    fn410897   1.180   3.925   2.889 -0.1830 -0.2091  0.4532
 1339ntf    fn410898   1.311   3.792   2.786  0.0339  0.2030 -0.2412
 1339ntf    on510899   1.089   3.686   2.624  0.0379  0.3566  0.2133
 1339ntf    on510900   1.047   3.679   2.869  0.7018 -0.4425  0.1981
 1339ntf    on510901   0.828   4.067   2.649 -0.1424 -0.1943  0.3874
 1339ntf    on510902   0.931   3.917   2.481 -0.0261 -0.3504 -0.0620
 1339ntf    fn410903   0.635   3.883   2.515  0.6047  0.5075  0.4650
 1339ntf    fn410904   0.654   3.844   2.720  0.0037 -0.4204  0.2029
 1339ntf    fn410905   0.739   3.709   2.580  0.0994 -0.0439 -0.0185
 1340ntf    cn110906   2.076   5.766   4.494 -0.1748 -0.1202 -0.4386
 1340ntf    sn210907   1.994   5.706   4.645 -0.1183 -0.0040 -0.3608
 1340ntf    nn310908   1.901   5.829   4.674 -0.1227 -0.1383  0.1920
 1340ntf    sn210909   1.762   5.871   4.615 -0.1227 -0.1083  0.2118
 1340ntf    cn110910   1.802   6.029   4.535  0.0522 -0.2767 -0.0381
 1340ntf    fn410911   2.001   5.765   4.385 -0.1271  0.0574 -0.4730
 1340ntf    fn410912   2.114   5.891   4.515 -0.4661 -0.1093  0.0458
 1340ntf    fn410913   2.181   5.695   4.455 -0.0454 -0.2547  0.1435
 1340ntf    on510914   1.927   5.585   4.604 -0.1305  0.0166 -0.4031
 1340ntf    on510915   2.110   5.699   4.730 -0.2270  0.0287 -0.2117
 1340ntf    on510916   1.724   5.782   4.507 -0.0271  0.0827  0.0188
 1340ntf    on510917   1.667   5.904   4.718 -0.4023  0.2982 -0.1745
 1340ntf    fn410918   1.915   6.019   4.467 -0.0147  0.7063 -0.3091
 1340ntf    fn410919   1.817   6.135   4.613  0.4249 -0.6536  0.4042
 1340ntf    fn410920   1.709   6.069   4.450 -0.2418 -0.0233  0.3979
 1341ntf    cn110921   4.768   2.278   4.112 -0.1480 -0.1762 -0.1571
 1341ntf    sn210922   4.825   2.112   4.158  0.1499 -0.0102  0.0797
 1341ntf    nn310923   4.976   2.108   4.115  0.0782 -0.1200 -0.1627
 1341ntf    sn210924   5.032   2.049   3.981  0.0941 -0.3291 -0.0643
 1341ntf    cn110925   5.210   2.076   4.004  0.0403  0.0073 -0.0452
 1341ntf    fn410926   4.851   2.367   4.166 -0.0554 -0.4390  0.1350
 1341ntf    fn410927   4.768   2.291   3.980  0.4020 -0.0237 -0.1459
 1341ntf    fn410928   4.647   2.301   4.161 -0.2486 -0.0084 -0.4796
 1341ntf    on510929   4.822   2.110   4.302  0.2403 -0.1551  0.0793
 1341ntf    on510930   4.740   2.017   4.091 -0.4239  0.6941 -0.2083
 1341ntf    on510931   5.017   1.906   3.972 -0.5321 -0.3027  0.4392
 1341ntf    on510932   5.007   2.123   3.860  0.1549 -0.4589 -0.1561
 1341ntf    fn410933   5.275   2.020   3.904  0.0815 -0.1853  0.0890
 1341ntf    fn410934   5.261   2.022   4.114  0.4195 -0.2552 -0.3479
 1341ntf    fn410935   5.247   2.203   4.001 -0.3969  0.1328 -0.1056
 1342ntf    cn110936   5.943   5.936   6.395 -0.2235  0.0963 -0.2137
 1342ntf    sn210937   6.101   5.950   6.306 -0.2221 -0.1156 -0.2456
 1342ntf    nn310938   6.152   6.089   6.360  0.3610 -0.5208  0.2539
 1342ntf    sn210939   6.267   6.175   6.297  0.0094 -0.2608 -0.0374
 1342ntf    cn110940   6.394   6.166   6.427 -0.3154 -0.0473  0.2960
 1342ntf    fn410941   5.871   6.047   6.385 -0.0016  0.2010 -0.6645
 1342ntf    fn410942   5.870   5.834   6.351 -0.1822 -0.2121  0.4324
 1342ntf    fn410943   5.963   5.918   6.524 -0.2537  0.2708 -0.1842
 1342ntf    on510944   6.168   5.835   6.360  0.1296  0.2796  0.1765
 1342ntf    on510945   6.067   5.956   6.166 -0.4235 -0.0526 -0.1951
 1342ntf    on510946   6.330   6.125   6.177 -0.4054 -0.1452 -0.3024
 1342ntf    on510947   6.239   6.316   6.303  0.3581 -0.2101  0.4413
 1342ntf    fn410948   6.344   6.193   6.547 -0.1515  0.1088  0.3285
 1342ntf    fn410949   6.503   6.236   6.402  0.0280 -0.7418 -0.1898
 1342ntf    fn410950   6.430   6.039   6.439  0.4447  0.1195 -0.1415
 1343ntf    cn110951   1.881   6.286   5.063  0.3178 -0.0816  0.1400
 1343ntf    sn210952   1.699   6.293   5.064  0.3127 -0.2128  0.1416
 1343ntf    nn310953   1.673   6.139   5.082 -0.3413 -0.2142 -0.7473
 1343ntf    sn210954   1.534   6.067   5.079 -0.2073 -0.5051 -0.1371
 1343ntf    cn110955   1.549   5.963   5.228  0.4327 -0.1211  0.0678
 1343ntf    fn410956   1.932   6.234   5.173 -0.5736 -0.2505  0.4874
 1343ntf    fn410957   1.919   6.209   4.963  0.2289 -0.0652  0.0935
 1343ntf    fn410958   1.943   6.402   5.047 -0.2302  0.1876 -0.0658
 1343ntf    on510959   1.681   6.376   5.181  0.0675  0.1239 -0.1339
 1343ntf    on510960   1.666   6.348   4.935 -0.0348  0.1296  0.3747
 1343ntf    on510961   1.417   6.149   5.098 -0.0155  0.0006 -1.0582
 1343ntf    on510962   1.531   5.973   4.969 -0.0190 -0.0676 -0.5169
 1343ntf    fn410963   1.445   5.881   5.230  0.0530  0.3604  0.1533
 1343ntf    fn410964   1.542   6.041   5.334 -0.6333  0.2501 -0.2609
 1343ntf    fn410965   1.661   5.893   5.235  0.2132 -0.5080 -0.2023
 1344ntf    cn110966   0.506   1.190   3.866 -0.0665  0.1552 -0.2175
 1344ntf    sn210967   0.574   1.101   4.009  0.1115  0.6288 -0.0066
 1344ntf    nn310968   0.443   1.040   4.069 -0.0712  0.4939 -0.5396
 1344ntf    sn210969   0.351   1.087   4.188  0.2283  0.0645 -0.1317
 1344ntf    cn110970   0.424   1.002   4.331  0.5760  0.3709 -0.1248
 1344ntf    fn410971   0.459   1.104   3.777 -0.5541 -0.0357  0.2203
 1344ntf    fn410972   0.408   1.269   3.904 -0.3440 -0.0941 -0.4135
 1344ntf    fn410973   0.602   1.259   3.806  0.1074  0.4534  0.3917
 1344ntf    on510974   0.661   1.011   3.937 -0.0990  0.3010  0.1459
 1344ntf    on510975   0.637   1.201   4.092  0.2805  0.2980  0.2674
 1344ntf    on510976   0.364   1.229   4.210 -0.2983  0.0696  0.1629
 1344ntf    on510977   0.216   1.040   4.171  0.2128  0.2307 -0.4821
 1344ntf    fn410978   0.550   1.033   4.354  0.5830 -0.1795  0.6209
 1344ntf    fn410979   0.422   0.870   4.315 -0.3151  0.3652  0.0008
 1344ntf    fn410980   0.359   1.034   4.442  0.1942 -0.4980 -0.0872
 1345ntf    cn110981   1.441   6.523   1.668 -0.2935 -0.3427 -0.0855
 1345ntf    sn210982   1.540   6.497   1.518 -0.2277  0.0557 -0.1126
 1345ntf    nn310983   1.565   6.641   1.460 -0.6427  0.0999 -0.1885
 1345ntf    sn210984   1.550   6.686   1.311  0.0350  0.2170 -0.2275
 1345ntf    cn110985   1.538   6.864   1.346  0.0095  0.2603 -0.4514
 1345ntf    fn410986   1.331   6.591   1.639  0.0185  0.0988 -0.2497
 1345ntf    fn410987   1.409   6.419   1.743 -0.0156 -0.6292 -0.3618
 1345ntf    fn410988   1.503   6.599   1.757 -0.0326 -0.1446 -0.4366
 1345ntf    on510989   1.661   6.438   1.569 -0.0845  0.3655 -0.0912
 1345ntf    on510990   1.451   6.420   1.435 -0.4863  0.1305  0.0923
 1345ntf    on510991   1.663   6.681   1.222  0.2920  0.2360  0.0987
 1345ntf    on510992   1.424   6.656   1.246 -0.2504  0.7303  0.0879
 1345ntf    fn410993   1.637   6.907   1.422  0.2043 -0.3355 -0.3611
 1345ntf    fn410994   1.434   6.894   1.423  0.4552  0.2153  0.1761
 1345ntf    fn410995   1.528   6.932   1.234 -0.0465  0.3463 -0.3942
 1346ntf    cn110996   5.234   2.632   1.306 -0.1497 -0.4612 -0.0645
 1346ntf    sn210997   5.218   2.718   1.147  0.1168 -0.0693  0.1195
 1346ntf    nn310998   5.207   2.870   1.186  0.0167  0.0305 -0.2917
 1346ntf    sn210999   5.303   2.985   1.139 -0.0553  0.1036 -0.2601
 1346ntf    cn111000   5.289   3.079   1.294  0.1867  0.1930 -0.2909
 1346ntf    fn411001   5.361   2.631   1.342 -0.2315 -0.4431  0.2256
 1346ntf    fn411002   5.162   2.681   1.405 -0.5912 -0.4724 -0.3782
 1346ntf    fn411003   5.187   2.509   1.291 -0.5051 -0.3544  0.1781
 1346ntf    on511004   5.331   2.669   1.073  0.1941 -0.4770  0.5031
 1346ntf    on511005   5.091   2.665   1.103  0.2481 -0.5355  0.3038
 1346ntf    on511006   5.445   2.961   1.136 -0.0578  0.0379  0.0484
 1346ntf    on511007   5.236   3.069   1.043  0.2395  0.3681 -0.2391
 1346ntf    fn411008   5.162   3.092   1.330  0.2848 -0.2705  0.2324
 1346ntf    fn411009   5.347   3.198   1.293 -0.1888  0.4060  0.8356
 1346ntf    fn411010   5.339   3.020   1.401  0.1100  0.5836 -0.0380
 1347ntf    cn111011   4.151   5.799   1.603 -0.3585  0.3652  0.5083
 1347ntf    sn211012   4.009   5.729   1.514  0.2354  0.0304 -0.1851
 1347ntf    nn311013   4.022   5.790   1.370 -0.0490 -0.2680 -0.3395
 1347ntf    sn211014   3.943   5.909   1.304 -0.1713 -0.1499  0.0144
 1347ntf    cn111015   3.813   5.819   1.214 -0.1289 -0.2828  0.0855
 1347ntf    fn411016   4.262   5.797   1.531 -0.3459 -0.4032  0.5392
 1347ntf    fn411017   4.138   5.928   1.629 -0.2655  0.4857 -0.0374
 1347ntf    fn411018   4.181   5.742   1.718 -0.4990  0.1824  0.4545
 1347ntf    on511019   4.045   5.589   1.507  0.0656  0.0153 -0.8716
 1347ntf    on511020   3.890   5.748   1.593  0.4503  0.2097  0.0950
 1347ntf    on511021   3.871   5.988   1.400 -0.1977  0.3244 -0.3911
 1347ntf    on511022   4.029   5.979   1.211  0.1554 -0.0122  0.4152
 1347ntf    fn411023   3.863   5.704   1.172 -0.2949 -0.2735 -0.1368
 1347ntf    fn411024   3.782   5.888   1.106  0.2347 -0.0645  0.1169
 1347ntf    fn411025   3.703   5.786   1.280 -0.2626 -0.3684 -0.1796
 1348ntf    cn111026   4.540   0.727   1.954  0.0526  0.2680  0.0059
 1348ntf    sn211027   4.601   0.690   2.121  0.1605  0.1519 -0.0596
 1348ntf    nn311028   4.755   0.703   2.093  0.2699 -0.3696  0.2807
 1348ntf    sn211029   4.845   0.825   2.133  0.1757 -0.2132  0.0210
 1348ntf    cn111030   4.888   0.773   2.302  0.0992  0.5622  0.2820
 1348ntf    fn411031   4.409   0.717   1.939  0.1229 -0.2410 -0.2935
 1348ntf    fn411032   4.573   0.852   1.926  0.3683  0.1038 -0.3574
 1348ntf    fn411033   4.598   0.655   1.860 -0.0122  0.3243 -0.0768
 1348ntf    on511034   4.540   0.783   2.212 -0.5356 -0.2571 -0.1002
 1348ntf    on511035   4.571   0.549   2.132  0.2948  0.1120 -0.2109
 1348ntf    on511036   4.969   0.837   2.061  0.2884 -0.1611  0.2206
 1348ntf    on511037   4.778   0.951   2.157  0.1190 -0.1759 -0.3396
 1348ntf    fn411038   4.913   0.644   2.313 -0.0098  0.5346  0.2053
 1348ntf    fn411039   4.788   0.788   2.388 -0.2052  0.2680 -0.0177
 1348ntf    fn411040   4.993   0.838   2.351  0.2370  0.5301  0.0311
 1349ntf    cn111041   2.447   2.035   1.214  0.3069 -0.5207  0.1961
 1349ntf    sn211042   2.519   1.870   1.238  0.3388 -0.5496 -0.0904
 1349ntf    nn311043   2.588   1.844   1.099 -1.0140 -0.6945 -0.7463
 1349ntf    sn211044   2.678   1.724   1.056  0.1316 -0.1906  0.1940
 1349ntf    cn111045   2.839   1.806   1.078  0.0787  0.0215 -0.1966
 1349ntf    fn411046   2.391   2.084   1.323  0.5486  0.0751  0.0558
 1349ntf    fn411047   2.534   2.123   1.166 -0.5966  0.2753 -0.0035
 1349ntf    fn411048   2.354   2.025   1.120  0.2224  0.5574  0.1451
 1349ntf    on511049   2.613   1.884   1.347 -0.4768 -0.0325  0.5605
 1349ntf    on511050   2.410   1.783   1.274 -0.5312  0.7747  0.5655
 1349ntf    on511051   2.675   1.606   1.139 -0.4639 -0.2485  0.0905
 1349ntf    on511052   2.671   1.702   0.913  0.4642 -0.3056  0.1931
 1349ntf    fn411053   2.931   1.728   1.025  0.3787  0.0027  0.3459
 1349ntf    fn411054   2.873   1.838   1.202  0.1195 -0.6843 -0.0217
 1349ntf    fn411055   2.845   1.918   1.008  0.2369 -0.2338 -0.5914
 1350ntf    cn111056   1.799   0.187   5.075 -0.2999  0.1559  0.0703
 1350ntf    sn211057   1.823   0.364   5.039 -0.4152  0.1378 -0.0987
 1350ntf    nn311058   1.970   0.367   4.982 -0.3879 -0.2262 -0.0485
 1350ntf    sn211059   2.101   0.430   5.039 -0.2011 -0.3089 -0.3778
 1350ntf    cn111060   2.239   0.359   4.944  0.2736 -0.0772  0.1310
 1350ntf    fn411061   1.677   0.140   5.097  0.0611 -0.9244 -0.1678
 1350ntf    fn411062   1.854   0.110   4.982  0.4045  0.3194  0.3477
 1350ntf    fn411063   1.873   0.160   5.181  0.1910  0.0316 -0.3012
 1350ntf    on511064   1.727   0.385   4.934 -0.3425  0.0148 -0.1910
 1350ntf    on511065   1.798   0.432   5.163 -0.9404 -0.3364  0.0562
 1350ntf    on511066   2.106   0.573   5.020  0.3888 -0.1863  0.6301
 1350ntf    on511067   2.137   0.387   5.172 -0.3894 -0.1246 -0.2652
 1350ntf    fn411068   2.350   0.382   5.011  0.0018  0.3844  0.4339
 1350ntf    fn411069   2.240   0.428   4.831  0.3018 -0.0766  0.1318
 1350ntf    fn411070   2.224   0.231   4.918 -0.4234  0.0480 -0.1130
 1351ntf    cn111071   2.844   0.167   4.266  0.1850  0.6356  0.0180
 1351ntf    sn211072   2.978   0.155   4.388 -0.0445 -0.1451  0.2029
 1351ntf    nn311073   3.091   0.226   4.305  0.2908 -0.4859  0.3618
 1351ntf    sn211074   3.121   0.379   4.281 -0.0488 -0.4144  0.3784
 1351ntf    cn111075   3.294   0.395   4.335 -0.0180  0.0687  0.1425
 1351ntf    fn411076   2.872   0.129   4.142 -0.5553  0.3281 -0.0567
 1351ntf    fn411077   2.747   0.082   4.296  0.3136  0.3792 -0.2918
 1351ntf    fn411078   2.792   0.287   4.250 -0.0927  0.4626 -0.3950
 1351ntf    on511079   2.940   0.235   4.502  0.3468 -0.3655  0.4917
 1351ntf    on511080   2.991   0.013   4.409  0.2630 -0.0798  0.4709
 1351ntf    on511081   3.129   0.414   4.141  0.0150 -0.3157  0.4075
 1351ntf    on511082   3.050   0.471   4.365 -0.1700 -0.0736 -0.0915
 1351ntf    fn411083   3.311   0.336   4.452 -0.3255  0.0726  0.1912
 1351ntf    fn411084   3.332   0.520   4.354 -0.0894  0.1660 -0.3565
 1351ntf    fn411085   3.372   0.339   4.244 -0.7428 -0.6734 -0.0325
 1352ntf    cn111086   3.949   6.158   4.079  0.2975 -0.3484 -0.0878
 1352ntf    sn211087   4.038   6.312   4.115 -0.2417 -0.0056 -0.1999
 1352ntf    nn311088   4.160   6.315   4.015  0.1722  0.4204  0.3086
 1352ntf    sn211089   4.199   6.390   3.884 -0.2684 -0.0611 -0.1049
 1352ntf    cn111090   4.352   6.464   3.949 -0.6003  0.5607 -0.0241
 1352ntf    fn411091   3.851   6.137   4.166  0.0163 -0.0687 -0.3313
 1352ntf    fn411092   3.891   6.162   3.960 -0.1698 -0.5392  0.1292
 1352ntf    fn411093   4.026   6.051   4.079  0.4289 -0.2543  0.0440
 1352ntf    on511094   3.937   6.411   4.086  0.2983  0.5496 -0.2188
 1352ntf    on511095   4.066   6.307   4.256  0.3916  0.0438 -0.3200
 1352ntf    on511096   4.244   6.304   3.778  0.2220 -0.1660  0.1870
 1352ntf    on511097   4.109   6.501   3.862 -0.4211 -0.0564  0.5229
 1352ntf    fn411098   4.330   6.568   4.028  0.1960  0.2526  0.6169
 1352ntf    fn411099   4.424   6.511   3.849 -0.3484  0.3368  0.0511
 1352ntf    fn411100   4.428   6.375   4.011 -0.2743  0.4648 -0.5599
 1353ntf    cn111101   1.778   5.521   3.051  0.4328  0.0960  0.5037
 1353ntf    sn211102   1.702   5.372   3.122 -0.0376 -0.0162 -0.2222
 1353ntf    nn311103   1.827   5.310   3.194 -0.2998 -0.5146 -0.1914
 1353ntf    sn211104   1.889   5.342   3.335 -0.3069  0.1144 -0.3289
 1353ntf    cn111105   1.801   5.231   3.449  0.0722 -0.1094 -0.2516
 1353ntf    fn411106   1.872   5.493   2.963 -0.6956  0.1447 -0.7609
 1353ntf    fn411107   1.692   5.591   2.979 -0.0764 -0.8252  0.1913
 1353ntf    fn411108   1.828   5.608   3.137  0.0830  0.3821  0.4180
 1353ntf    on511109   1.591   5.415   3.204  0.1059  1.1958 -0.6453
 1353ntf    on511110   1.661   5.307   3.000 -0.1978 -0.2237 -0.0604
 1353ntf    on511111   2.024   5.292   3.344  0.0127  0.9726 -0.2714
 1353ntf    on511112   1.860   5.475   3.382 -0.3044 -0.2222  0.6304
 1353ntf    fn411113   1.881   5.133   3.486  0.1711  0.0588 -0.0117
 1353ntf    fn411114   1.702   5.169   3.386  0.0274 -0.4008  0.1045
 1353ntf    fn411115   1.751   5.290   3.556 -0.1768 -0.6473 -0.0704
 1354ntf    cn111116   6.353   6.480   3.322 -0.0013 -0.1129 -0.0728
 1354ntf    sn211117   6.495   6.445   3.430 -0.2054 -0.1135  0.1981
 1354ntf    nn311118   6.593   6.558   3.382 -0.3827 -0.1435 -0.2408
 1354ntf    sn211119   6.630   6.687   3.463  0.0480 -0.3738 -0.0677
 1354ntf    cn111120   6.764   6.632   3.573  0.2879 -0.1885 -0.2636
 1354ntf    fn411121   6.262   6.384   3.329 -0.3820  0.2375 -0.1458
 1354ntf    fn411122   6.294   6.596   3.345 -0.4468 -0.4136  0.3329
 1354ntf    fn411123   6.386   6.488   3.195 -0.0029 -0.1170 -0.0735
 1354ntf    on511124   6.447   6.462   3.565 -0.5532 -0.3788  0.1111
 1354ntf    on511125   6.550   6.321   3.380 -0.3861  0.1643 -0.7063
 1354ntf    on511126   6.700   6.783   3.380 -0.6404  0.4858  0.3346
 1354ntf    on511127   6.537   6.743   3.558  0.5485  0.1679  0.1131
 1354ntf    fn411128   6.801   6.727   3.657 -0.1835  0.0280 -0.2964
 1354ntf    fn411129   6.866   6.602   3.494  0.4557  0.1751 -0.1858
 1354ntf    fn411130   6.733   6.524   3.643  0.3224 -0.0773 -0.0774
 1355ntf    cn111131   4.721   3.408   2.441 -0.2331  0.1993 -0.2070
 1355ntf    sn211132   4.716   3.588   2.467 -0.1429  0.1257  0.3176
 1355ntf    nn311133   4.824   3.623   2.359 -0.5740  0.3836 -0.0305
 1355ntf    sn211134   4.811   3.744   2.259 -0.0301  0.2285 -0.2870
 1355ntf    cn111135   4.990   3.779   2.251 -0.0627  0.4000 -0.2527
 1355ntf    fn411136   4.832   3.357   2.491 -0.2452 -0.0171 -0.3991
 1355ntf    fn411137   4.616   3.345   2.490 -0.0055 -0.0639 -0.0565
 1355ntf    fn411138   4.725   3.378   2.312  0.5005  0.2522 -0.2037
 1355ntf    on511139   4.577   3.612   2.435 -0.0360 -0.1185 -0.3277
 1355ntf    on511140   4.758   3.608   2.604 -0.3741  0.0692  0.3970
 1355ntf    on511141   4.777   3.699   2.126 -0.7807 -0.2182  0.0512
 1355ntf    on511142   4.750   3.862   2.314  0.7387  0.4201  0.1803
 1355ntf    fn411143   5.024   3.882   2.175  0.8560  0.6115  0.4290
 1355ntf    fn411144   5.062   3.674   2.217 -0.8157 -0.2512  0.1042
 1355ntf    fn411145   5.040   3.804   2.371 -0.0877  0.0233 -0.1619
 1356ntf    cn111146   5.490   5.477   6.011  0.4970  0.2919 -0.0320
 1356ntf    sn211147   5.419   5.536   5.854 -0.2585  0.2726  0.2954
 1356ntf    nn311148   5.271   5.485   5.870  0.0140 -0.5466  0.2927
 1356ntf    sn211149   5.145   5.578   5.883  0.3544 -0.0873  0.3521
 1356ntf    cn111150   5.018   5.451   5.908  0.3945 -0.1148  0.4179
 1356ntf    fn411151   5.612   5.516   6.043  0.4973 -0.2003  0.5744
 1356ntf    fn411152   5.412   5.520   6.109 -0.2552  0.2167 -0.5847
 1356ntf    fn411153   5.503   5.346   6.021  0.3174  0.2417 -0.4521
 1356ntf    on511154   5.439   5.678   5.842  0.5377  0.1622  0.2628
 1356ntf    on511155   5.497   5.449   5.768 -0.1532  0.2505  0.4126
 1356ntf    on511156   5.153   5.662   5.999 -0.0768  0.7025 -0.1811
 1356ntf    on511157   5.112   5.632   5.753 -0.1669  0.0024  0.5231
 1356ntf    fn411158   5.028   5.351   5.822  0.1313 -0.0124  0.2642
 1356ntf    fn411159   4.894   5.494   5.889  0.2678 -0.3348  0.7449
 1356ntf    fn411160   5.020   5.390   6.025 -0.3583 -0.2740  0.3567
 1357ntf    cn111161   4.680   0.083   5.197 -0.1309 -0.2753 -0.2429
 1357ntf    sn211162   4.617   0.206   5.315  0.0692 -0.1162 -0.3026
 1357ntf    nn311163   4.580   0.121   5.442 -0.0284  0.2864 -0.0595
 1357ntf    sn211164   4.667   0.078   5.565 -0.1212  0.5417  0.0957
 1357ntf    cn111165   4.615   0.181   5.706 -0.0662 -0.2019  0.6641
 1357ntf    fn411166   4.780   0.012   5.246  0.2750 -0.0715 -0.7716
 1357ntf    fn411167   4.584  -0.003   5.167 -0.0241 -0.3931 -0.2460
 1357ntf    fn411168   4.715   0.148   5.087  0.1767  0.6652  0.4031
 1357ntf    on511169   4.716   0.307   5.345  0.5753 -0.6438 -0.1842
 1357ntf    on511170   4.501   0.266   5.254 -0.1931 -0.1623  0.1432
 1357ntf    on511171   4.628  -0.052   5.612 -0.3186  0.4305 -0.3702
 1357ntf    on511172   4.809   0.094   5.544 -0.0647 -0.7076 -0.5540
 1357ntf    fn411173   4.703   0.274   5.737  0.2015 -0.1090 -0.3529
 1357ntf    fn411174   4.586   0.112   5.815 -0.4169  0.0577  0.7365
 1357ntf    fn411175   4.495   0.235   5.690  0.3112  0.4185 -0.1325
 1358ntf    cn111176   3.656   4.992   3.932  0.0729 -0.2203 -0.1096
 1358ntf    sn211177   3.799   5.078   3.860 -0.0051 -0.1911 -0.2314
 1358ntf    nn311178   3.890   5.116   3.983  0.1855  0.0169 -0.4372
 1358ntf    sn211179   4.013   5.038   4.041  0.2283  0.2797 -0.1726
 1358ntf    cn111180   4.043   5.151   4.180  0.0985  0.2817 -0.1465
 1358ntf    fn411181   3.685   4.884   4.003 -0.1758  0.0053  0.3426
 1358ntf    fn411182   3.598   5.066   4.024  0.1263 -0.1455 -0.1369
 1358ntf    fn411183   3.560   4.958   3.847 -0.0690 -0.0497 -0.0164
 1358ntf    on511184   3.852   4.980   3.769  0.0912 -0.2989 -0.0614
 1358ntf    on511185   3.736   5.196   3.804 -0.1983  0.3559  1.0903
 1358ntf    on511186   3.977   4.913   4.104  0.0186  0.2480 -0.3564
 1358ntf    on511187   4.130   5.047   3.957  0.1750 -0.1430 -0.2964
 1358ntf    fn411188   3.959   5.122   4.279  0.2693  0.5793  0.0872
 1358ntf    fn411189   4.032   5.281   4.160  0.2933  0.3595  0.2409
 1358ntf    fn411190   4.166   5.135   4.225  0.0299 -0.0775 -0.0804
 1359ntf    cn111191   2.747   6.462   1.530  0.0391  0.3291 -0.3284
 1359ntf    sn211192   2.869   6.592   1.496  0.3245  0.0842 -0.2462
 1359ntf    nn311193   2.940   6.611   1.634  0.2630 -0.2353 -0.1698
 1359ntf    sn211194   3.080   6.678   1.660  0.1539 -0.0190 -0.1400
 1359ntf    cn111195   3.187   6.531   1.666  0.2830  0.0863  0.1777
 1359ntf    fn411196   2.798   6.340   1.521  0.5645  0.4819  0.4890
 1359ntf    fn411197   2.695   6.474   1.651  0.1684 -0.4768 -0.1849
 1359ntf    fn411198   2.654   6.465   1.435  0.2332 -0.2729 -0.5462
 1359ntf    on511199   2.956   6.534   1.396 -0.1173 -0.2445 -0.4474
 1359ntf    on511200   2.785   6.705   1.466  0.6361  0.3307 -0.1917
 1359ntf    on511201   3.119   6.761   1.549 -0.7203  0.3936 -0.1511
 1359ntf    on511202   3.085   6.712   1.800 -0.5856  0.6971 -0.2791
 1359ntf    fn411203   3.314   6.567   1.677  0.3401 -0.1042  0.1384
 1359ntf    fn411204   3.168   6.465   1.553  0.6956 -0.5274  0.4628
 1359ntf    fn411205   3.157   6.449   1.765  0.4156 -0.4979 -0.2587
 1360ntf    cn111206   1.838   0.601   2.055  0.0424 -0.2216  0.1274
 1360ntf    sn211207   1.658   0.624   2.041  0.1126  0.0864 -0.2880
 1360ntf    nn311208   1.639   0.753   2.129  0.1783 -0.1156  0.0222
 1360ntf    sn211209   1.601   0.761   2.281 -0.1064 -0.2110 -0.0427
 1360ntf    cn111210   1.573   0.940   2.297  0.2383 -0.1628  0.0238
 1360ntf    fn411211   1.876   0.487   2.000  0.3567 -0.1382  0.1726
 1360ntf    fn411212   1.914   0.696   2.004 -0.2291 -0.0505  0.0353
 1360ntf    fn411213   1.876   0.587   2.181 -0.1368 -0.2108  0.1829
 1360ntf    on511214   1.630   0.639   1.900 -0.4264  0.4603 -0.1458
 1360ntf    on511215   1.606   0.504   2.101 -0.1247  0.3667  0.0748
 1360ntf    on511216   1.470   0.708   2.311  0.0052 -0.5270 -0.1140
 1360ntf    on511217   1.710   0.738   2.373 -0.2982 -0.4726  0.1178
 1360ntf    fn411218   1.584   0.997   2.416  0.6784 -0.6265  0.2064
 1360ntf    fn411219   1.462   0.985   2.240  0.1680 -0.2291  0.1099
 1360ntf    fn411220   1.671   0.997   2.228  0.4400 -0.8015 -0.2218
 1361ntf    cn111221   3.323   2.880   2.532 -0.0675  0.3661  0.0576
 1361ntf    sn211222   3.467   2.770   2.548 -0.0068  0.4422  0.0406
 1361ntf    nn311223   3.430   2.669   2.434 -0.3527  0.4622  0.1322
 1361ntf    sn211224   3.415   2.513   2.441 -0.0573  0.3913 -0.6443
 1361ntf    cn111225   3.238   2.504   2.402 -0.1922  0.1485  0.0055
 1361ntf    fn411226   3.321   2.974   2.625  0.2957 -0.0623  0.5056
 1361ntf    fn411227   3.315   2.936   2.412  0.7273  0.4433  0.0328
 1361ntf    fn411228   3.210   2.813   2.547  0.0450  0.1279 -0.1367
 1361ntf    on511229   3.577   2.854   2.507 -0.0294  0.4327 -0.0394
 1361ntf    on511230   3.465   2.729   2.687 -0.1221  0.2271 -0.0240
 1361ntf    on511231   3.485   2.445   2.334  0.5807 -0.0589  0.0437
 1361ntf    on511232   3.431   2.447   2.568 -0.0811  0.3715 -0.6519
 1361ntf    fn411233   3.202   2.595   2.312  0.3471  0.2341 -0.1261
 1361ntf    fn411234   3.168   2.534   2.510  0.0986  0.2459  0.1687
 1361ntf    fn411235   3.195   2.387   2.359  0.4263 -0.0431 -0.1096
 1362ntf    cn111236   3.576   3.356   1.164  0.0347 -0.0734  0.0720
 1362ntf    sn211237   3.489   3.224   1.074 -0.0842  0.1872 -0.1943
 1362ntf    nn311238   3.592   3.212   0.956 -0.2415 -0.3653 -0.2776
 1362ntf    sn211239   3.733   3.144   0.958  0.0070  0.1498 -0.1380
 1362ntf    cn111240   3.700   3.021   0.828  0.1189  0.1820 -0.1972
 1362ntf    fn411241   3.502   3.398   1.265 -0.2258  0.2458 -0.2543
 1362ntf    fn411242   3.695   3.335   1.218 -0.0672 -0.8500  0.0127
 1362ntf    fn411243   3.607   3.458   1.086  0.2034  0.0651  0.3194
 1362ntf    on511244   3.491   3.113   1.166 -0.4204  0.2692 -0.0874
 1362ntf    on511245   3.362   3.282   1.038 -0.2791  0.0177  0.2184
 1362ntf    on511246   3.833   3.232   0.902  0.4480  0.0857  0.5304
 1362ntf    on511247   3.762   3.053   1.066 -0.0317 -0.0178 -0.2689
 1362ntf    fn411248   3.594   2.943   0.838 -0.0697  0.4083 -0.4136
 1362ntf    fn411249   3.806   2.943   0.822  0.1457  0.1482  0.5751
 1362ntf    fn411250   3.688   3.073   0.707 -0.2947 -0.4914 -0.4491
 1363ntf    cn111251   5.735   1.022   4.423  0.6808  0.3520 -0.3137
 1363ntf    sn211252   5.847   0.882   4.394  0.0501 -0.2665  0.2179
 1363ntf    nn311253   5.746   0.787   4.319  0.5174 -0.1232 -0.6025
 1363ntf    sn211254   5.756   0.631   4.299  0.1890 -0.2215 -0.0164
 1363ntf    cn111255   5.720   0.640   4.121 -0.1175  0.0875  0.0591
 1363ntf    fn411256   5.782   1.113   4.507 -0.1225  0.3777  0.1192
 1363ntf    fn411257   5.706   1.084   4.310 -0.4640  0.2731 -0.0722
 1363ntf    fn411258   5.620   0.986   4.477  0.7424  0.5889 -0.0205
 1363ntf    on511259   5.939   0.946   4.304 -0.0683  0.0150  0.2969
 1363ntf    on511260   5.889   0.838   4.524  0.8504 -0.3701 -0.0707
 1363ntf    on511261   5.891   0.583   4.306 -0.0312 -0.8264  0.1328
 1363ntf    on511262   5.642   0.562   4.355  0.0116  0.0885  0.0064
 1363ntf    fn411263   5.607   0.706   4.105 -0.4758 -0.5314  0.0503
 1363ntf    fn411264   5.713   0.528   4.051  0.0365  0.2877 -0.2837
 1363ntf    fn411265   5.805   0.712   4.047  0.0536 -0.8661 -0.6885
 1364ntf    cn111266   4.170   4.203   2.934 -0.0742 -0.1651 -0.1571
 1364ntf    sn211267   4.319   4.161   2.838 -0.0028 -0.2298 -0.0169
 1364ntf    nn311268   4.366   4.297   2.776 -0.2733 -0.1411 -0.0305
 1364ntf    sn211269   4.285   4.393   2.681 -0.1108  0.1078  0.0816
 1364ntf    cn111270   4.374   4.365   2.525  0.0227  0.0298  0.1714
 1364ntf    fn411271   4.059   4.209   2.862 -0.3010 -0.7807  0.1314
 1364ntf    fn411272   4.143   4.110   3.023 -0.2772  0.3003  0.2719
 1364ntf    fn411273   4.185   4.315   3.003  0.0445  0.0892 -0.5920
 1364ntf    on511274   4.401   4.099   2.939  0.1083 -0.1446 -0.0544
 1364ntf    on511275   4.271   4.071   2.736 -0.7516 -0.3945  0.4714
 1364ntf    on511276   4.149   4.358   2.651 -0.0187 -0.2001  0.0252
 1364ntf    on511277   4.306   4.532   2.713  0.0150  0.1012  0.0280
 1364ntf    fn411278   4.299   4.412   2.427  0.3373 -0.4176 -0.2893
 1364ntf    fn411279   4.386   4.234   2.513 -0.0561  0.0336  0.0615
 1364ntf    fn411280   4.494   4.420   2.515  0.0072  0.0467  0.0816
 1365ntf    cn111281   6.512   4.292   2.628  0.1388  0.1066 -0.3963
 1365ntf    sn211282   6.436   4.383   2.490  0.0598  0.1419 -0.3288
 1365ntf    nn311283   6.298   4.310   2.505  0.2545 -0.2376 -0.3561
 1365ntf    sn211284   6.154   4.361   2.466  0.1741 -0.1884  0.0063
 1365ntf    cn111285   6.096   4.216   2.374 -0.0227  0.0516 -0.2512
 1365ntf    fn411286   6.476   4.165   2.629 -0.5981  0.3157 -0.1321
 1365ntf    fn411287   6.645   4.286   2.625  0.1112 -0.6014 -0.5641
 1365ntf    fn411288   6.483   4.337   2.749 -0.0969  0.0468 -0.4315
 1365ntf    on511289   6.442   4.516   2.545 -0.2181  0.1045 -0.2025
 1365ntf    on511290   6.518   4.344   2.378  0.0686 -0.1310 -0.2289
 1365ntf    on511291   6.073   4.374   2.585 -0.0461 -0.3488 -0.1259
 1365ntf    on511292   6.143   4.466   2.368  0.2355  0.0876  0.2941
 1365ntf    fn411293   6.136   4.218   2.248  0.7020 -0.0824 -0.0302
 1365ntf    fn411294   5.965   4.213   2.364 -0.0380 -0.4676  0.0455
 1365ntf    fn411295   6.132   4.098   2.424  0.0983  0.2665  0.1754
 1366ntf    cn111296   3.181   2.233   6.061  0.0828  0.1691 -0.1679
 1366ntf    sn211297   3.144   2.066   5.999  0.1661 -0.0832  0.4563
 1366ntf    nn311298   3.129   1.987   6.134 -0.0146 -0.6009  0.1379
 1366ntf    sn211299   3.007   1.972   6.231 -0.1264  0.4415  0.1701
 1366ntf    cn111300   3.072   1.982   6.400  0.0144  0.2680  0.1262
 1366ntf    fn411301   3.304   2.241   6.109 -0.0290  0.1223  0.1300
 1366ntf    fn411302   3.175   2.326   5.967 -0.0278  0.3838  0.0514
 1366ntf    fn411303   3.108   2.276   6.162 -0.2321 -0.2466 -0.2167
 1366ntf    on511304   3.022   2.078   5.923  0.5433 -0.2854 -0.1969
 1366ntf    on511305   3.266   2.037   5.927 -0.0281  0.2505 -0.0118
 1366ntf    on511306   2.914   2.083   6.243 -0.3969  0.2994 -0.5731
 1366ntf    on511307   2.958   1.837   6.220  1.0787  0.0497 -0.4388
 1366ntf    fn411308   2.979   1.985   6.495 -0.1940  0.5432 -0.0858
 1366ntf    fn411309   3.137   2.095   6.421  0.5926 -0.0006 -0.2063
 1366ntf    fn411310   3.160   1.885   6.418  0.2482  0.3782 -0.4154
 1367ntf    cn111311   0.345   5.892   3.490  0.0491 -0.2702  0.0957
 1367ntf    sn211312   0.197   5.787   3.477 -0.1611  0.0103  0.2139
 1367ntf    nn311313   0.211   5.747   3.326  0.1327  0.1353  0.2073
 1367ntf    sn211314   0.115   5.649   3.250  0.2832  0.0737  0.0971
 1367ntf    cn111315   0.229   5.508   3.236 -0.2187 -0.3077 -0.1594
 1367ntf    fn411316   0.460   5.836   3.458  0.1995  0.1078 -0.0312
 1367ntf    fn411317   0.336   6.001   3.416 -0.0121 -0.1161  0.3302
 1367ntf    fn411318   0.361   5.946   3.610 -0.1703  0.3957 -0.1714
 1367ntf    on511319   0.235   5.685   3.572 -0.0035 -0.4177 -0.3098
 1367ntf    on511320   0.087   5.873   3.514  0.0347  0.3793 -0.0569
 1367ntf    on511321   0.003   5.597   3.324  0.6043 -0.1273  0.4405
 1367ntf    on511322   0.090   5.676   3.110 -0.3222  0.4351  0.2738
 1367ntf    fn411323   0.271   5.456   3.350  0.0202  0.3083  0.0363
 1367ntf    fn411324   0.331   5.543   3.159  0.2715 -0.8907  0.2136
 1367ntf    fn411325   0.169   5.406   3.177 -0.4839 -0.3308  0.1476
 1368ntf    cn111326   5.942   2.119   0.833 -0.1057  0.0650  0.0684
 1368ntf    sn211327   5.979   2.065   1.003  0.2578 -0.2838 -0.1232
 1368ntf    nn311328   5.896   2.165   1.090  0.0447 -0.2306 -0.3876
 1368ntf    sn211329   5.932   2.289   1.179 -0.1254 -0.3797 -0.1108
 1368ntf    cn111330   5.806   2.290   1.311 -0.0487 -0.2680 -0.0384
 1368ntf    fn411331   6.005   2.234   0.815 -0.4109  0.2220 -0.0062
 1368ntf    fn411332   5.985   2.043   0.734 -0.0741  0.6754 -0.3985
 1368ntf    fn411333   5.816   2.143   0.801  0.0547  0.5582 -0.2144
 1368ntf    on511334   5.923   1.932   1.002 -0.2294 -0.0855  0.4054
 1368ntf    on511335   6.122   2.079   1.016  0.2103 -0.2262  0.3444
 1368ntf    on511336   6.055   2.276   1.253  0.0425  0.0804 -0.3103
 1368ntf    on511337   5.894   2.412   1.115  0.2185 -0.0162  0.3800
 1368ntf    fn411338   5.828   2.385   1.400 -0.1384  0.1218 -0.4312
 1368ntf    fn411339   5.803   2.175   1.377  0.4272 -0.0802  0.3166
 1368ntf    fn411340   5.685   2.307   1.261 -0.1008 -0.1970  0.1153
 1369ntf    cn111341   2.033   0.921   6.278 -0.0136 -0.1535 -0.1060
 1369ntf    sn211342   2.082   0.786   6.389  0.0468 -0.2367 -0.2325
 1369ntf    nn311343   1.940   0.753   6.449 -0.1706  0.4250 -0.3683
 1369ntf    sn211344   1.841   0.636   6.414 -0.0585  0.2041  0.0410
 1369ntf    cn111345   1.892   0.508   6.531  0.1530  0.1542 -0.1046
 1369ntf    fn411346   1.959   0.884   6.175 -0.5098 -0.1770  0.2555
 1369ntf    fn411347   1.966   1.009   6.351  0.1123 -0.3194  0.2068
 1369ntf    fn411348   2.143   0.984   6.239  0.1575 -0.2777  0.1724
 1369ntf    on511349   2.146   0.690   6.304  0.1943 -0.0372 -0.3488
 1369ntf    on511350   2.164   0.862   6.480 -0.1414  0.0902 -0.3333
 1369ntf    on511351   1.712   0.670   6.469 -0.6413 -0.0404 -1.1370
 1369ntf    on511352   1.856   0.578   6.283 -0.1517  0.1670  0.0466
 1369ntf    fn411353   1.879   0.555   6.654  0.3278 -0.2784  0.0814
 1369ntf    fn411354   2.008   0.448   6.509 -0.3677 -0.8473 -0.1640
 1369ntf    fn411355   1.803   0.410   6.534 -0.5212  0.7670  0.3340
 1370ntf    cn111356   3.563   4.908   1.443 -0.2624  0.1489  0.2791
 1370ntf    sn211357   3.382   4.926   1.440 -0.2867 -0.1230  0.1117
 1370ntf    nn311358   3.334   4.794   1.509  0.1162 -0.1524  0.3356
 1370ntf    sn211359   3.285   4.656   1.452  0.1134 -0.1218  0.2640
 1370ntf    cn111360   3.113   4.693   1.404  0.1639 -0.1832  0.0316
 1370ntf    fn411361   3.621   4.891   1.560 -0.1668  0.2465  0.2460
 1370ntf    fn411362   3.582   4.799   1.372  0.4677  0.4274  0.0389
 1370ntf    fn411363   3.629   5.006   1.383 -0.0277 -0.1326  0.0807
 1370ntf    on511364   3.367   5.037   1.531 -0.7265 -0.2006  0.1375
 1370ntf    on511365   3.357   4.942   1.299 -0.6616  0.0827  0.1989
 1370ntf    on511366   3.337   4.617   1.323  0.3631  0.6379  0.1286
 1370ntf    on511367   3.270   4.548   1.547 -0.0463 -0.5138 -0.2012
 1370ntf    fn411368   3.056   4.589   1.347  0.1624 -0.0942 -0.1283
 1370ntf    fn411369   3.103   4.793   1.317 -0.3145 -0.2023  0.0656
 1370ntf    fn411370   3.033   4.732   1.503  0.2898  0.5135 -0.1326
 1371ntf    cn111371   3.625   4.654   5.216  0.1054 -0.0260  0.2637
 1371ntf    sn211372   3.539   4.501   5.262 -0.0208 -0.0519 -0.0576
 1371ntf    nn311373   3.392   4.535   5.220 -0.0807  0.3127  0.4436
 1371ntf    sn211374   3.261   4.473   5.281 -0.0103  0.1376  0.4169
 1371ntf    cn111375   3.249   4.321   5.182 -0.3401  0.2189  0.3275
 1371ntf    fn411376   3.571   4.768   5.256  0.9847  0.5747 -0.2191
 1371ntf    fn411377   3.747   4.658   5.269  0.2141 -0.2697  0.0342
 1371ntf    fn411378   3.637   4.659   5.084  0.7914 -0.3200  0.3099
 1371ntf    on511379   3.591   4.405   5.168  0.0604 -0.5784  0.5188
 1371ntf    on511380   3.565   4.478   5.402  0.4496 -0.0018 -0.1341
 1371ntf    on511381   3.270   4.421   5.415 -0.4006  0.3344  0.5221
 1371ntf    on511382   3.146   4.549   5.238  0.1349  0.2734  0.2654
 1371ntf    fn411383   3.326   4.220   5.223  0.2045  0.3200 -0.4160
 1371ntf    fn411384   3.288   4.355   5.061 -0.0072 -0.2199  0.3052
 1371ntf    fn411385   3.127   4.271   5.171 -0.4385  0.6192 -0.4366
 1372ntf    cn111386   5.736   1.692   1.662 -0.1309  0.3510  0.2500
 1372ntf    sn211387   5.738   1.782   1.504  0.1644  0.0501  0.0782
 1372ntf    nn311388   5.780   1.671   1.402  0.0278  0.1727 -0.1120
 1372ntf    sn211389   5.921   1.638   1.340 -0.0314 -0.0655 -0.1206
 1372ntf    cn111390   5.898   1.458   1.346 -0.1197 -0.0498  0.0470
 1372ntf    fn411391   5.754   1.785   1.754  0.0655  0.6660 -0.1007
 1372ntf    fn411392   5.621   1.628   1.677 -0.0704  0.1688 -0.0395
 1372ntf    fn411393   5.831   1.600   1.666 -0.0929  0.3997  0.4423
 1372ntf    on511394   5.601   1.822   1.481  0.1268  0.2749  0.6742
 1372ntf    on511395   5.836   1.886   1.523  0.4071 -0.1587 -0.0344
 1372ntf    on511396   5.931   1.670   1.200 -0.4185 -0.1671 -0.1743
 1372ntf    on511397   6.027   1.647   1.438 -0.1518  0.1461 -0.0079
 1372ntf    fn411398   5.998   1.405   1.277  0.1632  0.3727  0.1260
 1372ntf    fn411399   5.789   1.415   1.285  0.2038 -0.4418 -0.2653
 1372ntf    fn411400   5.901   1.409   1.469  0.0502 -0.6469 -0.1884
 1373ntf    cn111401   6.059   3.278   1.438  0.1309 -0.0280 -0.5411
 1373ntf    sn211402   6.025   3.117   1.516  0.0659  0.0672 -0.3734
 1373ntf    nn311403   6.170   3.066   1.546 -0.2350 -0.1203  0.8202
 1373ntf    sn211404   6.275   3.005   1.446 -0.6962  0.3486  0.0412
 1373ntf    cn111405   6.359   2.884   1.554 -0.2763  0.5570 -0.0483
 1373ntf    fn411406   6.116   3.259   1.320 -0.1033 -0.2966 -0.6132
 1373ntf    fn411407   5.947   3.344   1.414 -0.0851 -0.0189  0.4453
 1373ntf    fn411408   6.133   3.349   1.521 -0.0656 -0.6121  0.1461
 1373ntf    on511409   5.958   3.151   1.639 -0.7545 -0.2988 -0.7174
 1373ntf    on511410   5.946   3.047   1.418 -0.4904  0.1431  0.0179
 1373ntf    on511411   6.226   2.917   1.344 -0.2361 -0.0970  0.1963
 1373ntf    on511412   6.385   3.095   1.423 -0.1467 -0.3842 -0.2398
 1373ntf    fn411413   6.423   2.948   1.650 -0.0045 -0.0407  0.1698
 1373ntf    fn411414   6.451   2.818   1.486 -0.3515  0.1182  0.2779
 1373ntf    fn411415   6.281   2.793   1.610  0.5663  0.1645  0.4934
 1374ntf    cn111416   0.237   6.449   0.350  0.2232  0.0427  0.0943
 1374ntf    sn211417   0.323   6.379   0.206  0.0214 -0.4693  0.2200
 1374ntf    nn311418   0.474   6.409   0.238  0.0467 -0.0237 -0.3065
 1374ntf    sn211419   0.595   6.317   0.279 -0.1574 -0.2447 -0.2028
 1374ntf    cn111420   0.710   6.342   0.141  0.0184  0.2710  0.0372
 1374ntf    fn411421   0.259   6.579   0.349 -0.4350  0.1583  0.0237
 1374ntf    fn411422   0.105   6.440   0.351  0.2403 -0.2234  0.1050
 1374ntf    fn411423   0.275   6.400   0.466 -0.5307 -0.1973  0.2472
 1374ntf    on511424   0.289   6.239   0.207  0.0028 -0.4655  0.0973
 1374ntf    on511425   0.276   6.472   0.107  0.6127 -0.3080  0.0835
 1374ntf    on511426   0.668   6.357   0.396 -0.6476  0.1002 -0.0100
 1374ntf    on511427   0.569   6.175   0.277 -0.7763 -0.1482  0.4158
 1374ntf    fn411428   0.680   6.281   0.028 -0.1282 -0.3594  0.4111
 1374ntf    fn411429   0.826   6.292   0.181 -0.3039 -0.1190  0.4979
 1374ntf    fn411430   0.717   6.471   0.114 -0.3845  0.2185 -0.3251
 1375ntf    cn111431   4.202   1.118   2.580 -0.2297 -0.1093 -0.2311
 1375ntf    sn211432   4.047   1.144   2.488 -0.2852 -0.3104 -0.1955
 1375ntf    nn311433   4.035   1.301   2.478 -0.0755 -0.2909 -0.1496
 1375ntf    sn211434   4.078   1.395   2.360 -0.1826 -0.2331 -0.1424
 1375ntf    cn111435   3.935   1.377   2.249 -0.2174 -0.0557 -0.1271
 1375ntf    fn411436   4.303   1.162   2.507 -0.5166  0.5270 -0.2527
 1375ntf    fn411437   4.204   1.187   2.693 -0.7069 -0.5409  0.0503
 1375ntf    fn411438   4.222   0.989   2.597  0.7607  0.0281 -0.2956
 1375ntf    on511439   4.066   1.076   2.362  0.2313 -0.0955 -0.2375
 1375ntf    on511440   3.946   1.084   2.571  0.1402 -0.3895  0.2652
 1375ntf    on511441   4.086   1.535   2.393 -0.1136 -0.0012 -1.1032
 1375ntf    on511442   4.197   1.348   2.294 -0.1463  0.4248 -0.5609
 1375ntf    fn411443   3.926   1.469   2.155  0.2536 -0.1024 -0.2193
 1375ntf    fn411444   3.817   1.366   2.309  0.1903 -0.1874  0.6714
 1375ntf    fn411445   3.957   1.271   2.173  0.0852 -0.3915  0.4227
 1376ntf    cn111446   0.647   0.609   0.438  0.1539 -0.2552 -0.3868
 1376ntf    sn211447   0.487   0.632   0.354  0.0074  0.0826 -0.0202
 1376ntf    nn311448   0.544   0.635   0.208  0.4957 -0.3839  0.1543
 1376ntf    sn211449   0.562   0.512   0.112 -0.0682 -0.4797  0.1663
 1376ntf    cn111450   0.396   0.508   0.039 -0.0837  0.1362  0.1606
 1376ntf    fn411451   0.722   0.718   0.443  0.0751 -0.2193  0.0590
 1376ntf    fn411452   0.625   0.590   0.567  0.0025  0.7907 -0.2474
 1376ntf    fn411453   0.713   0.511   0.380 -0.0723 -0.2827 -0.5982
 1376ntf    on511454   0.403   0.522   0.394 -0.1114  0.1855  0.0121
 1376ntf    on511455   0.442   0.764   0.391  0.0550  0.1192 -0.0938
 1376ntf    on511456   0.650   0.542   0.002 -0.2986 -0.3342  0.0199
 1376ntf    on511457   0.577   0.385   0.178  0.8098 -0.1076  0.7070
 1376ntf    fn411458   0.400   0.476  -0.090  0.5395 -0.1298  0.2468
 1376ntf    fn411459   0.336   0.626   0.039 -0.7339 -0.1897  0.0735
 1376ntf    fn411460   0.318   0.426   0.108 -0.0714  0.2698  0.3334
 1377ntf    cn111461   6.003   0.524   2.682  0.1542  0.2884 -0.2853
 1377ntf    sn211462   6.058   0.366   2.751 -0.2987  0.2268 -0.0650
 1377ntf    nn311463   6.207   0.394   2.710 -0.1935 -0.7078 -0.3495
 1377ntf    sn211464   6.327   0.297   2.739  0.0234 -0.3117  0.0914
 1377ntf    cn111465   6.386   0.261   2.571 -0.0166 -0.1724  0.0472
 1377ntf    fn411466   5.886   0.556   2.735  0.0944 -0.1006 -0.1797
 1377ntf    fn411467   6.096   0.617   2.698  0.3800 -0.0463  0.3718
 1377ntf    fn411468   5.974   0.524   2.553 -0.4426  0.4453 -0.1567
 1377ntf    on511469   6.031   0.374   2.893  0.5798 -0.6239  0.1607
 1377ntf    on511470   5.985   0.278   2.663 -0.3947  0.2777 -0.0373
 1377ntf    on511471   6.447   0.349   2.799 -0.1317  0.2011 -0.0401
 1377ntf    on511472   6.281   0.168   2.784  0.0230 -0.5837 -0.6804
 1377ntf    fn411473   6.426   0.373   2.514 -0.5041  0.0131  0.0662
 1377ntf    fn411474   6.292   0.213   2.490  0.3069 -0.3445 -0.2290
 1377ntf    fn411475   6.480   0.169   2.556  0.4904  0.4077 -0.3453
 1378ntf    cn111476   2.861   6.252   5.677 -0.1338  0.3738 -0.1406
 1378ntf    sn211477   3.035   6.210   5.644 -0.1913 -0.0292  0.0633
 1378ntf    nn311478   3.097   6.265   5.777  0.0140 -0.1027 -0.0006
 1378ntf    sn211479   3.247   6.301   5.803  0.0233 -0.1418 -0.0004
 1378ntf    cn111480   3.230   6.480   5.779  0.1406 -0.0966  0.2470
 1378ntf    fn411481   2.835   6.381   5.686  0.3087  0.4116  0.6320
 1378ntf    fn411482   2.777   6.204   5.587 -0.1972  0.2323 -0.0058
 1378ntf    fn411483   2.825   6.205   5.795  0.2771 -0.2740 -0.2637
 1378ntf    on511484   3.033   6.066   5.633 -0.1600 -0.0232 -0.0252
 1378ntf    on511485   3.056   6.277   5.518  0.7439 -0.3384  0.0446
 1378ntf    on511486   3.291   6.298   5.941  0.7590 -0.2250 -0.2305
 1378ntf    on511487   3.348   6.265   5.707 -0.0961 -0.3834 -0.0367
 1378ntf    fn411488   3.138   6.532   5.860 -0.1377  0.0939 -0.1876
 1378ntf    fn411489   3.196   6.516   5.656 -0.4643 -0.4976  0.2901
 1378ntf    fn411490   3.346   6.540   5.799  0.0020  0.1002  0.4826
 1379ntf    cn111491   6.469   4.269   6.205 -0.1371  0.6247  0.0569
 1379ntf    sn211492   6.382   4.242   6.362  0.0943  0.1089  0.0985
 1379ntf    nn311493   6.493   4.213   6.470  0.1693  0.5051  0.1325
 1379ntf    sn211494   6.593   4.093   6.456 -0.5942 -0.1636  0.2902
 1379ntf    cn111495   6.615   4.059   6.633 -0.0688 -0.1176  0.2370
 1379ntf    fn411496   6.507   4.155   6.150 -0.5122  0.3550  0.3524
 1379ntf    fn411497   6.387   4.320   6.115 -0.6628 -0.3788 -0.0522
 1379ntf    fn411498   6.574   4.348   6.220  0.4103  0.0525 -0.6556
 1379ntf    on511499   6.322   4.370   6.391  0.2826  0.2622 -0.1815
 1379ntf    on511500   6.297   4.127   6.342 -0.1339  0.2715  0.1251
 1379ntf    on511501   6.551   3.967   6.400 -0.2277  0.2085 -0.8642
 1379ntf    on511502   6.720   4.147   6.413 -0.5189 -0.4440  0.1615
 1379ntf    fn411503   6.604   4.173   6.699 -0.0614  0.1178 -0.1668
 1379ntf    fn411504   6.727   4.002   6.672 -0.0225 -0.0100  0.2611
 1379ntf    fn411505   6.512   3.984   6.672 -0.2109 -0.0861 -0.0739
 1380ntf    cn111506   0.380   6.339   6.186  0.1426 -0.3962 -0.0558
 1380ntf    sn211507   0.514   6.400   6.292 -0.1443  0.1818 -0.0238
 1380ntf    nn311508   0.495   6.550   6.249 -0.0298  0.1430 -0.2080
 1380ntf    sn211509   0.509   6.681   6.335 -0.3089  0.0021  0.0542
 1380ntf    cn111510   0.571   6.785   6.200 -0.2489  0.0249  0.0989
 1380ntf    fn411511   0.271   6.409   6.213  0.5402  0.1130  0.2520
 1380ntf    fn411512   0.391   6.345   6.054 -0.5320  0.0687 -0.0989
 1380ntf    fn411513   0.344   6.215   6.217 -0.2710 -0.1206  0.5941
 1380ntf    on511514   0.479   6.373   6.430  0.3610  0.2917  0.1284
 1380ntf    on511515   0.636   6.339   6.245  0.2348  0.3229  0.7537
 1380ntf    on511516   0.383   6.743   6.367 -0.1664  0.2619  0.1101
 1380ntf    on511517   0.615   6.695   6.432 -0.2191  0.5242 -0.1189
 1380ntf    fn411518   0.484   6.808   6.103  0.3019 -0.0903 -0.4279
 1380ntf    fn411519   0.675   6.741   6.132  0.2138  0.4524  0.5244
 1380ntf    fn411520   0.603   6.906   6.243 -0.1952  0.0450  0.0031
 1381ntf    cn111521   4.135   2.596   3.271  0.2426  0.2368  0.0499
 1381ntf    sn211522   4.042   2.619   3.426 -0.2074  0.0669 -0.1911
 1381ntf    nn311523   3.902   2.554   3.396 -0.3486  0.5770 -0.6481
 1381ntf    sn211524   3.766   2.555   3.472  0.0633 -0.0657  0.1075
 1381ntf    cn111525   3.766   2.388   3.542  0.3861 -0.0193  0.2198
 1381ntf    fn411526   4.258   2.645   3.275  0.5141 -0.4092 -0.2947
 1381ntf    fn411527   4.147   2.464   3.262  0.1192  0.2268  0.0281
 1381ntf    fn411528   4.077   2.631   3.158  0.3653  0.4286  0.0468
 1381ntf    on511529   4.124   2.545   3.518 -0.0590 -0.3332 -0.6410
 1381ntf    on511530   4.034   2.762   3.446 -0.6780  0.0393 -0.1800
 1381ntf    on511531   3.762   2.644   3.586  0.3217  0.2382 -0.1189
 1381ntf    on511532   3.650   2.563   3.386  0.4754 -0.1331 -0.4541
 1381ntf    fn411533   3.724   2.300   3.452  0.1541  0.3199 -0.0026
 1381ntf    fn411534   3.688   2.379   3.649 -0.2278  0.3174 -0.1901
 1381ntf    fn411535   3.886   2.343   3.575  0.4527  0.1842  0.2532
 1382ntf    cn111536   2.369   6.350   2.091  0.1942  0.1656  0.5678
 1382ntf    sn211537   2.404   6.513   2.020  0.2590 -0.1506 -0.1358
 1382ntf    nn311538   2.262   6.547   1.963  0.2103 -0.4287 -0.1792
 1382ntf    sn211539   2.212   6.679   1.895  0.2816 -0.0675  0.4682
 1382ntf    cn111540   2.108   6.768   2.016 -0.1890 -0.5506  0.4236
 1382ntf    fn411541   2.253   6.330   2.153 -0.5659  0.4650 -0.7258
 1382ntf    fn411542   2.366   6.252   2.002  0.1271  0.2898  0.4342
 1382ntf    fn411543   2.468   6.306   2.168  0.2145 -0.1236  0.3801
 1382ntf    on511544   2.438   6.599   2.131 -0.3945 -0.1905  0.1007
 1382ntf    on511545   2.500   6.494   1.915  0.4681 -0.2949  0.0808
 1382ntf    on511546   2.307   6.779   1.854 -0.1523  0.3131  0.3759
 1382ntf    on511547   2.124   6.634   1.790  0.6169  0.3681 -0.0051
 1382ntf    fn411548   2.173   6.781   2.130  0.5483  0.3032 -0.0750
 1382ntf    fn411549   1.994   6.708   2.046 -0.5090 -0.7028 -0.9877
 1382ntf    fn411550   2.074   6.892   1.986  0.4400 -0.4923 -0.0911
 1383ntf    cn111551   3.842   3.501   5.982 -0.1992 -0.0218 -0.3459
 1383ntf    sn211552   3.965   3.629   5.941 -0.1412  0.0073 -0.0787
 1383ntf    nn311553   3.984   3.707   6.076  0.4382 -0.4681  0.1215
 1383ntf    sn211554   4.101   3.731   6.177  0.1810 -0.0887  0.3334
 1383ntf    cn111555   4.007   3.697   6.329 -0.2352 -0.2538  0.0403
 1383ntf    fn411556   3.805   3.431   5.875  0.4244  0.4706 -0.8973
 1383ntf    fn411557   3.896   3.415   6.067 -0.1098  0.5425  0.1722
 1383ntf    fn411558   3.731   3.550   6.034 -0.2641 -0.5106 -0.0170
 1383ntf    on511559   4.080   3.554   5.898 -0.1895 -0.0409 -0.1244
 1383ntf    on511560   3.897   3.703   5.838  0.1271 -0.0144 -0.2718
 1383ntf    on511561   4.210   3.636   6.183  0.5248  0.2953  0.2443
 1383ntf    on511562   4.135   3.870   6.198  0.2670 -0.0169 -0.2529
 1383ntf    fn411563   4.087   3.706   6.434 -0.4338  0.3063  0.1494
 1383ntf    fn411564   3.935   3.587   6.341 -0.1194 -0.3262  0.0756
 1383ntf    fn411565   3.923   3.796   6.353  0.3347  0.2342  0.0423
 1384ntf    cn111566   3.331   2.812   4.019 -0.0926  0.1321 -0.1488
 1384ntf    sn211567   3.379   2.646   3.960 -0.2362  0.0107  0.0743
 1384ntf    nn311568   3.234   2.601   3.917 -0.3947  0.3507  0.2452
 1384ntf    sn211569   3.170   2.594   3.774 -0.0292  0.1850  0.0870
 1384ntf    cn111570   3.205   2.424   3.721  0.1898  0.3101 -0.1713
 1384ntf    fn411571   3.432   2.862   4.089 -0.0664 -0.4294  0.2264
 1384ntf    fn411572   3.293   2.896   3.925 -0.2778  0.1181 -0.0861
 1384ntf    fn411573   3.228   2.804   4.102 -0.2237 -0.0115 -0.3247
 1384ntf    on511574   3.476   2.666   3.856 -0.3231  0.0541  0.0008
 1384ntf    on511575   3.416   2.577   4.081 -0.3053  0.0010  0.0908
 1384ntf    on511576   3.026   2.603   3.782 -0.0991 -0.3497 -0.5171
 1384ntf    on511577   3.230   2.680   3.675  0.3055  0.2684  0.3604
 1384ntf    fn411578   3.335   2.406   3.706  0.0276 -0.4471 -0.7299
 1384ntf    fn411579   3.144   2.379   3.613  0.0667 -0.1462  0.0870
 1384ntf    fn411580   3.166   2.330   3.806  0.5425  0.5049  0.2082
 1385ntf    cn111581   1.799   0.591   0.299 -0.1214  0.1953  0.2282
 1385ntf    sn211582   1.879   0.726   0.390 -0.0936  0.1260  0.3070
 1385ntf    nn311583   2.030   0.690   0.368 -0.0531  0.3990  0.1396
 1385ntf    sn211584   2.119   0.598   0.459 -0.1449 -0.3484 -0.5133
 1385ntf    cn111585   2.166   0.717   0.588 -0.1712 -0.4399 -0.4189
 1385ntf    fn411586   1.674   0.620   0.267 -0.0629  0.1040 -0.0856
 1385ntf    fn411587   1.857   0.574   0.181 -0.5455 -0.2470  0.0789
 1385ntf    fn411588   1.801   0.477   0.366  0.3403 -0.0379 -0.1754
 1385ntf    on511589   1.844   0.841   0.311 -0.6924 -0.3842 -0.1692
 1385ntf    on511590   1.830   0.725   0.526  0.6279  0.5162  0.5784
 1385ntf    on511591   2.048   0.503   0.542  0.0528  0.0181  0.0883
 1385ntf    on511592   2.246   0.557   0.407  0.0792 -1.0925  0.5836
 1385ntf    fn411593   2.255   0.666   0.672 -0.0482  0.1625 -0.1752
 1385ntf    fn411594   2.066   0.766   0.660  0.2213  0.4777 -0.4795
 1385ntf    fn411595   2.230   0.826   0.549  0.2169 -0.3412  0.4703
 1386ntf    cn111596   2.730   5.603   2.808 -0.0431  0.4302  0.6279
 1386ntf    sn211597   2.573   5.691   2.833 -0.4060 -0.0838  0.1745
 1386ntf    nn311598   2.479   5.568   2.863 -0.6764  0.0295 -0.2067
 1386ntf    sn211599   2.400   5.489   2.752 -0.0144 -0.1297 -0.5691
 1386ntf    cn111600   2.244   5.582   2.746  0.0129 -0.0352  0.0703
 1386ntf    fn411601   2.759   5.514   2.901  0.5511 -0.4316 -0.3596
 1386ntf    fn411602   2.740   5.539   2.693 -0.4467 -0.1441  0.9112
 1386ntf    fn411603   2.829   5.691   2.809  0.4170 -0.0673 -0.1910
 1386ntf    on511604   2.587   5.775   2.950  0.0411  0.4537 -0.2658
 1386ntf    on511605   2.563   5.757   2.706  0.2403 -0.7514 -0.2274
 1386ntf    on511606   2.464   5.484   2.624  0.0903 -0.7030 -0.4938
 1386ntf    on511607   2.358   5.360   2.800 -0.1875 -0.0362 -0.4648
 1386ntf    fn411608   2.257   5.702   2.800 -0.0665  0.1865 -0.3952
 1386ntf    fn411609   2.135   5.532   2.803 -0.4122  0.5581 -0.2064
 1386ntf    fn411610   2.201   5.610   2.624 -0.3501  0.2900  0.2696
 1387ntf    cn111611   5.595   3.436   4.459 -0.4175 -0.0431  0.1692
 1387ntf    sn211612   5.684   3.577   4.534 -0.0693 -0.2955  0.2306
 1387ntf    nn311613   5.556   3.662   4.567 -0.4262 -0.6588 -0.1989
 1387ntf    sn211614   5.515   3.808   4.527  0.2016 -0.4984 -0.2617
 1387ntf    cn111615   5.336   3.776   4.522  0.1372 -0.2135  0.1556
 1387ntf    fn411616   5.536   3.482   4.350 -0.4454  0.2273  0.2969
 1387ntf    fn411617   5.674   3.336   4.424 -0.1945  0.0138  0.5102
 1387ntf    fn411618   5.498   3.388   4.534 -0.4251 -0.2470  0.0277
 1387ntf    on511619   5.746   3.517   4.649  0.5820  0.0883  0.0858
 1387ntf    on511620   5.769   3.636   4.433 -0.1391 -0.2384  0.2057
 1387ntf    on511621   5.533   3.897   4.640 -0.4667 -0.3120 -0.3019
 1387ntf    on511622   5.555   3.839   4.392  0.4780  0.4509  0.0318
 1387ntf    fn411623   5.265   3.886   4.504  0.2786 -0.0427  0.6199
 1387ntf    fn411624   5.284   3.710   4.624 -0.1716 -0.0547  0.1009
 1387ntf    fn411625   5.313   3.689   4.426  0.2015 -0.1313  0.0649
 1388ntf    cn111626   3.077   5.802   4.172 -0.1745 -0.3103 -0.4589
 1388ntf    sn211627   3.240   5.881   4.190 -0.2568 -0.2270 -0.0686
 1388ntf    nn311628   3.308   5.859   4.050 -0.3252 -0.2937 -0.0914
 1388ntf    sn211629   3.423   5.758   4.015  0.1480  0.1322  0.2145
 1388ntf    cn111630   3.569   5.866   4.000  0.0847  0.1871 -0.0194
 1388ntf    fn411631   3.091   5.671   4.161  0.0966 -0.3118 -0.0966
 1388ntf    fn411632   3.002   5.827   4.278 -0.3893  0.0360 -0.6866
 1388ntf    fn411633   3.014   5.848   4.065  0.2706 -0.4566 -0.7846
 1388ntf    on511634   3.203   6.017   4.217  0.4484 -0.0472  0.0074
 1388ntf    on511635   3.299   5.801   4.294 -0.2464  0.0376  0.1305
 1388ntf    on511636   3.465   5.665   4.116  0.0385 -0.1561 -0.0044
 1388ntf    on511637   3.416   5.702   3.882  1.0045  0.4862  0.0140
 1388ntf    fn411638   3.546   5.957   3.907  0.0195  0.2252  0.0342
 1388ntf    fn411639   3.683   5.812   3.960  0.2172  0.2696  0.2472
 1388ntf    fn411640   3.588   5.931   4.114 -0.0038 -0.0779  0.1484
 1389ntf    cn111641   3.230   6.203   2.368  0.0144 -0.2518  0.1200
 1389ntf    sn211642   3.144   6.044   2.378 -0.1399 -0.1601  0.2570
 1389ntf    nn311643   3.047   6.060   2.255 -0.2226 -0.3785  0.2930
 1389ntf    sn211644   2.897   6.103   2.241 -0.0206  0.2247 -0.0389
 1389ntf    cn111645   2.868   6.097   2.061 -0.1378  0.1278 -0.0169
 1389ntf    fn411646   3.320   6.214   2.466  0.4694 -0.4814 -0.2675
 1389ntf    fn411647   3.293   6.227   2.254  0.3355  0.5608  0.4597
 1389ntf    fn411648   3.144   6.303   2.381 -0.0881 -0.3347  0.0695
 1389ntf    on511649   3.248   5.951   2.343 -0.5575 -0.3744 -0.4466
 1389ntf    on511650   3.086   6.046   2.510  0.6844  0.0899  0.6204
 1389ntf    on511651   2.797   6.010   2.287  0.3392 -0.4661 -0.6225
 1389ntf    on511652   2.873   6.242   2.271 -0.0212  0.2954 -0.3618
 1389ntf    fn411653   2.876   5.975   2.011 -0.1528  0.0817  0.0903
 1389ntf    fn411654   2.954   6.177   2.001  0.1593  0.2030  0.4983
 1389ntf    fn411655   2.752   6.145   2.021 -0.3419 -0.6284 -0.3410
 1390ntf    cn111656   5.720   3.826   6.233  0.0736  0.0530  0.0397
 1390ntf    sn211657   5.795   3.660   6.239  0.2902  0.1595  0.2726
 1390ntf    nn311658   5.659   3.581   6.243  0.5819 -0.3385  0.4282
 1390ntf    sn211659   5.578   3.525   6.121  0.1300 -0.0012  0.5701
 1390ntf    cn111660   5.631   3.351   6.122  0.2594  0.0307  0.0229
 1390ntf    fn411661   5.634   3.844   6.331 -0.3484  0.2231 -0.3608
 1390ntf    fn411662   5.818   3.914   6.242  0.0834  0.1473 -0.8337
 1390ntf    fn411663   5.647   3.850   6.125 -0.3893 -0.1472  0.3037
 1390ntf    on511664   5.874   3.645   6.119  0.2802 -0.0185  0.2886
 1390ntf    on511665   5.868   3.661   6.363  0.2549 -0.1462  0.2976
 1390ntf    on511666   5.439   3.517   6.159 -0.1173  0.2003 -0.2697
 1390ntf    on511667   5.612   3.568   5.987  0.4805  0.0673  0.6798
 1390ntf    fn411668   5.572   3.286   6.221 -0.3837  0.0401 -0.3548
 1390ntf    fn411669   5.761   3.338   6.145  0.0986 -0.6043  0.6242
 1390ntf    fn411670   5.596   3.294   6.008 -0.2133  0.3568  0.0023
 1391ntf    cn111671   6.331   4.861   6.409  0.0422 -0.0460 -0.0242
 1391ntf    sn211672   6.277   4.984   6.532  0.1205  0.0207 -0.0576
 1391ntf    nn311673   6.206   5.097   6.449  0.0729 -0.1861 -0.3003
 1391ntf    sn211674   6.207   5.254   6.455  0.0518 -0.1988  0.0354
 1391ntf    cn111675   6.237   5.294   6.280  0.2685 -0.1264  0.0890
 1391ntf    fn411676   6.240   4.821   6.322  0.2040  0.0358 -0.2296
 1391ntf    fn411677   6.428   4.907   6.332 -0.0958  0.5509  0.1524
 1391ntf    fn411678   6.374   4.749   6.464 -0.1226 -0.0691  0.0578
 1391ntf    on511679   6.180   4.908   6.606  0.2536  0.2360  0.3402
 1391ntf    on511680   6.398   5.021   6.602 -0.1388  0.6371  0.0753
 1391ntf    on511681   6.078   5.317   6.475  0.0108 -0.5456  0.9009
 1391ntf    on511682   6.326   5.301   6.522 -0.0168 -0.2314  0.1804
 1391ntf    fn411683   6.333   5.380   6.249  0.3364 -0.2682 -0.0933
 1391ntf    fn411684   6.129   5.344   6.223  0.3838  0.0235 -0.0001
 1391ntf    fn411685   6.264   5.185   6.211 -0.1059 -0.3467  0.2897
 1392ntf    cn111686   2.838   2.742   4.566 -0.3273  0.3476 -0.2509
 1392ntf    sn211687   2.840   2.585   4.475 -0.1288  0.0054  0.3483
 1392ntf    nn311688   2.793   2.492   4.594 -0.6100 -0.4420 -0.1842
 1392ntf    sn211689   2.883   2.377   4.650  0.0746  0.0935 -0.1671
 1392ntf    cn111690   2.758   2.248   4.677 -0.1261  0.2959 -0.1293
 1392ntf    fn411691   2.923   2.748   4.666 -0.0923 -0.1216 -0.4221
 1392ntf    fn411692   2.864   2.846   4.488  0.0942  0.1389 -0.3907
 1392ntf    fn411693   2.720   2.770   4.619 -0.1116 -0.3411  0.6049
 1392ntf    on511694   2.743   2.591   4.369  0.3909  0.1684 -0.1173
 1392ntf    on511695   2.973   2.569   4.423 -0.3622  0.2550 -0.3277
 1392ntf    on511696   2.979   2.308   4.567 -0.3587 -0.4364 -0.2302
 1392ntf    on511697   2.918   2.406   4.787  0.5734 -0.1168 -0.2477
 1392ntf    fn411698   2.670   2.277   4.772 -0.2552  0.2284 -0.2271
 1392ntf    fn411699   2.817   2.134   4.709 -0.5924 -0.1076 -0.6746
 1392ntf    fn411700   2.688   2.224   4.567  0.1706  0.5363 -0.3728
 1393ntf    cn111701   0.180   4.746   4.070 -0.4633  0.3500  0.1821
 1393ntf    sn211702   0.311   4.729   3.946 -0.2919 -0.0951  0.4209
 1393ntf    nn311703   0.437   4.749   4.037 -0.1254  0.2260  0.1248
 1393ntf    sn211704   0.573   4.670   4.041 -0.0506  0.3217 -0.3939
 1393ntf    cn111705   0.591   4.624   4.216 -0.1113 -0.2212 -0.5291
 1393ntf    fn411706   0.187   4.659   4.169  0.0346 -0.1258 -0.2664
 1393ntf    fn411707   0.186   4.870   4.116 -0.1198  0.3141  0.2384
 1393ntf    fn411708   0.061   4.735   4.014 -0.1894  0.6318 -0.4593
 1393ntf    on511709   0.298   4.596   3.892 -0.1591  0.1746 -0.2960
 1393ntf    on511710   0.272   4.836   3.857  0.2740  0.1220  0.4314
 1393ntf    on511711   0.571   4.539   3.981  0.3082  0.3981 -0.5713
 1393ntf    on511712   0.685   4.759   4.022 -0.2340  0.6326 -0.0396
 1393ntf    fn411713   0.614   4.727   4.295 -0.0967 -0.3645 -0.3449
 1393ntf    fn411714   0.692   4.543   4.245  0.1067  0.3562  0.3485
 1393ntf    fn411715   0.478   4.566   4.255 -0.2416  0.2486 -0.2000
 1394ntf    cn111716   3.369   5.604   6.031  0.3034 -0.0870 -0.3830
 1394ntf    sn211717   3.217   5.675   5.962 -0.1415 -0.4560  0.2040
 1394ntf    nn311718   3.224   5.637   5.810  0.1212 -0.1261  0.1317
 1394ntf    sn211719   3.205   5.498   5.738  0.2155 -0.0701 -0.0009
 1394ntf    cn111720   3.038   5.504   5.669  0.2631  0.2718 -0.0904
 1394ntf    fn411721   3.412   5.658   6.144 -0.9161  0.0340  0.0444
 1394ntf    fn411722   3.352   5.474   6.050  0.1715  0.0333  0.3683
 1394ntf    fn411723   3.470   5.612   5.946  0.0292 -0.2272 -0.7207
 1394ntf    on511724   3.107   5.612   6.031 -0.4973 -0.3097 -0.2281
 1394ntf    on511725   3.238   5.817   5.982 -0.1110 -0.4629  0.2210
 1394ntf    on511726   3.287   5.488   5.620  0.2726  0.3839 -0.0048
 1394ntf    on511727   3.199   5.373   5.810  0.0925  0.0685  0.2328
 1394ntf    fn411728   3.019   5.599   5.579  0.0916  0.2042 -0.1265
 1394ntf    fn411729   2.939   5.521   5.755  0.2716 -0.6534  0.1079
 1394ntf    fn411730   3.010   5.388   5.612 -0.1016  0.0190  0.5879
 1395ntf    cn111731   2.845   1.469   5.416 -0.2674  0.0409  0.2623
 1395ntf    sn211732   2.934   1.627   5.401 -0.2214  0.0206  0.3196
 1395ntf    nn311733   2.811   1.711   5.449 -0.4870 -0.1499 -0.0565
 1395ntf    sn211734   2.788   1.866   5.434  0.1830 -0.0135  0.2855
 1395ntf    cn111735   2.645   1.886   5.324  0.1226 -0.0467  0.3572
 1395ntf    fn411736   2.783   1.438   5.529 -0.2743 -0.6593  0.0695
 1395ntf    fn411737   2.754   1.458   5.321 -0.3772 -0.0609  0.3798
 1395ntf    fn411738   2.926   1.366   5.395 -0.6395 -0.4564  1.2351
 1395ntf    on511739   3.044   1.619   5.494  0.1269  0.4605 -0.0496
 1395ntf    on511740   2.963   1.627   5.259 -0.0477  0.6281  0.3533
 1395ntf    on511741   2.739   1.920   5.558  0.2314  0.3121  0.1628
 1395ntf    on511742   2.895   1.939   5.370 -0.1522  0.0975 -0.1536
 1395ntf    fn411743   2.665   1.841   5.201 -0.2813  0.1034  0.2342
 1395ntf    fn411744   2.621   2.013   5.293  0.4464 -0.1317 -0.2507
 1395ntf    fn411745   2.535   1.831   5.372 -0.0697  0.0198 -0.0031
 1396ntf    cn111746   5.303   3.357   5.361  0.2427  0.1125 -0.1692
 1396ntf    sn211747   5.408   3.369   5.213  0.1623 -0.1491 -0.2479
 1396ntf    nn311748   5.363   3.511   5.166 -0.1171 -0.1709 -0.0520
 1396ntf    sn211749   5.411   3.648   5.225 -0.0952 -0.0507 -0.3433
 1396ntf    cn111750   5.390   3.751   5.077 -0.2645  0.0098 -0.2777
 1396ntf    fn411751   5.177   3.365   5.323  0.1089  0.5356  0.3554
 1396ntf    fn411752   5.319   3.249   5.437  0.3126  0.0686 -0.2459
 1396ntf    fn411753   5.325   3.466   5.433 -0.1970 -0.2386  0.5031
 1396ntf    on511754   5.547   3.362   5.253  0.1328  0.3703 -0.0527
 1396ntf    on511755   5.363   3.264   5.125 -0.5341 -0.1878  0.1515
 1396ntf    on511756   5.314   3.706   5.315  0.2793  0.5360 -0.3110
 1396ntf    on511757   5.550   3.663   5.259 -0.1782  0.6317 -0.2839
 1396ntf    fn411758   5.464   3.707   4.976  0.0213 -0.0881 -0.0247
 1396ntf    fn411759   5.412   3.880   5.092  0.8106 -0.2117  0.0923
 1396ntf    fn411760   5.266   3.746   5.030 -0.7333 -0.1512  0.9296
 1397ntf    cn111761   5.142   2.176   4.976  0.7317  0.2100  0.1111
 1397ntf    sn211762   5.244   2.087   4.855  0.5733 -0.2329  0.3034
 1397ntf    nn311763   5.286   2.187   4.742  0.0912 -0.7791 -0.3681
 1397ntf    sn211764   5.416   2.188   4.655  0.3126 -0.5001 -0.0378
 1397ntf    cn111765   5.517   2.319   4.731 -0.1269 -0.3920  0.3670
 1397ntf    fn411766   5.106   2.102   5.080  0.2464  0.0902 -0.1417
 1397ntf    fn411767   5.204   2.277   5.036  0.6380  0.0408  0.4930
 1397ntf    fn411768   5.031   2.220   4.920  0.3679 -0.9661 -0.1190
 1397ntf    on511769   5.349   2.032   4.939  0.1913 -0.6745  0.4993
 1397ntf    on511770   5.135   1.998   4.823  0.3492  0.3732 -0.6467
 1397ntf    on511771   5.499   2.070   4.663  0.0993 -0.6432  0.0886
 1397ntf    on511772   5.390   2.231   4.520  0.7424  0.6451  0.2348
 1397ntf    fn411773   5.635   2.337   4.674 -0.0986 -0.1070  0.5179
 1397ntf    fn411774   5.544   2.276   4.853 -0.0295  0.2392  0.5697
 1397ntf    fn411775   5.463   2.439   4.728  0.3924 -0.1674 -0.0341
 1398ntf    cn111776   1.451   2.091   0.007  0.3002 -0.0789  0.1859
 1398ntf    sn211777   1.571   2.209  -0.063 -0.0781  0.2493  0.0895
 1398ntf    nn311778   1.550   2.178  -0.215  0.1344 -0.3246  0.1753
 1398ntf    sn211779   1.635   2.093  -0.316  0.0376 -0.0184 -0.1658
 1398ntf    cn111780   1.738   2.218  -0.397  0.0020 -0.0731 -0.2973
 1398ntf    fn411781   1.325   2.122  -0.019  0.3592 -0.3756 -0.4497
 1398ntf    fn411782   1.473   1.965  -0.027 -0.0453 -0.2657  0.6321
 1398ntf    fn411783   1.450   2.088   0.140  0.4450  0.3575  0.1987
 1398ntf    on511784   1.515   2.336  -0.023 -0.2549  0.5351 -1.0273
 1398ntf    on511785   1.696   2.169  -0.004  0.0197 -0.0872 -0.3449
 1398ntf    on511786   1.733   2.004  -0.258  0.0462 -0.2514 -0.5306
 1398ntf    on511787   1.559   2.038  -0.426  0.6232 -0.5975 -0.2894
 1398ntf    fn411788   1.849   2.252  -0.332 -0.3210 -0.1934  0.3228
 1398ntf    fn411789   1.672   2.332  -0.401  0.0669 -0.0308 -0.1842
 1398ntf    fn411790   1.768   2.191  -0.523  0.1985 -0.5852 -0.1453
 1399ntf    cn111791   2.526   6.040   0.568  0.3749  0.1084 -0.0067
 1399ntf    sn211792   2.628   6.166   0.650 -0.2218  0.4322  0.2401
 1399ntf    nn311793   2.767   6.098   0.623  0.0293  0.9113  0.3010
 1399ntf    sn211794   2.903   6.108   0.701  0.1179 -0.0847  0.2892
 1399ntf    cn111795   2.988   6.223   0.589 -0.0348 -0.2718 -0.0200
 1399ntf    fn411796   2.550   6.047   0.438  0.1876  0.2216 -0.0353
 1399ntf    fn411797   2.538   5.915   0.609 -0.1826  0.0015 -0.1679
 1399ntf    fn411798   2.399   6.066   0.592  0.4872  0.4513  0.2192
 1399ntf    on511799   2.609   6.285   0.571  0.5634  0.1863 -0.3293
 1399ntf    on511800   2.587   6.161   0.788 -0.0302 -0.4313  0.2718
 1399ntf    on511801   2.892   6.177   0.827 -0.2748 -0.3388  0.3966
 1399ntf    on511802   2.989   5.993   0.689 -0.5067 -0.5916  0.5423
 1399ntf    fn411803   2.918   6.334   0.573  0.1027 -0.1799  0.0146
 1399ntf    fn411804   3.001   6.175   0.466 -0.1567 -0.0812 -0.1078
 1399ntf    fn411805   3.111   6.255   0.625 -0.2606  0.6263 -0.0307
 1400ntf    cn111806   6.188   0.504   1.434  0.2815  0.6098  0.0305
 1400ntf    sn211807   6.221   0.535   1.610 -0.0183 -0.2567  0.2418
 1400ntf    nn311808   6.226   0.692   1.604  0.1715 -0.2698  0.0474
 1400ntf    sn211809   6.350   0.787   1.590 -0.3476  0.3062 -0.6813
 1400ntf    cn111810   6.388   0.812   1.766 -0.4996 -0.0428 -0.5970
 1400ntf    fn411811   6.131   0.610   1.379  0.2422  0.3489 -0.4403
 1400ntf    fn411812   6.300   0.484   1.365  0.1375  0.2994 -0.1151
 1400ntf    fn411813   6.108   0.401   1.414  0.5073  0.5043 -0.3550
 1400ntf    on511814   6.095   0.513   1.678 -0.1869  0.6583  0.2334
 1400ntf    on511815   6.332   0.451   1.645  0.1174 -0.0446  0.3202
 1400ntf    on511816   6.469   0.730   1.532 -0.3895 -0.3115 -0.1776
 1400ntf    on511817   6.309   0.916   1.541  0.0633  0.3964 -0.7924
 1400ntf    fn411818   6.401   0.698   1.830 -0.1045  0.1255 -0.3749
 1400ntf    fn411819   6.296   0.890   1.820 -0.1240 -0.3375  0.4811
 1400ntf    fn411820   6.503   0.871   1.796 -0.4088 -0.5099 -0.0272
 1401ntf    cn111821   4.672   3.248   5.465 -0.1990  0.2862 -0.4521
 1401ntf    sn211822   4.798   3.363   5.527 -0.1892 -0.0380  0.1324
 1401ntf    nn311823   4.722   3.451   5.632 -0.0828 -0.0903  0.2543
 1401ntf    sn211824   4.642   3.585   5.613  0.1898  0.0115 -0.1813
 1401ntf    cn111825   4.746   3.680   5.728  0.0930 -0.0517 -0.0432
 1401ntf    fn411826   4.596   3.196   5.560 -0.4212 -0.1895 -0.8851
 1401ntf    fn411827   4.589   3.306   5.380 -0.2554  0.4485 -0.2882
 1401ntf    fn411828   4.720   3.144   5.400 -0.2912 -0.1959  0.2454
 1401ntf    on511829   4.893   3.270   5.584  0.2053  0.0896 -0.3098
 1401ntf    on511830   4.851   3.426   5.409 -0.1536  0.3496  0.3547
 1401ntf    on511831   4.659   3.656   5.488  0.3088 -0.4377 -0.4248
 1401ntf    on511832   4.513   3.585   5.677  0.4154 -0.0794  0.2708
 1401ntf    fn411833   4.876   3.662   5.715  0.0840 -0.2133  0.0848
 1401ntf    fn411834   4.716   3.641   5.851 -0.6998  0.6227 -0.0111
 1401ntf    fn411835   4.728   3.811   5.720 -0.0483 -0.0517  0.2417
 1402ntf    cn111836   3.590   3.852   4.596  0.2553 -0.1847  0.3765
 1402ntf    sn211837   3.684   4.007   4.588  0.0928 -0.1120 -0.1966
 1402ntf    nn311838   3.816   3.943   4.531 -0.0496  0.0963 -0.7661
 1402ntf    sn211839   3.962   4.001   4.538 -0.0314 -0.0225 -0.0031
 1402ntf    cn111840   4.041   3.892   4.660 -0.1227  0.0250  0.0984
 1402ntf    fn411841   3.473   3.868   4.655 -0.0625 -0.0298 -0.2865
 1402ntf    fn411842   3.571   3.791   4.480 -0.7100  0.3603  0.2358
 1402ntf    fn411843   3.653   3.761   4.669  0.0103 -0.5025  0.1963
 1402ntf    on511844   3.616   4.094   4.496  0.2038 -0.2374 -0.3976
 1402ntf    on511845   3.681   4.040   4.728  0.2698  0.3214 -0.2929
 1402ntf    on511846   4.030   3.954   4.420 -0.1134 -0.0513 -0.0386
 1402ntf    on511847   3.987   4.130   4.598  0.6100 -0.1494  0.0098
 1402ntf    fn411848   4.164   3.932   4.686  0.3957 -1.0660 -0.6065
 1402ntf    fn411849   4.048   3.765   4.624 -0.0514 -0.1820  0.8263
 1402ntf    fn411850   3.969   3.896   4.771  0.2407  0.6028  0.3171
 1403ntf    cn111851   2.994   4.002   0.057  0.0617 -0.0080 -0.0474
 1403ntf    sn211852   2.998   4.182   0.028 -0.3077  0.0462  0.2408
 1403ntf    nn311853   2.936   4.223   0.166 -0.2362  0.2594  0.2088
 1403ntf    sn211854   3.003   4.264   0.302 -0.0074  0.0305  0.1645
 1403ntf    cn111855   3.009   4.445   0.287  0.4350  0.0110  0.0749
 1403ntf    fn411856   2.868   3.962   0.060  0.2082 -0.4964 -0.3211
 1403ntf    fn411857   3.048   3.935  -0.044  0.2392  0.4210 -0.2408
 1403ntf    fn411858   3.040   3.963   0.175  0.1571 -0.0055 -0.0834
 1403ntf    on511859   3.139   4.205   0.012 -0.2057 -0.2634  0.6756
 1403ntf    on511860   2.908   4.200  -0.083 -0.0398 -0.2716 -0.0309
 1403ntf    on511861   2.917   4.236   0.414 -0.3296  0.1476 -0.0508
 1403ntf    on511862   3.140   4.221   0.316 -0.2475 -0.7307  0.2348
 1403ntf    fn411863   3.063   4.504   0.393  0.2027  0.3473  0.0077
 1403ntf    fn411864   2.886   4.494   0.278  0.3099 -0.3091  0.0167
 1403ntf    fn411865   3.078   4.481   0.180 -0.3383  0.1410 -0.3898
 1404ntf    cn111866   6.557   2.971   2.172  0.0908 -0.0762 -0.1280
 1404ntf    sn211867   6.719   2.918   2.234  0.0965  0.0349 -0.0498
 1404ntf    nn311868   6.827   2.984   2.141  0.2044  0.8403  0.6303
 1404ntf    sn211869   6.810   3.117   2.059 -0.2027  0.2728 -0.2203
 1404ntf    cn111870   6.971   3.113   1.974 -0.2265  0.1568 -0.2600
 1404ntf    fn411871   6.448   2.925   2.231 -0.0025  0.5841  0.2324
 1404ntf    fn411872   6.531   3.101   2.163 -0.1916 -0.0972  0.3633
 1404ntf    fn411873   6.553   2.918   2.051  0.1703 -0.3166 -0.0242
 1404ntf    on511874   6.710   2.981   2.364  0.6799 -0.3135  0.1657
 1404ntf    on511875   6.721   2.775   2.223  0.1578  0.0169  0.1983
 1404ntf    on511876   6.708   3.101   1.958 -0.1090  0.3754 -0.3318
 1404ntf    on511877   6.816   3.236   2.140 -0.0856  0.0868  0.0436
 1404ntf    fn411878   6.995   3.220   1.899 -0.2334  0.3309 -0.0132
 1404ntf    fn411879   6.988   3.008   1.895  0.0453 -0.2400  0.3256
 1404ntf    fn411880   7.072   3.111   2.058 -0.0191  0.4344 -0.4987
 1405ntf    cn111881   4.742   5.380   3.452 -0.6678 -0.0645  0.0557
 1405ntf    sn211882   4.919   5.419   3.442 -0.6058 -0.3613 -0.0091
 1405ntf    nn311883   4.991   5.300   3.515  0.1492  0.2463  0.2527
 1405ntf    sn211884   5.085   5.186   3.462 -0.2923 -0.1470  0.3071
 1405ntf    cn111885   5.250   5.258   3.482 -0.2902 -0.0725  0.0307
 1405ntf    fn411886   4.709   5.277   3.376 -0.1122 -0.3055  0.1403
 1405ntf    fn411887   4.701   5.350   3.574 -0.6312 -0.2405  0.0243
 1405ntf    fn411888   4.669   5.479   3.401  0.2245  0.4524 -0.2305
 1405ntf    on511889   4.949   5.437   3.302  0.0627  0.0112  0.1789
 1405ntf    on511890   4.940   5.538   3.520  0.2703 -0.5288  0.0245
 1405ntf    on511891   5.087   5.068   3.546 -0.0923 -0.4016 -0.0501
 1405ntf    on511892   5.087   5.158   3.320  0.9323  0.3507  0.2150
 1405ntf    fn411893   5.246   5.319   3.599  0.1068  0.3840 -0.1918
 1405ntf    fn411894   5.269   5.353   3.393  0.0722 -0.0680  0.1078
 1405ntf    fn411895   5.353   5.174   3.477 -0.5685 -0.3733 -0.6386
 1406ntf    cn111896   6.324   0.971   0.835 -0.1395  0.1469  0.4252
 1406ntf    sn211897   6.314   0.789   0.844  0.2905  0.1072  0.1295
 1406ntf    nn311898   6.380   0.751   0.707  0.3250 -0.3214  0.2662
 1406ntf    sn211899   6.535   0.734   0.688  0.3457 -0.3422  0.4554
 1406ntf    cn111900   6.564   0.558   0.725 -0.1184 -0.4920  0.1151
 1406ntf    fn411901   6.263   1.032   0.936 -0.2405  0.2997  0.2724
 1406ntf    fn411902   6.448   1.013   0.846 -0.0515 -0.1919  0.7552
 1406ntf    fn411903   6.278   1.019   0.720  0.3356  0.2157  0.2628
 1406ntf    on511904   6.390   0.755   0.961  0.5388  0.3929  0.0550
 1406ntf    on511905   6.173   0.761   0.853  0.2534  0.2814  0.1087
 1406ntf    on511906   6.573   0.737   0.550 -0.3878 -0.5122  0.2439
 1406ntf    on511907   6.610   0.819   0.777 -0.0941  1.3316 -0.7294
 1406ntf    fn411908   6.513   0.489   0.625 -0.0817 -0.2857 -0.0474
 1406ntf    fn411909   6.515   0.506   0.836 -0.0690 -0.1404  0.3018
 1406ntf    fn411910   6.694   0.533   0.734 -0.0685 -0.1706  0.2981
 1407ntf    cn111911   0.923   1.570   3.823 -0.3006  0.2524 -0.0309
 1407ntf    sn211912   1.100   1.532   3.816 -0.3631  0.0038 -0.2800
 1407ntf    nn311913   1.098   1.393   3.889  0.5454  0.2003  0.1388
 1407ntf    sn211914   1.141   1.254   3.828  0.2618  0.0154  0.3574
 1407ntf    cn111915   1.321   1.245   3.844  0.2723  0.3051  0.4058
 1407ntf    fn411916   0.877   1.579   3.947 -0.2428 -0.3505  0.0403
 1407ntf    fn411917   0.893   1.686   3.768 -0.0754  0.5213  0.4106
 1407ntf    fn411918   0.846   1.476   3.770 -0.1035  0.0742 -0.0011
 1407ntf    on511919   1.128   1.534   3.674  0.5511  1.1505 -0.0992
 1407ntf    on511920   1.149   1.642   3.895  0.4685 -0.1040 -0.6287
 1407ntf    on511921   1.095   1.143   3.907  0.0618  0.1073  0.3736
 1407ntf    on511922   1.123   1.243   3.685  0.0987  0.0481  0.3753
 1407ntf    fn411923   1.349   1.253   3.973  0.2365  0.2691  0.4155
 1407ntf    fn411924   1.383   1.350   3.792 -0.2947  0.4919  0.1052
 1407ntf    fn411925   1.377   1.135   3.797 -0.0868  0.1027  0.4551
 1408ntf    cn111926   3.940   5.015   1.622  0.3966  0.1609 -0.3623
 1408ntf    sn211927   4.121   5.010   1.604  0.4567  0.0396  0.2453
 1408ntf    nn311928   4.154   4.985   1.755 -0.1272 -0.0485  0.3622
 1408ntf    sn211929   4.231   4.867   1.823 -0.1451 -0.4479 -0.3073
 1408ntf    cn111930   4.376   4.959   1.882 -0.5287 -0.1295  0.1444
 1408ntf    fn411931   3.891   4.904   1.674  0.4729  0.0867 -0.4485
 1408ntf    fn411932   3.896   5.117   1.695  0.0182 -0.0169 -0.3428
 1408ntf    fn411933   3.885   5.026   1.502 -0.0684  0.3789 -0.1345
 1408ntf    on511934   4.133   4.899   1.512  0.0375 -0.3009  0.5964
 1408ntf    on511935   4.146   5.144   1.557 -0.2145  0.2054  0.3403
 1408ntf    on511936   4.171   4.824   1.947  0.2199 -0.1054 -0.0097
 1408ntf    on511937   4.286   4.761   1.742  0.6742 -0.7589  0.6399
 1408ntf    fn411938   4.474   4.885   1.931 -0.2605 -0.1188 -0.3593
 1408ntf    fn411939   4.345   5.049   1.974 -0.6754  0.3050 -0.3262
 1408ntf    fn411940   4.432   5.033   1.787 -0.1869  0.0505  0.4815
 1409ntf    cn111941   1.883   2.470   5.537 -0.2617 -0.3431 -0.0048
 1409ntf    sn211942   1.922   2.498   5.361  0.1496 -0.0955  0.1239
 1409ntf    nn311943   2.077   2.476   5.365  0.0951 -0.4745  0.1941
 1409ntf    sn211944   2.166   2.432   5.244 -0.0219 -0.1335 -0.0162
 1409ntf    cn111945   2.191   2.256   5.281 -0.1436 -0.2082 -0.2853
 1409ntf    fn411946   1.907   2.343   5.565 -0.2890 -0.2929  0.2484
 1409ntf    fn411947   1.958   2.545   5.615 -0.3709  0.0350 -0.2580
 1409ntf    fn411948   1.754   2.494   5.551 -0.1186  0.3994  0.0416
 1409ntf    on511949   1.842   2.390   5.307 -0.1220  0.0917  0.1506
 1409ntf    on511950   1.887   2.634   5.329  0.4542 -0.0190  0.1167
 1409ntf    on511951   2.104   2.440   5.114 -0.4424  0.2222  0.2036
 1409ntf    on511952   2.300   2.485   5.252  0.0910 -0.4396  0.1557
 1409ntf    fn411953   2.259   2.190   5.189  0.6111 -0.4800  0.4507
 1409ntf    fn411954   2.079   2.186   5.292 -0.1242 -0.2016 -0.0342
 1409ntf    fn411955   2.261   2.243   5.392 -0.1225  0.6174 -0.1994
 1410ntf    cn111956   4.449   5.191   0.277 -0.0904  0.0558  0.6147
 1410ntf    sn211957   4.273   5.164   0.319 -0.2310  0.2307  0.1349
 1410ntf    nn311958   4.295   5.017   0.368  0.3249  0.1175 -0.4276
 1410ntf    sn211959   4.191   4.901   0.355  0.3135  0.0649  0.0802
 1410ntf    cn111960   4.117   4.920   0.520  0.1699  0.4123 -0.0229
 1410ntf    fn411961   4.467   5.310   0.224 -0.2289 -0.5123 -0.7573
 1410ntf    fn411962   4.521   5.187   0.388  0.0397 -0.0780  0.5258
 1410ntf    fn411963   4.503   5.106   0.191  0.4959  0.6212  0.4238
 1410ntf    on511964   4.250   5.250   0.432  0.5247 -0.0626  0.5217
 1410ntf    on511965   4.207   5.174   0.191  0.3554 -0.0736 -0.1991
 1410ntf    on511966   4.082   4.925   0.263  0.1365  0.2614  0.3433
 1410ntf    on511967   4.248   4.768   0.357 -0.5145 -0.3023  0.1638
 1410ntf    fn411968   4.017   4.836   0.544  0.3410  0.1213 -0.3045
 1410ntf    fn411969   4.066   5.041   0.533  0.0796  0.4473 -0.6465
 1410ntf    fn411970   4.207   4.893   0.613 -0.1277  0.2162  0.2114
 1411ntf    cn111971   6.361   0.296   6.181 -0.2062 -0.1398  0.0797
 1411ntf    sn211972   6.207   0.219   6.237 -0.2406 -0.1864 -0.0792
 1411ntf    nn311973   6.103   0.297   6.148  0.0058  0.1329 -0.0860
 1411ntf    sn211974   6.019   0.262   6.020 -0.1181 -0.0770  0.0527
 1411ntf    cn111975   5.856   0.221   6.090 -0.0182 -0.0802  0.2870
 1411ntf    fn411976   6.378   0.279   6.051 -0.3732 -0.0884  0.0511
 1411ntf    fn411977   6.367   0.425   6.211  0.0982 -0.0336 -0.4299
 1411ntf    fn411978   6.467   0.246   6.242 -0.0829  0.2422  0.1835
 1411ntf    on511979   6.225   0.077   6.213  0.3476 -0.0681 -0.3490
 1411ntf    on511980   6.180   0.257   6.373 -0.1286 -0.3899  0.0012
 1411ntf    on511981   5.991   0.365   5.924 -0.2863 -0.1372  0.0380
 1411ntf    on511982   6.074   0.143   5.959 -0.9545 -0.2219 -0.4224
 1411ntf    fn411983   5.810   0.315   6.170 -0.6741  0.0985 -0.2895
 1411ntf    fn411984   5.855   0.120   6.176  0.2551  0.3625  0.8169
 1411ntf    fn411985   5.766   0.202   5.995 -0.3569  0.3455  0.5230
 1412ntf    cn111986   1.045   3.387   5.762 -0.0352  0.0004  0.3127
 1412ntf    sn211987   1.164   3.524   5.753  0.1558 -0.2014 -0.2345
 1412ntf    nn311988   1.274   3.460   5.660  0.0964 -0.5274 -0.0819
 1412ntf    sn211989   1.424   3.419   5.687  0.1618 -0.2113  0.0501
 1412ntf    cn111990   1.464   3.397   5.511  0.0585  0.0800 -0.0113
 1412ntf    fn411991   0.944   3.408   5.844 -0.4087  0.1468 -0.1808
 1412ntf    fn411992   0.990   3.349   5.648  0.4518  0.1373  0.0260
 1412ntf    fn411993   1.116   3.285   5.806  0.5434 -0.0114 -0.6257
 1412ntf    on511994   1.087   3.629   5.691  0.7645  0.5166  0.2062
 1412ntf    on511995   1.208   3.537   5.889  0.0803  0.1591 -0.2447
 1412ntf    on511996   1.516   3.524   5.721  0.0613  0.0535 -0.4753
 1412ntf    on511997   1.430   3.287   5.745 -0.2092 -0.0975  0.3533
 1412ntf    fn411998   1.585   3.344   5.499  0.0203 -0.1303  0.4898
 1412ntf    fn411999   1.443   3.510   5.445 -0.1017  0.0713  0.0243
 1412ntf    fn412000   1.384   3.310   5.452  0.8440 -0.7060  0.0608
 1413ntf    cn112001   2.021   3.417   5.505 -0.1122 -0.0364  0.4039
 1413ntf    sn212002   2.055   3.293   5.633  0.0389 -0.6273 -0.2073
 1413ntf    nn312003   2.186   3.222   5.582 -0.4293 -0.9895 -0.9170
 1413ntf    sn212004   2.291   3.173   5.688 -0.1656  0.3424 -0.5431
 1413ntf    cn112005   2.408   3.308   5.720  0.1036 -0.0628  0.2075
 1413ntf    fn412006   1.923   3.502   5.531 -0.2623 -0.0697 -0.0524
 1413ntf    fn412007   2.132   3.485   5.479 -0.2702  0.1016  0.0855
 1413ntf    fn412008   1.990   3.363   5.388  0.4673 -0.0821  0.2681
 1413ntf    on512009   2.069   3.380   5.747  0.4282 -0.4391 -0.3958
 1413ntf    on512010   1.942   3.203   5.631 -0.2089 -0.3338  0.4655
 1413ntf    on512011   2.244   3.130   5.817  0.0438  0.4378 -0.4355
 1413ntf    on512012   2.377   3.078   5.621 -0.8784 -0.3311 -0.5199
 1413ntf    fn412013   2.529   3.270   5.755 -0.0042 -0.1013  0.5453
 1413ntf    fn412014   2.359   3.395   5.807  0.0224 -0.0788  0.1778
 1413ntf    fn412015   2.425   3.384   5.613 -0.0361 -0.1906  0.0942
 1414ntf    cn112016   0.616   4.066   6.021  0.4782  0.1661  0.1942
 1414ntf    sn212017   0.441   4.053   5.972  0.5247 -0.1830  0.1133
 1414ntf    nn312018   0.456   3.960   5.847  0.4972 -0.2566  0.1648
 1414ntf    sn212019   0.395   3.825   5.796  0.0958  0.1260 -0.3716
 1414ntf    cn112020   0.536   3.718   5.838 -0.1782 -0.1997 -0.2743
 1414ntf    fn412021   0.690   4.147   5.948 -0.4740  0.2835 -0.6602
 1414ntf    fn412022   0.633   4.108   6.145  0.0260  0.3357  0.1997
 1414ntf    fn412023   0.677   3.948   6.023 -0.6843 -0.4419  0.7606
 1414ntf    on512024   0.377   3.992   6.086 -0.0802  0.1571 -0.0400
 1414ntf    on512025   0.409   4.190   5.938 -0.2965 -0.4675 -0.2772
 1414ntf    on512026   0.278   3.770   5.860 -0.0663  0.5376 -0.3106
 1414ntf    on512027   0.400   3.826   5.652  0.1759  0.6479 -0.3652
 1414ntf    fn412028   0.639   3.756   5.764 -0.5244 -0.1069 -0.7189
 1414ntf    fn412029   0.512   3.592   5.804 -0.1435 -0.3716  0.3253
 1414ntf    fn412030   0.565   3.724   5.967 -0.8551  0.1722 -0.1333
 1415ntf    cn112031   2.346   4.516   6.206 -0.3502 -0.0617 -0.1830
 1415ntf    sn212032   2.224   4.494   6.339  0.0332 -0.3558  0.1219
 1415ntf    nn312033   2.277   4.608   6.434 -0.4471 -0.6253  0.7251
 1415ntf    sn212034   2.388   4.602   6.545  0.2100  0.0998  0.1185
 1415ntf    cn112035   2.285   4.565   6.690 -0.1461 -0.2855 -0.2297
 1415ntf    fn412036   2.348   4.408   6.131  0.4214  0.1981 -0.5514
 1415ntf    fn412037   2.318   4.614   6.121 -0.6346 -0.1501 -0.1930
 1415ntf    fn412038   2.469   4.538   6.250 -0.6752 -0.2400  0.8449
 1415ntf    on512039   2.105   4.535   6.269  0.8696  0.1081 -1.0674
 1415ntf    on512040   2.247   4.357   6.379  0.1042 -0.4377 -0.2016
 1415ntf    on512041   2.482   4.492   6.549 -0.1113 -0.1692  0.2596
 1415ntf    on512042   2.441   4.734   6.570  0.6441 -0.0824  0.1734
 1415ntf    fn412043   2.279   4.435   6.712 -0.1362 -0.2091  0.2363
 1415ntf    fn412044   2.161   4.608   6.672 -0.1117 -0.3493 -0.6270
 1415ntf    fn412045   2.339   4.621   6.797  0.5518 -0.8192 -0.2945
 1416ntf    cn112046   5.272   0.956   5.104  0.0049 -0.2382  0.1025
 1416ntf    sn212047   5.289   0.876   5.266 -0.0670 -0.4396  0.0101
 1416ntf    nn312048   5.413   0.785   5.235  0.0829 -0.2932  0.1821
 1416ntf    sn212049   5.412   0.648   5.159 -0.1863 -0.1497 -0.0749
 1416ntf    cn112050   5.428   0.537   5.302  0.2866  0.3859  0.2929
 1416ntf    fn412051   5.370   1.040   5.075 -0.3905  0.1606 -0.0877
 1416ntf    fn412052   5.279   0.875   5.000  0.1903  0.1637 -0.2044
 1416ntf    fn412053   5.155   1.018   5.096  0.0618 -0.1280  0.1143
 1416ntf    on512054   5.317   0.981   5.361 -0.4986  0.1260 -0.4839
 1416ntf    on512055   5.166   0.802   5.284 -0.4851  0.2176 -0.1484
 1416ntf    on512056   5.293   0.600   5.093  0.3270 -0.5788 -0.7038
 1416ntf    on512057   5.539   0.634   5.091  0.2710  0.2907  0.6729
 1416ntf    fn412058   5.309   0.516   5.355  0.2539  0.2271  0.1575
 1416ntf    fn412059   5.509   0.577   5.398  0.7526  0.4020 -0.1057
 1416ntf    fn412060   5.475   0.417   5.274 -0.4393  0.0550  0.4583
 1417ntf    cn112061   2.788   5.136   0.760  0.3050 -0.3676  0.2324
 1417ntf    sn212062   2.772   5.038   0.608 -0.0759 -0.1145  0.1083
 1417ntf    nn312063   2.619   5.064   0.583 -0.0427 -0.0147  0.0065
 1417ntf    sn212064   2.531   5.074   0.454 -0.1240  0.0999  0.0707
 1417ntf    cn112065   2.476   4.902   0.430 -0.3763  0.1754  0.0962
 1417ntf    fn412066   2.909   5.131   0.813  0.4437 -0.4370 -0.0879
 1417ntf    fn412067   2.752   5.262   0.742 -0.0604 -0.5479 -0.3216
 1417ntf    fn412068   2.705   5.085   0.850 -0.2452  0.1321  0.0197
 1417ntf    on512069   2.858   5.113   0.520  0.1167 -0.2005  0.2223
 1417ntf    on512070   2.798   4.901   0.644  0.3694  0.1038  0.6402
 1417ntf    on512071   2.407   5.143   0.481 -0.4227 -0.3920 -0.0295
 1417ntf    on512072   2.587   5.114   0.327  0.1210 -0.8217 -0.1189
 1417ntf    fn412073   2.384   4.885   0.337  0.0066 -0.1577 -0.2211
 1417ntf    fn412074   2.435   4.848   0.544 -0.0169  0.1784  0.2315
 1417ntf    fn412075   2.575   4.824   0.389 -0.9643 -0.3199 -0.4014
 1418ntf    cn112076   6.192   0.718   3.598 -0.3548  0.0010  0.1598
 1418ntf    sn212077   6.156   0.664   3.429  0.1115 -0.2026  0.1249
 1418ntf    nn312078   6.119   0.514   3.456 -0.2200 -0.1644 -0.1040
 1418ntf    sn212079   6.216   0.393   3.482 -0.1345 -0.0841 -0.0460
 1418ntf    cn112080   6.194   0.304   3.325  0.2717  0.2747 -0.3110
 1418ntf    fn412081   6.085   0.739   3.674 -0.5019 -0.8846  0.1999
 1418ntf    fn412082   6.260   0.633   3.673 -0.2308  0.1458  0.2119
 1418ntf    fn412083   6.262   0.830   3.596  0.1782 -0.3364 -0.2311
 1418ntf    on512084   6.039   0.740   3.391  0.0850 -0.4528 -0.3021
 1418ntf    on512085   6.280   0.698   3.364 -0.0411 -0.2112 -0.1728
 1418ntf    on512086   6.358   0.416   3.486 -0.1300 -0.1958  0.5231
 1418ntf    on512087   6.164   0.308   3.586 -0.4538 -0.8939 -0.8493
 1418ntf    fn412088   6.244   0.377   3.227  0.1562  0.3792 -0.2930
 1418ntf    fn412089   6.065   0.285   3.299  0.3333  0.1496 -0.5211
 1418ntf    fn412090   6.253   0.186   3.322 -0.4114 -0.0916  0.2497
 1419ntf    cn112091   2.429   1.515   0.431 -0.2128  0.2133  0.1165
 1419ntf    sn212092   2.260   1.474   0.483 -0.0905 -0.0445  0.3078
 1419ntf    nn312093   2.194   1.604   0.427  0.3222 -0.1638 -0.4805
 1419ntf    sn212094   2.066   1.619   0.337  0.0791 -0.2182 -0.1504
 1419ntf    cn112095   2.139   1.610   0.170  0.2646 -0.0638 -0.0781
 1419ntf    fn412096   2.462   1.641   0.454  0.7786 -0.0556  0.2381
 1419ntf    fn412097   2.515   1.443   0.501 -0.0905 -0.1816 -0.4296
 1419ntf    fn412098   2.452   1.492   0.302 -0.0643 -0.0889  0.1977
 1419ntf    on512099   2.234   1.354   0.407  0.2643 -0.0448  0.1825
 1419ntf    on512100   2.264   1.458   0.627  0.1567  0.0190  0.3091
 1419ntf    on512101   1.964   1.518   0.337  0.0873 -0.2285 -0.5349
 1419ntf    on512102   2.015   1.753   0.344 -0.4079 -0.4339  0.4798
 1419ntf    fn412103   2.206   1.720   0.142 -0.3984  0.3214 -0.1783
 1419ntf    fn412104   2.053   1.600   0.070 -0.0192  0.0393  0.1530
 1419ntf    fn412105   2.234   1.520   0.153 -0.0737 -0.3587 -0.4197
 1420ntf    cn112106   4.396   6.443   0.436 -0.1696  0.4463  0.0420
 1420ntf    sn212107   4.467   6.581   0.531  0.0156  0.1994  0.2619
 1420ntf    nn312108   4.589   6.518   0.608  0.3327  0.2285 -0.2149
 1420ntf    sn212109   4.596   6.459   0.753 -0.0441  0.0537 -0.2663
 1420ntf    cn112110   4.656   6.614   0.827 -0.0757  0.1258 -0.3920
 1420ntf    fn412111   4.310   6.487   0.346  0.1923  0.1503 -0.4477
 1420ntf    fn412112   4.484   6.367   0.373  0.0846  0.2914  0.5772
 1420ntf    fn412113   4.315   6.355   0.494  0.1373  0.0052 -0.1964
 1420ntf    on512114   4.519   6.652   0.418 -0.1069  0.1103  0.1489
 1420ntf    on512115   4.351   6.629   0.602 -0.2832 -0.3588  0.1615
 1420ntf    on512116   4.473   6.423   0.819 -0.0782  0.2364 -0.2312
 1420ntf    on512117   4.708   6.369   0.768 -0.0921  0.0885  0.3225
 1420ntf    fn412118   4.571   6.713   0.805 -0.5231 -0.2213 -0.2524
 1420ntf    fn412119   4.769   6.655   0.773  0.0100  0.4689  0.0417
 1420ntf    fn412120   4.683   6.613   0.957  0.0272  0.1092 -0.4135
 1421ntf    cn112121   6.332   1.947   2.767 -0.3121 -0.3533 -0.1060
 1421ntf    sn212122   6.284   2.075   2.647  0.3141  0.3154  0.3464
 1421ntf    nn312123   6.340   2.209   2.707  0.5756  0.0130  0.7814
 1421ntf    sn212124   6.462   2.295   2.659  0.0965  0.1161 -0.2562
 1421ntf    cn112125   6.373   2.437   2.587 -0.1151 -0.1499 -0.5225
 1421ntf    fn412126   6.271   1.970   2.882 -0.1254 -0.8441  0.0948
 1421ntf    fn412127   6.305   1.824   2.729 -0.2035 -0.3646 -0.1468
 1421ntf    fn412128   6.460   1.938   2.801 -0.5724  0.0794  1.0429
 1421ntf    on512129   6.344   2.032   2.523  0.5639 -0.3289  0.6844
 1421ntf    on512130   6.140   2.068   2.651  0.3271 -0.3718 -0.1996
 1421ntf    on512131   6.528   2.357   2.771  0.5311  0.3339 -0.6298
 1421ntf    on512132   6.543   2.252   2.548  0.2801 -0.0153 -0.0694
 1421ntf    fn412133   6.360   2.533   2.677  0.4319  0.1905 -0.8033
 1421ntf    fn412134   6.250   2.408   2.546 -0.1797  0.0585 -0.4772
 1421ntf    fn412135   6.441   2.487   2.486 -0.3551  0.1291 -0.5455
 1422ntf    cn112136   3.811   0.583   4.945 -0.1799  0.0348  0.6894
 1422ntf    sn212137   3.826   0.456   4.816  0.0611  0.3166  0.4366
 1422ntf    nn312138   3.704   0.487   4.721  0.2801 -0.3243 -0.0591
 1422ntf    sn212139   3.662   0.404   4.595 -0.0799  0.0007 -0.1541
 1422ntf    cn112140   3.615   0.534   4.477 -0.3036 -0.1882 -0.2747
 1422ntf    fn412141   3.920   0.588   5.020  0.4925 -0.2244 -0.2526
 1422ntf    fn412142   3.802   0.701   4.885  0.1303 -0.2115  0.1493
 1422ntf    fn412143   3.705   0.564   5.022 -0.0980 -0.2771  0.7246
 1422ntf    on512144   3.955   0.482   4.759 -0.2843  0.1321 -0.4471
 1422ntf    on512145   3.807   0.333   4.888  0.2115 -0.4684 -0.8326
 1422ntf    on512146   3.761   0.332   4.518 -0.0493  0.5940 -0.6816
 1422ntf    on512147   3.533   0.342   4.612 -0.0451 -0.1496 -0.4178
 1422ntf    fn412148   3.712   0.615   4.439 -0.0521 -0.2443  0.2496
 1422ntf    fn412149   3.521   0.605   4.537 -0.0084  0.0547 -0.0962
 1422ntf    fn412150   3.559   0.490   4.366 -0.6620 -0.0702 -0.1411
 1423ntf    cn112151   6.003   4.633   3.408  0.4262  0.3469 -0.2638
 1423ntf    sn212152   5.954   4.722   3.558 -0.0091 -0.2580 -0.0436
 1423ntf    nn312153   5.820   4.652   3.600  0.1647 -0.4134  0.2553
 1423ntf    sn212154   5.675   4.709   3.615  0.2528 -0.0915 -0.1015
 1423ntf    cn112155   5.670   4.740   3.794  0.2965 -0.4431 -0.0388
 1423ntf    fn412156   5.900   4.626   3.325  0.1060 -0.0529  0.1661
 1423ntf    fn412157   6.099   4.693   3.340  0.5105  0.0790 -0.3826
 1423ntf    fn412158   6.043   4.510   3.433  0.0473  0.3367  0.3072
 1423ntf    on512159   6.067   4.704   3.646  0.2885  0.3550 -0.2918
 1423ntf    on512160   5.929   4.854   3.507  0.1116 -0.0057  0.5333
 1423ntf    on512161   5.648   4.835   3.550  0.0008  0.2385  0.6271
 1423ntf    on512162   5.574   4.607   3.602  0.3211 -0.2664  0.7035
 1423ntf    fn412163   5.748   4.840   3.830  0.3076 -0.2049 -0.7160
 1423ntf    fn412164   5.690   4.631   3.867 -0.4241 -0.1558  0.5980
 1423ntf    fn412165   5.549   4.780   3.829  0.2745 -0.4911 -0.0605
 1424ntf    cn112166   2.063   3.770   0.855 -0.3122  0.2538  0.1990
 1424ntf    sn212167   2.019   3.595   0.870 -0.3551  0.2348 -0.1378
 1424ntf    nn312168   1.864   3.590   0.849 -0.2306 -0.0552 -1.0327
 1424ntf    sn212169   1.766   3.511   0.942  0.3965  0.0390 -0.2775
 1424ntf    cn112170   1.721   3.645   1.056  0.1622 -0.2099 -0.0753
 1424ntf    fn412171   2.193   3.786   0.872 -0.2641 -0.2093  0.2820
 1424ntf    fn412172   2.029   3.833   0.743  0.2247 -0.4852 -0.3876
 1424ntf    fn412173   2.009   3.835   0.957  0.1480  0.2897  0.4220
 1424ntf    on512174   2.083   3.533   0.756  0.0201  0.0482  0.1706
 1424ntf    on512175   2.069   3.561   1.001 -0.3572  0.2144 -0.1422
 1424ntf    on512176   1.646   3.472   0.872  0.2034  0.0663  0.0369
 1424ntf    on512177   1.816   3.401   1.021  0.6291  0.1144 -0.3195
 1424ntf    fn412178   1.680   3.594   1.171 -0.7848  0.2131 -0.2155
 1424ntf    fn412179   1.626   3.724   1.010 -0.6604 -0.8464  0.4989
 1424ntf    fn412180   1.818   3.730   1.086  0.1639 -0.1196 -0.3398
 1425ntf    cn112181   0.370   1.806   2.413  0.1597  0.0257 -0.0256
 1425ntf    sn212182   0.347   1.936   2.288 -0.3213 -0.0148  0.0190
 1425ntf    nn312183   0.499   1.956   2.252 -0.2148  0.0615  0.5039
 1425ntf    sn212184   0.598   2.061   2.314  0.1230 -0.1834  0.3826
 1425ntf    cn112185   0.720   2.072   2.179 -0.4884  0.2480 -0.1434
 1425ntf    fn412186   0.265   1.783   2.489 -0.3830 -0.0177 -0.7800
 1425ntf    fn412187   0.397   1.689   2.358 -0.5192  0.2068 -0.7655
 1425ntf    fn412188   0.469   1.831   2.497  0.0554  0.8053 -0.1267
 1425ntf    on512189   0.260   1.881   2.188 -0.4146  0.2141 -0.0286
 1425ntf    on512190   0.283   2.043   2.361 -0.5578  0.2541 -0.5748
 1425ntf    on512191   0.544   2.195   2.328  0.5390 -0.0355  0.5890
 1425ntf    on512192   0.669   2.012   2.429  0.5199 -0.2242  0.1213
 1425ntf    fn412193   0.661   2.118   2.070 -0.0647  0.0286 -0.4696
 1425ntf    fn412194   0.780   1.960   2.144  0.1220  0.3229  0.6353
 1425ntf    fn412195   0.811   2.162   2.210 -0.5406  0.2898 -0.1113
 1426ntf    cn112196   2.238   1.845   6.378 -0.1988 -0.1222  0.1244
 1426ntf    sn212197   2.276   1.844   6.200  0.0307 -0.2341  0.1743
 1426ntf    nn312198   2.311   1.691   6.195  0.0429 -0.2178 -0.2369
 1426ntf    sn212199   2.257   1.572   6.109 -0.3129 -0.1337 -0.1307
 1426ntf    cn112200   2.343   1.428   6.180 -0.3810 -0.1681 -0.1174
 1426ntf    fn412201   2.126   1.779   6.404 -0.0858 -0.4063 -0.1052
 1426ntf    fn412202   2.336   1.784   6.442 -0.0207 -0.2971 -0.3102
 1426ntf    fn412203   2.230   1.970   6.420 -0.4960 -0.1178  0.0619
 1426ntf    on512204   2.157   1.885   6.129 -0.1782 -0.4834  0.3792
 1426ntf    on512205   2.387   1.935   6.186  0.2008 -0.3360  0.8188
 1426ntf    on512206   2.114   1.551   6.113 -0.3335  0.0344 -0.0021
 1426ntf    on512207   2.314   1.569   5.976 -0.2081 -0.0802 -0.0872
 1426ntf    fn412208   2.310   1.404   6.306  0.5062 -0.4344  0.0712
 1426ntf    fn412209   2.474   1.443   6.179 -0.3860 -0.1423 -0.4801
 1426ntf    fn412210   2.324   1.315   6.114 -0.1874  0.0869 -0.6121
 1427ntf    cn112211   2.847   0.519   2.260 -0.1159 -0.1522 -0.3534
 1427ntf    sn212212   2.725   0.621   2.172 -0.2347  0.0173  0.0079
 1427ntf    nn312213   2.768   0.582   2.027  0.0344 -0.0700  0.1114
 1427ntf    sn212214   2.674   0.552   1.905  0.0706  0.2426  0.0051
 1427ntf    cn112215   2.785   0.582   1.765  0.0805  0.3345  0.0326
 1427ntf    fn412216   2.972   0.558   2.241 -0.2711  0.2371 -0.5963
 1427ntf    fn412217   2.813   0.508   2.387 -0.1466  0.4125 -0.3074
 1427ntf    fn412218   2.840   0.393   2.221 -0.1697 -0.2426 -0.0553
 1427ntf    on512219   2.603   0.553   2.211 -0.1244 -0.1476  0.0648
 1427ntf    on512220   2.750   0.759   2.206  0.3167 -0.0263 -0.2242
 1427ntf    on512221   2.646   0.411   1.888  0.0825  0.2097  0.2537
 1427ntf    on512222   2.562   0.641   1.882 -0.2378 -0.1605 -0.0764
 1427ntf    fn412223   2.845   0.699   1.781 -0.0749  0.5181 -0.6880
 1427ntf    fn412224   2.723   0.590   1.648  0.1640 -0.0063 -0.0375
 1427ntf    fn412225   2.881   0.491   1.758  0.1109  0.3684  0.0141
 1428ntf    cn112226   1.612   2.973   6.180 -0.2126  0.2202 -0.0200
 1428ntf    sn212227   1.519   3.123   6.225 -0.0900  0.2407  0.1663
 1428ntf    nn312228   1.537   3.130   6.381 -0.1453 -0.7802  0.2272
 1428ntf    sn212229   1.597   3.250   6.463 -0.0091 -0.3237 -0.5305
 1428ntf    cn112230   1.462   3.321   6.560  0.3746  0.0108 -0.2379
 1428ntf    fn412231   1.584   2.865   6.251 -0.0845  0.1844 -0.0239
 1428ntf    fn412232   1.593   2.945   6.052  0.3823 -0.6169  0.0683
 1428ntf    fn412233   1.741   2.987   6.208 -0.0171 -0.8839 -0.3337
 1428ntf    on512234   1.565   3.230   6.140 -0.2300  0.2120  0.0532
 1428ntf    on512235   1.388   3.074   6.190  0.1002 -0.2096  0.0718
 1428ntf    on512236   1.683   3.195   6.565 -0.3153 -0.0735 -0.1375
 1428ntf    on512237   1.641   3.366   6.389 -0.3573  0.1014 -0.0716
 1428ntf    fn412238   1.364   3.357   6.479  0.4386  0.5318 -0.0907
 1428ntf    fn412239   1.502   3.434   6.617 -0.0951  0.2759 -0.4288
 1428ntf    fn412240   1.417   3.246   6.660  0.0935  0.3788 -0.0838
 1429ntf    cn112241   5.700   5.624   2.559  0.5194  0.0100  0.1730
 1429ntf    sn212242   5.725   5.615   2.739  0.4156 -0.0764  0.1832
 1429ntf    nn312243   5.613   5.713   2.790 -0.0592 -0.5217 -0.0012
 1429ntf    sn212244   5.475   5.681   2.858 -0.0056 -0.4352  0.1491
 1429ntf    cn112245   5.531   5.653   3.029  0.0211  0.2038  0.2458
 1429ntf    fn412246   5.797   5.565   2.492  0.3259 -0.1329  0.0186
 1429ntf    fn412247   5.584   5.575   2.521  0.1343  0.9315  0.1234
 1429ntf    fn412248   5.692   5.753   2.528 -0.0388 -0.0165  0.2006
 1429ntf    on512249   5.708   5.474   2.765 -0.7174  0.0138  0.0025
 1429ntf    on512250   5.853   5.680   2.750  0.5786 -0.4159  0.2911
 1429ntf    on512251   5.398   5.802   2.870  0.3203 -0.1763 -0.3505
 1429ntf    on512252   5.411   5.556   2.825  0.4599 -0.4716 -0.6589
 1429ntf    fn412253   5.594   5.762   3.068 -0.2806  0.3394  0.3569
 1429ntf    fn412254   5.610   5.549   3.050 -0.0401  0.2074  0.4919
 1429ntf    fn412255   5.427   5.645   3.111 -0.3080 -0.4157 -0.2254
 1430ntf    cn112256   1.425   4.467   3.608  0.0657  0.2130 -0.4251
 1430ntf    sn212257   1.319   4.557   3.725  0.2145 -0.3698  0.1676
 1430ntf    nn312258   1.238   4.437   3.784 -0.0951 -0.4710 -0.4607
 1430ntf    sn212259   1.096   4.379   3.749 -0.3096 -0.0301 -0.3319
 1430ntf    cn112260   0.985   4.441   3.878  0.0461 -0.2290  0.0708
 1430ntf    fn412261   1.356   4.419   3.506  0.2285 -0.9026 -0.0243
 1430ntf    fn412262   1.515   4.546   3.553  0.1997  0.2261 -0.1909
 1430ntf    fn412263   1.490   4.362   3.657  0.2101  0.4212 -0.1697
 1430ntf    on512264   1.405   4.618   3.825 -0.3035  0.3991  0.1531
 1430ntf    on512265   1.237   4.649   3.650  0.2978 -0.0848  0.4232
 1430ntf    on512266   1.028   4.417   3.628 -0.0987  0.1340 -0.4004
 1430ntf    on512267   1.102   4.237   3.777 -0.0851 -0.0990 -0.7041
 1430ntf    fn412268   0.995   4.571   3.901  0.6334 -0.1692 -0.5074
 1430ntf    fn412269   1.000   4.378   3.994 -0.3913 -0.0401  0.2324
 1430ntf    fn412270   0.860   4.418   3.842 -0.0536  0.2007  0.1437
 1431ntf    cn112271   1.748   6.386   4.073  0.2167  0.0527  0.3167
 1431ntf    sn212272   1.871   6.517   4.099  0.3367  0.0048 -0.0012
 1431ntf    nn312273   1.823   6.572   4.239  0.4352 -0.3210  0.1618
 1431ntf    sn212274   1.858   6.710   4.305 -0.1141 -0.1940  0.1914
 1431ntf    cn112275   1.693   6.787   4.300 -0.0329 -0.0635 -0.5650
 1431ntf    fn412276   1.756   6.293   4.167  0.2147 -0.0836  0.1823
 1431ntf    fn412277   1.626   6.432   4.096  0.0129 -0.5828  0.5460
 1431ntf    fn412278   1.777   6.329   3.957 -0.1556  0.1209  0.1918
 1431ntf    on512279   1.990   6.439   4.120  0.2034 -0.2076 -0.0378
 1431ntf    on512280   1.851   6.594   3.979 -0.4201  0.3466  0.3353
 1431ntf    on512281   1.905   6.693   4.440  0.4995 -0.5076 -0.0581
 1431ntf    on512282   1.939   6.798   4.226 -0.0369 -0.2733  0.1817
 1431ntf    fn412283   1.690   6.910   4.348 -0.3959 -0.4990  0.5662
 1431ntf    fn412284   1.606   6.728   4.381  0.2159 -0.0777 -0.3065
 1431ntf    fn412285   1.649   6.790   4.175 -0.0459  0.4694 -0.5498
 1432ntf    cn112286   0.726   3.629   5.309 -0.0083 -0.1413  0.0813
 1432ntf    sn212287   0.753   3.624   5.130 -0.2911  0.0460  0.0315
 1432ntf    nn312288   0.788   3.471   5.116 -0.1586  0.0443  0.3728
 1432ntf    sn212289   0.697   3.353   5.066  0.4315 -0.1525 -0.2385
 1432ntf    cn112290   0.720   3.377   4.887  0.0442  0.0036 -0.2691
 1432ntf    fn412291   0.640   3.534   5.342 -0.1178 -0.1174 -0.1333
 1432ntf    fn412292   0.830   3.605   5.387  0.0610  0.4907  0.1953
 1432ntf    fn412293   0.672   3.741   5.356  0.5527  0.1473  0.0421
 1432ntf    on512294   0.628   3.663   5.070 -0.3798 -0.1891  0.0630
 1432ntf    on512295   0.867   3.711   5.112 -0.3687  0.1576  0.0813
 1432ntf    on512296   0.753   3.224   5.098 -0.4389 -0.3462  0.5459
 1432ntf    on512297   0.554   3.358   5.085  0.4387 -0.7574 -0.0007
 1432ntf    fn412298   0.833   3.336   4.830  0.2441  0.6066 -0.3112
 1432ntf    fn412299   0.713   3.504   4.852  0.3533  0.2101  0.4006
 1432ntf    fn412300   0.626   3.324   4.811 -0.0712 -0.5733  0.2679
 1433ntf    cn112301   5.050   1.688   1.086 -0.0013 -0.1482  0.4659
 1433ntf    sn212302   5.111   1.856   1.052 -0.2865 -0.1545 -0.0856
 1433ntf    nn312303   5.120   1.857   0.895 -0.1729  0.0092 -0.0778
 1433ntf    sn212304   5.051   1.958   0.796 -0.1289 -0.0421 -0.1609
 1433ntf    cn112305   5.192   2.049   0.726 -0.2334  0.3775  0.1705
 1433ntf    fn412306   4.925   1.675   1.044  0.1010  1.0798 -0.2692
 1433ntf    fn412307   5.115   1.595   1.018 -0.1851  0.2483 -0.2611
 1433ntf    fn412308   5.049   1.654   1.214 -0.9888 -0.6375  0.3385
 1433ntf    on512309   5.008   1.929   1.121  0.1915  0.0498  0.4139
 1433ntf    on512310   5.240   1.838   1.113  0.0734  0.7756 -0.5511
 1433ntf    on512311   5.000   1.884   0.683 -0.3838  0.0217 -0.0891
 1433ntf    on512312   4.971   2.065   0.848 -0.2197  0.0534 -0.4982
 1433ntf    fn412313   5.249   1.970   0.636 -0.0130  0.0806  0.5662
 1433ntf    fn412314   5.281   2.083   0.817 -0.1348  0.0766  0.1887
 1433ntf    fn412315   5.155   2.156   0.657 -0.2631  0.3866  0.2008
 1434ntf    cn112316   0.764   4.940   6.199  0.3553 -0.3944  0.0753
 1434ntf    sn212317   0.597   5.010   6.215  0.3922 -0.1646 -0.5275
 1434ntf    nn312318   0.524   4.903   6.304  0.3047  0.2748 -0.0604
 1434ntf    sn212319   0.415   4.796   6.266  0.5383  0.0250 -0.0305
 1434ntf    cn112320   0.264   4.893   6.293  0.1546 -0.5514 -0.0925
 1434ntf    fn412321   0.757   4.861   6.093  0.2414 -0.4065  0.0904
 1434ntf    fn412322   0.865   5.024   6.191 -0.3432  0.4777  0.2438
 1434ntf    fn412323   0.785   4.860   6.303  0.2489 -0.6086 -0.0654
 1434ntf    on512324   0.620   5.127   6.296 -0.5934 -0.4406  0.1787
 1434ntf    on512325   0.537   5.039   6.087 -0.6246  0.3032  0.0437
 1434ntf    on512326   0.411   4.755   6.127 -0.2337  1.1537 -0.3522
 1434ntf    on512327   0.392   4.696   6.367 -0.6198 -0.2698 -0.5654
 1434ntf    fn412328   0.153   4.823   6.273 -0.0210 -0.1392 -0.5715
 1434ntf    fn412329   0.255   4.999   6.214 -0.3971 -0.7171 -0.2617
 1434ntf    fn412330   0.253   4.943   6.415  0.4330 -0.1030 -0.2528
 1435ntf    cn112331   5.857   6.624   4.046  0.0629  0.3355 -0.0152
 1435ntf    sn212332   5.976   6.747   4.105  0.0120  0.2295  0.3097
 1435ntf    nn312333   6.105   6.657   4.114  0.0704  0.2572 -0.2275
 1435ntf    sn212334   6.208   6.623   4.228 -0.0523 -0.1442 -0.2360
 1435ntf    cn112335   6.123   6.474   4.286  0.3221 -0.1379  0.3397
 1435ntf    fn412336   5.873   6.507   4.106  0.6267  0.3683 -0.0995
 1435ntf    fn412337   5.729   6.652   4.066  0.0839  0.4375 -0.0248
 1435ntf    fn412338   5.871   6.601   3.917  0.0578  0.3510 -0.0184
 1435ntf    on512339   5.979   6.852   4.007  0.6866  0.1561  0.2435
 1435ntf    on512340   5.909   6.772   4.231 -0.1474 -0.4566  0.3681
 1435ntf    on512341   6.331   6.580   4.166 -0.1053  0.0517 -0.4820
 1435ntf    on512342   6.222   6.705   4.346 -0.3495  0.0482 -0.3322
 1435ntf    fn412343   6.195   6.402   4.370  0.0648 -0.5914  0.1773
 1435ntf    fn412344   6.086   6.398   4.184 -0.0566  0.3149  0.1361
 1435ntf    fn412345   6.013   6.512   4.349  0.6226  0.4956  0.4782
 1436ntf    cn112346   6.666   2.084   1.782  0.1280  0.1110 -0.5192
 1436ntf    sn212347   6.760   2.195   1.673  0.0781  0.2239 -0.4479
 1436ntf    nn312348   6.648   2.218   1.565 -0.1772 -0.2930 -0.2978
 1436ntf    sn212349   6.557   2.345   1.553 -0.0607 -0.2070 -0.2768
 1436ntf    cn112350   6.658   2.449   1.443  0.2264  0.3348  0.4953
 1436ntf    fn412351   6.660   1.957   1.744 -0.4733 -0.0784  0.1801
 1436ntf    fn412352   6.725   2.076   1.900  0.0998  0.7345 -0.4595
 1436ntf    fn412353   6.541   2.120   1.807  0.2439  0.3643 -0.2993
 1436ntf    on512354   6.798   2.302   1.762 -0.3471  0.1485 -0.1750
 1436ntf    on512355   6.865   2.107   1.626 -0.2211 -0.3701 -0.0210
 1436ntf    on512356   6.431   2.323   1.485 -0.1032  0.1755 -0.3256
 1436ntf    on512357   6.545   2.419   1.676 -0.9024 -0.7037 -0.0518
 1436ntf    fn412358   6.674   2.384   1.329  0.2720  0.0728  0.6512
 1436ntf    fn412359   6.776   2.491   1.486  0.5642 -0.0048 -0.0865
 1436ntf    fn412360   6.593   2.557   1.402  0.9035  0.2415 -0.8576
 1437ntf    cn112361   5.862   5.644   0.542  0.0141 -0.1995 -0.0841
 1437ntf    sn212362   5.927   5.814   0.542 -0.5569  0.0209  0.2288
 1437ntf    nn312363   6.067   5.790   0.476 -0.6507  0.5535 -0.1671
 1437ntf    sn212364   6.109   5.799   0.325  0.0885  0.1798  0.0102
 1437ntf    cn112365   6.284   5.846   0.334  0.0973  0.1330  0.0990
 1437ntf    fn412366   5.744   5.631   0.599  0.0271 -0.2958 -0.0793
 1437ntf    fn412367   5.849   5.605   0.416 -0.2221 -0.1266 -0.0826
 1437ntf    fn412368   5.944   5.556   0.596  0.3548 -0.1303 -0.4821
 1437ntf    on512369   5.828   5.883   0.463 -0.5908  0.5309  0.7113
 1437ntf    on512370   5.942   5.854   0.680  0.2042  0.0425  0.1444
 1437ntf    on512371   6.105   5.677   0.247 -0.6482  0.6607 -0.7228
 1437ntf    on512372   6.041   5.915   0.271 -0.3303  0.1417  0.4581
 1437ntf    fn412373   6.347   5.747   0.395  0.1470  0.1153  0.0185
 1437ntf    fn412374   6.295   5.954   0.409  0.1763  0.0483  0.2089
 1437ntf    fn412375   6.351   5.875   0.223 -0.3260  0.0502 -0.1801
 1438ntf    cn112376   6.598   4.885   5.029 -0.1653 -0.4489 -0.0176
 1438ntf    sn212377   6.530   4.936   5.190  0.0557  0.1144 -0.0989
 1438ntf    nn312378   6.386   4.877   5.173  0.0807 -0.0212  0.1530
 1438ntf    sn212379   6.252   4.958   5.154  0.2194  0.0641 -0.4798
 1438ntf    cn112380   6.139   4.817   5.134 -0.2317  0.3701 -0.1043
 1438ntf    fn412381   6.512   4.918   4.934 -0.2432  0.0860  0.2314
 1438ntf    fn412382   6.708   4.951   4.995 -0.2392 -0.1352  0.3405
 1438ntf    fn412383   6.629   4.758   5.015 -0.1001 -0.4425  0.0717
 1438ntf    on512384   6.600   4.854   5.286 -0.2442 -0.1352 -0.0901
 1438ntf    on512385   6.531   5.080   5.201 -0.0876  0.0798  0.3955
 1438ntf    on512386   6.206   5.020   5.276 -0.4804  0.2040 -0.8103
 1438ntf    on512387   6.250   5.027   5.027 -0.1819  0.7705 -0.0921
 1438ntf    fn412388   6.025   4.852   5.077 -0.3849  0.0488  0.0033
 1438ntf    fn412389   6.110   4.750   5.244  0.2756 -0.1801 -0.3045
 1438ntf    fn412390   6.200   4.724   5.063  0.2296  0.2729  0.4089
 1439ntf    cn112391   2.570   5.226   5.768  0.4162 -0.1204  0.5478
 1439ntf    sn212392   2.413   5.304   5.815  0.0338 -0.1095 -0.7009
 1439ntf    nn312393   2.396   5.431   5.725  0.2125  0.3030 -0.1610
 1439ntf    sn212394   2.337   5.574   5.749 -0.1009  0.1116  0.2193
 1439ntf    cn112395   2.480   5.652   5.831  0.2507  0.0153 -0.3021
 1439ntf    fn412396   2.592   5.107   5.823 -0.8143 -0.7832 -0.3305
 1439ntf    fn412397   2.569   5.211   5.636 -0.0597  0.9443  0.4279
 1439ntf    fn412398   2.676   5.303   5.787  0.2942  0.3631 -0.6108
 1439ntf    on512399   2.320   5.196   5.790 -0.5356  0.1966  0.0433
 1439ntf    on512400   2.445   5.331   5.953  0.2964  0.4376 -0.8673
 1439ntf    on512401   2.313   5.641   5.624  0.8543 -0.1447 -0.1143
 1439ntf    on512402   2.235   5.592   5.849 -0.4765  0.2789 -0.1930
 1439ntf    fn412403   2.505   5.604   5.951  0.4122 -0.1807 -0.4122
 1439ntf    fn412404   2.460   5.782   5.846  0.1371  0.0093 -0.3971
 1439ntf    fn412405   2.588   5.627   5.757  0.2156 -0.5037 -0.1829
 1440ntf    cn112406   1.009   0.448   0.702  0.5192 -0.1788  0.1857
 1440ntf    sn212407   1.002   0.630   0.700  0.3460 -0.1866  0.0404
 1440ntf    nn312408   1.034   0.664   0.550  0.5778 -0.3508  0.0522
 1440ntf    sn212409   1.124   0.781   0.497  0.0722 -0.0595 -0.1752
 1440ntf    cn112410   1.030   0.826   0.348  0.0217  0.3555 -0.0204
 1440ntf    fn412411   0.933   0.397   0.797  0.1131  0.3530  0.1555
 1440ntf    fn412412   0.962   0.388   0.594  1.2707 -0.3750 -0.0310
 1440ntf    fn412413   1.131   0.403   0.724  0.8390  0.3780 -0.4055
 1440ntf    on512414   0.863   0.657   0.727  0.4665  0.1257  0.3532
 1440ntf    on512415   1.096   0.675   0.799 -0.1625 -0.2680  0.5604
 1440ntf    on512416   1.120   0.904   0.573  0.0919 -0.2558  0.1441
 1440ntf    on512417   1.256   0.740   0.456  0.3121  0.5936 -0.0777
 1440ntf    fn412418   0.906   0.856   0.379  0.2276  0.8816  0.3044
 1440ntf    fn412419   1.026   0.726   0.261 -0.2229  0.1411  0.2382
 1440ntf    fn412420   1.087   0.924   0.280  0.4726  0.1464  0.0514
 1441ntf    cn112421   3.777   1.150   0.378 -0.4484  0.2745  0.1706
 1441ntf    sn212422   3.603   1.128   0.423 -0.4604  0.3391  0.1556
 1441ntf    nn312423   3.616   1.007   0.523  0.0487  0.3489  0.1024
 1441ntf    sn212424   3.507   0.952   0.621 -0.0804 -0.1250 -0.3044
 1441ntf    cn112425   3.459   0.797   0.537  0.0632 -0.1715 -0.3004
 1441ntf    fn412426   3.834   1.040   0.331 -0.5550  0.3905 -0.2327
 1441ntf    fn412427   3.794   1.252   0.296 -0.0507  0.0337 -0.0519
 1441ntf    fn412428   3.851   1.179   0.484 -0.0960 -0.2381  0.0701
 1441ntf    on512429   3.575   1.254   0.486 -0.5600  0.4147 -0.0401
 1441ntf    on512430   3.549   1.096   0.293  0.0844 -0.6301  0.1599
 1441ntf    on512431   3.557   0.904   0.747 -0.0227 -0.4649 -0.4545
 1441ntf    on512432   3.381   1.021   0.633 -0.2326 -0.3855 -0.3873
 1441ntf    fn412433   3.409   0.812   0.416  0.2765  0.1069 -0.3553
 1441ntf    fn412434   3.386   0.708   0.603 -0.6820  0.1612 -0.6684
 1441ntf    fn412435   3.567   0.727   0.507  0.1044 -0.3811  0.3056
 1442ntf    cn112436   2.386   5.365   2.189 -0.0444  0.2952 -0.2291
 1442ntf    sn212437   2.525   5.379   2.072  0.3059  0.3313  0.1912
 1442ntf    nn312438   2.516   5.527   2.021  0.7625  0.2633 -0.0937
 1442ntf    sn212439   2.551   5.596   1.884 -0.1594  0.5153 -0.2072
 1442ntf    cn112440   2.659   5.728   1.947  0.0643  0.3425 -0.2278
 1442ntf    fn412441   2.409   5.441   2.295 -0.4796 -0.2292  0.2411
 1442ntf    fn412442   2.275   5.416   2.138 -0.1055  0.1892 -0.2021
 1442ntf    fn412443   2.359   5.245   2.236 -0.4517  0.4633 -0.0348
 1442ntf    on512444   2.647   5.373   2.150  0.0364  0.4162  0.6211
 1442ntf    on512445   2.495   5.284   1.968  0.3710  0.1830  0.3069
 1442ntf    on512446   2.630   5.518   1.792  0.9097  0.7512  0.5023
 1442ntf    on512447   2.437   5.669   1.833 -0.2138  0.4071 -0.2426
 1442ntf    fn412448   2.594   5.808   2.030  0.0104  0.0284  0.0371
 1442ntf    fn412449   2.711   5.801   1.850  0.3491  0.2231 -0.1664
 1442ntf    fn412450   2.758   5.682   2.022 -0.4026 -0.5979 -0.1757
 1443ntf    cn112451   1.706   2.459   3.736 -0.2601 -0.0556  0.0325
 1443ntf    sn212452   1.875   2.393   3.753 -0.2234  0.1894  0.6164
 1443ntf    nn312453   1.867   2.268   3.657 -0.9113  0.4132  0.3737
 1443ntf    sn212454   1.776   2.143   3.680 -0.1580 -0.1525  0.3074
 1443ntf    cn112455   1.891   2.030   3.764  0.0621 -0.4564 -0.3894
 1443ntf    fn412456   1.619   2.416   3.826  0.1253 -0.1648  0.3545
 1443ntf    fn412457   1.701   2.590   3.751  0.2260 -0.0191 -0.0898
 1443ntf    fn412458   1.656   2.421   3.619 -0.1669  0.2465 -0.1078
 1443ntf    on512459   1.969   2.487   3.700  0.1751 -0.5506 -0.0115
 1443ntf    on512460   1.884   2.374   3.896  0.2460 -0.6912  0.4780
 1443ntf    on512461   1.664   2.155   3.770  0.1638 -0.2859  0.7296
 1443ntf    on512462   1.751   2.071   3.557  0.2096 -0.2784  0.3058
 1443ntf    fn412463   1.961   2.075   3.867 -0.2079 -0.5676 -0.1552
 1443ntf    fn412464   1.977   1.986   3.675  0.3616  0.0368 -0.3487
 1443ntf    fn412465   1.829   1.923   3.811 -0.5619 -0.0491 -0.2687
 1444ntf    cn112466   2.013   4.247   3.191  0.0948  0.4755  0.2068
 1444ntf    sn212467   2.094   4.176   3.337  0.1552 -0.3758 -0.2396
 1444ntf    nn312468   2.218   4.272   3.336  0.3168 -0.5740  0.5398
 1444ntf    sn212469   2.257   4.398   3.422 -0.2428 -0.1704  0.2072
 1444ntf    cn112470   2.327   4.493   3.284  0.2739 -0.5946  0.1689
 1444ntf    fn412471   1.903   4.179   3.161  0.0814  0.4029  0.4209
 1444ntf    fn412472   1.988   4.375   3.214 -0.7150  0.3613  0.0151
 1444ntf    fn412473   2.086   4.234   3.082 -0.3025 -0.3417  0.0270
 1444ntf    on512474   1.999   4.189   3.444  0.4406 -0.2385 -0.0011
 1444ntf    on512475   2.130   4.040   3.303 -0.6112 -0.6519  0.0442
 1444ntf    on512476   2.145   4.477   3.466 -0.0817  0.1616  0.0292
 1444ntf    on512477   2.361   4.385   3.521 -0.0331  0.9273  0.1436
 1444ntf    fn412478   2.349   4.620   3.315 -0.1449 -0.5512  0.2976
 1444ntf    fn412479   2.255   4.485   3.173  0.2948  0.0529  0.1034
 1444ntf    fn412480   2.450   4.455   3.256  0.4679  0.0947  0.0608
 1445ntf    cn112481   4.710   5.752   2.662 -0.4580 -0.1302 -0.0494
 1445ntf    sn212482   4.790   5.915   2.655  0.1756 -0.4340  0.0631
 1445ntf    nn312483   4.897   5.880   2.545  0.1132 -0.3042 -0.0400
 1445ntf    sn212484   4.890   5.914   2.392 -0.1636  0.0381  0.0490
 1445ntf    cn112485   4.945   5.756   2.322 -0.2031  0.0594 -0.0300
 1445ntf    fn412486   4.612   5.743   2.751 -0.3866  0.0095  0.0449
 1445ntf    fn412487   4.670   5.706   2.545  0.1416 -0.4461 -0.1339
 1445ntf    fn412488   4.789   5.650   2.692 -0.0032  0.1036 -0.4398
 1445ntf    on512489   4.683   5.999   2.608  0.3269 -0.4942 -0.3922
 1445ntf    on512490   4.839   5.935   2.789  0.2804 -0.4016  0.0207
 1445ntf    on512491   4.763   5.931   2.326  0.1123  0.1306 -0.4592
 1445ntf    on512492   4.999   6.002   2.358 -0.1109 -0.1810 -0.3487
 1445ntf    fn412493   5.068   5.715   2.348 -0.2573  0.1215  0.3395
 1445ntf    fn412494   4.928   5.762   2.191 -0.8294  0.4784  0.0653
 1445ntf    fn412495   4.873   5.654   2.367  0.2365 -0.0383  0.4652
 1446ntf    cn112496   2.388   0.096   3.577 -0.6894  0.5258  0.1052
 1446ntf    sn212497   2.379   0.245   3.680  0.1776  0.3966  0.3754
 1446ntf    nn312498   2.291   0.186   3.795 -0.1286  0.6779  0.2886
 1446ntf    sn212499   2.162   0.233   3.871 -0.3773 -0.1347  0.3830
 1446ntf    cn112500   2.203   0.193   4.043  0.1264 -0.3091  0.2221
 1446ntf    fn412501   2.268   0.047   3.549 -0.3903 -0.0737 -0.1649
 1446ntf    fn412502   2.454   0.112   3.463 -0.5577 -0.0915  0.0893
 1446ntf    fn412503   2.445  -0.004   3.642 -0.4144  0.2385 -0.5645
 1446ntf    on512504   2.518   0.260   3.714  0.1377  0.0869  0.6819
 1446ntf    on512505   2.311   0.340   3.595 -0.4487 -0.3577  0.0244
 1446ntf    on512506   2.131   0.374   3.882  0.7993  0.1730 -0.1457
 1446ntf    on512507   2.051   0.142   3.853 -0.2237 -0.1833 -0.3294
 1446ntf    fn412508   2.206   0.062   4.062  0.4191 -0.3541 -0.1157
 1446ntf    fn412509   2.112   0.246   4.122  0.4452  0.0141  0.3750
 1446ntf    fn412510   2.318   0.244   4.085 -0.3331  0.6044  0.3885
 1447ntf    cn112511   1.759   4.193   4.352  0.5590  0.2045 -0.4516
 1447ntf    sn212512   1.821   4.029   4.305 -0.1769 -0.1990 -0.0463
 1447ntf    nn312513   1.924   4.068   4.192  0.2211 -0.7124  0.1361
 1447ntf    sn212514   1.920   4.028   4.040  0.0020 -0.0810 -0.0268
 1447ntf    cn112515   1.961   4.190   3.969 -0.5450  0.1099  0.0879
 1447ntf    fn412516   1.854   4.260   4.415 -0.0570  0.5668  0.1118
 1447ntf    fn412517   1.723   4.266   4.248 -0.3872  0.2862 -0.0845
 1447ntf    fn412518   1.651   4.192   4.429  0.7012 -0.6668 -0.2552
 1447ntf    on512519   1.880   3.992   4.431  0.0867 -0.7017 -0.3160
 1447ntf    on512520   1.705   3.951   4.270 -0.1893 -0.0922 -0.2490
 1447ntf    on512521   2.031   3.950   3.993 -0.1206 -0.2743  0.0022
 1447ntf    on512522   1.789   3.996   3.989 -0.2504 -0.1962  0.6839
 1447ntf    fn412523   1.910   4.290   4.039  0.0307  0.0324  0.6227
 1447ntf    fn412524   1.914   4.200   3.845  0.1190  0.4180 -0.1481
 1447ntf    fn412525   2.090   4.221   3.963 -0.5223 -0.0547 -0.3517
 1448ntf    cn112526   4.359   1.063   5.055  0.0481 -0.5254 -0.3936
 1448ntf    sn212527   4.502   0.981   5.132 -0.0273  0.1416  0.4618
 1448ntf    nn312528   4.457   0.976   5.283 -0.0772 -0.7733  0.4243
 1448ntf    sn212529   4.497   1.059   5.410 -0.6670 -0.2413  0.2672
 1448ntf    cn112530   4.340   1.118   5.480 -0.5924 -0.0479  0.2703
 1448ntf    fn412531   4.352   1.182   5.111  0.0352 -0.8402  0.2838
 1448ntf    fn412532   4.360   1.079   4.923 -0.2459  0.3286 -0.2938
 1448ntf    fn412533   4.240   1.010   5.076 -0.3051  0.3738 -0.1086
 1448ntf    on512534   4.508   0.852   5.069 -0.3145  0.4235 -0.1499
 1448ntf    on512535   4.611   1.071   5.103  0.0590 -0.3105 -0.6503
 1448ntf    on512536   4.547   0.975   5.516 -0.4902 -0.1444  0.2610
 1448ntf    on512537   4.567   1.183   5.391 -1.0055 -0.0544  0.2356
 1448ntf    fn412538   4.253   1.024   5.512 -0.7373 -0.0651 -0.1677
 1448ntf    fn412539   4.281   1.188   5.384  0.0804  0.8161  0.4712
 1448ntf    fn412540   4.358   1.192   5.588 -0.3336  0.0890  0.1353
 1449ntf    cn112541   5.952   3.997   5.183  0.0482  0.2329  0.1240
 1449ntf    sn212542   5.887   3.995   5.353  0.0886 -0.3242  0.1345
 1449ntf    nn312543   6.015   3.952   5.434  0.3400 -0.5360 -0.3728
 1449ntf    sn212544   6.125   4.054   5.483 -0.2563 -0.0659 -0.0055
 1449ntf    cn112545   6.272   3.950   5.463 -0.2093  0.0298 -0.1580
 1449ntf    fn412546   5.973   4.118   5.134 -0.0952  0.2289  0.0535
 1449ntf    fn412547   6.057   3.922   5.156 -0.0700 -0.0100  0.3351
 1449ntf    fn412548   5.866   3.949   5.095  0.0872  0.1761  0.1160
 1449ntf    on512549   5.836   4.126   5.384  0.2228 -0.3001  0.2542
 1449ntf    on512550   5.794   3.885   5.347  0.3545 -0.5683  0.4159
 1449ntf    on512551   6.154   4.162   5.392  0.2079 -0.1939 -0.0086
 1449ntf    on512552   6.112   4.083   5.623  0.3003  0.1831 -0.0028
 1449ntf    fn412553   6.386   4.007   5.500 -0.2140 -0.0657  0.0076
 1449ntf    fn412554   6.293   3.919   5.336  0.7858  0.8280 -0.1934
 1449ntf    fn412555   6.261   3.830   5.519 -0.5927  0.0227 -0.2484
 1450ntf    cn112556   2.604   6.588   4.164 -0.2119  0.1272  0.1399
 1450ntf    sn212557   2.721   6.453   4.201 -0.2713  0.1305  0.3435
 1450ntf    nn312558   2.628   6.347   4.270 -0.0216 -0.4296 -0.1716
 1450ntf    sn212559   2.630   6.281   4.413 -0.0698 -0.3016 -0.1124
 1450ntf    cn112560   2.613   6.106   4.367  0.2428 -0.3203 -0.1567
 1450ntf    fn412561   2.653   6.671   4.074 -0.3245  0.3064  0.2450
 1450ntf    fn412562   2.489   6.543   4.117 -0.0419 -0.2693  0.0971
 1450ntf    fn412563   2.570   6.659   4.270 -0.3951  0.6089 -0.2412
 1450ntf    on512564   2.781   6.407   4.078  0.1881  0.0195  0.6067
 1450ntf    on512565   2.817   6.514   4.289  0.7030 -0.0587 -0.5729
 1450ntf    on512566   2.752   6.284   4.489 -0.2450  0.9566  0.1488
 1450ntf    on512567   2.510   6.312   4.488  0.1256  0.5160 -0.1271
 1450ntf    fn412568   2.528   6.091   4.268  0.0072  0.0853 -0.0188
 1450ntf    fn412569   2.570   6.039   4.473 -0.8108  0.4998 -0.0524
 1450ntf    fn412570   2.731   6.058   4.331  0.3785  0.0837 -0.2580
 1451ntf    cn112571   1.308   4.909   0.833 -0.1174  0.2560 -0.2458
 1451ntf    sn212572   1.194   4.805   0.929  0.1226 -0.1385 -0.3855
 1451ntf    nn312573   1.094   4.922   0.960 -0.0692 -0.2562 -0.5596
 1451ntf    sn212574   0.944   4.944   0.917 -0.1922 -0.0632 -0.0415
 1451ntf    cn112575   0.936   5.126   0.923  0.0776 -0.0584  0.2418
 1451ntf    fn412576   1.371   4.830   0.747 -0.6227  0.0980 -0.4764
 1451ntf    fn412577   1.244   4.998   0.759 -0.4425  0.2020 -0.0321
 1451ntf    fn412578   1.388   4.969   0.919  0.4998 -0.2800 -0.4382
 1451ntf    on512579   1.140   4.707   0.839 -0.8095  0.0861 -0.0779
 1451ntf    on512580   1.273   4.760   1.041  0.1237  0.0093 -0.3258
 1451ntf    on512581   0.915   4.918   0.779 -0.6537 -0.3252  0.1051
 1451ntf    on512582   0.846   4.895   1.011 -0.7701 -0.0260 -0.6201
 1451ntf    fn412583   0.815   5.171   0.896  0.0374  0.0453  0.5881
 1451ntf    fn412584   1.023   5.185   0.843 -0.2916  0.5730  0.3031
 1451ntf    fn412585   0.969   5.170   1.043  0.0598 -0.0620  0.2481
 1452ntf    cn112586   2.598   3.493   1.858  0.0650 -0.2653  0.2507
 1452ntf    sn212587   2.475   3.619   1.813  0.0807 -0.3910 -0.1447
 1452ntf    nn312588   2.438   3.566   1.670 -0.1936 -0.1405 -0.1673
 1452ntf    sn212589   2.297   3.586   1.604 -0.2090  0.4302  0.0317
 1452ntf    cn112590   2.231   3.425   1.658 -0.2295  0.3589 -0.2079
 1452ntf    fn412591   2.540   3.380   1.895  0.3346 -0.2224  0.8141
 1452ntf    fn412592   2.681   3.459   1.761 -0.2472  0.1208 -0.1563
 1452ntf    fn412593   2.677   3.535   1.956 -0.2405  0.1363  0.3277
 1452ntf    on512594   2.373   3.609   1.914  0.3874 -0.4809  0.1579
 1452ntf    on512595   2.551   3.742   1.808 -0.3848 -0.0713  0.4351
 1452ntf    on512596   2.209   3.683   1.665 -0.4386  0.1657  0.1255
 1452ntf    on512597   2.305   3.577   1.461 -0.2871 -0.1354  0.0585
 1452ntf    fn412598   2.115   3.396   1.600 -0.2400  0.4527 -0.2341
 1452ntf    fn412599   2.211   3.408   1.787  0.1799 -0.2961 -0.2270
 1452ntf    fn412600   2.310   3.329   1.613 -0.0402  0.3901  0.0591
 1453ntf    cn112601   1.779   3.923   5.595  0.4621 -0.5185 -0.1652
 1453ntf    sn212602   1.745   4.074   5.691  0.0497 -0.7965  0.1311
 1453ntf    nn312603   1.738   4.029   5.841  0.0713 -0.0098  0.3733
 1453ntf    sn212604   1.847   4.035   5.954  0.1852  0.2750  0.2503
 1453ntf    cn112605   1.811   4.193   6.035 -0.3802  0.3638 -0.1721
 1453ntf    fn412606   1.882   3.871   5.658  0.3302 -0.2837  0.2564
 1453ntf    fn412607   1.680   3.835   5.591  0.1559 -0.1664 -0.3911
 1453ntf    fn412608   1.820   3.951   5.473  0.2606 -0.6706 -0.2674
 1453ntf    on512609   1.852   4.164   5.655 -0.6838  0.0801  0.0806
 1453ntf    on512610   1.614   4.105   5.640  0.4504  0.1900 -0.3294
 1453ntf    on512611   1.829   3.933   6.055 -0.0287  0.1951  0.1335
 1453ntf    on512612   1.980   4.056   5.902  0.0743 -0.1206 -0.2065
 1453ntf    fn412613   1.848   4.292   5.955 -0.2788  0.3826 -0.1014
 1453ntf    fn412614   1.867   4.217   6.152 -0.0758  0.0703 -0.2586
 1453ntf    fn412615   1.680   4.204   6.051 -0.4344 -0.3308 -0.1434
 1454ntf    cn112616   0.038   2.689   5.419  0.3160  0.2397 -0.0883
 1454ntf    sn212617   0.022   2.721   5.241  0.1726  0.0632 -0.1070
 1454ntf    nn312618   0.155   2.797   5.206  0.1402  0.2456  0.1646
 1454ntf    sn212619   0.297   2.737   5.179 -0.0137 -0.1049  0.1298
 1454ntf    cn112620   0.285   2.718   4.998  0.0806  0.1670  0.0940
 1454ntf    fn412621  -0.040   2.591   5.462 -0.0749  0.6320  0.0976
 1454ntf    fn412622   0.158   2.642   5.452  0.0306 -0.4374 -0.0001
 1454ntf    fn412623   0.016   2.795   5.495 -0.3777  0.4412 -0.5643
 1454ntf    on512624   0.014   2.591   5.179  0.0069  0.2251 -0.4263
 1454ntf    on512625  -0.089   2.812   5.235 -0.2684 -0.4479  0.2514
 1454ntf    on512626   0.404   2.832   5.197  0.2745 -0.3323 -0.3315
 1454ntf    on512627   0.313   2.601   5.225 -0.0652 -0.0413  0.3359
 1454ntf    fn412628   0.235   2.827   4.943  0.0401  0.0943 -0.0125
 1454ntf    fn412629   0.205   2.620   4.960  0.2452 -0.1178  0.4681
 1454ntf    fn412630   0.400   2.691   4.938  0.0749 -0.0770  0.1873
 1455ntf    cn112631   3.959   6.016   2.644  0.2287 -0.1930  0.1766
 1455ntf    sn212632   4.061   6.164   2.670  0.2633 -0.1384 -0.2609
 1455ntf    nn312633   4.052   6.177   2.826  0.1952  0.4514 -0.3113
 1455ntf    sn212634   4.012   6.306   2.907 -0.0430  0.1220  0.1000
 1455ntf    cn112635   4.115   6.265   3.051  0.3655  0.8961  0.0303
 1455ntf    fn412636   4.030   5.905   2.651 -0.2927 -0.5431  0.0125
 1455ntf    fn412637   3.866   6.007   2.738  0.0517 -0.0081  0.0219
 1455ntf    fn412638   3.890   6.024   2.531  0.3062  0.3764  0.1662
 1455ntf    on512639   4.193   6.130   2.622  0.2182 -0.0733 -0.4351
 1455ntf    on512640   3.996   6.266   2.591 -0.0536  0.0116  0.1900
 1455ntf    on512641   4.067   6.429   2.855 -0.2000  0.2752  0.2989
 1455ntf    on512642   3.877   6.312   2.956  0.0770  0.2257  0.4227
 1455ntf    fn412643   4.234   6.221   3.016 -0.1330 -0.3161 -0.1651
 1455ntf    fn412644   4.050   6.172   3.118  0.3900  0.7922 -0.0919
 1455ntf    fn412645   4.132   6.368   3.134 -0.1504  0.5165  0.6224
 1456ntf    cn112646   3.446   0.357   6.285 -0.0231  0.4344 -0.1214
 1456ntf    sn212647   3.554   0.502   6.298  0.2621  0.2051  0.0737
 1456ntf    nn312648   3.462   0.591   6.390  0.2346  0.0182  0.2260
 1456ntf    sn212649   3.497   0.689   6.508  0.0558  0.3193  0.0312
 1456ntf    cn112650   3.370   0.817   6.485 -0.0327  0.2025 -0.1321
 1456ntf    fn412651   3.503   0.264   6.210  0.4106  0.5424  0.0712
 1456ntf    fn412652   3.430   0.304   6.405 -0.4214  1.3029  0.2154
 1456ntf    fn412653   3.324   0.375   6.236 -0.4207  0.1492  0.7470
 1456ntf    on512654   3.669   0.445   6.364  0.0023 -0.2677  0.1183
 1456ntf    on512655   3.567   0.554   6.164 -0.6283 -0.3598 -0.2412
 1456ntf    on512656   3.462   0.633   6.636 -0.3304 -0.7862 -0.5444
 1456ntf    on512657   3.622   0.759   6.489  0.3819 -0.1216  0.5080
 1456ntf    fn412658   3.253   0.763   6.455  0.1882 -0.2481 -0.1949
 1456ntf    fn412659   3.393   0.909   6.393  0.4481 -0.2881 -0.5143
 1456ntf    fn412660   3.344   0.882   6.596  0.1151 -0.1194  0.0944
 1457ntf    cn112661   5.085   1.853   3.102  0.2434  0.2758 -0.2342
 1457ntf    sn212662   5.261   1.832   3.140  0.2362  0.0904 -0.3020
 1457ntf    nn312663   5.271   1.679   3.172 -0.0009  0.1796  0.2111
 1457ntf    sn212664   5.247   1.606   3.309 -0.3958 -0.1974 -0.0559
 1457ntf    cn112665   5.175   1.453   3.243  0.3200 -0.4346 -0.2996
 1457ntf    fn412666   5.014   1.899   3.204 -0.0906 -0.5630 -0.0817
 1457ntf    fn412667   5.069   1.935   3.000 -1.0056  0.6412  0.2337
 1457ntf    fn412668   5.025   1.739   3.073  0.2354  0.1914  0.1092
 1457ntf    on512669   5.323   1.876   3.018 -0.2283  0.3742 -0.4370
 1457ntf    on512670   5.290   1.921   3.251 -0.3935  0.3809 -0.3712
 1457ntf    on512671   5.370   1.562   3.371 -0.1592  0.5181 -0.0059
 1457ntf    on512672   5.141   1.662   3.388 -0.6111  0.2301 -0.6440
 1457ntf    fn412673   5.045   1.442   3.267  0.3330 -0.2359 -0.1391
 1457ntf    fn412674   5.221   1.346   3.306  0.4884  0.2390  0.7335
 1457ntf    fn412675   5.195   1.435   3.113 -0.2410 -0.4635 -0.3837
 1458ntf    cn112676   0.766   5.835   6.532  0.1877 -0.1200  0.5084
 1458ntf    sn212677   0.722   5.659   6.539 -0.2855 -0.0176  0.2171
 1458ntf    nn312678   0.686   5.643   6.387  0.5484 -0.1253  0.0241
 1458ntf    sn212679   0.767   5.561   6.281  0.1509 -0.4758 -0.0126
 1458ntf    cn112680   0.697   5.624   6.126 -0.0996  0.1217  0.3403
 1458ntf    fn412681   0.895   5.859   6.521  0.2196 -0.2970  0.5022
 1458ntf    fn412682   0.700   5.887   6.429  0.5191  0.4108  0.5622
 1458ntf    fn412683   0.726   5.911   6.633 -0.1778 -0.3231  0.5183
 1458ntf    on512684   0.839   5.593   6.593 -0.4213 -0.1990  0.2922
 1458ntf    on512685   0.601   5.658   6.618 -0.1584 -0.3794  0.4111
 1458ntf    on512686   0.909   5.586   6.284  0.0518  0.2157 -0.6686
 1458ntf    on512687   0.720   5.425   6.281  0.1222 -0.4658  0.0596
 1458ntf    fn412688   0.565   5.620   6.137 -0.1702 -0.4223 -0.6273
 1458ntf    fn412689   0.735   5.547   6.026 -0.3428  0.3669  0.0537
 1458ntf    fn412690   0.735   5.748   6.099  0.1785  0.2017  1.0740
 1459ntf    cn112691   4.249   3.342   3.046  0.3132 -0.0825 -0.1036
 1459ntf    sn212692   4.400   3.290   2.960  0.1665 -0.3377 -0.2119
 1459ntf    nn312693   4.414   3.140   3.002 -0.2169 -0.2908  0.0897
 1459ntf    sn212694   4.527   3.056   3.071  0.0577 -0.2621 -0.3172
 1459ntf    cn112695   4.482   2.899   2.993 -0.0803 -0.2157 -0.3309
 1459ntf    fn412696   4.267   3.340   3.177  0.1974 -0.3965 -0.0916
 1459ntf    fn412697   4.220   3.466   3.009 -0.1088 -0.0676  0.2638
 1459ntf    fn412698   4.144   3.263   3.026  0.5619 -0.3478 -0.3644
 1459ntf    on512699   4.357   3.300   2.823  0.0567  0.1073 -0.1490
 1459ntf    on512700   4.503   3.377   3.014 -0.2499 -0.2503  0.4551
 1459ntf    on512701   4.664   3.079   3.031  0.0433  0.5118  0.0446
 1459ntf    on512702   4.503   3.038   3.213  0.2665  0.2094 -0.2198
 1459ntf    fn412703   4.481   2.915   2.862 -0.7372 -0.4024 -0.3520
 1459ntf    fn412704   4.363   2.849   3.022 -0.0079 -0.3299 -0.2245
 1459ntf    fn412705   4.564   2.801   3.028 -0.0776 -0.0272  0.1931
 1460ntf    cn112706   0.212   3.904   4.350  0.1051 -0.0531  0.1805
 1460ntf    sn212707   0.155   3.791   4.219 -0.3012  0.3405  0.0168
 1460ntf    nn312708   0.084   3.681   4.306 -0.0387 -0.3648 -0.6524
 1460ntf    sn212709   0.130   3.533   4.330  0.2907 -0.1741 -0.0890
 1460ntf    cn112710   0.261   3.561   4.454 -0.0272  0.1802  0.1711
 1460ntf    fn412711   0.264   4.017   4.306  0.1606 -0.2312 -0.2196
 1460ntf    fn412712   0.107   3.932   4.426 -0.5035 -0.3883 -0.5181
 1460ntf    fn412713   0.304   3.863   4.435  0.3805 -0.1079 -0.1429
 1460ntf    on512714   0.053   3.857   4.142 -0.5016  0.2928  0.2392
 1460ntf    on512715   0.275   3.755   4.148 -0.1893  0.0666  0.3420
 1460ntf    on512716   0.038   3.456   4.411  0.0486  0.0697 -0.1295
 1460ntf    on512717   0.197   3.476   4.217  0.1477  0.0541 -0.2896
 1460ntf    fn412718   0.289   3.449   4.518  0.0991  0.2619  0.2559
 1460ntf    fn412719   0.224   3.650   4.544  0.4120  0.1392  0.3902
 1460ntf    fn412720   0.369   3.601   4.390 -0.0182  0.2372  0.2218
 1461ntf    cn112721   3.703   2.788   1.556 -0.0210 -0.2282  0.1256
 1461ntf    sn212722   3.689   2.969   1.553  0.0230 -0.2230  0.2363
 1461ntf    nn312723   3.567   2.998   1.647 -0.0179 -0.2880  0.2035
 1461ntf    sn212724   3.567   3.044   1.797 -0.2041  0.1433  0.0739
 1461ntf    cn112725   3.603   3.222   1.790 -0.0611  0.1139  0.0731
 1461ntf    fn412726   3.793   2.732   1.477  0.6700 -0.1879  0.8674
 1461ntf    fn412727   3.721   2.735   1.676 -0.2035 -0.0123  0.2501
 1461ntf    fn412728   3.583   2.742   1.523 -0.3216  0.4850  0.2020
 1461ntf    on512729   3.819   3.020   1.592 -0.4496  0.2903  1.1754
 1461ntf    on512730   3.647   2.997   1.418 -0.4660 -0.5249  0.3255
 1461ntf    on512731   3.430   3.044   1.843 -0.0123 -0.1992  0.6611
 1461ntf    on512732   3.668   2.977   1.875 -0.3561 -0.0731  0.0865
 1461ntf    fn412733   3.527   3.279   1.698 -0.2032 -0.3694 -0.1151
 1461ntf    fn412734   3.725   3.254   1.749 -0.0013 -0.6314 -0.3627
 1461ntf    fn412735   3.586   3.279   1.908  0.4911 -0.3178  0.3671
 1462ntf    cn112736   0.620   0.862   2.323 -0.4531 -0.4161  0.0440
 1462ntf    sn212737   0.456   0.939   2.320 -0.2175  0.0743 -0.3460
 1462ntf    nn312738   0.438   0.978   2.169  0.3059  0.4368 -0.3150
 1462ntf    sn212739   0.330   1.073   2.105 -0.2395  0.0326 -0.0036
 1462ntf    cn112740   0.254   0.957   1.987 -0.4676 -0.0831  0.2571
 1462ntf    fn412741   0.703   0.917   2.236  0.0202 -0.2756  0.5722
 1462ntf    fn412742   0.675   0.872   2.443 -0.3570 -0.0757 -0.0272
 1462ntf    fn412743   0.611   0.733   2.294 -0.9902 -0.3654 -0.0214
 1462ntf    on512744   0.370   0.832   2.363 -0.5191  0.6758  0.5879
 1462ntf    on512745   0.472   1.053   2.407  0.3357 -0.0123 -0.3328
 1462ntf    on512746   0.224   1.112   2.194  0.2224  0.0490  0.5433
 1462ntf    on512747   0.393   1.175   2.024 -0.1249  0.3485  0.4835
 1462ntf    fn412748   0.156   1.007   1.914 -0.1127  0.3067  0.0388
 1462ntf    fn412749   0.205   0.853   2.052 -0.0852 -0.5948 -0.2626
 1462ntf    fn412750   0.347   0.908   1.906 -0.7933  0.1887 -0.2858
 1463ntf    cn112751   2.413   0.522   2.976  0.1316 -0.4530  0.4437
 1463ntf    sn212752   2.253   0.600   3.013  0.4393  0.3279  0.1658
 1463ntf    nn312753   2.285   0.748   3.055  0.6769  0.1684  0.5512
 1463ntf    sn212754   2.260   0.882   2.979  0.0343 -0.3043 -0.0861
 1463ntf    cn112755   2.370   1.001   3.061  0.0261 -0.2898 -0.0960
 1463ntf    fn412756   2.517   0.580   3.035  0.1571 -0.1165  0.0713
 1463ntf    fn412757   2.411   0.403   3.033  0.0421 -0.6584  0.0091
 1463ntf    fn412758   2.435   0.504   2.847  0.6521 -0.1102  0.4804
 1463ntf    on512759   2.176   0.589   2.892  0.4441  0.2700  0.1678
 1463ntf    on512760   2.203   0.520   3.123  0.0879 -0.1210 -0.3172
 1463ntf    on512761   2.306   0.881   2.842 -0.0654  0.2320 -0.1277
 1463ntf    on512762   2.136   0.946   3.016  0.3638  0.2412  0.0967
 1463ntf    fn412763   2.498   0.970   3.053  0.1717  0.4319 -0.6870
 1463ntf    fn412764   2.346   1.022   3.190 -0.0627  1.0871 -0.3252
 1463ntf    fn412765   2.350   1.122   3.011 -0.5516 -0.1575  0.4479
 1464ntf    cn112766   3.312   0.651   5.097 -0.0177  0.1423 -0.1381
 1464ntf    sn212767   3.364   0.593   5.261 -0.2329  0.1218 -0.0779
 1464ntf    nn312768   3.234   0.514   5.303 -0.4086 -0.0523 -0.9260
 1464ntf    sn212769   3.203   0.360   5.300  0.0877 -0.1972  0.3344
 1464ntf    cn112770   3.274   0.324   5.463  0.5924 -0.4417  0.0608
 1464ntf    fn412771   3.408   0.697   5.018 -0.2096 -0.0918 -0.5114
 1464ntf    fn412772   3.257   0.558   5.021  0.2598 -0.0297 -0.1298
 1464ntf    fn412773   3.219   0.745   5.100 -0.3307 -0.1579 -0.3504
 1464ntf    on512774   3.486   0.519   5.241 -0.2144  0.0774  0.1895
 1464ntf    on512775   3.379   0.713   5.339  0.2201 -0.1617  0.2758
 1464ntf    on512776   3.064   0.324   5.316 -0.0247  0.0992  0.0449
 1464ntf    on512777   3.271   0.278   5.203  0.6489 -0.1086  0.6519
 1464ntf    fn412778   3.263   0.193   5.482 -0.5646 -0.3703 -0.0533
 1464ntf    fn412779   3.199   0.381   5.556 -0.0127 -0.6274 -0.3086
 1464ntf    fn412780   3.402   0.351   5.485  0.4832 -0.0930  0.2716
 1465ntf    cn112781   2.262   5.901   0.147  0.1658 -0.2528 -0.5004
 1465ntf    sn212782   2.249   5.725   0.189  0.0288 -0.1081  0.0793
 1465ntf    nn312783   2.212   5.657   0.052 -0.0219 -0.2486  0.1627
 1465ntf    sn212784   2.269   5.526  -0.013  0.0843  0.0185 -0.2841
 1465ntf    cn112785   2.109   5.458  -0.066  0.0180  0.1041 -0.1910
 1465ntf    fn412786   2.266   5.986   0.249  0.1208 -0.5747 -0.2278
 1465ntf    fn412787   2.372   5.916   0.075 -0.1078  0.1138 -0.8481
 1465ntf    fn412788   2.169   5.943   0.062  0.2621  0.0301 -0.4683
 1465ntf    on512789   2.373   5.694   0.254 -0.4774 -0.9756  0.6492
 1465ntf    on512790   2.129   5.723   0.269  0.0999 -0.3338  0.1823
 1465ntf    on512791   2.343   5.549  -0.135  0.0563  0.5296 -0.2033
 1465ntf    on512792   2.318   5.426   0.079 -0.1052  0.3819  0.2148
 1465ntf    fn412793   2.058   5.548  -0.149 -0.8159 -0.4279 -0.2693
 1465ntf    fn412794   2.026   5.446   0.037  0.6129 -0.1344  0.2644
 1465ntf    fn412795   2.120   5.345  -0.133 -0.3355  0.2330 -0.4740
 1466ntf    cn112796   3.532   5.608   1.571  0.1046  0.0627  0.0719
 1466ntf    sn212797   3.377   5.632   1.663  0.0572  0.0047  0.0071
 1466ntf    nn312798   3.268   5.604   1.553 -0.4807  0.2324  0.4725
 1466ntf    sn212799   3.201   5.706   1.456 -0.1504 -0.0319 -0.0370
 1466ntf    cn112800   3.046   5.745   1.542 -0.2194  0.1720 -0.2521
 1466ntf    fn412801   3.549   5.490   1.514  0.2386  0.3275 -0.4366
 1466ntf    fn412802   3.550   5.708   1.486  0.4042 -0.1341 -0.0941
 1466ntf    fn412803   3.637   5.616   1.651  0.0974  0.3695  0.0542
 1466ntf    on512804   3.373   5.532   1.767  0.1924  0.6090  0.6046
 1466ntf    on512805   3.373   5.768   1.710 -0.1087 -0.1459  0.4369
 1466ntf    on512806   3.271   5.831   1.435 -0.3035  0.0783  0.1014
 1466ntf    on512807   3.161   5.639   1.335  0.4112 -0.2036 -0.1289
 1466ntf    fn412808   2.975   5.839   1.482 -0.3832  0.1462 -0.1009
 1466ntf    fn412809   3.064   5.782   1.668 -0.1720 -0.2948 -0.1216
 1466ntf    fn412810   2.959   5.647   1.559  0.3483 -0.3015 -0.0544
 1467ntf    cn112811   3.552   3.477   5.681  0.2548  0.1272  0.0322
 1467ntf    sn212812   3.415   3.476   5.562  0.2815  0.0609  0.0020
 1467ntf    nn312813   3.470   3.564   5.444  0.1887 -0.3487 -0.3492
 1467ntf    sn212814   3.431   3.712   5.410  0.5960 -0.1198  0.1502
 1467ntf    cn112815   3.543   3.805   5.518  0.1009  0.2797  0.3238
 1467ntf    fn412816   3.638   3.382   5.650 -0.0899 -0.2123  0.1157
 1467ntf    fn412817   3.627   3.586   5.687  0.1515  0.2125 -0.2235
 1467ntf    fn412818   3.511   3.447   5.803  0.3874  0.3587  0.1353
 1467ntf    on512819   3.397   3.337   5.526 -0.2952  0.0260  0.4138
 1467ntf    on512820   3.306   3.529   5.640 -0.2806  0.1470 -0.8308
 1467ntf    on512821   3.485   3.747   5.281  0.3327 -0.4888 -0.0643
 1467ntf    on512822   3.290   3.734   5.434  0.4046  0.2304 -1.1798
 1467ntf    fn412823   3.667   3.767   5.493 -0.1572 -0.4043  0.0569
 1467ntf    fn412824   3.518   3.779   5.646 -0.3649 -0.0169  0.1777
 1467ntf    fn412825   3.543   3.937   5.510  0.0374  0.2482 -0.1798
 1468ntf    cn112826   5.102   0.388   0.465 -0.1418  0.0026 -0.1190
 1468ntf    sn212827   5.092   0.464   0.631  0.0693 -0.0174 -0.0965
 1468ntf    nn312828   5.214   0.562   0.625 -0.3895  0.5783  0.2887
 1468ntf    sn212829   5.362   0.523   0.660 -0.3558 -0.0386 -0.5032
 1468ntf    cn112830   5.448   0.638   0.549 -0.0231 -0.2839 -0.5001
 1468ntf    fn412831   5.116   0.482   0.373 -0.2824 -0.0286 -0.1714
 1468ntf    fn412832   5.208   0.312   0.444  0.2314  0.5465 -0.2343
 1468ntf    fn412833   4.996   0.317   0.431 -0.7380  0.6732  0.2981
 1468ntf    on512834   4.969   0.538   0.622  0.0406 -0.0907 -0.3341
 1468ntf    on512835   5.108   0.355   0.724  0.7073  0.2138  0.0717
 1468ntf    on512836   5.396   0.573   0.791 -0.4202 -0.9172 -0.1431
 1468ntf    on512837   5.416   0.395   0.623 -0.3819 -0.1190 -0.2701
 1468ntf    fn412838   5.439   0.765   0.584 -0.0360 -0.2919 -0.4747
 1468ntf    fn412839   5.407   0.629   0.423 -0.9275  0.1641 -0.2506
 1468ntf    fn412840   5.576   0.608   0.539  0.0756 -0.0311  0.0395
 1469ntf    cn112841   0.698   5.232   5.164 -0.2450 -0.2139  0.3117
 1469ntf    sn212842   0.577   5.217   5.030  0.0406  0.1672  0.0076
 1469ntf    nn312843   0.653   5.125   4.928  0.0419  0.1938 -0.0154
 1469ntf    sn212844   0.656   4.968   4.926  0.3223  0.1987  0.0485
 1469ntf    cn112845   0.524   4.923   4.810  0.0309 -0.0317  0.4701
 1469ntf    fn412846   0.740   5.117   5.213  0.0332 -0.2296  0.0392
 1469ntf    fn412847   0.806   5.297   5.124 -0.3254 -0.2031  0.1083
 1469ntf    fn412848   0.648   5.302   5.265 -0.3487 -0.0248  0.1290
 1469ntf    on512849   0.459   5.171   5.100 -0.0387  0.3566  0.0001
 1469ntf    on512850   0.563   5.347   4.968  0.0351  0.2930  0.2738
 1469ntf    on512851   0.777   4.925   4.859  0.2423  0.5671 -0.3365
 1469ntf    on512852   0.621   4.903   5.049  0.6465  0.0248  0.0512
 1469ntf    fn412853   0.520   4.794   4.783 -0.0872 -0.0225  0.4444
 1469ntf    fn412854   0.531   4.984   4.693 -0.0256 -0.4265  0.2608
 1469ntf    fn412855   0.406   4.950   4.865 -0.1381 -0.4162  0.2968
 1470ntf    cn112856   4.664   5.808   4.086  0.1942 -0.0852  0.0638
 1470ntf    sn212857   4.609   5.800   4.259 -0.0240  0.0880  0.0034
 1470ntf    nn312858   4.468   5.731   4.253 -0.0066  0.0326  0.2307
 1470ntf    sn212859   4.427   5.587   4.301 -0.1344 -0.0301 -0.0620
 1470ntf    cn112860   4.262   5.600   4.227 -0.2481  0.1210  0.2140
 1470ntf    fn412861   4.581   5.881   4.013  0.3162  0.0459  0.0558
 1470ntf    fn412862   4.787   5.857   4.077  0.0824  0.1729 -0.0760
 1470ntf    fn412863   4.670   5.688   4.030 -0.1985 -0.0242 -0.1170
 1470ntf    on512864   4.704   5.710   4.320  0.0593  0.2718  0.1490
 1470ntf    on512865   4.606   5.940   4.293  0.5836  0.1889 -0.3328
 1470ntf    on512866   4.487   5.473   4.236  0.4647  0.0206  0.3890
 1470ntf    on512867   4.401   5.585   4.443 -0.2168 -0.3438 -0.0812
 1470ntf    fn412868   4.190   5.493   4.258  0.2084 -0.0953  0.5357
 1470ntf    fn412869   4.269   5.586   4.096 -0.3201  0.6033  0.1580
 1470ntf    fn412870   4.194   5.712   4.246 -0.4750 -0.0247  0.2621
 1471ntf    cn112871   3.515   4.763   3.129  0.0348 -0.1146  0.0605
 1471ntf    sn212872   3.552   4.600   3.201  0.0976  0.0230  0.3452
 1471ntf    nn312873   3.446   4.523   3.114 -0.2406  1.2781 -0.3814
 1471ntf    sn212874   3.295   4.491   3.140  0.1014 -0.0246  0.0577
 1471ntf    cn112875   3.221   4.492   2.974  0.1368  0.1756  0.0432
 1471ntf    fn412876   3.587   4.859   3.187 -0.2179  0.3078 -0.3145
 1471ntf    fn412877   3.542   4.764   3.000  0.0874 -0.3994  0.0692
 1471ntf    fn412878   3.389   4.798   3.149 -0.0648  0.2066 -1.0484
 1471ntf    on512879   3.689   4.567   3.170  0.2680  0.5668  0.4975
 1471ntf    on512880   3.523   4.612   3.341  0.0986  0.5905  0.2991
 1471ntf    on512881   3.269   4.353   3.172 -0.3920 -0.0958 -0.6309
 1471ntf    on512882   3.224   4.592   3.215  0.2881 -0.2271  0.5069
 1471ntf    fn412883   3.240   4.394   2.888  0.2126  0.0533  0.1986
 1471ntf    fn412884   3.265   4.597   2.907 -0.2127  0.2677 -0.0465
 1471ntf    fn412885   3.092   4.515   2.992 -0.0660 -0.7224 -0.1869
 1472ntf    cn112886   1.631   1.435   6.687  0.4092 -0.3973 -0.0996
 1472ntf    sn212887   1.571   1.357   6.839  0.1315  0.0409  0.0155
 1472ntf    nn312888   1.423   1.320   6.802  0.0468  0.5247 -0.1374
 1472ntf    sn212889   1.292   1.371   6.872 -0.2456 -0.4217  0.0131
 1472ntf    cn112890   1.212   1.211   6.906 -0.0719 -0.5331 -0.1008
 1472ntf    fn412891   1.616   1.355   6.582  0.1952  0.3046 -0.6124
 1472ntf    fn412892   1.563   1.546   6.665  0.4195 -0.3546  0.0842
 1472ntf    fn412893   1.756   1.480   6.689  0.2665  0.0083 -0.1664
 1472ntf    on512894   1.650   1.237   6.847 -0.5209 -0.3941  0.0068
 1472ntf    on512895   1.593   1.460   6.938  0.7342  0.3770 -0.4637
 1472ntf    on512896   1.294   1.445   6.996 -0.3953  0.4850 -0.5140
 1472ntf    on512897   1.197   1.429   6.781 -0.1009 -0.1186  0.0544
 1472ntf    fn412898   1.267   1.148   7.009  0.1194  0.1045  0.1914
 1472ntf    fn412899   1.222   1.130   6.802  0.3665  0.1270 -0.5845
 1472ntf    fn412900   1.084   1.232   6.935  0.1200 -0.0655  0.4336
 1473ntf    cn112901   0.673   2.140   4.451  0.1381  0.1080 -0.1624
 1473ntf    sn212902   0.734   2.112   4.620  0.0031  0.1716 -0.1037
 1473ntf    nn312903   0.888   2.098   4.594 -0.1075 -0.5740 -0.4087
 1473ntf    sn212904   0.987   2.218   4.568 -0.3571 -0.1978  0.3299
 1473ntf    cn112905   1.056   2.243   4.734 -0.2050  0.2358  0.2039
 1473ntf    fn412906   0.567   2.217   4.440 -0.1628 -0.3694 -0.6530
 1473ntf    fn412907   0.765   2.187   4.368  0.1565 -0.3745 -0.4178
 1473ntf    fn412908   0.646   2.018   4.406  0.0312 -0.0377  0.2949
 1473ntf    on512909   0.677   2.219   4.698 -0.5600  0.0712 -0.3721
 1473ntf    on512910   0.671   1.987   4.658  0.6867 -0.3154 -0.5460
 1473ntf    on512911   1.101   2.178   4.490 -0.3322  0.2974  0.1093
 1473ntf    on512912   0.923   2.342   4.532  0.0535 -0.1324 -0.1854
 1473ntf    fn412913   1.145   2.339   4.721  0.2670 -0.2540 -0.1930
 1473ntf    fn412914   1.114   2.136   4.786  0.2600  0.3163 -0.1534
 1473ntf    fn412915   0.961   2.278   4.819 -0.0818 -0.7167  0.7587
 1474ntf    cn112916   4.237   2.613   0.219 -0.1214 -0.5641 -0.2208
 1474ntf    sn212917   4.110   2.652   0.343  0.1214 -0.2972 -0.0546
 1474ntf    nn312918   3.975   2.623   0.270 -0.1217  0.1602  0.2032
 1474ntf    sn212919   3.842   2.706   0.271 -0.2276 -0.0045  0.0351
 1474ntf    cn112920   3.873   2.811   0.126  0.0010 -0.3233 -0.1476
 1474ntf    fn412921   4.214   2.675   0.105  0.0165  0.1442  0.1293
 1474ntf    fn412922   4.363   2.640   0.251 -0.2195  0.3898 -0.5931
 1474ntf    fn412923   4.237   2.483   0.197 -0.3347 -0.4482 -0.9066
 1474ntf    on512924   4.137   2.561   0.451 -0.0380  0.6159  0.7759
 1474ntf    on512925   4.141   2.791   0.366  0.3606 -0.3387 -0.1266
 1474ntf    on512926   3.729   2.627   0.230 -0.4538  0.3359 -0.0055
 1474ntf    on512927   3.827   2.805   0.375  0.1702  0.4008 -0.2844
 1474ntf    fn412928   3.994   2.864   0.135  0.0146 -0.4642  0.5319
 1474ntf    fn412929   3.786   2.910   0.110  0.1913 -0.2124 -0.5254
 1474ntf    fn412930   3.888   2.751   0.009  0.2130 -0.4254 -0.0700
 1475ntf    cn112931   2.456   4.526   4.686 -0.3121 -0.0520  0.2902
 1475ntf    sn212932   2.414   4.658   4.568 -0.1633  0.0900  0.3969
 1475ntf    nn312933   2.350   4.574   4.453  0.1838  0.7483 -0.2861
 1475ntf    sn212934   2.413   4.505   4.327 -0.1936  0.0357 -0.0903
 1475ntf    cn112935   2.408   4.325   4.352  0.2580  0.0318 -0.0156
 1475ntf    fn412936   2.553   4.455   4.632 -0.4300 -0.0448  0.0693
 1475ntf    fn412937   2.517   4.576   4.792 -0.0254 -0.1125  0.1545
 1475ntf    fn412938   2.361   4.441   4.721 -0.1876 -0.3174 -0.0166
 1475ntf    on512939   2.321   4.737   4.645 -0.4670 -0.1049  0.2300
 1475ntf    on512940   2.544   4.719   4.549 -0.0842 -0.3276 -0.4493
 1475ntf    on512941   2.330   4.521   4.210 -0.0577  0.0423 -0.1860
 1475ntf    on512942   2.556   4.522   4.314 -0.1939  0.1665  0.0683
 1475ntf    fn412943   2.514   4.272   4.411  0.5760  0.2234 -0.4167
 1475ntf    fn412944   2.394   4.254   4.241 -0.5299  0.1023  0.0280
 1475ntf    fn412945   2.308   4.287   4.431  0.2561  0.0063 -0.0297
 1476ntf    cn112946   4.866   1.455   5.708 -0.1202  0.3745  0.3040
 1476ntf    sn212947   4.981   1.537   5.593 -0.1433 -0.2030 -0.1346
 1476ntf    nn312948   5.063   1.624   5.694 -0.1808  0.2123 -0.4567
 1476ntf    sn212949   5.213   1.667   5.680 -0.0719  0.0905  0.2791
 1476ntf    cn112950   5.179   1.846   5.669  0.1973  0.1180 -0.1119
 1476ntf    fn412951   4.932   1.392   5.803 -0.4636  0.5956  0.6907
 1476ntf    fn412952   4.789   1.541   5.772 -0.3862  0.1332  0.3074
 1476ntf    fn412953   4.780   1.372   5.652  0.4298 -0.0256  0.0381
 1476ntf    on512954   5.045   1.428   5.523  0.5333 -0.0358  0.2186
 1476ntf    on512955   4.891   1.619   5.516  0.0642  0.2784  0.1352
 1476ntf    on512956   5.286   1.646   5.802 -0.3084  0.2019  0.4413
 1476ntf    on512957   5.281   1.656   5.553  0.3368  0.0794  0.4981
 1476ntf    fn412958   5.094   1.865   5.570  0.0939  0.2003 -0.0069
 1476ntf    fn412959   5.288   1.912   5.633 -0.1646  0.5169 -0.4904
 1476ntf    fn412960   5.125   1.904   5.774  0.4100  0.8701 -0.4152
 1477ntf    cn112961   0.615   2.643   0.925 -0.2438  0.2774  0.5769
 1477ntf    sn212962   0.476   2.573   0.829  0.2167  0.3902 -0.1770
 1477ntf    nn312963   0.514   2.421   0.830 -0.3404  0.2495 -0.2164
 1477ntf    sn212964   0.473   2.303   0.925  0.0985  0.2116 -0.0685
 1477ntf    cn112965   0.402   2.191   0.800  0.1459  0.1158 -0.0098
 1477ntf    fn412966   0.626   2.771   0.897  0.9419  0.1670  0.4848
 1477ntf    fn412967   0.594   2.636   1.056  0.7670  0.3435  0.7487
 1477ntf    fn412968   0.730   2.580   0.909 -0.6027 -0.3916  0.5811
 1477ntf    on512969   0.354   2.611   0.895 -0.0777 -0.4117 -0.2577
 1477ntf    on512970   0.494   2.630   0.698  0.2110  0.2599 -0.2340
 1477ntf    on512971   0.588   2.234   0.976  0.0715  0.2609  0.0588
 1477ntf    on512972   0.359   2.326   1.011  0.3261  0.2718  0.2154
 1477ntf    fn412973   0.305   2.242   0.725  0.0997  0.3700  0.2200
 1477ntf    fn412974   0.358   2.079   0.855  0.0900  0.1990  0.1155
 1477ntf    fn412975   0.492   2.164   0.706  0.4127 -0.3767  0.3839
 1478ntf    cn112976   4.182   3.782   1.753  0.7072 -0.2983  0.1210
 1478ntf    sn212977   4.196   3.729   1.580  0.0078  0.2473 -0.1045
 1478ntf    nn312978   4.299   3.611   1.586  0.2673  0.4552 -0.4336
 1478ntf    sn212979   4.451   3.637   1.615  0.2395  0.2533 -0.1002
 1478ntf    cn112980   4.523   3.483   1.550 -0.1220  0.0729 -0.0766
 1478ntf    fn412981   4.140   3.690   1.838  0.0016  0.1214  0.2371
 1478ntf    fn412982   4.301   3.818   1.799  0.6995  0.6745 -0.5958
 1478ntf    fn412983   4.111   3.892   1.770 -0.2097 -0.8886  0.1488
 1478ntf    on512984   4.066   3.679   1.542 -0.2731  0.5418  0.4562
 1478ntf    on512985   4.252   3.846   1.518  0.4382 -0.0495 -0.2813
 1478ntf    on512986   4.514   3.734   1.529 -0.3519  0.4283 -0.3430
 1478ntf    on512987   4.488   3.647   1.754  0.7726  0.0502 -0.2269
 1478ntf    fn412988   4.492   3.463   1.423 -0.2843  0.2246 -0.0623
 1478ntf    fn412989   4.487   3.375   1.618  0.1105  0.1474  0.1666
 1478ntf    fn412990   4.655   3.491   1.554 -0.1370  0.1650  0.2423
 1479ntf    cn112991   3.290   3.513   3.724 -0.1071 -0.0040 -0.4799
 1479ntf    sn212992   3.308   3.417   3.877  0.0648  0.1267 -0.4176
 1479ntf    nn312993   3.436   3.336   3.834  0.0709 -0.0152 -0.1361
 1479ntf    sn212994   3.544   3.263   3.922 -0.1080 -0.3890 -0.2252
 1479ntf    cn112995   3.680   3.377   3.880 -0.4517  0.1095 -0.0036
 1479ntf    fn412996   3.195   3.605   3.718 -0.1967 -0.0988 -0.5120
 1479ntf    fn412997   3.405   3.573   3.699  0.0434 -0.0502  0.0786
 1479ntf    fn412998   3.268   3.432   3.622  0.1044 -0.2907 -0.2979
 1479ntf    on512999   3.343   3.530   3.959  0.4672 -0.6203  0.4571
 1479ntf    on513000   3.185   3.343   3.890  0.0507  0.2803  0.4128
 1479ntf    on513001   3.515   3.284   4.062 -0.2821  0.5643 -0.3964
 1479ntf    on513002   3.586   3.136   3.869 -0.0372 -0.6556  0.4509
 1479ntf    fn413003   3.802   3.329   3.897 -0.2209  0.3995 -0.7966
 1479ntf    fn413004   3.660   3.480   3.961  0.2208 -0.0668  0.3906
 1479ntf    fn413005   3.679   3.426   3.757 -0.2511 -0.1106 -0.0930
 1480ntf    cn113006   5.923   5.321   3.937 -0.1548 -0.0934 -0.0663
 1480ntf    sn213007   5.759   5.280   3.870 -0.1812  0.1505 -0.1530
 1480ntf    nn313008   5.781   5.343   3.728 -0.0065  0.5516  0.0496
 1480ntf    sn213009   5.730   5.282   3.593  0.4413  0.3107 -0.0129
 1480ntf    cn113010   5.811   5.399   3.479  0.3213  0.1357 -0.2783
 1480ntf    fn413011   5.935   5.264   4.056 -0.2587  0.5198  0.2449
 1480ntf    fn413012   6.022   5.277   3.862  0.0632 -0.3578  0.3753
 1480ntf    fn413013   5.934   5.452   3.952 -0.5700 -0.0421 -0.2136
 1480ntf    on513014   5.754   5.137   3.882  0.2684  0.1737  0.3799
 1480ntf    on513015   5.674   5.351   3.962  0.3145  0.2235  0.2572
 1480ntf    on513016   5.796   5.158   3.560  0.0071  0.1670 -0.3544
 1480ntf    on513017   5.590   5.288   3.559  0.3305  0.2358  0.4227
 1480ntf    fn413018   5.740   5.510   3.469 -0.1571 -0.0816  0.5565
 1480ntf    fn413019   5.830   5.358   3.355 -0.1333 -0.3768 -0.1843
 1480ntf    fn413020   5.931   5.432   3.523  0.1905  0.3774 -0.1026
 1481ntf    cn113021   5.198   5.527   1.826 -0.0461  0.1967  0.3825
 1481ntf    sn213022   5.042   5.458   1.888 -0.0666 -0.1226 -0.0211
 1481ntf    nn313023   4.946   5.512   1.777  0.2934 -0.1127 -0.3309
 1481ntf    sn213024   4.828   5.442   1.700 -0.3155  0.2918  0.2146
 1481ntf    cn113025   4.929   5.379   1.562 -0.3302  0.2952  0.2021
 1481ntf    fn413026   5.208   5.484   1.701 -0.1744  0.4055  0.3000
 1481ntf    fn413027   5.203   5.659   1.820  0.1249  0.1554 -0.5390
 1481ntf    fn413028   5.310   5.504   1.893  0.5061  0.5080 -0.4126
 1481ntf    on513029   5.074   5.318   1.877  0.6005  0.0567 -0.4255
 1481ntf    on513030   5.033   5.507   2.024  0.1093  0.1312 -0.1009
 1481ntf    on513031   4.767   5.331   1.769 -0.6571  0.2651 -0.1257
 1481ntf    on513032   4.731   5.528   1.636 -0.7374  0.1140  0.6137
 1481ntf    fn413033   4.996   5.475   1.500  0.0960 -0.2287 -0.1572
 1481ntf    fn413034   4.848   5.324   1.472 -0.1197  0.3085  0.0043
 1481ntf    fn413035   5.004   5.280   1.606 -0.1333  0.0678 -0.6257
 1482ntf    cn113036   1.274   6.271   4.641 -0.1864 -0.2509  0.0244
 1482ntf    sn213037   1.281   6.089   4.639  0.2681 -0.2368  0.3210
 1482ntf    nn313038   1.163   6.058   4.738 -0.2483  0.3704 -0.0961
 1482ntf    sn213039   1.011   6.024   4.720 -0.1822  0.0743 -0.1067
 1482ntf    cn113040   0.937   6.144   4.835 -0.6916 -0.0166 -0.3359
 1482ntf    fn413041   1.182   6.320   4.560 -0.0099 -0.4430 -0.2929
 1482ntf    fn413042   1.251   6.315   4.764  0.7138  0.4731 -0.0588
 1482ntf    fn413043   1.391   6.325   4.613  0.0519 -0.3012  0.8834
 1482ntf    on513044   1.253   6.047   4.504 -0.0095  0.8893  0.0135
 1482ntf    on513045   1.408   6.053   4.697  0.2186 -0.5739  0.2204
 1482ntf    on513046   0.953   6.046   4.590  0.2118  0.0600 -0.2854
 1482ntf    on513047   0.978   5.901   4.788  0.0046  0.1105  0.0525
 1482ntf    fn413048   0.805   6.145   4.830 -0.7342 -0.0017  0.5146
 1482ntf    fn413049   0.982   6.265   4.809  0.3077 -0.3344 -0.1367
 1482ntf    fn413050   0.970   6.116   4.961 -0.2160 -0.7259 -0.6119
 1483ntf    cn113051   2.812   4.549   5.573  0.3199 -0.2624 -0.0275
 1483ntf    sn213052   2.779   4.686   5.688 -0.2042 -0.1792 -0.2753
 1483ntf    nn313053   2.687   4.613   5.791  0.1334 -0.0078  0.1505
 1483ntf    sn213054   2.723   4.581   5.941  0.1376  0.2324  0.2007
 1483ntf    cn113055   2.660   4.725   6.031 -0.2286  0.4047 -0.3233
 1483ntf    fn413056   2.877   4.452   5.636  0.4609 -0.1246  0.0407
 1483ntf    fn413057   2.705   4.485   5.528 -0.0054 -0.1530  0.5782
 1483ntf    fn413058   2.887   4.587   5.471 -0.4084  0.1141 -0.4310
 1483ntf    on513059   2.914   4.717   5.726 -0.3936  0.1939  0.0968
 1483ntf    on513060   2.702   4.776   5.605  0.3722  0.5572 -0.0146
 1483ntf    on513061   2.650   4.465   5.986  0.1925 -0.2307 -0.8513
 1483ntf    on513062   2.863   4.578   5.977  0.1044  0.5513  0.3550
 1483ntf    fn413063   2.724   4.833   5.987  0.0900  0.2966 -0.1266
 1483ntf    fn413064   2.684   4.717   6.161 -1.1303 -0.4514 -0.1963
 1483ntf    fn413065   2.531   4.752   6.016 -0.5497 -0.7107  0.3631
 1484ntf    cn113066   6.058   5.135   1.942  0.2284  0.3908 -0.1281
 1484ntf    sn213067   5.913   5.236   1.988  0.1255  0.1457  0.0952
 1484ntf    nn313068   5.925   5.205   2.141 -0.0784 -0.3202  0.0183
 1484ntf    sn213069   5.815   5.153   2.240 -0.2056  0.1326  0.1190
 1484ntf    cn113070   5.884   5.230   2.390  0.0522  0.0964  0.0190
 1484ntf    fn413071   6.117   5.171   1.830  0.6039  0.6523  0.1521
 1484ntf    fn413072   6.153   5.136   2.034 -0.4967  0.1486  0.6398
 1484ntf    fn413073   6.035   5.005   1.928  0.1026  0.3668  0.2693
 1484ntf    on513074   5.953   5.372   1.960 -0.3761  0.2399 -0.1578
 1484ntf    on513075   5.803   5.178   1.915  0.9230  0.0705 -1.0815
 1484ntf    on513076   5.684   5.212   2.227 -0.2843  0.0659  0.6018
 1484ntf    on513077   5.826   5.012   2.270  0.0708  0.0990 -0.1319
 1484ntf    fn413078   6.015   5.221   2.402  0.0131 -0.0492  0.3317
 1484ntf    fn413079   5.825   5.190   2.501 -0.2692  0.4561 -0.0214
 1484ntf    fn413080   5.863   5.360   2.389  0.0810  0.1029  0.2497
 1485ntf    cn113081   3.447   0.382   2.584 -0.1022 -0.1713  0.1965
 1485ntf    sn213082   3.517   0.231   2.656  0.0418 -0.0280  0.3601
 1485ntf    nn313083   3.388   0.143   2.673 -0.0537  0.0315 -0.0503
 1485ntf    sn213084   3.333   0.030   2.578  0.2409 -0.1587  0.0013
 1485ntf    cn113085   3.391  -0.120   2.663  0.2951 -0.1286  0.0177
 1485ntf    fn413086   3.389   0.352   2.469  0.0346  0.7627 -0.1334
 1485ntf    fn413087   3.350   0.432   2.658  0.3493  0.3426  0.4535
 1485ntf    fn413088   3.529   0.486   2.570 -0.2589 -0.0629  0.0758
 1485ntf    on513089   3.615   0.183   2.561 -0.6008 -0.1506 -0.2541
 1485ntf    on513090   3.561   0.277   2.785  0.4690  0.3684  0.0735
 1485ntf    on513091   3.190   0.012   2.592  0.3367 -0.6815  0.3046
 1485ntf    on513092   3.377   0.030   2.441  0.1489  0.2197 -0.0302
 1485ntf    fn413093   3.346  -0.129   2.787 -0.1932 -0.1620 -0.1565
 1485ntf    fn413094   3.523  -0.117   2.670  0.3108 -0.4385 -0.1214
 1485ntf    fn413095   3.356  -0.225   2.591 -0.4402  0.1316 -0.0180
 1486ntf    cn113096   0.310   5.481   5.768 -0.2861  0.3688 -0.1824
 1486ntf    sn213097   0.131   5.482   5.735 -0.3190 -0.0155 -0.0175
 1486ntf    nn313098   0.103   5.619   5.807  0.9359  0.1393  0.2004
 1486ntf    sn213099   0.071   5.659   5.955 -0.0448  0.1692 -0.0145
 1486ntf    cn113100  -0.109   5.676   5.931 -0.0186  0.3996 -0.0433
 1486ntf    fn413101   0.369   5.370   5.728  0.1819  0.4470  0.2825
 1486ntf    fn413102   0.366   5.590   5.718 -0.0803  0.3221 -0.0555
 1486ntf    fn413103   0.330   5.492   5.899 -0.8453  0.4263 -0.0988
 1486ntf    on513104   0.124   5.483   5.591  0.3005  0.1102 -0.0482
 1486ntf    on513105   0.091   5.367   5.812  0.4283 -0.5735 -0.4530
 1486ntf    on513106   0.093   5.554   6.053  0.0439  0.1604 -0.0441
 1486ntf    on513107   0.121   5.791   5.982  0.1577  0.1627 -0.3529
 1486ntf    fn413108  -0.162   5.556   5.923  0.1113  0.3773 -0.5770
 1486ntf    fn413109  -0.158   5.755   5.837 -0.0605 -0.0651 -0.4146
 1486ntf    fn413110  -0.155   5.733   6.042  0.5567  0.3353  0.2344
 1487ntf    cn113111   2.664   2.491   3.072  0.3291  0.1766 -0.0021
 1487ntf    sn213112   2.743   2.362   3.173  0.1525 -0.0435 -0.1455
 1487ntf    nn313113   2.748   2.251   3.062  0.3668 -0.3497  0.1706
 1487ntf    sn213114   2.865   2.218   2.963  0.3167 -0.0776  0.0220
 1487ntf    cn113115   2.983   2.135   3.072  0.0332 -0.0684  0.3388
 1487ntf    fn413116   2.749   2.538   2.981  0.3045  0.2684  0.0222
 1487ntf    fn413117   2.559   2.448   3.004 -0.0115  0.8648  0.0779
 1487ntf    fn413118   2.637   2.595   3.149 -0.3608 -0.0132  0.0131
 1487ntf    on513119   2.874   2.404   3.214  0.0848  0.1217 -0.0969
 1487ntf    on513120   2.643   2.331   3.273 -0.1572 -0.1886 -0.4971
 1487ntf    on513121   2.819   2.118   2.870  0.4265 -0.3812  0.2958
 1487ntf    on513122   2.936   2.328   2.903  0.0625  0.3211  0.4479
 1487ntf    fn413123   2.965   2.142   3.203 -0.3269  0.2344  0.2731
 1487ntf    fn413124   3.107   2.181   3.059 -0.1463  0.4841  0.5393
 1487ntf    fn413125   2.978   2.003   3.067 -0.3667 -0.0564  0.4525
 1488ntf    cn113126   5.904   4.534   5.814 -0.2560 -0.4028  0.4081
 1488ntf    sn213127   5.760   4.643   5.832 -0.0229 -0.1051  0.4927
 1488ntf    nn313128   5.784   4.719   5.966  0.0625  0.4184  0.1809
 1488ntf    sn213129   5.724   4.704   6.111 -0.1067  0.0769  0.0744
 1488ntf    cn113130   5.849   4.783   6.216 -0.1838 -0.1452  0.3342
 1488ntf    fn413131   5.923   4.439   5.904  0.1745 -0.4809  0.2374
 1488ntf    fn413132   5.895   4.473   5.697 -0.2866 -0.0935  0.2504
 1488ntf    fn413133   6.021   4.596   5.816 -0.1661 -0.5590  0.1535
 1488ntf    on513134   5.775   4.720   5.711 -0.3432 -0.8243 -0.0183
 1488ntf    on513135   5.646   4.554   5.827  0.3433 -0.5635  0.1718
 1488ntf    on513136   5.619   4.799   6.136 -0.1590  0.0257  0.0524
 1488ntf    on513137   5.713   4.566   6.151  0.4893  0.1310  0.4328
 1488ntf    fn413138   5.915   4.886   6.165 -0.1241 -0.4987 -0.3130
 1488ntf    fn413139   5.944   4.692   6.229  0.1023  0.1508  0.3499
 1488ntf    fn413140   5.808   4.809   6.339  0.0742  0.3181  0.3273
 1489ntf    cn113141   0.075   5.185   2.589 -0.1904 -0.2905  0.4273
 1489ntf    sn213142  -0.001   5.086   2.456 -0.1914  0.5837 -0.2379
 1489ntf    nn313143  -0.127   5.025   2.527  0.1700  0.0303 -0.0678
 1489ntf    sn213144  -0.134   4.914   2.639  0.0936  0.1490  0.0463
 1489ntf    cn113145  -0.170   5.008   2.790 -0.1824 -0.3929  0.3187
 1489ntf    fn413146   0.009   5.296   2.621  0.8318  0.5097 -0.1705
 1489ntf    fn413147   0.113   5.129   2.702 -0.2053  0.1357  0.6472
 1489ntf    fn413148   0.190   5.232   2.545 -0.3953  0.0444  0.2398
 1489ntf    on513149  -0.055   5.184   2.365 -0.1663  0.2636 -0.5979
 1489ntf    on513150   0.101   4.999   2.402 -0.4059  0.2921 -0.1758
 1489ntf    on513151  -0.257   4.840   2.633  0.3317 -0.2425 -0.0510
 1489ntf    on513152  -0.009   4.851   2.672 -0.1888 -0.4631 -0.0450
 1489ntf    fn413153  -0.287   5.068   2.778  0.0286  0.1106  0.7097
 1489ntf    fn413154  -0.080   5.102   2.816 -0.0549 -0.4217 -0.0076
 1489ntf    fn413155  -0.181   4.934   2.899 -0.6475 -0.5779  0.1482
 1490ntf    cn113156   4.572   4.432   1.175 -0.2249  0.4474 -0.1083
 1490ntf    sn213157   4.414   4.469   1.092 -0.2595 -0.2449 -0.3556
 1490ntf    nn313158   4.405   4.622   1.122  0.3110 -0.3082  0.1629
 1490ntf    sn213159   4.305   4.698   1.217  0.0306 -0.2809 -0.1547
 1490ntf    cn113160   4.377   4.865   1.216  0.4145 -0.4459 -0.6469
 1490ntf    fn413161   4.568   4.481   1.298  0.1926  0.5586 -0.1378
 1490ntf    fn413162   4.593   4.301   1.175 -0.1907  0.4520  0.2546
 1490ntf    fn413163   4.677   4.486   1.115 -0.0330 -0.1040 -0.2708
 1490ntf    on513164   4.435   4.434   0.954  0.1748  0.1013 -0.3781
 1490ntf    on513165   4.315   4.396   1.167 -0.0555  0.0804  0.2355
 1490ntf    on513166   4.172   4.703   1.160 -0.1297 -0.0999  0.2317
 1490ntf    on513167   4.316   4.661   1.356  0.2856  0.2727 -0.0244
 1490ntf    fn413168   4.297   4.961   1.261  0.5143 -0.6723  0.0096
 1490ntf    fn413169   4.410   4.899   1.092  0.3369  0.3393 -0.4583
 1490ntf    fn413170   4.487   4.862   1.289 -0.1383 -0.7455  0.1829
 1491ntf    cn113171   4.368   0.642   4.033 -0.4578  0.3682 -0.1033
 1491ntf    sn213172   4.506   0.698   3.929 -0.0479  0.0493  0.2636
 1491ntf    nn313173   4.448   0.659   3.788 -0.1036 -0.7081  0.4870
 1491ntf    sn213174   4.505   0.564   3.677  0.3356  0.0670  0.0346
 1491ntf    cn113175   4.627   0.674   3.600 -0.2226  0.2455 -0.5989
 1491ntf    fn413176   4.404   0.573   4.141 -0.3648  0.3824 -0.1254
 1491ntf    fn413177   4.299   0.744   4.081 -0.5699  0.3653 -0.2587
 1491ntf    fn413178   4.286   0.559   3.971  0.1126 -0.1374 -0.1885
 1491ntf    on513179   4.511   0.841   3.947  0.1348  0.0606  0.1168
 1491ntf    on513180   4.622   0.623   3.972  0.1253 -0.1079 -0.4623
 1491ntf    on513181   4.586   0.447   3.705  0.2428 -0.0309 -0.1030
 1491ntf    on513182   4.405   0.548   3.575 -0.1363 -0.5982  0.5850
 1491ntf    fn413183   4.721   0.704   3.689 -0.2603 -0.0539 -0.4598
 1491ntf    fn413184   4.565   0.783   3.556 -0.6431  0.2696  0.0424
 1491ntf    fn413185   4.687   0.618   3.496 -0.1044 -0.3139 -0.2290
 1492ntf    cn113186   4.295   4.599   6.604 -0.2802 -0.7940 -0.0295
 1492ntf    sn213187   4.257   4.635   6.430 -0.3883 -0.3208  0.0912
 1492ntf    nn313188   4.308   4.501   6.366  0.1100 -0.3359  0.5108
 1492ntf    sn213189   4.233   4.364   6.355 -0.2678 -0.1186  0.3740
 1492ntf    cn113190   4.291   4.299   6.196 -0.2015 -0.1397  0.4076
 1492ntf    fn413191   4.419   4.556   6.621  0.0230  0.1087  0.1243
 1492ntf    fn413192   4.283   4.711   6.674 -0.0622 -0.5944 -0.3071
 1492ntf    fn413193   4.209   4.516   6.661 -0.1498 -0.4513  0.6877
 1492ntf    on513194   4.116   4.665   6.427 -0.3922 -0.2722  0.6131
 1492ntf    on513195   4.345   4.746   6.402 -0.4940 -0.1743  0.3317
 1492ntf    on513196   4.293   4.275   6.451  0.7368 -0.2662 -0.3864
 1492ntf    on513197   4.089   4.364   6.353 -0.2587 -0.1394 -0.1937
 1492ntf    fn413198   4.423   4.306   6.185 -0.1966 -0.5400  0.1744
 1492ntf    fn413199   4.243   4.368   6.094  0.0769  0.5559  0.7369
 1492ntf    fn413200   4.264   4.170   6.184 -0.1018 -0.0669 -0.7376
 1493ntf    cn113201   2.286   4.563   0.362 -0.1523 -0.0531  0.1619
 1493ntf    sn213202   2.238   4.453   0.499 -0.0306 -0.1807  0.1026
 1493ntf    nn313203   2.084   4.446   0.472 -0.0287  0.0625  0.0268
 1493ntf    sn213204   1.969   4.483   0.572 -0.2955 -0.3539 -0.1234
 1493ntf    cn113205   1.992   4.369   0.712  0.0335  0.1217  0.2111
 1493ntf    fn413206   2.233   4.684   0.364  0.3851  0.1953 -0.3111
 1493ntf    fn413207   2.417   4.579   0.367 -0.2095  0.5844 -0.2615
 1493ntf    fn413208   2.256   4.520   0.241 -0.0331  0.1082  0.0747
 1493ntf    on513209   2.310   4.334   0.462 -0.1336  0.0056 -0.7189
 1493ntf    on513210   2.275   4.526   0.618 -0.1908 -0.4868  0.3422
 1493ntf    on513211   1.975   4.611   0.638 -0.7185  0.2121 -1.1613
 1493ntf    on513212   1.841   4.444   0.518 -0.4401  0.1069 -0.1185
 1493ntf    fn413213   1.978   4.245   0.669 -0.2250  0.0368  0.5339
 1493ntf    fn413214   1.900   4.385   0.805 -0.1854  0.3476 -0.0421
 1493ntf    fn413215   2.109   4.374   0.773  0.1768 -0.1348 -0.0392
 1494ntf    cn113216   0.998   0.015   2.176  0.2125 -0.2610  0.0587
 1494ntf    sn213217   1.015   0.131   2.037 -0.1279 -0.3148 -0.0276
 1494ntf    nn313218   0.947   0.259   2.097 -0.1036 -0.2091 -0.2248
 1494ntf    sn213219   0.824   0.343   2.047  0.0278  0.3103  0.3009
 1494ntf    cn113220   0.915   0.457   1.939  0.0948  0.3176  0.3654
 1494ntf    fn413221   1.067  -0.097   2.161  0.2619 -0.2392  0.1240
 1494ntf    fn413222   1.055   0.063   2.286  0.3806 -0.8021  0.2104
 1494ntf    fn413223   0.871  -0.015   2.198  0.3107 -0.4731  0.3464
 1494ntf    on513224   1.158   0.147   2.023 -0.0976 -0.4859  0.0816
 1494ntf    on513225   0.949   0.067   1.926  0.2368 -0.0222 -0.4185
 1494ntf    on513226   0.737   0.270   1.958  0.0950 -0.1593  0.6173
 1494ntf    on513227   0.771   0.423   2.154 -0.4210 -0.0559  0.3565
 1494ntf    fn413228   1.021   0.515   1.995  0.3353  0.4264 -0.1970
 1494ntf    fn413229   0.845   0.559   1.891  0.1365  0.3694  0.4137
 1494ntf    fn413230   0.958   0.388   1.835 -0.1339 -0.6742  0.9244
 1495ntf    cn113231   6.501   1.987   6.645  0.3516  0.3380 -0.0226
 1495ntf    sn213232   6.431   1.865   6.759  0.0896 -0.0944 -0.6413
 1495ntf    nn313233   6.481   1.922   6.897  0.3559  0.3060 -0.9049
 1495ntf    sn213234   6.621   1.911   6.966 -0.2300 -0.0431  0.2370
 1495ntf    cn113235   6.601   1.765   7.074  0.0298 -0.0356  0.2986
 1495ntf    fn413236   6.470   2.109   6.685 -0.6777 -0.1863  0.8251
 1495ntf    fn413237   6.633   1.996   6.646  0.3709  0.0154  0.4288
 1495ntf    fn413238   6.472   1.967   6.518  0.3723 -0.4658  0.0957
 1495ntf    on513239   6.290   1.886   6.734 -0.0328  0.0770  0.1433
 1495ntf    on513240   6.488   1.737   6.724 -0.8992 -0.7173 -0.0536
 1495ntf    on513241   6.735   1.893   6.879  0.2028  0.1253  0.7583
 1495ntf    on513242   6.634   2.014   7.067 -0.0125 -0.0107  0.1771
 1495ntf    fn413243   6.715   1.741   7.136  0.2471 -0.3302 -0.2097
 1495ntf    fn413244   6.564   1.655   7.011  0.2128 -0.0811  0.2719
 1495ntf    fn413245   6.511   1.787   7.168 -0.5309 -0.0207 -0.2324
 1496ntf    cn113246   4.409   1.324   0.838 -0.1517 -0.0684 -0.1232
 1496ntf    sn213247   4.531   1.203   0.780  0.0018  0.1345 -0.2266
 1496ntf    nn313248   4.617   1.191   0.911 -0.3025 -0.5472 -0.0837
 1496ntf    sn213249   4.764   1.140   0.929 -0.0623  0.1688  0.0148
 1496ntf    cn113250   4.754   1.056   1.090  0.0002 -0.0165 -0.0774
 1496ntf    fn413251   4.470   1.430   0.888 -0.0100 -0.1913 -0.0350
 1496ntf    fn413252   4.328   1.372   0.745 -0.1780  0.6815  0.2779
 1496ntf    fn413253   4.334   1.287   0.941  0.0505 -0.3272 -0.0698
 1496ntf    on513254   4.457   1.082   0.750 -0.1601 -0.0054  0.7134
 1496ntf    on513255   4.611   1.264   0.677  0.5649 -0.2082  0.0017
 1496ntf    on513256   4.802   1.035   0.838  0.3189  0.2172  0.1183
 1496ntf    on513257   4.856   1.250   0.941  0.2264 -0.0998  0.3002
 1496ntf    fn413258   4.736   1.136   1.194 -0.6420 -0.1235 -0.1016
 1496ntf    fn413259   4.855   0.976   1.119  0.1984 -0.0200 -0.7571
 1496ntf    fn413260   4.644   0.983   1.087  0.0915 -0.1823  0.4348
 1497ntf    cn113261   6.058   2.453   6.469  0.3229 -0.2282 -0.0460
 1497ntf    sn213262   6.125   2.617   6.430 -0.2700  0.0662  0.1484
 1497ntf    nn313263   5.993   2.681   6.375 -0.0810  0.0934 -0.2874
 1497ntf    sn213264   5.918   2.791   6.459 -0.4467 -0.1158 -0.3373
 1497ntf    cn113265   5.831   2.685   6.578 -0.3803  0.3224  0.1044
 1497ntf    fn413266   6.048   2.381   6.358 -0.1825  0.1182 -0.2322
 1497ntf    fn413267   6.129   2.381   6.554  0.3897 -0.2401 -0.1122
 1497ntf    fn413268   5.937   2.452   6.523  0.3145 -0.7540 -0.0739
 1497ntf    on513269   6.169   2.657   6.561  0.2183  0.4906 -0.1403
 1497ntf    on513270   6.226   2.590   6.330 -0.3410 -0.0508  0.1087
 1497ntf    on513271   5.989   2.895   6.529 -0.1564 -0.4498 -0.1337
 1497ntf    on513272   5.818   2.847   6.371 -0.5861 -0.9608 -0.7300
 1497ntf    fn413273   5.919   2.613   6.645 -0.3956 -0.0399 -0.2615
 1497ntf    fn413274   5.756   2.599   6.511  0.0740  0.0449 -0.0453
 1497ntf    fn413275   5.758   2.752   6.665 -0.2624  0.2684  0.2454
 1498ntf    cn113276   4.868   2.084   1.635  0.1410  0.0420  0.0543
 1498ntf    sn213277   4.926   2.251   1.677  0.2958  0.0563 -0.2181
 1498ntf    nn313278   5.046   2.219   1.772 -0.4472 -0.2928  0.6126
 1498ntf    sn213279   5.102   2.308   1.889  0.0675  0.1855  0.0115
 1498ntf    cn113280   5.030   2.197   2.013  0.5472 -0.3014 -0.1413
 1498ntf    fn413281   4.756   2.090   1.565  0.2537  0.0915 -0.1237
 1498ntf    fn413282   4.954   2.008   1.570  0.0490  0.1126 -0.1525
 1498ntf    fn413283   4.849   2.018   1.748 -0.1461 -0.3019 -0.1932
 1498ntf    on513284   4.964   2.305   1.548  0.1126  0.1581 -0.2297
 1498ntf    on513285   4.807   2.307   1.735  0.0458 -0.3934 -0.2932
 1498ntf    on513286   5.246   2.295   1.891  0.0789  0.2896 -0.0871
 1498ntf    on513287   5.054   2.443   1.907 -0.1347  0.0997  0.1168
 1498ntf    fn413288   5.093   2.081   2.007  0.3440 -0.4217 -0.0052
 1498ntf    fn413289   4.902   2.168   1.998  0.4245  0.2259 -0.1155
 1498ntf    fn413290   5.046   2.231   2.140 -0.1838  0.3653 -0.2207
 1499ntf    cn113291   2.451   6.548   2.492  0.1311  0.3897 -0.0362
 1499ntf    sn213292   2.386   6.545   2.662  0.0133  0.0089 -0.0868
 1499ntf    nn313293   2.515   6.596   2.736 -0.3166 -0.0997  0.5714
 1499ntf    sn213294   2.559   6.746   2.755 -0.1648 -0.0567 -0.0846
 1499ntf    cn113295   2.483   6.778   2.917  0.2102  0.1769  0.0466
 1499ntf    fn413296   2.560   6.622   2.486  0.4391 -0.0596 -0.0070
 1499ntf    fn413297   2.488   6.429   2.447 -0.4111  0.1106  0.2405
 1499ntf    fn413298   2.359   6.594   2.408 -0.1768 -0.4288 -0.1569
 1499ntf    on513299   2.272   6.632   2.651 -0.0370 -0.0982 -0.4276
 1499ntf    on513300   2.357   6.408   2.697  0.2787 -0.0931 -0.2585
 1499ntf    on513301   2.699   6.759   2.786 -0.2473 -0.1764  0.3471
 1499ntf    on513302   2.506   6.852   2.673 -0.0721 -0.0814 -0.1769
 1499ntf    fn413303   2.531   6.695   3.008 -0.5670 -0.4666 -0.1124
 1499ntf    fn413304   2.351   6.769   2.921  0.1745  0.7237  0.1104
 1499ntf    fn413305   2.503   6.900   2.962 -0.4469  0.3340 -0.0651
 1500ntf    cn113306   6.239   2.644   3.645  0.0214  0.0263  0.0834
 1500ntf    sn213307   6.349   2.626   3.501 -0.2034 -0.2518 -0.0545
 1500ntf    nn313308   6.444   2.511   3.550 -0.1564 -0.0693  0.2853
 1500ntf    sn213309   6.439   2.356   3.531 -0.0731 -0.0075 -0.2708
 1500ntf    cn113310   6.560   2.304   3.656 -0.1684  0.0408 -0.1583
 1500ntf    fn413311   6.150   2.546   3.645  0.0719 -0.0197  0.1384
 1500ntf    fn413312   6.300   2.643   3.763  0.0755  0.0131  0.0554
 1500ntf    fn413313   6.173   2.758   3.638 -0.0455 -0.0335 -0.2862
 1500ntf    on513314   6.254   2.585   3.401 -0.4237  0.1194  0.0013
 1500ntf    on513315   6.415   2.754   3.495  0.0919 -0.4224 -0.4332
 1500ntf    on513316   6.315   2.292   3.571 -0.0363  0.2644  0.2871
 1500ntf    on513317   6.495   2.304   3.409  0.0795 -0.3815 -0.0430
 1500ntf    fn413318   6.540   2.350   3.779 -0.3238  0.3780 -0.3092
 1500ntf    fn413319   6.686   2.320   3.621 -0.0763 -0.1736  0.0697
 1500ntf    fn413320   6.539   2.175   3.680 -0.4798  0.0786 -0.2228
 1501ntf    cn113321   4.333   1.459   3.935 -0.0474 -0.0389 -0.2312
 1501ntf    sn213322   4.414   1.620   3.913  0.0239 -0.0225  0.1367
 1501ntf    nn313323   4.458   1.629   3.762  0.3907  0.2619  0.2589
 1501ntf    sn213324   4.422   1.729   3.646  0.4895 -0.0203 -0.0169
 1501ntf    cn113325   4.301   1.635   3.548  0.4988  0.3710 -0.4038
 1501ntf    fn413326   4.420   1.360   3.930 -0.4428 -0.4020  0.0013
 1501ntf    fn413327   4.293   1.455   4.061 -0.4747 -0.4548 -0.3754
 1501ntf    fn413328   4.240   1.437   3.844 -0.0697 -0.1132 -0.1917
 1501ntf    on513329   4.314   1.722   3.933  0.4533  0.3080  0.6132
 1501ntf    on513330   4.531   1.626   3.998  0.6066  0.1555 -0.6606
 1501ntf    on513331   4.348   1.846   3.687  0.5521  0.1920 -0.5065
 1501ntf    on513332   4.527   1.754   3.552  0.0547  0.3784 -0.4043
 1501ntf    fn413333   4.278   1.693   3.431 -0.2622  0.2037 -0.3424
 1501ntf    fn413334   4.184   1.622   3.607  0.6067  0.1283 -0.2439
 1501ntf    fn413335   4.362   1.518   3.541  0.1206  0.1788 -0.4774
 1502ntf    cn113336   6.233   1.438   0.989  0.0583 -0.5020  0.0214
 1502ntf    sn213337   6.265   1.615   0.965 -0.2427 -0.4461  0.0272
 1502ntf    nn313338   6.374   1.638   1.076 -0.0236  0.6228 -0.3980
 1502ntf    sn213339   6.526   1.679   1.073  0.1818 -0.1246 -0.4038
 1502ntf    cn113340   6.583   1.608   1.231 -0.5134  0.0551 -0.0647
 1502ntf    fn413341   6.143   1.412   1.083 -0.1703 -0.1143 -0.0874
 1502ntf    fn413342   6.186   1.380   0.880 -0.0286 -0.4572  0.0344
 1502ntf    fn413343   6.347   1.379   1.019  0.4640  0.3496  0.1788
 1502ntf    on513344   6.311   1.627   0.829 -0.2654  0.7561  0.1145
 1502ntf    on513345   6.137   1.677   0.992  0.2866  0.6886 -0.0022
 1502ntf    on513346   6.613   1.613   0.980  0.5907 -0.1702  0.0083
 1502ntf    on513347   6.535   1.822   1.093 -0.2586 -0.0992 -0.3548
 1502ntf    fn413348   6.580   1.476   1.222  0.3311 -0.0132  0.4963
 1502ntf    fn413349   6.533   1.655   1.344  0.0955 -0.0203  0.2378
 1502ntf    fn413350   6.714   1.623   1.242 -0.5140  0.1616 -0.1968
 1503ntf    cn113351   5.517   2.357   2.920  0.2698 -0.5169  0.0175
 1503ntf    sn213352   5.687   2.381   2.979  0.0458 -0.1490  0.5246
 1503ntf    nn313353   5.747   2.468   2.863  0.2418 -0.3328  0.4864
 1503ntf    sn213354   5.870   2.431   2.774  0.0472  0.2230 -0.0181
 1503ntf    cn113355   6.006   2.495   2.877 -0.0401 -0.0066  0.2413
 1503ntf    fn413356   5.453   2.260   2.984  0.1762 -0.5334 -0.1006
 1503ntf    fn413357   5.438   2.461   2.942  0.2642 -0.4741 -0.2029
 1503ntf    fn413358   5.510   2.324   2.792 -0.2351  0.2287 -0.1495
 1503ntf    on513359   5.665   2.447   3.105  0.4105  0.0094  0.5075
 1503ntf    on513360   5.725   2.242   2.986 -0.3789 -0.2961 -0.0951
 1503ntf    on513361   5.907   2.292   2.772 -0.0745  0.1843  0.4171
 1503ntf    on513362   5.891   2.506   2.652  0.5262  0.1754  0.0306
 1503ntf    fn413363   6.124   2.488   2.819  0.1751  0.2507  0.6468
 1503ntf    fn413364   6.026   2.422   2.985  0.1057  0.3307  0.4447
 1503ntf    fn413365   5.991   2.621   2.915 -0.1602  0.1923 -0.4491
 1504ntf    cn113366   4.164   4.245   2.044 -0.0933 -0.3170 -0.1920
 1504ntf    sn213367   4.216   4.294   1.876  0.1010  0.1364 -0.0004
 1504ntf    nn313368   4.141   4.429   1.851  0.1556  0.1512 -0.0787
 1504ntf    sn213369   4.079   4.492   1.721  0.2871  0.0239 -0.2035
 1504ntf    cn113370   3.953   4.374   1.665 -0.1460  0.5396 -0.3207
 1504ntf    fn413371   4.229   4.136   2.081 -0.0566 -0.1795  0.1515
 1504ntf    fn413372   4.195   4.339   2.131  0.3304 -0.2191 -0.4429
 1504ntf    fn413373   4.034   4.225   2.060 -0.1169 -0.0314 -0.0206
 1504ntf    on513374   4.360   4.303   1.891  0.1690 -0.2195 -0.4344
 1504ntf    on513375   4.172   4.184   1.794 -0.6834  0.3870  0.0809
 1504ntf    on513376   3.997   4.603   1.762 -0.0512 -0.2212 -0.2133
 1504ntf    on513377   4.171   4.513   1.612  0.4879 -0.2410 -0.0876
 1504ntf    fn413378   3.866   4.346   1.761  0.2953 -0.2167 -0.1293
 1504ntf    fn413379   4.001   4.259   1.619 -0.1233  0.4966 -0.1898
 1504ntf    fn413380   3.881   4.426   1.567 -0.5273 -0.2986 -0.4927
 1505ntf    cn113381   6.421   3.625   1.899  0.4517 -0.1478  0.3795
 1505ntf    sn213382   6.507   3.773   1.961 -0.1765  0.4622 -0.1880
 1505ntf    nn313383   6.642   3.772   1.881  0.4065 -0.3041  0.7803
 1505ntf    sn213384   6.719   3.887   1.807  0.0194 -0.2507  0.4597
 1505ntf    cn113385   6.656   3.848   1.640  0.1719 -0.1463  0.3773
 1505ntf    fn413386   6.313   3.602   1.971  0.1671  0.0950  0.0314
 1505ntf    fn413387   6.389   3.643   1.772 -0.3419 -0.2325  0.5661
 1505ntf    fn413388   6.488   3.511   1.902  0.1350 -0.3512 -0.1644
 1505ntf    on513389   6.413   3.877   1.927 -0.8252 -0.1965 -0.4294
 1505ntf    on513390   6.524   3.747   2.102  0.0324  0.1645 -0.2657
 1505ntf    on513391   6.677   4.022   1.836 -0.4825 -0.2365 -0.2874
 1505ntf    on513392   6.860   3.856   1.803 -0.0278 -0.4332  0.1874
 1505ntf    fn413393   6.661   3.718   1.616  0.4524 -0.1032  0.2040
 1505ntf    fn413394   6.727   3.911   1.548 -0.0321 -0.3225  0.1005
 1505ntf    fn413395   6.530   3.885   1.622 -0.0095 -0.7868  0.3063
 1506ntf    cn113396   6.638   1.317   2.768  0.2241 -0.3098 -0.1980
 1506ntf    sn213397   6.535   1.297   2.916 -0.1456  0.2567 -0.3765
 1506ntf    nn313398   6.406   1.239   2.851  0.1236  0.0325 -0.7108
 1506ntf    sn213399   6.371   1.086   2.839 -0.3352  0.1078 -0.3563
 1506ntf    cn113400   6.277   1.062   2.686 -0.4181 -0.0860 -0.2758
 1506ntf    fn413401   6.574   1.380   2.671 -0.4750 -0.5710  0.0908
 1506ntf    fn413402   6.749   1.388   2.786  0.1314 -0.2351  0.0807
 1506ntf    fn413403   6.673   1.206   2.705  0.7685 -0.0491 -0.3663
 1506ntf    on513404   6.617   1.209   2.996  0.2818  0.6882 -0.3322
 1506ntf    on513405   6.515   1.429   2.972 -0.2032  0.0271  0.1505
 1506ntf    on513406   6.480   0.992   2.831 -0.0793  0.2948  0.6676
 1506ntf    on513407   6.275   1.056   2.943  0.3550  0.3062  0.3554
 1506ntf    fn413408   6.202   1.167   2.658 -0.0151  0.3731  0.3556
 1506ntf    fn413409   6.198   0.956   2.691 -0.3881 -0.0890  0.1302
 1506ntf    fn413410   6.362   1.045   2.586  0.2121 -0.0152  0.2407
 1507ntf    cn113411   0.205   3.026   3.432 -0.2088  0.1265  0.1723
 1507ntf    sn213412   0.095   2.981   3.569 -0.0448 -0.2732  0.1756
 1507ntf    nn313413   0.178   2.859   3.621  0.3779  0.1412  0.4806
 1507ntf    sn213414   0.132   2.710   3.642 -0.1893  0.3233  0.5229
 1507ntf    cn113415   0.068   2.724   3.812 -0.2030  0.4053  0.5116
 1507ntf    fn413416   0.138   3.113   3.359 -0.1957 -0.1438 -0.1621
 1507ntf    fn413417   0.322   3.077   3.468  0.0296  0.1482 -0.6269
 1507ntf    fn413418   0.222   2.921   3.354 -0.4130 -0.1030  0.4348
 1507ntf    on513419   0.090   3.095   3.657  0.9577  0.2337 -0.4073
 1507ntf    on513420  -0.031   2.952   3.505  0.2975  0.0307 -0.6420
 1507ntf    on513421   0.023   2.665   3.559  0.3633 -0.4866  0.2299
 1507ntf    on513422   0.240   2.618   3.661 -0.1224  0.2042 -0.3862
 1507ntf    fn413423  -0.021   2.633   3.850 -0.0839  0.0561 -0.0241
 1507ntf    fn413424   0.010   2.842   3.829  0.2414  0.6590  0.2869
 1507ntf    fn413425   0.167   2.721   3.899  0.2315 -0.2581  0.0058
 1508ntf    cn113426   0.719   1.560   1.432  0.5575  0.1684 -0.2686
 1508ntf    sn213427   0.584   1.659   1.361  0.1630 -0.1445  0.0474
 1508ntf    nn313428   0.606   1.793   1.439 -0.0905  0.1074 -0.3074
 1508ntf    sn213429   0.564   1.824   1.587  0.2262 -0.3328 -0.1230
 1508ntf    cn113430   0.705   1.921   1.647  0.0823  0.1287 -0.5288
 1508ntf    fn413431   0.696   1.522   1.557  0.5151  0.4004 -0.2045
 1508ntf    fn413432   0.728   1.448   1.362 -0.2794 -0.0488 -0.0386
 1508ntf    fn413433   0.837   1.619   1.426  0.6125  0.0099 -0.7616
 1508ntf    on513434   0.631   1.667   1.226  0.1812 -0.0663  0.0585
 1508ntf    on513435   0.468   1.576   1.387 -0.1426  0.1155 -0.4837
 1508ntf    on513436   0.457   1.920   1.599  0.5413  0.0438 -0.3510
 1508ntf    on513437   0.561   1.710   1.677  0.6102 -0.0096  0.3044
 1508ntf    fn413438   0.681   2.044   1.605  0.2879  0.2586 -0.2714
 1508ntf    fn413439   0.824   1.890   1.599  0.5829  0.2294  0.6016
 1508ntf    fn413440   0.720   1.916   1.778  0.3439  0.3192 -0.5491
 1509ntf    cn113441   6.630   6.616   5.685  0.0409  0.0102 -0.1336
 1509ntf    sn213442   6.691   6.444   5.681 -0.0241 -0.0214  0.1878
 1509ntf    nn313443   6.578   6.388   5.587 -0.0568 -0.0455  0.2407
 1509ntf    sn213444   6.583   6.255   5.503 -0.0745 -0.0858  0.3033
 1509ntf    cn113445   6.507   6.142   5.623  0.3389 -0.3748  0.2915
 1509ntf    fn413446   6.598   6.660   5.565 -0.3724 -0.4168 -0.1847
 1509ntf    fn413447   6.516   6.629   5.751 -0.0449 -0.1804 -0.2435
 1509ntf    fn413448   6.711   6.711   5.728  0.1759  0.0599 -0.4962
 1509ntf    on513449   6.822   6.461   5.623  0.1342 -0.5431  0.3892
 1509ntf    on513450   6.682   6.383   5.811  0.0966 -0.3882  0.0230
 1509ntf    on513451   6.491   6.266   5.392  0.2072 -0.3393  0.0428
 1509ntf    on513452   6.712   6.197   5.477  0.1065  0.3825  0.1502
 1509ntf    fn413453   6.577   6.146   5.736  0.0413  0.1761  0.4602
 1509ntf    fn413454   6.500   6.018   5.576  0.0718 -0.0272 -0.5954
 1509ntf    fn413455   6.384   6.186   5.640  0.3618 -0.1744 -0.0470
 1510ntf    cn113456   0.550   6.420   4.792  0.2545  0.2597 -0.4789
 1510ntf    sn213457   0.469   6.567   4.861  0.0619  0.0006 -0.1482
 1510ntf    nn313458   0.339   6.557   4.773 -0.1913 -0.0050  0.2252
 1510ntf    sn213459   0.192   6.604   4.800 -0.2591 -0.0970  0.0114
 1510ntf    cn113460   0.153   6.672   4.636  0.1911  0.0234 -0.0470
 1510ntf    fn413461   0.682   6.432   4.793  0.2848 -0.0756  0.1644
 1510ntf    fn413462   0.516   6.298   4.830  0.4812  0.3423 -0.0079
 1510ntf    fn413463   0.520   6.423   4.663 -0.2139 -0.4504 -0.3909
 1510ntf    on513464   0.450   6.528   4.999  0.0779 -0.1485 -0.1881
 1510ntf    on513465   0.565   6.671   4.830  0.6042 -0.3431  0.3518
 1510ntf    on513466   0.106   6.489   4.817 -0.0902 -0.2505 -0.1643
 1510ntf    on513467   0.183   6.711   4.896  0.4718  0.0705 -0.1066
 1510ntf    fn413468   0.031   6.724   4.642  0.2065  0.0520  0.0331
 1510ntf    fn413469   0.159   6.589   4.534 -0.1729 -0.1390  0.0619
 1510ntf    fn413470   0.234   6.773   4.609 -0.3870  0.4408 -0.2326
 1511ntf    cn113471   6.268   1.269   0.053  0.0112  0.3366  0.5405
 1511ntf    sn213472   6.119   1.197   0.127  0.0540  0.0714  0.3698
 1511ntf    nn313473   6.169   1.095   0.235  0.4701 -0.4667 -0.3341
 1511ntf    sn213474   6.157   0.938   0.226 -0.2913 -0.4429  0.2895
 1511ntf    cn113475   6.281   0.897   0.353 -0.0743 -0.3927  0.0934
 1511ntf    fn413476   6.240   1.331  -0.060  0.1759 -0.0257  0.3024
 1511ntf    fn413477   6.316   1.364   0.133 -0.0380  0.4190  0.4729
 1511ntf    fn413478   6.368   1.184   0.038 -0.3537  0.0176 -0.0885
 1511ntf    on513479   6.059   1.317   0.183  0.2480  0.2909  0.1084
 1511ntf    on513480   6.042   1.154   0.013 -0.1630 -0.3878  0.6830
 1511ntf    on513481   6.031   0.887   0.275 -0.0488 -0.9889  0.3473
 1511ntf    on513482   6.217   0.880   0.109 -0.0789  0.2859  0.0285
 1511ntf    fn413483   6.396   0.938   0.303 -0.4492  0.2774 -0.2458
 1511ntf    fn413484   6.293   0.766   0.365  0.2245 -0.3257  0.5296
 1511ntf    fn413485   6.254   0.951   0.470 -0.4529  0.5639 -0.4223
 1512ntf    cn113486   6.028   6.022   1.549  0.2424 -0.3371 -0.2335
 1512ntf    sn213487   6.089   5.990   1.380  0.2050  0.3852 -0.3866
 1512ntf    nn313488   6.227   6.061   1.363  0.3000  0.3105  0.0568
 1512ntf    sn213489   6.274   6.190   1.286  0.2890  0.3535  0.1211
 1512ntf    cn113490   6.275   6.128   1.115  0.2387 -0.0444  0.2651
 1512ntf    fn413491   6.010   6.147   1.587  0.0650 -0.3921 -0.1385
 1512ntf    fn413492   5.912   5.962   1.567  0.0479 -0.0216 -0.4430
 1512ntf    fn413493   6.111   5.973   1.640  0.2019 -0.1935 -0.1183
 1512ntf    on513494   6.109   5.848   1.376  0.2324  0.3869 -0.3219
 1512ntf    on513495   5.982   6.051   1.305 -0.0864 -0.2700 -0.5060
 1512ntf    on513496   6.173   6.291   1.267 -0.3372 -0.2795  0.0464
 1512ntf    on513497   6.411   6.224   1.316  0.2928  0.6737 -0.2542
 1512ntf    fn413498   6.272   6.226   1.027  0.4552  0.1562  0.4830
 1512ntf    fn413499   6.164   6.065   1.080  0.6105 -0.5301 -0.0504
 1512ntf    fn413500   6.378   6.047   1.092  0.1620 -0.0708  0.0039
 1513ntf    cn113501   2.050   5.293   6.253 -0.0899 -0.0350 -0.0265
 1513ntf    sn213502   1.980   5.332   6.090  0.0104  0.0334 -0.0524
 1513ntf    nn313503   1.841   5.388   6.137  0.0808  0.1619  0.0002
 1513ntf    sn213504   1.795   5.538   6.133 -0.1618  0.0824 -0.2102
 1513ntf    cn113505   1.642   5.524   6.036 -0.3857 -0.0027  0.1530
 1513ntf    fn413506   1.958   5.221   6.315  0.3053 -0.2198  0.3470
 1513ntf    fn413507   2.158   5.217   6.252  0.2170  0.4021 -0.0314
 1513ntf    fn413508   2.079   5.395   6.331  0.3654 -0.1494 -0.0456
 1513ntf    on513509   2.075   5.425   6.034  0.3131  0.0502  0.4807
 1513ntf    on513510   1.965   5.202   6.028  0.2627  0.0597 -0.1714
 1513ntf    on513511   1.752   5.592   6.260  0.1967  0.7146 -0.3540
 1513ntf    on513512   1.868   5.626   6.046  0.1286 -0.5454 -0.6022
 1513ntf    fn413513   1.582   5.642   6.040 -0.4974 -0.0448 -0.2449
 1513ntf    fn413514   1.556   5.436   6.085 -0.3976 -0.3051 -0.4094
 1513ntf    fn413515   1.662   5.489   5.910 -0.4095 -0.4516  0.2732
 1514ntf    cn113516   2.432   3.207   4.121 -0.0117  0.1811  1.0200
 1514ntf    sn213517   2.472   3.362   4.207  0.0834  0.5668  0.2879
 1514ntf    nn313518   2.626   3.341   4.227  0.0031  0.1109  0.4313
 1514ntf    sn213519   2.751   3.429   4.190  0.1613 -0.2868  0.0113
 1514ntf    cn113520   2.788   3.354   4.028 -0.1173 -0.1733 -0.1053
 1514ntf    fn413521   2.525   3.181   4.031 -0.6101  0.3396  0.3396
 1514ntf    fn413522   2.413   3.094   4.188 -0.2582 -0.7119 -0.5126
 1514ntf    fn413523   2.322   3.226   4.050  0.8530 -0.0474 -0.4118
 1514ntf    on513524   2.434   3.470   4.120  0.2618  0.1199 -0.3532
 1514ntf    on513525   2.389   3.357   4.325 -0.1187 -0.2670  0.1139
 1514ntf    on513526   2.727   3.569   4.168  0.1824 -0.2277  0.3702
 1514ntf    on513527   2.866   3.395   4.269 -0.0956 -0.2450  0.4071
 1514ntf    fn413528   2.816   3.225   4.034  0.0179 -0.1341  0.1215
 1514ntf    fn413529   2.885   3.420   3.966  0.2975 -0.2005  0.4986
 1514ntf    fn413530   2.684   3.359   3.946 -0.0925 -0.2457 -0.1419
 1515ntf    cn113531   2.488   0.443   5.799  0.2250  0.3449  0.4474
 1515ntf    sn213532   2.560   0.413   5.963  0.4000 -0.0931  0.2924
 1515ntf    nn313533   2.707   0.464   5.940  0.2798  0.2446  0.2717
 1515ntf    sn213534   2.819   0.383   5.865 -0.0884 -0.0261  0.0090
 1515ntf    cn113535   2.839   0.477   5.710 -0.5164  0.2515  0.1204
 1515ntf    fn413536   2.533   0.359   5.707 -0.2930 -0.3634  0.8244
 1515ntf    fn413537   2.356   0.438   5.795  0.2493 -0.0590 -0.0103
 1515ntf    fn413538   2.517   0.565   5.757  0.4556  0.1694  0.0969
 1515ntf    on513539   2.485   0.499   6.051 -0.5985  0.0291 -0.6603
 1515ntf    on513540   2.541   0.272   5.985 -0.6893  0.0417  0.2665
 1515ntf    on513541   2.950   0.392   5.925  0.1811  0.3419 -0.6244
 1515ntf    on513542   2.778   0.252   5.822  0.4983 -0.1913 -0.0521
 1515ntf    fn413543   2.895   0.596   5.720 -0.1520  0.1109 -0.2269
 1515ntf    fn413544   2.723   0.482   5.646  0.0336  0.1756 -0.8906
 1515ntf    fn413545   2.921   0.413   5.629  0.0609  0.4981  0.5074
 1516ntf    cn113546   2.521   1.871   4.421 -0.2163  0.0595 -0.1728
 1516ntf    sn213547   2.356   1.914   4.487 -0.1791  0.2937 -0.2319
 1516ntf    nn313548   2.298   1.771   4.517  0.4039  0.1843  0.4033
 1516ntf    sn213549   2.284   1.696   4.654  0.2348  0.0363  0.3054
 1516ntf    cn113550   2.122   1.757   4.711 -0.0485 -0.3150 -0.1144
 1516ntf    fn413551   2.589   1.974   4.375 -0.3425  0.2146 -0.0177
 1516ntf    fn413552   2.598   1.829   4.520 -0.2661  0.8697  0.2193
 1516ntf    fn413553   2.519   1.780   4.326 -0.2723 -0.0282 -0.0885
 1516ntf    on513554   2.382   1.995   4.603  0.0078  0.1022 -0.1379
 1516ntf    on513555   2.298   1.984   4.375 -0.2617  0.1261 -0.2952
 1516ntf    on513556   2.267   1.554   4.639 -0.1809  0.0979  0.1633
 1516ntf    on513557   2.379   1.738   4.754  0.2896 -0.3877  0.4345
 1516ntf    fn413558   2.097   1.721   4.835  0.0355  0.0176  0.0010
 1516ntf    fn413559   2.018   1.712   4.644 -0.6654  0.3042  0.4107
 1516ntf    fn413560   2.122   1.889   4.724 -0.3723 -0.3748  0.5016
 1517ntf    cn113561   5.932   4.419   1.891 -0.0740  0.0086 -0.0926
 1517ntf    sn213562   5.899   4.355   1.724 -0.0105 -0.1512 -0.0436
 1517ntf    nn313563   5.799   4.235   1.743  0.3044 -0.4248 -0.1035
 1517ntf    sn213564   5.674   4.209   1.652  0.1626  0.1883 -0.0906
 1517ntf    cn113565   5.550   4.295   1.752  0.0113 -0.1303 -0.0040
 1517ntf    fn413566   5.972   4.314   1.960  0.1643 -0.0337 -0.2938
 1517ntf    fn413567   6.022   4.516   1.903  0.1998 -0.2149 -0.3384
 1517ntf    fn413568   5.828   4.467   1.957 -0.1373  0.0514 -0.2230
 1517ntf    on513569   5.842   4.469   1.657 -0.3919 -0.1720  0.2403
 1517ntf    on513570   6.034   4.315   1.692  0.2273  0.0927  0.6357
 1517ntf    on513571   5.656   4.275   1.525 -0.7982  0.5761  0.2406
 1517ntf    on513572   5.624   4.075   1.665  0.3525  0.1153 -0.0971
 1517ntf    fn413573   5.611   4.397   1.811 -0.2557  0.0627 -0.0557
 1517ntf    fn413574   5.489   4.223   1.844 -0.3205  0.2740  0.0993
 1517ntf    fn413575   5.450   4.349   1.684  0.0185  0.5931  0.5391
 1518ntf    cn113576   3.179   5.537   2.929  0.1948 -0.2449 -0.0952
 1518ntf    sn213577   3.138   5.405   3.048  0.0438 -0.1710 -0.0641
 1518ntf    nn313578   3.278   5.338   3.070  0.1582 -0.0011 -0.2631
 1518ntf    sn213579   3.395   5.359   3.173 -0.0549  0.1749 -0.0590
 1518ntf    cn113580   3.360   5.228   3.295 -0.0005 -0.1462 -0.3904
 1518ntf    fn413581   3.221   5.477   2.819 -0.1571 -0.4328 -0.1310
 1518ntf    fn413582   3.071   5.605   2.895  0.4846  0.2275 -0.0775
 1518ntf    fn413583   3.266   5.627   2.970 -0.0375 -0.1062  0.0984
 1518ntf    on513584   3.087   5.478   3.162  0.4985  0.3439 -0.1826
 1518ntf    on513585   3.042   5.316   2.989  0.1099 -0.1110 -0.2634
 1518ntf    on513586   3.523   5.325   3.117  0.0437  0.1696  0.1660
 1518ntf    on513587   3.387   5.479   3.254 -0.0924  0.4395 -0.4509
 1518ntf    fn413588   3.232   5.195   3.288 -0.1219  0.1537  0.3801
 1518ntf    fn413589   3.381   5.267   3.419  0.4222  0.2153 -0.5690
 1518ntf    fn413590   3.423   5.113   3.277 -0.3384 -0.4025  0.0819
 1519ntf    cn113591   0.064   6.092   4.168 -0.0177 -0.1156  0.2476
 1519ntf    sn213592   0.159   6.245   4.196  0.0014 -0.1120  0.1653
 1519ntf    nn313593   0.301   6.184   4.167 -0.3522 -0.5869 -0.6028
 1519ntf    sn213594   0.394   6.197   4.042  0.0959 -0.2540 -0.2386
 1519ntf    cn113595   0.517   6.065   4.064  0.6384  0.3071  0.1523
 1519ntf    fn413596  -0.066   6.097   4.193  0.0536 -0.0511  0.6205
 1519ntf    fn413597   0.084   6.054   4.043  0.3857  0.5358  0.1078
 1519ntf    fn413598   0.106   5.991   4.242 -0.1525 -0.0082  0.4712
 1519ntf    on513599   0.114   6.346   4.104 -0.1406  0.5800  0.9797
 1519ntf    on513600   0.133   6.270   4.336 -0.3081 -0.0112  0.0910
 1519ntf    on513601   0.321   6.164   3.922  0.4601 -0.0331 -0.5252
 1519ntf    on513602   0.472   6.318   4.047 -0.8298  0.3267  0.4594
 1519ntf    fn413603   0.461   5.948   4.090 -0.1239  0.6053 -0.1068
 1519ntf    fn413604   0.599   6.085   4.166  0.2207 -0.4065  0.6408
 1519ntf    fn413605   0.588   6.046   3.954 -0.0476  0.3452 -0.3029
 1520ntf    cn113606   5.227   0.346   5.960 -0.0526 -0.1299  0.1571
 1520ntf    sn213607   5.354   0.297   5.839 -0.1501 -0.2327  0.0949
 1520ntf    nn313608   5.273   0.196   5.752  0.1596  0.1802 -0.6854
 1520ntf    sn213609   5.271   0.039   5.748 -0.2314  0.1538  0.2677
 1520ntf    cn113610   5.216  -0.002   5.580  0.3843  0.0925  0.0773
 1520ntf    fn413611   5.281   0.410   6.062 -0.5233  0.2650  0.1581
 1520ntf    fn413612   5.137   0.426   5.905  0.1496 -0.2651 -0.3826
 1520ntf    fn413613   5.165   0.244   6.018  0.3891 -0.5090 -0.0275
 1520ntf    on513614   5.374   0.423   5.771  0.2184 -0.3995 -0.1107
 1520ntf    on513615   5.464   0.249   5.918 -0.1020 -0.6902 -0.2463
 1520ntf    on513616   5.400  -0.027   5.754  0.1024  0.7497 -0.2175
 1520ntf    on513617   5.174  -0.019   5.837 -0.3792 -0.6714 -0.4145
 1520ntf    fn413618   5.196  -0.133   5.569 -0.2224  0.1870  0.0283
 1520ntf    fn413619   5.289   0.042   5.479  0.0072  0.3940 -0.0645
 1520ntf    fn413620   5.096   0.048   5.555  0.2951  0.1085  0.5273
 1521ntf    cn113621   0.011   0.677   4.122  0.0609 -0.1788  0.3222
 1521ntf    sn213622   0.025   0.524   4.218 -0.0809 -0.2314  0.2577
 1521ntf    nn313623   0.180   0.506   4.203 -0.0250  0.0301  0.5282
 1521ntf    sn213624   0.267   0.377   4.184 -0.0095  0.1363 -0.1220
 1521ntf    cn113625   0.408   0.397   4.297 -0.0079 -0.1320 -0.0759
 1521ntf    fn413626   0.077   0.780   4.173 -0.2243  0.3623 -0.3907
 1521ntf    fn413627   0.062   0.668   4.000  0.1944  0.2283  0.3459
 1521ntf    fn413628  -0.115   0.713   4.110  0.1290 -0.1924 -0.4605
 1521ntf    on513629  -0.007   0.564   4.353 -0.2078  0.1175  0.1242
 1521ntf    on513630  -0.058   0.426   4.151 -0.0068 -0.1269  0.0156
 1521ntf    on513631   0.208   0.256   4.234  0.4309 -0.0060  0.0564
 1521ntf    on513632   0.332   0.373   4.055 -0.0097 -0.4758 -0.1058
 1521ntf    fn413633   0.467   0.287   4.342  0.3793  0.0319 -0.1790
 1521ntf    fn413634   0.372   0.447   4.414  0.6090  0.2189 -0.0301
 1521ntf    fn413635   0.503   0.476   4.250 -0.0832  0.1139  0.1794
 1522ntf    cn113636   0.415   1.342   0.772 -0.4330 -0.0901  0.2810
 1522ntf    sn213637   0.531   1.334   0.632 -0.4306 -0.1090  0.2840
 1522ntf    nn313638   0.520   1.478   0.569 -0.0123 -0.1997  0.0008
 1522ntf    sn213639   0.405   1.536   0.478 -0.0583 -0.2241  0.0428
 1522ntf    cn113640   0.477   1.502   0.314  0.3735 -0.2358  0.2313
 1522ntf    fn413641   0.457   1.432   0.859 -0.4018 -0.1816  0.3609
 1522ntf    fn413642   0.293   1.382   0.741 -0.2620  0.1469 -0.0928
 1522ntf    fn413643   0.414   1.231   0.845  0.0770 -0.5703 -0.4270
 1522ntf    on513644   0.658   1.324   0.698 -0.3486 -0.0023  0.1446
 1522ntf    on513645   0.477   1.224   0.556 -0.2178  0.1067 -0.1854
 1522ntf    on513646   0.288   1.454   0.469 -0.1844 -0.0544  0.1388
 1522ntf    on513647   0.383   1.678   0.485  0.5954 -0.0955 -0.4387
 1522ntf    fn413648   0.488   1.373   0.288  0.0758 -0.1242 -0.4707
 1522ntf    fn413649   0.600   1.547   0.299  0.1845  0.2564  0.1101
 1522ntf    fn413650   0.396   1.551   0.222  0.5804  0.0187  0.1825
 1523ntf    cn113651   2.951   5.437   4.626 -0.1267 -0.0203  0.3870
 1523ntf    sn213652   2.823   5.496   4.511  0.1153  0.1516  0.2039
 1523ntf    nn313653   2.698   5.405   4.540  0.5170 -0.4556  0.0419
 1523ntf    sn213654   2.663   5.265   4.478  0.4885 -0.3908 -0.0880
 1523ntf    cn113655   2.546   5.296   4.342  0.3500  0.0306  0.1272
 1523ntf    fn413656   2.974   5.307   4.615 -0.2791  0.0017 -0.1827
 1523ntf    fn413657   3.069   5.488   4.595 -0.4120  0.1102 -0.5209
 1523ntf    fn413658   2.929   5.469   4.753  0.5390 -0.3574  0.5896
 1523ntf    on513659   2.805   5.633   4.553  0.1086  0.2221 -0.0317
 1523ntf    on513660   2.886   5.474   4.384 -0.1164  0.0786  0.0995
 1523ntf    on513661   2.771   5.198   4.408  0.1333 -0.7721 -0.2796
 1523ntf    on513662   2.582   5.190   4.571  0.4487 -0.3074 -0.0562
 1523ntf    fn413663   2.524   5.185   4.272  0.7096 -0.0528  0.1451
 1523ntf    fn413664   2.581   5.394   4.261  0.2922 -0.2371 -0.2238
 1523ntf    fn413665   2.427   5.335   4.385  0.0413 -0.0696 -0.6240
 1524ntf    cn113666   3.855   5.619   2.405  0.1647 -0.1450  0.2162
 1524ntf    sn213667   4.019   5.573   2.341  0.0588  0.1630 -0.2851
 1524ntf    nn313668   4.045   5.704   2.260  0.6482  0.3181  0.1410
 1524ntf    sn213669   4.105   5.716   2.115 -0.0155  0.2167 -0.1486
 1524ntf    cn113670   3.949   5.731   2.023  0.0626  0.1755 -0.2869
 1524ntf    fn413671   3.783   5.528   2.469  0.2624 -0.3277  0.0680
 1524ntf    fn413672   3.870   5.711   2.498 -0.4170  0.3075 -0.1332
 1524ntf    fn413673   3.776   5.668   2.312 -0.2691 -0.7881  0.2375
 1524ntf    on513674   4.093   5.562   2.465  0.2718 -0.0865 -0.4324
 1524ntf    on513675   3.991   5.450   2.271 -0.4829  0.0970  0.0414
 1524ntf    on513676   4.177   5.840   2.098 -0.5401  0.5588  0.1005
 1524ntf    on513677   4.167   5.597   2.063 -0.3198  0.2587 -0.6098
 1524ntf    fn413678   3.872   5.828   2.070  0.2756 -0.0370  0.5002
 1524ntf    fn413679   3.885   5.616   2.021  0.2653  0.0617 -0.2001
 1524ntf    fn413680   3.971   5.766   1.897  0.6634  0.3136 -0.1474
 1525ntf    cn113681   2.506   1.855   3.823  0.1476  0.6905  0.0135
 1525ntf    sn213682   2.628   1.975   3.884  0.5120  0.2104  0.2328
 1525ntf    nn313683   2.613   2.085   3.773 -0.3212 -0.2951 -0.1636
 1525ntf    sn213684   2.697   2.105   3.642 -0.2393  0.0129 -0.0630
 1525ntf    cn113685   2.838   2.190   3.718  0.1518 -0.4806 -0.2394
 1525ntf    fn413686   2.516   1.741   3.891 -0.1799  0.4630 -0.3155
 1525ntf    fn413687   2.380   1.890   3.845  0.0330  0.5051 -0.3368
 1525ntf    fn413688   2.515   1.824   3.695  0.3584  0.4630  0.0815
 1525ntf    on513689   2.581   2.021   4.012 -0.5739  0.5489 -0.2789
 1525ntf    on513690   2.756   1.908   3.890  0.6088  0.3565 -0.2148
 1525ntf    on513691   2.750   1.989   3.576  0.3604  0.1672  0.1478
 1525ntf    on513692   2.631   2.206   3.562 -0.3175  0.1466  0.1680
 1525ntf    fn413693   2.873   2.128   3.831  0.4018  0.4500  0.2032
 1525ntf    fn413694   2.821   2.320   3.737 -0.0573 -0.6286  0.6313
 1525ntf    fn413695   2.946   2.178   3.643  0.6019  0.5944  0.2121
 1526ntf    cn113696   0.631   4.582   2.145  0.0694 -0.0930  0.1350
 1526ntf    sn213697   0.634   4.404   2.110  0.2338 -0.0944  0.1535
 1526ntf    nn313698   0.514   4.361   2.203  0.3955 -0.8218  0.0306
 1526ntf    sn213699   0.362   4.335   2.177  0.3037 -0.0844 -0.1914
 1526ntf    cn113700   0.295   4.320   2.346  0.0071 -0.0393 -0.3036
 1526ntf    fn413701   0.528   4.639   2.085  0.2604 -0.3609 -0.4481
 1526ntf    fn413702   0.610   4.607   2.274 -0.0431 -0.5738  0.2103
 1526ntf    fn413703   0.746   4.643   2.121  0.0512 -0.0898  0.0582
 1526ntf    on513704   0.603   4.389   1.970 -0.0095 -0.3334  0.2328
 1526ntf    on513705   0.764   4.367   2.161  0.1771 -0.1992  0.2234
 1526ntf    on513706   0.291   4.450   2.127  0.2041  0.1737  0.5352
 1526ntf    on513707   0.334   4.202   2.129  0.3762 -0.1406 -0.0780
 1526ntf    fn413708   0.170   4.282   2.366  0.1000 -0.0176  0.3180
 1526ntf    fn413709   0.302   4.438   2.406  0.5656 -0.4172  0.3880
 1526ntf    fn413710   0.373   4.232   2.406 -0.1502  0.1608  0.2010
 1527ntf    cn113711   1.261   2.749   3.072  0.2003 -0.4166 -0.3052
 1527ntf    sn213712   1.419   2.694   3.141  0.0328 -0.2765  0.1929
 1527ntf    nn313713   1.468   2.589   3.035 -0.2410 -0.2079 -0.0001
 1527ntf    sn213714   1.614   2.541   3.005 -0.2553 -0.2911  0.0635
 1527ntf    cn113715   1.642   2.655   2.866  0.1657 -0.0779  0.3210
 1527ntf    fn413716   1.283   2.806   2.954 -0.1141  0.2994 -0.0219
 1527ntf    fn413717   1.174   2.650   3.056  0.3075 -0.5462 -0.0862
 1527ntf    fn413718   1.192   2.840   3.139  0.3639 -0.2685 -0.3362
 1527ntf    on513719   1.499   2.813   3.155  0.3852 -0.5280  0.3538
 1527ntf    on513720   1.385   2.632   3.267 -0.1861  0.1840  0.3606
 1527ntf    on513721   1.724   2.583   3.089 -0.0182 -0.3483 -0.2144
 1527ntf    on513722   1.629   2.412   2.943  0.3762 -0.3588  0.3499
 1527ntf    fn413723   1.756   2.633   2.801  0.1816  0.0078  0.3204
 1527ntf    fn413724   1.642   2.781   2.904  0.3553 -0.2398  0.8726
 1527ntf    fn413725   1.543   2.647   2.778  0.3075  0.3979  0.1170
 1528ntf    cn113726   0.278   3.724   2.614 -0.1116  0.2323 -0.5413
 1528ntf    sn213727   0.211   3.626   2.752  0.1115  0.3803 -0.3282
 1528ntf    nn313728   0.154   3.742   2.842  0.3571  0.1668  0.1105
 1528ntf    sn213729   0.029   3.736   2.936  0.1792  0.2446 -0.1182
 1528ntf    cn113730  -0.071   3.846   2.832  0.2256  0.3086 -0.0953
 1528ntf    fn413731   0.291   3.642   2.512 -0.4724  0.0481 -0.4430
 1528ntf    fn413732   0.188   3.813   2.575  0.0100  0.4634 -0.3001
 1528ntf    fn413733   0.387   3.788   2.653 -0.1242 -0.0947  0.0458
 1528ntf    on513734   0.114   3.542   2.688 -0.0792  0.3869 -0.0488
 1528ntf    on513735   0.334   3.563   2.793 -0.2947 -0.0786  0.2048
 1528ntf    on513736  -0.038   3.608   2.946  0.0565  0.3467  0.4268
 1528ntf    on513737   0.033   3.806   3.062  0.1183  0.1504 -0.0638
 1528ntf    fn413738  -0.199   3.849   2.865  0.3173 -0.0467  0.3021
 1528ntf    fn413739  -0.076   3.802   2.707  0.3640 -0.5828  0.2107
 1528ntf    fn413740  -0.024   3.970   2.829 -0.2083  0.4868  0.4112
 1529ntf    cn113741   2.685   4.589   1.792  0.6379  0.0819 -0.0382
 1529ntf    sn213742   2.676   4.611   1.973 -0.2393 -0.2016 -0.0438
 1529ntf    nn313743   2.769   4.497   2.027 -0.0345 -0.1835 -0.3543
 1529ntf    sn213744   2.738   4.359   2.093  0.0825 -0.0410  0.0019
 1529ntf    cn113745   2.757   4.405   2.268  0.2864  0.6716 -0.2072
 1529ntf    fn413746   2.665   4.464   1.753  0.1757  0.1156  0.0812
 1529ntf    fn413747   2.599   4.666   1.727  0.1247 -0.4028  0.0616
 1529ntf    fn413748   2.803   4.619   1.740  0.5634  0.3259 -0.0711
 1529ntf    on513749   2.736   4.738   2.003 -0.1722 -0.1830 -0.2523
 1529ntf    on513750   2.537   4.585   2.001 -0.3854  0.1588 -0.4174
 1529ntf    on513751   2.603   4.310   2.079  0.1391 -0.2257  0.0939
 1529ntf    on513752   2.842   4.261   2.074  0.2640  0.2521 -0.5142
 1529ntf    fn413753   2.692   4.517   2.295 -0.3585  0.3052 -0.2402
 1529ntf    fn413754   2.885   4.421   2.298  0.3881 -0.3210 -0.0891
 1529ntf    fn413755   2.713   4.315   2.355  0.3265  0.3756 -0.4910
 1530ntf    cn113756   2.178   4.062   2.318 -0.3179  0.2493 -0.2121
 1530ntf    sn213757   2.005   4.075   2.372 -0.2981 -0.0792 -0.0666
 1530ntf    nn313758   1.960   3.928   2.337 -0.1278 -0.1202 -0.1171
 1530ntf    sn213759   1.834   3.854   2.395  0.2745 -0.4345  0.3734
 1530ntf    cn113760   1.906   3.754   2.528 -0.1149 -0.2941  0.6941
 1530ntf    fn413761   2.227   3.946   2.360 -0.9510  0.1275  0.2013
 1530ntf    fn413762   2.195   4.046   2.188  0.1579  0.3418 -0.1655
 1530ntf    fn413763   2.263   4.156   2.356 -0.1548 -0.1452  0.4192
 1530ntf    on513764   2.020   4.105   2.512 -0.6905  0.2126 -0.0855
 1530ntf    on513765   1.941   4.177   2.293 -0.1229 -0.3158 -0.5179
 1530ntf    on513766   1.718   3.919   2.450  0.1951 -0.0906 -0.1835
 1530ntf    on513767   1.810   3.752   2.296 -0.1064 -0.1170  0.1341
 1530ntf    fn413768   1.984   3.652   2.494  0.1764  0.1166  0.0963
 1530ntf    fn413769   1.810   3.701   2.601 -1.0723  0.5147  0.0383
 1530ntf    fn413770   1.979   3.826   2.611  0.0483  0.1231  0.1985
 1531ntf    cn113771   0.002   4.867   1.702 -0.1177 -0.2017  0.4329
 1531ntf    sn213772  -0.100   4.722   1.743 -0.1878 -0.2468  0.1050
 1531ntf    nn313773  -0.225   4.742   1.651 -0.2841  0.1563  0.3235
 1531ntf    sn213774  -0.360   4.811   1.693 -0.2804  0.4195 -0.0897
 1531ntf    cn113775  -0.454   4.666   1.748 -0.0579  0.2552 -0.1411
 1531ntf    fn413776   0.121   4.855   1.759  0.2305 -0.0494 -0.2465
 1531ntf    fn413777   0.019   4.886   1.572 -0.2555  0.8446  0.5606
 1531ntf    fn413778  -0.056   4.980   1.739 -0.0736  0.1181 -0.4426
 1531ntf    on513779  -0.016   4.618   1.689 -0.2323 -0.2068 -0.0396
 1531ntf    on513780  -0.110   4.721   1.887  0.5650  0.3640  0.1684
 1531ntf    on513781  -0.352   4.907   1.800 -0.1956  0.7682 -0.4055
 1531ntf    on513782  -0.430   4.855   1.575  0.0711 -0.1403 -0.5111
 1531ntf    fn413783  -0.585   4.685   1.751 -0.1224 -0.2263  0.1655
 1531ntf    fn413784  -0.426   4.609   1.864  0.0969  0.0178 -0.2941
 1531ntf    fn413785  -0.442   4.570   1.658 -0.6148 -0.0269  0.0782
 1532ntf    cn113786   4.300   6.456   6.186  0.2031 -0.0253 -0.3609
 1532ntf    sn213787   4.119   6.467   6.188  0.2339  0.4002  0.2575
 1532ntf    nn313788   4.094   6.462   6.343 -0.0531 -0.1359  0.1971
 1532ntf    sn213789   4.071   6.340   6.439 -0.1779 -0.1129  0.1950
 1532ntf    cn113790   3.890   6.324   6.432 -0.2156  0.3307  0.1340
 1532ntf    fn413791   4.356   6.411   6.074  0.7701 -0.2353 -0.0003
 1532ntf    fn413792   4.356   6.572   6.215  0.2811 -0.1761  0.0946
 1532ntf    fn413793   4.342   6.370   6.278 -0.4965  0.0577  0.0356
 1532ntf    on513794   4.080   6.593   6.129 -0.2254  0.1004 -0.0857
 1532ntf    on513795   4.073   6.350   6.118  0.6248  0.1791  0.3693
 1532ntf    on513796   4.115   6.212   6.390 -0.0140 -0.0294  0.1259
 1532ntf    on513797   4.104   6.382   6.573  0.0009  0.2806  0.0295
 1532ntf    fn413798   3.837   6.446   6.438 -0.3935  0.2485  0.2520
 1532ntf    fn413799   3.847   6.255   6.536  0.0338  0.2352  0.1738
 1532ntf    fn413800   3.842   6.263   6.326  0.4264  0.0397  0.0099
 1533ntf    cn113801   5.592   1.701   4.154 -0.0865  0.1335 -0.1075
 1533ntf    sn213802   5.747   1.757   4.230 -0.1621  0.2647 -0.0515
 1533ntf    nn313803   5.780   1.864   4.120 -0.5309  0.2022 -0.2229
 1533ntf    sn213804   5.912   1.948   4.126 -0.3251 -0.1439  0.1345
 1533ntf    cn113805   6.010   1.857   4.004 -0.2304 -0.2015  0.2527
 1533ntf    fn413806   5.518   1.643   4.247  0.0794  0.1978  0.0651
 1533ntf    fn413807   5.522   1.802   4.105 -0.0391 -0.2062 -0.8853
 1533ntf    fn413808   5.610   1.607   4.063 -0.5195 -0.0430 -0.0131
 1533ntf    on513809   5.707   1.816   4.356  0.3404 -0.1883  0.3251
 1533ntf    on513810   5.828   1.639   4.220 -0.1715  0.1770  0.7992
 1533ntf    on513811   5.900   2.081   4.071 -0.1690 -0.0791  0.2554
 1533ntf    on513812   5.988   1.932   4.248 -0.1230  0.6520  0.1245
 1533ntf    fn413813   6.129   1.911   3.981 -0.4653 -0.0430 -0.6100
 1533ntf    fn413814   5.955   1.835   3.885  0.5107  0.0636 -0.1474
 1533ntf    fn413815   6.042   1.738   4.052  0.5232 -0.2039 -0.2224
 1534ntf    cn113816   3.290   5.072   6.714  0.0272 -0.1880 -0.0292
 1534ntf    sn213817   3.380   5.023   6.564  0.3234  0.1949  0.0217
 1534ntf    nn313818   3.306   4.886   6.539  0.0383  0.4167 -0.3632
 1534ntf    sn213819   3.196   4.840   6.437  0.1515 -0.0238 -0.2889
 1534ntf    cn113820   3.198   4.663   6.478  0.0754  0.0868  0.1980
 1534ntf    fn413821   3.310   5.202   6.727  0.9629 -0.3904  0.6107
 1534ntf    fn413822   3.160   5.043   6.715  0.0487 -0.2953 -0.2586
 1534ntf    fn413823   3.350   5.011   6.814  0.2596 -0.2789 -0.2241
 1534ntf    on513824   3.344   5.125   6.469 -0.0928  0.2397  0.2235
 1534ntf    on513825   3.519   5.014   6.602  0.2014 -0.7219  0.2818
 1534ntf    on513826   3.060   4.874   6.471  0.0240 -0.3323 -0.4834
 1534ntf    on513827   3.227   4.856   6.297  0.6584 -0.6487 -0.2510
 1534ntf    fn413828   3.099   4.606   6.412  0.5239 -0.2339 -0.2067
 1534ntf    fn413829   3.158   4.645   6.603 -0.3695  0.0599  0.0495
 1534ntf    fn413830   3.308   4.589   6.473 -0.1871 -0.3217  0.3980
 1535ntf    cn113831   5.379   1.709   1.922 -0.4047 -0.0167  0.5675
 1535ntf    sn213832   5.359   1.539   1.981 -0.0490 -0.2365  0.0624
 1535ntf    nn313833   5.505   1.509   2.030  0.0632 -0.2556 -0.2788
 1535ntf    sn213834   5.569   1.368   2.054  0.2296 -0.1444 -0.0677
 1535ntf    cn113835   5.713   1.386   1.944  0.1681  0.2822 -0.0767
 1535ntf    fn413836   5.503   1.716   1.876 -0.6735  0.6004 -0.0859
 1535ntf    fn413837   5.296   1.746   1.826 -0.2250 -0.8804  0.0749
 1535ntf    fn413838   5.373   1.798   2.020 -0.1802 -0.0981  0.6579
 1535ntf    on513839   5.262   1.563   2.086 -0.3297 -0.0248 -0.2423
 1535ntf    on513840   5.308   1.470   1.865  0.0801 -0.7436  0.3015
 1535ntf    on513841   5.624   1.368   2.188  0.0301  0.4172  0.0152
 1535ntf    on513842   5.485   1.258   2.014 -0.8657  0.5495  0.2914
 1535ntf    fn413843   5.694   1.355   1.817  0.5868  0.7580 -0.2587
 1535ntf    fn413844   5.819   1.326   1.994 -0.0352 -0.2209 -0.2452
 1535ntf    fn413845   5.749   1.513   1.933  0.0468  0.3215 -0.0267
 1536ntf    cn113846   4.711   2.498   0.455 -0.2979  0.2531  0.3308
 1536ntf    sn213847   4.885   2.534   0.495 -0.2453  0.2836  0.0763
 1536ntf    nn313848   4.904   2.655   0.397 -0.5927 -0.1954 -0.5888
 1536ntf    sn213849   4.880   2.808   0.420  0.1274 -0.1947  0.2356
 1536ntf    cn113850   4.843   2.841   0.245  0.2497 -0.0094  0.2452
 1536ntf    fn413851   4.680   2.375   0.491  0.0477 -0.1225 -0.6069
 1536ntf    fn413852   4.633   2.583   0.520 -0.7387 -0.7014  1.0648
 1536ntf    fn413853   4.677   2.514   0.328 -0.1821 -0.0143  0.2665
 1536ntf    on513854   4.889   2.573   0.634 -0.3252  0.4288  0.0385
 1536ntf    on513855   4.955   2.418   0.447 -0.7642  0.2859 -0.7179
 1536ntf    on513856   4.757   2.833   0.492  0.0764 -0.1426  0.1319
 1536ntf    on513857   4.996   2.887   0.450  0.1035  0.2286 -0.7239
 1536ntf    fn413858   4.734   2.772   0.214  0.0222  0.2436  0.4835
 1536ntf    fn413859   4.947   2.807   0.170  0.4464  0.1897  0.4249
 1536ntf    fn413860   4.811   2.967   0.221 -0.0357 -0.0407  0.4607
 1537ntf    cn113861   3.902   5.195   5.799  0.0886 -0.3014 -0.4290
 1537ntf    sn213862   3.903   5.030   5.875 -0.0718 -0.1307 -0.0524
 1537ntf    nn313863   3.860   4.932   5.759 -0.1572 -0.5599  0.3397
 1537ntf    sn213864   3.739   4.941   5.661  0.0935 -0.1171  0.0665
 1537ntf    cn113865   3.821   4.904   5.503  0.0620 -0.0805  0.0419
 1537ntf    fn413866   3.994   5.275   5.852 -0.6590 -0.1471  0.6624
 1537ntf    fn413867   3.923   5.198   5.668 -0.3181 -0.2344 -0.4938
 1537ntf    fn413868   3.788   5.260   5.818  0.1110 -0.2243 -0.5531
 1537ntf    on513869   4.041   4.993   5.894 -0.1520 -0.4849 -0.1418
 1537ntf    on513870   3.811   5.041   5.985  0.4704 -0.3741  0.4233
 1537ntf    on513871   3.636   4.842   5.681 -0.2572  0.3454  0.5915
 1537ntf    on513872   3.687   5.072   5.630 -0.7815 -0.3731  0.4048
 1537ntf    fn413873   3.731   4.876   5.409 -0.1337  0.4954  0.0561
 1537ntf    fn413874   3.902   4.799   5.512 -0.0239 -0.1502  0.0033
 1537ntf    fn413875   3.877   5.016   5.462  0.1390  0.0536  0.5048
 1538ntf    cn113876   0.068   3.987   4.779 -0.0995  0.1557  0.2205
 1538ntf    sn213877   0.208   4.088   4.837  0.1336 -0.1162  0.1320
 1538ntf    nn313878   0.146   4.163   4.960  0.6207  0.3292  0.1079
 1538ntf    sn213879   0.098   4.311   4.981  0.2337  0.2088  0.0651
 1538ntf    cn113880   0.160   4.356   5.146 -0.3017  0.0221  0.3221
 1538ntf    fn413881   0.018   3.920   4.882 -0.0876  0.1394  0.2163
 1538ntf    fn413882  -0.024   4.061   4.719  0.3779  0.5637 -0.0172
 1538ntf    fn413883   0.106   3.891   4.697  0.1087  0.5262 -0.1222
 1538ntf    on513884   0.311   3.995   4.878 -0.1310 -0.4730 -0.0078
 1538ntf    on513885   0.237   4.166   4.720  0.0646 -0.2690  0.0122
 1538ntf    on513886   0.169   4.409   4.903  0.0362 -0.0154 -0.4004
 1538ntf    on513887  -0.046   4.318   4.983  0.2336  0.4027 -0.4181
 1538ntf    fn413888   0.111   4.474   5.179  0.4916  0.5496 -0.3175
 1538ntf    fn413889   0.289   4.386   5.144 -0.1672 -0.5559  0.1061
 1538ntf    fn413890   0.128   4.272   5.243  0.3907 -0.1304  0.4256
 1539ntf    cn113891   6.203   5.337   5.486  0.3678 -0.2341  0.1202
 1539ntf    sn213892   6.158   5.494   5.567  0.1969 -0.0931 -0.2437
 1539ntf    nn313893   6.110   5.572   5.440  0.0216  0.1343 -0.0367
 1539ntf    sn213894   5.985   5.661   5.406  0.0544  0.1541 -0.1073
 1539ntf    cn113895   6.057   5.813   5.340 -0.0406  0.1965 -0.1126
 1539ntf    fn413896   6.207   5.238   5.573 -0.2518 -0.5374 -0.1875
 1539ntf    fn413897   6.117   5.299   5.393 -0.1418  0.2112  0.4032
 1539ntf    fn413898   6.321   5.357   5.429  0.0493 -0.4650 -0.6362
 1539ntf    on513899   6.052   5.445   5.651 -0.0017 -0.0410 -0.4640
 1539ntf    on513900   6.278   5.542   5.631 -0.0003 -0.0056  0.0622
 1539ntf    on513901   5.915   5.615   5.288  0.2698  0.0565 -0.1980
 1539ntf    on513902   5.906   5.710   5.516 -0.1222  0.3259 -0.3086
 1539ntf    fn413903   5.977   5.919   5.342  0.5265  0.6299  0.1140
 1539ntf    fn413904   6.092   5.807   5.212  0.1126  0.0229 -0.0631
 1539ntf    fn413905   6.165   5.841   5.411 -0.2581  0.2330  0.2055
 1540ntf    cn113906   3.999   0.402   2.739  0.3686  0.1049 -0.0573
 1540ntf    sn213907   4.099   0.347   2.880 -0.2289  0.0550  0.3491
 1540ntf    nn313908   4.030   0.432   2.993 -0.2474  0.4063  0.0765
 1540ntf    sn213909   3.961   0.381   3.125 -0.2296 -0.4418 -0.2371
 1540ntf    cn113910   3.856   0.528   3.148  0.1276 -0.1740 -0.3121
 1540ntf    fn413911   4.015   0.532   2.718  0.0188  0.0345 -0.8206
 1540ntf    fn413912   4.033   0.336   2.629 -0.3448  0.0477 -0.2508
 1540ntf    fn413913   3.868   0.388   2.753  0.3244  0.4978 -0.0644
 1540ntf    on513914   4.073   0.206   2.884  0.0224 -0.0067 -0.1355
 1540ntf    on513915   4.237   0.383   2.858 -0.1095 -0.4085  0.3408
 1540ntf    on513916   3.866   0.274   3.108 -0.2742 -0.4635  0.1503
 1540ntf    on513917   4.038   0.392   3.246 -0.7461 -0.3663  0.0924
 1540ntf    fn413918   3.789   0.526   3.262 -0.0297  0.2899 -0.3911
 1540ntf    fn413919   3.758   0.537   3.060  0.1555  0.0939 -0.3167
 1540ntf    fn413920   3.923   0.642   3.148  0.0687 -0.1343  0.7478
 1541ntf    cn113921   2.058   5.135   2.107 -0.4912  0.2181  0.0634
 1541ntf    sn213922   1.892   5.080   2.155 -0.3487 -0.1562  0.1360
 1541ntf    nn313923   1.927   4.974   2.265  0.5424 -0.1099 -0.0918
 1541ntf    sn213924   1.934   4.818   2.251 -0.0170 -0.1476 -0.0043
 1541ntf    cn113925   1.946   4.780   2.429  0.1832 -0.0031  0.0144
 1541ntf    fn413926   2.100   5.226   2.193 -0.0876 -0.3428  0.4669
 1541ntf    fn413927   2.146   5.036   2.106  0.1182  0.7491 -0.0303
 1541ntf    fn413928   2.061   5.196   1.989  0.2597  0.1453  0.0382
 1541ntf    on513929   1.839   5.201   2.213 -0.3598  0.0363 -0.2705
 1541ntf    on513930   1.834   5.041   2.029  0.2004  0.7376 -0.4096
 1541ntf    on513931   1.813   4.753   2.209 -0.3494  0.4756 -0.0151
 1541ntf    on513932   2.063   4.779   2.199 -0.0258  0.3865 -0.4349
 1541ntf    fn413933   2.044   4.841   2.493  0.5316 -0.1762 -0.3465
 1541ntf    fn413934   1.954   4.649   2.449 -0.0590  0.0829  0.6710
 1541ntf    fn413935   1.836   4.818   2.492  0.3108 -0.0493  0.2623
 1542ntf    cn113936   5.045   3.816   3.326  0.2901 -0.5260 -0.6439
 1542ntf    sn213937   4.968   3.660   3.377 -0.0230 -0.2748 -0.3384
 1542ntf    nn313938   5.092   3.599   3.452 -0.1286 -0.0007  0.0651
 1542ntf    sn213939   5.195   3.488   3.410 -0.0660  0.1098 -0.0777
 1542ntf    cn113940   5.248   3.433   3.576 -0.1354  0.4837  0.0692
 1542ntf    fn413941   5.104   3.871   3.431 -0.5448 -0.0064 -0.4385
 1542ntf    fn413942   5.138   3.799   3.234 -0.0198  0.1071 -1.0809
 1542ntf    fn413943   4.955   3.902   3.280  0.4896 -0.2258 -0.4819
 1542ntf    on513944   4.875   3.710   3.475 -0.0227 -0.7812 -0.0743
 1542ntf    on513945   4.926   3.597   3.254  0.3744 -0.2974 -0.4648
 1542ntf    on513946   5.148   3.367   3.347  0.5867 -0.0153 -0.3272
 1542ntf    on513947   5.319   3.541   3.358 -0.0749 -0.1674 -0.3830
 1542ntf    fn413948   5.145   3.399   3.651  0.1145  1.0988  0.6962
 1542ntf    fn413949   5.307   3.527   3.648 -0.1533  0.8873 -0.4330
 1542ntf    fn413950   5.337   3.337   3.557 -0.8587 -0.1172 -0.3418
 1543ntf    cn113951   5.006   1.155   4.329  0.1477 -0.1044  0.2374
 1543ntf    sn213952   4.928   1.299   4.407 -0.1127 -0.3257  0.3894
 1543ntf    nn313953   4.985   1.269   4.551  0.6559 -0.3981  0.0741
 1543ntf    sn213954   5.117   1.326   4.613  0.5318 -0.1998  0.1585
 1543ntf    cn113955   5.041   1.435   4.737  0.7061 -0.1745  0.2443
 1543ntf    fn413956   4.983   1.160   4.199  0.4615 -0.2938  0.1730
 1543ntf    fn413957   5.136   1.142   4.350  0.1849 -0.2572 -0.0914
 1543ntf    fn413958   4.946   1.046   4.375  0.4062 -0.1560  0.4522
 1543ntf    on513959   4.964   1.424   4.344 -0.0171 -0.2977  0.4970
 1543ntf    on513960   4.788   1.265   4.408 -0.1770 -0.1338 -0.7426
 1543ntf    on513961   5.189   1.233   4.697  0.2032 -0.3772  0.2469
 1543ntf    on513962   5.189   1.417   4.528  0.0138 -0.0150 -0.0796
 1543ntf    fn413963   4.971   1.530   4.678 -0.0058 -0.4235  0.6710
 1543ntf    fn413964   5.127   1.497   4.816  0.2508 -0.1277  0.7114
 1543ntf    fn413965   4.958   1.365   4.813 -0.0314  0.3276 -0.0835
 1544ntf    cn113966   0.814   5.162   4.003  0.3467 -0.2847  0.2707
 1544ntf    sn213967   0.825   5.271   4.148  0.3577  0.1464 -0.0524
 1544ntf    nn313968   0.979   5.297   4.147  0.3798  0.0128 -0.0824
 1544ntf    sn213969   1.048   5.425   4.208  0.0319  0.1690 -0.0136
 1544ntf    cn113970   1.207   5.384   4.128 -0.0093  0.1754 -0.0988
 1544ntf    fn413971   0.848   5.229   3.894 -0.6447 -0.0684  0.0808
 1544ntf    fn413972   0.895   5.060   4.027  0.3211 -0.3383  0.1301
 1544ntf    fn413973   0.700   5.097   3.984  0.2125  0.1338 -0.4296
 1544ntf    on513974   0.733   5.374   4.105  0.3062  0.1143 -0.0187
 1544ntf    on513975   0.780   5.188   4.257  0.0131  0.0340 -0.2771
 1544ntf    on513976   1.009   5.553   4.155 -0.0211  0.4212  0.6347
 1544ntf    on513977   1.084   5.405   4.346  0.1345 -0.2057 -0.0917
 1544ntf    fn413978   1.252   5.270   4.177  0.0898  0.3061  0.1153
 1544ntf    fn413979   1.311   5.466   4.132 -0.2344  0.4420  0.4753
 1544ntf    fn413980   1.189   5.362   3.999 -0.1302 -0.0080 -0.0513
 1545ntf    cn113981   4.428   2.056   5.185  0.1032  0.1535 -0.0442
 1545ntf    sn213982   4.353   1.917   5.096  0.0631 -0.0010  0.2303
 1545ntf    nn313983   4.482   1.845   5.042  0.1160  0.3382 -0.0989
 1545ntf    sn213984   4.533   1.836   4.894  0.5152 -0.0874  0.0614
 1545ntf    cn113985   4.467   1.674   4.844  0.0102  0.1222  0.0383
 1545ntf    fn413986   4.539   2.105   5.131  0.0160  0.6330  0.2003
 1545ntf    fn413987   4.351   2.164   5.184 -0.0481  0.0435 -0.1065
 1545ntf    fn413988   4.449   2.035   5.314  0.0434  0.0251 -0.0552
 1545ntf    on513989   4.284   1.845   5.201  0.1835 -0.7063 -0.1672
 1545ntf    on513990   4.275   1.984   4.996 -0.0428 -0.6589 -0.1345
 1545ntf    on513991   4.488   1.930   4.794  0.4107  0.0034  0.1941
 1545ntf    on513992   4.673   1.803   4.897  0.6050  0.2985  0.1208
 1545ntf    fn413993   4.465   1.662   4.712 -0.1216  0.0686  0.0451
 1545ntf    fn413994   4.339   1.664   4.876 -0.1618 -0.0808 -0.7045
 1545ntf    fn413995   4.530   1.566   4.888  0.1041 -0.0564 -0.5308
 1546ntf    cn113996   0.709   0.225   4.011  0.0706 -0.3512  0.0170
 1546ntf    sn213997   0.810   0.085   3.955  0.3132 -0.0928 -0.1956
 1546ntf    nn313998   0.941   0.103   4.040  0.0774  0.1974  0.1092
 1546ntf    sn213999   1.043  -0.006   4.088  0.0073  0.1793  0.2160
 1546ntf    cn114000   1.199   0.032   4.003  0.0755 -0.1762  0.1795
 1546ntf    fn414001   0.788   0.332   4.015 -0.2781 -0.1064  0.6119
 1546ntf    fn414002   0.608   0.254   3.931  0.0916 -0.1943  0.0473
 1546ntf    fn414003   0.657   0.214   4.133 -0.5649 -0.0263 -0.2192
 1546ntf    on514004   0.718  -0.018   3.996  0.1421  0.0480 -0.2228
 1546ntf    on514005   0.826   0.118   3.816  0.4128  0.0670 -0.1463
 1546ntf    on514006   1.074   0.011   4.228  0.6107  0.2829  0.0725
 1546ntf    on514007   1.005  -0.139   4.047 -1.0703  0.7503 -0.7113
 1546ntf    fn414008   1.310  -0.033   4.034  0.2688  0.0925  0.0486
 1546ntf    fn414009   1.231   0.160   4.011  0.2264 -0.2311  0.4753
 1546ntf    fn414010   1.192   0.008   3.874 -0.4285 -0.3493  0.2341
 1547ntf    cn114011   4.109   5.374   6.350  0.3501  0.0345 -0.0726
 1547ntf    sn214012   4.230   5.489   6.279  0.2229  0.1732 -0.0649
 1547ntf    nn314013   4.365   5.435   6.337  0.1054  0.4935  0.5172
 1547ntf    sn214014   4.505   5.478   6.279 -0.0668 -0.1014 -0.3757
 1547ntf    cn114015   4.581   5.556   6.425  0.0685 -0.4806 -0.2415
 1547ntf    fn414016   4.114   5.374   6.482 -0.1251  0.0059 -0.0531
 1547ntf    fn414017   3.985   5.406   6.313  0.1431 -0.2529  0.3630
 1547ntf    fn414018   4.145   5.252   6.312 -0.1432 -0.1446  0.0237
 1547ntf    on514019   4.199   5.480   6.138 -0.1159  0.4860 -0.0113
 1547ntf    on514020   4.184   5.606   6.349  0.2403  0.2739 -0.2188
 1547ntf    on514021   4.582   5.358   6.258  0.4881  0.1136  0.3859
 1547ntf    on514022   4.511   5.577   6.175 -0.3317  0.2694 -0.0398
 1547ntf    fn414023   4.493   5.621   6.499  0.5656  0.3218 -0.3324
 1547ntf    fn414024   4.694   5.623   6.404 -0.1605 -0.0350 -0.0574
 1547ntf    fn414025   4.624   5.471   6.517 -0.5219 -0.1223  0.3690
 1548ntf    cn114026   4.293   6.673   1.488  0.3095 -0.4414  0.2835
 1548ntf    sn214027   4.269   6.843   1.427 -0.0785 -0.4451  0.4232
 1548ntf    nn314028   4.176   6.819   1.302  0.2631 -0.0749  0.0985
 1548ntf    sn214029   4.206   6.814   1.148 -0.0875  0.0865  0.0248
 1548ntf    cn114030   4.129   6.973   1.104  0.0583  0.1629  0.0461
 1548ntf    fn414031   4.345   6.680   1.610  0.1664 -0.0627  0.3262
 1548ntf    fn414032   4.183   6.602   1.506 -0.3003  0.4337  0.1088
 1548ntf    fn414033   4.380   6.612   1.409  0.2622  0.0758 -0.1726
 1548ntf    on514034   4.209   6.907   1.541  0.0136  0.2959  0.0588
 1548ntf    on514035   4.404   6.882   1.397 -0.1679 -0.4908 -0.0488
 1548ntf    on514036   4.344   6.827   1.109 -0.2153 -0.2126 -0.5319
 1548ntf    on514037   4.126   6.711   1.086  0.2226 -0.3799  0.3938
 1548ntf    fn414038   4.131   6.993   0.973 -0.5978  0.4512  0.0776
 1548ntf    fn414039   4.197   7.069   1.165  1.0609  0.0105 -0.7920
 1548ntf    fn414040   4.004   6.977   1.145  0.4076  0.0938  1.1473
 1549ntf    cn114041   1.359   2.869   0.770 -0.0256  0.4726  0.1966
 1549ntf    sn214042   1.396   2.998   0.893 -0.1778  0.5453  0.1671
 1549ntf    nn314043   1.325   2.934   1.018  0.0461 -0.2357 -0.0966
 1549ntf    sn214044   1.363   2.896   1.165  0.0403 -0.5027 -0.1637
 1549ntf    cn114045   1.266   2.748   1.206 -0.4697 -0.0644  0.2163
 1549ntf    fn414046   1.229   2.849   0.759  0.0767 -0.4108  0.5583
 1549ntf    fn414047   1.401   2.914   0.653 -0.2980  0.9036  0.2604
 1549ntf    fn414048   1.410   2.748   0.785 -0.2297  0.3740  0.0978
 1549ntf    on514049   1.540   3.003   0.890 -0.1708  0.4256  0.2591
 1549ntf    on514050   1.320   3.107   0.838  0.1724  0.1211 -1.1993
 1549ntf    on514051   1.502   2.858   1.174  0.1763 -0.0344 -0.2692
 1549ntf    on514052   1.321   2.985   1.271  0.1357 -0.1756 -0.3998
 1549ntf    fn414053   1.296   2.704   1.327 -0.1669 -0.4881 -0.0140
 1549ntf    fn414054   1.286   2.653   1.116 -0.2452 -0.4399  0.6591
 1549ntf    fn414055   1.135   2.769   1.210 -0.4844 -0.1560  0.2252
 1550ntf    cn114056   4.862   1.118   6.504 -0.0537  0.6880  0.2140
 1550ntf    sn214057   4.837   1.223   6.358  0.0429  0.0939 -0.2337
 1550ntf    nn314058   4.913   1.132   6.256  0.2885  0.2291 -0.1743
 1550ntf    sn214059   4.873   1.082   6.112 -0.2382 -0.2386  0.1322
 1550ntf    cn114060   4.819   0.913   6.154  0.3511 -0.4978 -0.1483
 1550ntf    fn414061   4.806   1.001   6.480  0.6370  0.3720  0.1038
 1550ntf    fn414062   4.990   1.098   6.535 -0.1143  0.2725  0.2020
 1550ntf    fn414063   4.819   1.173   6.617 -0.0794  0.1739  0.4579
 1550ntf    on514064   4.693   1.229   6.350  0.0456  0.2280 -0.1914
 1550ntf    on514065   4.902   1.349   6.389  0.7154 -0.1994 -0.4318
 1550ntf    on514066   4.757   1.146   6.056 -0.2910 -0.3176  0.1512
 1550ntf    on514067   4.982   1.062   6.020 -0.5605  0.2511 -0.3627
 1550ntf    fn414068   4.743   0.904   6.262  0.6604  0.1108  0.1250
 1550ntf    fn414069   4.926   0.839   6.178  0.6020 -0.1407 -0.1444
 1550ntf    fn414070   4.753   0.849   6.059 -0.1545  0.2216 -0.2943
 1551ntf    cn114071   2.144   2.017   2.763  0.3207  0.3865  0.0720
 1551ntf    sn214072   2.139   2.083   2.933 -0.0187  0.0635  0.1892
 1551ntf    nn314073   2.219   1.970   3.007  0.5948 -0.2071 -0.8553
 1551ntf    sn214074   2.163   1.833   3.060  0.1472  0.3863  0.2373
 1551ntf    cn114075   2.058   1.888   3.198 -0.4285 -0.2223  0.0417
 1551ntf    fn414076   2.265   1.969   2.738  0.2035 -0.1259  0.4745
 1551ntf    fn414077   2.057   1.921   2.738 -0.1549  0.6858  0.5518
 1551ntf    fn414078   2.116   2.104   2.668  0.0511  0.0494 -0.1581
 1551ntf    on514079   2.213   2.205   2.911 -0.3016  0.2261  0.1468
 1551ntf    on514080   1.998   2.103   2.949 -0.1040 -0.2681 -0.1119
 1551ntf    on514081   2.081   1.760   2.968  0.1535  0.5278  0.1182
 1551ntf    on514082   2.268   1.758   3.124 -0.1180 -0.1634  0.0326
 1551ntf    fn414083   2.025   1.793   3.284  0.3849 -0.5256  0.0211
 1551ntf    fn414084   1.948   1.939   3.145 -0.1497  0.4062  0.0618
 1551ntf    fn414085   2.113   1.980   3.275 -0.2981 -0.4536  0.2296
 1552ntf    cn114086   4.147   3.977   3.555 -0.4378  0.0640  0.1321
 1552ntf    sn214087   4.164   4.111   3.678  0.1802  0.3244 -0.2323
 1552ntf    nn314088   4.021   4.098   3.742  0.2779  0.0055 -0.0757
 1552ntf    sn214089   3.952   4.167   3.865  0.0063  0.2883 -0.3835
 1552ntf    cn114090   3.834   4.281   3.787 -0.4296  0.2470  0.2130
 1552ntf    fn414091   4.240   3.985   3.461 -0.3868  0.3961  0.2091
 1552ntf    fn414092   4.152   3.852   3.596 -0.1234  0.0140 -0.0596
 1552ntf    fn414093   4.033   3.986   3.488 -0.1804  0.2843 -0.2758
 1552ntf    on514094   4.263   4.058   3.769 -0.4057  0.1869  0.3359
 1552ntf    on514095   4.186   4.229   3.599 -0.5573  0.0227 -0.9150
 1552ntf    on514096   3.866   4.071   3.930 -0.1929  0.5639 -0.2392
 1552ntf    on514097   4.039   4.250   3.944 -0.3220  0.1065  0.1725
 1552ntf    fn414098   3.760   4.341   3.879 -0.2519  0.5601  0.1529
 1552ntf    fn414099   3.749   4.215   3.711 -0.5052  0.4751  0.0957
 1552ntf    fn414100   3.890   4.377   3.715 -0.0488  0.0841  0.2919
 1553ntf    cn114101   3.555   0.735   3.541  0.0491 -0.0890 -0.2950
 1553ntf    sn214102   3.486   0.903   3.558 -0.2138 -0.2259  0.0039
 1553ntf    nn314103   3.493   0.928   3.713 -0.0782  0.0442 -0.0459
 1553ntf    sn214104   3.619   0.945   3.805 -0.0412 -0.0990 -0.0707
 1553ntf    cn114105   3.598   1.118   3.855  0.3778 -0.1863  0.4112
 1553ntf    fn414106   3.674   0.719   3.597 -0.0046  0.0273 -0.1452
 1553ntf    fn414107   3.475   0.638   3.583  0.0963  0.2292  0.5614
 1553ntf    fn414108   3.574   0.715   3.412 -0.4801  0.7619 -0.5136
 1553ntf    on514109   3.569   0.996   3.485 -0.5248  0.3306  0.3586
 1553ntf    on514110   3.348   0.895   3.518 -0.2902  0.2762  0.1660
 1553ntf    on514111   3.600   0.871   3.927 -0.0998 -0.0782 -0.0674
 1553ntf    on514112   3.745   0.931   3.735  0.1273 -0.1810  0.2462
 1553ntf    fn414113   3.485   1.133   3.921 -0.1599  0.0153 -0.5382
 1553ntf    fn414114   3.597   1.199   3.750  0.1408 -0.1246  0.4608
 1553ntf    fn414115   3.700   1.161   3.928  0.4989  0.0713  0.0906
 1554ntf    cn114116   1.506   4.918   4.492  0.0821 -0.2259 -0.4243
 1554ntf    sn214117   1.387   4.783   4.518  0.0119 -0.1203 -0.1915
 1554ntf    nn314118   1.488   4.666   4.549  0.1907  0.2175  0.5145
 1554ntf    sn214119   1.539   4.633   4.694 -0.2906 -0.3203  0.5651
 1554ntf    cn114120   1.403   4.530   4.757 -0.2404 -0.6893  0.0707
 1554ntf    fn414121   1.587   4.942   4.594 -0.2835  0.0307 -0.1933
 1554ntf    fn414122   1.581   4.893   4.386  0.3690 -0.1662 -0.2383
 1554ntf    fn414123   1.459   5.038   4.464  0.6952  0.1287  0.0324
 1554ntf    on514124   1.312   4.828   4.632 -0.0232 -0.5054 -0.0607
 1554ntf    on514125   1.331   4.770   4.386  0.1560  0.7483 -0.3456
 1554ntf    on514126   1.647   4.539   4.706  0.0199 -0.0552 -0.1045
 1554ntf    on514127   1.542   4.748   4.782 -0.5009  0.2814 -0.1995
 1554ntf    fn414128   1.351   4.454   4.662 -0.3503 -0.2024 -0.2641
 1554ntf    fn414129   1.306   4.604   4.807  0.2876 -0.4018  0.6903
 1554ntf    fn414130   1.437   4.448   4.855  0.2128 -0.2402  0.2948
 1555ntf    cn114131   4.436   6.153   5.729 -0.0144  0.5082  0.6402
 1555ntf    sn214132   4.554   6.205   5.600 -0.0888 -0.2267  0.2672
 1555ntf    nn314133   4.694   6.164   5.657 -0.0240 -0.1718  0.1471
 1555ntf    sn214134   4.753   6.019   5.650 -0.1192 -0.2153  0.2339
 1555ntf    cn114135   4.859   6.036   5.503 -0.6449 -0.1971 -0.1427
 1555ntf    fn414136   4.485   6.179   5.849 -0.0331  0.4562  0.6590
 1555ntf    fn414137   4.319   6.213   5.718 -0.1379  0.3035  0.8552
 1555ntf    fn414138   4.413   6.024   5.710  0.6163  0.4085  0.5376
 1555ntf    on514139   4.507   6.153   5.475  0.0255  0.2415  0.0257
 1555ntf    on514140   4.551   6.349   5.611  0.2814 -0.1336 -0.7779
 1555ntf    on514141   4.843   5.981   5.756 -0.2521 -0.4340  0.2680
 1555ntf    on514142   4.663   5.915   5.607 -0.3134  0.0030  0.1104
 1555ntf    fn414143   4.966   6.110   5.523 -0.8146 -0.0846  0.3429
 1555ntf    fn414144   4.795   6.097   5.404 -0.0846  0.3782 -0.1526
 1555ntf    fn414145   4.907   5.916   5.475  0.3683  0.0653  0.4561
 1556ntf    cn114146   1.739   4.986   3.794  0.3380  0.4356  0.0366
 1556ntf    sn214147   1.903   4.944   3.859  0.1900 -0.3814 -0.1040
 1556ntf    nn314148   1.902   5.058   3.968 -0.1083 -0.2622 -0.2318
 1556ntf    sn214149   1.947   5.054   4.118 -0.1895 -0.0216 -0.2001
 1556ntf    cn114150   1.807   5.147   4.186 -0.1276 -0.1945  0.1640
 1556ntf    fn414151   1.644   4.988   3.887 -0.1812  0.2314 -0.4809
 1556ntf    fn414152   1.755   5.105   3.739 -0.0757  0.4190 -0.1259
 1556ntf    fn414153   1.703   4.899   3.701 -0.7208  0.2725  0.5816
 1556ntf    on514154   1.884   4.809   3.906 -0.2887 -0.1145  0.4847
 1556ntf    on514155   2.000   4.964   3.755  0.4676  0.1160  0.2466
 1556ntf    on514156   1.942   4.931   4.193 -0.6007  0.2359  0.1979
 1556ntf    on514157   2.059   5.143   4.138 -0.3381  0.1010  0.0852
 1556ntf    fn414158   1.787   5.261   4.123 -0.1244 -0.1263  0.2867
 1556ntf    fn414159   1.819   5.194   4.309  0.5134  0.2300 -0.0576
 1556ntf    fn414160   1.688   5.090   4.183 -0.1796 -0.0893  0.2111
 1557ntf    cn114161   4.513   1.858   5.986 -0.0158 -0.1058  0.2067
 1557ntf    sn214162   4.350   1.938   5.975 -0.1428 -0.4214 -0.2213
 1557ntf    nn314163   4.265   1.813   6.016 -0.1017 -0.4032 -0.0788
 1557ntf    sn214164   4.159   1.801   6.131 -0.0180 -0.1710  0.0238
 1557ntf    cn114165   4.262   1.738   6.266 -0.0590  0.1389  0.2002
 1557ntf    fn414166   4.492   1.734   5.947 -0.4864  0.0685 -0.1026
 1557ntf    fn414167   4.610   1.914   5.916  0.1914 -0.4748  0.1945
 1557ntf    fn414168   4.559   1.854   6.111  0.2082 -0.5756  0.1116
 1557ntf    on514169   4.368   2.051   6.063  0.1034 -0.2076 -0.5419
 1557ntf    on514170   4.341   1.976   5.836 -0.4945  0.0551 -0.0730
 1557ntf    on514171   4.103   1.928   6.169  0.4730 -0.0735  0.4255
 1557ntf    on514172   4.066   1.696   6.099  0.3022 -0.4165 -0.1072
 1557ntf    fn414173   4.304   1.613   6.252 -0.1520  0.1201  0.0888
 1557ntf    fn414174   4.196   1.747   6.381  0.5254  0.0516  0.5493
 1557ntf    fn414175   4.374   1.807   6.282  0.2296 -0.2633 -0.0576
 1558ntf    cn114176   0.286   4.442   1.266  0.0218  0.1687 -0.0756
 1558ntf    sn214177   0.431   4.376   1.354  0.1789  0.3326 -0.2116
 1558ntf    nn314178   0.537   4.404   1.242  0.4468  0.3002  0.0325
 1558ntf    sn214179   0.600   4.306   1.136  0.1603  0.2726 -0.1128
 1558ntf    cn114180   0.594   4.411   0.988 -0.1161  0.1039 -0.2227
 1558ntf    fn414181   0.255   4.369   1.160 -0.2605  0.0187  0.1086
 1558ntf    fn414182   0.177   4.457   1.339  0.0146  0.1632 -0.0853
 1558ntf    fn414183   0.313   4.560   1.213  0.1809  0.1340 -0.0725
 1558ntf    on514184   0.460   4.462   1.467  0.0046 -0.3400  0.3484
 1558ntf    on514185   0.396   4.239   1.381  0.1538  0.2928 -0.4452
 1558ntf    on514186   0.741   4.284   1.157  0.2155  0.1696 -0.5837
 1558ntf    on514187   0.516   4.199   1.088 -0.0368  0.2662  0.2400
 1558ntf    fn414188   0.673   4.517   0.986 -0.2111  0.1896  0.3032
 1558ntf    fn414189   0.473   4.460   0.966 -0.0778  0.2296 -0.1555
 1558ntf    fn414190   0.610   4.340   0.878  0.1186 -0.2087  0.0111
 1559ntf    cn114191   2.301   2.919   3.362  0.0949  0.2322 -0.1460
 1559ntf    sn214192   2.210   2.769   3.410  0.4531  0.1261  0.2092
 1559ntf    nn314193   2.333   2.671   3.412  0.2528 -0.1259  0.1766
 1559ntf    sn214194   2.396   2.590   3.530  0.3853  0.1396  0.2873
 1559ntf    cn114195   2.544   2.695   3.551  0.0339  0.6463  0.2319
 1559ntf    fn414196   2.388   2.898   3.264 -0.1786 -0.4815 -0.2438
 1559ntf    fn414197   2.213   3.008   3.319  0.4183  0.5075 -0.2524
 1559ntf    fn414198   2.358   2.974   3.468 -0.2121  0.5940 -0.1685
 1559ntf    on514199   2.146   2.796   3.536  0.1193 -0.2975  0.1311
 1559ntf    on514200   2.128   2.737   3.296  0.0877 -0.2553  0.5747
 1559ntf    on514201   2.329   2.598   3.657 -0.2735 -0.5970 -0.0090
 1559ntf    on514202   2.437   2.458   3.490 -0.7499 -0.1483  0.0432
 1559ntf    fn414203   2.613   2.649   3.654 -0.2778 -0.3874 -0.0101
 1559ntf    fn414204   2.515   2.823   3.569 -0.0762  0.6218  0.2357
 1559ntf    fn414205   2.619   2.693   3.443 -0.2117  0.6984  0.0579
 1560ntf    cn114206   1.263   2.996   0.437 -0.0566  0.4940  0.2985
 1560ntf    sn214207   1.137   3.082   0.337 -0.1969  0.0558  0.0954
 1560ntf    nn314208   1.150   3.014   0.196  0.3533 -0.4323  0.3759
 1560ntf    sn214209   1.087   2.883   0.137 -0.3123 -0.0505  0.2306
 1560ntf    cn114210   0.947   2.943   0.037 -0.1874 -0.0959  0.0283
 1560ntf    fn414211   1.383   2.986   0.382 -0.0419 -0.0392  0.4267
 1560ntf    fn414212   1.278   3.051   0.556  0.2917  0.1931  0.3929
 1560ntf    fn414213   1.227   2.871   0.459  0.0651  0.3373 -0.3540
 1560ntf    on514214   1.014   3.083   0.412 -0.1766 -0.5056  0.1358
 1560ntf    on514215   1.208   3.208   0.332 -0.2724  0.1181  0.5214
 1560ntf    on514216   1.169   2.829   0.031  0.2852  0.5196  0.4006
 1560ntf    on514217   1.021   2.792   0.226  0.0195 -0.3345  0.1845
 1560ntf    fn414218   0.893   2.856  -0.047  0.2452 -0.4581  0.1204
 1560ntf    fn414219   0.978   3.061  -0.014  0.9777 -0.3200  0.1899
 1560ntf    fn414220   0.851   2.968   0.124 -0.1578  0.2537 -0.0384
 1561ntf    cn114221   1.741   3.792   0.583 -0.7312  0.1850  0.0746
 1561ntf    sn214222   1.688   3.835   0.415 -0.1344  0.0042 -0.1626
 1561ntf    nn314223   1.667   3.695   0.347 -0.3714 -0.0469  0.0152
 1561ntf    sn214224   1.621   3.668   0.199 -0.0754 -0.1742 -0.0532
 1561ntf    cn114225   1.775   3.673   0.103 -0.2260  0.1370 -0.2799
 1561ntf    fn414226   1.732   3.896   0.663  0.2086 -0.1365  0.6177
 1561ntf    fn414227   1.660   3.699   0.632 -0.2559 -0.3964 -0.2254
 1561ntf    fn414228   1.867   3.753   0.585 -0.6849  0.3367  0.1325
 1561ntf    on514229   1.573   3.918   0.444 -0.0793 -0.0096  0.0967
 1561ntf    on514230   1.811   3.889   0.361 -0.1470  0.1528 -0.0419
 1561ntf    on514231   1.583   3.530   0.179 -0.3229 -0.0224 -0.6318
 1561ntf    on514232   1.536   3.770   0.142 -0.5007 -0.1692  0.5792
 1561ntf    fn414233   1.758   3.650  -0.027  0.0642  0.3177 -0.3517
 1561ntf    fn414234   1.857   3.578   0.146 -0.4460  0.1493  0.1605
 1561ntf    fn414235   1.835   3.790   0.120 -0.2067  0.1039 -0.1207
 1562ntf    cn114236   5.389   3.963   2.781  0.1156 -0.2746  0.0006
 1562ntf    sn214237   5.263   4.063   2.695  0.3925  0.0269 -0.0612
 1562ntf    nn314238   5.162   4.097   2.810  0.0378  0.3096 -0.4540
 1562ntf    sn214239   5.196   4.191   2.931 -0.1623 -0.3371  0.1086
 1562ntf    cn114240   5.197   4.057   3.054 -0.0621 -0.1344  0.3294
 1562ntf    fn414241   5.345   3.852   2.837 -0.7309  0.2174  0.3299
 1562ntf    fn414242   5.488   3.921   2.704  0.8142  0.3550  0.5349
 1562ntf    fn414243   5.443   4.034   2.879  0.1253  0.1336 -0.2953
 1562ntf    on514244   5.327   4.167   2.619  0.0059  0.3028 -0.0096
 1562ntf    on514245   5.207   3.958   2.613  0.1153 -0.2614  0.4920
 1562ntf    on514246   5.329   4.246   2.941 -0.4253  0.3849 -0.3208
 1562ntf    on514247   5.084   4.277   2.962 -0.0556 -0.1926  0.0911
 1562ntf    fn414248   5.290   3.964   3.037  0.6429  0.5703  0.2859
 1562ntf    fn414249   5.081   3.993   3.057 -0.0312 -0.1937  0.2491
 1562ntf    fn414250   5.218   4.097   3.178 -0.1515  0.0827  0.2752
 1563ntf    cn114251   4.175   1.740   0.425  0.0396  0.1151 -0.1919
 1563ntf    sn214252   4.346   1.770   0.372  0.0731  0.0757 -0.1051
 1563ntf    nn314253   4.325   1.795   0.219 -0.4954 -0.4034 -0.1098
 1563ntf    sn214254   4.356   1.705   0.094  0.3942 -0.4242  0.1204
 1563ntf    cn114255   4.528   1.759   0.072  0.2527  0.2286  0.5956
 1563ntf    fn414256   4.151   1.731   0.554 -0.7051  0.5067 -0.2949
 1563ntf    fn414257   4.093   1.833   0.378 -0.5437 -0.4153 -0.2391
 1563ntf    fn414258   4.133   1.628   0.368  0.3602 -0.4777  0.7134
 1563ntf    on514259   4.389   1.887   0.444  0.2479 -0.5008  0.7547
 1563ntf    on514260   4.420   1.652   0.412  1.0084  0.7230  0.1282
 1563ntf    on514261   4.358   1.561   0.105  0.2337 -0.4368 -0.0187
 1563ntf    on514262   4.293   1.758  -0.023  0.8830  0.3257  0.1934
 1563ntf    fn414263   4.605   1.699   0.162  0.0056  0.0543  0.6917
 1563ntf    fn414264   4.541   1.890   0.083 -0.1288  0.2835  0.3793
 1563ntf    fn414265   4.573   1.729  -0.048 -0.0919  0.4508  0.4107
 1564ntf    cn114266   0.679   0.977   1.360  0.5585  0.2913 -0.1078
 1564ntf    sn214267   0.620   0.806   1.367  0.1686  0.4343  0.1192
 1564ntf    nn314268   0.543   0.788   1.231 -0.0589 -1.0766  0.4229
 1564ntf    sn214269   0.389   0.763   1.209 -0.1751  0.0853 -0.2102
 1564ntf    cn114270   0.327   0.933   1.206 -0.3279  0.0380  0.2942
 1564ntf    fn414271   0.585   1.068   1.338  0.2818  0.1067  0.3062
 1564ntf    fn414272   0.736   1.012   1.474 -0.0167  0.1383  0.2266
 1564ntf    fn414273   0.770   0.997   1.266 -0.0328  0.6107 -0.6210
 1564ntf    on514274   0.747   0.739   1.375 -0.0421  0.0770  0.4902
 1564ntf    on514275   0.546   0.808   1.491  0.4670 -0.2018  0.3137
 1564ntf    on514276   0.361   0.708   1.078  0.2239 -0.2102 -0.1763
 1564ntf    on514277   0.312   0.701   1.314 -0.1852 -0.3433 -0.4650
 1564ntf    fn414278   0.363   0.990   1.092 -0.5996  0.3225  0.3468
 1564ntf    fn414279   0.363   1.009   1.308 -0.0305  0.1821  0.0843
 1564ntf    fn414280   0.195   0.942   1.210 -0.4188 -0.6282 -0.8088
 1565ntf    cn114281   4.716   6.036   6.623 -0.3318 -0.4237  0.0464
 1565ntf    sn214282   4.797   5.978   6.775  0.1494 -0.4103 -0.2050
 1565ntf    nn314283   4.694   5.874   6.831 -0.2422  0.0251 -0.1170
 1565ntf    sn214284   4.585   5.887   6.943 -0.1560  0.0106 -0.0306
 1565ntf    cn114285   4.684   5.842   7.089 -0.0170 -0.1585 -0.1772
 1565ntf    fn414286   4.797   6.107   6.546 -0.4017  0.2202  0.5596
 1565ntf    fn414287   4.656   5.943   6.550 -0.0019 -0.1048 -0.6377
 1565ntf    fn414288   4.617   6.120   6.649  0.2061  0.3002 -0.2309
 1565ntf    on514289   4.914   5.918   6.715  0.1377  0.0368 -0.6860
 1565ntf    on514290   4.819   6.098   6.852 -0.4277 -0.0544 -0.5839
 1565ntf    on514291   4.529   6.016   6.975 -0.2497 -0.1639  0.5353
 1565ntf    on514292   4.498   5.772   6.943  0.3115 -0.3462 -0.1126
 1565ntf    fn414293   4.688   5.710   7.104 -0.1749 -0.1203  0.2091
 1565ntf    fn414294   4.620   5.886   7.195  0.1092  0.2216 -0.2589
 1565ntf    fn414295   4.807   5.889   7.099 -0.0628 -0.1888  0.5389
 1566ntf    cn114296   2.418   2.096   0.130  0.3964 -0.1362 -0.1458
 1566ntf    sn214297   2.537   2.233   0.115 -0.0340  0.1975 -0.5177
 1566ntf    nn314298   2.540   2.266   0.268  0.2524 -0.6860 -0.3269
 1566ntf    sn214299   2.641   2.218   0.377  0.0214  0.1095  0.2506
 1566ntf    cn114300   2.775   2.341   0.367  0.3696 -0.3209 -0.4924
 1566ntf    fn414301   2.306   2.135   0.188  0.7534  0.1532  0.3575
 1566ntf    fn414302   2.390   2.055   0.007  0.0917 -0.2169 -0.0497
 1566ntf    fn414303   2.471   1.996   0.199 -0.1214 -0.5455 -0.3345
 1566ntf    on514304   2.645   2.166   0.047 -0.3159 -0.8778  0.0738
 1566ntf    on514305   2.468   2.336   0.040 -0.0896  0.1566 -0.5224
 1566ntf    on514306   2.585   2.238   0.509 -0.3266  0.5079  0.0413
 1566ntf    on514307   2.698   2.088   0.350 -0.0225  0.0901  0.2506
 1566ntf    fn414308   2.750   2.450   0.437  0.3739 -0.3286 -0.4793
 1566ntf    fn414309   2.796   2.384   0.244  0.3731  0.5431 -0.1964
 1566ntf    fn414310   2.890   2.291   0.407  0.1633 -0.2585  0.1897
 1567ntf    cn114311   2.382   4.751   3.017  0.1417 -0.4540 -0.0677
 1567ntf    sn214312   2.436   4.826   2.860 -0.3700  0.1856  0.0600
 1567ntf    nn314313   2.591   4.809   2.876 -0.3683  0.0614 -0.0912
 1567ntf    sn214314   2.702   4.788   2.767 -0.0605  0.2904  0.1738
 1567ntf    cn114315   2.737   4.610   2.763 -0.2100  0.2648 -0.0531
 1567ntf    fn414316   2.445   4.637   3.037  0.3800 -0.3261 -0.0766
 1567ntf    fn414317   2.408   4.834   3.118  0.1145  0.1456 -0.5486
 1567ntf    fn414318   2.253   4.725   3.017  0.1907 -0.7442  0.8316
 1567ntf    on514319   2.376   4.736   2.765  0.2929  0.0544 -0.2363
 1567ntf    on514320   2.389   4.962   2.872  0.1538  0.3752 -0.0264
 1567ntf    on514321   2.648   4.816   2.636  0.2271 -0.5200 -0.1291
 1567ntf    on514322   2.828   4.847   2.803  0.0617  0.4997 -0.5807
 1567ntf    fn414323   2.848   4.577   2.698 -0.1675  0.4434 -0.0712
 1567ntf    fn414324   2.638   4.551   2.699  0.1564 -0.6942  0.2363
 1567ntf    fn414325   2.760   4.561   2.884  0.2401 -0.0941 -0.2781
 1568ntf    cn114326   1.947   6.037   1.028 -0.6198  0.0729  0.1283
 1568ntf    sn214327   1.940   5.941   1.182 -0.1873 -0.0868  0.0510
 1568ntf    nn314328   2.080   5.978   1.241 -0.1735  0.1867 -0.1501
 1568ntf    sn214329   2.120   6.055   1.372 -0.0447  0.3952 -0.3104
 1568ntf    cn114330   2.268   5.959   1.417 -0.4755  0.1463  0.6013
 1568ntf    fn414331   1.842   6.021   0.949 -0.3745 -0.7569 -0.0400
 1568ntf    fn414332   1.959   6.167   1.051  0.0818 -0.0365  0.4080
 1568ntf    fn414333   2.050   5.998   0.955 -0.7797 -0.1777  0.0355
 1568ntf    on514334   1.831   6.005   1.252 -0.1312  0.0882 -0.0198
 1568ntf    on514335   1.936   5.805   1.134 -0.5192 -0.1046  0.1224
 1568ntf    on514336   2.179   6.186   1.361 -0.4426  0.6476  0.4803
 1568ntf    on514337   2.035   6.024   1.485  0.3267 -0.5238 -0.2775
 1568ntf    fn414338   2.340   5.927   1.312 -0.1981 -0.2575  0.9117
 1568ntf    fn414339   2.228   5.840   1.458 -0.4884 -0.0552  0.0090
 1568ntf    fn414340   2.334   6.009   1.521 -0.2876  0.5052  0.3110
 1569ntf    cn114341   5.151   4.416   1.904 -0.1560  0.3248  0.3131
 1569ntf    sn214342   5.150   4.397   2.085 -0.0765  0.0597  0.2868
 1569ntf    nn314343   5.201   4.538   2.130 -0.4149 -0.0109  0.8992
 1569ntf    sn214344   5.351   4.578   2.152 -0.2174 -0.3291  0.1349
 1569ntf    cn114345   5.349   4.750   2.092 -0.1683 -0.3301  0.1295
 1569ntf    fn414346   5.103   4.305   1.850  0.4663  0.0773  0.2626
 1569ntf    fn414347   5.071   4.516   1.872 -0.5902 -0.0092  0.3328
 1569ntf    fn414348   5.270   4.446   1.856 -0.1221  0.4665  0.4855
 1569ntf    on514349   5.009   4.382   2.113 -0.2131  0.1187 -0.3624
 1569ntf    on514350   5.236   4.284   2.107 -0.2722 -0.1396  0.0344
 1569ntf    on514351   5.379   4.581   2.293 -0.8506  0.0211  0.2547
 1569ntf    on514352   5.443   4.520   2.057  0.4270  0.1420  0.4678
 1569ntf    fn414353   5.314   4.768   1.966  0.2959 -0.7105 -0.0580
 1569ntf    fn414354   5.465   4.814   2.096 -0.3795  0.1250 -0.7662
 1569ntf    fn414355   5.262   4.826   2.157  0.0607 -0.2636  0.3607
 1570ntf    cn114356   0.983   3.768   1.290  0.0931  0.1747  0.3330
 1570ntf    sn214357   0.886   3.808   1.142  0.0504  0.0828  0.3355
 1570ntf    nn314358   0.987   3.760   1.032 -0.3513  0.0719 -0.0304
 1570ntf    sn214359   0.989   3.621   0.959  0.3216  0.1603 -0.1917
 1570ntf    cn114360   1.166   3.589   0.934  0.2839 -0.0844 -0.1548
 1570ntf    fn414361   1.007   3.639   1.306 -0.6367  0.0528  0.4953
 1570ntf    fn414362   1.103   3.822   1.294  0.4496 -0.5529 -0.2561
 1570ntf    fn414363   0.919   3.805   1.400  0.1035  0.0983  0.3653
 1570ntf    on514364   0.767   3.727   1.148 -0.1959  0.4374  0.2676
 1570ntf    on514365   0.872   3.952   1.146  0.0121  0.0979 -0.2291
 1570ntf    on514366   0.965   3.506   1.043 -0.4100  0.3113 -0.1863
 1570ntf    on514367   0.948   3.631   0.821 -0.2582  0.1548 -0.0209
 1570ntf    fn414368   1.224   3.691   0.872  0.3839  0.1985  0.3994
 1570ntf    fn414369   1.179   3.480   0.860 -0.5781 -0.1255 -0.2569
 1570ntf    fn414370   1.227   3.569   1.050  0.4730  0.0845 -0.2226
 1571ntf    cn114371   4.517   6.160   1.604 -0.0006 -0.4646  0.3246
 1571ntf    sn214372   4.691   6.139   1.560 -0.0428 -0.2149  0.0387
 1571ntf    nn314373   4.739   6.278   1.614 -0.3039 -0.2342  0.3211
 1571ntf    sn214374   4.837   6.313   1.731 -0.2259 -0.0805  0.2100
 1571ntf    cn114375   4.804   6.491   1.753  0.2613  0.0391  0.0010
 1571ntf    fn414376   4.508   6.192   1.732  0.4940 -0.0575  0.2594
 1571ntf    fn414377   4.449   6.256   1.543  0.7029 -0.0576  0.1810
 1571ntf    fn414378   4.443   6.051   1.593 -0.3085 -0.2919  0.6521
 1571ntf    on514379   4.729   6.023   1.637 -0.4146 -0.1955  0.2489
 1571ntf    on514380   4.680   6.120   1.417  0.3906  0.3241 -0.0701
 1571ntf    on514381   4.792   6.250   1.852  0.4300 -0.3484  0.3199
 1571ntf    on514382   4.978   6.307   1.702 -0.2120 -0.1676  0.2948
 1571ntf    fn414383   4.678   6.505   1.791 -0.0825 -0.8007 -0.7917
 1571ntf    fn414384   4.816   6.561   1.642  0.1432  0.3547  0.1857
 1571ntf    fn414385   4.884   6.539   1.846  0.5158  0.0384 -0.2173
 1572ntf    cn114386   2.007   1.609   1.485  0.0201 -0.2042  0.0732
 1572ntf    sn214387   1.911   1.661   1.630  0.0028  0.0725 -0.0353
 1572ntf    nn314388   1.814   1.539   1.652 -0.3568  0.4579  0.5402
 1572ntf    sn214389   1.835   1.420   1.751  0.2465 -0.0989 -0.2458
 1572ntf    cn114390   1.734   1.468   1.895  0.5017  0.2233 -0.1740
 1572ntf    fn414391   2.086   1.505   1.505  0.5265  0.1309 -0.1540
 1572ntf    fn414392   1.935   1.580   1.378  0.3493  0.2509 -0.2778
 1572ntf    fn414393   2.084   1.712   1.451  0.2929 -0.4369 -0.0175
 1572ntf    on514394   2.013   1.691   1.727 -0.0214  0.5953 -0.1693
 1572ntf    on514395   1.835   1.774   1.584  0.0422  0.1347  0.0525
 1572ntf    on514396   1.772   1.300   1.701 -0.0454  0.1402 -0.4611
 1572ntf    on514397   1.968   1.415   1.807  0.3182  0.3407 -0.3719
 1572ntf    fn414398   1.758   1.592   1.935 -0.0796  0.2360  0.1345
 1572ntf    fn414399   1.747   1.384   1.996  0.1006 -0.0601 -0.3574
 1572ntf    fn414400   1.606   1.469   1.862  0.3558 -0.0629  0.3816
 1573ntf    cn114401   1.578   2.692   4.714  0.0673 -0.1673 -0.3012
 1573ntf    sn214402   1.669   2.698   4.556  0.0093  0.0217 -0.3272
 1573ntf    nn314403   1.815   2.646   4.580  0.1077  0.4110 -0.0583
 1573ntf    sn214404   1.885   2.509   4.550 -0.1061  0.1714  0.5197
 1573ntf    cn114405   1.976   2.563   4.402 -0.3971  0.0046  0.2776
 1573ntf    fn414406   1.606   2.582   4.781  0.4512  0.5241  0.7074
 1573ntf    fn414407   1.611   2.789   4.798  0.5179 -0.3928 -0.2124
 1573ntf    fn414408   1.447   2.693   4.694  0.0457 -0.0125 -0.1577
 1573ntf    on514409   1.588   2.617   4.469  0.2160 -0.1761 -0.3353
 1573ntf    on514410   1.674   2.839   4.524 -0.1485  0.0075 -0.4152
 1573ntf    on514411   1.988   2.475   4.645  0.0105  0.0029  0.3366
 1573ntf    on514412   1.795   2.410   4.495 -0.0161  0.0999  0.4995
 1573ntf    fn414413   1.896   2.591   4.301  0.3329  0.9724 -0.0471
 1573ntf    fn414414   2.051   2.463   4.356 -0.0813  0.3633  0.0061
 1573ntf    fn414415   2.059   2.666   4.407 -0.3068 -0.0403 -0.2073
 1574ntf    cn114416   4.698   4.629   1.787  0.0843 -0.3495  0.0367
 1574ntf    sn214417   4.654   4.606   1.612 -0.1561 -0.2297  0.0803
 1574ntf    nn314418   4.708   4.462   1.579  0.1990  0.0264 -0.4905
 1574ntf    sn214419   4.848   4.425   1.521  0.2339  0.2063 -0.5197
 1574ntf    cn114420   4.895   4.299   1.643 -0.3532  0.2863 -0.2102
 1574ntf    fn414421   4.583   4.642   1.851  0.1519  0.9802 -0.0854
 1574ntf    fn414422   4.774   4.539   1.846  0.2104 -0.5464 -0.4219
 1574ntf    fn414423   4.759   4.743   1.816  0.1229 -0.3357 -0.0980
 1574ntf    on514424   4.510   4.607   1.613 -0.1592 -0.2485 -0.2096
 1574ntf    on514425   4.713   4.712   1.534 -0.3502 -0.0618  0.1648
 1574ntf    on514426   4.841   4.352   1.396 -0.0788  0.0742 -0.4257
 1574ntf    on514427   4.951   4.524   1.545  0.6233 -0.4236  0.4932
 1574ntf    fn414428   5.024   4.269   1.652 -0.4191  0.0579 -0.0020
 1574ntf    fn414429   4.834   4.183   1.620 -0.3303  0.2559 -0.1181
 1574ntf    fn414430   4.861   4.338   1.765  0.1215 -0.0508  0.0358
 1575ntf    cn114431   1.557   3.810   5.159 -0.3323  0.3576  0.1718
 1575ntf    sn214432   1.614   3.789   4.988 -0.1216 -0.2895  0.3170
 1575ntf    nn314433   1.638   3.634   4.993  0.3570 -0.2056  0.6932
 1575ntf    sn214434   1.613   3.521   4.886  0.1488  0.2391  0.2665
 1575ntf    cn114435   1.459   3.444   4.942 -0.0274  0.1861 -0.2913
 1575ntf    fn414436   1.651   3.791   5.251 -0.4081 -0.4159  0.0920
 1575ntf    fn414437   1.500   3.924   5.193 -0.4534  0.3767 -0.0991
 1575ntf    fn414438   1.464   3.720   5.185  0.0695 -0.2543 -0.4897
 1575ntf    on514439   1.504   3.827   4.902  0.6550  0.1163 -0.5180
 1575ntf    on514440   1.738   3.862   4.986 -0.3093  0.0479  0.8119
 1575ntf    on514441   1.574   3.561   4.753  0.3468 -0.6507 -0.0659
 1575ntf    on514442   1.709   3.414   4.896 -0.3907 -0.2816 -0.1231
 1575ntf    fn414443   1.393   3.374   4.851  0.6174 -0.6965 -0.0945
 1575ntf    fn414444   1.377   3.541   4.977 -0.1870  0.0362 -0.2452
 1575ntf    fn414445   1.462   3.365   5.048 -0.1885 -0.0262 -0.4414
 1576ntf    cn114446   4.565   2.498   4.818 -0.0484  0.0742  0.1303
 1576ntf    sn214447   4.567   2.680   4.830 -0.1296  0.0842 -0.0053
 1576ntf    nn314448   4.525   2.720   4.684 -0.3303 -0.3504 -0.0701
 1576ntf    sn214449   4.406   2.801   4.622 -0.0241  0.3263  0.2160
 1576ntf    cn114450   4.322   2.653   4.559  0.5387 -0.1185  0.5020
 1576ntf    fn414451   4.441   2.456   4.801  0.0652 -0.3088  0.2367
 1576ntf    fn414452   4.632   2.456   4.711 -0.2609  0.2893 -0.0892
 1576ntf    fn414453   4.613   2.437   4.924 -0.0447  0.5761  0.4218
 1576ntf    on514454   4.461   2.704   4.924 -0.7911 -0.3585 -0.6273
 1576ntf    on514455   4.701   2.719   4.867  0.0568 -0.2479 -0.3144
 1576ntf    on514456   4.309   2.849   4.718 -0.3131 -0.3873  0.2890
 1576ntf    on514457   4.428   2.870   4.498 -0.3695 -0.0534 -0.0585
 1576ntf    fn414458   4.306   2.551   4.642 -0.4367  0.2001  0.7218
 1576ntf    fn414459   4.379   2.596   4.454 -0.2026 -0.3743  0.2278
 1576ntf    fn414460   4.200   2.680   4.517  0.7597 -0.2120 -0.2127
 1577ntf    cn114461   0.701   4.318   0.241 -0.0543  0.0154 -0.4065
 1577ntf    sn214462   0.860   4.399   0.204 -0.0119  0.0308 -0.1898
 1577ntf    nn314463   0.942   4.338   0.323 -0.2253  0.0244 -0.0439
 1577ntf    sn214464   1.019   4.201   0.323  0.1032  0.2068  0.1691
 1577ntf    cn114465   1.183   4.254   0.265  0.3110  0.1052  0.6621
 1577ntf    fn414466   0.616   4.324   0.140 -0.3298  0.2490 -0.1620
 1577ntf    fn414467   0.715   4.188   0.265  0.0952  0.0480 -0.3170
 1577ntf    fn414468   0.635   4.362   0.347  0.2220 -0.4207 -0.0477
 1577ntf    on514469   0.894   4.354   0.072 -0.2260  0.0968 -0.2679
 1577ntf    on514470   0.836   4.540   0.223  0.4247  0.0341  0.3639
 1577ntf    on514471   1.036   4.156   0.459  0.3350  0.2038  0.1394
 1577ntf    on514472   0.969   4.097   0.237 -0.3542 -0.1958  0.9135
 1577ntf    fn414473   1.263   4.148   0.261  0.4282  0.2269 -0.4488
 1577ntf    fn414474   1.243   4.335   0.351  0.6080  0.8526 -0.2298
 1577ntf    fn414475   1.182   4.317   0.149  0.0029 -0.4018  0.3842
 1578ntf    cn114476   4.015   3.807   1.015  0.0116  0.1533  0.2094
 1578ntf    sn214477   3.875   3.900   0.945 -0.1100 -0.1609  0.0303
 1578ntf    nn314478   3.767   3.906   1.059 -0.1450  0.2533 -0.0241
 1578ntf    sn214479   3.616   3.947   1.057 -0.1354  0.2792 -0.1760
 1578ntf    cn114480   3.540   3.783   1.071  0.0401  0.2244  0.1300
 1578ntf    fn414481   4.133   3.853   0.977 -0.1319 -0.0434 -0.4838
 1578ntf    fn414482   4.017   3.804   1.147 -0.0789  0.2166  0.2127
 1578ntf    fn414483   4.015   3.679   0.979  0.2250  0.1404  0.2567
 1578ntf    on514484   3.934   4.029   0.918  0.3668 -0.3649  0.0968
 1578ntf    on514485   3.847   3.823   0.826 -0.1279 -0.1034 -0.0028
 1578ntf    on514486   3.576   4.014   1.179  0.5360  0.0600  0.1660
 1578ntf    on514487   3.565   3.999   0.932 -0.1932  0.3827 -0.1098
 1578ntf    fn414488   3.573   3.725   1.186  0.4639  0.1475 -0.0292
 1578ntf    fn414489   3.584   3.698   0.980  0.2511  0.2915  0.1693
 1578ntf    fn414490   3.409   3.781   1.050  0.1529  0.2811 -0.5953
 1579ntf    cn114491   3.841   0.178   4.236 -0.5088  0.3583 -0.0810
 1579ntf    sn214492   3.991   0.136   4.143 -0.3598 -0.0064  0.3218
 1579ntf    nn314493   3.981   0.244   4.029  0.4370 -0.2800 -0.0101
 1579ntf    sn214494   3.970   0.231   3.873 -0.1222  0.0044  0.0047
 1579ntf    cn114495   4.114   0.331   3.825 -0.2113  0.0450 -0.1804
 1579ntf    fn414496   3.840   0.304   4.277 -0.0545  0.4233 -0.2755
 1579ntf    fn414497   3.728   0.167   4.168 -0.3760 -0.2568 -0.1997
 1579ntf    fn414498   3.825   0.095   4.338  0.3560  0.4639  0.1437
 1579ntf    on514499   4.101   0.156   4.235 -0.0313  0.2473 -0.1257
 1579ntf    on514500   3.971   0.000   4.100 -0.3963  0.2899 -0.6058
 1579ntf    on514501   3.997   0.102   3.816  0.3838 -0.0094  0.2688
 1579ntf    on514502   3.862   0.303   3.810 -0.2639  0.2606  0.5358
 1579ntf    fn414503   4.120   0.352   3.695 -0.3243  0.1212 -0.1730
 1579ntf    fn414504   4.225   0.280   3.876  0.0733  0.3891 -0.4528
 1579ntf    fn414505   4.109   0.453   3.875  0.0203  0.0839 -0.2506
 1580ntf    cn114506   6.149   3.061   5.496 -0.3484  0.1733  0.2800
 1580ntf    sn214507   5.968   3.073   5.493 -0.3510  0.0727 -0.0151
 1580ntf    nn314508   5.921   2.925   5.515  0.2846 -0.1551 -0.1593
 1580ntf    sn214509   5.919   2.831   5.641  0.0058 -0.2661 -0.2452
 1580ntf    cn114510   6.039   2.698   5.607 -0.1938 -0.5213  0.0441
 1580ntf    fn414511   6.210   3.175   5.466  0.4784 -0.3515 -0.0844
 1580ntf    fn414512   6.203   3.023   5.611  0.5052 -0.6137 -0.3581
 1580ntf    fn414513   6.194   2.963   5.419 -0.5581  0.1530  0.1840
 1580ntf    on514514   5.929   3.161   5.600  0.2883  0.4851 -0.1149
 1580ntf    on514515   5.947   3.119   5.358 -0.2021 -0.0464 -0.0787
 1580ntf    on514516   5.994   2.876   5.756  0.0229  0.0523 -0.3824
 1580ntf    on514517   5.792   2.767   5.664  0.0343 -0.3808 -0.4036
 1580ntf    fn414518   6.157   2.753   5.586 -0.4983  0.0810 -0.1130
 1580ntf    fn414519   6.003   2.621   5.506 -0.1451 -0.1306 -0.2715
 1580ntf    fn414520   6.062   2.604   5.697 -0.3434 -0.4256  0.1826
 1581ntf    cn114521   2.335   6.623   0.169  0.0350 -0.2288  0.0903
 1581ntf    sn214522   2.169   6.659   0.104  0.1356  0.0912  0.0084
 1581ntf    nn314523   2.213   6.748  -0.018  0.2028 -0.1436 -0.1393
 1581ntf    sn214524   2.222   6.700  -0.167 -0.1379  0.0650 -0.2275
 1581ntf    cn114525   2.084   6.797  -0.235  0.1337  0.5103 -0.1467
 1581ntf    fn414526   2.383   6.745   0.190 -0.1300 -0.0752 -0.3925
 1581ntf    fn414527   2.329   6.552   0.280 -0.0027 -0.5303 -0.1051
 1581ntf    fn414528   2.420   6.551   0.098  0.0712  0.3119 -0.4274
 1581ntf    on514529   2.108   6.531   0.081 -0.0130  0.1288  0.1898
 1581ntf    on514530   2.102   6.740   0.203 -0.1743 -0.1305 -0.0194
 1581ntf    on514531   2.332   6.762  -0.237 -0.1413  0.5303  0.1769
 1581ntf    on514532   2.197   6.559  -0.181 -0.3060  0.0622  0.1007
 1581ntf    fn414533   1.967   6.771  -0.179  0.0932  0.1686 -0.3874
 1581ntf    fn414534   2.084   6.778  -0.366  0.1112 -0.5214 -0.0065
 1581ntf    fn414535   2.097   6.928  -0.221 -0.3915  0.5033  0.4303
 1582ntf    cn114536   5.737   2.228   5.488  0.4548  0.1380  0.1793
 1582ntf    sn214537   5.644   2.172   5.633 -0.1935 -0.2729 -0.3916
 1582ntf    nn314538   5.756   2.127   5.733 -0.1108  0.2143 -0.2632
 1582ntf    sn214539   5.837   2.217   5.832 -0.3732 -0.1471  0.2866
 1582ntf    cn114540   5.728   2.216   5.977 -0.4763 -0.5838  0.2077
 1582ntf    fn414541   5.775   2.129   5.409 -0.0959  0.2062 -0.1817
 1582ntf    fn414542   5.664   2.304   5.408  0.0252  0.5710  0.9663
 1582ntf    fn414543   5.846   2.299   5.513  0.2875  0.3724  0.2484
 1582ntf    on514544   5.558   2.282   5.671  0.6648  0.3140 -0.1346
 1582ntf    on514545   5.580   2.052   5.585 -0.1175 -0.4136 -0.1455
 1582ntf    on514546   5.958   2.163   5.891 -0.3412 -0.4510 -0.0583
 1582ntf    on514547   5.861   2.353   5.791  0.0374 -0.1718  0.4330
 1582ntf    fn414548   5.707   2.094   6.024 -0.1422 -0.6548  0.1766
 1582ntf    fn414549   5.614   2.279   5.952 -0.1190 -0.2262 -0.5203
 1582ntf    fn414550   5.776   2.290   6.076 -0.0378 -0.3971 -0.1454
 1583ntf    cn114551   0.934   3.590   1.768  0.0079 -0.3768  0.1815
 1583ntf    sn214552   0.772   3.637   1.836  0.0844 -0.0980  0.1707
 1583ntf    nn314553   0.786   3.570   1.977  0.4366 -0.0257  0.1716
 1583ntf    sn214554   0.731   3.427   2.015 -0.2020  0.1188 -0.2006
 1583ntf    cn114555   0.582   3.479   2.106 -0.1218 -0.2295  0.1307
 1583ntf    fn414556   1.031   3.666   1.816 -0.0360  0.0114 -0.3363
 1583ntf    fn414557   0.954   3.464   1.803  0.6841 -0.2200  0.3715
 1583ntf    fn414558   0.932   3.593   1.635 -0.4908  0.0116  0.1938
 1583ntf    on514559   0.780   3.780   1.851 -0.4760 -0.0636  0.1753
 1583ntf    on514560   0.673   3.588   1.744  0.1962 -0.1924  0.0997
 1583ntf    on514561   0.684   3.344   1.907 -0.0470 -0.1840 -0.0367
 1583ntf    on514562   0.817   3.363   2.111 -0.4158 -0.0781 -0.1401
 1583ntf    fn414563   0.508   3.568   2.043 -0.3497 -0.1067  0.5696
 1583ntf    fn414564   0.598   3.530   2.227  0.6679  0.3267 -0.1997
 1583ntf    fn414565   0.497   3.377   2.114 -0.2132 -0.1641  0.0035
 1584ntf    cn114566   0.335   3.943   3.325 -0.2175 -0.4845 -0.1903
 1584ntf    sn214567   0.382   3.898   3.494 -0.1107  0.2006 -0.0337
 1584ntf    nn314568   0.400   3.742   3.481  0.6069  0.2869 -0.1416
 1584ntf    sn214569   0.503   3.653   3.559 -0.0280 -0.0740  0.2990
 1584ntf    cn114570   0.384   3.567   3.666  0.1471 -0.2612  0.3445
 1584ntf    fn414571   0.219   3.892   3.288 -0.7938  0.3220  0.4449
 1584ntf    fn414572   0.320   4.075   3.324  0.0680 -0.4528 -0.4247
 1584ntf    fn414573   0.420   3.907   3.231  0.0109 -0.3799 -0.0247
 1584ntf    on514574   0.501   3.977   3.514 -0.1202  0.2316 -0.1013
 1584ntf    on514575   0.269   3.941   3.573  0.2566 -0.0741  0.6535
 1584ntf    on514576   0.553   3.548   3.473 -0.6088  0.1052 -0.2649
 1584ntf    on514577   0.592   3.718   3.653  0.3287 -0.3201  0.1340
 1584ntf    fn414578   0.444   3.481   3.746  0.4750 -0.0887  0.2862
 1584ntf    fn414579   0.297   3.497   3.595 -0.2833  0.2546  0.3546
 1584ntf    fn414580   0.311   3.653   3.735 -0.2966 -0.0256 -0.3968
 1585ntf    cn114581   5.405   1.209   0.386 -0.2646 -0.0659 -0.0510
 1585ntf    sn214582   5.347   1.283   0.231 -0.0860 -0.0671 -0.1194
 1585ntf    nn314583   5.212   1.340   0.288  0.0461  0.1878 -0.0597
 1585ntf    sn214584   5.069   1.284   0.321 -0.0024  0.3490  0.0070
 1585ntf    cn114585   4.983   1.308   0.163  0.2119 -0.3394 -0.2168
 1585ntf    fn414586   5.312   1.130   0.437 -0.2418 -0.2327 -0.2661
 1585ntf    fn414587   5.512   1.131   0.371  0.0741  0.4345 -0.2486
 1585ntf    fn414588   5.429   1.303   0.476  0.5808 -0.2490 -0.0734
 1585ntf    on514589   5.437   1.393   0.204 -0.1055 -0.0418 -0.0815
 1585ntf    on514590   5.346   1.170   0.142  0.2244  0.1829 -0.4419
 1585ntf    on514591   5.061   1.141   0.339 -0.8680  0.4804  0.7604
 1585ntf    on514592   4.996   1.361   0.419 -0.3774 -0.0567  0.0467
 1585ntf    fn414593   4.857   1.266   0.169  0.2231 -0.3425  0.0155
 1585ntf    fn414594   5.031   1.227   0.070  0.5418 -0.2523 -0.1244
 1585ntf    fn414595   4.995   1.429   0.112  0.1307 -0.2493 -0.0239
 1586ntf    cn114596   1.024   0.080   5.089 -0.2711 -0.2184  0.0659
 1586ntf    sn214597   1.031   0.103   4.909 -0.0876  0.0896  0.1099
 1586ntf    nn314598   1.097   0.244   4.893 -0.8601  0.3807 -0.5797
 1586ntf    sn214599   1.133   0.327   4.764  0.2986 -0.0539 -0.5404
 1586ntf    cn114600   0.976   0.417   4.757  0.0877 -0.3521  0.2236
 1586ntf    fn414601   0.937   0.162   5.145  0.2013  0.2180  0.1783
 1586ntf    fn414602   0.992  -0.043   5.126 -0.0065 -0.1767  0.4464
 1586ntf    fn414603   1.142   0.105   5.144  0.0467 -0.3435 -0.5489
 1586ntf    on514604   1.119  -0.005   4.870  0.1030  0.1607  0.3462
 1586ntf    on514605   0.891   0.102   4.873 -0.0165 -0.2753 -0.1693
 1586ntf    on514606   1.235   0.428   4.777  0.2152 -0.1960  1.5385
 1586ntf    on514607   1.135   0.239   4.650  0.3073  0.3054 -0.8186
 1586ntf    fn414608   0.872   0.364   4.694  0.1061 -0.1199 -0.0059
 1586ntf    fn414609   0.996   0.539   4.709  0.1395 -0.5224 -0.1960
 1586ntf    fn414610   0.938   0.443   4.881  0.1344  0.3233  0.0975
 1587ntf    cn114611   2.490   6.012   5.247  0.8272  0.1304  0.4022
 1587ntf    sn214612   2.551   5.860   5.167  0.1187 -0.0901  0.2740
 1587ntf    nn314613   2.613   5.778   5.286  0.4376  0.0925  0.2352
 1587ntf    sn214614   2.574   5.633   5.332  0.0343  0.1126 -0.0397
 1587ntf    cn114615   2.651   5.620   5.496 -0.4514 -0.2654  0.1643
 1587ntf    fn414616   2.438   5.993   5.367  0.1391 -0.0618  0.0763
 1587ntf    fn414617   2.589   6.095   5.274  0.5867  0.5516 -0.0012
 1587ntf    fn414618   2.406   6.073   5.166  0.6620 -0.6133 -0.0016
 1587ntf    on514619   2.428   5.806   5.114  0.2597 -0.0026 -0.1444
 1587ntf    on514620   2.646   5.913   5.073 -0.1656  0.3188  0.2189
 1587ntf    on514621   2.433   5.619   5.362  0.1758 -0.4894  0.3704
 1587ntf    on514622   2.646   5.531   5.261  0.1408 -0.0473  0.2954
 1587ntf    fn414623   2.611   5.510   5.556  0.2761 -0.3904  0.4410
 1587ntf    fn414624   2.633   5.727   5.573  0.3104  0.2218 -0.3124
 1587ntf    fn414625   2.782   5.612   5.480 -0.4263 -0.1030  0.2742
 1588ntf    cn114626   5.288   3.250   0.572 -0.0569  0.0416 -0.5493
 1588ntf    sn214627   5.319   3.415   0.503  0.0988  0.0412 -0.4806
 1588ntf    nn314628   5.339   3.366   0.356  0.1724 -0.4450 -0.3098
 1588ntf    sn214629   5.329   3.444   0.220  0.0583 -0.0295 -0.0637
 1588ntf    cn114630   5.506   3.460   0.180  0.0858 -0.0036  0.0672
 1588ntf    fn414631   5.399   3.177   0.570 -0.4184 -0.5325  0.0658
 1588ntf    fn414632   5.238   3.263   0.693 -0.0569 -0.0111 -0.5436
 1588ntf    fn414633   5.202   3.175   0.505 -0.1234 -0.3775 -0.0047
 1588ntf    on514634   5.191   3.479   0.525  0.0376 -0.0763 -0.4968
 1588ntf    on514635   5.437   3.457   0.576 -0.3122 -0.0431  0.2451
 1588ntf    on514636   5.265   3.361   0.121  0.1420 -0.4602  0.2423
 1588ntf    on514637   5.281   3.578   0.242  0.2896 -0.0116  0.3374
 1588ntf    fn414638   5.571   3.555   0.244 -0.4360  0.4834 -0.1149
 1588ntf    fn414639   5.519   3.474   0.049 -0.4179 -0.2716 -0.0153
 1588ntf    fn414640   5.564   3.345   0.213  0.3687  0.1952  0.2662
 1589ntf    cn114641   4.105   1.050   4.401  0.3641 -0.1252 -0.1442
 1589ntf    sn214642   3.981   1.167   4.338  0.1324 -0.1668  0.2294
 1589ntf    nn314643   4.029   1.306   4.393 -0.3043  0.1171 -0.0991
 1589ntf    sn214644   3.961   1.397   4.502 -0.2208  0.0390  0.0193
 1589ntf    cn114645   4.027   1.316   4.651 -0.1020 -0.1020 -0.1086
 1589ntf    fn414646   4.091   0.930   4.348 -0.4711 -0.2516  0.3462
 1589ntf    fn414647   4.228   1.085   4.366  0.2213 -0.0590 -0.5806
 1589ntf    fn414648   4.103   1.038   4.533  0.6666 -0.1187 -0.1381
 1589ntf    on514649   4.013   1.166   4.197 -0.2808 -0.2696  0.1357
 1589ntf    on514650   3.852   1.114   4.374  0.2105 -0.4805  0.0523
 1589ntf    on514651   4.029   1.524   4.495  0.1672 -0.1859 -0.4278
 1589ntf    on514652   3.818   1.401   4.515 -0.1955 -0.2355  0.4062
 1589ntf    fn414653   3.997   1.188   4.658  0.0529 -0.1492 -0.2901
 1589ntf    fn414654   3.987   1.376   4.762  0.0829  0.1067 -0.1536
 1589ntf    fn414655   4.159   1.327   4.657 -0.1690  0.8335 -0.0865
 1590ntf    cn114656   1.438   0.286   3.183  0.3734 -0.0709  0.0150
 1590ntf    sn214657   1.506   0.296   3.351 -0.1304  0.0391  0.2113
 1590ntf    nn314658   1.469   0.439   3.407 -0.1706  0.0968  0.0383
 1590ntf    sn214659   1.557   0.569   3.401  0.2615 -0.2023 -0.2200
 1590ntf    cn114660   1.633   0.537   3.563  0.6290 -0.1493 -0.3826
 1590ntf    fn414661   1.515   0.359   3.104 -0.0338  0.2486 -0.0888
 1590ntf    fn414662   1.443   0.166   3.128 -0.7010 -0.2096  0.1988
 1590ntf    fn414663   1.313   0.325   3.170  0.4581 -0.0703 -0.8482
 1590ntf    on514664   1.427   0.195   3.418  0.0320 -0.5436 -0.4686
 1590ntf    on514665   1.648   0.281   3.340 -0.1403  0.1184 -0.0202
 1590ntf    on514666   1.672   0.580   3.315  0.2247  0.2549 -0.2126
 1590ntf    on514667   1.471   0.682   3.425  0.3913 -0.1174 -0.1548
 1590ntf    fn414668   1.555   0.468   3.644 -0.2209  0.4308 -0.6908
 1590ntf    fn414669   1.663   0.647   3.630 -0.6484 -0.4445  0.7232
 1590ntf    fn414670   1.747   0.471   3.554  0.3629 -0.7342  0.4160
 1591ntf    cn114671   4.156   0.598   5.887  0.5005  0.0714 -0.1709
 1591ntf    sn214672   4.021   0.683   5.799  0.3670 -0.2051 -0.2357
 1591ntf    nn314673   4.097   0.818   5.776 -0.6215  0.1733 -1.3929
 1591ntf    sn214674   4.078   0.954   5.852 -0.3159 -0.5155 -0.0530
 1591ntf    cn114675   3.946   1.031   5.754 -0.2204  0.5551  0.6466
 1591ntf    fn414676   4.177   0.637   6.011 -0.1027  0.3415 -0.1494
 1591ntf    fn414677   4.132   0.468   5.896  0.7831  0.0408  0.1179
 1591ntf    fn414678   4.268   0.615   5.819  0.2900 -0.0665 -0.5560
 1591ntf    on514679   4.007   0.613   5.674 -0.2185 -0.4250 -0.0525
 1591ntf    on514680   3.910   0.684   5.892  0.1826  0.4571 -0.4622
 1591ntf    on514681   4.030   0.946   5.988 -0.4607 -0.0456 -0.0753
 1591ntf    on514682   4.189   1.044   5.835 -0.2750 -0.5896 -0.1830
 1591ntf    fn414683   3.843   0.951   5.735  0.5431 -0.0595 -1.1225
 1591ntf    fn414684   3.983   1.056   5.629 -0.1549 -0.7505  0.3953
 1591ntf    fn414685   3.910   1.148   5.804 -0.6710  0.8235 -0.2791
 1592ntf    cn114686   0.007   5.803   0.020 -0.0303 -0.7024  0.4057
 1592ntf    sn214687   0.086   5.643  -0.011  0.3766 -0.4666  0.2157
 1592ntf    nn314688   0.129   5.604   0.135  0.1949  0.0353  0.4036
 1592ntf    sn214689   0.187   5.466   0.181  0.0238 -0.1968 -0.0767
 1592ntf    cn114690   0.080   5.425   0.322  0.0054  0.5299  0.1215
 1592ntf    fn414691  -0.111   5.791   0.078  0.0146 -0.7009  0.4997
 1592ntf    fn414692   0.081   5.889   0.089 -0.1773  0.0232 -0.3266
 1592ntf    fn414693  -0.017   5.865  -0.094 -0.2857 -0.2802  0.6855
 1592ntf    on514694  -0.030   5.572  -0.058  0.0816 -0.0419  0.3048
 1592ntf    on514695   0.199   5.667  -0.098  0.3547  0.4046  0.4171
 1592ntf    on514696   0.168   5.363   0.081  0.4708 -0.1695 -0.1910
 1592ntf    on514697   0.315   5.473   0.246 -0.2837 -0.0386  0.5164
 1592ntf    fn414698   0.078   5.294   0.341 -0.3543  0.5018 -0.0973
 1592ntf    fn414699  -0.047   5.451   0.298 -0.2001  0.0573  0.6745
 1592ntf    fn414700   0.119   5.486   0.433 -0.4364  0.3041  0.4044
 1593ntf    cn114701   6.446   5.786   4.091  0.2116  0.0203  0.2642
 1593ntf    sn214702   6.278   5.821   4.032  0.3271 -0.0367 -0.1023
 1593ntf    nn314703   6.295   5.784   3.880  0.6836 -1.1263  0.1954
 1593ntf    sn214704   6.194   5.736   3.770  0.2184  0.1270  0.0615
 1593ntf    cn114705   6.213   5.559   3.805  0.1296  0.1215  0.0826
 1593ntf    fn414706   6.484   5.669   4.041  0.6104  0.5091 -0.6094
 1593ntf    fn414707   6.536   5.872   4.046 -0.3629  0.2670 -0.4350
 1593ntf    fn414708   6.453   5.776   4.223 -1.2049 -0.9518  0.2812
 1593ntf    on514709   6.199   5.725   4.105  0.0041  0.4035  0.1363
 1593ntf    on514710   6.263   5.963   4.052 -0.1356 -0.1079  0.0656
 1593ntf    on514711   6.054   5.757   3.798  0.1285  0.5204 -0.6820
 1593ntf    on514712   6.242   5.748   3.635  0.4466  0.5423  0.1764
 1593ntf    fn414713   6.164   5.516   3.920  0.0240 -0.4498 -0.1706
 1593ntf    fn414714   6.342   5.536   3.788  0.0817  0.2529 -0.4866
 1593ntf    fn414715   6.162   5.481   3.710 -0.2297  0.3369  0.0989
 1594ntf    cn114716   3.992   6.614   0.399 -0.3864  0.0320 -0.0761
 1594ntf    sn214717   3.961   6.633   0.221  0.3678 -0.0729 -0.2223
 1594ntf    nn314718   3.813   6.580   0.215  0.4935 -0.3967 -0.4524
 1594ntf    sn214719   3.694   6.622   0.123 -0.1149 -0.4271  0.3151
 1594ntf    cn114720   3.632   6.760   0.224  0.1698 -0.1944  0.1717
 1594ntf    fn414721   4.095   6.687   0.439 -0.1040 -0.4665  0.1108
 1594ntf    fn414722   3.889   6.657   0.470 -0.1335  0.1554  0.2232
 1594ntf    fn414723   4.024   6.491   0.436 -0.5487 -0.1601 -0.5681
 1594ntf    on514724   3.968   6.775   0.195  0.3445 -0.0691 -0.2094
 1594ntf    on514725   4.061   6.546   0.164  0.3072 -0.0908 -0.3002
 1594ntf    on514726   3.729   6.671  -0.007  0.6074 -0.1838  0.5962
 1594ntf    on514727   3.586   6.526   0.133 -0.0941 -0.4738  0.0816
 1594ntf    fn414728   3.631   6.876   0.160  0.4789 -0.3030 -0.0317
 1594ntf    fn414729   3.700   6.782   0.335 -0.0998  0.5312  0.1998
 1594ntf    fn414730   3.507   6.730   0.258  0.1205  0.1339  0.2819
 1595ntf    cn114731   5.738   1.212   5.216  0.2767 -0.1829 -0.1873
 1595ntf    sn214732   5.746   1.385   5.159  0.2646 -0.2155 -0.2871
 1595ntf    nn314733   5.841   1.361   5.036  0.4426 -0.1716 -0.1583
 1595ntf    sn214734   5.875   1.462   4.920  0.5393  0.0978  0.1025
 1595ntf    cn114735   5.845   1.363   4.770 -0.1143  0.2850  0.1059
 1595ntf    fn414736   5.680   1.204   5.335 -0.1485  0.4161 -0.3479
 1595ntf    fn414737   5.672   1.138   5.129 -0.8317 -0.0781  0.5484
 1595ntf    fn414738   5.856   1.152   5.214  0.4732  0.2120 -0.7328
 1595ntf    on514739   5.614   1.431   5.124 -0.0800 -0.3643  0.7853
 1595ntf    on514740   5.799   1.451   5.275  0.0053  0.3263 -0.4749
 1595ntf    on514741   5.780   1.569   4.903  0.5914  0.1906  0.4006
 1595ntf    on514742   6.013   1.500   4.911  0.3473  0.6581 -0.6150
 1595ntf    fn414743   5.824   1.451   4.673  0.0289  0.1637 -0.0358
 1595ntf    fn414744   5.741   1.282   4.779 -0.0848  0.2618  0.2390
 1595ntf    fn414745   5.948   1.286   4.738  0.0510  0.6676 -0.2950
 1596ntf    cn114746   3.843   6.570   5.465 -0.2561  0.1164  0.0567
 1596ntf    sn214747   3.748   6.716   5.520 -0.5810 -0.1673  0.2512
 1596ntf    nn314748   3.815   6.744   5.659  0.1402  0.0597 -0.1350
 1596ntf    sn214749   3.929   6.845   5.697  0.1109  0.0113  0.0835
 1596ntf    cn114750   3.828   6.988   5.749  0.2250  0.1108  0.0306
 1596ntf    fn414751   3.970   6.578   5.501 -0.2074 -0.0723 -0.0767
 1596ntf    fn414752   3.804   6.460   5.528 -0.2624  0.0905  0.0064
 1596ntf    fn414753   3.820   6.541   5.338  0.1086 -0.0180  0.0214
 1596ntf    on514754   3.786   6.818   5.426 -0.6824  0.0643  0.4630
 1596ntf    on514755   3.616   6.658   5.519 -0.4643 -0.4355 -0.5060
 1596ntf    on514756   3.989   6.812   5.824 -0.1065 -0.0226  0.1780
 1596ntf    on514757   4.012   6.880   5.585  0.0829 -0.5804 -0.1231
 1596ntf    fn414758   3.900   7.094   5.781 -0.1659  0.4306 -0.1459
 1596ntf    fn414759   3.740   6.969   5.845  0.3114 -0.0648  0.0757
 1596ntf    fn414760   3.763   7.023   5.639 -0.5123  0.2694  0.5150
 1597ntf    cn114761   4.270   6.125   4.948  0.2966 -0.0445  0.3588
 1597ntf    sn214762   4.280   6.302   4.990  0.2496  0.0491 -0.0220
 1597ntf    nn314763   4.253   6.368   4.850  0.1697  0.2818  0.1020
 1597ntf    sn214764   4.352   6.416   4.738  0.0510 -0.1307 -0.1841
 1597ntf    cn114765   4.352   6.596   4.764 -0.0420 -0.1916  0.2407
 1597ntf    fn414766   4.345   6.079   4.849  0.3092  0.2330  0.2363
 1597ntf    fn414767   4.292   6.043   5.049 -0.4684  0.1686  0.7007
 1597ntf    fn414768   4.148   6.095   4.908  0.5158 -0.2623 -0.1544
 1597ntf    on514769   4.171   6.332   5.078  0.2760 -0.3927  0.1596
 1597ntf    on514770   4.413   6.318   5.043  0.0774  0.0639  0.4056
 1597ntf    on514771   4.488   6.369   4.751  0.2158  0.2117 -0.6340
 1597ntf    on514772   4.299   6.401   4.605 -0.1432 -0.2362 -0.0952
 1597ntf    fn414773   4.424   6.636   4.868 -0.1405  0.2524  0.1391
 1597ntf    fn414774   4.229   6.644   4.772 -0.1351 -0.3630 -0.1561
 1597ntf    fn414775   4.409   6.650   4.658 -0.7411  0.0957  0.0084
 1598ntf    cn114776   2.612   0.720   0.860 -0.2846  0.3823  0.1715
 1598ntf    sn214777   2.707   0.848   0.772  0.3224 -0.1579  0.0316
 1598ntf    nn314778   2.719   0.959   0.883 -0.5970  0.0891 -0.1080
 1598ntf    sn214779   2.845   1.004   0.966 -0.2158 -0.0276 -0.6148
 1598ntf    cn114780   2.950   1.086   0.843 -0.2056  0.2030 -0.4525
 1598ntf    fn414781   2.496   0.767   0.903 -0.6277  0.0474 -0.3786
 1598ntf    fn414782   2.592   0.620   0.776  0.8206  0.3197 -0.0415
 1598ntf    fn414783   2.678   0.661   0.958  0.0386 -0.3417 -0.4716
 1598ntf    on514784   2.831   0.784   0.736  0.1918  0.0058 -0.7306
 1598ntf    on514785   2.629   0.891   0.659  0.2887  0.0667  0.1401
 1598ntf    on514786   2.814   1.114   1.053  0.5170  0.2186 -0.6589
 1598ntf    on514787   2.923   0.897   1.022 -0.4119  0.2592  0.2211
 1598ntf    fn414788   2.886   1.172   0.766 -0.3491 -0.0705 -0.6412
 1598ntf    fn414789   3.007   1.010   0.750  0.2483 -0.0665  0.0406
 1598ntf    fn414790   3.053   1.146   0.902  0.1245 -0.0374 -0.7793
 1599ntf    cn114791   5.192   3.413   1.403  0.1044  0.2125 -0.2736
 1599ntf    sn214792   5.098   3.547   1.482  0.2106  0.2960 -0.2876
 1599ntf    nn314793   5.080   3.634   1.353 -0.4622  0.2571 -0.2254
 1599ntf    sn214794   5.070   3.790   1.341 -0.1267  0.2711 -0.3424
 1599ntf    cn114795   5.000   3.800   1.173 -0.3279  0.2886 -0.2576
 1599ntf    fn414796   5.127   3.385   1.292  0.8276  0.5975 -0.8028
 1599ntf    fn414797   5.318   3.438   1.369  0.2796  0.2969  0.4145
 1599ntf    fn414798   5.195   3.302   1.475  0.3923  0.5926  0.3073
 1599ntf    on514799   4.969   3.493   1.516  0.1496  0.5236 -0.1556
 1599ntf    on514800   5.189   3.604   1.578 -0.6629  0.6717  0.3372
 1599ntf    on514801   4.979   3.867   1.423  0.2928  0.7015 -0.2753
 1599ntf    on514802   5.205   3.838   1.329 -0.1716  0.4554 -0.1218
 1599ntf    fn414803   5.082   3.734   1.093 -0.7875 -0.5800 -0.0275
 1599ntf    fn414804   5.005   3.926   1.133  0.5034  0.3115 -0.1046
 1599ntf    fn414805   4.878   3.750   1.161 -0.1964 -0.1001 -0.0070
 1600ntf    cn114806   2.282   1.209   2.630  0.1883 -0.1597 -0.0771
 1600ntf    sn214807   2.300   1.363   2.536  0.4665  0.0361  0.2949
 1600ntf    nn314808   2.218   1.311   2.412  0.4278 -0.0151  0.3419
 1600ntf    sn214809   2.260   1.232   2.284 -0.2644 -0.1792  0.2147
 1600ntf    cn114810   2.132   1.102   2.283  0.0498 -0.4899  0.1254
 1600ntf    fn414811   2.157   1.188   2.671  0.1400 -0.4342 -0.3595
 1600ntf    fn414812   2.313   1.102   2.558  0.6294 -0.0198 -0.0920
 1600ntf    fn414813   2.363   1.208   2.735  0.2219  0.4037 -0.0962
 1600ntf    on514814   2.227   1.459   2.617  0.4298 -0.0626  0.3784
 1600ntf    on514815   2.441   1.383   2.515  0.4548 -0.1870 -0.0003
 1600ntf    on514816   2.229   1.292   2.156 -0.0936  0.0703  0.2905
 1600ntf    on514817   2.384   1.159   2.294 -0.3324 -0.2083  0.8614
 1600ntf    fn414818   2.010   1.152   2.284  0.0562 -0.4656 -0.3240
 1600ntf    fn414819   2.132   1.037   2.399 -0.0479 -0.7970 -0.0467
 1600ntf    fn414820   2.135   1.015   2.184 -0.0385 -0.3789  0.0252
 1601ntf    cn114821   5.442   6.218   3.371  0.5109 -0.1203  0.2291
 1601ntf    sn214822   5.518   6.070   3.444  0.1995 -0.3387  0.1145
 1601ntf    nn314823   5.599   6.140   3.559  0.1281  0.2774 -0.2036
 1601ntf    sn214824   5.549   6.176   3.704 -0.0403 -0.2185 -0.1331
 1601ntf    cn114825   5.658   6.321   3.718 -0.3441 -0.0212  0.2059
 1601ntf    fn414826   5.352   6.275   3.448  0.0526 -0.5279 -0.0021
 1601ntf    fn414827   5.529   6.313   3.339  0.1297 -0.0141 -0.5261
 1601ntf    fn414828   5.378   6.198   3.257 -0.1675 -0.2739  0.6368
 1601ntf    on514829   5.399   6.000   3.483 -0.4863  0.5301 -0.3867
 1601ntf    on514830   5.604   6.019   3.339 -0.0027  0.3231 -0.3774
 1601ntf    on514831   5.413   6.223   3.719  0.1409  0.3791 -0.3352
 1601ntf    on514832   5.609   6.097   3.808 -0.0084  0.1830  0.1588
 1601ntf    fn414833   5.635   6.409   3.622  0.3177 -0.2387 -0.1580
 1601ntf    fn414834   5.783   6.279   3.700 -0.0848  0.8581 -0.0760
 1601ntf    fn414835   5.647   6.379   3.836  0.7826 -0.1762  0.4042
 1602ntf    cn114836   2.801   2.955   5.588  0.0525 -0.0148  0.2623
 1602ntf    sn214837   2.925   2.989   5.459 -0.2260  0.1035  0.0266
 1602ntf    nn314838   2.994   2.849   5.456  0.1552  0.2884  0.1034
 1602ntf    sn214839   2.972   2.742   5.343  0.2652  0.3308  0.0413
 1602ntf    cn114840   2.979   2.587   5.438  0.1019  0.4667  0.2774
 1602ntf    fn414841   2.718   2.857   5.555 -0.3168  0.3348  0.1415
 1602ntf    fn414842   2.863   2.933   5.703 -0.3486 -0.1935  0.4432
 1602ntf    fn414843   2.716   3.052   5.614 -0.2330 -0.1250 -0.2367
 1602ntf    on514844   2.849   3.027   5.342 -0.0247 -0.0023 -0.1395
 1602ntf    on514845   3.024   3.081   5.511  0.2397 -0.1316 -0.4321
 1602ntf    on514846   2.846   2.729   5.274  0.0991 -0.1217  0.4233
 1602ntf    on514847   3.085   2.733   5.255  0.2358 -0.0327  0.0411
 1602ntf    fn414848   2.962   2.485   5.356  0.8762  0.6395 -0.1114
 1602ntf    fn414849   2.886   2.592   5.532 -0.3655  0.3034 -0.1744
 1602ntf    fn414850   3.093   2.572   5.503  0.1923  0.2454  0.0688
 1603ntf    cn114851   3.218   2.659   1.073 -0.0311  0.3651  0.2130
 1603ntf    sn214852   3.360   2.747   1.002  0.1877 -0.0448  0.1385
 1603ntf    nn314853   3.482   2.652   1.029 -0.2498 -0.7168 -0.2340
 1603ntf    sn214854   3.587   2.649   1.146  0.0012  0.2185 -0.4262
 1603ntf    cn114855   3.734   2.682   1.044  0.1994  0.1675 -0.1568
 1603ntf    fn414856   3.189   2.546   1.010 -0.0319  0.3941  0.1618
 1603ntf    fn414857   3.232   2.639   1.203  1.3521  0.1886  0.0499
 1603ntf    fn414858   3.110   2.732   1.057 -0.1512  0.0743 -0.3217
 1603ntf    on514859   3.333   2.748   0.861  0.1317 -0.0552  0.1492
 1603ntf    on514860   3.366   2.876   1.067 -0.2374  0.2643 -0.4234
 1603ntf    on514861   3.585   2.756   1.242  0.4654  0.0093 -0.1796
 1603ntf    on514862   3.616   2.517   1.198  0.5935  0.6496  0.3437
 1603ntf    fn414863   3.850   2.692   1.107  0.4232  0.4479 -0.6111
 1603ntf    fn414864   3.724   2.789   0.968 -0.0881  0.3090  0.0786
 1603ntf    fn414865   3.748   2.579   0.962  0.2540 -0.0137  0.0778
 1604ntf    cn114866   4.189   2.058   3.035 -0.1597 -0.3384  0.0590
 1604ntf    sn214867   4.119   1.969   2.893 -0.1832  0.0380 -0.1662
 1604ntf    nn314868   4.005   2.068   2.850 -0.4539 -0.0849  0.2627
 1604ntf    sn214869   3.999   2.194   2.757 -0.2986 -0.3803 -0.1504
 1604ntf    cn114870   3.830   2.200   2.692 -0.5525  0.1081  0.5446
 1604ntf    fn414871   4.244   2.170   2.992 -0.3244 -0.0399  0.6117
 1604ntf    fn414872   4.100   2.080   3.130  0.2729  0.1571  0.3543
 1604ntf    fn414873   4.287   1.982   3.081  0.0392  0.1737  0.4801
 1604ntf    on514874   4.229   1.937   2.806 -0.0548 -0.3892  0.1519
 1604ntf    on514875   4.056   1.859   2.962 -0.0574  0.2396  0.2735
 1604ntf    on514876   4.006   2.314   2.837 -0.1018 -0.2146 -0.4121
 1604ntf    on514877   4.080   2.182   2.638  0.0323 -0.0192  0.0355
 1604ntf    fn414878   3.741   2.218   2.789 -0.9321 -0.1927  0.2576
 1604ntf    fn414879   3.796   2.086   2.633  0.4568  0.0626  0.0341
 1604ntf    fn414880   3.811   2.304   2.611 -0.1238 -0.1621  0.0951
 1605ntf    cn114881   6.474   3.635   5.245  0.1453 -0.0553 -0.2295
 1605ntf    sn214882   6.506   3.528   5.102 -0.2532 -0.2907 -0.1445
 1605ntf    nn314883   6.406   3.410   5.132 -0.9687  0.4230  0.3086
 1605ntf    sn214884   6.347   3.297   5.041  0.1970  0.0131  0.0495
 1605ntf    cn114885   6.175   3.353   5.056  0.3424  0.4997 -0.1021
 1605ntf    fn414886   6.349   3.679   5.254  0.1842 -0.0513  0.3270
 1605ntf    fn414887   6.483   3.569   5.359 -0.8578 -0.4865 -0.3888
 1605ntf    fn414888   6.559   3.736   5.252 -0.5174  0.4898  0.1043
 1605ntf    on514889   6.466   3.618   4.997  0.3700  0.6635  0.4298
 1605ntf    on514890   6.645   3.494   5.121 -0.3857 -0.4506  0.5526
 1605ntf    on514891   6.379   3.309   4.901 -0.3687 -0.0481 -0.0852
 1605ntf    on514892   6.348   3.162   5.091  0.6442  0.0264  0.0842
 1605ntf    fn414893   6.141   3.368   5.183  0.3669  0.8384 -0.1345
 1605ntf    fn414894   6.092   3.262   5.010  0.2815  0.4832  0.0395
 1605ntf    fn414895   6.146   3.467   4.994  0.2672  0.5009 -0.0645
 1606ntf    cn114896   0.619   2.718   1.806  0.0550 -0.1190  0.2785
 1606ntf    sn214897   0.594   2.733   1.627 -0.2309  0.0315  0.3325
 1606ntf    nn314898   0.637   2.881   1.598 -0.0042 -0.0761  0.1169
 1606ntf    sn214899   0.787   2.915   1.566 -0.0096  0.0016  0.1723
 1606ntf    cn114900   0.795   2.873   1.389  0.2365 -0.4558  0.2915
 1606ntf    fn414901   0.578   2.818   1.882  0.1188  0.1673 -0.0635
 1606ntf    fn414902   0.569   2.611   1.866  0.5488 -0.1711  0.6101
 1606ntf    fn414903   0.747   2.697   1.832  0.0789 -0.0121  0.2462
 1606ntf    on514904   0.673   2.623   1.577 -0.1039  0.5715 -0.6907
 1606ntf    on514905   0.451   2.720   1.611 -0.1394 -0.4725 -0.1140
 1606ntf    on514906   0.800   3.059   1.566 -0.8019  0.0805  0.6675
 1606ntf    on514907   0.886   2.838   1.637  0.2710  0.0139 -0.2028
 1606ntf    fn414908   0.720   2.948   1.311  0.9300 -0.0035  0.0590
 1606ntf    fn414909   0.748   2.750   1.373 -0.5452 -0.0835 -0.3851
 1606ntf    fn414910   0.916   2.867   1.337  0.3873  0.4474  0.5248
 1607ntf    cn114911   2.222   0.726   4.088 -0.4913 -0.6783 -0.4010
 1607ntf    sn214912   2.255   0.782   4.258 -0.4829 -0.0873 -0.5976
 1607ntf    nn314913   2.351   0.905   4.236 -0.4268  0.1616  0.9606
 1607ntf    sn214914   2.486   0.952   4.300  0.1708 -0.4849  0.1964
 1607ntf    cn114915   2.474   1.131   4.274  0.3731 -0.4866  0.0871
 1607ntf    fn414916   2.133   0.800   4.024  0.3006  0.4443 -0.2319
 1607ntf    fn414917   2.325   0.746   4.007 -0.6424  0.1030 -0.4075
 1607ntf    fn414918   2.175   0.604   4.069 -0.1817 -0.8218 -0.2573
 1607ntf    on514919   2.127   0.819   4.314  0.0230  0.2034  0.3960
 1607ntf    on514920   2.313   0.670   4.328 -0.2845  0.1379 -0.4010
 1607ntf    on514921   2.494   0.930   4.443 -0.1597  0.0881  0.3030
 1607ntf    on514922   2.601   0.909   4.225  0.3985 -0.0120  0.2713
 1607ntf    fn414923   2.555   1.205   4.347 -0.1346  0.3220 -0.1438
 1607ntf    fn414924   2.351   1.174   4.297  0.4848 -0.1014 -0.0243
 1607ntf    fn414925   2.504   1.152   4.147 -0.0370  0.8489  0.1924
 1608ntf    cn114926   2.611   0.676   6.594  0.1894  0.0578 -0.2791
 1608ntf    sn214927   2.693   0.587   6.730 -0.0922  0.0960 -0.0815
 1608ntf    nn314928   2.735   0.703   6.827 -0.1989  0.2259 -0.1909
 1608ntf    sn214929   2.872   0.778   6.838 -0.0899  0.0084 -0.0618
 1608ntf    cn114930   2.932   0.686   6.982 -0.0828  0.3525  0.1576
 1608ntf    fn414931   2.605   0.630   6.470 -1.0914  0.0183 -0.2228
 1608ntf    fn414932   2.487   0.706   6.630  0.1618  0.1224 -0.4284
 1608ntf    fn414933   2.662   0.797   6.583 -0.1224  0.2207  0.0198
 1608ntf    on514934   2.582   0.512   6.784 -0.4856  0.1333 -0.8268
 1608ntf    on514935   2.796   0.511   6.663  0.1430  0.4224 -0.0942
 1608ntf    on514936   2.974   0.759   6.737 -0.5437 -0.9582 -0.3463
 1608ntf    on514937   2.865   0.909   6.898  0.0007 -0.0258  0.0230
 1608ntf    fn414938   2.945   0.556   6.960 -0.1214  0.2446  0.7533
 1608ntf    fn414939   2.860   0.700   7.092  0.1762  0.6149  0.2947
 1608ntf    fn414940   3.057   0.715   7.012  0.2100 -0.3068 -0.3956
 1609ntf    cn114941   2.119   1.850   5.401  0.2370 -0.3620  0.0083
 1609ntf    sn214942   2.018   1.737   5.502  0.0028 -0.1786 -0.0218
 1609ntf    nn314943   2.105   1.606   5.501  0.1534 -0.0776 -0.1217
 1609ntf    sn214944   2.185   1.539   5.618 -0.2371 -0.0831  0.1436
 1609ntf    cn114945   2.245   1.402   5.515 -0.2796 -0.1703  0.2345
 1609ntf    fn414946   2.129   1.809   5.276 -0.1226  0.3750 -0.2646
 1609ntf    fn414947   2.063   1.969   5.395  0.3741 -0.2902  0.1439
 1609ntf    fn414948   2.239   1.868   5.455  0.3417 -0.5172 -0.1672
 1609ntf    on514949   2.000   1.803   5.629 -0.4358 -0.0817 -0.1332
 1609ntf    on514950   1.901   1.712   5.422 -0.4245  0.4715  0.3927
 1609ntf    on514951   2.314   1.588   5.658 -0.1145 -0.3586  0.0919
 1609ntf    on514952   2.106   1.466   5.715 -0.1846 -0.0980  0.1753
 1609ntf    fn414953   2.287   1.450   5.399  0.3317  0.6135  0.7715
 1609ntf    fn414954   2.155   1.309   5.489 -0.2133 -0.2580  0.3155
 1609ntf    fn414955   2.345   1.335   5.570  0.2294  0.1066 -0.3478
 1610ntf    cn114956   4.697   0.832   0.095 -0.1669 -0.2379 -0.1075
 1610ntf    sn214957   4.532   0.782   0.152 -0.3924  0.2184 -0.3527
 1610ntf    nn314958   4.438   0.871   0.063 -0.5775  0.7664  0.3928
 1610ntf    sn214959   4.347   0.846  -0.062 -0.0528  0.2110  0.1188
 1610ntf    cn114960   4.230   0.982  -0.035 -0.1606  0.1669 -0.1217
 1610ntf    fn414961   4.730   0.778  -0.021  0.1768 -0.1782 -0.0395
 1610ntf    fn414962   4.698   0.964   0.083 -0.3256 -0.2948 -0.7607
 1610ntf    fn414963   4.792   0.800   0.182  0.0770  0.1951 -0.2108
 1610ntf    on514964   4.544   0.639   0.135  0.5380  0.1369  0.8634
 1610ntf    on514965   4.533   0.824   0.289 -0.2311 -0.3535 -0.1756
 1610ntf    on514966   4.410   0.885  -0.186 -0.0053  0.1042  0.1089
 1610ntf    on514967   4.264   0.728  -0.058  0.0599  0.1066 -0.5521
 1610ntf    fn414968   4.263   1.096  -0.093 -0.4371  0.3170  0.0129
 1610ntf    fn414969   4.225   1.010   0.095  0.3457  0.3222 -0.1346
 1610ntf    fn414970   4.108   0.948  -0.073 -0.5079  0.5973  0.5670
 1611ntf    cn114971   1.381   5.507   1.497 -0.0006  0.0780 -0.3031
 1611ntf    sn214972   1.383   5.326   1.510 -0.1554  0.0757 -0.3024
 1611ntf    nn314973   1.350   5.318   1.663  0.3055 -0.2919 -0.2171
 1611ntf    sn214974   1.443   5.340   1.788  0.0044 -0.5761  0.0596
 1611ntf    cn114975   1.345   5.468   1.872 -0.1972 -0.4618 -0.3413
 1611ntf    fn414976   1.409   5.544   1.373 -0.0225 -0.3990 -0.4532
 1611ntf    fn414977   1.270   5.569   1.534  0.0552  0.1737 -0.2948
 1611ntf    fn414978   1.476   5.571   1.564 -0.3391  0.9651 -0.6545
 1611ntf    on514979   1.272   5.289   1.426 -0.3661 -0.2185  0.1047
 1611ntf    on514980   1.515   5.281   1.471 -0.1182 -0.1886  0.1239
 1611ntf    on514981   1.444   5.225   1.875 -0.0682 -0.6203  0.0030
 1611ntf    on514982   1.566   5.409   1.761 -0.1620 -0.2373  0.1604
 1611ntf    fn414983   1.404   5.503   1.985  0.0993 -0.6472 -0.4358
 1611ntf    fn414984   1.225   5.421   1.902 -0.2178  0.1089  0.5143
 1611ntf    fn414985   1.324   5.577   1.800 -0.2437 -0.0836  0.2363
 1612ntf    cn114986   5.731   4.195   4.008  0.3756  0.1426  0.1123
 1612ntf    sn214987   5.586   4.100   4.063  0.0663  0.3682 -0.3116
 1612ntf    nn314988   5.509   4.199   4.158 -0.2004 -0.2605  0.1309
 1612ntf    sn214989   5.439   4.333   4.115  0.2435 -0.1300 -0.2035
 1612ntf    cn114990   5.268   4.272   4.130  0.1386  0.2399  0.1198
 1612ntf    fn414991   5.797   4.263   4.101  0.0544 -0.0501  0.4812
 1612ntf    fn414992   5.826   4.120   3.955 -0.2373  0.0111 -0.8146
 1612ntf    fn414993   5.696   4.287   3.919  0.0531 -0.3552 -0.2792
 1612ntf    on514994   5.510   4.057   3.948 -0.2276 -0.1512  0.0730
 1612ntf    on514995   5.634   3.988   4.139  0.1253  0.9837  0.5790
 1612ntf    on514996   5.430   4.432   4.219  0.3647 -0.4226  0.0899
 1612ntf    on514997   5.459   4.376   3.979 -0.6247  0.2602 -0.2114
 1612ntf    fn414998   5.246   4.223   4.251  0.6828 -0.4912 -0.0735
 1612ntf    fn414999   5.239   4.181   4.039  0.1565  0.3727 -0.0191
 1612ntf    fn415000   5.177   4.366   4.110 -0.1814 -0.1997 -0.5571
 1613ntf    cn115001   1.566   1.435   6.148 -0.4777  0.0954  0.1768
 1613ntf    sn215002   1.420   1.425   6.040 -0.1900  0.0389 -0.2097
 1613ntf    nn315003   1.356   1.561   6.084 -0.8184 -0.2379 -0.2606
 1613ntf    sn215004   1.366   1.707   6.027 -0.2951 -0.1011  0.1721
 1613ntf    cn115005   1.198   1.719   5.959 -0.3076 -0.2086  0.1842
 1613ntf    fn415006   1.525   1.495   6.258 -0.2842  0.2857  0.1447
 1613ntf    fn415007   1.608   1.313   6.179  0.3186  0.1984 -0.4488
 1613ntf    fn415008   1.667   1.505   6.098 -0.6049 -0.0320 -0.2655
 1613ntf    on515009   1.460   1.415   5.902  0.9262  0.1012  0.0948
 1613ntf    on515010   1.348   1.314   6.096 -0.6497  0.4264 -0.0248
 1613ntf    on515011   1.373   1.812   6.127  0.3236  0.1065 -0.0851
 1613ntf    on515012   1.444   1.726   5.908  0.0191  0.2390  0.4297
 1613ntf    fn415013   1.176   1.833   5.895  0.1040 -0.2032  0.0478
 1613ntf    fn415014   1.101   1.705   6.049 -0.0636  0.2214  0.5163
 1613ntf    fn415015   1.178   1.623   5.869  0.2058  0.2791 -0.4593
 1614ntf    cn115016   6.427   6.507   1.094  0.1451 -0.7518  0.2985
 1614ntf    sn215017   6.524   6.652   1.042 -0.4521 -0.3884  0.1738
 1614ntf    nn315018   6.412   6.761   1.049  0.4076  0.5444 -0.3060
 1614ntf    sn215019   6.363   6.858   1.162  0.0791  0.0885 -0.0508
 1614ntf    cn115020   6.441   7.010   1.098 -0.4342  0.2444 -0.3115
 1614ntf    fn415021   6.363   6.536   1.206  0.0138 -0.1394  0.0714
 1614ntf    fn415022   6.339   6.485   0.997  0.6719  0.1863 -0.4163
 1614ntf    fn415023   6.497   6.397   1.111  0.6130 -0.4325  0.4409
 1614ntf    on515024   6.624   6.665   1.146  0.0712 -0.2742 -0.3359
 1614ntf    on515025   6.565   6.618   0.908  0.1355 -0.0470  0.2603
 1614ntf    on515026   6.223   6.891   1.173  0.1680  0.0792  1.3717
 1614ntf    on515027   6.435   6.854   1.287 -0.2094 -0.3694  0.1023
 1614ntf    fn415028   6.570   6.987   1.082 -0.3950  0.6138 -0.5360
 1614ntf    fn415029   6.435   7.108   1.186 -0.0914 -0.1298  0.1357
 1614ntf    fn415030   6.391   7.052   0.983 -0.1620 -1.0729 -0.9404
 1615ntf    cn115031   2.826   0.764   6.032 -0.1942 -0.2413 -0.0656
 1615ntf    sn215032   2.846   0.929   5.957 -0.0797 -0.0546  0.3705
 1615ntf    nn315033   2.967   0.993   6.034 -0.2019  0.3589  0.2213
 1615ntf    sn215034   2.998   1.141   6.076  0.2902  0.3135  0.0195
 1615ntf    cn115035   3.176   1.164   6.049  0.2581  0.2825 -0.2288
 1615ntf    fn415036   2.830   0.776   6.164 -0.0598  0.2140 -0.1063
 1615ntf    fn415037   2.704   0.724   6.003 -0.4463  0.6622 -0.2925
 1615ntf    fn415038   2.920   0.682   5.989  0.1156  0.0032  0.1339
 1615ntf    on515039   2.875   0.900   5.819 -0.0456 -0.0561  0.3780
 1615ntf    on515040   2.726   1.002   5.992 -0.2123 -0.3897  0.6193
 1615ntf    on515041   2.950   1.242   5.984 -0.1772  0.2483  0.1908
 1615ntf    on515042   2.979   1.165   6.217 -0.4129  0.2810 -0.0631
 1615ntf    fn415043   3.252   1.124   6.150  0.2597  0.5980 -0.1042
 1615ntf    fn415044   3.217   1.284   6.011  0.4099  0.0882 -0.6848
 1615ntf    fn415045   3.213   1.082   5.953  0.5801 -0.2673  0.3560
 1616ntf    cn115046   5.086   0.452   2.771 -0.0838  0.2445  0.1281
 1616ntf    sn215047   5.006   0.615   2.775  0.1774  0.3743  0.0986
 1616ntf    nn315048   4.867   0.588   2.843 -0.0954  0.6127 -0.3603
 1616ntf    sn215049   4.773   0.692   2.914 -0.3182  0.3390 -0.2544
 1616ntf    cn115050   4.854   0.713   3.076  0.0543 -0.3401 -0.3475
 1616ntf    fn415051   5.086   0.390   2.887 -0.7700  0.0899  0.0475
 1616ntf    fn415052   5.035   0.373   2.678 -0.0258  0.3705 -0.0118
 1616ntf    fn415053   5.208   0.476   2.724 -0.3146  0.1030 -0.5643
 1616ntf    on515054   5.087   0.693   2.865 -0.0044  0.6509  0.0248
 1616ntf    on515055   4.990   0.648   2.635 -0.3039 -0.2815 -0.0051
 1616ntf    on515056   4.780   0.826   2.861  0.2911  0.3030 -0.2820
 1616ntf    on515057   4.642   0.640   2.944 -0.2777  0.4975  0.2037
 1616ntf    fn415058   4.967   0.780   3.068  0.2997 -0.6790  0.2193
 1616ntf    fn415059   4.893   0.605   3.142 -0.0908 -0.1303  0.0886
 1616ntf    fn415060   4.781   0.785   3.160  0.9082  0.4621 -0.2821
 1617ntf    cn115061   0.037   3.666   1.049  0.2259  0.3665  0.1654
 1617ntf    sn215062   0.013   3.513   1.145  0.2582  0.2663  0.0147
 1617ntf    nn315063   0.148   3.434   1.125  0.4240  0.6170 -0.2701
 1617ntf    sn215064   0.254   3.403   1.237 -0.2257 -0.2088  0.1258
 1617ntf    cn115065   0.307   3.245   1.165 -0.1243 -0.1163 -0.0013
 1617ntf    fn415066  -0.071   3.741   1.057 -0.3518 -0.3903 -0.3324
 1617ntf    fn415067   0.140   3.732   1.099  0.4413 -0.3625  0.6941
 1617ntf    fn415068   0.059   3.641   0.921 -0.2846  0.3778  0.0746
 1617ntf    on515069  -0.015   3.570   1.274  0.4648  0.8638 -0.2005
 1617ntf    on515070  -0.097   3.452   1.075  0.1916  0.4037  0.0001
 1617ntf    on515071   0.371   3.485   1.225 -0.7039  0.4566 -0.0640
 1617ntf    on515072   0.211   3.364   1.369  0.4651  0.0310  0.4220
 1617ntf    fn415073   0.416   3.195   1.220 -0.1715 -0.1793  0.0347
 1617ntf    fn415074   0.333   3.259   1.036  0.2542  0.3547  0.1236
 1617ntf    fn415075   0.207   3.160   1.181  0.1079 -0.3011  0.4677
 1618ntf    cn115076   0.288   6.062   0.761  0.0148 -0.2678 -0.1537
 1618ntf    sn215077   0.156   5.951   0.817  0.0452 -0.4010 -0.3475
 1618ntf    nn315078   0.236   5.877   0.930 -0.3121 -0.0186  0.1595
 1618ntf    sn215079   0.256   5.911   1.082  0.2706  0.1099  0.0575
 1618ntf    cn115080   0.410   5.828   1.133  0.2127 -0.0671 -0.0554
 1618ntf    fn415081   0.245   6.135   0.660 -0.4880  0.2775  0.4405
 1618ntf    fn415082   0.336   6.141   0.856 -0.0322 -0.1435 -0.2337
 1618ntf    fn415083   0.390   5.991   0.716 -0.2550 -0.3740 -0.6015
 1618ntf    on515084   0.057   6.042   0.868  0.1942 -0.3084 -0.2273
 1618ntf    on515085   0.118   5.861   0.711 -0.4052 -0.3628 -0.2244
 1618ntf    on515086   0.281   6.047   1.123  0.2586  0.1557 -0.0874
 1618ntf    on515087   0.153   5.840   1.155  0.5246 -0.4067 -0.0825
 1618ntf    fn415088   0.392   5.702   1.094 -0.3374  0.0045 -0.0453
 1618ntf    fn415089   0.442   5.820   1.260 -0.0817  0.4097  0.0536
 1618ntf    fn415090   0.508   5.885   1.066  0.3391  0.0900  0.2639
 1619ntf    cn115091   5.830   2.092   6.559 -0.3888  0.2339 -0.4484
 1619ntf    sn215092   5.805   1.918   6.605 -0.0378  0.3083  0.0321
 1619ntf    nn315093   5.689   1.871   6.509 -0.0044  0.3684 -0.0374
 1619ntf    sn215094   5.631   1.727   6.494  0.1450  0.3455 -0.4050
 1619ntf    cn115095   5.491   1.745   6.608  0.1553  0.1169 -0.3549
 1619ntf    fn415096   5.892   2.116   6.445  0.6593 -0.5736 -0.0582
 1619ntf    fn415097   5.714   2.149   6.531 -0.5026  0.1546 -0.1422
 1619ntf    fn415098   5.894   2.166   6.648  0.3634 -0.1554 -0.6543
 1619ntf    on515099   5.930   1.854   6.573 -0.1708  0.2391 -0.3590
 1619ntf    on515100   5.768   1.927   6.744  0.0009  0.3439  0.0405
 1619ntf    on515101   5.574   1.699   6.364 -0.3454 -0.3964 -0.0404
 1619ntf    on515102   5.697   1.615   6.556 -0.7018  0.0532 -0.0133
 1619ntf    fn415103   5.453   1.872   6.599 -0.2722  0.0341  0.1895
 1619ntf    fn415104   5.519   1.725   6.736  0.0994  0.3117 -0.3114
 1619ntf    fn415105   5.390   1.666   6.576  0.3067 -0.0777 -0.3506
 1620ntf    cn115106   2.135   3.087   5.010  0.1160 -0.0830 -0.2851
 1620ntf    sn215107   2.244   3.171   4.891  0.2303  0.0726 -0.0717
 1620ntf    nn315108   2.306   3.046   4.819  0.1040 -0.2717  0.4137
 1620ntf    sn215109   2.455   3.040   4.772 -0.1572 -0.2083 -0.4548
 1620ntf    cn115110   2.428   2.936   4.625 -0.0020 -0.1572 -0.5200
 1620ntf    fn415111   2.032   3.030   4.950 -0.4570  0.0185  0.5957
 1620ntf    fn415112   2.196   2.985   5.069 -0.1668 -0.2321 -0.2478
 1620ntf    fn415113   2.086   3.167   5.102 -0.2120 -0.4188 -0.1663
 1620ntf    on515114   2.146   3.239   4.810 -0.0690 -0.3495 -0.0647
 1620ntf    on515115   2.320   3.245   4.988  0.4023  0.0657 -0.1999
 1620ntf    on515116   2.510   3.165   4.726  0.1823  0.0683  0.6661
 1620ntf    on515117   2.535   2.959   4.861 -0.2109  0.6240  0.3647
 1620ntf    fn415118   2.346   2.989   4.536  0.2587  0.5622 -0.3444
 1620ntf    fn415119   2.380   2.818   4.659  0.0897 -0.1947 -0.5224
 1620ntf    fn415120   2.542   2.907   4.565  0.1888 -0.1415 -0.1682
   6.72852   6.72852   6.72852
